FOO
138240
    1MOL0     O    1   7.872   3.425   4.633  1.2546  0.1482 -0.4524
    1MOL0     C    2   7.962   3.430   4.559 -1.0882 -0.0438 -0.3493
    1MOL0     O    3   8.086   3.477   4.582  0.5535  0.2458  0.0458
    1MOL0     C    4   8.131   3.516   4.703 -0.3641 -0.1017  0.9770
    1MOL0     C    5   8.060   3.598   4.780 -0.1444  0.2020  0.1262
    1MOL0     C    6   8.118   3.646   4.905 -1.2792  0.6596  0.6989
    1MOL0     C    7   8.237   3.591   4.957 -0.1877  0.3981 -0.2836
    1MOL0     O    8   8.298   3.602   5.074  0.2119 -1.0201 -0.0009
    1MOL0     C    9   8.247   3.715   5.149 -0.7991 -0.2800 -0.0546
    1MOL0     C   10   8.335   3.727   5.283  1.2818  0.3063  0.6683
    1MOL0     C   11   8.322   3.865   5.333 -0.2630  0.6025 -0.3000
    1MOL0     C   12   8.421   3.898   5.451  0.6010  0.0606 -0.1672
    1MOL0     C   13   8.380   4.029   5.520 -1.0467 -0.2323  0.7400
    1MOL0     C   14   8.487   4.085   5.615  0.4506 -0.0620  0.3193
    1MOL0     C   15   8.587   4.176   5.544  0.4294  0.6191  0.2996
    1MOL0     C   16   8.668   4.240   5.650  0.1316  0.7332  0.1159
    1MOL0     N   17   8.746   4.351   5.586  0.8520  0.7669 -0.2568
    1MOL0     C   18   8.870   4.384   5.612 -0.0014  0.5250 -0.0612
    1MOL0     C   19   8.882   4.504   5.557 -0.0137 -0.0875  0.2365
    1MOL0     C   20   8.992   4.600   5.597 -0.0531  0.8660 -0.3977
    1MOL0     C   21   8.936   4.702   5.682 -0.5754  0.1543 -0.2851
    1MOL0     C   22   9.041   4.800   5.733  0.6139 -0.4238  0.8262
    1MOL0     C   23   9.126   4.731   5.852  0.0469 -0.0401  1.2862
    1MOL0     O   24   9.226   4.823   5.877 -0.8008  0.4984 -0.1339
    1MOL0     C   25   9.296   4.819   5.990 -0.4465  0.4080  0.1775
    1MOL0     C   26   9.274   4.734   6.099  0.0902 -0.7103  0.7891
    1MOL0     C   27   9.360   4.744   6.206  0.2449 -0.4325 -0.0488
    1MOL0     C   28   9.477   4.825   6.201  0.2680 -0.2801 -0.6746
    1MOL0     C   29   9.575   4.816   6.308 -0.1305  0.2279  1.2417
    1MOL0     O   30   9.698   4.783   6.259  0.0012  0.3245 -0.8600
    1MOL0     C   31   9.785   4.760   6.365  0.6542 -0.5576  0.9937
    1MOL0     C   32   9.778   4.639   6.430 -0.2409 -1.0703  0.2570
    1MOL0     C   33   9.865   4.609   6.546  0.2276  0.0411  0.2694
    1MOL0     C   34   9.958   4.700   6.594  0.7914 -1.1026 -0.0435
    1MOL0     O   35  10.046   4.661   6.691 -0.3242  0.0172 -0.3029
    1MOL0     C   36  10.181   4.708   6.680 -0.0272  0.2599 -0.7527
    1MOL0     C   37  10.258   4.633   6.564 -0.5484 -0.1491 -0.0917
    1MOL0     C   38  10.380   4.708   6.525 -0.4357 -1.0475 -0.1665
    1MOL0     C   39  10.451   4.656   6.399  0.2412  0.4297  0.1659
    1MOL0     C   40  10.582   4.729   6.378 -1.0893  0.2291  0.0404
    1MOL0     C   41  10.681   4.657   6.281  0.4154 -0.6565 -1.0835
    1MOL0     C   42  10.801   4.749   6.250  0.0551 -0.0216  0.1470
    1MOL0     C   43  10.760   4.873   6.163  0.3968  0.6406 -0.3800
    1MOL0    Cl   44  10.659   4.808   6.031  0.3857  0.2178  0.2618
    1MOL0     C   45   9.955   4.823   6.530  0.1026  0.2298 -0.8784
    1MOL0     C   46   9.870   4.850   6.416  0.0890 -0.1083 -0.0783
    1MOL0     O   47   9.529   4.811   6.423 -0.6582 -0.4965 -0.6331
    1MOL0     C   48   9.496   4.916   6.094  0.4038  0.2773 -0.0075
    1MOL0     C   49   9.399   4.921   5.993  0.0171  0.2815  0.4198
    1MOL0     N   50   8.762   4.534   5.484 -0.6686  0.1973 -0.4031
    1MOL0     N   51   8.685   4.446   5.509  0.5007  0.3822  0.1581
    1MOL0     C   52   8.300   3.501   4.868  0.8165 -0.5397 -0.7554
    1MOL0     C   53   8.251   3.463   4.749 -0.8142  1.0493 -0.2043
    1MOL0     C   54   7.923   3.360   4.436  0.4467 -0.1067  0.1702
    1MOL0     C   55   7.788   3.327   4.421  0.8223 -0.0768  0.3894
    1MOL0     C   56   7.744   3.254   4.320  0.3194  0.2746  0.3701
    1MOL0     C   57   7.829   3.218   4.211  0.0047 -1.0383  0.2837
    1MOL0     O   58   7.796   3.146   4.102  0.1321 -0.3435 -0.2707
    1MOL0     C   59   7.666   3.102   4.065 -0.0373  0.3417 -0.8079
    1MOL0     C   60   7.579   3.221   4.056  0.4217  0.1268 -0.2678
    1MOL0     C   61   7.432   3.193   4.011  0.0870  0.1805 -1.1069
    1MOL0     C   62   7.420   3.190   3.856 -0.4659  0.1597  0.1966
    1MOL0     C   63   7.482   3.076   3.792 -0.0382 -0.4789 -0.6931
    1MOL0     C   64   7.533   2.990   3.733  0.7788  0.4436 -0.6819
    1MOL0     C   65   7.970   3.259   4.222 -0.0498  0.1996  0.0520
    1MOL0     C   66   8.017   3.328   4.335  0.7688  0.3223  0.5251
    1MOL0     C   67   8.167   3.377   4.335 -0.0294  0.3584 -0.0117
    1MOL0     H   68   7.965   3.624   4.735 -1.7935 -2.0180  2.0502
    1MOL0     H   69   8.065   3.701   4.982 -0.0820  2.4216  0.3070
    1MOL0     H   70   8.248   3.810   5.094 -3.4521 -1.0913 -1.6953
    1MOL0     H   71   8.151   3.694   5.196  0.8758  0.2476  3.9785
    1MOL0     H   72   8.443   3.711   5.268  0.3821 -4.3442 -3.7575
    1MOL0     H   73   8.304   3.645   5.348 -0.2062 -3.2400 -3.9672
    1MOL0     H   74   8.221   3.884   5.370 -0.3194 -0.6545  0.2437
    1MOL0     H   75   8.336   3.939   5.254  1.4285 -0.3748 -0.9768
    1MOL0     H   76   8.433   3.817   5.523 -3.4036 -0.9761 -0.4150
    1MOL0     H   77   8.513   3.907   5.392 -0.6491 -0.5559 -2.3268
    1MOL0     H   78   8.341   4.093   5.441 -1.5943 -2.3250 -0.7612
    1MOL0     H   79   8.293   4.003   5.581 -2.7979 -0.7476 -1.8448
    1MOL0     H   80   8.435   4.141   5.693  1.0413  0.6726  0.1954
    1MOL0     H   81   8.536   4.007   5.675  0.7067 -0.6849 -0.6763
    1MOL0     H   82   8.537   4.256   5.489  0.7261 -0.3640 -1.4632
    1MOL0     H   83   8.642   4.112   5.474  0.0530 -0.3422  0.8611
    1MOL0     H   84   8.606   4.283   5.730  1.0870  0.8440  0.8125
    1MOL0     H   85   8.742   4.170   5.689  1.1863  0.1489 -2.7135
    1MOL0     H   86   8.933   4.337   5.687  1.1914  0.5901 -0.9876
    1MOL0     H   87   9.069   4.539   5.645 -1.6785 -2.0539 -1.2531
    1MOL0     H   88   9.035   4.647   5.508  2.4517 -0.0238  0.2760
    1MOL0     H   89   8.875   4.761   5.614  0.2383  1.8565  0.3953
    1MOL0     H   90   8.873   4.656   5.758 -0.1653  0.8386  0.4978
    1MOL0     H   91   9.000   4.897   5.762  0.4298  0.4054 -1.9114
    1MOL0     H   92   9.108   4.817   5.648 -0.9473  0.2274 -0.3291
    1MOL0     H   93   9.166   4.637   5.813  0.3507 -0.9084  3.5093
    1MOL0     H   94   9.060   4.703   5.935 -1.7923 -0.5924 -0.2778
    1MOL0     H   95   9.193   4.661   6.105  0.0068 -0.5109  2.2844
    1MOL0     H   96   9.350   4.682   6.294 -1.7760 -0.7158 -0.4158
    1MOL0     H   97   9.723   4.551   6.395 -1.4496 -1.4368  2.8764
    1MOL0     H   98   9.881   4.507   6.580 -0.1849  0.8224  3.0337
    1MOL0     H   99  10.185   4.816   6.666  0.7341  0.1217 -1.6639
    1MOL0     H  100  10.222   4.677   6.777  1.0586 -1.4148 -1.6861
    1MOL0     H  101  10.296   4.539   6.605  0.0982  0.6625  1.2545
    1MOL0     H  102  10.195   4.625   6.475  2.1101  1.6690 -2.3352
    1MOL0     H  103  10.356   4.813   6.506 -0.9976 -1.2978 -0.8816
    1MOL0     H  104  10.443   4.692   6.613 -2.3865 -2.4720  1.0653
    1MOL0     H  105  10.391   4.668   6.308  0.7705  0.1168 -0.2271
    1MOL0     H  106  10.471   4.549   6.411 -0.6532  0.4515  2.2558
    1MOL0     H  107  10.622   4.738   6.480 -0.5869  0.7398 -0.1951
    1MOL0     H  108  10.556   4.827   6.338 -0.8676 -0.9925 -3.4042
    1MOL0     H  109  10.709   4.565   6.333 -1.8563 -1.9647 -1.9993
    1MOL0     H  110  10.611   4.645   6.198  0.8027 -0.2850 -1.4644
    1MOL0     H  111  10.862   4.682   6.188  0.9660  0.5598  0.3930
    1MOL0     H  112  10.855   4.777   6.341  1.6642  2.4256 -1.4144
    1MOL0     H  113  10.719   4.954   6.225  1.0410 -1.2475  2.7099
    1MOL0     H  114  10.849   4.920   6.120  1.5337 -1.8225 -0.8520
    1MOL0     H  115  10.030   4.898   6.552 -0.1246 -0.0159  0.8559
    1MOL0     H  116   9.847   4.950   6.380 -0.4623  0.9314  2.8742
    1MOL0     H  117   9.579   4.985   6.088  1.4794 -0.9926  0.0633
    1MOL0     H  118   9.409   4.992   5.911  2.6004 -0.1122  0.3167
    1MOL0     H  119   8.390   3.451   4.902  1.9484  1.0946 -1.2586
    1MOL0     H  120   8.297   3.385   4.688  2.1427  1.3433  1.4444
    1MOL0     H  121   7.712   3.339   4.498 -1.4495 -3.2378 -1.1354
    1MOL0     H  122   7.637   3.234   4.327 -0.1080  2.7249  1.9395
    1MOL0     H  123   7.619   3.032   4.134  1.7614 -0.2274 -0.0935
    1MOL0     H  124   7.683   3.048   3.971 -1.0731  0.2814 -0.9658
    1MOL0     H  125   7.620   3.303   3.996 -1.0957  1.6261  0.6532
    1MOL0     H  126   7.569   3.264   4.156 -0.8255  2.3670 -1.2765
    1MOL0     H  127   7.366   3.272   4.046  2.8062  2.5422 -0.9142
    1MOL0     H  128   7.398   3.098   4.052 -1.1484  0.1188 -2.1803
    1MOL0     H  129   7.312   3.188   3.837 -0.3400 -0.9819 -0.5040
    1MOL0     H  130   7.462   3.278   3.807 -0.1008  0.6294  1.3323
    1MOL0     H  131   7.581   2.907   3.685  0.9149 -0.1214  0.4008
    1MOL0     H  132   8.044   3.237   4.145  1.3424  1.7158  0.9114
    1MOL0     H  133   8.208   3.365   4.234  1.6081  0.9346  0.5540
    1MOL0     H  134   8.170   3.484   4.354 -0.6275  0.2588  0.6936
    1MOL0     H  135   8.229   3.322   4.407  0.6454 -0.6939 -1.3372
    2MOL0     O  136  10.586   6.362  10.726 -0.2743 -0.5053 -0.5123
    2MOL0     C  137  10.555   6.252  10.776  0.1526 -0.4527  0.3153
    2MOL0     O  138  10.480   6.156  10.717 -0.3226  0.1029  0.2050
    2MOL0     C  139  10.433   6.170  10.588  0.3380 -0.8719  0.0966
    2MOL0     C  140  10.300   6.148  10.566 -0.1502 -0.2205 -0.0271
    2MOL0     C  141  10.247   6.175  10.435  0.5976  0.1375  0.8408
    2MOL0     C  142  10.330   6.223  10.336 -0.0745  0.2409 -1.1651
    2MOL0     O  143  10.290   6.238  10.210  0.6635 -0.5426  0.3888
    2MOL0     C  144  10.302   6.366  10.158 -0.3561 -0.8382 -0.2522
    2MOL0     C  145  10.289   6.342  10.011 -0.3880  0.2036  0.5260
    2MOL0     C  146  10.154   6.291   9.974 -0.0495  0.4890 -0.2998
    2MOL0     C  147  10.154   6.286   9.815  0.0453  1.1163  0.0898
    2MOL0     C  148  10.011   6.261   9.751 -0.1742 -0.4957  0.1318
    2MOL0     C  149   9.943   6.397   9.714 -0.3534 -0.5953  0.2135
    2MOL0     C  150   9.792   6.395   9.720  0.3461 -1.1913  0.3511
    2MOL0     C  151   9.746   6.536   9.670 -0.3166 -0.4404 -0.1785
    2MOL0     N  152   9.610   6.567   9.696  0.0323 -0.0852  0.4185
    2MOL0     C  153   9.506   6.537   9.612  0.1873 -0.5731  0.2799
    2MOL0     C  154   9.404   6.603   9.664  0.6072  0.1629  0.8635
    2MOL0     C  155   9.269   6.586   9.602  1.6788 -0.0254  0.0767
    2MOL0     C  156   9.256   6.670   9.475 -0.0564  0.0973 -0.0879
    2MOL0     C  157   9.177   6.797   9.494  0.0665  0.1136 -0.2835
    2MOL0     C  158   9.021   6.768   9.510 -0.1895 -0.6891 -0.3019
    2MOL0     O  159   8.944   6.853   9.418 -0.5173  0.6053 -0.4220
    2MOL0     C  160   8.809   6.840   9.436  0.9377 -0.1876  0.5381
    2MOL0     C  161   8.738   6.740   9.502 -0.7572 -0.3152  0.0914
    2MOL0     C  162   8.605   6.744   9.526  0.8941  0.5693  0.5922
    2MOL0     C  163   8.525   6.862   9.493  0.3088 -0.4379 -0.6719
    2MOL0     C  164   8.386   6.870   9.558  0.1217  0.0656 -0.6859
    2MOL0     O  165   8.347   6.765   9.645  0.1536 -0.0119  0.8598
    2MOL0     C  166   8.230   6.767   9.705 -0.0454  0.0064 -0.3584
    2MOL0     C  167   8.218   6.847   9.825  0.5729  0.3583  0.7659
    2MOL0     C  168   8.101   6.836   9.911 -0.2845  0.5584  0.9985
    2MOL0     C  169   7.998   6.752   9.884  0.2895  0.1215  0.2442
    2MOL0     O  170   7.893   6.743   9.966  0.2744 -0.1529  0.2149
    2MOL0     C  171   7.903   6.637  10.063  0.1904 -0.5353 -0.0570
    2MOL0     C  172   7.812   6.699  10.181 -0.3918  0.4425  0.1559
    2MOL0     C  173   7.660   6.707  10.145 -0.3667  0.7678  0.1893
    2MOL0     C  174   7.572   6.590  10.196 -0.6109 -0.9791 -0.7308
    2MOL0     C  175   7.426   6.610  10.161  0.1431 -0.0234 -0.0060
    2MOL0     C  176   7.343   6.484  10.196 -0.6280 -0.6471  0.1631
    2MOL0     C  177   7.197   6.496  10.155 -0.5014 -0.1067  0.4987
    2MOL0     C  178   7.180   6.528  10.001  0.4100 -0.8364 -0.3406
    2MOL0    Cl  179   7.013   6.498   9.975 -0.1037 -0.5446 -0.3140
    2MOL0     C  180   8.017   6.659   9.776  1.6523 -0.5577 -0.3821
    2MOL0     C  181   8.131   6.667   9.690  0.0312  0.7167  0.2089
    2MOL0     O  182   8.330   6.983   9.547  0.1257 -0.1733  0.6356
    2MOL0     C  183   8.588   6.960   9.415 -0.1953 -0.6127 -0.6393
    2MOL0     C  184   8.725   6.945   9.384  0.5617  0.4908  0.2336
    2MOL0     N  185   9.438   6.680   9.772 -1.0358  0.8094 -0.1222
    2MOL0     N  186   9.569   6.661   9.791 -0.9067  0.6767  0.9992
    2MOL0     C  187  10.471   6.234  10.366  0.6440 -0.5091  0.4419
    2MOL0     C  188  10.523   6.198  10.487  0.3469 -0.1380 -0.4367
    2MOL0     C  189  10.583   6.237  10.911 -0.7293  0.9069 -0.0085
    2MOL0     C  190  10.537   6.331  11.005 -1.6520  0.3623  0.4939
    2MOL0     C  191  10.555   6.302  11.148  0.1484 -0.0539  0.0754
    2MOL0     C  192  10.639   6.190  11.190 -0.8154 -0.7573  0.5405
    2MOL0     O  193  10.668   6.166  11.321 -0.4099  0.4431 -0.8115
    2MOL0     C  194  10.798   6.140  11.354 -0.3250 -0.0404  0.5897
    2MOL0     C  195  10.835   6.168  11.504  0.8002  0.1003  0.2603
    2MOL0     C  196  10.757   6.072  11.599 -1.0676 -0.1113 -0.3143
    2MOL0     C  197  10.802   6.069  11.746 -0.1088 -0.6739 -0.3850
    2MOL0     C  198  10.717   5.967  11.811  0.2550 -0.3251  0.7018
    2MOL0     C  199  10.640   5.883  11.864  0.3264  0.3108 -0.3689
    2MOL0     C  200  10.706   6.120  11.092 -0.5050  0.6973  0.6362
    2MOL0     C  201  10.680   6.139  10.951 -0.2488  0.1182 -0.3223
    2MOL0     C  202  10.764   6.049  10.867 -0.1726 -0.2544 -0.0577
    2MOL0     H  203  10.238   6.115  10.649  1.1887 -1.6659  0.4282
    2MOL0     H  204  10.140   6.170  10.418  0.3858 -0.3031  2.1670
    2MOL0     H  205  10.231   6.442  10.190  0.3519  0.7828 -2.3131
    2MOL0     H  206  10.404   6.405  10.170 -1.2554  1.2286  1.2815
    2MOL0     H  207  10.366   6.273   9.977 -4.1772 -3.5932 -1.3266
    2MOL0     H  208  10.306   6.438   9.961 -1.7443 -0.1888 -0.7563
    2MOL0     H  209  10.068   6.349  10.008  1.2964  0.7501  2.9955
    2MOL0     H  210  10.138   6.192  10.017  1.0448  0.6707  0.5638
    2MOL0     H  211  10.217   6.360   9.765  0.4414 -0.7250 -2.3563
    2MOL0     H  212  10.203   6.189   9.802  2.0637  2.1167 -0.1857
    2MOL0     H  213  10.025   6.215   9.652  1.9807  3.1713 -1.4865
    2MOL0     H  214   9.948   6.203   9.818  0.4390 -0.9146  0.3585
    2MOL0     H  215   9.978   6.481   9.774 -1.2447  0.4774 -0.7264
    2MOL0     H  216   9.978   6.426   9.614 -0.4906 -1.1634 -0.0026
    2MOL0     H  217   9.759   6.382   9.824 -3.2498  0.2208 -0.4660
    2MOL0     H  218   9.742   6.314   9.664 -1.2966  0.1379 -0.1903
    2MOL0     H  219   9.811   6.614   9.712  0.3794 -0.3422 -1.4078
    2MOL0     H  220   9.763   6.539   9.562  1.5663 -2.9586 -0.0472
    2MOL0     H  221   9.498   6.471   9.527 -0.2576  1.7203 -1.5563
    2MOL0     H  222   9.274   6.480   9.577  3.8883  0.0168  0.1748
    2MOL0     H  223   9.188   6.598   9.673  0.5378 -1.9444 -0.8219
    2MOL0     H  224   9.358   6.693   9.444 -1.2388  2.1567 -2.8402
    2MOL0     H  225   9.215   6.601   9.401 -1.0843  0.5223  0.0776
    2MOL0     H  226   9.187   6.844   9.396  2.3613 -1.1358 -0.7248
    2MOL0     H  227   9.226   6.874   9.555  2.1478  1.3296 -3.2633
    2MOL0     H  228   8.991   6.776   9.615 -4.7275 -0.7187 -1.4187
    2MOL0     H  229   9.002   6.665   9.479 -0.4320 -0.1782 -1.9302
    2MOL0     H  230   8.786   6.648   9.533 -3.1666 -2.7719 -2.7311
    2MOL0     H  231   8.546   6.666   9.572 -2.0350  0.9387 -2.1757
    2MOL0     H  232   8.289   6.926   9.846 -1.3366  2.4392 -0.1809
    2MOL0     H  233   8.097   6.893  10.003 -0.4578 -2.7118  3.2000
    2MOL0     H  234   7.855   6.550  10.018 -2.5783  2.0248 -2.5397
    2MOL0     H  235   8.009   6.633  10.090 -0.4047 -0.4923  2.5138
    2MOL0     H  236   7.825   6.642  10.273  1.1276  3.7672  2.1677
    2MOL0     H  237   7.848   6.799  10.206 -2.3933  1.2425  0.0294
    2MOL0     H  238   7.632   6.799  10.197 -0.1833  0.7861  0.2577
    2MOL0     H  239   7.650   6.739  10.041  1.1748  2.4241  0.4958
    2MOL0     H  240   7.575   6.578  10.305  1.6621 -2.0823 -0.8639
    2MOL0     H  241   7.609   6.495  10.155  1.1535 -0.2977 -0.7818
    2MOL0     H  242   7.415   6.635  10.055 -0.3947 -0.5335 -0.0789
    2MOL0     H  243   7.383   6.692  10.219  2.1142  1.5844 -0.7165
    2MOL0     H  244   7.378   6.394  10.146  1.5049 -0.6785  1.5434
    2MOL0     H  245   7.343   6.479  10.306  0.1041 -1.7752  0.1307
    2MOL0     H  246   7.138   6.570  10.210 -0.2419  0.5915 -0.1557
    2MOL0     H  247   7.156   6.398  10.182 -2.0901  0.2686 -0.4086
    2MOL0     H  248   7.196   6.633   9.973  1.3457 -0.6288  0.9048
    2MOL0     H  249   7.240   6.465   9.935  3.0698  1.7075 -0.6065
    2MOL0     H  250   7.942   6.587   9.744 -0.6122  1.2785  0.5017
    2MOL0     H  251   8.133   6.599   9.605 -1.8036  0.2499  0.4896
    2MOL0     H  252   8.532   7.046   9.380 -1.2889  0.2127  2.7198
    2MOL0     H  253   8.772   7.015   9.316 -0.6551  0.2595 -0.8991
    2MOL0     H  254  10.544   6.261  10.290 -0.4230 -0.0484 -0.4466
    2MOL0     H  255  10.628   6.201  10.515  0.1584  0.5750  0.2414
    2MOL0     H  256  10.487   6.418  10.963  0.1657  0.3395 -1.9969
    2MOL0     H  257  10.537   6.373  11.228  2.4212  0.8763 -0.1469
    2MOL0     H  258  10.857   6.214  11.298  0.0605 -1.6000 -1.1599
    2MOL0     H  259  10.822   6.037  11.327 -1.8539 -0.1223 -0.5588
    2MOL0     H  260  10.805   6.270  11.529  5.1660  1.5136  0.6310
    2MOL0     H  261  10.944   6.159  11.503  0.7494 -1.0445  1.7800
    2MOL0     H  262  10.787   5.975  11.558 -1.8838 -0.0124 -1.1777
    2MOL0     H  263  10.649   6.085  11.586 -1.4435  0.3712  2.5841
    2MOL0     H  264  10.908   6.044  11.759 -0.9430 -3.4708  2.2343
    2MOL0     H  265  10.795   6.167  11.793  1.0716 -0.2307 -1.0726
    2MOL0     H  266  10.575   5.807  11.903  1.3918 -0.9285 -0.9182
    2MOL0     H  267  10.783   6.050  11.121  0.7006  1.1407 -1.3314
    2MOL0     H  268  10.727   5.947  10.858 -0.2815 -0.2074 -0.1448
    2MOL0     H  269  10.767   6.086  10.764  2.3843 -0.9647 -0.3123
    2MOL0     H  270  10.863   6.058  10.913  0.2661 -0.0055 -1.0206
    3MOL0     O  271   6.955   3.649   3.565 -0.4910 -0.8165 -0.0860
    3MOL0     C  272   7.019   3.640   3.458  0.5384  0.2021  0.3347
    3MOL0     O  273   6.999   3.726   3.346  0.1508 -1.0106  0.1054
    3MOL0     C  274   6.931   3.840   3.371 -0.2122  0.5874 -0.2169
    3MOL0     C  275   6.994   3.966   3.410  0.5796  0.1536  0.9285
    3MOL0     C  276   6.910   4.082   3.430 -0.4597 -0.3256  0.6432
    3MOL0     C  277   6.775   4.065   3.437  0.0730 -0.1941 -0.8447
    3MOL0     O  278   6.687   4.172   3.469 -0.4133  0.2852  0.4874
    3MOL0     C  279   6.594   4.134   3.572 -0.4785 -0.6613 -1.0806
    3MOL0     C  280   6.590   4.240   3.677 -0.2624  0.4776  0.3673
    3MOL0     C  281   6.514   4.192   3.798 -0.4067 -0.2421  0.2868
    3MOL0     C  282   6.374   4.156   3.768  0.8557 -0.0141 -0.9258
    3MOL0     C  283   6.296   4.180   3.897 -0.4798  0.8634 -0.2254
    3MOL0     C  284   6.145   4.158   3.887  0.5528  0.0359 -0.6296
    3MOL0     C  285   6.090   4.018   3.867 -0.8159 -0.5416  0.0317
    3MOL0     C  286   6.109   3.936   3.995  0.5880  0.4592 -0.0249
    3MOL0     N  287   6.028   3.976   4.108 -0.1421 -0.0740  0.5642
    3MOL0     C  288   5.898   4.003   4.122  0.4897 -0.6826  0.4970
    3MOL0     C  289   5.873   4.028   4.243 -1.1373 -0.3417 -0.0427
    3MOL0     C  290   5.730   4.045   4.305 -0.4931  1.1413  0.0354
    3MOL0     C  291   5.744   3.983   4.450  0.5685 -0.0050  0.2761
    3MOL0     C  292   5.662   3.852   4.471 -0.4206  1.4154 -0.2606
    3MOL0     C  293   5.710   3.782   4.604  0.3252 -0.4911  0.4078
    3MOL0     O  294   5.637   3.837   4.717 -0.6903 -0.5271 -0.9809
    3MOL0     C  295   5.565   3.749   4.797 -0.0515  0.5553  0.5358
    3MOL0     C  296   5.628   3.662   4.888 -0.1511  0.0634  0.9028
    3MOL0     C  297   5.556   3.576   4.976  0.0623 -0.7578 -0.1284
    3MOL0     C  298   5.416   3.581   4.980  0.6838  0.5497 -0.1532
    3MOL0     C  299   5.331   3.481   5.059  0.6695  0.9182  0.7196
    3MOL0     O  300   5.395   3.354   5.079  0.6601 -0.8391 -0.3213
    3MOL0     C  301   5.337   3.248   5.135  0.5483  0.0815 -0.9504
    3MOL0     C  302   5.371   3.113   5.095  1.1011 -0.1175 -0.5749
    3MOL0     C  303   5.304   3.009   5.157 -0.3720 -0.4022  0.6542
    3MOL0     C  304   5.203   3.019   5.252 -0.1821  0.8280  0.8736
    3MOL0     O  305   5.141   2.904   5.287 -0.1080  0.2401  0.0935
    3MOL0     C  306   5.074   2.900   5.416  0.4763 -0.0313 -0.2097
    3MOL0     C  307   5.063   2.763   5.474 -0.1033 -0.5453  0.2525
    3MOL0     C  308   5.147   2.746   5.606  0.1171 -0.5123  0.1637
    3MOL0     C  309   5.298   2.736   5.567  0.4530 -0.4084  0.1367
    3MOL0     C  310   5.383   2.752   5.697  0.4086  0.5077  0.8381
    3MOL0     C  311   5.366   2.633   5.789  0.0790 -0.0570 -0.0909
    3MOL0     C  312   5.456   2.656   5.910 -0.1222  0.6996 -0.4451
    3MOL0     C  313   5.447   2.527   5.996 -0.0318  0.2271  0.4753
    3MOL0    Cl  314   5.338   2.559   6.133 -0.3965 -0.2140  0.1711
    3MOL0     C  315   5.168   3.145   5.298  0.7749  0.3534 -0.2245
    3MOL0     C  316   5.238   3.259   5.242 -0.5810 -0.0963 -0.3468
    3MOL0     O  317   5.212   3.501   5.086 -0.4643  0.2430  0.7677
    3MOL0     C  318   5.350   3.656   4.881  0.4996 -0.2137  0.5618
    3MOL0     C  319   5.423   3.737   4.791  0.2626  0.6168 -0.2894
    3MOL0     N  320   5.986   4.004   4.311  0.8117  0.3324  0.0277
    3MOL0     N  321   6.083   3.985   4.230  0.1930  0.0398 -1.5457
    3MOL0     C  322   6.712   3.944   3.408 -0.2449 -0.4970 -0.0650
    3MOL0     C  323   6.788   3.824   3.382 -0.5997  0.0721  0.2115
    3MOL0     C  324   7.134   3.544   3.448 -0.1458 -0.3785 -0.6125
    3MOL0     C  325   7.227   3.562   3.343  0.0895  0.0287  0.4104
    3MOL0     C  326   7.324   3.463   3.312  0.7771  0.7333  0.4746
    3MOL0     C  327   7.327   3.341   3.383 -0.4840  0.4913  0.8642
    3MOL0     O  328   7.416   3.243   3.336 -0.3270 -0.3438  0.5027
    3MOL0     C  329   7.447   3.131   3.423  0.7881  0.1506  0.5406
    3MOL0     C  330   7.351   3.008   3.394  0.3843 -0.4873  0.7460
    3MOL0     C  331   7.427   2.871   3.370 -0.6682  0.4962 -0.2253
    3MOL0     C  332   7.351   2.756   3.314  0.9920  0.4647 -1.1444
    3MOL0     C  333   7.254   2.692   3.410  0.2697  1.1246  0.0646
    3MOL0     C  334   7.174   2.625   3.470 -0.4190 -0.4323 -0.5118
    3MOL0     C  335   7.242   3.324   3.489  1.0417  0.3098 -0.5399
    3MOL0     C  336   7.150   3.426   3.530  0.3602  0.3953  0.1861
    3MOL0     C  337   7.066   3.387   3.655  0.2813 -0.5698 -0.3899
    3MOL0     H  338   7.102   3.980   3.408  0.6633 -0.2947  1.7904
    3MOL0     H  339   6.954   4.181   3.436 -0.6483 -0.1301 -0.7564
    3MOL0     H  340   6.492   4.120   3.535 -2.1902 -1.4268  3.2757
    3MOL0     H  341   6.629   4.038   3.611  0.1970 -2.3351 -5.2595
    3MOL0     H  342   6.551   4.336   3.644 -3.0879  0.3446  2.9080
    3MOL0     H  343   6.692   4.250   3.717 -0.4430 -2.1927  1.7479
    3MOL0     H  344   6.514   4.272   3.872  0.7176 -2.8686  3.3615
    3MOL0     H  345   6.576   4.112   3.839  1.2560  0.2518 -1.1212
    3MOL0     H  346   6.322   4.212   3.690 -1.8428  0.2873  0.9151
    3MOL0     H  347   6.356   4.053   3.735  0.0689 -1.3821  3.1451
    3MOL0     H  348   6.342   4.126   3.981  0.9277 -0.6183 -1.8776
    3MOL0     H  349   6.305   4.287   3.920 -1.4804  0.5466  1.9236
    3MOL0     H  350   6.103   4.200   3.978 -0.6924 -1.6550 -0.3722
    3MOL0     H  351   6.101   4.205   3.799 -1.7062  0.8915  0.8725
    3MOL0     H  352   6.138   3.974   3.779  2.6949  1.5179  0.7219
    3MOL0     H  353   5.986   4.025   3.834  0.3821  1.4290 -4.0821
    3MOL0     H  354   6.094   3.830   3.973  0.2073  0.3980  0.5178
    3MOL0     H  355   6.217   3.942   4.012  0.2599  3.5229  1.6862
    3MOL0     H  356   5.821   4.009   4.046  1.5204 -0.2725 -0.5512
    3MOL0     H  357   5.717   4.153   4.320 -2.6707  0.8523  0.6102
    3MOL0     H  358   5.649   4.005   4.242 -0.0126  0.0846  0.0731
    3MOL0     H  359   5.848   3.983   4.485  1.1283  0.2518 -1.3079
    3MOL0     H  360   5.706   4.058   4.519  1.4415 -1.1766  2.1264
    3MOL0     H  361   5.674   3.778   4.392  0.1252 -0.5949  1.6172
    3MOL0     H  362   5.559   3.884   4.487 -0.8939 -1.2198  3.1403
    3MOL0     H  363   5.817   3.795   4.626  0.2318 -0.0554  0.6182
    3MOL0     H  364   5.679   3.682   4.574 -2.1621 -0.0525  1.2663
    3MOL0     H  365   5.737   3.658   4.888 -0.0857  1.0831  1.9530
    3MOL0     H  366   5.604   3.495   5.031 -3.6484 -2.2603  1.2903
    3MOL0     H  367   5.443   3.096   5.015 -0.8718 -1.4859 -2.1380
    3MOL0     H  368   5.337   2.910   5.126 -0.3195 -0.1783  0.0010
    3MOL0     H  369   5.108   2.973   5.490 -1.2145 -0.0159  0.6067
    3MOL0     H  370   4.969   2.926   5.396  0.8346  4.2077  2.2897
    3MOL0     H  371   4.957   2.739   5.489  0.5477 -3.1930  1.2571
    3MOL0     H  372   5.100   2.702   5.391 -3.5313  2.8563 -4.3063
    3MOL0     H  373   5.127   2.835   5.668 -0.5726  0.0783 -0.8679
    3MOL0     H  374   5.109   2.659   5.661  1.8520 -1.5466 -0.2073
    3MOL0     H  375   5.334   2.813   5.498 -1.0403 -0.6285 -0.9602
    3MOL0     H  376   5.306   2.638   5.518 -3.2156  0.4799 -2.7770
    3MOL0     H  377   5.367   2.846   5.751  1.8202  0.0090  2.2144
    3MOL0     H  378   5.485   2.760   5.660 -0.2722  3.5651 -0.7119
    3MOL0     H  379   5.261   2.623   5.818 -0.0022 -1.9105 -0.8939
    3MOL0     H  380   5.401   2.550   5.727 -1.7074 -0.1691 -1.0064
    3MOL0     H  381   5.418   2.744   5.963  3.8742  2.3105  0.1470
    3MOL0     H  382   5.554   2.697   5.882 -0.0241 -0.3648 -1.7483
    3MOL0     H  383   5.415   2.441   5.936 -0.4610  1.9256 -1.8589
    3MOL0     H  384   5.547   2.502   6.034  2.7089  3.4865 -3.6032
    3MOL0     H  385   5.081   3.165   5.359 -0.9211  3.1536 -3.2192
    3MOL0     H  386   5.211   3.360   5.273  0.5583 -0.2062  1.1026
    3MOL0     H  387   5.245   3.633   4.875  0.4653 -0.2675  1.2729
    3MOL0     H  388   5.366   3.793   4.717 -1.3124 -1.7037 -0.9452
    3MOL0     H  389   6.606   3.927   3.422  0.0506  0.1121  4.1688
    3MOL0     H  390   6.746   3.725   3.364 -0.6905  0.0430  0.5843
    3MOL0     H  391   7.220   3.651   3.281 -3.6767  1.3419  2.3954
    3MOL0     H  392   7.395   3.482   3.232 -1.2955  2.2727 -1.1024
    3MOL0     H  393   7.461   3.161   3.528 -1.0994  0.5864  0.7021
    3MOL0     H  394   7.549   3.102   3.396 -0.1260 -1.4039 -1.4587
    3MOL0     H  395   7.308   3.023   3.294 -0.6634  1.7597  1.4848
    3MOL0     H  396   7.274   3.010   3.471  1.0503 -1.1041  1.4471
    3MOL0     H  397   7.475   2.846   3.465 -1.0692  2.0663  0.4328
    3MOL0     H  398   7.504   2.900   3.297 -0.9537  2.4101  0.1579
    3MOL0     H  399   7.286   2.793   3.234 -0.1861  1.1762  0.0872
    3MOL0     H  400   7.429   2.688   3.278  2.2657  1.5853 -0.5877
    3MOL0     H  401   7.098   2.582   3.532  0.6085  1.3463  2.1799
    3MOL0     H  402   7.240   3.224   3.531 -3.6537  0.1241 -0.6416
    3MOL0     H  403   7.125   3.399   3.747 -2.5663  0.7908  1.3829
    3MOL0     H  404   6.972   3.442   3.663  0.4340 -0.4753  1.1530
    3MOL0     H  405   7.039   3.281   3.655  0.8902 -0.7581  1.0855
    4MOL0     O  406   6.899   7.471   5.035  0.5253  0.4426 -0.0266
    4MOL0     C  407   6.776   7.485   5.053  0.0020 -0.7705  0.5075
    4MOL0     O  408   6.710   7.493   5.173  0.3329 -0.6829  0.7160
    4MOL0     C  409   6.784   7.556   5.273  0.4540 -0.3383 -0.2471
    4MOL0     C  410   6.872   7.485   5.357 -0.4213  0.7124  0.2676
    4MOL0     C  411   6.959   7.542   5.459  0.1185 -0.2985  0.8088
    4MOL0     C  412   6.941   7.680   5.476 -0.0241 -0.5122 -0.5230
    4MOL0     O  413   7.017   7.757   5.564 -0.2387 -0.0795 -0.0557
    4MOL0     C  414   7.058   7.694   5.681 -0.4075 -0.1090  0.0493
    4MOL0     C  415   7.194   7.620   5.663  0.7650 -0.6987 -0.3884
    4MOL0     C  416   7.282   7.633   5.790 -0.3296  0.0384 -0.3964
    4MOL0     C  417   7.225   7.531   5.893 -0.4610 -0.2251  0.4003
    4MOL0     C  418   7.311   7.544   6.022 -0.4226 -0.6202  0.1771
    4MOL0     C  419   7.456   7.509   6.011 -0.3184 -0.4365 -0.5118
    4MOL0     C  420   7.543   7.523   6.135 -0.5106 -0.6331 -0.1487
    4MOL0     C  421   7.682   7.467   6.100 -0.8953  0.4724 -0.1928
    4MOL0     N  422   7.785   7.505   6.206 -1.0349  0.8641 -0.7899
    4MOL0     C  423   7.798   7.448   6.328 -0.1845  0.1437  0.3472
    4MOL0     C  424   7.895   7.517   6.394  0.4549  0.8703  0.5182
    4MOL0     C  425   7.959   7.492   6.529 -0.0551 -0.2410  0.8133
    4MOL0     C  426   8.093   7.568   6.528 -0.3457 -0.1487  0.6012
    4MOL0     C  427   8.153   7.551   6.663  0.3532  0.0046 -1.0504
    4MOL0     C  428   8.246   7.665   6.687 -0.5618 -0.8420 -0.7400
    4MOL0     O  429   8.341   7.681   6.584  0.3411 -0.4513  1.4840
    4MOL0     C  430   8.410   7.798   6.567  0.4266 -0.1042 -0.5794
    4MOL0     C  431   8.444   7.871   6.675 -0.5002 -0.0398 -0.1889
    4MOL0     C  432   8.517   7.991   6.673  0.7443 -0.1748 -0.8764
    4MOL0     C  433   8.561   8.036   6.542  0.0503 -0.2340 -0.1418
    4MOL0     C  434   8.631   8.167   6.530  0.6123  0.5808 -0.5881
    4MOL0     O  435   8.714   8.209   6.631  0.1180 -0.3543  0.5064
    4MOL0     C  436   8.782   8.328   6.631  0.6761  0.4064 -0.2264
    4MOL0     C  437   8.891   8.323   6.721  0.7407 -0.3527  0.3221
    4MOL0     C  438   8.984   8.426   6.722 -0.0127  0.4098  0.9332
    4MOL0     C  439   8.977   8.522   6.618 -0.1114 -0.3498 -0.1042
    4MOL0     O  440   9.066   8.622   6.614  0.0983  0.3721 -0.1733
    4MOL0     C  441   9.105   8.693   6.732  0.0490 -0.5478  0.2503
    4MOL0     C  442   8.988   8.783   6.771  0.0392 -0.2107  0.7902
    4MOL0     C  443   9.053   8.881   6.870  0.5608  0.5864 -0.7180
    4MOL0     C  444   8.977   9.008   6.897  0.2717 -1.2497 -1.1894
    4MOL0     C  445   9.041   9.111   7.003  0.5914  0.2808 -1.1856
    4MOL0     C  446   8.965   9.242   7.013  1.0448 -0.3822 -0.3118
    4MOL0     C  447   8.840   9.210   7.095  0.0455  0.1519 -0.2309
    4MOL0     C  448   8.857   9.184   7.248 -0.4959  0.6791 -1.5141
    4MOL0    Cl  449   8.720   9.238   7.340 -0.1538 -0.2163  0.3361
    4MOL0     C  450   8.869   8.524   6.526 -1.1413 -0.0495  1.0890
    4MOL0     C  451   8.766   8.431   6.545  1.0064  0.0169 -0.0700
    4MOL0     O  452   8.632   8.214   6.415  0.3356 -0.5424  0.3499
    4MOL0     C  453   8.526   7.959   6.432 -0.0132 -0.1158 -0.0408
    4MOL0     C  454   8.460   7.836   6.444 -0.1174 -0.5921 -0.0273
    4MOL0     N  455   7.926   7.625   6.310  0.0984 -0.4439  0.1575
    4MOL0     N  456   7.865   7.618   6.197  0.0432  0.2738  0.2115
    4MOL0     C  457   6.842   7.754   5.401  0.4381  0.2791  0.7649
    4MOL0     C  458   6.765   7.695   5.299  0.5512 -0.2432 -0.3780
    4MOL0     C  459   6.696   7.492   4.937  1.0205  0.4269 -0.6695
    4MOL0     C  460   6.572   7.419   4.930 -0.3501  0.0475 -0.3200
    4MOL0     C  461   6.489   7.426   4.829 -0.4863 -0.1034  0.1438
    4MOL0     C  462   6.509   7.518   4.725  0.2098  0.3984  0.1266
    4MOL0     O  463   6.431   7.546   4.619 -0.2563 -0.3588  0.0844
    4MOL0     C  464   6.304   7.483   4.619 -0.2616 -0.0600 -0.0742
    4MOL0     C  465   6.309   7.343   4.552 -0.5462 -0.5728  0.1677
    4MOL0     C  466   6.171   7.273   4.544 -0.0279 -0.2094  0.8299
    4MOL0     C  467   6.098   7.254   4.674  0.9115  0.8772  0.3735
    4MOL0     C  468   6.177   7.190   4.773 -0.8962  0.2749  0.0674
    4MOL0     C  469   6.244   7.149   4.865 -0.9250  0.7320 -0.2136
    4MOL0     C  470   6.628   7.589   4.723  0.2760 -0.3272 -0.1297
    4MOL0     C  471   6.726   7.577   4.829 -0.1529  0.4117  0.7052
    4MOL0     C  472   6.852   7.673   4.817 -0.3008 -1.0477  0.4538
    4MOL0     H  473   6.875   7.378   5.339 -1.0859  1.1148 -2.7900
    4MOL0     H  474   7.034   7.476   5.502  2.6574  0.1661 -2.5047
    4MOL0     H  475   7.060   7.762   5.767 -2.0400 -1.2605  1.0744
    4MOL0     H  476   6.991   7.617   5.721 -2.1959  1.0833 -0.5459
    4MOL0     H  477   7.250   7.667   5.582  3.4737 -2.0525  0.5714
    4MOL0     H  478   7.193   7.514   5.637  3.3827 -1.8483  3.3868
    4MOL0     H  479   7.301   7.738   5.814 -0.2867  0.4575 -2.0980
    4MOL0     H  480   7.379   7.599   5.751  0.3061 -0.5077  1.5699
    4MOL0     H  481   7.118   7.547   5.911 -0.3804 -0.9392  1.6388
    4MOL0     H  482   7.236   7.426   5.864  1.2235  0.6481 -2.4805
    4MOL0     H  483   7.316   7.645   6.064 -0.2104 -0.0525 -1.1638
    4MOL0     H  484   7.275   7.466   6.089  3.2441  0.3783  3.7348
    4MOL0     H  485   7.467   7.405   5.976  2.6256  0.2930 -2.1056
    4MOL0     H  486   7.507   7.563   5.931 -1.7729 -0.4457 -1.4944
    4MOL0     H  487   7.506   7.481   6.228 -1.5467  3.5281  1.5630
    4MOL0     H  488   7.555   7.627   6.167 -0.1875 -0.2581 -1.4012
    4MOL0     H  489   7.686   7.358   6.091  2.4474  0.2856  1.6012
    4MOL0     H  490   7.711   7.512   6.004  1.1820 -0.6941 -0.1836
    4MOL0     H  491   7.734   7.367   6.360 -1.7602  1.1099 -0.2369
    4MOL0     H  492   7.887   7.518   6.607  0.4168  0.1523  1.1272
    4MOL0     H  493   7.980   7.386   6.545  2.7052  0.3208  1.6226
    4MOL0     H  494   8.166   7.523   6.459  0.6910 -1.3641  2.4041
    4MOL0     H  495   8.063   7.672   6.512 -0.9259 -0.5621 -1.2522
    4MOL0     H  496   8.206   7.455   6.658 -0.3381 -0.3507 -1.8123
    4MOL0     H  497   8.074   7.547   6.738  0.8057  0.0170 -0.5715
    4MOL0     H  498   8.305   7.648   6.778  1.1544  2.7940 -1.0228
    4MOL0     H  499   8.189   7.755   6.709  0.6760 -0.2385  0.1213
    4MOL0     H  500   8.405   7.832   6.769 -4.0253 -0.2839 -1.6056
    4MOL0     H  501   8.525   8.062   6.755 -0.9109 -1.6678  0.6636
    4MOL0     H  502   8.905   8.233   6.780  1.2143 -0.4190  0.1148
    4MOL0     H  503   9.070   8.419   6.788  0.2217 -0.1298  0.5718
    4MOL0     H  504   9.130   8.619   6.808 -0.3757 -0.5007  0.4419
    4MOL0     H  505   9.196   8.748   6.711  0.4572 -1.7853 -1.4961
    4MOL0     H  506   8.951   8.836   6.682 -2.4545 -1.3425  1.0783
    4MOL0     H  507   8.912   8.720   6.818  0.3855 -1.5101 -0.3390
    4MOL0     H  508   9.044   8.828   6.966 -1.7841  0.9513 -0.6949
    4MOL0     H  509   9.155   8.907   6.841  0.8800 -0.1972 -0.3504
    4MOL0     H  510   8.873   8.982   6.918 -0.7572  0.6697 -3.4374
    4MOL0     H  511   8.961   9.068   6.807 -4.6869  1.7180  1.2535
    4MOL0     H  512   9.146   9.113   6.972  0.7179 -0.7719 -0.8950
    4MOL0     H  513   9.051   9.072   7.105  0.2086  1.5339 -0.6609
    4MOL0     H  514   9.014   9.329   7.057  0.5935 -0.4435  0.3257
    4MOL0     H  515   8.931   9.278   6.915  0.0155 -2.7529 -0.9115
    4MOL0     H  516   8.803   9.118   7.048  0.8889 -1.0630  1.3519
    4MOL0     H  517   8.771   9.294   7.086  1.9860  1.8782  0.1433
    4MOL0     H  518   8.879   9.078   7.263  0.6892  1.2583  1.4605
    4MOL0     H  519   8.949   9.231   7.285  0.5364 -2.8709  0.9075
    4MOL0     H  520   8.872   8.610   6.460 -0.0246  0.7493  2.1423
    4MOL0     H  521   8.674   8.443   6.489 -0.8573 -0.9586  2.5277
    4MOL0     H  522   8.560   8.001   6.338 -0.1975 -0.5636 -0.3110
    4MOL0     H  523   8.427   7.774   6.362 -4.1528  0.6211  0.4556
    4MOL0     H  524   6.821   7.859   5.419  0.4529  0.8663 -2.1498
    4MOL0     H  525   6.686   7.747   5.246 -0.7214  3.3434  4.4116
    4MOL0     H  526   6.564   7.347   5.010  0.2972  2.7386  2.3870
    4MOL0     H  527   6.408   7.353   4.828  1.9779 -3.0553 -1.5988
    4MOL0     H  528   6.248   7.553   4.556  0.0392  0.7208  0.5003
    4MOL0     H  529   6.259   7.494   4.718  2.0742  1.2976  0.9333
    4MOL0     H  530   6.382   7.274   4.594 -1.9459 -1.5861  1.0240
    4MOL0     H  531   6.354   7.352   4.453 -0.0353 -2.3401  0.2051
    4MOL0     H  532   6.198   7.175   4.504  4.9221  0.1326  2.6147
    4MOL0     H  533   6.113   7.330   4.471  0.9197 -0.1277  0.1211
    4MOL0     H  534   6.061   7.355   4.693 -3.1462 -0.2225 -0.6460
    4MOL0     H  535   6.010   7.191   4.659 -0.0839  2.2778  0.1844
    4MOL0     H  536   6.302   7.116   4.949  0.8577  0.1218 -1.6292
    4MOL0     H  537   6.651   7.659   4.642 -0.8937  0.9062  0.5603
    4MOL0     H  538   6.934   7.614   4.860  3.0273  1.7177 -1.5939
    4MOL0     H  539   6.874   7.690   4.712  3.8028 -2.4547  0.8882
    4MOL0     H  540   6.842   7.768   4.870 -2.7427 -3.0277  4.0098
    5MOL0     O  541   3.741   0.785   2.863 -0.1060  0.8298 -0.6484
    5MOL0     C  542   3.667   0.878   2.887 -0.1180  0.0582  0.3483
    5MOL0     O  543   3.533   0.869   2.894 -0.3722 -0.6013 -0.1990
    5MOL0     C  544   3.470   0.748   2.901  0.3362  1.2364  1.2103
    5MOL0     C  545   3.466   0.670   3.017  0.4749 -0.6662 -0.6852
    5MOL0     C  546   3.403   0.550   3.020 -0.5655 -0.5891 -0.0133
    5MOL0     C  547   3.343   0.491   2.908  0.6253  0.4222 -0.0351
    5MOL0     O  548   3.283   0.373   2.906  0.1439  0.0519 -0.6727
    5MOL0     C  549   3.372   0.263   2.923 -0.2276  0.5143  0.0477
    5MOL0     C  550   3.420   0.211   2.787 -0.4111  0.1496  0.5348
    5MOL0     C  551   3.514   0.087   2.805 -0.2871  0.2330 -0.0908
    5MOL0     C  552   3.560   0.002   2.687  0.2071  0.2766  0.2215
    5MOL0     C  553   3.652  -0.106   2.735 -0.5133  0.3268  0.3790
    5MOL0     C  554   3.715  -0.191   2.623  0.4160 -0.9511  1.3544
    5MOL0     C  555   3.826  -0.115   2.547 -1.0259 -0.5190 -0.6354
    5MOL0     C  556   3.910  -0.213   2.468 -0.2992 -0.0131  0.5544
    5MOL0     N  557   4.020  -0.141   2.406 -0.1665 -0.2159 -0.1035
    5MOL0     C  558   4.156  -0.170   2.415  0.7674  0.1209  0.0113
    5MOL0     C  559   4.204  -0.098   2.313 -0.1878  0.0388  0.1423
    5MOL0     C  560   4.356  -0.071   2.296  0.4646  0.0403  0.4528
    5MOL0     C  561   4.387   0.072   2.272 -0.4742 -0.0037  1.4248
    5MOL0     C  562   4.386   0.174   2.384  0.2749 -0.8167 -0.5351
    5MOL0     C  563   4.447   0.304   2.372  0.1439 -0.2776 -0.5533
    5MOL0     O  564   4.584   0.290   2.323 -0.5021 -0.0303 -0.0507
    5MOL0     C  565   4.669   0.393   2.325  0.1770  0.0213  0.9063
    5MOL0     C  566   4.798   0.383   2.268  0.0292 -0.0608 -0.0495
    5MOL0     C  567   4.889   0.493   2.265  0.9099  0.3562 -0.2645
    5MOL0     C  568   4.865   0.614   2.333 -0.6160  0.5306  0.5513
    5MOL0     C  569   4.970   0.718   2.343  0.0819 -0.9887  0.2268
    5MOL0     O  570   5.066   0.725   2.239 -0.0145 -0.4767 -0.1233
    5MOL0     C  571   5.159   0.824   2.257  0.1250  0.4094 -0.1702
    5MOL0     C  572   5.197   0.893   2.141  0.3384 -0.1100  0.4325
    5MOL0     C  573   5.280   1.004   2.152  0.1582 -0.2716 -0.2332
    5MOL0     C  574   5.343   1.052   2.266  0.6472  0.5624  0.0836
    5MOL0     O  575   5.428   1.161   2.260  0.1851 -0.9341 -0.3604
    5MOL0     C  576   5.542   1.162   2.339  0.2888 -0.1365  0.3857
    5MOL0     C  577   5.634   1.051   2.274  0.2020 -0.1855 -1.0628
    5MOL0     C  578   5.778   1.072   2.325 -0.0860  0.5736  0.8127
    5MOL0     C  579   5.858   0.939   2.339  0.2020  0.3421  0.2444
    5MOL0     C  580   5.821   0.870   2.459  0.1948  0.4258  0.6444
    5MOL0     C  581   5.880   0.720   2.462 -0.7323 -0.9677  0.3136
    5MOL0     C  582   5.824   0.620   2.363 -0.2486  0.7956 -0.4038
    5MOL0     C  583   5.895   0.489   2.349 -0.3144 -0.0156 -0.5290
    5MOL0    Cl  584   6.061   0.516   2.278  0.1559 -0.4180  0.0881
    5MOL0     C  585   5.296   0.982   2.383  0.1193  0.3362  0.9084
    5MOL0     C  586   5.212   0.862   2.375  0.4380 -1.2037  0.6770
    5MOL0     O  587   4.951   0.806   2.426 -0.1274 -0.0183  0.5490
    5MOL0     C  588   4.735   0.632   2.378 -0.3678 -1.1193 -0.5314
    5MOL0     C  589   4.638   0.525   2.373 -0.2773 -0.3122 -0.4263
    5MOL0     N  590   4.107  -0.029   2.237  0.7083  0.6883 -0.1022
    5MOL0     N  591   3.999  -0.070   2.294 -0.0326 -0.1220  0.6798
    5MOL0     C  592   3.347   0.556   2.788  0.2939  0.2166 -0.2141
    5MOL0     C  593   3.406   0.687   2.779 -0.4723 -0.2514  0.9488
    5MOL0     C  594   3.717   1.019   2.901 -0.1429 -0.2886 -0.3383
    5MOL0     C  595   3.626   1.129   2.870 -0.3221 -0.2744 -0.0442
    5MOL0     C  596   3.666   1.257   2.902 -0.2916 -0.2446 -0.0857
    5MOL0     C  597   3.797   1.283   2.928  0.3817 -0.9988 -0.5108
    5MOL0     O  598   3.834   1.419   2.935 -0.1822 -0.2317  0.0700
    5MOL0     C  599   3.958   1.453   3.004  0.1398  0.9483  0.1742
    5MOL0     C  600   3.978   1.609   2.995 -0.0198  1.3366  0.4842
    5MOL0     C  601   4.092   1.663   2.903 -0.5107  0.0233  0.4953
    5MOL0     C  602   4.139   1.807   2.936 -0.0768 -0.1769 -0.1649
    5MOL0     C  603   4.252   1.859   2.861 -0.0349  0.5367  0.7902
    5MOL0     C  604   4.344   1.909   2.799  0.7497 -0.2181  0.0625
    5MOL0     C  605   3.886   1.186   2.938  0.7989  0.2025 -0.5246
    5MOL0     C  606   3.854   1.048   2.927  0.9247 -0.1616 -1.1581
    5MOL0     C  607   3.953   0.947   2.957  0.1093  1.2029  0.5719
    5MOL0     H  608   3.511   0.693   3.113  1.1192 -3.3488 -0.2900
    5MOL0     H  609   3.386   0.490   3.110 -1.3077 -0.7081 -0.2256
    5MOL0     H  610   3.463   0.275   2.982  2.4397 -2.1014 -3.1094
    5MOL0     H  611   3.332   0.187   2.990 -1.2515  0.1067 -0.9816
    5MOL0     H  612   3.459   0.301   2.739 -2.5593  1.6031  1.3547
    5MOL0     H  613   3.334   0.188   2.723  0.8299  1.1488 -1.5951
    5MOL0     H  614   3.458   0.020   2.871  1.4694 -2.1684 -0.8728
    5MOL0     H  615   3.599   0.108   2.870 -0.5436  1.3319 -0.1030
    5MOL0     H  616   3.468  -0.028   2.635 -1.0004  2.1326  1.2101
    5MOL0     H  617   3.619   0.069   2.624 -2.2618  2.5823  0.1740
    5MOL0     H  618   3.730  -0.053   2.791 -0.0977  0.5901 -0.4370
    5MOL0     H  619   3.599  -0.167   2.809 -1.1222  3.6121  2.9288
    5MOL0     H  620   3.765  -0.280   2.664  1.3539  0.9675  4.7811
    5MOL0     H  621   3.628  -0.208   2.560  0.4306  0.8441  0.7971
    5MOL0     H  622   3.896  -0.075   2.621 -4.2496  2.2946  1.1308
    5MOL0     H  623   3.795  -0.033   2.481  2.1524  0.4328 -1.1486
    5MOL0     H  624   3.947  -0.297   2.527  0.6791 -0.1613 -0.2346
    5MOL0     H  625   3.844  -0.242   2.386  1.8140  0.7767 -1.5409
    5MOL0     H  626   4.210  -0.222   2.493 -2.2765 -2.4541  0.6101
    5MOL0     H  627   4.415  -0.113   2.377  0.2154  1.1704  1.2388
    5MOL0     H  628   4.384  -0.109   2.197  0.4043 -0.0796  0.4812
    5MOL0     H  629   4.495   0.075   2.256 -0.0788  2.1102  3.7944
    5MOL0     H  630   4.330   0.105   2.186 -1.3619 -0.9234  1.6460
    5MOL0     H  631   4.443   0.132   2.467 -2.1629 -1.2591  1.0301
    5MOL0     H  632   4.283   0.189   2.420  0.5809 -1.5193  0.7076
    5MOL0     H  633   4.442   0.349   2.472  2.0602  0.7088 -0.8565
    5MOL0     H  634   4.384   0.367   2.309  0.9315  1.1602  0.0424
    5MOL0     H  635   4.822   0.280   2.246 -2.3958 -0.8831  0.7754
    5MOL0     H  636   4.987   0.477   2.222  1.3264 -1.0496  1.0835
    5MOL0     H  637   5.155   0.867   2.044 -0.6254 -3.5748  1.6331
    5MOL0     H  638   5.303   1.069   2.068 -3.0238  1.1240 -0.1851
    5MOL0     H  639   5.603   1.252   2.323  2.3392 -1.0908  2.3321
    5MOL0     H  640   5.517   1.145   2.444 -1.9514 -0.6416 -0.1650
    5MOL0     H  641   5.595   0.957   2.313  2.9541  0.0478  2.8391
    5MOL0     H  642   5.630   1.053   2.165 -0.9283  0.1284 -1.0210
    5MOL0     H  643   5.843   1.146   2.278 -1.6103  1.9575  0.7908
    5MOL0     H  644   5.772   1.124   2.421 -0.9407  0.3514  0.8867
    5MOL0     H  645   5.965   0.951   2.326  0.0405  1.6099 -0.0270
    5MOL0     H  646   5.824   0.881   2.252  1.6872 -2.6777  1.5445
    5MOL0     H  647   5.714   0.847   2.468  0.4225 -0.2431  1.9390
    5MOL0     H  648   5.851   0.920   2.551 -0.3514 -0.6415  1.4258
    5MOL0     H  649   5.989   0.722   2.453 -0.8097  1.9944 -1.7396
    5MOL0     H  650   5.872   0.692   2.567  0.1211  2.6868  1.5294
    5MOL0     H  651   5.819   0.670   2.266  1.4132  2.8859  0.5103
    5MOL0     H  652   5.724   0.583   2.385  0.8770 -3.3773 -1.3195
    5MOL0     H  653   5.917   0.453   2.450  3.2480  0.1362 -1.1262
    5MOL0     H  654   5.833   0.413   2.300  0.7561  0.5614 -2.9405
    5MOL0     H  655   5.330   1.002   2.484 -0.5475  1.2805  0.9653
    5MOL0     H  656   5.187   0.817   2.471 -1.3177 -1.8719 -0.0531
    5MOL0     H  657   4.713   0.729   2.422  0.4781 -1.9025  1.7872
    5MOL0     H  658   4.540   0.557   2.405 -1.1974  0.3003 -3.5080
    5MOL0     H  659   3.304   0.505   2.702 -0.2769  2.5901 -1.4159
    5MOL0     H  660   3.383   0.750   2.693  1.0053 -1.0800 -0.0988
    5MOL0     H  661   3.530   1.103   2.824  0.6324 -1.3078 -1.5474
    5MOL0     H  662   3.600   1.340   2.879  1.1768  0.3488 -2.4899
    5MOL0     H  663   4.040   1.401   2.954  1.7321  1.4740  2.1047
    5MOL0     H  664   3.950   1.419   3.108  0.3568  0.4646  0.0320
    5MOL0     H  665   4.014   1.636   3.094 -1.1490  2.1268  0.7043
    5MOL0     H  666   3.883   1.661   2.977 -0.6648  0.6870  1.8168
    5MOL0     H  667   4.064   1.663   2.797  0.0965 -1.2667  0.3166
    5MOL0     H  668   4.174   1.593   2.918  0.3773  1.4808  2.9977
    5MOL0     H  669   4.056   1.879   2.931  0.4054  0.4159  0.2189
    5MOL0     H  670   4.175   1.819   3.039  1.6495 -0.6068 -0.6862
    5MOL0     H  671   4.404   1.967   2.732 -3.7319  3.2853 -1.4217
    5MOL0     H  672   3.991   1.209   2.958  0.7088  0.1903 -0.0163
    5MOL0     H  673   4.047   0.995   2.985  0.9082 -0.3046  0.5598
    5MOL0     H  674   3.929   0.878   3.039  0.7003 -1.7450 -1.5664
    5MOL0     H  675   3.965   0.884   2.869  2.9424  3.6034 -0.9318
    6MOL0     O  676   7.864   1.380   9.743  1.1938  0.0171  0.3152
    6MOL0     C  677   7.819   1.304   9.823  0.0253  0.3764 -1.1869
    6MOL0     O  678   7.725   1.343   9.922 -0.0949 -0.1114  0.3273
    6MOL0     C  679   7.698   1.476   9.937 -0.6486  0.3128  0.0088
    6MOL0     C  680   7.773   1.575  10.000  0.6314 -0.7400 -0.3663
    6MOL0     C  681   7.723   1.708  10.015 -0.9476 -0.5710 -0.1990
    6MOL0     C  682   7.595   1.738   9.970  0.5144  0.5633 -0.7547
    6MOL0     O  683   7.550   1.870   9.971 -0.2878  0.4995 -0.3679
    6MOL0     C  684   7.446   1.910  10.061  0.2448  0.0140  0.2136
    6MOL0     C  685   7.392   2.035  10.003  0.2698 -0.7346 -0.6805
    6MOL0     C  686   7.497   2.149  10.017 -0.3380 -0.2326  0.1090
    6MOL0     C  687   7.515   2.232   9.894 -0.4185 -0.5147  0.5338
    6MOL0     C  688   7.617   2.346   9.927 -1.0919  0.2374 -0.6847
    6MOL0     C  689   7.760   2.306   9.907  0.2627  0.0434 -0.4941
    6MOL0     C  690   7.827   2.277  10.052  0.0562  0.7294  0.4741
    6MOL0     C  691   7.983   2.238  10.050  0.6044 -0.4596  0.0379
    6MOL0     N  692   8.008   2.139   9.949 -0.4247 -0.2877  1.4714
    6MOL0     C  693   7.939   2.018   9.916 -0.4092 -0.7541  0.1980
    6MOL0     C  694   7.989   1.968   9.800 -0.5231  0.3786  0.3719
    6MOL0     C  695   7.957   1.838   9.731  0.6431  0.3389  0.0360
    6MOL0     C  696   7.816   1.839   9.665 -1.0884  0.7128  0.1403
    6MOL0     C  697   7.776   1.708   9.600  0.4398 -0.0076  0.2259
    6MOL0     C  698   7.882   1.628   9.526  0.1498 -0.0851 -0.2312
    6MOL0     O  699   7.936   1.700   9.416  0.5508  0.0647  0.3551
    6MOL0     C  700   7.920   1.645   9.294 -0.0008  1.4173 -0.1846
    6MOL0     C  701   8.031   1.590   9.226 -0.1698  0.6652  0.2211
    6MOL0     C  702   8.022   1.520   9.104  0.5347  0.6848 -0.0411
    6MOL0     C  703   7.896   1.498   9.050  0.6317 -0.5712  0.3706
    6MOL0     C  704   7.882   1.402   8.940 -0.0958  0.8108 -0.9902
    6MOL0     O  705   7.992   1.330   8.900  0.3126  0.0886  0.3472
    6MOL0     C  706   7.964   1.262   8.783 -0.4603  0.6929 -0.0923
    6MOL0     C  707   7.943   1.335   8.666  0.0724 -0.3321 -0.0263
    6MOL0     C  708   7.924   1.280   8.544  0.4191 -0.0495 -0.0707
    6MOL0     C  709   7.930   1.140   8.527  0.8684 -0.0167 -0.3269
    6MOL0     O  710   7.926   1.080   8.407  0.4294 -0.7703 -0.5866
    6MOL0     C  711   8.043   1.013   8.358  0.3313 -1.2564 -1.0535
    6MOL0     C  712   8.017   0.947   8.214 -0.0071  0.2600  0.2191
    6MOL0     C  713   8.150   0.894   8.154  0.9644 -0.3866 -0.6365
    6MOL0     C  714   8.126   0.740   8.100 -0.6262 -0.0704 -0.3003
    6MOL0     C  715   8.240   0.656   8.046  0.7562  0.1972 -0.0863
    6MOL0     C  716   8.267   0.715   7.907  0.0406  0.1906  0.1565
    6MOL0     C  717   8.356   0.607   7.832 -0.3617  0.9064  0.3486
    6MOL0     C  718   8.272   0.490   7.775 -0.1471 -0.1331  0.4224
    6MOL0    Cl  719   8.355   0.399   7.647 -0.7735 -0.2129 -0.2833
    6MOL0     C  720   7.944   1.068   8.651  0.6113 -0.4433  0.0677
    6MOL0     C  721   7.958   1.127   8.774 -1.0285  0.1933  0.5328
    6MOL0     O  722   7.767   1.375   8.904  0.6007 -0.6817 -0.8002
    6MOL0     C  723   7.783   1.558   9.115  0.3327 -0.8451 -0.3319
    6MOL0     C  724   7.795   1.625   9.233  0.6340 -0.1960 -0.9992
    6MOL0     N  725   8.098   2.056   9.764  0.1320  0.7541  0.7744
    6MOL0     N  726   8.102   2.149   9.851  0.1376 -0.2266 -0.1146
    6MOL0     C  727   7.516   1.636   9.910 -0.0563  0.0839 -0.1372
    6MOL0     C  728   7.573   1.511   9.893  0.5487  0.2734 -1.6305
    6MOL0     C  729   7.847   1.154   9.836 -0.4357  0.1202  0.2323
    6MOL0     C  730   7.749   1.077   9.878 -0.1254 -0.8462  1.9649
    6MOL0     C  731   7.765   0.941   9.888  0.3142  0.9924 -0.4384
    6MOL0     C  732   7.883   0.876   9.855 -0.4353  0.6840  0.5355
    6MOL0     O  733   7.878   0.741   9.868 -0.6771  0.3129 -0.4860
    6MOL0     C  734   8.000   0.669   9.894  0.2404 -0.3259  0.4636
    6MOL0     C  735   8.056   0.717  10.030 -0.4081 -1.0213 -0.0093
    6MOL0     C  736   8.150   0.616  10.087 -0.0631  0.0723  0.7201
    6MOL0     C  737   8.257   0.692  10.167 -0.6595  0.5319  0.9761
    6MOL0     C  738   8.338   0.588  10.225  0.0233  0.5517 -0.2280
    6MOL0     C  739   8.409   0.493  10.256 -0.3906 -0.1518  0.3935
    6MOL0     C  740   7.988   0.962   9.814 -0.0987  0.3455 -0.3575
    6MOL0     C  741   7.967   1.100   9.810  0.1590  1.0922 -0.3174
    6MOL0     C  742   8.089   1.179   9.756  0.0235 -0.2064  0.1526
    6MOL0     H  743   7.871   1.551  10.042 -1.3047 -2.4566  3.7498
    6MOL0     H  744   7.784   1.790  10.052 -0.5824 -1.5122  1.3759
    6MOL0     H  745   7.372   1.830  10.056  0.6217 -0.2582 -1.7884
    6MOL0     H  746   7.470   1.934  10.166  3.1962 -1.2070 -0.0917
    6MOL0     H  747   7.295   2.054  10.049  1.1688 -1.1411  1.4982
    6MOL0     H  748   7.367   2.025   9.897 -0.6894  2.1377 -0.8106
    6MOL0     H  749   7.594   2.116  10.052 -0.7690 -2.4889 -0.6663
    6MOL0     H  750   7.463   2.207  10.103 -2.4207  0.7994 -1.3115
    6MOL0     H  751   7.536   2.161   9.815 -1.2266 -1.1655  0.8903
    6MOL0     H  752   7.417   2.278   9.879  0.1168 -0.0665 -1.8639
    6MOL0     H  753   7.606   2.427   9.854 -0.3158  0.2474 -0.8000
    6MOL0     H  754   7.603   2.389  10.027  1.5039 -0.9545  0.2686
    6MOL0     H  755   7.771   2.214   9.850  1.4057 -1.6979  2.3141
    6MOL0     H  756   7.823   2.377   9.853  1.3965  0.6495  1.5214
    6MOL0     H  757   7.776   2.200  10.110  2.1613 -0.3563  0.9852
    6MOL0     H  758   7.812   2.370  10.107 -0.7162 -1.1037  3.5824
    6MOL0     H  759   8.040   2.327  10.020  1.4907 -1.6136 -1.8717
    6MOL0     H  760   8.022   2.222  10.150 -3.3074 -1.2498  1.6254
    6MOL0     H  761   7.860   1.967   9.970  0.8271 -2.5908  0.3467
    6MOL0     H  762   8.026   1.822   9.647 -2.2354 -2.4458 -2.0514
    6MOL0     H  763   7.970   1.755   9.801  1.8177 -1.6446 -2.3682
    6MOL0     H  764   7.738   1.856   9.740 -2.5977 -3.4307 -0.2053
    6MOL0     H  765   7.829   1.911   9.584  1.5989 -0.3030 -0.4301
    6MOL0     H  766   7.692   1.730   9.533  1.1551  2.4787  0.0424
    6MOL0     H  767   7.716   1.650   9.671 -0.8160  2.3396  1.2204
    6MOL0     H  768   7.847   1.530   9.492  2.2288 -1.1768  0.5819
    6MOL0     H  769   7.961   1.608   9.599 -1.2502 -0.6138  1.1902
    6MOL0     H  770   8.126   1.585   9.278  1.0472  4.6582 -1.2551
    6MOL0     H  771   8.112   1.476   9.061  0.2494  1.5685 -1.5991
    6MOL0     H  772   7.957   1.441   8.683 -0.4336 -0.8795  5.5217
    6MOL0     H  773   7.921   1.356   8.467  2.0729  0.1058 -0.0045
    6MOL0     H  774   8.118   1.093   8.351 -1.8569  1.1274  0.6514
    6MOL0     H  775   8.086   0.938   8.425  0.9556 -0.9311 -1.0796
    6MOL0     H  776   7.934   0.875   8.213  0.5088 -0.3572 -1.6868
    6MOL0     H  777   7.978   1.028   8.152 -1.3698  0.4167  1.2281
    6MOL0     H  778   8.189   0.962   8.078 -1.7701  0.4377 -1.4291
    6MOL0     H  779   8.223   0.901   8.236  0.8977 -0.4979 -0.5669
    6MOL0     H  780   8.044   0.748   8.028 -1.1444  3.2149  0.4889
    6MOL0     H  781   8.093   0.689   8.190 -2.3412  1.1853 -0.1667
    6MOL0     H  782   8.194   0.558   8.027 -3.0768  1.7460  0.1732
    6MOL0     H  783   8.327   0.652   8.111  1.3225 -0.8649 -0.8937
    6MOL0     H  784   8.177   0.734   7.848  1.1404  0.5431 -1.4433
    6MOL0     H  785   8.323   0.806   7.931 -1.3871  0.4059  3.1903
    6MOL0     H  786   8.428   0.561   7.900 -2.9119 -1.8101  1.4735
    6MOL0     H  787   8.409   0.648   7.746 -3.1422  1.1779 -1.3756
    6MOL0     H  788   8.237   0.419   7.850  0.3900 -1.3971 -0.4932
    6MOL0     H  789   8.191   0.534   7.716  0.0125  0.6602  0.7887
    6MOL0     H  790   7.939   0.959   8.649 -0.3749 -0.4436  1.4116
    6MOL0     H  791   7.959   1.074   8.869 -2.5222  0.7972  0.9063
    6MOL0     H  792   7.690   1.519   9.075 -1.1098  0.9271  1.0998
    6MOL0     H  793   7.709   1.665   9.285  1.5015  0.1741  0.1992
    6MOL0     H  794   7.421   1.654   9.861  0.7297 -0.4010 -1.9396
    6MOL0     H  795   7.511   1.432   9.852  0.2590  0.6481 -1.9163
    6MOL0     H  796   7.651   1.122   9.865  1.1020  1.3437 -0.8163
    6MOL0     H  797   7.686   0.880   9.929  0.1406  0.9225 -0.8623
    6MOL0     H  798   8.070   0.701   9.816 -1.1384 -1.8263 -1.4947
    6MOL0     H  799   7.983   0.562   9.908 -2.1320 -0.0082  0.4193
    6MOL0     H  800   7.971   0.743  10.094  0.4589  0.9860  0.4220
    6MOL0     H  801   8.109   0.812  10.016 -0.9403 -0.8002 -0.5879
    6MOL0     H  802   8.196   0.562  10.005  0.8318  3.0844 -0.9125
    6MOL0     H  803   8.085   0.549  10.145 -0.6840 -1.6768 -1.8683
    6MOL0     H  804   8.321   0.747  10.097  1.0566 -0.2743  1.8398
    6MOL0     H  805   8.214   0.757  10.244  2.2241 -0.1010  3.2947
    6MOL0     H  806   8.462   0.408  10.293 -0.4145  0.5930  2.2226
    6MOL0     H  807   8.077   0.916   9.773  1.2580  1.9773  0.6105
    6MOL0     H  808   8.079   1.198   9.648 -1.8008 -3.3283 -0.3608
    6MOL0     H  809   8.098   1.276   9.805 -1.0842 -0.7824  1.5588
    6MOL0     H  810   8.178   1.121   9.783  0.4783  0.9387  1.1950
    7MOL0     O  811   1.385   8.836  10.102 -0.3788  0.1119 -0.0974
    7MOL0     C  812   1.432   8.919  10.178  0.4998 -0.3407  0.7722
    7MOL0     O  813   1.467   9.044  10.136 -0.1596  0.2166  0.1868
    7MOL0     C  814   1.442   9.082  10.005 -0.8160  0.2008 -0.4637
    7MOL0     C  815   1.352   9.191   9.993  0.5157  0.3845  0.1231
    7MOL0     C  816   1.324   9.245   9.866 -0.2329 -0.0696 -0.0288
    7MOL0     C  817   1.387   9.191   9.755 -0.6618  0.2200  0.5852
    7MOL0     O  818   1.379   9.237   9.632  0.8273 -0.3589  0.7944
    7MOL0     C  819   1.341   9.377   9.605  0.6500  0.3590 -1.1895
    7MOL0     C  820   1.321   9.412   9.465  0.8437  0.5069  0.2402
    7MOL0     C  821   1.250   9.544   9.444 -0.7852 -0.1226 -0.7496
    7MOL0     C  822   1.114   9.570   9.496 -0.3181  0.5341  1.2878
    7MOL0     C  823   1.074   9.714   9.474  0.2444 -0.2284  0.6604
    7MOL0     C  824   0.936   9.751   9.527 -0.2215  0.1699  0.2206
    7MOL0     C  825   0.938   9.909   9.554  0.3502  0.0522  0.2021
    7MOL0     C  826   0.973   9.997   9.428 -0.3377  0.4916 -0.4725
    7MOL0     N  827   0.894   9.970   9.313  0.2933 -0.7088 -0.8726
    7MOL0     C  828   0.760   9.969   9.305 -0.7160 -0.7300  0.4458
    7MOL0     C  829   0.738   9.933   9.179 -0.0669  0.3715 -0.6322
    7MOL0     C  830   0.610   9.884   9.115  0.4228  0.5383 -0.5010
    7MOL0     C  831   0.598   9.739   9.148  0.9943 -0.7486 -0.1334
    7MOL0     C  832   0.704   9.643   9.081 -1.1166 -0.0366 -0.7390
    7MOL0     C  833   0.642   9.514   9.041 -0.4543  0.0316 -0.1412
    7MOL0     O  834   0.544   9.521   8.937  0.9499  0.0490 -0.0822
    7MOL0     C  835   0.547   9.558   8.810  0.3077  0.2611  0.6001
    7MOL0     C  836   0.651   9.606   8.736 -0.3036 -0.2031 -0.3187
    7MOL0     C  837   0.660   9.651   8.603  0.2009 -0.6400 -0.7846
    7MOL0     C  838   0.538   9.646   8.532  0.5461 -0.5865 -1.1787
    7MOL0     C  839   0.524   9.698   8.401 -0.7827  0.0936 -1.1279
    7MOL0     O  840   0.395   9.734   8.353  0.4235  0.1545 -0.0369
    7MOL0     C  841   0.394   9.761   8.216  1.0145 -0.2740 -0.2929
    7MOL0     C  842   0.406   9.890   8.165  0.2956 -0.1122 -1.0108
    7MOL0     C  843   0.398   9.913   8.027 -0.0947 -0.1517  0.9516
    7MOL0     C  844   0.384   9.810   7.932  0.6080  0.0026  0.0791
    7MOL0     O  845   0.367   9.841   7.798  0.0827 -0.1906 -0.1270
    7MOL0     C  846   0.444   9.763   7.701 -0.1682  0.0706 -0.9511
    7MOL0     C  847   0.427   9.825   7.564 -0.3272  0.7328  0.7199
    7MOL0     C  848   0.516   9.743   7.472 -0.3419 -0.3040  0.7148
    7MOL0     C  849   0.476   9.763   7.326 -0.5157 -0.4685  0.2724
    7MOL0     C  850   0.387   9.651   7.279  0.8684  0.9418 -0.0360
    7MOL0     C  851   0.376   9.652   7.121  1.0312  0.8563 -0.5720
    7MOL0     C  852   0.260   9.564   7.083  1.0166 -0.2172 -0.4342
    7MOL0     C  853   0.276   9.538   6.934 -0.1370 -1.1432 -0.7480
    7MOL0    Cl  854   0.166   9.637   6.837  0.0136 -0.1908 -0.2177
    7MOL0     C  855   0.375   9.677   7.980 -0.6593  0.1931  0.7536
    7MOL0     C  856   0.374   9.659   8.120 -0.0488  0.5010 -0.3660
    7MOL0     O  857   0.629   9.709   8.338  0.2847  0.0930  0.3821
    7MOL0     C  858   0.423   9.590   8.602 -0.6767 -0.0498  0.2245
    7MOL0     C  859   0.428   9.557   8.738  0.5083  0.1640 -1.1062
    7MOL0     N  860   0.869   9.912   9.119  0.7818  0.6249 -0.0720
    7MOL0     N  861   0.954   9.954   9.201 -0.4201 -0.7371  0.2571
    7MOL0     C  862   1.474   9.086   9.760  0.4281 -0.7235  0.3093
    7MOL0     C  863   1.503   9.030   9.880  0.5152  0.2549 -0.9617
    7MOL0     C  864   1.464   8.889  10.318  0.2242  0.4428 -0.4516
    7MOL0     C  865   1.475   8.996  10.413  0.1891 -0.0027  0.2083
    7MOL0     C  866   1.487   8.978  10.552  0.2294  0.3137  0.1697
    7MOL0     C  867   1.501   8.845  10.600 -0.4356  0.2038 -0.1096
    7MOL0     O  868   1.519   8.814  10.734 -0.2839  0.5763  0.2599
    7MOL0     C  869   1.468   8.906  10.832  0.4072 -0.5346 -0.3939
    7MOL0     C  870   1.476   8.844  10.973 -0.5665  0.0935  0.7621
    7MOL0     C  871   1.604   8.773  11.018 -0.0287 -1.3279  0.4746
    7MOL0     C  872   1.736   8.849  11.022 -0.2944  0.1767 -0.2960
    7MOL0     C  873   1.722   8.992  11.073  1.2010 -0.8212 -0.1294
    7MOL0     C  874   1.715   9.107  11.121 -0.3440  0.0212  0.3779
    7MOL0     C  875   1.518   8.740  10.499  0.4949  0.2245 -0.3735
    7MOL0     C  876   1.486   8.755  10.358 -0.6894  0.5720 -1.0867
    7MOL0     C  877   1.500   8.641  10.257 -0.7297 -0.4300 -0.0016
    7MOL0     H  878   1.318   9.243  10.082  2.5798  1.6940  0.2049
    7MOL0     H  879   1.244   9.319   9.861 -1.5402 -1.3930  0.5071
    7MOL0     H  880   1.246   9.396   9.656  0.0427  0.2410 -2.2322
    7MOL0     H  881   1.412   9.449   9.648 -1.5755  3.0070 -1.6548
    7MOL0     H  882   1.259   9.334   9.419  3.2175 -0.9683 -0.6448
    7MOL0     H  883   1.415   9.418   9.409  0.4965 -0.0119 -0.4181
    7MOL0     H  884   1.246   9.562   9.336  0.3812 -1.1532 -0.9747
    7MOL0     H  885   1.311   9.625   9.484  0.5453 -0.4515 -2.0250
    7MOL0     H  886   1.052   9.496   9.444 -0.0837  1.0339  0.2746
    7MOL0     H  887   1.122   9.557   9.604  1.2344  1.7539  1.3612
    7MOL0     H  888   1.163   9.774   9.500  0.7704  0.0199 -1.5021
    7MOL0     H  889   1.078   9.724   9.365 -1.3846  2.2232  0.7401
    7MOL0     H  890   0.853   9.730   9.459 -0.2310  3.3605 -0.9161
    7MOL0     H  891   0.912   9.683   9.609  3.8452 -3.1620 -0.9809
    7MOL0     H  892   1.003   9.917   9.641 -1.6000  2.5260  1.5375
    7MOL0     H  893   0.841   9.945   9.589  1.5070  0.5241  3.2036
    7MOL0     H  894   0.969  10.103   9.454 -3.4138  0.5670 -0.8669
    7MOL0     H  895   1.074   9.962   9.402 -1.2201 -0.2302 -3.3010
    7MOL0     H  896   0.685   9.997   9.378 -3.8560  2.7900 -3.6252
    7MOL0     H  897   0.528   9.944   9.155  0.8471  0.3076  0.7468
    7MOL0     H  898   0.616   9.919   9.012 -2.8245  1.0496 -0.6200
    7MOL0     H  899   0.611   9.729   9.256  3.6031 -1.8791 -0.4611
    7MOL0     H  900   0.496   9.701   9.139  1.0195 -0.6113 -1.1245
    7MOL0     H  901   0.787   9.622   9.148 -2.0826  0.1454  0.5625
    7MOL0     H  902   0.751   9.683   8.990  1.1673  0.2058  0.4857
    7MOL0     H  903   0.603   9.447   9.118  0.6876 -2.3937 -1.5316
    7MOL0     H  904   0.721   9.460   8.987  0.3228  1.9857 -1.0558
    7MOL0     H  905   0.736   9.601   8.804  0.7050  1.0458 -1.4330
    7MOL0     H  906   0.755   9.697   8.577 -1.2376  2.9960 -0.0869
    7MOL0     H  907   0.438   9.973   8.228  2.6505 -1.8156  0.2094
    7MOL0     H  908   0.411  10.013   7.985  1.8380 -1.8249 -2.9694
    7MOL0     H  909   0.551   9.773   7.722 -0.3127  1.7618 -0.8575
    7MOL0     H  910   0.418   9.657   7.706 -2.5275  0.4309 -3.2265
    7MOL0     H  911   0.324   9.828   7.528  0.4257  2.7352 -1.4973
    7MOL0     H  912   0.467   9.927   7.559 -0.2957  0.6891  0.0396
    7MOL0     H  913   0.613   9.794   7.471 -0.8915  0.8039 -1.0053
    7MOL0     H  914   0.526   9.638   7.501 -0.2403 -0.0068  1.8170
    7MOL0     H  915   0.569   9.774   7.269 -1.2715  2.3019 -0.5727
    7MOL0     H  916   0.418   9.855   7.311  3.2071  2.2276  0.8663
    7MOL0     H  917   0.289   9.655   7.329  1.3723  0.0138  1.0716
    7MOL0     H  918   0.426   9.552   7.302  0.4176  0.1591 -2.4048
    7MOL0     H  919   0.350   9.757   7.102  0.5826  1.2964  2.0890
    7MOL0     H  920   0.468   9.620   7.071  0.4597 -0.4405 -0.8271
    7MOL0     H  921   0.165   9.609   7.114  2.1658  0.3105  2.6372
    7MOL0     H  922   0.275   9.467   7.132  1.3036 -1.9843 -3.7174
    7MOL0     H  923   0.377   9.558   6.897  1.0787  1.6606  3.3397
    7MOL0     H  924   0.248   9.438   6.898 -1.3735 -1.8046  1.8200
    7MOL0     H  925   0.361   9.598   7.907 -5.0238  1.9687 -0.6745
    7MOL0     H  926   0.353   9.556   8.147 -0.6855  0.3941 -1.2081
    7MOL0     H  927   0.323   9.592   8.559 -1.8775 -0.0545  2.7624
    7MOL0     H  928   0.334   9.543   8.790  0.6126 -0.6146 -1.1183
    7MOL0     H  929   1.520   9.046   9.670  2.2181  0.6120  0.5649
    7MOL0     H  930   1.576   8.949   9.877 -0.0671 -0.2639 -1.1763
    7MOL0     H  931   1.467   9.096  10.370 -0.2021 -1.1982 -2.7847
    7MOL0     H  932   1.482   9.066  10.615 -2.1340 -0.4932  1.2427
    7MOL0     H  933   1.375   8.953  10.799  2.1719  2.7203 -1.2757
    7MOL0     H  934   1.540   8.988  10.844 -0.2394  0.4457 -2.6071
    7MOL0     H  935   1.391   8.778  10.989 -0.8701 -0.4969 -2.5749
    7MOL0     H  936   1.457   8.916  11.053  2.0706  1.0740  0.6146
    7MOL0     H  937   1.614   8.688  10.951 -0.2320 -2.8247  2.2667
    7MOL0     H  938   1.587   8.742  11.122 -0.7089 -0.2858  0.6949
    7MOL0     H  939   1.807   8.791  11.081 -0.7219 -0.4944 -0.4290
    7MOL0     H  940   1.784   8.844  10.924 -1.1115 -3.1659 -0.6338
    7MOL0     H  941   1.686   9.196  11.172  0.2192  0.3203  0.1811
    7MOL0     H  942   1.546   8.641  10.533  1.4095 -0.3950 -2.7345
    7MOL0     H  943   1.532   8.549  10.308 -0.8531 -0.2731  0.3652
    7MOL0     H  944   1.396   8.631  10.224 -1.2610  3.3824  0.1420
    7MOL0     H  945   1.575   8.655  10.179  1.8640  1.1098  2.5513
    8MOL0     O  946   9.418   3.777   1.840  0.1457  0.4380 -0.0412
    8MOL0     C  947   9.349   3.867   1.878  0.0137  0.2743 -0.0689
    8MOL0     O  948   9.345   3.913   2.009  0.2285 -0.7331  0.9681
    8MOL0     C  949   9.459   3.914   2.082 -0.5040 -0.9731 -0.8054
    8MOL0     C  950   9.581   3.945   2.033 -0.4215 -0.0581 -0.6502
    8MOL0     C  951   9.692   3.948   2.124 -1.0312  0.0388 -0.6807
    8MOL0     C  952   9.682   3.913   2.262  0.3649 -0.1071  0.4559
    8MOL0     O  953   9.789   3.896   2.350 -0.2431 -0.1039 -0.3453
    8MOL0     C  954   9.927   3.891   2.302  0.8398 -0.4429  0.9689
    8MOL0     C  955  10.012   3.933   2.424  0.4045 -0.1614  0.6748
    8MOL0     C  956  10.122   4.029   2.398 -1.2337 -0.1957  0.1752
    8MOL0     C  957  10.084   4.164   2.344 -0.6461  0.0993 -0.9598
    8MOL0     C  958  10.049   4.269   2.455 -0.7064 -0.5624 -0.5107
    8MOL0     C  959  10.056   4.413   2.385  0.2938  0.0797  0.7937
    8MOL0     C  960   9.990   4.514   2.480  0.1470  0.4388 -0.0479
    8MOL0     C  961   9.986   4.655   2.424  0.0326  0.2518  0.3964
    8MOL0     N  962  10.131   4.714   2.415 -0.2761 -0.1652  0.7514
    8MOL0     C  963  10.224   4.697   2.509  0.2627 -1.4097 -0.5468
    8MOL0     C  964  10.329   4.768   2.467 -0.3636 -0.3316 -0.3931
    8MOL0     C  965  10.474   4.776   2.524  1.1515  0.0432 -0.5606
    8MOL0     C  966  10.471   4.721   2.667  1.1437  0.6060  0.0635
    8MOL0     C  967  10.598   4.763   2.729 -0.1995  0.3133 -0.3577
    8MOL0     C  968  10.591   4.735   2.877  0.1181 -0.4432 -0.5634
    8MOL0     O  969  10.550   4.846   2.959 -0.3885 -0.4052 -0.0168
    8MOL0     C  970  10.558   4.838   3.098 -0.6224 -0.8093  0.5463
    8MOL0     C  971  10.521   4.729   3.177  0.6594 -1.2188  0.3606
    8MOL0     C  972  10.537   4.739   3.321 -0.3964 -0.2485  0.4629
    8MOL0     C  973  10.599   4.844   3.393  0.0916 -0.6007  0.6603
    8MOL0     C  974  10.634   4.837   3.536 -0.6723  0.0634 -0.1313
    8MOL0     O  975  10.707   4.942   3.591 -0.0263  0.0788 -0.3846
    8MOL0     C  976  10.769   4.930   3.713  0.5680  0.6889 -0.1317
    8MOL0     C  977  10.877   5.014   3.745 -0.5714  0.9113 -0.7426
    8MOL0     C  978  10.946   4.998   3.867  0.9941  0.2476  0.3990
    8MOL0     C  979  10.897   4.912   3.969  0.4331 -0.2572  0.0353
    8MOL0     O  980  10.951   4.918   4.083 -0.8275  0.1859  0.4357
    8MOL0     C  981  11.091   4.912   4.100  0.4494 -0.9477  0.4949
    8MOL0     C  982  11.155   4.874   4.244  0.1377  0.7380 -0.0150
    8MOL0     C  983  11.092   4.751   4.319 -0.4583 -0.4244 -0.1760
    8MOL0     C  984  11.128   4.620   4.258 -1.2910 -0.6866  0.4062
    8MOL0     C  985  11.076   4.493   4.344  0.9505 -0.7767 -0.6142
    8MOL0     C  986  11.072   4.376   4.247 -0.1359  0.4328  0.6126
    8MOL0     C  987  11.002   4.262   4.306  0.9980  0.4303  0.3527
    8MOL0     C  988  11.103   4.200   4.402 -0.2328  0.7952  0.3065
    8MOL0    Cl  989  11.016   4.058   4.453  0.1859  0.1209  0.0183
    8MOL0     C  990  10.797   4.828   3.930  0.2143 -0.2196  0.0152
    8MOL0     C  991  10.730   4.831   3.807  1.1577 -0.2623 -0.4045
    8MOL0     O  992  10.623   4.720   3.586 -0.5522 -0.5217  0.7495
    8MOL0     C  993  10.644   4.942   3.306  0.4528  0.0464  0.3876
    8MOL0     C  994  10.630   4.942   3.164  1.2678  0.3979  0.5018
    8MOL0     N  995  10.299   4.841   2.352  0.2632  0.3256  0.0132
    8MOL0     N  996  10.183   4.791   2.312 -0.1016 -0.5284  0.2301
    8MOL0     C  997   9.554   3.875   2.306  0.8359 -1.2825 -0.4871
    8MOL0     C  998   9.441   3.879   2.218  0.5357 -0.5784 -0.3020
    8MOL0     C  999   9.247   3.926   1.782 -0.6231  0.7324  0.5990
    8MOL0     C 1000   9.129   3.980   1.831  0.2892 -0.6001 -0.8121
    8MOL0     C 1001   9.038   4.046   1.749 -0.4745  0.6170 -0.1880
    8MOL0     C 1002   9.064   4.046   1.611  0.0927  0.0257 -0.5662
    8MOL0     O 1003   8.999   4.117   1.510  0.5189  0.5343  0.0615
    8MOL0     C 1004   8.887   4.195   1.557 -0.6316 -0.0813  0.0556
    8MOL0     C 1005   8.762   4.111   1.575 -0.4366 -1.1743 -0.2069
    8MOL0     C 1006   8.728   4.005   1.467 -0.0269 -0.2726 -0.6129
    8MOL0     C 1007   8.617   3.900   1.505  0.8672  0.6125 -0.2025
    8MOL0     C 1008   8.552   3.855   1.379 -0.8875 -0.6502 -0.6045
    8MOL0     C 1009   8.515   3.833   1.261  0.4820  0.6238  0.2977
    8MOL0     C 1010   9.182   4.001   1.562 -0.7604  0.0957 -0.1920
    8MOL0     C 1011   9.274   3.945   1.642 -0.4476  0.1736 -0.6586
    8MOL0     C 1012   9.406   3.918   1.574 -1.1946  0.4261 -0.2440
    8MOL0     H 1013   9.590   3.977   1.930 -0.5645 -0.3550 -0.7548
    8MOL0     H 1014   9.793   3.976   2.099  0.6673 -4.8813 -0.3738
    8MOL0     H 1015   9.959   3.792   2.270  2.5567  0.1419  0.7629
    8MOL0     H 1016   9.944   3.959   2.218  2.3877 -2.0320 -0.0834
    8MOL0     H 1017  10.052   3.841   2.466 -1.3234 -1.1635  0.2118
    8MOL0     H 1018   9.942   3.989   2.487  1.1422  1.9526 -0.2816
    8MOL0     H 1019  10.172   3.981   2.313  0.8505  1.2781  0.4795
    8MOL0     H 1020  10.183   4.034   2.489 -0.9292 -1.1398  0.0284
    8MOL0     H 1021  10.170   4.209   2.293  0.2192  1.8271  1.7536
    8MOL0     H 1022   9.995   4.159   2.281 -0.5659  3.4882 -1.5283
    8MOL0     H 1023   9.948   4.261   2.498 -0.1609  0.5705  1.0637
    8MOL0     H 1024  10.119   4.277   2.538 -0.3255  1.4321 -0.9690
    8MOL0     H 1025  10.161   4.437   2.365 -0.3168  0.6204 -2.1655
    8MOL0     H 1026  10.009   4.416   2.287 -1.3643  2.5759  1.5676
    8MOL0     H 1027  10.035   4.514   2.580 -1.6667 -1.0929  0.8274
    8MOL0     H 1028   9.887   4.485   2.504  0.6900  0.1566  2.1618
    8MOL0     H 1029   9.947   4.663   2.322  2.3635  0.8444 -0.5327
    8MOL0     H 1030   9.923   4.710   2.493  0.5253 -2.6196  3.3482
    8MOL0     H 1031  10.220   4.646   2.605 -4.9589  0.5678  0.6075
    8MOL0     H 1032  10.542   4.717   2.461  0.4745 -0.6888 -0.6163
    8MOL0     H 1033  10.514   4.877   2.513  2.7075 -0.2482  1.7571
    8MOL0     H 1034  10.386   4.767   2.718  1.6654 -1.7756  3.4150
    8MOL0     H 1035  10.452   4.613   2.665 -0.8223  0.9216 -0.7394
    8MOL0     H 1036  10.623   4.869   2.721 -1.8400  0.7343 -0.3176
    8MOL0     H 1037  10.680   4.704   2.688  0.6465  0.8600  0.5260
    8MOL0     H 1038  10.690   4.713   2.919 -0.4697  0.7774  1.6596
    8MOL0     H 1039  10.518   4.659   2.904 -2.3363  1.5300 -1.2666
    8MOL0     H 1040  10.473   4.649   3.122  1.6972 -0.6059 -1.4935
    8MOL0     H 1041  10.504   4.654   3.379 -2.1076  0.7691  1.0617
    8MOL0     H 1042  10.919   5.088   3.677  0.5727 -0.2888 -1.3948
    8MOL0     H 1043  11.029   5.067   3.883  0.2417  1.4947 -0.7887
    8MOL0     H 1044  11.124   4.839   4.026 -0.7951  0.2459 -1.3318
    8MOL0     H 1045  11.128   5.011   4.072 -1.0277  0.3129  2.7150
    8MOL0     H 1046  11.259   4.848   4.220 -0.6720 -1.0568 -1.9282
    8MOL0     H 1047  11.142   4.965   4.303  4.2890  1.3265  0.2949
    8MOL0     H 1048  11.126   4.756   4.423 -0.4453  2.6539 -0.2111
    8MOL0     H 1049  10.983   4.765   4.320 -0.2225  1.6867  0.7094
    8MOL0     H 1050  11.237   4.613   4.253 -0.9612  1.8245  1.9410
    8MOL0     H 1051  11.081   4.618   4.159 -1.5509 -0.1771  0.5145
    8MOL0     H 1052  10.981   4.508   4.395  1.1356 -0.9313 -0.2167
    8MOL0     H 1053  11.145   4.485   4.428  0.3608  3.1254  0.4431
    8MOL0     H 1054  11.012   4.413   4.163  3.6500  2.8549 -1.2903
    8MOL0     H 1055  11.176   4.349   4.228 -0.6732 -2.2729  0.9645
    8MOL0     H 1056  10.962   4.193   4.232  2.2005 -0.9030  0.9076
    8MOL0     H 1057  10.912   4.291   4.361 -0.2360 -1.2713 -0.6762
    8MOL0     H 1058  11.195   4.173   4.349 -0.4795  1.4518 -0.4841
    8MOL0     H 1059  11.124   4.261   4.490  1.9892 -0.6103  0.8344
    8MOL0     H 1060  10.751   4.757   3.998 -1.2644  0.0306 -0.6741
    8MOL0     H 1061  10.647   4.761   3.804  1.0177 -0.1422  0.4702
    8MOL0     H 1062  10.678   5.034   3.353 -2.0362 -0.5169  3.6738
    8MOL0     H 1063  10.665   5.023   3.102 -1.3951 -0.3163 -2.1552
    8MOL0     H 1064   9.536   3.853   2.410 -0.6542  0.9366 -0.2197
    8MOL0     H 1065   9.341   3.849   2.248  0.4228 -1.7460 -1.6950
    8MOL0     H 1066   9.105   3.981   1.937  2.8817 -2.6401 -0.0881
    8MOL0     H 1067   8.951   4.096   1.791  0.9323  4.0553 -1.0621
    8MOL0     H 1068   8.873   4.274   1.483  1.9213  0.5910  0.2016
    8MOL0     H 1069   8.907   4.251   1.648  0.6417  1.4636 -1.1070
    8MOL0     H 1070   8.671   4.172   1.575 -1.5687 -2.6262  2.7502
    8MOL0     H 1071   8.762   4.061   1.673 -0.9431 -1.8556 -0.5464
    8MOL0     H 1072   8.810   3.935   1.447 -1.1733 -1.6604 -0.6604
    8MOL0     H 1073   8.710   4.044   1.367 -2.3787 -0.9132 -0.4999
    8MOL0     H 1074   8.652   3.818   1.568 -1.2951  1.3883  2.1513
    8MOL0     H 1075   8.540   3.955   1.560  2.1428  0.6893  1.5729
    8MOL0     H 1076   8.475   3.802   1.167  1.4699 -1.4690  0.5258
    8MOL0     H 1077   9.201   4.019   1.456 -0.6920  1.5194  0.0450
    8MOL0     H 1078   9.416   3.811   1.551 -0.6603 -0.5505  3.7996
    8MOL0     H 1079   9.431   3.981   1.489  2.9409  0.0514  0.4750
    8MOL0     H 1080   9.486   3.945   1.644 -0.6122  0.7934 -1.0387
    9MOL0     O 1081  11.170   8.044   7.953  0.6661 -0.1252  0.5024
    9MOL0     C 1082  11.062   8.093   7.990 -0.9804  0.0881 -0.2167
    9MOL0     O 1083  10.996   8.182   7.917  0.3463 -0.7598  0.4440
    9MOL0     C 1084  11.060   8.250   7.806 -0.3213 -0.5077 -1.2235
    9MOL0     C 1085  11.086   8.189   7.686  0.0325  0.7455 -0.2213
    9MOL0     C 1086  11.137   8.255   7.575  0.5402  0.2381 -0.7332
    9MOL0     C 1087  11.183   8.384   7.590 -0.8666  0.5190  0.6035
    9MOL0     O 1088  11.251   8.459   7.495 -0.2523  0.0396  0.1599
    9MOL0     C 1089  11.380   8.508   7.529 -0.4724  0.2108 -0.4550
    9MOL0     C 1090  11.498   8.419   7.485 -0.0523  0.1535 -0.9489
    9MOL0     C 1091  11.631   8.504   7.474  0.0411  1.0040  0.3669
    9MOL0     C 1092  11.754   8.416   7.492 -0.8162  0.7226 -0.2111
    9MOL0     C 1093  11.773   8.394   7.641  0.1151  0.4155 -0.6735
    9MOL0     C 1094  11.842   8.258   7.672 -0.0740  0.9964  0.1127
    9MOL0     C 1095  11.987   8.271   7.598  0.2651 -0.0908  0.2424
    9MOL0     C 1096  12.075   8.139   7.580  0.4845 -0.3006  0.6966
    9MOL0     N 1097  12.197   8.179   7.508 -0.5584  0.1498 -0.1096
    9MOL0     C 1098  12.260   8.113   7.406 -0.4846  0.2498 -0.2170
    9MOL0     C 1099  12.378   8.178   7.384  0.0430  0.1291  0.4869
    9MOL0     C 1100  12.482   8.160   7.285 -0.9313  0.1917  0.1972
    9MOL0     C 1101  12.580   8.038   7.325  0.2552 -0.3947 -0.5952
    9MOL0     C 1102  12.705   8.034   7.249  0.1453  0.4437  0.0395
    9MOL0     C 1103  12.784   7.910   7.285  0.3447  0.8334 -0.5312
    9MOL0     O 1104  12.707   7.787   7.267 -0.3707 -0.3538  0.7347
    9MOL0     C 1105  12.776   7.671   7.279 -0.5264 -0.3269 -0.3935
    9MOL0     C 1106  12.798   7.622   7.413 -0.2597 -0.3765  0.7428
    9MOL0     C 1107  12.872   7.504   7.427 -0.9215  0.2686  0.2707
    9MOL0     C 1108  12.905   7.426   7.311 -0.2601  0.0840  0.7812
    9MOL0     C 1109  12.965   7.296   7.325  0.8402  0.4616  0.2101
    9MOL0     O 1110  13.004   7.260   7.446  0.2132 -0.0676 -0.6744
    9MOL0     C 1111  13.095   7.158   7.456 -0.4505  0.3958 -0.1933
    9MOL0     C 1112  13.214   7.196   7.525 -1.0277  0.3423 -0.0233
    9MOL0     C 1113  13.305   7.096   7.562  0.0050 -0.3605 -0.3512
    9MOL0     C 1114  13.285   6.963   7.539  0.0495  0.5721 -0.3979
    9MOL0     O 1115  13.357   6.870   7.607  0.1385 -0.5559  0.3527
    9MOL0     C 1116  13.288   6.762   7.663  0.1751  0.0877  0.5353
    9MOL0     C 1117  13.356   6.702   7.790  0.3530  0.3224 -0.1136
    9MOL0     C 1118  13.394   6.819   7.890  0.3691  0.1295 -0.2769
    9MOL0     C 1119  13.544   6.858   7.872 -0.2269 -0.4268 -0.9803
    9MOL0     C 1120  13.587   6.963   7.978  0.1244  0.5797  0.5518
    9MOL0     C 1121  13.738   6.990   7.965 -0.5706  0.5663 -0.0116
    9MOL0     C 1122  13.774   7.105   8.052 -0.6886 -1.0878 -0.1528
    9MOL0     C 1123  13.846   7.072   8.178 -1.1099  0.6219 -0.6979
    9MOL0    Cl 1124  13.858   7.228   8.267 -0.1821 -0.1356  0.4665
    9MOL0     C 1125  13.167   6.926   7.465 -0.5069  0.2984  0.1348
    9MOL0     C 1126  13.069   7.019   7.427  0.3139 -0.5136  0.3529
    9MOL0     O 1127  12.975   7.230   7.221  0.0992 -0.3239  0.1739
    9MOL0     C 1128  12.897   7.480   7.181  0.4982  0.1127  0.3905
    9MOL0     C 1129  12.836   7.606   7.168 -0.9752  0.0303 -0.0096
    9MOL0     N 1130  12.396   8.265   7.498 -0.1375 -1.6895  0.1800
    9MOL0     N 1131  12.286   8.266   7.565 -0.3134  0.6216 -0.2997
    9MOL0     C 1132  11.169   8.439   7.720 -0.1684  0.4116  0.2321
    9MOL0     C 1133  11.096   8.382   7.827  0.1776  0.1448  0.0333
    9MOL0     C 1134  10.999   8.049   8.124 -0.1101  0.2624  0.0091
    9MOL0     C 1135  10.888   8.119   8.165  0.1268 -0.0388 -0.3328
    9MOL0     C 1136  10.844   8.103   8.297 -0.9064 -0.6306 -0.0144
    9MOL0     C 1137  10.909   8.008   8.371  1.4051 -0.1238 -0.8251
    9MOL0     O 1138  10.851   7.992   8.497 -0.0673  0.1076  0.2266
    9MOL0     C 1139  10.892   7.881   8.579 -0.1837  0.2216  0.8195
    9MOL0     C 1140  10.799   7.897   8.706 -0.0478 -0.0586  0.4445
    9MOL0     C 1141  10.865   8.004   8.788 -0.6056 -0.5082 -0.9343
    9MOL0     C 1142  10.812   8.008   8.928  0.9788 -0.9896  0.1477
    9MOL0     C 1143  10.667   8.040   8.927  0.7971 -0.7161 -0.2321
    9MOL0     C 1144  10.548   8.061   8.925 -0.3180  0.0578  0.5784
    9MOL0     C 1145  11.016   7.933   8.323  0.1704 -0.1381  0.6332
    9MOL0     C 1146  11.068   7.956   8.201 -0.2325  1.0046 -0.1454
    9MOL0     C 1147  11.191   7.877   8.161  0.2082 -0.9113  0.0464
    9MOL0     H 1148  11.058   8.085   7.685  1.6455  0.2772 -0.6169
    9MOL0     H 1149  11.145   8.202   7.481 -0.4377 -2.7512  0.7584
    9MOL0     H 1150  11.387   8.600   7.470 -0.6417 -0.2365 -1.1926
    9MOL0     H 1151  11.388   8.530   7.636 -0.0781 -1.7604 -0.0346
    9MOL0     H 1152  11.472   8.382   7.386 -0.5710  3.2176 -2.0493
    9MOL0     H 1153  11.507   8.351   7.570  1.6904  1.8045  0.2894
    9MOL0     H 1154  11.633   8.580   7.553  0.8854  1.5247 -0.1524
    9MOL0     H 1155  11.635   8.558   7.379  0.2325 -1.9992 -1.4633
    9MOL0     H 1156  11.752   8.327   7.429 -0.4969  0.9822 -0.5847
    9MOL0     H 1157  11.845   8.470   7.467  0.6019 -0.0879  2.7494
    9MOL0     H 1158  11.830   8.475   7.686 -0.3031 -0.9087  2.4662
    9MOL0     H 1159  11.677   8.383   7.693 -0.0440 -1.5979 -1.2827
    9MOL0     H 1160  11.847   8.237   7.779 -0.4146 -0.8543 -0.2068
    9MOL0     H 1161  11.781   8.171   7.644  0.3938  0.5544  0.4566
    9MOL0     H 1162  12.031   8.342   7.667 -3.8733  1.1769  1.9112
    9MOL0     H 1163  11.982   8.296   7.491 -0.6883 -3.0370 -0.5157
    9MOL0     H 1164  12.114   8.088   7.668 -1.4685 -2.1160  0.5814
    9MOL0     H 1165  12.014   8.064   7.529 -1.6839  0.0929  2.5628
    9MOL0     H 1166  12.227   8.030   7.344 -1.9431  1.0717 -0.5779
    9MOL0     H 1167  12.431   8.134   7.192 -2.0110 -2.1184  1.3667
    9MOL0     H 1168  12.535   8.253   7.259 -2.3608  1.1400  0.5254
    9MOL0     H 1169  12.604   8.049   7.431 -3.9051  4.1169  0.2616
    9MOL0     H 1170  12.530   7.942   7.307  1.8725 -1.4045  0.0935
    9MOL0     H 1171  12.764   8.125   7.257  1.5284 -0.5086  1.3234
    9MOL0     H 1172  12.675   8.026   7.144 -2.2478 -1.1710  0.7364
    9MOL0     H 1173  12.819   7.920   7.388 -1.7003  0.5599  0.2276
    9MOL0     H 1174  12.873   7.904   7.221  0.4008  0.1168 -0.3963
    9MOL0     H 1175  12.769   7.686   7.495 -1.0363  0.1747  0.0606
    9MOL0     H 1176  12.873   7.473   7.531  0.1289 -0.9759 -0.0906
    9MOL0     H 1177  13.236   7.302   7.536  0.6070  0.4745 -3.3109
    9MOL0     H 1178  13.389   7.134   7.619  0.6462  1.7909 -2.5754
    9MOL0     H 1179  13.189   6.785   7.703 -0.5629 -0.5006 -0.9191
    9MOL0     H 1180  13.284   6.690   7.582  3.3447  2.8520 -2.4133
    9MOL0     H 1181  13.289   6.630   7.838  0.9360 -0.2280 -0.0956
    9MOL0     H 1182  13.450   6.651   7.763 -0.6182 -0.7467 -1.6722
    9MOL0     H 1183  13.330   6.903   7.861  3.1698  2.6861  0.4105
    9MOL0     H 1184  13.376   6.789   7.993  0.5641 -0.4832 -0.4202
    9MOL0     H 1185  13.579   6.894   7.775  2.2662  1.5411  0.5184
    9MOL0     H 1186  13.602   6.768   7.895  1.6309  1.2109  1.1899
    9MOL0     H 1187  13.556   6.919   8.073  1.1108 -0.5228  0.3814
    9MOL0     H 1188  13.532   7.053   7.950  0.8695 -0.1733 -4.1337
    9MOL0     H 1189  13.801   6.908   8.002 -0.8018  1.4038  2.4698
    9MOL0     H 1190  13.766   7.014   7.862  1.1377 -1.2283 -0.0309
    9MOL0     H 1191  13.684   7.164   8.067  1.6322  3.2151 -1.5262
    9MOL0     H 1192  13.835   7.167   7.986 -1.7080 -1.4059 -1.4465
    9MOL0     H 1193  13.795   7.004   8.247 -2.0572 -0.9404 -2.8443
    9MOL0     H 1194  13.940   7.024   8.149 -1.6802 -1.8462  1.2393
    9MOL0     H 1195  13.138   6.824   7.440  0.5189 -0.5357  2.1526
    9MOL0     H 1196  12.979   6.989   7.374 -0.2228  1.1258  0.2749
    9MOL0     H 1197  12.933   7.431   7.091  0.7869 -0.5214  0.8394
    9MOL0     H 1198  12.808   7.634   7.067 -1.7529 -1.5698 -0.2684
    9MOL0     H 1199  11.200   8.543   7.729  3.6188 -0.7631  3.4311
    9MOL0     H 1200  11.086   8.426   7.925  1.8247  0.6077  0.0147
    9MOL0     H 1201  10.846   8.198   8.104 -4.2774 -3.2098 -1.9933
    9MOL0     H 1202  10.768   8.166   8.343 -0.7327  1.0122 -1.8685
    9MOL0     H 1203  11.000   7.881   8.595  0.1829  0.5400 -1.3470
    9MOL0     H 1204  10.857   7.795   8.522 -0.0358  1.3142 -1.0133
    9MOL0     H 1205  10.796   7.800   8.755 -0.9565 -0.1318  0.2580
    9MOL0     H 1206  10.698   7.925   8.675 -0.0669  1.3643  1.6542
    9MOL0     H 1207  10.853   8.106   8.748  0.2738  0.4632  1.1393
    9MOL0     H 1208  10.971   7.988   8.806  0.3927  2.5863 -3.1407
    9MOL0     H 1209  10.826   7.916   8.985 -0.6920 -0.8275  0.8722
    9MOL0     H 1210  10.858   8.094   8.977 -3.0921  2.3654 -1.2599
    9MOL0     H 1211  10.450   8.102   8.934 -0.6223 -0.5036 -0.1062
    9MOL0     H 1212  11.052   7.853   8.387 -0.9905  0.9034  2.6957
    9MOL0     H 1213  11.167   7.823   8.069 -0.2884  0.0342 -0.4018
    9MOL0     H 1214  11.281   7.939   8.159 -0.9567  0.8517 -1.0275
    9MOL0     H 1215  11.210   7.807   8.242  4.5354  2.9017  2.8162
   10MOL0     O 1216   5.533   6.274   9.464  0.4117 -1.1107 -0.3628
   10MOL0     C 1217   5.513   6.214   9.356 -0.6086 -0.2759  0.2580
   10MOL0     O 1218   5.402   6.230   9.278  0.4743 -0.1388 -0.3560
   10MOL0     C 1219   5.292   6.292   9.329  0.3987  0.8278 -0.4363
   10MOL0     C 1220   5.221   6.235   9.440  0.5557 -0.2326 -1.0007
   10MOL0     C 1221   5.107   6.305   9.486  0.4184 -0.6439 -0.5083
   10MOL0     C 1222   5.070   6.426   9.430  0.3590 -0.3292 -0.0842
   10MOL0     O 1223   4.958   6.497   9.458 -0.3568 -0.0124 -0.2017
   10MOL0     C 1224   4.903   6.489   9.592  0.3884 -0.6601 -0.5484
   10MOL0     C 1225   4.799   6.605   9.609  0.0539 -0.3700  0.0318
   10MOL0     C 1226   4.685   6.570   9.522 -0.2406  0.1924 -0.3799
   10MOL0     C 1227   4.613   6.706   9.481  0.1598 -0.9549 -0.5896
   10MOL0     C 1228   4.477   6.676   9.402 -0.6291  0.6823  0.9497
   10MOL0     C 1229   4.384   6.615   9.498 -0.9381 -0.3390  0.1998
   10MOL0     C 1230   4.247   6.585   9.434  0.2147  0.2972  0.2833
   10MOL0     C 1231   4.131   6.586   9.547  0.1589 -0.3972  0.3696
   10MOL0     N 1232   4.004   6.549   9.493  0.0332  0.3156 -0.1334
   10MOL0     C 1233   3.960   6.420   9.459 -0.5220  0.1866  0.2141
   10MOL0     C 1234   3.831   6.441   9.416  0.5499  0.0193 -0.5253
   10MOL0     C 1235   3.745   6.339   9.346  0.9237 -0.0002 -0.3324
   10MOL0     C 1236   3.795   6.301   9.213  0.5395 -0.4350  1.0067
   10MOL0     C 1237   3.692   6.229   9.124 -0.6651 -0.7729  0.0232
   10MOL0     C 1238   3.742   6.163   8.998  0.5875 -0.5264 -0.9452
   10MOL0     O 1239   3.773   6.269   8.915  0.2087 -0.2365 -0.4284
   10MOL0     C 1240   3.859   6.254   8.807 -0.4552 -0.6192  0.1660
   10MOL0     C 1241   3.924   6.367   8.764  0.0715  0.1012  0.0547
   10MOL0     C 1242   4.045   6.359   8.689  0.1249  0.6707  0.4149
   10MOL0     C 1243   4.096   6.231   8.648  0.2297 -0.2578 -0.5893
   10MOL0     C 1244   4.236   6.221   8.582 -0.3171 -0.1817 -0.7236
   10MOL0     O 1245   4.319   6.333   8.555 -0.1079  0.9485 -0.1098
   10MOL0     C 1246   4.445   6.316   8.494 -0.3820 -0.1100  1.6626
   10MOL0     C 1247   4.542   6.228   8.534 -0.0862  1.3373  0.2150
   10MOL0     C 1248   4.666   6.226   8.479  0.3043  0.4139  0.0107
   10MOL0     C 1249   4.703   6.329   8.406 -0.2366 -1.1348  0.4497
   10MOL0     O 1250   4.839   6.342   8.387 -0.0308 -0.5403  0.1529
   10MOL0     C 1251   4.882   6.481   8.358  0.2378  0.6956  1.1258
   10MOL0     C 1252   5.020   6.505   8.331 -0.1432  0.1309  0.4322
   10MOL0     C 1253   5.073   6.422   8.211  0.8061 -1.0007 -0.0197
   10MOL0     C 1254   5.228   6.399   8.224 -0.5287 -0.5533 -0.8673
   10MOL0     C 1255   5.291   6.297   8.118 -0.3575 -0.3350  0.0536
   10MOL0     C 1256   5.229   6.163   8.125 -0.2336  0.4239  0.6069
   10MOL0     C 1257   5.300   6.052   8.044  0.8017  0.1711  0.0013
   10MOL0     C 1258   5.260   5.910   8.099  1.1879 -0.6243 -0.4170
   10MOL0    Cl 1259   5.347   5.793   8.002 -0.2526  0.3469  0.4104
   10MOL0     C 1260   4.609   6.430   8.370 -0.3115 -0.4179 -1.1798
   10MOL0     C 1261   4.481   6.426   8.420  0.3322  0.3502 -0.5072
   10MOL0     O 1262   4.269   6.103   8.556 -0.0390  0.5261 -0.2476
   10MOL0     C 1263   4.017   6.119   8.684 -1.1035 -0.0023 -0.5972
   10MOL0     C 1264   3.900   6.123   8.761 -0.0095  0.1378 -0.5287
   10MOL0     N 1265   3.797   6.576   9.426 -0.1051  0.5401  0.4719
   10MOL0     N 1266   3.903   6.639   9.467 -0.4282 -0.8156 -0.4061
   10MOL0     C 1267   5.146   6.477   9.328  0.1337 -0.3643 -0.1690
   10MOL0     C 1268   5.252   6.404   9.274  0.2206  0.1695 -0.0058
   10MOL0     C 1269   5.617   6.111   9.307  0.8359  0.0913  1.0328
   10MOL0     C 1270   5.607   6.061   9.178  0.1771 -0.2458 -0.6008
   10MOL0     C 1271   5.709   5.992   9.123  0.0469  0.7386  0.5881
   10MOL0     C 1272   5.824   5.961   9.186 -0.1839  0.9965 -0.0309
   10MOL0     O 1273   5.924   5.893   9.125  0.2443  0.3312 -0.1513
   10MOL0     C 1274   5.945   5.881   8.983  0.6184 -0.1854 -0.7393
   10MOL0     C 1275   6.095   5.889   8.954  0.5930  0.8219 -0.7123
   10MOL0     C 1276   6.164   5.785   9.039 -0.1968 -0.8471 -0.2501
   10MOL0     C 1277   6.307   5.747   8.986 -0.4650 -0.5473  0.4855
   10MOL0     C 1278   6.384   5.875   8.976 -1.0601 -0.3121 -0.0473
   10MOL0     C 1279   6.442   5.985   8.983  0.1516  0.4368 -0.2989
   10MOL0     C 1280   5.836   6.001   9.325  0.5307  0.8025 -0.4764
   10MOL0     C 1281   5.732   6.081   9.390  0.6213  0.3316  1.2454
   10MOL0     C 1282   5.756   6.135   9.521 -0.5491 -0.8923 -0.2509
   10MOL0     H 1283   5.254   6.148   9.496  0.6618 -0.7530 -1.8505
   10MOL0     H 1284   5.040   6.257   9.557 -1.3039 -0.1835 -1.7575
   10MOL0     H 1285   4.852   6.395   9.615  0.0109 -0.2539  0.3197
   10MOL0     H 1286   4.981   6.504   9.667 -1.6821 -3.2495  2.3737
   10MOL0     H 1287   4.843   6.696   9.567 -1.3210 -0.9522 -2.9195
   10MOL0     H 1288   4.759   6.614   9.710 -1.1955 -0.4925 -0.4406
   10MOL0     H 1289   4.637   6.490   9.580  1.1811 -1.8425 -1.8516
   10MOL0     H 1290   4.728   6.526   9.432  0.8175  1.7004 -0.6538
   10MOL0     H 1291   4.604   6.773   9.567  1.8453 -2.2370  0.6467
   10MOL0     H 1292   4.678   6.763   9.416  0.9974 -2.7386 -1.3880
   10MOL0     H 1293   4.441   6.771   9.362  0.2388  0.9868  0.8505
   10MOL0     H 1294   4.502   6.614   9.316 -2.4746  2.4829 -0.9955
   10MOL0     H 1295   4.431   6.521   9.528  1.5841  1.2112  1.4848
   10MOL0     H 1296   4.375   6.678   9.587 -1.6741 -2.2177  1.5292
   10MOL0     H 1297   4.235   6.490   9.381  0.9060  1.1100 -1.4176
   10MOL0     H 1298   4.224   6.665   9.362 -0.1327  1.3007  1.4675
   10MOL0     H 1299   4.162   6.512   9.622 -3.4239 -0.5095  1.9438
   10MOL0     H 1300   4.123   6.687   9.587  4.8423  0.9803 -1.5274
   10MOL0     H 1301   4.012   6.326   9.449  0.1354  0.2120  2.6657
   10MOL0     H 1302   3.759   6.255   9.414  0.3571 -2.5676 -3.1708
   10MOL0     H 1303   3.643   6.379   9.344  1.4398  1.3566 -0.6384
   10MOL0     H 1304   3.812   6.399   9.168  0.7588  0.2483  2.5156
   10MOL0     H 1305   3.888   6.245   9.224  1.5651  0.9324 -0.3829
   10MOL0     H 1306   3.604   6.282   9.087 -0.5896 -1.4180 -1.1188
   10MOL0     H 1307   3.647   6.145   9.178  1.0302 -2.9540 -1.7558
   10MOL0     H 1308   3.657   6.103   8.964  0.6204 -0.8779 -0.4205
   10MOL0     H 1309   3.828   6.102   9.025  0.0547 -1.2055 -0.7640
   10MOL0     H 1310   3.893   6.460   8.811 -0.3083  0.7908 -1.4995
   10MOL0     H 1311   4.101   6.451   8.676 -0.0987  0.7082 -0.3215
   10MOL0     H 1312   4.513   6.144   8.595  1.6970 -0.1030 -0.8204
   10MOL0     H 1313   4.739   6.148   8.497  1.7514  1.3571 -1.4533
   10MOL0     H 1314   4.831   6.521   8.269  3.6563  2.9026 -0.0283
   10MOL0     H 1315   4.843   6.537   8.444  2.2780 -0.1945  2.7117
   10MOL0     H 1316   5.028   6.610   8.300 -2.8913  0.7579  1.5397
   10MOL0     H 1317   5.072   6.485   8.425 -0.3793 -0.2479  0.4804
   10MOL0     H 1318   5.021   6.326   8.210 -1.6589  0.1282  2.9660
   10MOL0     H 1319   5.039   6.466   8.117 -2.6431 -0.9453  1.1392
   10MOL0     H 1320   5.242   6.364   8.326 -3.2468 -2.0285 -0.9010
   10MOL0     H 1321   5.275   6.498   8.227 -3.3722  0.9841  3.9692
   10MOL0     H 1322   5.399   6.281   8.120 -0.1383  0.6921 -1.5885
   10MOL0     H 1323   5.277   6.323   8.012 -1.8204 -2.4180 -0.3214
   10MOL0     H 1324   5.226   6.147   8.233  3.4621 -0.3884  0.7101
   10MOL0     H 1325   5.127   6.167   8.085  0.0778 -1.2798 -0.4538
   10MOL0     H 1326   5.409   6.063   8.050  0.7092  1.5314 -0.5940
   10MOL0     H 1327   5.284   6.064   7.936  5.6898  3.5635 -0.7026
   10MOL0     H 1328   5.285   5.906   8.206  0.0243 -1.4514 -0.1558
   10MOL0     H 1329   5.153   5.899   8.079  1.0486  2.5636 -2.0551
   10MOL0     H 1330   4.644   6.517   8.316 -1.5385  0.0781 -1.2232
   10MOL0     H 1331   4.409   6.506   8.407  0.9560  0.9358 -0.4232
   10MOL0     H 1332   4.056   6.024   8.650 -2.3842 -1.0962  0.8341
   10MOL0     H 1333   3.838   6.035   8.781 -1.0976  1.2347  1.3089
   10MOL0     H 1334   5.132   6.574   9.281 -0.1810 -0.6927 -0.7673
   10MOL0     H 1335   5.324   6.447   9.205  0.6926  2.9933  2.0517
   10MOL0     H 1336   5.522   6.085   9.114  0.5256 -3.1112 -2.3529
   10MOL0     H 1337   5.698   5.959   9.021 -1.2302 -3.9930  2.0056
   10MOL0     H 1338   5.902   5.962   8.924 -0.2040 -0.4206 -0.4774
   10MOL0     H 1339   5.918   5.783   8.943  2.2437 -2.0238  2.2400
   10MOL0     H 1340   6.124   5.992   8.978  0.0578  0.2174  3.2444
   10MOL0     H 1341   6.105   5.861   8.849 -2.0799  1.7829 -1.3009
   10MOL0     H 1342   6.098   5.698   9.033 -0.3424 -0.7471 -0.0775
   10MOL0     H 1343   6.171   5.817   9.143 -3.9471  0.6321 -0.3027
   10MOL0     H 1344   6.364   5.688   9.058 -2.4105 -0.1780  2.4545
   10MOL0     H 1345   6.309   5.702   8.887  3.7945 -0.0554  0.1750
   10MOL0     H 1346   6.513   6.065   8.991  0.4963  0.1790 -0.7451
   10MOL0     H 1347   5.931   5.987   9.375 -0.0381  3.6114  1.6576
   10MOL0     H 1348   5.841   6.086   9.571 -0.7681  1.7709  3.0817
   10MOL0     H 1349   5.769   6.241   9.499 -0.1256 -0.6622  1.0380
   10MOL0     H 1350   5.668   6.119   9.584 -1.3232  0.1993 -1.0237
   11MOL0     O 1351   4.104   8.561  10.887 -0.5718  0.2121 -0.8479
   11MOL0     C 1352   4.210   8.604  10.841  0.8746  0.3385  1.2136
   11MOL0     O 1353   4.239   8.735  10.838 -0.5170  0.4895  0.4036
   11MOL0     C 1354   4.159   8.818  10.914 -0.1250  0.1013 -0.3604
   11MOL0     C 1355   4.022   8.847  10.890 -0.7939 -0.5032  0.3557
   11MOL0     C 1356   3.957   8.950  10.960 -1.6366  1.2041  1.0166
   11MOL0     C 1357   4.023   9.014  11.067  0.6645  1.1116  0.2680
   11MOL0     O 1358   3.951   9.102  11.144 -0.1000  0.3723 -0.1151
   11MOL0     C 1359   3.881   9.205  11.079  0.4679  0.8570 -0.7638
   11MOL0     C 1360   3.982   9.308  11.017  0.3599 -0.3063  1.5159
   11MOL0     C 1361   3.912   9.439  10.966  1.0628 -0.3539  0.9855
   11MOL0     C 1362   3.868   9.532  11.079  0.3842  0.5574  0.6258
   11MOL0     C 1363   3.797   9.663  11.044  0.2271 -0.5504 -0.2174
   11MOL0     C 1364   3.897   9.771  11.004  0.5154 -0.5818  0.3561
   11MOL0     C 1365   3.839   9.913  10.993 -0.4700  0.0785  0.2248
   11MOL0     C 1366   3.935  10.019  10.921  0.6755  0.5624  0.1061
   11MOL0     N 1367   3.894  10.154  10.940 -0.5579 -0.0330  0.2123
   11MOL0     C 1368   3.764  10.198  10.984 -0.6428  0.3558  0.0607
   11MOL0     C 1369   3.771  10.336  10.980 -0.1324  0.8279  0.0318
   11MOL0     C 1370   3.653  10.434  11.004  1.2266 -0.4661 -0.7410
   11MOL0     C 1371   3.532  10.401  10.937  0.0928  0.1004  0.6203
   11MOL0     C 1372   3.543  10.428  10.787  0.4175 -0.0625 -0.1181
   11MOL0     C 1373   3.479  10.310  10.716  0.1143  0.4986  0.2815
   11MOL0     O 1374   3.570  10.195  10.717 -1.2626 -1.4189 -0.6675
   11MOL0     C 1375   3.528  10.067  10.706 -0.4623  0.4778  0.3278
   11MOL0     C 1376   3.633   9.981  10.719  0.0520 -0.8259 -0.2912
   11MOL0     C 1377   3.610   9.844  10.717  0.1860  0.0026  0.2339
   11MOL0     C 1378   3.477   9.796  10.705 -0.1480 -0.5408 -0.0417
   11MOL0     C 1379   3.448   9.650  10.699 -0.0786  0.1865  1.5055
   11MOL0     O 1380   3.341   9.607  10.619 -0.2229 -0.5643 -0.1341
   11MOL0     C 1381   3.318   9.470  10.634 -0.2626 -0.2088  0.7523
   11MOL0     C 1382   3.261   9.404  10.744  0.2116 -0.0091 -0.5955
   11MOL0     C 1383   3.251   9.265  10.750 -0.4260  0.3269 -0.2588
   11MOL0     C 1384   3.275   9.185  10.643  0.1190  0.1445 -0.1691
   11MOL0     O 1385   3.247   9.053  10.667 -0.8124  0.1447  0.6605
   11MOL0     C 1386   3.296   8.958  10.571 -0.1814  0.3567 -0.2046
   11MOL0     C 1387   3.197   8.905  10.479  0.4049 -0.7731  0.1182
   11MOL0     C 1388   3.204   8.976  10.340  0.2567 -0.1072 -0.0070
   11MOL0     C 1389   3.099   8.920  10.248 -0.7380  0.3732 -0.2394
   11MOL0     C 1390   3.154   8.787  10.182 -0.1887  0.4990 -0.5116
   11MOL0     C 1391   3.218   8.809  10.039  0.8889 -0.1303  0.5880
   11MOL0     C 1392   3.223   8.671   9.970 -0.2675 -0.3580  0.7070
   11MOL0     C 1393   3.271   8.679   9.814  0.7953 -0.1593 -0.9709
   11MOL0    Cl 1394   3.282   8.507   9.764 -0.1412  0.1414  0.0445
   11MOL0     C 1395   3.312   9.249  10.524  0.1179  0.6611 -0.7439
   11MOL0     C 1396   3.341   9.388  10.520  0.8137 -0.0091 -0.8754
   11MOL0     O 1397   3.513   9.584  10.775 -0.3339  0.5355  0.1787
   11MOL0     C 1398   3.367   9.884  10.671  0.4479  0.0925 -0.4233
   11MOL0     C 1399   3.401  10.026  10.680  0.6675 -0.5177 -0.1402
   11MOL0     N 1400   3.897  10.378  10.952  0.0618  0.2899  0.1478
   11MOL0     N 1401   3.962  10.270  10.921 -0.4945  0.2134  0.4515
   11MOL0     C 1402   4.153   8.975  11.101 -0.1259  0.0693  0.4891
   11MOL0     C 1403   4.225   8.879  11.022  0.4798 -0.4833  0.0637
   11MOL0     C 1404   4.310   8.502  10.813  0.4020  0.1537  0.0307
   11MOL0     C 1405   4.279   8.369  10.853  0.1497 -0.2709 -0.1440
   11MOL0     C 1406   4.362   8.263  10.850  0.0625 -0.2809  0.4653
   11MOL0     C 1407   4.484   8.284  10.783  0.1272 -0.2705 -0.5529
   11MOL0     O 1408   4.560   8.171  10.782  0.4618  0.3244 -0.0961
   11MOL0     C 1409   4.681   8.182  10.712  0.2167 -0.9168  0.2531
   11MOL0     C 1410   4.749   8.040  10.704 -0.1363 -0.4454  0.0165
   11MOL0     C 1411   4.672   7.929  10.646  0.8226  0.2131 -0.4260
   11MOL0     C 1412   4.592   7.955  10.514  0.7434  0.3476  0.9237
   11MOL0     C 1413   4.662   8.020  10.399 -1.0002 -0.5948  0.5789
   11MOL0     C 1414   4.714   8.061  10.295 -0.2739 -0.4194  0.2455
   11MOL0     C 1415   4.511   8.414  10.731 -0.3736  0.8978 -0.1738
   11MOL0     C 1416   4.423   8.520  10.741  0.1230  0.4182 -0.6526
   11MOL0     C 1417   4.459   8.653  10.676  0.0277 -0.0892  0.0310
   11MOL0     H 1418   3.971   8.808  10.803 -1.0645  2.8991 -1.1578
   11MOL0     H 1419   3.851   8.960  10.939 -2.1068 -0.6155  2.2463
   11MOL0     H 1420   3.808   9.169  11.006 -0.9004 -0.7143  1.2877
   11MOL0     H 1421   3.829   9.246  11.166  0.5800  0.9276 -0.7301
   11MOL0     H 1422   4.014   9.261  10.923 -1.6023 -0.4077  0.8545
   11MOL0     H 1423   4.060   9.344  11.085  1.4675 -0.9385  0.6113
   11MOL0     H 1424   3.827   9.410  10.903  0.0727  0.9914  1.6494
   11MOL0     H 1425   3.989   9.495  10.913 -0.8749 -0.5955 -2.3563
   11MOL0     H 1426   3.802   9.482  11.150 -0.9173  0.8858 -0.3214
   11MOL0     H 1427   3.955   9.558  11.140  0.6091  0.1723  0.4713
   11MOL0     H 1428   3.719   9.657  10.967  0.8231  0.4022 -0.9155
   11MOL0     H 1429   3.744   9.685  11.137  3.0707  1.4354  1.0595
   11MOL0     H 1430   3.971   9.780  11.085 -0.2091 -1.2791  1.1066
   11MOL0     H 1431   3.937   9.743  10.906 -1.2981 -0.6409 -0.3902
   11MOL0     H 1432   3.809   9.950  11.091 -0.2439  0.4014  0.1784
   11MOL0     H 1433   3.752   9.916  10.927  1.1693 -3.4154 -2.4284
   11MOL0     H 1434   4.033  10.004  10.966  0.0512 -0.5039  1.1728
   11MOL0     H 1435   3.938  10.005  10.812  2.0974  1.8767 -0.0611
   11MOL0     H 1436   3.683  10.136  11.022 -3.4524  1.4046 -3.6286
   11MOL0     H 1437   3.631  10.423  11.111  2.1773  0.8550 -0.3772
   11MOL0     H 1438   3.683  10.535  10.973 -0.8387 -0.1209 -1.8189
   11MOL0     H 1439   3.493  10.300  10.953  2.4580 -1.0750 -0.5037
   11MOL0     H 1440   3.457  10.465  10.982  0.0577 -0.2232  1.0279
   11MOL0     H 1441   3.643  10.449  10.747  0.3375 -1.5670 -1.1994
   11MOL0     H 1442   3.481  10.517  10.778  2.7706  1.9546  2.0302
   11MOL0     H 1443   3.446  10.337  10.616  2.4771 -0.6061 -0.8780
   11MOL0     H 1444   3.385  10.284  10.764 -1.3437 -2.9232 -3.7937
   11MOL0     H 1445   3.736  10.015  10.728  0.7104 -2.9685  1.0641
   11MOL0     H 1446   3.694   9.777  10.732 -0.8380 -0.9730  1.9142
   11MOL0     H 1447   3.234   9.467  10.828  0.5441 -3.5231  2.3992
   11MOL0     H 1448   3.229   9.216  10.844  0.2365 -0.3324 -0.4345
   11MOL0     H 1449   3.383   8.999  10.520 -0.0247  1.2649  0.7551
   11MOL0     H 1450   3.339   8.881  10.636 -1.8935 -0.7232 -0.2828
   11MOL0     H 1451   3.229   8.804  10.452  0.7656 -0.7444  0.4360
   11MOL0     H 1452   3.096   8.919  10.518 -0.7221  1.6280 -3.1307
   11MOL0     H 1453   3.173   9.080  10.356 -1.5019 -0.4815 -0.7336
   11MOL0     H 1454   3.306   8.968  10.301  1.3331 -0.3918  2.6498
   11MOL0     H 1455   3.084   8.996  10.171  1.4887  1.5703  0.4399
   11MOL0     H 1456   3.007   8.911  10.307 -0.7525 -1.3928 -0.4613
   11MOL0     H 1457   3.074   8.713  10.180 -0.5282  0.8748 -1.2620
   11MOL0     H 1458   3.229   8.733  10.241 -0.0604  1.8570  0.6284
   11MOL0     H 1459   3.161   8.881   9.981  0.1613 -1.6260 -0.6010
   11MOL0     H 1460   3.317   8.856  10.035  0.2233  1.2799 -0.1824
   11MOL0     H 1461   3.124   8.624   9.974  0.6087 -2.4652 -0.3178
   11MOL0     H 1462   3.295   8.613  10.029  0.6156  1.4103  1.4374
   11MOL0     H 1463   3.193   8.731   9.759 -2.8342 -1.3294  2.6038
   11MOL0     H 1464   3.364   8.734   9.793 -0.1712  0.5502 -3.8267
   11MOL0     H 1465   3.332   9.185  10.438  1.4271 -0.3420  0.2663
   11MOL0     H 1466   3.384   9.423  10.426 -0.9270 -0.3617 -1.8409
   11MOL0     H 1467   3.265   9.866  10.639 -0.6507 -2.1491  3.5561
   11MOL0     H 1468   3.331  10.105  10.653 -1.1293 -2.6538 -2.2573
   11MOL0     H 1469   4.206   9.007  11.190 -0.3967  2.8457 -0.2318
   11MOL0     H 1470   4.325   8.846  11.050  0.1376  0.4887  2.7799
   11MOL0     H 1471   4.181   8.336  10.886  1.3950 -2.5611  1.6133
   11MOL0     H 1472   4.342   8.161  10.883 -1.2790 -1.0940 -2.4692
   11MOL0     H 1473   4.747   8.251  10.766  0.2724 -1.0561  0.3648
   11MOL0     H 1474   4.663   8.221  10.611  1.2681  1.4226  0.9041
   11MOL0     H 1475   4.767   8.031  10.811  1.3898  0.2147 -0.1499
   11MOL0     H 1476   4.846   8.038  10.654 -0.4012 -0.2354 -0.5116
   11MOL0     H 1477   4.598   7.894  10.719 -0.8267 -2.9622 -3.3234
   11MOL0     H 1478   4.739   7.843  10.639 -0.0235 -0.3446 -2.3492
   11MOL0     H 1479   4.539   7.865  10.482 -1.6153  1.7249  0.6923
   11MOL0     H 1480   4.506   8.020  10.534 -0.0382  0.5988 -2.5749
   11MOL0     H 1481   4.767   8.088  10.206 -3.9726  0.1247 -2.0425
   11MOL0     H 1482   4.598   8.426  10.668 -0.1314 -0.2806 -0.0860
   11MOL0     H 1483   4.476   8.734  10.749 -0.4208  0.2623 -0.2477
   11MOL0     H 1484   4.541   8.640  10.606  1.8299  0.8203  1.8799
   11MOL0     H 1485   4.370   8.678  10.618 -0.8106 -1.0278  0.8592
   12MOL0     O 1486   4.651   7.127   6.638 -0.0646  0.3214  0.4352
   12MOL0     C 1487   4.596   7.040   6.705  1.2023  0.2365  0.4579
   12MOL0     O 1488   4.529   6.935   6.646  0.3119  0.4144 -0.5879
   12MOL0     C 1489   4.581   6.861   6.540 -0.7871 -0.4748 -0.2274
   12MOL0     C 1490   4.574   6.914   6.407  1.1726  0.2217 -0.5821
   12MOL0     C 1491   4.634   6.844   6.298 -0.1630  0.1839  0.8702
   12MOL0     C 1492   4.675   6.714   6.323  0.1438  0.3933 -0.6096
   12MOL0     O 1493   4.718   6.637   6.210  0.6550 -0.5691  0.2068
   12MOL0     C 1494   4.612   6.537   6.183 -0.4659  0.3566 -0.4084
   12MOL0     C 1495   4.593   6.499   6.029  0.4650 -0.2236 -0.2231
   12MOL0     C 1496   4.571   6.630   5.948 -0.2363 -0.3015 -0.9371
   12MOL0     C 1497   4.489   6.621   5.819  0.8721 -0.2142  0.3659
   12MOL0     C 1498   4.540   6.517   5.713  0.7468 -0.1567 -0.4770
   12MOL0     C 1499   4.528   6.576   5.575  0.0046  1.0073  1.1613
   12MOL0     C 1500   4.576   6.473   5.461  0.4530 -0.4859  0.0682
   12MOL0     C 1501   4.565   6.540   5.330  0.2458 -0.8887  0.8193
   12MOL0     N 1502   4.600   6.465   5.208  0.5257  0.5856 -0.1060
   12MOL0     C 1503   4.688   6.518   5.113 -0.7968 -0.2999  0.2427
   12MOL0     C 1504   4.703   6.409   5.026 -0.3537 -0.7569 -0.7615
   12MOL0     C 1505   4.816   6.405   4.916 -0.1858  0.7959  0.2714
   12MOL0     C 1506   4.769   6.359   4.780 -0.4282  0.1020  0.0019
   12MOL0     C 1507   4.883   6.379   4.672 -0.2199  0.3517  0.0787
   12MOL0     C 1508   4.834   6.368   4.534  0.5344 -0.6175  0.0711
   12MOL0     O 1509   4.743   6.255   4.526 -0.4415 -0.0168 -0.8759
   12MOL0     C 1510   4.731   6.179   4.417 -0.1329 -0.0736  1.2691
   12MOL0     C 1511   4.682   6.050   4.424  0.3338 -0.5068  0.5485
   12MOL0     C 1512   4.696   5.965   4.316  0.6891  0.7363  0.7349
   12MOL0     C 1513   4.737   6.011   4.193  0.2843 -0.1039  0.4955
   12MOL0     C 1514   4.725   5.916   4.068 -0.3747 -0.4028  0.3349
   12MOL0     O 1515   4.745   5.965   3.946  0.2362  0.6064 -0.0179
   12MOL0     C 1516   4.733   5.888   3.835 -0.7781  0.6631 -0.2430
   12MOL0     C 1517   4.667   5.937   3.726 -0.0592  0.2842 -0.3691
   12MOL0     C 1518   4.663   5.877   3.604 -0.2642 -0.4765 -0.4723
   12MOL0     C 1519   4.733   5.760   3.585  0.1167  0.4528  1.4006
   12MOL0     O 1520   4.718   5.689   3.469 -0.7751  0.0958  0.7590
   12MOL0     C 1521   4.843   5.665   3.408 -0.1940 -0.5340  0.0668
   12MOL0     C 1522   4.869   5.511   3.390 -0.2606 -0.2090  0.0122
   12MOL0     C 1523   4.996   5.494   3.310 -0.8631 -0.0134  0.1407
   12MOL0     C 1524   5.125   5.565   3.372 -0.1746 -0.2315  1.0551
   12MOL0     C 1525   5.250   5.516   3.290 -0.1421 -0.4374 -0.0411
   12MOL0     C 1526   5.374   5.585   3.336 -0.6037 -0.0640 -0.2630
   12MOL0     C 1527   5.498   5.530   3.249  0.0688 -0.3086  0.1646
   12MOL0     C 1528   5.629   5.603   3.285 -0.7169 -0.4763 -0.2185
   12MOL0    Cl 1529   5.773   5.575   3.178 -0.1778  0.2334 -0.3497
   12MOL0     C 1530   4.811   5.705   3.694  0.0057 -1.4623  0.8994
   12MOL0     C 1531   4.815   5.774   3.813  0.5817 -0.5304 -0.8012
   12MOL0     O 1532   4.697   5.799   4.095  1.0011 -1.0311  0.1734
   12MOL0     C 1533   4.775   6.151   4.171 -0.1883 -0.5860  0.3202
   12MOL0     C 1534   4.759   6.234   4.289 -0.1863 -0.3006  0.3715
   12MOL0     N 1535   4.614   6.307   5.058 -0.1656  0.5584 -0.5171
   12MOL0     N 1536   4.548   6.343   5.171 -0.0510 -0.9991  0.6238
   12MOL0     C 1537   4.677   6.658   6.454 -0.5396 -0.7365  0.6618
   12MOL0     C 1538   4.626   6.739   6.564 -0.1253  2.0739  0.2986
   12MOL0     C 1539   4.583   7.054   6.855 -0.3396  0.0571  0.3380
   12MOL0     C 1540   4.576   6.931   6.929 -0.0657 -0.4556  1.2471
   12MOL0     C 1541   4.571   6.930   7.066 -0.5813  0.3193 -0.0402
   12MOL0     C 1542   4.576   7.050   7.138  0.8005 -0.3673 -0.5509
   12MOL0     O 1543   4.566   7.040   7.282  0.7603  0.1752 -0.1572
   12MOL0     C 1544   4.613   7.152   7.357 -0.1472 -0.2913  0.5669
   12MOL0     C 1545   4.649   7.103   7.501 -0.8650  0.1881 -0.6068
   12MOL0     C 1546   4.692   7.225   7.597 -0.9474  0.0227  0.3789
   12MOL0     C 1547   4.740   7.174   7.730  0.0056  0.6226  0.8695
   12MOL0     C 1548   4.628   7.106   7.795 -0.5778  0.0102  0.8687
   12MOL0     C 1549   4.529   7.062   7.859 -0.5466 -1.0351 -0.5374
   12MOL0     C 1550   4.578   7.177   7.072  0.0652  0.9352  0.7330
   12MOL0     C 1551   4.582   7.180   6.932  0.9386  0.3540  0.4817
   12MOL0     C 1552   4.587   7.317   6.861  0.1278  0.2783  0.4037
   12MOL0     H 1553   4.524   7.009   6.395 -3.1909 -1.7021  0.5866
   12MOL0     H 1554   4.637   6.894   6.201  2.5443 -2.0603 -0.3302
   12MOL0     H 1555   4.637   6.444   6.236  0.7823  1.5416  1.1789
   12MOL0     H 1556   4.519   6.576   6.227 -1.8054 -1.8114 -1.1393
   12MOL0     H 1557   4.502   6.439   6.022  1.3752 -1.4734 -1.9841
   12MOL0     H 1558   4.673   6.446   5.978  0.1661 -3.0768  2.0456
   12MOL0     H 1559   4.667   6.680   5.933  0.5926 -0.3154  3.0023
   12MOL0     H 1560   4.511   6.690   6.017  0.8107 -1.2678  0.8954
   12MOL0     H 1561   4.390   6.589   5.853 -1.1407  2.2415 -2.6413
   12MOL0     H 1562   4.464   6.716   5.771 -0.4184  0.5479  2.4266
   12MOL0     H 1563   4.641   6.490   5.745  0.6434 -0.8957 -0.7577
   12MOL0     H 1564   4.476   6.430   5.723  1.3850 -0.4991  0.8191
   12MOL0     H 1565   4.421   6.592   5.559 -0.4412 -0.7994  2.0726
   12MOL0     H 1566   4.592   6.664   5.575  3.0593 -1.0102 -1.1119
   12MOL0     H 1567   4.510   6.385   5.457  1.2618 -1.2470  2.0213
   12MOL0     H 1568   4.678   6.450   5.491  0.3199  0.7777  1.6024
   12MOL0     H 1569   4.470   6.595   5.332  1.6067  1.5848  1.2598
   12MOL0     H 1570   4.640   6.620   5.338 -2.3299  1.5559  2.9353
   12MOL0     H 1571   4.743   6.611   5.106 -4.2450  1.7272 -3.0024
   12MOL0     H 1572   4.869   6.501   4.911  4.0334 -1.2758  0.2212
   12MOL0     H 1573   4.891   6.334   4.952 -1.1600  1.5188  4.1659
   12MOL0     H 1574   4.741   6.255   4.796 -0.3221  0.2046  0.9475
   12MOL0     H 1575   4.682   6.414   4.744  2.0563  4.4345 -0.0740
   12MOL0     H 1576   4.961   6.304   4.689 -1.1422 -0.9433 -1.2032
   12MOL0     H 1577   4.918   6.482   4.688 -3.0980  1.3972  0.2271
   12MOL0     H 1578   4.920   6.363   4.466  0.9145 -0.6118  0.5494
   12MOL0     H 1579   4.785   6.465   4.530 -1.3858 -1.5646 -0.5618
   12MOL0     H 1580   4.655   6.017   4.524  0.9714 -0.3313  0.7904
   12MOL0     H 1581   4.662   5.862   4.325 -2.3091  1.2851 -2.4087
   12MOL0     H 1582   4.611   6.027   3.749 -3.1953 -1.8478  1.1274
   12MOL0     H 1583   4.608   5.922   3.522  1.4206  0.7048 -1.0033
   12MOL0     H 1584   4.853   5.712   3.310  0.9239  1.3637  1.0146
   12MOL0     H 1585   4.923   5.717   3.462 -1.2219 -0.2596  1.3811
   12MOL0     H 1586   4.872   5.472   3.493 -1.6224  2.9966  1.4241
   12MOL0     H 1587   4.786   5.465   3.336 -2.0476 -0.8898  3.0482
   12MOL0     H 1588   5.004   5.391   3.275  1.6687  0.1228  0.2012
   12MOL0     H 1589   4.979   5.550   3.217  3.2082  0.9286 -0.2249
   12MOL0     H 1590   5.143   5.532   3.474  1.9181 -0.0079  0.7994
   12MOL0     H 1591   5.114   5.673   3.380  0.2228 -0.0959 -0.0179
   12MOL0     H 1592   5.243   5.549   3.186  0.1467  1.2816  0.4619
   12MOL0     H 1593   5.268   5.408   3.294  1.2900 -0.1853  0.8857
   12MOL0     H 1594   5.365   5.694   3.334 -1.0853 -0.1070 -0.4514
   12MOL0     H 1595   5.394   5.556   3.439  4.2799  1.2777 -0.5802
   12MOL0     H 1596   5.474   5.539   3.143  2.4848  0.8401 -0.3453
   12MOL0     H 1597   5.532   5.429   3.274 -0.0959 -0.6500 -0.9533
   12MOL0     H 1598   5.610   5.710   3.274 -4.3791 -1.1930 -2.8682
   12MOL0     H 1599   5.665   5.590   3.387  1.3359 -2.4610 -1.0923
   12MOL0     H 1600   4.875   5.621   3.670  0.0393 -1.1628 -0.0757
   12MOL0     H 1601   4.891   5.745   3.885  0.1038 -0.0482 -0.0920
   12MOL0     H 1602   4.808   6.195   4.077 -0.6075 -3.4195 -1.2570
   12MOL0     H 1603   4.801   6.333   4.275  3.0892 -2.0046 -4.1295
   12MOL0     H 1604   4.729   6.564   6.465 -2.9778 -2.0161  2.1850
   12MOL0     H 1605   4.639   6.692   6.661  3.6842 -1.7318 -1.7266
   12MOL0     H 1606   4.568   6.850   6.857  0.2720  2.6376 -2.6010
   12MOL0     H 1607   4.560   6.835   7.117  1.9920  0.2766  0.5655
   12MOL0     H 1608   4.542   7.236   7.353 -1.0710 -1.0598  0.5921
   12MOL0     H 1609   4.708   7.190   7.319  0.5491 -3.6899 -1.4714
   12MOL0     H 1610   4.736   7.038   7.495 -1.6722 -0.8950 -0.8619
   12MOL0     H 1611   4.562   7.046   7.534 -1.8342  0.4648 -2.4851
   12MOL0     H 1612   4.605   7.291   7.607 -3.7328 -3.2326 -0.5929
   12MOL0     H 1613   4.779   7.272   7.549  0.3168 -1.3081  1.2723
   12MOL0     H 1614   4.810   7.094   7.706 -1.4315  0.0456 -1.9003
   12MOL0     H 1615   4.785   7.253   7.791  1.8351 -1.1995  1.9963
   12MOL0     H 1616   4.452   7.023   7.922  0.4289  0.6375  1.8470
   12MOL0     H 1617   4.565   7.269   7.129  0.7088 -1.0474  4.4338
   12MOL0     H 1618   4.685   7.345   6.821 -0.1607 -1.6313 -1.8955
   12MOL0     H 1619   4.527   7.313   6.770  0.6031 -1.0772  0.1262
   12MOL0     H 1620   4.543   7.401   6.915  1.3434  0.2583  1.4856
   13MOL0     O 1621   7.869   2.726   0.083  0.1876 -0.3564  0.5943
   13MOL0     C 1622   7.938   2.719  -0.019  1.1611 -0.2620  0.3226
   13MOL0     O 1623   8.008   2.817  -0.078 -0.6772 -0.2643  0.3950
   13MOL0     C 1624   8.048   2.932  -0.013  0.2585  1.5767  0.0298
   13MOL0     C 1625   8.140   3.002  -0.101 -0.4383  1.0991  0.2936
   13MOL0     C 1626   8.178   3.125  -0.060 -1.1998 -0.1725 -0.2601
   13MOL0     C 1627   8.137   3.180   0.065  0.0926 -0.3290 -0.2589
   13MOL0     O 1628   8.185   3.294   0.122 -0.7950  0.0811  0.2255
   13MOL0     C 1629   8.269   3.383   0.052 -0.4192 -0.5494 -0.1283
   13MOL0     C 1630   8.299   3.502   0.146  0.7299 -0.3761 -0.0863
   13MOL0     C 1631   8.308   3.636   0.076  0.1157  1.1174  0.6160
   13MOL0     C 1632   8.308   3.741   0.187  0.7420 -0.2480  0.5748
   13MOL0     C 1633   8.238   3.866   0.140 -0.7932 -1.2359 -0.4997
   13MOL0     C 1634   8.304   3.930   0.014  0.2831  0.5734  1.0705
   13MOL0     C 1635   8.226   4.057  -0.037  0.6045 -0.0177  0.3708
   13MOL0     C 1636   8.267   4.181   0.044  0.1148  0.1292  0.0734
   13MOL0     N 1637   8.160   4.265   0.105 -0.7064 -1.2689  0.7933
   13MOL0     C 1638   8.088   4.369   0.047 -0.3795 -0.6243 -0.5846
   13MOL0     C 1639   8.012   4.410   0.150 -0.0945 -0.7295 -0.8181
   13MOL0     C 1640   7.914   4.530   0.141 -0.4152  0.1642 -1.0728
   13MOL0     C 1641   7.997   4.648   0.116 -0.1025 -0.8058 -0.2191
   13MOL0     C 1642   7.922   4.754   0.029 -0.4748  0.9043 -0.7320
   13MOL0     C 1643   7.812   4.814   0.101  1.2593  0.2700 -0.0343
   13MOL0     O 1644   7.859   4.873   0.231  1.0755  0.8440  0.3288
   13MOL0     C 1645   7.949   4.975   0.224 -0.4196 -0.4596 -0.2465
   13MOL0     C 1646   8.047   4.966   0.326  0.0894 -0.1071 -0.7691
   13MOL0     C 1647   8.152   5.066   0.337 -0.6293 -0.1759 -0.2529
   13MOL0     C 1648   8.164   5.165   0.245 -0.3242  1.4598 -0.3588
   13MOL0     C 1649   8.273   5.256   0.251 -0.2263 -0.0526 -0.6140
   13MOL0     O 1650   8.253   5.362   0.170  0.5220  0.3160  0.1153
   13MOL0     C 1651   8.350   5.465   0.172 -0.5065  0.5972 -0.7291
   13MOL0     C 1652   8.398   5.519   0.048  1.2721  0.9848  0.0764
   13MOL0     C 1653   8.504   5.619   0.045  0.5259  0.1692  0.4455
   13MOL0     C 1654   8.554   5.667   0.168 -0.0968  0.4152  0.5285
   13MOL0     O 1655   8.661   5.752   0.171 -0.3143  0.6169  0.0450
   13MOL0     C 1656   8.610   5.882   0.127 -0.1724  0.3842 -0.2817
   13MOL0     C 1657   8.720   5.979   0.089  0.7831  0.8464 -0.2940
   13MOL0     C 1658   8.801   6.013   0.210 -0.0722 -0.2642 -0.9003
   13MOL0     C 1659   8.891   6.136   0.193  1.1062  0.4397  0.2831
   13MOL0     C 1660   9.000   6.147   0.307 -0.0088  0.3546 -0.0464
   13MOL0     C 1661   9.043   6.291   0.328 -0.4449  0.6068 -0.0097
   13MOL0     C 1662   9.144   6.301   0.442 -0.6249 -0.2697  0.3603
   13MOL0     C 1663   9.157   6.438   0.489 -0.4519  0.8729 -0.4486
   13MOL0    Cl 1664   9.282   6.533   0.406  0.1658  0.0474  0.7304
   13MOL0     C 1665   8.501   5.626   0.290  1.3298  0.7360  0.2371
   13MOL0     C 1666   8.391   5.532   0.288 -0.8667 -0.4921 -1.2160
   13MOL0     O 1667   8.368   5.242   0.326 -0.1636  0.2896 -0.1976
   13MOL0     C 1668   8.071   5.166   0.137 -0.6398  0.4883 -0.3220
   13MOL0     C 1669   7.961   5.080   0.129  0.4123 -0.6286  0.9987
   13MOL0     N 1670   8.037   4.344   0.266 -0.6389  0.3388  0.4471
   13MOL0     N 1671   8.127   4.252   0.241  0.2234 -0.0928  0.2606
   13MOL0     C 1672   8.053   3.110   0.150 -0.1125 -0.3071  0.0998
   13MOL0     C 1673   8.009   2.987   0.113 -0.3276 -0.0286  0.6517
   13MOL0     C 1674   7.949   2.582  -0.084  0.2731 -0.0564  0.9105
   13MOL0     C 1675   7.877   2.476  -0.031 -0.8883  0.5112  0.0085
   13MOL0     C 1676   7.903   2.336  -0.076  0.1395  0.4092 -0.6724
   13MOL0     C 1677   7.985   2.308  -0.182 -0.6531  1.0137 -0.2873
   13MOL0     O 1678   8.001   2.174  -0.229 -1.0106 -0.2079 -0.4094
   13MOL0     C 1679   7.873   2.118  -0.252  0.0870 -0.1802  0.9021
   13MOL0     C 1680   7.848   2.088  -0.395 -0.1236 -0.1713 -0.0421
   13MOL0     C 1681   7.950   1.972  -0.430  0.7539  0.6408 -0.6122
   13MOL0     C 1682   7.943   1.936  -0.578  0.1333 -0.1904  0.1259
   13MOL0     C 1683   7.911   1.806  -0.611  0.8201 -0.2102 -0.1490
   13MOL0     C 1684   7.854   1.698  -0.635 -0.9314 -0.6160  0.8954
   13MOL0     C 1685   8.044   2.411  -0.247  0.0784  0.0507  0.8512
   13MOL0     C 1686   8.036   2.546  -0.200  0.8462 -0.4325 -0.7862
   13MOL0     C 1687   8.110   2.652  -0.283  0.5604  0.7663  0.5119
   13MOL0     H 1688   8.170   2.959  -0.196 -2.0126  2.3991 -0.8527
   13MOL0     H 1689   8.241   3.167  -0.138  2.4926 -2.3813  1.2703
   13MOL0     H 1690   8.371   3.352   0.029  0.0600  0.4701  0.5162
   13MOL0     H 1691   8.215   3.423  -0.034  1.2343  0.9526 -0.5361
   13MOL0     H 1692   8.398   3.489   0.189 -0.3920 -2.4389  2.1457
   13MOL0     H 1693   8.228   3.500   0.230  0.0778  1.2284 -0.5574
   13MOL0     H 1694   8.216   3.637   0.018  0.5478 -2.9734 -0.4752
   13MOL0     H 1695   8.400   3.649   0.019  1.8827 -0.8900  2.7786
   13MOL0     H 1696   8.260   3.712   0.281  1.3623  3.4596  2.2532
   13MOL0     H 1697   8.410   3.760   0.221  0.5892 -0.8471  1.4123
   13MOL0     H 1698   8.139   3.838   0.103 -0.0373 -2.0872 -1.9729
   13MOL0     H 1699   8.239   3.930   0.228  4.3380 -0.9082 -0.4993
   13MOL0     H 1700   8.406   3.964   0.034  0.1537  0.9688  1.0735
   13MOL0     H 1701   8.309   3.858  -0.068  2.7717  0.1448  1.5379
   13MOL0     H 1702   8.118   4.041  -0.041  0.9011 -2.8723  1.7290
   13MOL0     H 1703   8.264   4.072  -0.138  2.4634 -5.1584  0.0027
   13MOL0     H 1704   8.324   4.145   0.130 -1.6034 -3.0923 -0.0172
   13MOL0     H 1705   8.330   4.241  -0.023 -1.1154 -1.6754 -2.8848
   13MOL0     H 1706   8.086   4.412  -0.052  0.0056 -0.5169 -0.5486
   13MOL0     H 1707   7.861   4.507   0.048 -1.8256 -0.4446 -0.1544
   13MOL0     H 1708   7.835   4.532   0.217 -3.6015 -3.7847 -3.8869
   13MOL0     H 1709   8.006   4.684   0.219 -1.6189 -0.4649 -0.1885
   13MOL0     H 1710   8.097   4.633   0.075  1.0103 -2.6210  2.8562
   13MOL0     H 1711   7.885   4.733  -0.072 -2.6843 -1.8941  0.5218
   13MOL0     H 1712   7.988   4.839   0.008  1.5106  0.7058  3.5998
   13MOL0     H 1713   7.728   4.746   0.118 -3.5227  5.3611 -0.3699
   13MOL0     H 1714   7.762   4.893   0.043  0.9448 -0.6291 -1.0052
   13MOL0     H 1715   8.050   4.884   0.396  0.3208  1.7290  1.4810
   13MOL0     H 1716   8.214   5.061   0.426 -2.7103 -0.9827  1.2255
   13MOL0     H 1717   8.351   5.485  -0.044  0.1093  0.7713  0.7301
   13MOL0     H 1718   8.554   5.637  -0.049  0.7555  2.3504  0.9486
   13MOL0     H 1719   8.572   5.860   0.027  0.7753  0.2744 -0.6199
   13MOL0     H 1720   8.523   5.917   0.184  2.4757  1.2120  3.6371
   13MOL0     H 1721   8.798   5.929   0.031  0.8501  1.4360 -0.7229
   13MOL0     H 1722   8.685   6.070   0.039  2.2082  1.6256  0.0636
   13MOL0     H 1723   8.735   6.042   0.292  0.3588 -0.4500 -0.4848
   13MOL0     H 1724   8.846   5.919   0.244  0.2053  0.5265  1.0565
   13MOL0     H 1725   8.830   6.227   0.202  1.1233  0.3725  1.2655
   13MOL0     H 1726   8.936   6.146   0.094 -1.8566  1.3157 -1.0966
   13MOL0     H 1727   9.075   6.070   0.286  0.0677  0.2364  0.6461
   13MOL0     H 1728   8.943   6.111   0.393  0.2065 -2.1177 -0.8546
   13MOL0     H 1729   9.094   6.327   0.238  0.5807 -4.5803 -1.8992
   13MOL0     H 1730   8.950   6.346   0.347 -0.6320 -0.3905  2.2290
   13MOL0     H 1731   9.242   6.264   0.412 -0.5817 -1.7296  2.1263
   13MOL0     H 1732   9.128   6.233   0.526  5.4288  0.6829  2.8060
   13MOL0     H 1733   9.061   6.489   0.475  0.1343  2.2835  0.4277
   13MOL0     H 1734   9.180   6.449   0.595  1.7100  3.1469 -1.0610
   13MOL0     H 1735   8.521   5.671   0.387  1.6660  0.4585  0.2957
   13MOL0     H 1736   8.358   5.496   0.385  3.5649 -0.7942  0.4045
   13MOL0     H 1737   8.087   5.231   0.051  1.0124 -1.8290 -1.9134
   13MOL0     H 1738   7.890   5.087   0.047  1.3604  1.4277  0.2974
   13MOL0     H 1739   8.042   3.143   0.253  0.4530  0.8718 -0.1997
   13MOL0     H 1740   7.950   2.924   0.179 -1.2782 -0.0777 -0.2111
   13MOL0     H 1741   7.803   2.485   0.048 -1.1309 -2.3456  0.2069
   13MOL0     H 1742   7.858   2.255  -0.018 -0.4356  1.3649  0.2445
   13MOL0     H 1743   7.798   2.193  -0.228  2.5174  1.7149  3.2763
   13MOL0     H 1744   7.857   2.025  -0.196 -2.6103  1.3316  2.8722
   13MOL0     H 1745   7.887   2.174  -0.449  2.6947 -0.3783  1.4604
   13MOL0     H 1746   7.746   2.062  -0.424  0.2334  0.6645 -2.1572
   13MOL0     H 1747   7.929   1.879  -0.376 -3.3272  1.2154 -0.8620
   13MOL0     H 1748   8.051   2.000  -0.399  0.8069 -0.8933  0.7593
   13MOL0     H 1749   7.876   2.009  -0.623  0.9857 -0.1066 -1.0540
   13MOL0     H 1750   8.039   1.952  -0.627 -1.1129  3.9241 -1.3533
   13MOL0     H 1751   7.806   1.607  -0.662 -4.8517  1.2327  0.9165
   13MOL0     H 1752   8.107   2.403  -0.335  1.4472  2.5376  1.4936
   13MOL0     H 1753   8.202   2.673  -0.229  1.9605 -4.3701  0.5857
   13MOL0     H 1754   8.134   2.606  -0.379  0.5947  1.2502  0.2834
   13MOL0     H 1755   8.044   2.737  -0.307 -1.7944 -0.9203  0.6243
   14MOL0     O 1756   7.799   0.542   3.389 -0.7585 -1.0603 -0.4911
   14MOL0     C 1757   7.737   0.465   3.460 -0.3414  0.3963 -0.2032
   14MOL0     O 1758   7.634   0.382   3.409 -0.4485  0.3879 -0.1116
   14MOL0     C 1759   7.630   0.346   3.282  0.2935  0.4455 -0.3565
   14MOL0     C 1760   7.696   0.234   3.238 -0.7322 -0.8908 -0.1279
   14MOL0     C 1761   7.690   0.206   3.099  0.7793  0.1056  0.4342
   14MOL0     C 1762   7.592   0.266   3.013  0.5151  0.0079 -0.9640
   14MOL0     O 1763   7.558   0.233   2.885 -0.1896  0.7984  0.2352
   14MOL0     C 1764   7.666   0.205   2.785 -0.3189 -0.3428 -0.0565
   14MOL0     C 1765   7.753   0.338   2.774  0.5373 -0.4103 -0.0161
   14MOL0     C 1766   7.853   0.312   2.655 -0.2668  0.0214 -0.5378
   14MOL0     C 1767   7.951   0.431   2.621 -0.7062  0.5105 -0.9721
   14MOL0     C 1768   8.073   0.383   2.529  0.1195 -0.5499 -0.3404
   14MOL0     C 1769   8.032   0.367   2.381  0.2850  0.6688 -0.0312
   14MOL0     C 1770   8.146   0.332   2.283 -0.4789 -0.2334 -0.7474
   14MOL0     C 1771   8.224   0.219   2.329 -0.1661  0.1406  0.5345
   14MOL0     N 1772   8.350   0.257   2.398 -0.8304 -0.1862 -0.2428
   14MOL0     C 1773   8.459   0.170   2.405 -0.9335 -0.6924  0.3053
   14MOL0     C 1774   8.548   0.241   2.481  0.1282 -0.2238  0.1642
   14MOL0     C 1775   8.682   0.198   2.542  0.1962 -0.2428 -0.0514
   14MOL0     C 1776   8.796   0.246   2.448  0.6225  1.0490  0.6310
   14MOL0     C 1777   8.936   0.219   2.502 -0.9106 -1.0776 -0.3047
   14MOL0     C 1778   8.951   0.078   2.552  1.3152 -0.5459  0.1561
   14MOL0     O 1779   9.085   0.035   2.547  0.0523  0.0913  0.1403
   14MOL0     C 1780   9.129  -0.023   2.428  0.7299 -0.0431  0.1251
   14MOL0     C 1781   9.258  -0.072   2.433 -0.1178 -0.3131  0.8921
   14MOL0     C 1782   9.317  -0.124   2.322 -0.2299 -0.2556 -0.2372
   14MOL0     C 1783   9.259  -0.118   2.195 -0.3683 -0.1849  0.6172
   14MOL0     C 1784   9.329  -0.159   2.068 -0.3100 -0.3811  0.1247
   14MOL0     O 1785   9.458  -0.197   2.072  0.0758  0.5729  0.2257
   14MOL0     C 1786   9.525  -0.237   1.959 -0.8899 -0.0668  0.7074
   14MOL0     C 1787   9.568  -0.369   1.944 -0.0034  0.6709 -0.3708
   14MOL0     C 1788   9.658  -0.393   1.840 -1.5819 -0.5966  0.4540
   14MOL0     C 1789   9.689  -0.295   1.747 -0.6440  0.3287  0.1788
   14MOL0     O 1790   9.778  -0.306   1.644  0.2541  0.3193 -0.1453
   14MOL0     C 1791   9.717  -0.323   1.518 -0.1041 -0.1192  0.4397
   14MOL0     C 1792   9.649  -0.461   1.501 -0.0663  0.0594 -0.4143
   14MOL0     C 1793   9.669  -0.525   1.363  0.2803 -0.0482  0.0474
   14MOL0     C 1794   9.579  -0.451   1.256  0.5521  0.2058  0.1694
   14MOL0     C 1795   9.604  -0.512   1.114 -1.1725 -0.9516 -0.2048
   14MOL0     C 1796   9.546  -0.653   1.078  0.3404 -0.5504  0.3490
   14MOL0     C 1797   9.531  -0.678   0.922 -0.7301 -0.8861 -0.3971
   14MOL0     C 1798   9.487  -0.814   0.873  0.2196 -0.0960 -1.2404
   14MOL0    Cl 1799   9.620  -0.931   0.889 -0.2072  0.5720 -0.0975
   14MOL0     C 1800   9.631  -0.176   1.753 -0.9958  0.4729 -0.8288
   14MOL0     C 1801   9.554  -0.137   1.860 -1.2757  0.2885  0.0873
   14MOL0     O 1802   9.266  -0.158   1.962 -0.4361 -0.8725 -0.7480
   14MOL0     C 1803   9.124  -0.085   2.189 -1.0089 -0.0129 -0.3651
   14MOL0     C 1804   9.057  -0.046   2.307 -0.0977  1.2755 -0.4893
   14MOL0     N 1805   8.493   0.357   2.527  0.9719 -0.6072 -0.9474
   14MOL0     N 1806   8.372   0.362   2.480 -0.1452  0.0697 -0.4316
   14MOL0     C 1807   7.529   0.377   3.070  0.2353  0.5030  0.0728
   14MOL0     C 1808   7.549   0.424   3.199  0.8896  0.0054  0.3865
   14MOL0     C 1809   7.765   0.473   3.612 -0.0446  1.0977 -0.2280
   14MOL0     C 1810   7.670   0.403   3.698  0.0620 -0.2508  0.3003
   14MOL0     C 1811   7.684   0.383   3.838 -0.5502 -0.6782  0.7554
   14MOL0     C 1812   7.784   0.456   3.906 -0.5682  0.1167  0.2430
   14MOL0     O 1813   7.767   0.473   4.042 -0.7203 -0.0610 -0.1689
   14MOL0     C 1814   7.867   0.547   4.117  0.6652  0.3033 -1.3046
   14MOL0     C 1815   7.828   0.512   4.262 -0.4732 -0.4986  0.9892
   14MOL0     C 1816   7.876   0.369   4.305 -0.0664  0.5023 -0.2094
   14MOL0     C 1817   8.025   0.357   4.332  0.8051 -0.0793  0.0979
   14MOL0     C 1818   8.060   0.412   4.462 -0.3346 -0.5616 -0.9932
   14MOL0     C 1819   8.110   0.446   4.565  0.7584 -0.8311 -0.3066
   14MOL0     C 1820   7.880   0.516   3.821  0.6812 -0.4143 -0.4072
   14MOL0     C 1821   7.881   0.513   3.679 -0.6260 -0.1481 -0.2629
   14MOL0     C 1822   8.011   0.546   3.605  0.0855  0.0290 -0.4758
   14MOL0     H 1823   7.751   0.174   3.310  1.4696 -1.5721 -2.2519
   14MOL0     H 1824   7.732   0.120   3.048  0.3098  0.4401 -0.5400
   14MOL0     H 1825   7.722   0.127   2.838  0.4789  0.7990  0.8185
   14MOL0     H 1826   7.626   0.172   2.688  0.8308 -2.0857  0.0259
   14MOL0     H 1827   7.814   0.340   2.865  0.5355 -0.9224  0.0033
   14MOL0     H 1828   7.694   0.430   2.765  0.4106 -0.5911 -1.2217
   14MOL0     H 1829   7.812   0.281   2.558  1.2569 -1.3634 -0.7941
   14MOL0     H 1830   7.911   0.222   2.680 -0.3022 -0.1695 -1.1030
   14MOL0     H 1831   7.886   0.505   2.574 -1.4949  1.2931  1.2371
   14MOL0     H 1832   8.000   0.468   2.711 -1.3123  0.9096 -0.8036
   14MOL0     H 1833   8.153   0.458   2.533  1.3905 -1.6443 -3.2178
   14MOL0     H 1834   8.127   0.298   2.571  1.9571 -0.4040 -2.2622
   14MOL0     H 1835   7.952   0.292   2.374 -0.1310  1.2142 -1.6338
   14MOL0     H 1836   7.997   0.457   2.330  3.3753  2.0478  0.0524
   14MOL0     H 1837   8.207   0.423   2.278  0.1006 -0.2813  2.7918
   14MOL0     H 1838   8.114   0.315   2.179 -1.1610 -2.1454 -0.2686
   14MOL0     H 1839   8.168   0.145   2.387  1.4370 -1.7050 -0.1665
   14MOL0     H 1840   8.257   0.171   2.236 -1.1842 -0.7563  0.6194
   14MOL0     H 1841   8.486   0.081   2.349  1.3967 -1.7784  2.9465
   14MOL0     H 1842   8.682   0.239   2.644  1.4601 -3.2273  1.2684
   14MOL0     H 1843   8.679   0.092   2.565 -0.9903 -0.0308  0.9188
   14MOL0     H 1844   8.791   0.183   2.358  2.6634  1.8915 -0.1268
   14MOL0     H 1845   8.782   0.351   2.419  0.0026  0.3046 -2.0432
   14MOL0     H 1846   8.961   0.279   2.590 -4.2430 -2.2511  1.5938
   14MOL0     H 1847   9.011   0.223   2.422  0.2728  0.0805  0.8025
   14MOL0     H 1848   8.890   0.010   2.492  0.3562  1.3791 -1.1425
   14MOL0     H 1849   8.917   0.075   2.656  1.3669  0.7769  0.2204
   14MOL0     H 1850   9.314  -0.064   2.526  2.1981  0.0616 -0.4454
   14MOL0     H 1851   9.418  -0.161   2.333 -0.1326 -0.9052 -2.7485
   14MOL0     H 1852   9.519  -0.445   2.005 -0.3934  0.9958 -0.2730
   14MOL0     H 1853   9.711  -0.487   1.828 -2.2908 -0.9685  0.2161
   14MOL0     H 1854   9.638  -0.248   1.507  1.0449  1.3878  1.9064
   14MOL0     H 1855   9.786  -0.309   1.434 -1.0588  0.1365 -0.3333
   14MOL0     H 1856   9.709  -0.521   1.570  0.0944  1.8835  1.1342
   14MOL0     H 1857   9.545  -0.452   1.534 -1.0938  1.5805 -3.6049
   14MOL0     H 1858   9.774  -0.517   1.334  0.3476  0.4745  0.4348
   14MOL0     H 1859   9.645  -0.632   1.360  0.8577 -0.1692 -0.5742
   14MOL0     H 1860   9.594  -0.343   1.254 -1.5551  0.5441 -0.1345
   14MOL0     H 1861   9.474  -0.457   1.287 -0.2637  1.4186 -2.0618
   14MOL0     H 1862   9.712  -0.517   1.094 -0.1273  0.4170  4.0455
   14MOL0     H 1863   9.554  -0.440   1.049 -1.1598 -0.0710  0.7388
   14MOL0     H 1864   9.607  -0.739   1.107 -0.7717 -0.5329  2.9941
   14MOL0     H 1865   9.448  -0.668   1.125 -1.0264 -0.0232 -2.1424
   14MOL0     H 1866   9.629  -0.669   0.874  0.4729  0.4128  2.1583
   14MOL0     H 1867   9.468  -0.595   0.888 -1.2771 -0.7902  0.8141
   14MOL0     H 1868   9.398  -0.837   0.932  0.1709 -0.6377 -1.5119
   14MOL0     H 1869   9.460  -0.824   0.767  0.9707 -1.9192 -1.3124
   14MOL0     H 1870   9.639  -0.104   1.672  0.9488  1.1869 -0.0569
   14MOL0     H 1871   9.524  -0.034   1.870  1.0450  1.0282 -0.1115
   14MOL0     H 1872   9.087  -0.088   2.088  2.6045 -2.4671 -1.8455
   14MOL0     H 1873   8.951  -0.022   2.307 -0.2685  0.7760  2.3153
   14MOL0     H 1874   7.453   0.421   3.008  0.5741 -1.2088 -1.6702
   14MOL0     H 1875   7.486   0.503   3.238  0.1988  0.0338 -0.7541
   14MOL0     H 1876   7.584   0.372   3.639 -2.1899  2.1508  2.1031
   14MOL0     H 1877   7.601   0.337   3.892  1.0324 -4.9623 -0.0928
   14MOL0     H 1878   7.841   0.651   4.093 -2.6173 -0.5041 -1.6739
   14MOL0     H 1879   7.974   0.537   4.096  1.5638  4.4948  0.1771
   14MOL0     H 1880   7.721   0.520   4.284  0.0292 -1.2436  4.2217
   14MOL0     H 1881   7.872   0.590   4.325 -2.8769  1.3387  0.5704
   14MOL0     H 1882   7.845   0.294   4.231 -0.7376  1.0673 -0.5080
   14MOL0     H 1883   7.823   0.345   4.398 -0.1137 -0.6155 -0.5041
   14MOL0     H 1884   8.051   0.252   4.317 -1.9986 -0.5511 -2.6003
   14MOL0     H 1885   8.082   0.404   4.252  1.2479 -4.1257 -2.2514
   14MOL0     H 1886   8.159   0.464   4.659 -2.4333 -0.5604  1.4460
   14MOL0     H 1887   7.971   0.569   3.849  1.3301 -1.9590  0.5499
   14MOL0     H 1888   8.002   0.643   3.555  3.5465 -0.4580 -2.3047
   14MOL0     H 1889   8.106   0.539   3.660  1.0425 -0.7220 -2.1652
   14MOL0     H 1890   8.008   0.476   3.521  0.6863 -0.5842  0.0021
   15MOL0     O 1891   9.717   5.100  10.069  0.4383 -0.2605  0.3711
   15MOL0     C 1892   9.807   5.025  10.058  0.0895  0.0870 -0.5677
   15MOL0     O 1893   9.944   5.067  10.067 -0.3627 -0.5347  0.2977
   15MOL0     C 1894   9.963   5.197  10.117  0.1524  0.7045 -0.6033
   15MOL0     C 1895  10.070   5.216  10.207 -0.7203 -0.4134 -1.2359
   15MOL0     C 1896  10.086   5.335  10.274 -0.0365  0.0108  1.1751
   15MOL0     C 1897   9.998   5.443  10.262  0.1656 -0.1836  0.5440
   15MOL0     O 1898  10.015   5.565  10.321 -0.2297 -0.3255 -0.2241
   15MOL0     C 1899  10.108   5.562  10.429  0.3129 -0.0200 -0.7451
   15MOL0     C 1900  10.094   5.705  10.489  0.2205 -0.0557  1.0556
   15MOL0     C 1901   9.972   5.721  10.588  0.0893  0.1729  0.1036
   15MOL0     C 1902  10.003   5.840  10.678  0.0741  0.5009  0.3569
   15MOL0     C 1903   9.916   5.816  10.795  0.5759  0.3861  0.4027
   15MOL0     C 1904   9.952   5.698  10.891 -0.2530  0.7230  1.4071
   15MOL0     C 1905   9.853   5.691  11.001  1.0817 -0.3567  0.6156
   15MOL0     C 1906   9.709   5.652  10.954 -0.2051  0.2452  0.2513
   15MOL0     N 1907   9.650   5.597  11.075 -0.1068  0.3148  0.1213
   15MOL0     C 1908   9.594   5.466  11.079 -0.2659  0.4978 -0.5273
   15MOL0     C 1909   9.513   5.465  11.186 -0.3352  0.6026 -0.5303
   15MOL0     C 1910   9.419   5.348  11.205 -0.4461  1.3476 -0.7674
   15MOL0     C 1911   9.477   5.228  11.275 -0.2918 -0.0983 -0.6510
   15MOL0     C 1912   9.579   5.252  11.396 -0.4249  0.2316 -0.5147
   15MOL0     C 1913   9.511   5.305  11.523 -0.3828 -0.0351  0.5432
   15MOL0     O 1914   9.404   5.215  11.551 -0.1555  0.1799  0.3637
   15MOL0     C 1915   9.401   5.168  11.682  0.9272  1.1501  0.4298
   15MOL0     C 1916   9.441   5.046  11.729  0.3168  1.0515  0.4132
   15MOL0     C 1917   9.424   5.005  11.858  0.7342  0.7042  0.6684
   15MOL0     C 1918   9.372   5.092  11.954  0.2038 -0.1818 -0.7418
   15MOL0     C 1919   9.341   5.046  12.085  0.6419  0.3505 -0.4616
   15MOL0     O 1920   9.366   4.912  12.117 -0.5453 -0.2044  0.2350
   15MOL0     C 1921   9.328   4.862  12.237  0.2404 -0.3104 -0.2754
   15MOL0     C 1922   9.240   4.750  12.255  0.1219  1.0489  0.5631
   15MOL0     C 1923   9.209   4.695  12.376  1.3492 -0.3634  0.3140
   15MOL0     C 1924   9.260   4.760  12.490  0.3412 -0.1561  0.2718
   15MOL0     O 1925   9.251   4.697  12.612  0.7523  0.3536  0.7906
   15MOL0     C 1926   9.165   4.767  12.703  0.6201 -0.8081 -0.5446
   15MOL0     C 1927   9.044   4.685  12.749 -0.3924 -0.0075 -0.5424
   15MOL0     C 1928   9.082   4.546  12.814 -0.1662 -0.8783 -0.3853
   15MOL0     C 1929   9.149   4.559  12.950 -0.1415 -0.1815 -0.1406
   15MOL0     C 1930   9.179   4.416  12.999  0.0453  0.7482 -0.2299
   15MOL0     C 1931   9.294   4.428  13.097  0.6511 -0.2595  0.2637
   15MOL0     C 1932   9.333   4.296  13.154 -0.1291  0.1105 -0.2910
   15MOL0     C 1933   9.432   4.303  13.273 -0.0293  1.2609 -0.6932
   15MOL0    Cl 1934   9.343   4.328  13.426 -0.0548  0.1455 -0.3274
   15MOL0     C 1935   9.360   4.865  12.475 -0.9391  0.6125 -0.5789
   15MOL0     C 1936   9.391   4.910  12.350 -0.1270  0.6552 -0.3328
   15MOL0     O 1937   9.270   5.124  12.158 -0.2098  0.2342  0.2796
   15MOL0     C 1938   9.330   5.217  11.896 -0.2722  0.2856  0.1975
   15MOL0     C 1939   9.338   5.248  11.762  0.4526  0.2728 -0.5371
   15MOL0     N 1940   9.523   5.581  11.253 -0.4538 -1.4675 -1.3018
   15MOL0     N 1941   9.597   5.661  11.185  0.2204 -1.1047 -0.0837
   15MOL0     C 1942   9.903   5.433  10.159 -0.4358  0.8034  1.4549
   15MOL0     C 1943   9.886   5.314  10.092  0.0268 -0.3677  0.1930
   15MOL0     C 1944   9.772   4.903   9.983 -0.6398 -0.5957 -0.2310
   15MOL0     C 1945   9.851   4.864   9.874  0.3824  0.2000  1.0392
   15MOL0     C 1946   9.835   4.735   9.818 -0.5126 -1.3611 -0.2360
   15MOL0     C 1947   9.734   4.658   9.861  1.1438  0.8737 -0.9047
   15MOL0     O 1948   9.699   4.536   9.806  0.5865  0.1251  0.6032
   15MOL0     C 1949   9.773   4.420   9.820 -0.6074  0.1584  0.3758
   15MOL0     C 1950   9.713   4.322   9.928 -0.4766 -0.4124  0.1215
   15MOL0     C 1951   9.567   4.292   9.898  0.2465 -0.4387  0.2227
   15MOL0     C 1952   9.500   4.205  10.004 -0.0005 -0.0851 -1.0996
   15MOL0     C 1953   9.524   4.243  10.144  0.0440  0.1450 -0.5065
   15MOL0     C 1954   9.547   4.273  10.265  0.1606 -0.1387  0.0856
   15MOL0     C 1955   9.648   4.708   9.964  1.2097  0.0688  0.3819
   15MOL0     C 1956   9.663   4.822  10.026  0.6230  0.1438 -0.6547
   15MOL0     C 1957   9.578   4.847  10.154  0.0126  0.6557 -0.5233
   15MOL0     H 1958  10.147   5.144  10.230  0.0086  0.1072 -1.9722
   15MOL0     H 1959  10.170   5.351  10.341 -2.4905 -0.0981  4.5900
   15MOL0     H 1960  10.098   5.485  10.505  1.1723  2.1018  1.6797
   15MOL0     H 1961  10.211   5.553  10.392 -0.0231 -3.8692 -1.1228
   15MOL0     H 1962  10.090   5.789  10.419  1.3271 -2.2153 -1.7685
   15MOL0     H 1963  10.184   5.720  10.550 -0.2024  0.0543  1.6609
   15MOL0     H 1964   9.945   5.626  10.635 -1.3930  1.3141  1.6842
   15MOL0     H 1965   9.882   5.737  10.527 -1.8745  1.1894  3.0474
   15MOL0     H 1966  10.104   5.845  10.719 -0.5045 -0.4847  2.0000
   15MOL0     H 1967   9.985   5.929  10.617 -0.4784 -0.9814 -1.7703
   15MOL0     H 1968   9.946   5.903  10.853  2.3216  0.7467 -0.9449
   15MOL0     H 1969   9.809   5.802  10.776  0.7156  1.0650 -1.0558
   15MOL0     H 1970   9.938   5.602  10.840 -1.6005  3.1291 -3.3695
   15MOL0     H 1971  10.056   5.700  10.923  0.2772 -0.0461 -0.1383
   15MOL0     H 1972   9.848   5.792  11.043  0.2351  0.4937 -1.3814
   15MOL0     H 1973   9.885   5.618  11.076 -0.0466 -3.1924 -1.4695
   15MOL0     H 1974   9.664   5.742  10.914 -0.3224 -1.5513 -4.2561
   15MOL0     H 1975   9.716   5.566  10.886  2.9189  1.5367 -1.2799
   15MOL0     H 1976   9.600   5.390  11.002  2.0213  0.3962 -0.3383
   15MOL0     H 1977   9.342   5.384  11.273 -0.7335  0.4878 -0.6306
   15MOL0     H 1978   9.383   5.312  11.108  0.4674 -2.7972  0.2374
   15MOL0     H 1979   9.393   5.162  11.302 -0.7180  1.5444  2.4151
   15MOL0     H 1980   9.533   5.177  11.197 -0.0919  1.2397 -1.4119
   15MOL0     H 1981   9.657   5.319  11.360 -2.3339  2.1743 -1.2345
   15MOL0     H 1982   9.624   5.159  11.433  1.2967  2.4575  3.6538
   15MOL0     H 1983   9.456   5.393  11.490 -3.1688 -2.4500 -1.8433
   15MOL0     H 1984   9.574   5.336  11.607  1.6651 -1.5340 -0.3408
   15MOL0     H 1985   9.480   4.966  11.668 -4.1540 -0.9031 -0.2766
   15MOL0     H 1986   9.465   4.907  11.880 -2.0663 -0.0757  3.1126
   15MOL0     H 1987   9.212   4.707  12.159  0.3007  1.8690  0.1304
   15MOL0     H 1988   9.143   4.614  12.405  2.0069 -0.6831  0.9578
   15MOL0     H 1989   9.235   4.792  12.784  0.9301 -3.9414  0.3192
   15MOL0     H 1990   9.121   4.856  12.657 -1.6972 -0.4364  2.1228
   15MOL0     H 1991   8.981   4.740  12.820 -1.2323  2.2592 -2.8826
   15MOL0     H 1992   8.995   4.657  12.655  1.1017  0.8198 -1.6068
   15MOL0     H 1993   8.986   4.498  12.837 -0.5698  0.2522  0.4127
   15MOL0     H 1994   9.147   4.493  12.744  1.5013  1.5070 -0.7864
   15MOL0     H 1995   9.090   4.628  13.011  2.5753  3.5211 -1.2957
   15MOL0     H 1996   9.243   4.615  12.938 -0.0243 -0.1686  0.7794
   15MOL0     H 1997   9.219   4.352  12.921 -2.3908 -0.8860 -0.2486
   15MOL0     H 1998   9.081   4.386  13.039 -2.0708  4.8038 -1.7829
   15MOL0     H 1999   9.380   4.476  13.051  1.0176 -2.3366 -1.3683
   15MOL0     H 2000   9.260   4.491  13.180 -1.8127  0.5737 -1.2952
   15MOL0     H 2001   9.380   4.241  13.071 -1.2763  1.1104 -1.6386
   15MOL0     H 2002   9.245   4.239  13.185  1.0024 -1.8627 -0.5175
   15MOL0     H 2003   9.480   4.205  13.284 -1.3913  0.6330 -0.0603
   15MOL0     H 2004   9.509   4.379  13.259 -2.8627  4.0163 -2.3480
   15MOL0     H 2005   9.405   4.912  12.562  0.4091 -0.1558 -0.8295
   15MOL0     H 2006   9.471   4.982  12.334 -0.2455  1.0727  0.8161
   15MOL0     H 2007   9.288   5.283  11.971  1.1020  1.9901 -0.4387
   15MOL0     H 2008   9.292   5.345  11.742  0.4983  0.8862  1.9589
   15MOL0     H 2009   9.844   5.519  10.130 -0.2196  0.1402 -1.2352
   15MOL0     H 2010   9.814   5.325  10.012  1.5868 -1.9093 -1.5190
   15MOL0     H 2011   9.910   4.938   9.821  2.3188 -0.8477  1.6251
   15MOL0     H 2012   9.906   4.701   9.744  2.2973  0.8891  1.2322
   15MOL0     H 2013   9.878   4.451   9.834 -0.4353  1.1945 -2.6030
   15MOL0     H 2014   9.759   4.366   9.726 -0.2442  0.3972  0.1832
   15MOL0     H 2015   9.716   4.374  10.024 -1.3066 -0.0936 -0.0199
   15MOL0     H 2016   9.764   4.224   9.929 -2.3555 -1.4735 -1.7560
   15MOL0     H 2017   9.562   4.240   9.802 -1.3301  1.4485 -0.7967
   15MOL0     H 2018   9.513   4.387   9.884  1.1691 -0.0394 -0.7610
   15MOL0     H 2019   9.393   4.217   9.985 -0.0248  1.3728 -0.1381
   15MOL0     H 2020   9.518   4.097   9.998 -3.8335 -1.0393  1.1286
   15MOL0     H 2021   9.551   4.308  10.366  0.9927  0.7318 -0.2308
   15MOL0     H 2022   9.572   4.636   9.994  1.0869  0.4621  1.0213
   15MOL0     H 2023   9.513   4.931  10.128 -1.0924 -0.2959 -0.9215
   15MOL0     H 2024   9.503   4.767  10.163 -1.6390  2.2490  0.4721
   15MOL0     H 2025   9.639   4.854  10.245  1.0934 -1.0706 -1.0652
   16MOL0     O 2026   8.742   3.977   2.078  0.5424 -0.1572 -0.3174
   16MOL0     C 2027   8.809   3.897   2.136  0.0257  0.2135 -0.0758
   16MOL0     O 2028   8.820   3.893   2.270  0.9502 -1.0519  0.2122
   16MOL0     C 2029   8.720   3.943   2.355 -0.1641  0.3022 -0.5866
   16MOL0     C 2030   8.756   3.935   2.490 -0.3560  0.1766 -0.0063
   16MOL0     C 2031   8.679   3.972   2.599  0.0564 -0.3327  0.9182
   16MOL0     C 2032   8.561   4.032   2.579  0.1767  0.2045  0.4614
   16MOL0     O 2033   8.500   4.080   2.687  0.0975  0.1626  0.3106
   16MOL0     C 2034   8.356   4.096   2.689 -0.9968 -0.1224  0.2160
   16MOL0     C 2035   8.314   4.159   2.825  0.0671 -0.7396  0.5068
   16MOL0     C 2036   8.159   4.142   2.842 -0.2179 -0.5393 -0.2381
   16MOL0     C 2037   8.130   4.182   2.982  0.3269  0.6335  0.2925
   16MOL0     C 2038   7.980   4.164   3.020 -0.5613 -0.3495  0.0387
   16MOL0     C 2039   7.894   4.263   2.932  1.1046 -0.4178  0.4880
   16MOL0     C 2040   7.762   4.296   2.993 -0.5460 -0.7383 -0.3016
   16MOL0     C 2041   7.658   4.191   2.985 -0.7880 -0.2338  0.2257
   16MOL0     N 2042   7.528   4.242   3.030  0.1446 -0.4350  0.1562
   16MOL0     C 2043   7.452   4.327   2.948  0.6088 -0.4927 -0.4543
   16MOL0     C 2044   7.335   4.349   3.024 -0.8299 -0.7491  0.5023
   16MOL0     C 2045   7.216   4.423   2.988  0.1537 -0.5408 -0.5129
   16MOL0     C 2046   7.259   4.534   2.886 -0.0839  0.2809  0.4049
   16MOL0     C 2047   7.152   4.639   2.873 -0.3693  0.4688  0.5381
   16MOL0     C 2048   7.206   4.770   2.809 -0.4645 -0.1971 -0.1838
   16MOL0     O 2049   7.097   4.847   2.757 -0.3723 -0.0355  0.0535
   16MOL0     C 2050   7.060   4.977   2.792  0.6722 -0.0499  0.6284
   16MOL0     C 2051   6.955   5.046   2.720 -0.6589 -0.4504 -0.9509
   16MOL0     C 2052   6.918   5.175   2.748  0.0766 -1.0956  0.0753
   16MOL0     C 2053   6.979   5.242   2.854  0.5638 -0.4881 -0.6115
   16MOL0     C 2054   6.957   5.385   2.879 -0.2326 -0.3229  0.4241
   16MOL0     O 2055   7.057   5.448   2.942  0.1822  0.6623  0.4879
   16MOL0     C 2056   7.047   5.589   2.926  0.3193 -0.5735  0.2345
   16MOL0     C 2057   7.135   5.645   2.833 -0.0362  0.4146 -0.3037
   16MOL0     C 2058   7.144   5.777   2.806  0.2523 -0.2882 -0.0397
   16MOL0     C 2059   7.056   5.866   2.880 -0.5023  0.1657  0.0361
   16MOL0     O 2060   7.068   6.001   2.849 -0.5470 -0.4154  0.0019
   16MOL0     C 2061   6.996   6.097   2.925  0.5948  0.3917 -0.0388
   16MOL0     C 2062   7.110   6.176   2.987  0.2060  0.3908 -0.3406
   16MOL0     C 2063   7.070   6.325   3.019  0.8542  0.8434  0.0591
   16MOL0     C 2064   7.003   6.338   3.156 -0.0386  0.3556  0.4775
   16MOL0     C 2065   6.980   6.486   3.203 -0.1370 -0.6145  0.0650
   16MOL0     C 2066   6.943   6.490   3.355 -0.2328 -0.1714  0.4452
   16MOL0     C 2067   6.961   6.627   3.419 -0.1567  0.3674 -0.2647
   16MOL0     C 2068   6.857   6.723   3.356 -0.0479 -0.5670 -0.6469
   16MOL0    Cl 2069   6.845   6.856   3.476 -0.3672  0.2763 -0.8886
   16MOL0     C 2070   6.955   5.809   2.957  0.0497  0.1549 -0.5871
   16MOL0     C 2071   6.957   5.675   2.985 -0.0426 -0.7416 -0.1290
   16MOL0     O 2072   6.853   5.430   2.841  0.7607 -0.9033  0.7461
   16MOL0     C 2073   7.073   5.179   2.929 -0.0803  0.1825 -0.7709
   16MOL0     C 2074   7.119   5.044   2.907  0.0120 -0.6469 -0.5426
   16MOL0     N 2075   7.350   4.276   3.139  0.2003  0.4022 -0.2323
   16MOL0     N 2076   7.464   4.216   3.148 -0.3439 -1.2326  0.6990
   16MOL0     C 2077   8.515   4.037   2.447  0.2510 -0.7890  0.2365
   16MOL0     C 2078   8.586   3.993   2.341 -0.8177 -0.4060 -1.0832
   16MOL0     C 2079   8.902   3.813   2.051 -0.4302  0.4218  0.5574
   16MOL0     C 2080   9.014   3.759   2.111 -0.3949  0.2913  0.6026
   16MOL0     C 2081   9.106   3.675   2.039  0.0130  0.0437 -0.4517
   16MOL0     C 2082   9.080   3.641   1.905  0.7156 -0.2996 -0.2332
   16MOL0     O 2083   9.172   3.564   1.847 -0.5021  0.4979 -0.8258
   16MOL0     C 2084   9.133   3.523   1.716 -0.0193  0.2708 -0.0228
   16MOL0     C 2085   9.219   3.406   1.681  1.0181 -0.5618  0.3617
   16MOL0     C 2086   9.349   3.455   1.623 -0.7250  1.0363 -0.9509
   16MOL0     C 2087   9.434   3.351   1.572 -0.2595  0.1365 -0.0603
   16MOL0     C 2088   9.372   3.287   1.447 -0.7742 -0.2922 -0.3985
   16MOL0     C 2089   9.302   3.239   1.357 -0.1155 -0.3094  0.4869
   16MOL0     C 2090   8.963   3.691   1.844 -0.3904 -0.2941  0.3524
   16MOL0     C 2091   8.879   3.776   1.918 -0.0431 -0.2865  0.5788
   16MOL0     C 2092   8.751   3.797   1.838 -0.0981  0.7427  1.2848
   16MOL0     H 2093   8.849   3.892   2.525  0.5942  0.8234 -1.6459
   16MOL0     H 2094   8.716   3.984   2.701  0.5724  0.1337  0.6826
   16MOL0     H 2095   8.320   4.161   2.609 -1.1649 -0.2143  0.2155
   16MOL0     H 2096   8.315   3.995   2.677  0.3714 -0.5142 -1.4342
   16MOL0     H 2097   8.342   4.262   2.801 -2.9052 -0.1710 -0.9096
   16MOL0     H 2098   8.377   4.113   2.902 -2.6140 -3.4523  1.3021
   16MOL0     H 2099   8.108   4.048   2.819  0.6690 -1.9317  2.9247
   16MOL0     H 2100   8.109   4.218   2.783  0.1048 -1.7749 -2.2166
   16MOL0     H 2101   8.198   4.133   3.052 -0.7064  0.6748  1.3602
   16MOL0     H 2102   8.156   4.286   3.000  0.9109  0.9426 -2.0536
   16MOL0     H 2103   7.952   4.061   2.994  1.6529 -0.6190 -1.5914
   16MOL0     H 2104   7.963   4.176   3.127 -1.9575  2.9852 -0.4335
   16MOL0     H 2105   7.953   4.353   2.911 -0.2857 -0.0299 -2.3069
   16MOL0     H 2106   7.890   4.215   2.833  1.7932 -1.0015  0.7349
   16MOL0     H 2107   7.731   4.380   2.930  0.0900  0.0097  0.3631
   16MOL0     H 2108   7.792   4.320   3.096  5.0245 -2.0214 -1.3153
   16MOL0     H 2109   7.642   4.167   2.879 -0.2366 -3.3167  0.7459
   16MOL0     H 2110   7.700   4.100   3.030  2.5658  1.3867  0.6814
   16MOL0     H 2111   7.480   4.365   2.850  1.0474 -0.9383 -0.5112
   16MOL0     H 2112   7.140   4.358   2.945 -0.1789 -1.0843  0.8664
   16MOL0     H 2113   7.165   4.460   3.077 -3.1968 -2.6001 -1.4061
   16MOL0     H 2114   7.350   4.579   2.926  1.3700 -1.9623 -0.1827
   16MOL0     H 2115   7.281   4.497   2.785 -0.6409  2.3684 -0.5428
   16MOL0     H 2116   7.104   4.668   2.967 -0.6569  1.9703 -0.0345
   16MOL0     H 2117   7.065   4.599   2.821 -0.2249 -1.8288  1.9453
   16MOL0     H 2118   7.276   4.738   2.731  0.6926  0.1770  0.6665
   16MOL0     H 2119   7.266   4.811   2.891  1.2898 -2.9065  0.0062
   16MOL0     H 2120   6.906   4.997   2.636 -0.5322 -0.4447 -1.0272
   16MOL0     H 2121   6.839   5.228   2.697  0.3115  2.1288  2.7156
   16MOL0     H 2122   7.200   5.574   2.783 -1.5763 -0.6780 -0.7944
   16MOL0     H 2123   7.215   5.826   2.741  0.1207  0.9228  0.7010
   16MOL0     H 2124   6.942   6.164   2.857 -2.7651 -2.8359 -0.8805
   16MOL0     H 2125   6.926   6.058   2.999 -2.9679  1.5667 -2.4910
   16MOL0     H 2126   7.160   6.123   3.068 -1.0908 -0.6691 -0.1985
   16MOL0     H 2127   7.182   6.180   2.904  0.0539  1.7597 -0.4292
   16MOL0     H 2128   7.162   6.383   3.032 -0.1460  2.1037  1.9239
   16MOL0     H 2129   7.002   6.371   2.947  2.3023  1.5082 -0.9346
   16MOL0     H 2130   7.065   6.282   3.226 -0.8087 -2.1820 -0.7523
   16MOL0     H 2131   6.905   6.289   3.145 -0.8689  1.9534  0.3659
   16MOL0     H 2132   6.899   6.535   3.147  0.4915  2.4044  1.6200
   16MOL0     H 2133   7.068   6.547   3.186  0.1682 -1.3070 -0.9712
   16MOL0     H 2134   6.844   6.445   3.362 -0.6783  0.3964 -1.4839
   16MOL0     H 2135   7.010   6.420   3.406 -1.2832 -0.1097  1.9647
   16MOL0     H 2136   7.064   6.655   3.396 -0.1031  0.3194 -0.0888
   16MOL0     H 2137   6.961   6.634   3.528  2.7030 -1.7175 -0.0131
   16MOL0     H 2138   6.871   6.764   3.256 -0.8928  0.3246 -0.4196
   16MOL0     H 2139   6.760   6.671   3.354 -1.6006  2.0259  0.9427
   16MOL0     H 2140   6.877   5.871   2.998  0.1994  0.3682 -0.6274
   16MOL0     H 2141   6.882   5.633   3.052 -1.3844  1.6654 -0.0167
   16MOL0     H 2142   7.127   5.229   3.010  0.1558 -1.0027 -0.1654
   16MOL0     H 2143   7.194   5.002   2.973 -1.3448 -0.2815  1.3130
   16MOL0     H 2144   8.417   4.080   2.429  1.3483  1.7272 -0.2463
   16MOL0     H 2145   8.541   4.005   2.243 -0.3167  1.5254 -1.1071
   16MOL0     H 2146   9.039   3.779   2.215  4.2010 -1.0749 -0.0457
   16MOL0     H 2147   9.193   3.639   2.093 -1.0897  0.1158  1.4804
   16MOL0     H 2148   9.146   3.611   1.651 -1.5845  0.0083 -0.7447
   16MOL0     H 2149   9.030   3.486   1.711  0.1868 -0.4898  1.1181
   16MOL0     H 2150   9.161   3.355   1.602 -0.4106 -0.7954  1.5199
   16MOL0     H 2151   9.237   3.334   1.762  0.1981  2.4323  3.4113
   16MOL0     H 2152   9.403   3.504   1.704  1.7685  0.5177 -2.2190
   16MOL0     H 2153   9.321   3.520   1.539 -2.3761 -3.5078 -4.3265
   16MOL0     H 2154   9.530   3.390   1.537 -1.8101  3.3573 -1.1197
   16MOL0     H 2155   9.449   3.279   1.653 -1.3171 -0.5526 -0.4536
   16MOL0     H 2156   9.232   3.198   1.288  0.1589 -1.1126  0.6767
   16MOL0     H 2157   8.938   3.658   1.744  2.6296  2.6604 -1.6026
   16MOL0     H 2158   8.767   3.864   1.754 -2.0524 -2.3775 -1.8916
   16MOL0     H 2159   8.714   3.696   1.816  0.5821  0.4406  1.4736
   16MOL0     H 2160   8.667   3.842   1.891 -0.3210  1.1954  0.5562
   17MOL0     O 2161   6.950   8.811   8.107 -0.7038  0.0447 -0.3828
   17MOL0     C 2162   7.061   8.844   8.062 -0.2132 -0.0159  0.0486
   17MOL0     O 2163   7.103   8.831   7.931  0.0708  0.1715  0.0700
   17MOL0     C 2164   7.026   8.796   7.827  0.2608  0.7513  0.1105
   17MOL0     C 2165   6.923   8.697   7.832 -0.4445 -0.5693 -0.3450
   17MOL0     C 2166   6.866   8.654   7.716  0.0229 -0.1278 -0.2161
   17MOL0     C 2167   6.903   8.704   7.590  0.4099 -0.5439  0.3400
   17MOL0     O 2168   6.822   8.694   7.479 -0.5427 -0.3044  0.4123
   17MOL0     C 2169   6.674   8.691   7.494  0.4108  0.3892  0.7755
   17MOL0     C 2170   6.612   8.685   7.350  0.7750  0.0075  0.2979
   17MOL0     C 2171   6.455   8.707   7.334  0.8462  0.9116  0.2666
   17MOL0     C 2172   6.378   8.590   7.266 -1.3447  0.5167  0.2012
   17MOL0     C 2173   6.235   8.625   7.227 -0.5905  0.4490  0.3551
   17MOL0     C 2174   6.173   8.521   7.139  1.3563  0.0996 -0.3883
   17MOL0     C 2175   6.034   8.574   7.083  0.1160 -0.2676  0.1309
   17MOL0     C 2176   5.980   8.478   6.978 -0.5800  0.4279 -0.8427
   17MOL0     N 2177   6.058   8.455   6.853  1.0855  0.2659 -0.0119
   17MOL0     C 2178   6.132   8.548   6.785  0.1054  0.1241  0.5839
   17MOL0     C 2179   6.225   8.477   6.718 -0.0464  0.8432  0.4220
   17MOL0     C 2180   6.321   8.531   6.608  0.4020  0.0441 -0.1353
   17MOL0     C 2181   6.460   8.474   6.638 -0.2711  0.0830  1.3705
   17MOL0     C 2182   6.516   8.517   6.766  0.1216  0.0439 -0.4924
   17MOL0     C 2183   6.671   8.499   6.780 -0.7229 -0.1513  0.1142
   17MOL0     O 2184   6.717   8.544   6.907  0.3373  0.1085 -0.5793
   17MOL0     C 2185   6.759   8.679   6.920 -0.5266 -0.6718 -0.3134
   17MOL0     C 2186   6.778   8.774   6.814 -0.2212  0.4050  0.0699
   17MOL0     C 2187   6.859   8.890   6.839 -0.0253  0.4382 -0.1364
   17MOL0     C 2188   6.917   8.911   6.957  0.0994  0.0595 -0.1188
   17MOL0     C 2189   6.999   9.031   6.994 -0.8821  0.1719  0.2644
   17MOL0     O 2190   7.041   9.115   6.891 -0.1153  0.1450  0.0087
   17MOL0     C 2191   7.120   9.221   6.923  0.8850  0.6062  0.6380
   17MOL0     C 2192   7.045   9.335   6.953  0.7387 -0.8513  0.1076
   17MOL0     C 2193   7.123   9.453   6.985  0.6620  0.9026  0.2486
   17MOL0     C 2194   7.260   9.459   6.972  0.4400 -0.3642 -0.6062
   17MOL0     O 2195   7.319   9.583   6.982  0.1908  0.0431  0.2390
   17MOL0     C 2196   7.252   9.686   7.060  0.1376  1.2816 -0.2916
   17MOL0     C 2197   7.338   9.805   7.100 -0.3147  0.6419 -0.1297
   17MOL0     C 2198   7.375   9.889   6.978 -0.2571 -0.7900  0.3692
   17MOL0     C 2199   7.430  10.025   7.030  0.8017  0.3835 -0.0035
   17MOL0     C 2200   7.418  10.146   6.924 -0.0942  1.5400 -0.6758
   17MOL0     C 2201   7.543  10.174   6.832  0.1742  0.7874 -0.0315
   17MOL0     C 2202   7.625  10.051   6.792 -0.5331 -0.0968  0.6946
   17MOL0     C 2203   7.588  10.013   6.648  0.2048  1.1939  0.8110
   17MOL0    Cl 2204   7.655  10.103   6.496  0.3266 -0.2141 -0.3327
   17MOL0     C 2205   7.334   9.340   6.931 -0.3477 -0.4613 -0.0287
   17MOL0     C 2206   7.265   9.221   6.916 -0.0742 -0.2349 -0.6704
   17MOL0     O 2207   7.030   9.048   7.116  0.1783  0.3411  0.0282
   17MOL0     C 2208   6.893   8.822   7.071  0.1399 -0.2239 -0.2075
   17MOL0     C 2209   6.819   8.702   7.046  0.3184 -0.0785 -0.2295
   17MOL0     N 2210   6.203   8.340   6.745 -0.7328 -0.5789 -0.2139
   17MOL0     N 2211   6.102   8.329   6.830 -0.8008  1.1170  0.3431
   17MOL0     C 2212   7.007   8.802   7.585 -0.6538 -0.2509  0.5012
   17MOL0     C 2213   7.076   8.835   7.702 -1.3782  0.5202  0.6661
   17MOL0     C 2214   7.159   8.905   8.157  0.2287 -0.0939 -0.3387
   17MOL0     C 2215   7.295   8.891   8.121  0.6620  0.2447 -0.0480
   17MOL0     C 2216   7.391   8.927   8.211 -0.1182 -0.0628 -0.5783
   17MOL0     C 2217   7.364   9.001   8.327 -1.3574 -0.2012  0.8519
   17MOL0     O 2218   7.486   9.031   8.384  0.0285  0.2365  0.3420
   17MOL0     C 2219   7.472   9.059   8.525  0.3199  1.8753  0.1485
   17MOL0     C 2220   7.608   9.101   8.581 -0.0624  0.1267  0.0115
   17MOL0     C 2221   7.606   9.119   8.728 -0.0492 -0.6420 -0.1754
   17MOL0     C 2222   7.749   9.124   8.780  0.0431 -0.7620 -0.4191
   17MOL0     C 2223   7.756   9.092   8.925  0.0238 -0.2754 -0.6153
   17MOL0     C 2224   7.766   9.069   9.047 -0.2991 -0.3627  0.0717
   17MOL0     C 2225   7.238   9.023   8.366 -0.5229  0.5194 -0.4123
   17MOL0     C 2226   7.134   8.968   8.285  0.6858 -0.4627  0.3774
   17MOL0     C 2227   7.001   9.019   8.315 -0.4138 -0.3392 -0.1575
   17MOL0     H 2228   6.908   8.662   7.934  1.1207 -0.6846 -0.1270
   17MOL0     H 2229   6.782   8.584   7.712 -0.8076  0.8497 -0.3352
   17MOL0     H 2230   6.650   8.607   7.560  2.4975 -0.9020 -0.0248
   17MOL0     H 2231   6.629   8.773   7.551 -3.5110 -1.9292  1.3801
   17MOL0     H 2232   6.633   8.584   7.315  1.0695 -1.2355  3.6959
   17MOL0     H 2233   6.649   8.766   7.286 -3.2098  0.0622 -2.2769
   17MOL0     H 2234   6.441   8.801   7.280  1.3860 -0.1375 -1.8211
   17MOL0     H 2235   6.409   8.724   7.432 -0.1908 -0.2425  0.0058
   17MOL0     H 2236   6.432   8.555   7.178 -2.8176 -1.3250 -0.0302
   17MOL0     H 2237   6.370   8.506   7.335 -0.9994  1.4819  1.4529
   17MOL0     H 2238   6.182   8.647   7.320 -2.0717 -1.0631 -0.0817
   17MOL0     H 2239   6.229   8.710   7.158 -0.4672  0.2631  0.1165
   17MOL0     H 2240   6.233   8.492   7.052 -0.2349 -1.5882 -0.9662
   17MOL0     H 2241   6.143   8.433   7.197 -1.4222 -0.3614 -2.3288
   17MOL0     H 2242   6.054   8.678   7.057 -1.7993  1.1465  3.6889
   17MOL0     H 2243   5.959   8.597   7.159 -1.3215 -0.2668 -1.2330
   17MOL0     H 2244   5.991   8.383   7.030  0.4096  0.5562 -0.8097
   17MOL0     H 2245   5.874   8.496   6.956 -1.0676 -1.3674 -0.1011
   17MOL0     H 2246   6.100   8.652   6.785 -1.2000 -0.2600  0.2500
   17MOL0     H 2247   6.277   8.506   6.511 -4.7953 -0.7620  2.1091
   17MOL0     H 2248   6.317   8.641   6.612 -2.6971  0.0706 -1.4401
   17MOL0     H 2249   6.462   8.365   6.628 -1.0551  0.1258  0.6109
   17MOL0     H 2250   6.529   8.507   6.560  0.0791 -3.3108  0.0546
   17MOL0     H 2251   6.474   8.461   6.850  4.3611  1.1400  2.7013
   17MOL0     H 2252   6.487   8.622   6.776 -2.1383 -0.0615 -4.2087
   17MOL0     H 2253   6.723   8.556   6.702 -0.6187  2.8683  2.1936
   17MOL0     H 2254   6.691   8.392   6.777 -1.2667 -0.6900  5.3749
   17MOL0     H 2255   6.754   8.759   6.709  0.2733 -1.2616  0.1654
   17MOL0     H 2256   6.880   8.947   6.749 -0.3831  0.9910  0.1212
   17MOL0     H 2257   6.937   9.337   6.950  0.5653 -3.0087  1.9127
   17MOL0     H 2258   7.065   9.541   7.013  2.0539  1.5222  1.2886
   17MOL0     H 2259   7.160   9.715   7.010 -2.1956 -1.9998  1.6738
   17MOL0     H 2260   7.220   9.639   7.154  1.6919  0.7703  0.0226
   17MOL0     H 2261   7.285   9.870   7.170 -2.5620 -0.4683 -0.6839
   17MOL0     H 2262   7.432   9.771   7.142 -0.4057  1.6009  0.8775
   17MOL0     H 2263   7.447   9.851   6.906  2.3794  5.0192 -0.6680
   17MOL0     H 2264   7.286   9.909   6.918  2.3021 -0.2784 -3.6275
   17MOL0     H 2265   7.534  10.018   7.064  0.1238 -0.7830  2.0009
   17MOL0     H 2266   7.371  10.042   7.120  2.2426 -2.7257  1.7179
   17MOL0     H 2267   7.393  10.233   6.986 -4.7330 -0.8611  1.2561
   17MOL0     H 2268   7.340  10.127   6.851  1.2480 -0.0575 -1.7596
   17MOL0     H 2269   7.512  10.222   6.739 -2.5185 -1.1215 -0.2444
   17MOL0     H 2270   7.608  10.235   6.895  1.3670  1.5975 -1.9664
   17MOL0     H 2271   7.612   9.958   6.850  4.2050 -1.0937  0.6211
   17MOL0     H 2272   7.733  10.061   6.805 -0.3635 -3.6184  3.7222
   17MOL0     H 2273   7.627   9.913   6.626  0.1087  1.2930  0.1449
   17MOL0     H 2274   7.479  10.001   6.655 -0.0684  3.0135  0.1554
   17MOL0     H 2275   7.442   9.337   6.922 -0.1993  0.6122  1.1126
   17MOL0     H 2276   7.319   9.128   6.897  0.4268 -0.3702  1.1637
   17MOL0     H 2277   6.957   8.837   7.157  0.9002 -0.2806 -0.7470
   17MOL0     H 2278   6.828   8.630   7.127  0.2135 -0.2706 -0.3876
   17MOL0     H 2279   7.040   8.847   7.492  3.7185 -2.3045  0.8324
   17MOL0     H 2280   7.153   8.911   7.707 -1.6157  0.9717 -1.5152
   17MOL0     H 2281   7.309   8.818   8.041  2.7846  0.1068  0.3777
   17MOL0     H 2282   7.496   8.909   8.191  0.2838 -1.4115  2.3684
   17MOL0     H 2283   7.440   8.971   8.582 -0.6583  1.6587 -0.7157
   17MOL0     H 2284   7.395   9.133   8.549 -0.1252  1.5154 -0.1601
   17MOL0     H 2285   7.638   9.197   8.539  2.0365 -0.8378 -0.8283
   17MOL0     H 2286   7.673   9.024   8.539  0.5540  0.3086  0.6072
   17MOL0     H 2287   7.558   9.028   8.763 -1.4462  0.0054 -0.3089
   17MOL0     H 2288   7.553   9.211   8.757 -0.1003  0.4265 -3.2260
   17MOL0     H 2289   7.805   9.046   8.728 -0.8955 -1.2913 -0.6733
   17MOL0     H 2290   7.802   9.218   8.766  0.2852 -0.3889  2.3954
   17MOL0     H 2291   7.783   9.049   9.151 -2.0301  1.4388  0.7457
   17MOL0     H 2292   7.221   9.084   8.454  1.9798  0.3214  0.2656
   17MOL0     H 2293   6.958   9.079   8.235  1.5354 -1.0877 -1.8639
   17MOL0     H 2294   6.924   8.942   8.329 -1.2493  0.6322  0.8075
   17MOL0     H 2295   6.999   9.078   8.407 -2.4456 -2.2547  1.1499
   18MOL0     O 2296   7.897   6.704   8.590  0.6743  0.7098 -0.2266
   18MOL0     C 2297   7.900   6.660   8.707 -0.9407 -0.9460 -0.0007
   18MOL0     O 2298   7.833   6.561   8.749 -0.1759 -0.3190 -0.3730
   18MOL0     C 2299   7.734   6.524   8.660  0.0256 -0.5728 -0.9849
   18MOL0     C 2300   7.624   6.610   8.635  0.8127 -0.2207  0.2130
   18MOL0     C 2301   7.507   6.565   8.560 -0.4266  0.2848  1.5477
   18MOL0     C 2302   7.519   6.439   8.496  0.3148 -0.5839  0.6574
   18MOL0     O 2303   7.411   6.407   8.412  0.3942 -1.1509 -0.3378
   18MOL0     C 2304   7.416   6.277   8.359 -0.3014 -0.2091 -0.1566
   18MOL0     C 2305   7.281   6.236   8.302  0.5321 -0.1187  0.2416
   18MOL0     C 2306   7.193   6.151   8.395  0.8470  0.3756 -0.0446
   18MOL0     C 2307   7.046   6.169   8.379 -0.2531  0.5394  0.0416
   18MOL0     C 2308   6.960   6.072   8.468  0.4621  0.5124  0.7660
   18MOL0     C 2309   6.963   5.921   8.428 -0.2494 -0.2802  0.2018
   18MOL0     C 2310   6.900   5.831   8.544  0.0604  0.1681  0.1539
   18MOL0     C 2311   6.955   5.837   8.687  1.0422  0.3036 -0.1538
   18MOL0     N 2312   6.867   5.768   8.784 -0.6506 -0.2083 -0.0244
   18MOL0     C 2313   6.871   5.634   8.817  0.5900  0.1345  0.2080
   18MOL0     C 2314   6.808   5.631   8.933  0.0144 -0.8196  0.1665
   18MOL0     C 2315   6.801   5.520   9.027 -0.6516 -0.2717 -0.3324
   18MOL0     C 2316   6.825   5.561   9.166  0.9682 -0.6179  0.2354
   18MOL0     C 2317   6.787   5.446   9.269 -0.6064  0.2713  0.5628
   18MOL0     C 2318   6.837   5.470   9.420 -0.0920  0.3245  0.1882
   18MOL0     O 2319   6.778   5.595   9.442  0.3606  0.0825 -0.7124
   18MOL0     C 2320   6.837   5.678   9.536  0.0480 -0.3086  0.3988
   18MOL0     C 2321   6.913   5.632   9.645  0.3097  0.7929 -0.3190
   18MOL0     C 2322   6.965   5.714   9.738 -0.4972 -1.5058  0.2887
   18MOL0     C 2323   6.955   5.856   9.725 -0.3020 -0.6279  0.1064
   18MOL0     C 2324   7.014   5.947   9.839  1.1112  0.1766 -0.5097
   18MOL0     O 2325   7.114   5.893   9.927 -0.0385  0.2035  0.3752
   18MOL0     C 2326   7.139   5.940  10.056  0.2545 -0.3244  0.0833
   18MOL0     C 2327   7.080   5.868  10.159 -0.7242  0.0236  0.3923
   18MOL0     C 2328   7.094   5.911  10.286  0.3237  0.0293 -0.1127
   18MOL0     C 2329   7.171   6.026  10.320  0.7983  0.8572 -0.4323
   18MOL0     O 2330   7.183   6.074  10.447 -0.8082 -0.1883 -0.5514
   18MOL0     C 2331   7.114   6.023  10.563 -0.2904  0.0797 -0.3659
   18MOL0     C 2332   7.201   6.076  10.676  0.3067 -0.1418 -0.1174
   18MOL0     C 2333   7.335   6.009  10.697  0.4922 -0.1652 -0.1133
   18MOL0     C 2334   7.401   6.102  10.800  0.6642  0.8433 -0.6764
   18MOL0     C 2335   7.463   6.017  10.913 -0.0799  0.0340  0.5708
   18MOL0     C 2336   7.572   5.927  10.841 -0.1776  0.9195 -0.3081
   18MOL0     C 2337   7.671   5.872  10.942  0.5810  0.0927 -0.3891
   18MOL0     C 2338   7.709   5.722  10.918  0.5065 -0.1825  0.2356
   18MOL0    Cl 2339   7.768   5.720  10.740 -0.1895  0.2992 -0.3727
   18MOL0     C 2340   7.231   6.097  10.214  0.1593  0.1817 -0.7985
   18MOL0     C 2341   7.223   6.047  10.090 -0.2857  0.0032 -0.3022
   18MOL0     O 2342   6.966   6.062   9.837 -0.2126  0.5220 -0.0890
   18MOL0     C 2343   6.896   5.905   9.607 -0.3987  0.8695 -0.7100
   18MOL0     C 2344   6.829   5.818   9.518 -1.1667  0.8627  0.5666
   18MOL0     N 2345   6.755   5.754   8.962 -0.0201  0.5276 -0.3205
   18MOL0     N 2346   6.788   5.836   8.872  0.1008 -0.4485  0.3134
   18MOL0     C 2347   7.631   6.357   8.518 -0.3449 -0.1940 -0.2420
   18MOL0     C 2348   7.741   6.401   8.597  0.1540  0.0337 -0.3015
   18MOL0     C 2349   7.972   6.742   8.814  0.7090 -0.6501  0.4431
   18MOL0     C 2350   7.921   6.873   8.835  0.1230 -1.1729  0.5322
   18MOL0     C 2351   7.962   6.946   8.951  0.1419  0.2469  0.7265
   18MOL0     C 2352   8.070   6.885   9.030  0.3129 -0.9631  0.5525
   18MOL0     O 2353   8.133   6.952   9.130 -0.4709 -0.8777  0.6026
   18MOL0     C 2354   8.133   7.098   9.125 -0.4123  0.7794 -0.0190
   18MOL0     C 2355   8.222   7.143   9.244  0.0054  0.1925  0.5103
   18MOL0     C 2356   8.198   7.287   9.275  0.2984  0.2378  0.2711
   18MOL0     C 2357   8.243   7.387   9.175 -0.3568 -0.3608 -0.5393
   18MOL0     C 2358   8.387   7.377   9.159 -0.0437 -0.3915  1.2070
   18MOL0     C 2359   8.511   7.384   9.149  0.3940  0.6880  0.2530
   18MOL0     C 2360   8.125   6.764   8.998  0.2968 -0.5341 -0.7078
   18MOL0     C 2361   8.074   6.684   8.895  1.3853  0.2537 -0.1186
   18MOL0     C 2362   8.137   6.549   8.866 -0.4382  0.7649  0.1380
   18MOL0     H 2363   7.630   6.705   8.687  4.5840 -0.0492 -0.2987
   18MOL0     H 2364   7.415   6.621   8.550 -0.9419 -0.8930 -1.2462
   18MOL0     H 2365   7.484   6.265   8.274 -0.1271 -1.8688  0.1816
   18MOL0     H 2366   7.453   6.201   8.428 -2.2291  1.4408  2.9054
   18MOL0     H 2367   7.274   6.186   8.205 -3.2497  2.6233 -1.0886
   18MOL0     H 2368   7.221   6.325   8.283  1.0468  0.8920  2.9031
   18MOL0     H 2369   7.210   6.158   8.503 -1.0016 -2.7717  0.5917
   18MOL0     H 2370   7.216   6.046   8.377  0.2639  0.4696 -1.4830
   18MOL0     H 2371   7.021   6.272   8.405 -0.7970  0.2561  0.6737
   18MOL0     H 2372   7.008   6.158   8.277 -5.9688 -1.3416  1.9776
   18MOL0     H 2373   7.006   6.091   8.565 -0.8028 -1.0027  1.6931
   18MOL0     H 2374   6.864   6.124   8.463  0.7561  0.9601 -1.7037
   18MOL0     H 2375   6.905   5.915   8.335 -1.1143  1.9232  0.5553
   18MOL0     H 2376   7.064   5.882   8.418  0.2408 -1.0255  5.4388
   18MOL0     H 2377   6.915   5.730   8.505  0.2991  1.0071 -2.0776
   18MOL0     H 2378   6.791   5.842   8.539 -0.1944 -0.6532  2.7973
   18MOL0     H 2379   7.054   5.791   8.687  0.8214 -0.2102 -1.3900
   18MOL0     H 2380   6.954   5.942   8.716 -2.8690 -0.5189  3.9344
   18MOL0     H 2381   6.944   5.560   8.785  2.9147  2.6722 -0.8504
   18MOL0     H 2382   6.701   5.475   9.032 -0.7754  0.0401 -0.0253
   18MOL0     H 2383   6.859   5.433   8.993 -2.8530 -2.0091  0.1053
   18MOL0     H 2384   6.932   5.580   9.178  1.3320 -2.2160 -0.2360
   18MOL0     H 2385   6.773   5.654   9.187 -0.0633 -0.1542 -3.5931
   18MOL0     H 2386   6.830   5.345   9.260 -0.3559  0.5407 -2.0614
   18MOL0     H 2387   6.678   5.442   9.261 -0.8399  2.6920  1.9109
   18MOL0     H 2388   6.946   5.462   9.432 -0.0891 -1.3999 -0.5907
   18MOL0     H 2389   6.804   5.385   9.480  1.3894  0.2967  1.0020
   18MOL0     H 2390   6.908   5.527   9.672  1.2210  0.8835  0.2401
   18MOL0     H 2391   7.005   5.678   9.832  3.2512 -1.0010 -0.9579
   18MOL0     H 2392   7.012   5.784  10.146 -0.3287 -0.4757  1.4203
   18MOL0     H 2393   7.051   5.854  10.367  4.3555 -1.3856  1.2718
   18MOL0     H 2394   7.010   6.058  10.567 -1.0393 -1.9188 -1.2676
   18MOL0     H 2395   7.133   5.916  10.564  4.5018  0.6510 -2.0278
   18MOL0     H 2396   7.213   6.183  10.655 -3.1347  0.3406 -0.0815
   18MOL0     H 2397   7.129   6.078  10.758 -0.6355 -0.7580 -0.9132
   18MOL0     H 2398   7.321   5.903  10.717  1.3995 -1.0978 -3.6032
   18MOL0     H 2399   7.391   6.021  10.603  0.9309  1.1831  0.3016
   18MOL0     H 2400   7.330   6.160  10.859  0.1541  3.0804 -3.2846
   18MOL0     H 2401   7.464   6.174  10.747  0.7288 -0.1541 -2.0257
   18MOL0     H 2402   7.388   5.946  10.950 -1.3413  0.2623 -1.4106
   18MOL0     H 2403   7.519   6.075  10.987  3.9283  0.6905 -2.5812
   18MOL0     H 2404   7.524   5.839  10.798  0.1716 -0.5154  2.0829
   18MOL0     H 2405   7.631   5.978  10.764  1.5765  0.4286  0.6576
   18MOL0     H 2406   7.628   5.895  11.040  0.6149  2.3549 -0.8560
   18MOL0     H 2407   7.762   5.933  10.946  0.5843  0.0258  0.8338
   18MOL0     H 2408   7.793   5.694  10.982  1.1663  2.9958  0.9490
   18MOL0     H 2409   7.619   5.660  10.919  0.2183  0.1654 -1.5918
   18MOL0     H 2410   7.285   6.186  10.245 -0.6268  0.5031 -0.3086
   18MOL0     H 2411   7.268   6.109  10.013 -2.6703  1.3234 -0.7089
   18MOL0     H 2412   6.883   6.012   9.597 -2.0181  0.8922  0.9130
   18MOL0     H 2413   6.770   5.864   9.440  2.0864  0.2549 -2.5190
   18MOL0     H 2414   7.639   6.266   8.460 -1.1337 -0.2951 -0.2039
   18MOL0     H 2415   7.828   6.345   8.629  0.6993  1.7664  1.4316
   18MOL0     H 2416   7.850   6.902   8.759  0.1001  0.1765  1.0392
   18MOL0     H 2417   7.920   7.043   8.973  2.4167  1.7460 -1.0118
   18MOL0     H 2418   8.033   7.143   9.132 -1.1686 -1.0151  2.4231
   18MOL0     H 2419   8.181   7.142   9.037  0.3543  3.0564  1.4628
   18MOL0     H 2420   8.328   7.142   9.219 -0.1697 -1.5710 -0.3172
   18MOL0     H 2421   8.220   7.069   9.324 -0.6608 -0.9703 -0.5299
   18MOL0     H 2422   8.248   7.307   9.370  0.3983 -1.2370  0.5481
   18MOL0     H 2423   8.091   7.299   9.292  0.2488  0.2513 -0.0447
   18MOL0     H 2424   8.208   7.365   9.074  0.1219 -0.8183 -0.6102
   18MOL0     H 2425   8.203   7.485   9.204 -0.5845 -1.1365  2.0142
   18MOL0     H 2426   8.613   7.379   9.119  0.1362 -1.3998 -0.4583
   18MOL0     H 2427   8.209   6.737   9.061 -0.8906 -1.2686  0.6023
   18MOL0     H 2428   8.182   6.494   8.949 -0.9710 -0.2061 -0.2126
   18MOL0     H 2429   8.064   6.478   8.826 -0.8995  1.7478 -0.8199
   18MOL0     H 2430   8.210   6.571   8.787 -0.0561 -4.7091 -1.4187
   19MOL0     O 2431   6.326   7.711   2.846  1.2210  0.0372 -0.0701
   19MOL0     C 2432   6.372   7.601   2.879  0.1754  1.4137  0.3375
   19MOL0     O 2433   6.314   7.484   2.848  0.2812 -0.3212 -0.2626
   19MOL0     C 2434   6.188   7.490   2.799  0.3058 -0.0668 -0.2402
   19MOL0     C 2435   6.146   7.398   2.702 -0.3093  0.1345 -0.0608
   19MOL0     C 2436   6.016   7.391   2.656  0.3967  0.2825  0.1329
   19MOL0     C 2437   5.920   7.483   2.703 -1.0270 -0.2243  0.0275
   19MOL0     O 2438   5.797   7.482   2.646 -0.1201  0.4122 -0.1594
   19MOL0     C 2439   5.701   7.584   2.665 -1.3806 -0.5809  0.5876
   19MOL0     C 2440   5.606   7.543   2.779  0.2474  0.1366 -0.7074
   19MOL0     C 2441   5.467   7.588   2.748  0.1382  0.0323  0.2924
   19MOL0     C 2442   5.360   7.603   2.857  0.4114  0.1340  0.0137
   19MOL0     C 2443   5.340   7.473   2.933 -0.4516 -0.3411 -0.2436
   19MOL0     C 2444   5.215   7.402   2.889  0.7965  0.8012 -0.0780
   19MOL0     C 2445   5.212   7.254   2.924  0.0435 -1.4400 -0.3422
   19MOL0     C 2446   5.064   7.198   2.900 -0.7751 -0.9603  0.2742
   19MOL0     N 2447   5.047   7.170   2.756  0.6182  0.4764  0.5177
   19MOL0     C 2448   4.982   7.254   2.660  0.1177 -0.1942 -0.7175
   19MOL0     C 2449   4.977   7.172   2.549 -0.0388 -0.9532  0.5351
   19MOL0     C 2450   4.953   7.209   2.408  0.9634  0.0086  0.6014
   19MOL0     C 2451   4.961   7.108   2.308 -0.1903 -0.4717  0.2936
   19MOL0     C 2452   5.044   7.144   2.185  0.0003  0.3130 -0.2845
   19MOL0     C 2453   5.024   7.059   2.058 -0.6016  0.2103  0.0912
   19MOL0     O 2454   4.887   7.047   2.023 -0.1373 -0.9637  0.7137
   19MOL0     C 2455   4.828   7.148   1.949  0.7072 -0.1874 -0.3478
   19MOL0     C 2456   4.884   7.262   1.907 -0.8331 -0.9266 -0.3868
   19MOL0     C 2457   4.816   7.350   1.826  0.0557  0.5940  0.0073
   19MOL0     C 2458   4.685   7.326   1.781  0.0725  1.3756  1.0061
   19MOL0     C 2459   4.624   7.423   1.687 -0.0561  0.1181 -0.7478
   19MOL0     O 2460   4.495   7.410   1.672 -0.5098 -0.3578  0.1167
   19MOL0     C 2461   4.427   7.503   1.601 -0.5177  0.3076 -0.6186
   19MOL0     C 2462   4.455   7.644   1.594  0.8175  0.6713 -0.0186
   19MOL0     C 2463   4.391   7.733   1.496  0.0749  0.2348  0.1698
   19MOL0     C 2464   4.307   7.672   1.402 -0.4333 -0.0538 -0.5844
   19MOL0     O 2465   4.254   7.764   1.305  0.2384 -0.8900 -0.2117
   19MOL0     C 2466   4.168   7.704   1.200 -0.0126  0.7906  0.3719
   19MOL0     C 2467   4.146   7.802   1.078 -0.5635  0.5911 -0.0753
   19MOL0     C 2468   4.137   7.947   1.102 -0.5417 -0.2178 -0.1193
   19MOL0     C 2469   4.029   7.983   1.220 -0.1197  1.0619  1.0989
   19MOL0     C 2470   4.058   8.129   1.272 -0.4093 -0.2458 -0.1241
   19MOL0     C 2471   4.001   8.257   1.196 -0.3829 -0.1888 -0.3186
   19MOL0     C 2472   4.042   8.386   1.269  0.2013  0.4981  1.4788
   19MOL0     C 2473   4.050   8.505   1.170  0.0258 -0.2182  0.1883
   19MOL0    Cl 2474   4.166   8.477   1.040  0.7928 -0.4886  0.5199
   19MOL0     C 2475   4.270   7.541   1.424 -0.6235 -0.3276  0.8428
   19MOL0     C 2476   4.329   7.462   1.520 -1.0510  0.5677  0.4835
   19MOL0     O 2477   4.697   7.493   1.636 -0.3067 -0.4593 -0.1876
   19MOL0     C 2478   4.629   7.210   1.821  0.5197  0.3269 -0.1069
   19MOL0     C 2479   4.698   7.119   1.897 -0.8997  0.1943 -0.5076
   19MOL0     N 2480   5.014   7.042   2.587  0.0405 -0.1983  0.4615
   19MOL0     N 2481   5.064   7.043   2.703 -0.1657 -0.7668 -0.3375
   19MOL0     C 2482   5.952   7.576   2.806 -0.1179  1.3260  0.0900
   19MOL0     C 2483   6.079   7.565   2.854  0.5605  0.0415 -0.5190
   19MOL0     C 2484   6.501   7.602   2.958  0.0337 -0.8728  0.0030
   19MOL0     C 2485   6.566   7.726   2.952 -0.2006 -0.8630  0.3026
   19MOL0     C 2486   6.688   7.748   3.021 -0.4356  0.5354  1.0883
   19MOL0     C 2487   6.754   7.643   3.080 -0.1598 -0.1815  0.1964
   19MOL0     O 2488   6.881   7.651   3.125 -0.5789  0.0718 -0.6437
   19MOL0     C 2489   6.875   7.709   3.245 -1.0429  0.3926 -0.1015
   19MOL0     C 2490   7.016   7.680   3.295  0.7897 -0.2860  0.0480
   19MOL0     C 2491   7.129   7.761   3.211 -0.9280 -0.2781 -0.3895
   19MOL0     C 2492   7.264   7.693   3.217 -0.2830 -0.2960  0.5270
   19MOL0     C 2493   7.336   7.689   3.347 -0.0310 -0.3891  0.0057
   19MOL0     C 2494   7.369   7.683   3.464  0.5198  0.7379 -0.0663
   19MOL0     C 2495   6.686   7.519   3.081 -0.9326  0.3766 -0.6628
   19MOL0     C 2496   6.560   7.501   3.042 -0.6340 -0.2329  0.4987
   19MOL0     C 2497   6.494   7.362   3.050 -0.4491  0.6692 -0.8426
   19MOL0     H 2498   6.217   7.336   2.648 -2.3553  0.2310 -3.0742
   19MOL0     H 2499   5.993   7.307   2.592 -1.1267  1.4405 -0.9043
   19MOL0     H 2500   5.746   7.683   2.679 -3.7072  0.3446  2.0890
   19MOL0     H 2501   5.640   7.591   2.575 -2.1569  0.8595  1.1903
   19MOL0     H 2502   5.643   7.575   2.877  0.6801  1.4157 -1.2543
   19MOL0     H 2503   5.605   7.434   2.769 -2.7204  0.1793 -1.5569
   19MOL0     H 2504   5.426   7.525   2.669 -1.1290 -1.0993  1.7930
   19MOL0     H 2505   5.484   7.688   2.706 -0.2905  0.1739  0.4472
   19MOL0     H 2506   5.375   7.691   2.920  2.8302  0.1347 -0.4764
   19MOL0     H 2507   5.269   7.631   2.802 -0.1364 -0.7514  0.4368
   19MOL0     H 2508   5.425   7.407   2.911 -0.8505 -1.9838  2.6614
   19MOL0     H 2509   5.348   7.496   3.039  2.5273  1.1548 -0.6854
   19MOL0     H 2510   5.128   7.449   2.937  0.2783 -0.1009 -0.1248
   19MOL0     H 2511   5.205   7.415   2.781  2.4852  0.5076 -0.2838
   19MOL0     H 2512   5.242   7.228   3.026  2.0333  0.0321 -0.4887
   19MOL0     H 2513   5.288   7.209   2.860  0.1245 -1.0856 -0.4999
   19MOL0     H 2514   5.043   7.112   2.964 -2.5738 -2.6833 -2.4027
   19MOL0     H 2515   4.989   7.272   2.928 -0.8357 -1.5787  1.8483
   19MOL0     H 2516   4.963   7.358   2.680  1.1662 -0.3994  1.6984
   19MOL0     H 2517   4.858   7.263   2.400  0.9594 -0.2186 -1.3714
   19MOL0     H 2518   5.030   7.284   2.383 -1.6382  2.2672 -1.3206
   19MOL0     H 2519   5.025   7.023   2.336  4.1909  2.2790 -0.3677
   19MOL0     H 2520   4.857   7.084   2.287 -0.1102 -0.8031  0.2678
   19MOL0     H 2521   5.150   7.135   2.213 -0.4019 -1.4847  0.7485
   19MOL0     H 2522   5.006   7.245   2.165 -3.7137 -1.1580 -1.4941
   19MOL0     H 2523   5.055   6.956   2.081 -0.5041  0.4394  1.0526
   19MOL0     H 2524   5.085   7.093   1.974  0.4713  0.6049  0.9938
   19MOL0     H 2525   4.982   7.280   1.950 -1.2837 -0.7637  0.5982
   19MOL0     H 2526   4.846   7.448   1.790 -0.1386  0.2000 -1.2620
   19MOL0     H 2527   4.520   7.692   1.668  0.0885  3.9942 -1.3439
   19MOL0     H 2528   4.413   7.839   1.489 -2.5098  0.6997 -3.6664
   19MOL0     H 2529   4.218   7.611   1.173  0.2652  0.8060  0.8100
   19MOL0     H 2530   4.070   7.685   1.244  0.4843  1.7216  1.9701
   19MOL0     H 2531   4.226   7.789   1.005  0.4798  1.3650  0.8819
   19MOL0     H 2532   4.056   7.770   1.024 -0.0425  3.2359 -2.7540
   19MOL0     H 2533   4.232   8.000   1.116 -0.1981 -0.5169 -1.2311
   19MOL0     H 2534   4.116   7.995   1.006 -0.0283 -2.4173 -1.3965
   19MOL0     H 2535   4.051   7.916   1.304  2.1416  0.1547 -0.1309
   19MOL0     H 2536   3.928   7.953   1.194  0.2193  1.1363 -0.4036
   19MOL0     H 2537   4.164   8.125   1.301 -0.4585  1.5668  0.4906
   19MOL0     H 2538   4.015   8.137   1.373 -0.9362 -2.4817 -0.1420
   19MOL0     H 2539   4.038   8.243   1.094  0.1446 -0.0291 -0.1554
   19MOL0     H 2540   3.892   8.253   1.191 -0.6272  1.3113  2.1879
   19MOL0     H 2541   4.137   8.381   1.322 -1.2363 -0.5663  4.1727
   19MOL0     H 2542   3.962   8.408   1.341 -2.4867 -3.7912  0.2143
   19MOL0     H 2543   3.962   8.550   1.123  2.7665  2.8135 -2.6270
   19MOL0     H 2544   4.082   8.596   1.224  1.2348 -0.3034 -0.3492
   19MOL0     H 2545   4.219   7.475   1.355  2.6912 -3.8402  1.3952
   19MOL0     H 2546   4.302   7.357   1.524 -1.5349  0.6445 -0.4859
   19MOL0     H 2547   4.530   7.177   1.792  0.3247  0.7748  0.0478
   19MOL0     H 2548   4.662   7.020   1.923  1.3783 -0.3304  0.9666
   19MOL0     H 2549   5.890   7.645   2.863  0.7741  1.2363  1.2069
   19MOL0     H 2550   6.117   7.620   2.940  3.9720  2.6489 -3.3834
   19MOL0     H 2551   6.526   7.799   2.882 -0.8796 -0.1820  1.3743
   19MOL0     H 2552   6.739   7.839   2.990  2.9799 -1.3112  0.9004
   19MOL0     H 2553   6.803   7.666   3.315 -1.0716 -1.4078 -1.1819
   19MOL0     H 2554   6.870   7.817   3.233 -1.8851  0.1963 -1.7495
   19MOL0     H 2555   7.030   7.572   3.281 -0.0918 -0.5946  1.3498
   19MOL0     H 2556   7.029   7.706   3.401  0.9063  1.1403 -0.2920
   19MOL0     H 2557   7.136   7.865   3.246  3.1142  0.2374 -2.1242
   19MOL0     H 2558   7.092   7.786   3.110 -2.1051  1.0097  0.3233
   19MOL0     H 2559   7.251   7.589   3.187  5.5912 -1.0202 -0.7749
   19MOL0     H 2560   7.332   7.745   3.149 -1.0454 -0.3986 -0.3335
   19MOL0     H 2561   7.420   7.680   3.558  0.9980  1.7153 -0.2863
   19MOL0     H 2562   6.734   7.430   3.121 -2.1633  0.1125  0.3281
   19MOL0     H 2563   6.386   7.373   3.057 -0.3651  0.6676  0.8011
   19MOL0     H 2564   6.541   7.303   2.970  0.6185  1.4167 -0.7985
   19MOL0     H 2565   6.511   7.301   3.139 -1.4195 -0.2136 -1.2438
   20MOL0     O 2566   4.356   1.446   1.538  0.1568  0.0377  0.1324
   20MOL0     C 2567   4.280   1.416   1.632  0.8141  0.5314  0.6367
   20MOL0     O 2568   4.160   1.354   1.617  0.1975 -0.5650  1.0758
   20MOL0     C 2569   4.129   1.304   1.485 -0.1395  0.3622 -0.1309
   20MOL0     C 2570   4.087   1.166   1.485  0.0847 -1.0026  0.3530
   20MOL0     C 2571   4.059   1.104   1.367 -0.9354  0.5550  0.4526
   20MOL0     C 2572   4.081   1.173   1.248 -1.0614  0.1449  0.7858
   20MOL0     O 2573   4.071   1.120   1.121  0.0427  0.7286 -0.3347
   20MOL0     C 2574   4.021   0.986   1.101  0.8550  0.5075  0.3818
   20MOL0     C 2575   3.931   0.999   0.972  0.5718  0.7098 -1.2633
   20MOL0     C 2576   3.995   1.049   0.850 -0.1932  0.0082  0.0467
   20MOL0     C 2577   4.069   0.940   0.770  1.0435  0.0872 -0.2334
   20MOL0     C 2578   4.131   0.980   0.633 -0.8319 -0.1136 -0.7184
   20MOL0     C 2579   4.185   0.861   0.555 -0.3208 -0.4290  0.6319
   20MOL0     C 2580   4.294   0.776   0.622  0.5018  0.4075 -0.6388
   20MOL0     C 2581   4.365   0.683   0.521 -0.7740  0.2759  0.0341
   20MOL0     N 2582   4.437   0.576   0.595 -0.0282  0.3209  0.3765
   20MOL0     C 2583   4.560   0.586   0.647  0.3074  0.2948 -0.0040
   20MOL0     C 2584   4.582   0.464   0.704 -0.7896  0.8467  0.4590
   20MOL0     C 2585   4.699   0.441   0.787  0.3127 -0.3774  0.3759
   20MOL0     C 2586   4.818   0.433   0.691 -0.2208  0.5738 -0.3163
   20MOL0     C 2587   4.938   0.358   0.743 -0.2366  0.8745  0.3552
   20MOL0     C 2588   5.047   0.330   0.627 -0.5210  0.4191 -0.3333
   20MOL0     O 2589   5.000   0.229   0.531  0.6434 -0.4984  0.2652
   20MOL0     C 2590   5.095   0.203   0.438  0.0961  0.0357  0.5581
   20MOL0     C 2591   5.226   0.258   0.432 -0.5465 -0.4078 -0.3089
   20MOL0     C 2592   5.316   0.209   0.349 -0.5416  0.0836  0.8248
   20MOL0     C 2593   5.285   0.111   0.254  1.1351  1.0825  0.5169
   20MOL0     C 2594   5.390   0.066   0.156 -0.5506 -0.0538 -0.8820
   20MOL0     O 2595   5.525   0.072   0.185  0.3657  0.2475 -0.3886
   20MOL0     C 2596   5.617   0.053   0.080  0.6104  0.8694 -0.7149
   20MOL0     C 2597   5.746   0.054   0.134  0.3454 -0.1469 -0.1702
   20MOL0     C 2598   5.854   0.034   0.056  0.4181 -0.1087 -0.4990
   20MOL0     C 2599   5.844   0.005  -0.076 -0.4047 -0.5619 -0.1810
   20MOL0     O 2600   5.964  -0.028  -0.132  0.2657  0.0947 -0.6691
   20MOL0     C 2601   5.963  -0.022  -0.272 -0.3518  0.9916 -0.1418
   20MOL0     C 2602   6.118  -0.040  -0.309  0.7727  0.4129  0.2185
   20MOL0     C 2603   6.185   0.098  -0.313  0.1428  1.2000  0.6071
   20MOL0     C 2604   6.326   0.104  -0.376 -0.5113 -0.5814  0.1703
   20MOL0     C 2605   6.348   0.136  -0.523  0.4050  0.1742  0.8776
   20MOL0     C 2606   6.244   0.072  -0.612  0.3597  0.2877 -0.6068
   20MOL0     C 2607   6.248   0.096  -0.759  0.0565  1.0610  0.9064
   20MOL0     C 2608   6.136   0.039  -0.837  0.2190  0.6713  0.5432
   20MOL0    Cl 2609   5.974   0.106  -0.780 -0.4166 -0.1012 -0.5922
   20MOL0     C 2610   5.723   0.022  -0.143  0.9438  0.3574 -0.1538
   20MOL0     C 2611   5.606   0.033  -0.069 -0.2225 -0.1444 -0.2192
   20MOL0     O 2612   5.345   0.044   0.044  0.0912  0.1538 -0.2514
   20MOL0     C 2613   5.150   0.064   0.240  0.3000 -0.4944  0.1299
   20MOL0     C 2614   5.063   0.108   0.339 -0.5613 -0.4493 -0.0620
   20MOL0     N 2615   4.475   0.382   0.684  0.5974 -0.2426 -0.0264
   20MOL0     N 2616   4.391   0.447   0.611 -1.3666  0.4845  0.1382
   20MOL0     C 2617   4.113   1.305   1.249  0.2929  0.2888 -0.5029
   20MOL0     C 2618   4.143   1.375   1.363 -0.7339  0.3397  0.0593
   20MOL0     C 2619   4.319   1.438   1.767  0.1175  0.3484  0.4331
   20MOL0     C 2620   4.320   1.329   1.855  0.0311 -1.0389 -1.2790
   20MOL0     C 2621   4.385   1.334   1.985 -0.3273  0.9532  0.5014
   20MOL0     C 2622   4.438   1.454   2.028 -0.0379 -0.3693 -0.0516
   20MOL0     O 2623   4.497   1.441   2.154 -0.2936  0.2085  0.1186
   20MOL0     C 2624   4.547   1.566   2.214  0.0948  0.0550 -0.5381
   20MOL0     C 2625   4.620   1.541   2.343 -0.1937 -0.3561 -0.5526
   20MOL0     C 2626   4.605   1.666   2.432 -1.1093 -0.0193  0.3324
   20MOL0     C 2627   4.662   1.787   2.372  1.0479 -0.0998 -0.0215
   20MOL0     C 2628   4.601   1.904   2.425  0.7678 -1.3729  0.3904
   20MOL0     C 2629   4.547   2.006   2.474 -0.2438 -0.3644  0.3978
   20MOL0     C 2630   4.435   1.565   1.942 -0.6650  0.9822  0.5005
   20MOL0     C 2631   4.384   1.551   1.804 -0.7350 -0.8495  0.1153
   20MOL0     C 2632   4.423   1.678   1.731  0.0569  0.4208  0.7452
   20MOL0     H 2633   4.074   1.118   1.581  0.4929  0.7749  1.3258
   20MOL0     H 2634   4.014   1.005   1.368  2.2493 -1.0319  1.4132
   20MOL0     H 2635   4.109   0.927   1.072  0.5315  1.0286 -1.7949
   20MOL0     H 2636   3.961   0.946   1.183 -1.0985 -3.6920 -2.7349
   20MOL0     H 2637   3.862   1.079   1.001  2.2290  1.7623 -0.1137
   20MOL0     H 2638   3.870   0.910   0.952  1.2562 -0.7053  2.2092
   20MOL0     H 2639   4.058   1.133   0.881 -0.5196 -0.7158  2.9850
   20MOL0     H 2640   3.915   1.072   0.779  0.0660  1.2330  0.1379
   20MOL0     H 2641   4.132   0.889   0.844  1.0160 -0.2861 -0.4666
   20MOL0     H 2642   3.989   0.870   0.745 -0.0903  1.5650 -0.8512
   20MOL0     H 2643   4.069   1.036   0.562 -0.0154 -2.2965 -3.3340
   20MOL0     H 2644   4.212   1.047   0.661 -1.1332 -0.7052  1.8605
   20MOL0     H 2645   4.102   0.799   0.521 -1.4046 -0.0567  2.4845
   20MOL0     H 2646   4.231   0.911   0.469 -0.0065  0.9759  1.5872
   20MOL0     H 2647   4.234   0.721   0.696 -1.9522  0.2672 -2.5776
   20MOL0     H 2648   4.371   0.839   0.667 -0.7165  0.3113  1.7928
   20MOL0     H 2649   4.301   0.627   0.453  1.1833 -2.6972  0.4503
   20MOL0     H 2650   4.429   0.752   0.467  2.6423 -1.7796  1.1369
   20MOL0     H 2651   4.610   0.682   0.656  1.6037  0.1157 -3.5818
   20MOL0     H 2652   4.699   0.521   0.862  0.1711  0.6771 -0.7172
   20MOL0     H 2653   4.691   0.344   0.837  2.9115  0.7868  3.3650
   20MOL0     H 2654   4.789   0.371   0.606 -0.0402 -0.4402  0.3556
   20MOL0     H 2655   4.842   0.535   0.658  0.8522  0.3733 -0.1609
   20MOL0     H 2656   4.923   0.266   0.801 -0.3315  0.9011  0.3726
   20MOL0     H 2657   4.985   0.432   0.809 -0.4161  0.5440  0.8632
   20MOL0     H 2658   5.142   0.293   0.668 -1.6135 -0.9741  1.0256
   20MOL0     H 2659   5.070   0.421   0.571 -3.1393 -0.2738 -2.7269
   20MOL0     H 2660   5.267   0.335   0.497 -2.3342 -0.1382  0.5716
   20MOL0     H 2661   5.420   0.236   0.362  0.6644 -2.4920 -2.1003
   20MOL0     H 2662   5.748   0.089   0.237 -1.0866 -0.6040  0.0440
   20MOL0     H 2663   5.942   0.010   0.114 -2.1768 -2.4463  2.9276
   20MOL0     H 2664   5.913  -0.107  -0.319  0.0118  0.9839 -0.5228
   20MOL0     H 2665   5.916   0.068  -0.313 -1.8164  2.2217  3.8612
   20MOL0     H 2666   6.187  -0.103  -0.252 -1.8175 -0.1585  2.9445
   20MOL0     H 2667   6.103  -0.070  -0.414  0.0326  2.9743 -0.4687
   20MOL0     H 2668   6.119   0.174  -0.356 -0.7497  0.3332  0.4079
   20MOL0     H 2669   6.189   0.111  -0.204 -1.0916 -2.0847  1.1341
   20MOL0     H 2670   6.368   0.004  -0.366  0.8047 -0.0652 -0.0866
   20MOL0     H 2671   6.382   0.164  -0.304  1.4039 -2.6257  0.4693
   20MOL0     H 2672   6.447   0.099  -0.551  1.4284  1.0610  3.0453
   20MOL0     H 2673   6.339   0.239  -0.556 -2.8218 -0.4441 -0.5415
   20MOL0     H 2674   6.251  -0.037  -0.598 -3.2241  0.2040  1.7222
   20MOL0     H 2675   6.147   0.099  -0.569  0.7553  3.3269 -1.4475
   20MOL0     H 2676   6.332   0.055  -0.817 -2.4337 -0.0817 -2.2003
   20MOL0     H 2677   6.248   0.205  -0.764  1.5636  1.0976  1.2029
   20MOL0     H 2678   6.147   0.058  -0.945 -1.5233 -1.9535 -0.1993
   20MOL0     H 2679   6.135  -0.070  -0.827 -0.6759  0.3888 -1.9164
   20MOL0     H 2680   5.724   0.010  -0.250 -0.2276  1.0749 -0.2662
   20MOL0     H 2681   5.517   0.021  -0.129 -0.7435 -2.8722  0.9690
   20MOL0     H 2682   5.130  -0.013   0.166  0.9645 -1.9820  1.4210
   20MOL0     H 2683   4.967   0.056   0.346 -1.3432  0.7138 -1.6649
   20MOL0     H 2684   4.138   1.365   1.162 -2.7528  3.2770  0.5009
   20MOL0     H 2685   4.172   1.479   1.372  0.3375  0.2026 -1.3697
   20MOL0     H 2686   4.266   1.237   1.832 -1.9732 -0.5561  1.0683
   20MOL0     H 2687   4.397   1.257   2.061 -0.5395  1.9861  1.6069
   20MOL0     H 2688   4.454   1.620   2.232 -1.1197 -3.0369  4.6060
   20MOL0     H 2689   4.617   1.612   2.144 -1.6385  1.0796 -1.6652
   20MOL0     H 2690   4.722   1.503   2.333  0.4691  0.2322  2.7328
   20MOL0     H 2691   4.563   1.462   2.393  0.2887  0.6314  1.6784
   20MOL0     H 2692   4.654   1.652   2.529 -0.3118  0.7915  0.0646
   20MOL0     H 2693   4.501   1.680   2.464 -1.6510 -0.6306 -1.1133
   20MOL0     H 2694   4.764   1.769   2.407  1.0165 -1.8437 -0.7105
   20MOL0     H 2695   4.648   1.793   2.264 -1.3091  1.5887  0.3062
   20MOL0     H 2696   4.516   2.098   2.519 -2.1124 -0.4554 -0.5953
   20MOL0     H 2697   4.462   1.666   1.971 -1.9190  2.3228 -2.5350
   20MOL0     H 2698   4.517   1.726   1.759  0.9939  0.3902 -1.9972
   20MOL0     H 2699   4.425   1.676   1.622 -1.9627  3.6169  0.5062
   20MOL0     H 2700   4.352   1.761   1.743  1.8488  2.1141  0.2775
   21MOL0     O 2701   3.285   3.229   8.899  0.3935 -0.1119  0.5978
   21MOL0     C 2702   3.375   3.304   8.894 -0.1586 -0.4738 -0.4420
   21MOL0     O 2703   3.395   3.405   8.989 -0.0033 -0.0698 -0.6061
   21MOL0     C 2704   3.304   3.414   9.086 -0.2926  0.3618  0.4752
   21MOL0     C 2705   3.259   3.540   9.110  0.1501  0.3808  0.8562
   21MOL0     C 2706   3.197   3.575   9.226 -0.0199  0.0735 -1.0408
   21MOL0     C 2707   3.178   3.482   9.325  0.1032 -0.8092  1.0956
   21MOL0     O 2708   3.100   3.519   9.431 -0.6493 -0.7535 -0.1468
   21MOL0     C 2709   3.164   3.511   9.559 -0.8061 -0.2541  0.8080
   21MOL0     C 2710   3.114   3.640   9.636  0.3778 -0.5576  0.0123
   21MOL0     C 2711   3.004   3.612   9.736 -0.1621 -0.8733  1.1630
   21MOL0     C 2712   2.863   3.595   9.678  0.4272  0.4656 -0.3255
   21MOL0     C 2713   2.739   3.594   9.773 -0.2460 -0.2376 -0.0435
   21MOL0     C 2714   2.616   3.616   9.699 -0.5914 -0.0804  0.0979
   21MOL0     C 2715   2.484   3.586   9.779 -0.7426  0.7104 -1.2067
   21MOL0     C 2716   2.364   3.573   9.684 -0.1227 -0.0012  0.1987
   21MOL0     N 2717   2.333   3.678   9.592  0.5006  0.6654  0.7603
   21MOL0     C 2718   2.264   3.782   9.649 -1.3326 -0.7907 -0.8095
   21MOL0     C 2719   2.287   3.886   9.557 -0.9918 -0.0954  1.4013
   21MOL0     C 2720   2.213   4.020   9.564  0.3061  0.6302  0.7951
   21MOL0     C 2721   2.286   4.123   9.655 -0.8628  0.6456 -0.1886
   21MOL0     C 2722   2.419   4.173   9.603  0.7832 -0.2484  0.2819
   21MOL0     C 2723   2.428   4.322   9.604 -0.8708 -0.2301  0.1636
   21MOL0     O 2724   2.377   4.370   9.732 -0.3603 -0.4961  0.0894
   21MOL0     C 2725   2.389   4.510   9.755  0.2190  0.7619 -0.5666
   21MOL0     C 2726   2.318   4.573   9.862  0.4586  0.5714  0.1956
   21MOL0     C 2727   2.314   4.712   9.876 -0.9664 -0.0735 -0.4581
   21MOL0     C 2728   2.388   4.794   9.789  0.2844 -0.4696  0.1590
   21MOL0     C 2729   2.404   4.937   9.815 -1.4305  0.1590 -0.2211
   21MOL0     O 2730   2.339   4.982   9.926 -0.3976  1.2750  0.6212
   21MOL0     C 2731   2.380   5.099   9.975 -0.0125 -0.2878 -0.3726
   21MOL0     C 2732   2.293   5.157  10.071 -1.3087  0.3603 -1.2802
   21MOL0     C 2733   2.326   5.272  10.140  0.6968 -0.6379  0.8255
   21MOL0     C 2734   2.457   5.317  10.129 -0.1703 -0.1262  0.4147
   21MOL0     O 2735   2.503   5.422  10.198 -0.6484  0.6420 -0.6625
   21MOL0     C 2736   2.590   5.401  10.323  0.7696 -1.3631  0.7818
   21MOL0     C 2737   2.672   5.529  10.356 -1.0695 -0.5528 -0.2729
   21MOL0     C 2738   2.724   5.523  10.502 -0.9099  0.4861 -0.4436
   21MOL0     C 2739   2.620   5.570  10.609  0.3122 -0.1075 -0.4989
   21MOL0     C 2740   2.650   5.541  10.753  0.0857 -0.2857  0.2429
   21MOL0     C 2741   2.636   5.396  10.801 -0.5622 -0.9041 -0.9164
   21MOL0     C 2742   2.663   5.381  10.952  0.6112 -0.3542  0.8297
   21MOL0     C 2743   2.638   5.238  11.011 -0.5445 -0.9109  0.4945
   21MOL0    Cl 2744   2.474   5.179  10.998  0.0879 -0.0908  0.2409
   21MOL0     C 2745   2.550   5.256  10.042  0.1922  0.3318  0.2678
   21MOL0     C 2746   2.512   5.148   9.961  0.0561 -0.3338  0.6729
   21MOL0     O 2747   2.469   5.011   9.738  0.3892 -0.0731  0.1035
   21MOL0     C 2748   2.447   4.728   9.685 -0.1206 -0.4273  0.5475
   21MOL0     C 2749   2.450   4.593   9.656  0.4791  0.8786  0.4136
   21MOL0     N 2750   2.369   3.834   9.447 -0.5085 -0.0281 -0.6732
   21MOL0     N 2751   2.394   3.705   9.477 -0.3817 -1.4363 -0.3264
   21MOL0     C 2752   3.225   3.354   9.307 -0.5751  0.1398 -0.8433
   21MOL0     C 2753   3.290   3.316   9.184 -0.7525 -0.3516 -0.5622
   21MOL0     C 2754   3.485   3.308   8.786  0.2607  0.5698  1.0879
   21MOL0     C 2755   3.546   3.428   8.754  0.7141 -0.0750 -0.8583
   21MOL0     C 2756   3.634   3.443   8.657 -1.6226 -0.3591 -0.1785
   21MOL0     C 2757   3.673   3.339   8.569  0.2223  0.3168 -0.0724
   21MOL0     O 2758   3.754   3.378   8.476 -0.3198  0.3070  0.6407
   21MOL0     C 2759   3.800   3.287   8.377  0.0344 -0.0537 -0.2760
   21MOL0     C 2760   3.885   3.354   8.279 -0.0613  0.4510 -0.2731
   21MOL0     C 2761   3.816   3.442   8.174 -0.1620 -0.0784 -0.3496
   21MOL0     C 2762   3.755   3.562   8.233 -0.3736  0.0393 -0.0261
   21MOL0     C 2763   3.669   3.631   8.130  0.1619  0.2875  0.1841
   21MOL0     C 2764   3.594   3.660   8.041 -0.4282 -0.0093 -0.2060
   21MOL0     C 2765   3.608   3.214   8.592  0.4716  0.7244 -1.0200
   21MOL0     C 2766   3.524   3.197   8.700  0.0257  0.4834 -0.4010
   21MOL0     C 2767   3.463   3.056   8.718 -0.0088 -0.7239 -0.3681
   21MOL0     H 2768   3.293   3.615   9.039  2.1085 -1.4783 -0.2657
   21MOL0     H 2769   3.148   3.672   9.233  0.9174  0.4896 -0.0254
   21MOL0     H 2770   3.128   3.421   9.610  0.0224 -1.8681 -1.3109
   21MOL0     H 2771   3.273   3.503   9.557 -0.7718  0.0607 -1.3636
   21MOL0     H 2772   3.083   3.721   9.569  1.8532  0.8573  0.9700
   21MOL0     H 2773   3.195   3.689   9.691  0.1780  0.2937 -0.4328
   21MOL0     H 2774   2.997   3.707   9.790 -1.3593 -2.0830  3.2610
   21MOL0     H 2775   3.025   3.528   9.804  2.3559 -0.3169  1.1842
   21MOL0     H 2776   2.842   3.667   9.599 -1.1245  0.0278 -0.3430
   21MOL0     H 2777   2.858   3.496   9.632  0.7901 -0.9484  2.4731
   21MOL0     H 2778   2.729   3.504   9.835 -0.0466  0.9954  1.8868
   21MOL0     H 2779   2.741   3.665   9.856 -2.6306  0.8069 -0.7973
   21MOL0     H 2780   2.605   3.715   9.655 -3.6038  0.7046  2.2552
   21MOL0     H 2781   2.617   3.554   9.609 -1.3123  0.4970 -0.3158
   21MOL0     H 2782   2.469   3.660   9.858 -1.7185 -2.5557  1.9670
   21MOL0     H 2783   2.487   3.489   9.830  0.3033  0.6021 -1.4567
   21MOL0     H 2784   2.360   3.477   9.631 -0.1057  0.7976 -1.2678
   21MOL0     H 2785   2.283   3.573   9.758  1.6145 -0.1220  2.2127
   21MOL0     H 2786   2.213   3.794   9.744 -1.1021  1.1519 -0.8815
   21MOL0     H 2787   2.187   4.061   9.466 -0.3333 -2.5785 -0.5272
   21MOL0     H 2788   2.113   4.000   9.605 -0.3010  1.7629 -0.0711
   21MOL0     H 2789   2.215   4.205   9.661  1.9767  3.1471  2.0420
   21MOL0     H 2790   2.301   4.081   9.755 -0.1121  0.8442 -0.2134
   21MOL0     H 2791   2.429   4.152   9.496  3.2212  0.3502  0.3225
   21MOL0     H 2792   2.507   4.126   9.648  0.8828  0.5525  0.9594
   21MOL0     H 2793   2.381   4.376   9.521  1.6548 -0.6941 -1.6757
   21MOL0     H 2794   2.533   4.346   9.589 -0.6506  0.2976  2.2441
   21MOL0     H 2795   2.251   4.512   9.921  2.8097  1.7136  4.4910
   21MOL0     H 2796   2.256   4.757   9.956 -1.3160  3.0882 -2.3295
   21MOL0     H 2797   2.195   5.114  10.092 -1.3140 -0.8261 -3.4640
   21MOL0     H 2798   2.249   5.308  10.207  0.9108  1.6045 -0.0658
   21MOL0     H 2799   2.523   5.390  10.409 -0.4154 -3.0951 -0.2957
   21MOL0     H 2800   2.657   5.319  10.294  1.1376 -0.4675 -1.0670
   21MOL0     H 2801   2.751   5.541  10.281 -1.0531 -2.2075 -0.5572
   21MOL0     H 2802   2.629   5.629  10.343  1.8953  1.1260  1.6071
   21MOL0     H 2803   2.756   5.421  10.523 -2.7122  0.1169  0.7009
   21MOL0     H 2804   2.811   5.589  10.505 -0.6739  0.4636 -3.3893
   21MOL0     H 2805   2.522   5.526  10.587 -1.5713  2.4731  2.0065
   21MOL0     H 2806   2.598   5.676  10.593 -1.2396 -0.4815 -0.9957
   21MOL0     H 2807   2.575   5.605  10.801 -2.1720 -1.0224 -2.0770
   21MOL0     H 2808   2.745   5.586  10.783  1.2445 -1.7708 -1.0524
   21MOL0     H 2809   2.531   5.368  10.791 -1.0021  0.0584  0.6748
   21MOL0     H 2810   2.709   5.328  10.755 -0.9838 -1.9562 -0.0707
   21MOL0     H 2811   2.596   5.455  10.997 -0.7701 -1.3653  0.4956
   21MOL0     H 2812   2.766   5.414  10.968  0.2719  2.6152 -2.0588
   21MOL0     H 2813   2.696   5.177  10.942  0.1366  0.2138  0.0447
   21MOL0     H 2814   2.667   5.228  11.117 -1.1313 -1.6428  0.5957
   21MOL0     H 2815   2.643   5.307  10.020  0.1751 -0.2721 -1.3889
   21MOL0     H 2816   2.595   5.121   9.896 -0.4492 -0.5380  0.1011
   21MOL0     H 2817   2.500   4.791   9.614 -0.7379  2.3372  2.3749
   21MOL0     H 2818   2.516   4.562   9.576 -0.6513 -0.3529 -0.0787
   21MOL0     H 2819   3.201   3.279   9.382  0.5881  0.7012  0.1214
   21MOL0     H 2820   3.340   3.219   9.183  1.2274  0.5430  1.4352
   21MOL0     H 2821   3.522   3.519   8.808  0.3903 -0.2377 -0.7283
   21MOL0     H 2822   3.680   3.541   8.649 -0.6526 -0.9124 -1.5024
   21MOL0     H 2823   3.720   3.230   8.328  1.9012 -1.0107 -2.4244
   21MOL0     H 2824   3.858   3.211   8.429  0.3725 -0.7066 -1.5673
   21MOL0     H 2825   3.943   3.273   8.235 -2.6831 -0.4344 -2.3625
   21MOL0     H 2826   3.941   3.418   8.347  2.1464 -1.0799 -0.5489
   21MOL0     H 2827   3.735   3.390   8.122  0.1592  0.7353 -1.7082
   21MOL0     H 2828   3.884   3.475   8.095 -1.6804 -1.9768 -2.5812
   21MOL0     H 2829   3.689   3.541   8.318 -0.3389  1.5667  0.4166
   21MOL0     H 2830   3.825   3.635   8.274  0.0149  0.7000 -1.7549
   21MOL0     H 2831   3.544   3.687   7.950  3.4705  0.2091 -2.4810
   21MOL0     H 2832   3.627   3.123   8.535  1.4428  1.7621 -2.4049
   21MOL0     H 2833   3.386   3.033   8.645 -1.7303  2.0776  0.3761
   21MOL0     H 2834   3.549   2.991   8.699  0.1270 -1.0871  1.3324
   21MOL0     H 2835   3.421   3.040   8.818 -0.1636 -2.5035 -0.6984
   22MOL0     O 2836   5.357   3.691   7.716 -0.1634 -0.3763  1.0349
   22MOL0     C 2837   5.427   3.721   7.615 -0.4279 -0.2172 -0.0140
   22MOL0     O 2838   5.469   3.637   7.520  0.4197 -0.4475  0.0285
   22MOL0     C 2839   5.405   3.513   7.516 -0.5843 -0.5087 -0.0088
   22MOL0     C 2840   5.290   3.492   7.443  0.0674  0.1646 -0.6526
   22MOL0     C 2841   5.231   3.361   7.435 -1.0102 -0.5794  0.2382
   22MOL0     C 2842   5.300   3.249   7.501  0.6499  0.0405  0.8558
   22MOL0     O 2843   5.241   3.125   7.484  0.1795 -0.3826  0.1023
   22MOL0     C 2844   5.322   3.034   7.423  0.2893  0.0606  0.1074
   22MOL0     C 2845   5.255   2.964   7.308 -0.1729  0.0312  0.4486
   22MOL0     C 2846   5.324   2.830   7.272 -0.0734 -0.6177 -0.1032
   22MOL0     C 2847   5.230   2.770   7.163 -0.1515 -0.7013  0.4364
   22MOL0     C 2848   5.296   2.647   7.097  0.0888 -0.1557 -0.3787
   22MOL0     C 2849   5.334   2.534   7.204  0.4357 -0.8696 -0.9153
   22MOL0     C 2850   5.218   2.436   7.236  0.0025  0.6263 -0.0843
   22MOL0     C 2851   5.111   2.480   7.338  0.7535 -0.0276 -0.5888
   22MOL0     N 2852   5.048   2.366   7.412  0.5730 -0.4544 -0.0093
   22MOL0     C 2853   4.956   2.274   7.372  0.8092 -0.6795  1.1030
   22MOL0     C 2854   4.955   2.186   7.477 -0.6506  0.6801 -0.3852
   22MOL0     C 2855   4.884   2.058   7.491  0.0648  0.1347 -0.0377
   22MOL0     C 2856   4.741   2.088   7.516  0.3534  0.1928  0.2993
   22MOL0     C 2857   4.643   1.970   7.530 -0.0358  0.1117 -0.5536
   22MOL0     C 2858   4.635   1.896   7.399  0.0611 -0.1777  0.4907
   22MOL0     O 2859   4.619   2.006   7.298 -0.6911 -0.0005 -0.1989
   22MOL0     C 2860   4.602   1.966   7.168  0.5768  0.2660 -0.4505
   22MOL0     C 2861   4.630   1.840   7.115 -0.0394  0.1096 -0.1995
   22MOL0     C 2862   4.607   1.818   6.980  0.4395 -0.1747  0.7795
   22MOL0     C 2863   4.553   1.917   6.894  0.0647  0.6142  0.3034
   22MOL0     C 2864   4.542   1.890   6.747  0.0577 -0.7299 -0.1463
   22MOL0     O 2865   4.591   1.763   6.703  0.4506 -0.2071 -0.1294
   22MOL0     C 2866   4.577   1.720   6.572 -0.4212  0.8808  0.2643
   22MOL0     C 2867   4.556   1.795   6.455 -0.0401  0.0454  1.5791
   22MOL0     C 2868   4.559   1.734   6.323  0.8892  0.5320  0.7440
   22MOL0     C 2869   4.583   1.600   6.298  1.0849  0.5056 -0.4130
   22MOL0     O 2870   4.581   1.552   6.167 -0.4480 -1.0282  0.4736
   22MOL0     C 2871   4.616   1.417   6.139 -0.2785  0.6353 -0.1780
   22MOL0     C 2872   4.651   1.394   5.993  0.6427  0.4751  0.4039
   22MOL0     C 2873   4.529   1.326   5.921  0.5301  0.2517 -0.7342
   22MOL0     C 2874   4.531   1.311   5.778  0.4837  1.3029  0.6797
   22MOL0     C 2875   4.648   1.229   5.721  0.3854  0.6711  0.3674
   22MOL0     C 2876   4.661   1.244   5.570 -0.6990  0.8730  1.0152
   22MOL0     C 2877   4.582   1.130   5.492  0.5670 -0.1832 -0.9278
   22MOL0     C 2878   4.629   1.100   5.350  0.2348  0.6462 -0.4612
   22MOL0    Cl 2879   4.800   1.098   5.362  0.0338  0.1896  0.6242
   22MOL0     C 2880   4.608   1.526   6.419  1.2010  0.1326 -0.2445
   22MOL0     C 2881   4.603   1.585   6.549 -0.6345  0.2364  0.4449
   22MOL0     O 2882   4.496   1.977   6.669  0.6120 -0.6514 -0.0815
   22MOL0     C 2883   4.534   2.046   6.945  0.1735  0.4607 -0.0048
   22MOL0     C 2884   4.557   2.067   7.081 -0.0630 -0.0598  0.2312
   22MOL0     N 2885   5.041   2.226   7.578  1.8302  0.0456  0.3149
   22MOL0     N 2886   5.088   2.338   7.542  0.9251  0.2829  0.2757
   22MOL0     C 2887   5.425   3.276   7.569 -0.0556 -0.2794 -0.7185
   22MOL0     C 2888   5.475   3.404   7.577  0.1368 -1.0905 -0.2942
   22MOL0     C 2889   5.466   3.864   7.607  0.3538 -0.1287 -0.0732
   22MOL0     C 2890   5.503   3.916   7.733 -0.3073 -1.0007 -0.7504
   22MOL0     C 2891   5.528   4.052   7.758  0.8487 -0.6554 -0.5432
   22MOL0     C 2892   5.513   4.135   7.647  0.3338 -0.2763 -0.6435
   22MOL0     O 2893   5.537   4.266   7.645  0.9188  0.5625  1.1042
   22MOL0     C 2894   5.629   4.341   7.721  0.8674  0.3988  0.2402
   22MOL0     C 2895   5.618   4.489   7.662  0.4750 -0.5288 -0.4158
   22MOL0     C 2896   5.656   4.495   7.512  0.0193 -0.8549 -0.4882
   22MOL0     C 2897   5.647   4.643   7.469 -0.1961  0.3864 -0.8126
   22MOL0     C 2898   5.695   4.677   7.333  0.0389  0.5434 -0.5444
   22MOL0     C 2899   5.727   4.715   7.222 -0.2967  0.3200 -0.0159
   22MOL0     C 2900   5.493   4.085   7.515  0.7352 -0.8088 -0.6035
   22MOL0     C 2901   5.463   3.944   7.498  0.4268 -0.5271  0.0836
   22MOL0     C 2902   5.406   3.900   7.360 -0.0055 -0.2761  0.3785
   22MOL0     H 2903   5.246   3.580   7.398  0.3238  0.1513 -0.9358
   22MOL0     H 2904   5.134   3.334   7.393  0.2915 -4.7692 -0.5395
   22MOL0     H 2905   5.420   3.070   7.391  0.5036  0.4879  1.2082
   22MOL0     H 2906   5.350   2.956   7.495 -0.7522  0.2916  0.7849
   22MOL0     H 2907   5.246   3.037   7.227  1.0455 -1.1999 -0.8316
   22MOL0     H 2908   5.154   2.937   7.340  0.8492 -3.3257  1.2575
   22MOL0     H 2909   5.340   2.768   7.360 -1.6703  0.5973  1.1081
   22MOL0     H 2910   5.421   2.862   7.232 -0.6702 -0.5157 -1.5397
   22MOL0     H 2911   5.139   2.730   7.209  2.4910 -1.4229  5.8391
   22MOL0     H 2912   5.186   2.837   7.089 -0.3654 -1.7478 -0.4128
   22MOL0     H 2913   5.233   2.604   7.019 -0.4996 -0.1583  0.0942
   22MOL0     H 2914   5.385   2.668   7.036  0.5683  1.4810  0.8223
   22MOL0     H 2915   5.417   2.474   7.164  1.9775 -0.5603  1.5846
   22MOL0     H 2916   5.381   2.562   7.298  3.2431  1.3273 -2.7973
   22MOL0     H 2917   5.277   2.354   7.279  0.8425  1.6743  0.8308
   22MOL0     H 2918   5.169   2.396   7.147  2.1268 -1.3149 -0.4873
   22MOL0     H 2919   5.143   2.550   7.415  2.5348 -3.3051  1.9335
   22MOL0     H 2920   5.025   2.527   7.289 -1.6903 -2.2003  1.3084
   22MOL0     H 2921   4.899   2.278   7.279  2.2017 -0.6337  0.2177
   22MOL0     H 2922   4.902   1.994   7.404 -1.0132 -0.9545  0.5045
   22MOL0     H 2923   4.920   2.001   7.577 -3.3396 -2.7707 -0.3354
   22MOL0     H 2924   4.746   2.139   7.613 -1.7297  1.1559 -0.0480
   22MOL0     H 2925   4.697   2.168   7.456 -3.7672  0.2335  3.0044
   22MOL0     H 2926   4.544   2.011   7.547  0.6884  0.8642  2.3941
   22MOL0     H 2927   4.686   1.916   7.615 -0.2515  2.0226  0.8244
   22MOL0     H 2928   4.548   1.829   7.399  1.6655 -2.3885 -0.6390
   22MOL0     H 2929   4.716   1.829   7.369  0.2272  0.4225 -0.4597
   22MOL0     H 2930   4.667   1.754   7.169  0.6686 -0.2775 -1.2649
   22MOL0     H 2931   4.635   1.724   6.934  1.4566  1.4100 -2.0701
   22MOL0     H 2932   4.534   1.901   6.465 -4.5000 -0.6855  1.6586
   22MOL0     H 2933   4.542   1.792   6.233  1.5154  0.0982  0.3376
   22MOL0     H 2934   4.708   1.393   6.192 -0.4033 -2.2851 -1.1234
   22MOL0     H 2935   4.534   1.357   6.179  0.4959  0.5178  1.2622
   22MOL0     H 2936   4.683   1.489   5.949  2.2752 -0.5331 -0.6774
   22MOL0     H 2937   4.741   1.332   5.980  1.1437  1.4681 -1.1179
   22MOL0     H 2938   4.511   1.227   5.964  1.4605 -0.0030 -0.9173
   22MOL0     H 2939   4.444   1.382   5.961  0.5490 -0.9545  1.1332
   22MOL0     H 2940   4.529   1.411   5.732  1.1477  2.3723  2.8296
   22MOL0     H 2941   4.443   1.257   5.743  2.4439 -0.8782 -1.1444
   22MOL0     H 2942   4.629   1.128   5.759 -2.2920  1.1363  0.4986
   22MOL0     H 2943   4.742   1.255   5.770  0.7429 -0.0641  0.0851
   22MOL0     H 2944   4.631   1.345   5.539 -4.6644 -0.1517  0.9987
   22MOL0     H 2945   4.769   1.232   5.557 -0.8577 -0.0120  0.4710
   22MOL0     H 2946   4.473   1.134   5.505  0.6338 -1.7411  0.4306
   22MOL0     H 2947   4.599   1.041   5.553  1.1239  0.0157 -0.7897
   22MOL0     H 2948   4.590   1.006   5.310 -0.2759  1.0791 -1.0057
   22MOL0     H 2949   4.596   1.182   5.285 -0.1435  2.2427  1.6625
   22MOL0     H 2950   4.619   1.419   6.417  0.8141 -0.0664  2.9911
   22MOL0     H 2951   4.600   1.522   6.638 -1.0675 -0.0738  0.2192
   22MOL0     H 2952   4.493   2.115   6.873 -1.3231  0.4738  0.8210
   22MOL0     H 2953   4.534   2.164   7.123 -1.2948 -0.4729  0.5761
   22MOL0     H 2954   5.474   3.192   7.618  0.5038  1.0322  1.0896
   22MOL0     H 2955   5.575   3.422   7.615  0.1572 -5.0546  2.1159
   22MOL0     H 2956   5.514   3.848   7.817 -0.1496  0.1157  0.1441
   22MOL0     H 2957   5.561   4.091   7.854 -1.8147 -1.1277  0.6577
   22MOL0     H 2958   5.734   4.313   7.711  1.1960  1.0783  1.6459
   22MOL0     H 2959   5.604   4.323   7.825  3.8534 -0.0924  0.9618
   22MOL0     H 2960   5.670   4.564   7.722 -0.7832 -1.8461  2.4730
   22MOL0     H 2961   5.513   4.520   7.664  0.3794 -0.8642 -0.2040
   22MOL0     H 2962   5.594   4.428   7.451 -1.2216  1.1492 -1.4995
   22MOL0     H 2963   5.760   4.461   7.501  0.5408  0.2903  0.6837
   22MOL0     H 2964   5.548   4.691   7.480 -2.5369 -3.3790 -3.2130
   22MOL0     H 2965   5.713   4.694   7.539 -1.5629  0.0389  0.8114
   22MOL0     H 2966   5.752   4.763   7.130  1.5903 -0.5274  0.0105
   22MOL0     H 2967   5.492   4.148   7.427  0.6024 -0.6830 -0.5130
   22MOL0     H 2968   5.491   3.880   7.294  0.2126  0.4676  0.4222
   22MOL0     H 2969   5.331   3.820   7.364 -1.2100  0.7159 -1.0043
   22MOL0     H 2970   5.365   3.994   7.321 -1.3807 -1.2734 -0.7177
   23MOL0     O 2971   4.264   3.826   6.242 -0.3714 -0.3055  1.0784
   23MOL0     C 2972   4.331   3.813   6.339 -0.1546  0.0345  0.4150
   23MOL0     O 2973   4.293   3.848   6.461 -0.1809  0.3549 -0.4842
   23MOL0     C 2974   4.164   3.829   6.518 -0.6287 -0.6186  0.2242
   23MOL0     C 2975   4.061   3.763   6.454 -0.8221  0.0132  0.7108
   23MOL0     C 2976   3.941   3.746   6.517 -0.6079  0.9691 -0.1357
   23MOL0     C 2977   3.921   3.797   6.645  0.0967  0.8874  0.5344
   23MOL0     O 2978   3.794   3.770   6.695  0.3778  0.7169 -0.2057
   23MOL0     C 2979   3.759   3.842   6.815 -0.4340 -0.6337 -0.3148
   23MOL0     C 2980   3.605   3.810   6.849 -1.1744  0.1850  0.9867
   23MOL0     C 2981   3.574   3.871   6.973  0.9802  0.2142  0.2478
   23MOL0     C 2982   3.436   3.815   7.016  0.2966  0.3341 -0.5866
   23MOL0     C 2983   3.391   3.886   7.146  0.5628  0.2431  0.0763
   23MOL0     C 2984   3.487   3.861   7.271  0.1420  0.4924  0.6057
   23MOL0     C 2985   3.434   3.929   7.390 -0.0533 -0.2789 -0.5141
   23MOL0     C 2986   3.530   3.895   7.509 -0.1373 -0.3906 -0.2936
   23MOL0     N 2987   3.497   3.959   7.638  0.6673  0.8714  0.1539
   23MOL0     C 2988   3.504   4.093   7.659 -0.6779 -0.2185  0.1056
   23MOL0     C 2989   3.434   4.118   7.770 -0.5301  0.4222 -0.6031
   23MOL0     C 2990   3.413   4.251   7.854 -0.0209  1.0460 -0.1847
   23MOL0     C 2991   3.531   4.338   7.861 -0.4548  0.0851 -0.6139
   23MOL0     C 2992   3.641   4.285   7.944  0.1983  0.0995 -0.6981
   23MOL0     C 2993   3.705   4.397   8.041 -0.6758  0.0720  0.5744
   23MOL0     O 2994   3.747   4.504   7.968  0.0799  0.4214  0.5796
   23MOL0     C 2995   3.772   4.628   8.026  0.0537  0.3452  0.4664
   23MOL0     C 2996   3.836   4.728   7.945  0.3938 -0.8174 -0.6184
   23MOL0     C 2997   3.862   4.855   7.989 -0.3590 -0.8543 -0.6825
   23MOL0     C 2998   3.835   4.892   8.126  0.4126  0.9571 -0.1418
   23MOL0     C 2999   3.870   5.028   8.177  0.6897 -0.5719  0.1375
   23MOL0     O 3000   3.917   5.114   8.088 -0.5191  0.6050  1.1045
   23MOL0     C 3001   3.968   5.240   8.117  0.1656 -0.7354  0.3505
   23MOL0     C 3002   3.902   5.334   8.194  0.9753 -0.3787  0.6878
   23MOL0     C 3003   3.959   5.464   8.209 -0.3166 -0.1216  0.2083
   23MOL0     C 3004   4.092   5.489   8.174  0.1372  0.5542  0.2921
   23MOL0     O 3005   4.151   5.618   8.171 -0.9364 -0.1222 -0.1113
   23MOL0     C 3006   4.131   5.711   8.279  0.0695 -1.1092 -0.0807
   23MOL0     C 3007   4.211   5.699   8.399  0.2515  0.5361  0.3055
   23MOL0     C 3008   4.361   5.636   8.386  0.4799  0.1311  0.5913
   23MOL0     C 3009   4.457   5.749   8.403 -0.2977  0.2098 -0.5589
   23MOL0     C 3010   4.601   5.722   8.343  0.1940  0.4056  0.7077
   23MOL0     C 3011   4.688   5.842   8.379  0.1770  0.3561  0.1061
   23MOL0     C 3012   4.833   5.824   8.353 -0.3656  0.4139  0.5317
   23MOL0     C 3013   4.885   5.783   8.214  0.2480  0.7696  0.2278
   23MOL0    Cl 3014   4.868   5.909   8.085  0.3640 -0.2095 -0.2049
   23MOL0     C 3015   4.157   5.392   8.094  0.5562  0.3045 -0.2044
   23MOL0     C 3016   4.098   5.265   8.071 -0.7888 -0.0898 -0.0782
   23MOL0     O 3017   3.855   5.058   8.295  0.1805 -0.0411 -0.5764
   23MOL0     C 3018   3.782   4.790   8.217 -0.2536 -1.1701  0.1756
   23MOL0     C 3019   3.745   4.669   8.163 -0.3328 -0.9446  0.2235
   23MOL0     N 3020   3.395   3.993   7.821 -0.7734 -0.7949  1.1935
   23MOL0     N 3021   3.433   3.898   7.744  0.5384 -0.0637 -0.5664
   23MOL0     C 3022   4.020   3.869   6.707 -0.4605  0.2054  0.0519
   23MOL0     C 3023   4.151   3.877   6.648  0.5828  0.3495  0.4675
   23MOL0     C 3024   4.467   3.754   6.326 -0.1649 -1.2626 -0.5779
   23MOL0     C 3025   4.552   3.784   6.436  0.5438 -0.3515 -0.5270
   23MOL0     C 3026   4.671   3.722   6.450  0.5402 -0.6199  0.1875
   23MOL0     C 3027   4.714   3.632   6.360 -0.3474 -0.3986  0.4674
   23MOL0     O 3028   4.827   3.554   6.376  0.7361 -0.6754  0.2237
   23MOL0     C 3029   4.947   3.633   6.343  0.2874 -0.2122 -0.0834
   23MOL0     C 3030   4.974   3.670   6.189  0.2072 -0.2319  0.7170
   23MOL0     C 3031   5.021   3.567   6.089  0.2063 -0.0158  0.3476
   23MOL0     C 3032   5.184   3.542   6.098  0.3320  0.0020  0.6677
   23MOL0     C 3033   5.242   3.558   5.959  0.4943 -0.3391 -0.3689
   23MOL0     C 3034   5.268   3.576   5.845  0.8642  0.0300 -0.4100
   23MOL0     C 3035   4.636   3.599   6.253  0.6650  0.7107 -0.2065
   23MOL0     C 3036   4.509   3.660   6.233 -0.0297  0.1812  0.1251
   23MOL0     C 3037   4.429   3.628   6.107  0.2780  0.6439  0.2028
   23MOL0     H 3038   4.085   3.710   6.363  0.3895  1.1181  0.3595
   23MOL0     H 3039   3.877   3.668   6.477  0.1978  0.7643 -1.0668
   23MOL0     H 3040   3.829   3.825   6.897 -0.9961  1.4728  0.6950
   23MOL0     H 3041   3.774   3.949   6.797  1.9388 -0.3847  2.3777
   23MOL0     H 3042   3.609   3.701   6.854  1.4147  0.1942  0.3139
   23MOL0     H 3043   3.538   3.827   6.764 -1.7456  1.2022  1.6215
   23MOL0     H 3044   3.583   3.980   6.969  2.0270  0.1515  0.4621
   23MOL0     H 3045   3.638   3.830   7.052  0.5960  1.0608  1.0144
   23MOL0     H 3046   3.371   3.837   6.931 -3.5599  0.5350  2.1257
   23MOL0     H 3047   3.447   3.707   7.029  3.1702  0.1650 -3.2928
   23MOL0     H 3048   3.402   3.991   7.118  2.5190 -0.1226 -0.7012
   23MOL0     H 3049   3.285   3.868   7.165  0.2654 -1.2501 -2.5760
   23MOL0     H 3050   3.491   3.753   7.291  1.8646  0.1453 -1.2843
   23MOL0     H 3051   3.586   3.906   7.262  0.0012  1.1266  2.0527
   23MOL0     H 3052   3.331   3.901   7.417 -0.9384  2.8984 -0.1994
   23MOL0     H 3053   3.427   4.038   7.379 -4.2315 -0.3671 -0.6047
   23MOL0     H 3054   3.509   3.789   7.520  0.3400 -0.4221  0.4241
   23MOL0     H 3055   3.634   3.907   7.478 -0.8478  1.6038 -2.1700
   23MOL0     H 3056   3.548   4.163   7.588  0.5774  1.2552  2.2128
   23MOL0     H 3057   3.341   4.312   7.799 -1.5570 -0.7012 -0.2208
   23MOL0     H 3058   3.379   4.221   7.953  2.7041 -3.3279 -0.2732
   23MOL0     H 3059   3.567   4.351   7.758 -3.0782  0.2822 -1.5610
   23MOL0     H 3060   3.499   4.434   7.902 -1.2489 -1.0466  1.5684
   23MOL0     H 3061   3.724   4.247   7.885  1.6686  4.5985 -1.9417
   23MOL0     H 3062   3.607   4.213   8.019  2.1517  1.6235  1.7889
   23MOL0     H 3063   3.796   4.350   8.080  0.4412 -0.2329 -2.1649
   23MOL0     H 3064   3.638   4.420   8.125 -1.4957 -2.6809  0.7430
   23MOL0     H 3065   3.847   4.715   7.837  2.3044  0.2659 -0.5944
   23MOL0     H 3066   3.916   4.933   7.935 -0.4977  2.1323  3.0428
   23MOL0     H 3067   3.802   5.328   8.234  1.5664  1.2734  2.5449
   23MOL0     H 3068   3.903   5.548   8.247 -0.4904  0.8172 -1.9695
   23MOL0     H 3069   4.160   5.808   8.236 -0.3411 -1.4232 -1.0955
   23MOL0     H 3070   4.031   5.727   8.318  0.9471 -2.8752  3.2999
   23MOL0     H 3071   4.206   5.792   8.458  0.3118 -0.1240  1.3828
   23MOL0     H 3072   4.157   5.622   8.455 -0.8939  2.1629  1.5251
   23MOL0     H 3073   4.364   5.556   8.460 -0.9040 -1.7697 -1.2879
   23MOL0     H 3074   4.370   5.591   8.286  1.9545  0.9556  0.3204
   23MOL0     H 3075   4.465   5.773   8.509 -2.2011 -5.3079  1.1797
   23MOL0     H 3076   4.423   5.836   8.346  0.5995  0.5896 -0.5380
   23MOL0     H 3077   4.605   5.707   8.235  0.9460  0.5323  0.7163
   23MOL0     H 3078   4.643   5.633   8.391 -0.5681 -2.1500 -2.9883
   23MOL0     H 3079   4.655   5.937   8.336  0.2353  0.5595  0.5095
   23MOL0     H 3080   4.677   5.854   8.487  2.1614  4.2482  0.0780
   23MOL0     H 3081   4.878   5.748   8.419 -0.3342 -0.8934 -0.9408
   23MOL0     H 3082   4.872   5.918   8.392 -1.6819  0.1535  2.7098
   23MOL0     H 3083   4.992   5.762   8.219  0.1779  0.4863  0.6121
   23MOL0     H 3084   4.832   5.690   8.192  0.6300  1.1682 -2.8338
   23MOL0     H 3085   4.247   5.396   8.033  1.1541  0.4265  0.6642
   23MOL0     H 3086   4.142   5.194   8.003 -3.6590 -0.6797 -1.4624
   23MOL0     H 3087   3.762   4.804   8.323 -3.2608  1.2644 -0.5559
   23MOL0     H 3088   3.690   4.603   8.230  2.2465 -1.2970  2.1286
   23MOL0     H 3089   3.996   3.920   6.799 -0.4934  1.7534 -0.7740
   23MOL0     H 3090   4.230   3.914   6.712  1.3682  0.8365 -0.7613
   23MOL0     H 3091   4.523   3.862   6.505  2.4727 -1.9831  2.3911
   23MOL0     H 3092   4.725   3.751   6.540 -1.9792  0.7646  1.3406
   23MOL0     H 3093   5.038   3.579   6.373  0.0213 -0.3469  0.5008
   23MOL0     H 3094   4.964   3.714   6.415  5.6100 -1.4877  0.5231
   23MOL0     H 3095   5.044   3.753   6.201 -0.1087 -0.0960  1.6762
   23MOL0     H 3096   4.882   3.716   6.150 -0.0234 -2.7694 -2.0807
   23MOL0     H 3097   5.003   3.607   5.989 -2.8486  3.4743  2.0631
   23MOL0     H 3098   4.963   3.479   6.115 -2.8450  1.6325 -0.4592
   23MOL0     H 3099   5.219   3.610   6.176 -1.5484  3.3186 -1.1571
   23MOL0     H 3100   5.195   3.435   6.120 -3.7069 -0.3594  1.6435
   23MOL0     H 3101   5.314   3.582   5.749  0.0649 -0.3801 -0.8213
   23MOL0     H 3102   4.671   3.525   6.183 -0.6900 -0.1425 -0.0223
   23MOL0     H 3103   4.451   3.705   6.032  1.1519 -1.4788 -1.8100
   23MOL0     H 3104   4.463   3.530   6.075  2.9458  1.1328  1.2516
   23MOL0     H 3105   4.320   3.624   6.120  0.3168 -2.0145  0.1180
   24MOL0     O 3106   8.496   7.400   7.892  0.1763  0.0537  0.2401
   24MOL0     C 3107   8.519   7.286   7.931  0.6715 -0.9871  0.2858
   24MOL0     O 3108   8.647   7.236   7.977  1.2199 -0.2432 -0.3720
   24MOL0     C 3109   8.761   7.303   8.012 -0.1329  0.9356  0.2081
   24MOL0     C 3110   8.778   7.447   7.996  0.1058  0.0224  0.6867
   24MOL0     C 3111   8.885   7.508   8.029 -0.3096 -0.2981  0.8318
   24MOL0     C 3112   8.990   7.434   8.092  0.4653 -0.0814  0.1942
   24MOL0     O 3113   9.103   7.500   8.133  0.7424  0.2575  0.1059
   24MOL0     C 3114   9.231   7.435   8.111  0.3113 -0.0314  0.1406
   24MOL0     C 3115   9.353   7.532   8.125  0.1765 -0.5178  0.1245
   24MOL0     C 3116   9.372   7.616   7.999  0.3659  0.5212  0.1332
   24MOL0     C 3117   9.433   7.748   8.034  0.6479  0.5838 -0.1899
   24MOL0     C 3118   9.489   7.825   7.915  0.4869  0.6165  1.4907
   24MOL0     C 3119   9.529   7.973   7.953  0.4705  0.8530 -0.7571
   24MOL0     C 3120   9.584   7.986   8.096 -0.2489 -0.7390 -0.4647
   24MOL0     C 3121   9.593   8.131   8.127  0.0629  0.1594  0.1140
   24MOL0     N 3122   9.705   8.200   8.062 -0.2841 -0.1157  0.0452
   24MOL0     C 3123   9.842   8.185   8.076  0.5236  0.3802 -0.5114
   24MOL0     C 3124   9.893   8.275   7.988  0.0680 -0.6485  0.0070
   24MOL0     C 3125  10.038   8.308   7.975 -0.4188  0.3070  0.6931
   24MOL0     C 3126  10.059   8.394   7.848  0.2407  0.4782  0.9075
   24MOL0     C 3127  10.203   8.423   7.792 -0.5777 -0.2679  0.5446
   24MOL0     C 3128  10.261   8.340   7.676 -0.1974 -0.2866 -0.3374
   24MOL0     O 3129  10.304   8.224   7.741 -0.5358 -0.2855  0.5444
   24MOL0     C 3130  10.354   8.121   7.673  0.3519  0.0273  0.0479
   24MOL0     C 3131  10.382   8.003   7.746  0.0884  0.0790  1.1908
   24MOL0     C 3132  10.431   7.894   7.671  1.0933  0.6449  0.1393
   24MOL0     C 3133  10.457   7.904   7.529  0.4619 -0.0139 -0.2554
   24MOL0     C 3134  10.508   7.791   7.439 -0.2023 -0.5995 -0.9722
   24MOL0     O 3135  10.498   7.811   7.301  0.6205  0.1696 -0.3059
   24MOL0     C 3136  10.578   7.771   7.198 -0.4172  0.1072  0.5638
   24MOL0     C 3137  10.695   7.687   7.215  0.0617 -0.1983  0.2114
   24MOL0     C 3138  10.758   7.629   7.100  0.3441 -0.5415  0.0092
   24MOL0     C 3139  10.696   7.652   6.975  0.6943  1.2527  0.8426
   24MOL0     O 3140  10.765   7.598   6.871  0.0269  0.5805 -0.2320
   24MOL0     C 3141  10.721   7.472   6.826  0.4859 -0.3739  0.4326
   24MOL0     C 3142  10.595   7.505   6.729 -0.5399 -0.2870 -0.5637
   24MOL0     C 3143  10.601   7.374   6.643 -0.5601 -0.2615 -0.1325
   24MOL0     C 3144  10.493   7.357   6.527 -0.2124 -0.9288 -0.4325
   24MOL0     C 3145  10.470   7.212   6.478 -0.5452  0.1442  0.5185
   24MOL0     C 3146  10.365   7.210   6.369 -0.4706 -0.3053 -1.2208
   24MOL0     C 3147  10.223   7.222   6.421 -0.0720 -1.3012  0.0423
   24MOL0     C 3148  10.128   7.185   6.313  0.0790 -0.9697 -0.3998
   24MOL0    Cl 3149   9.963   7.233   6.371 -0.4488  0.1094  0.0143
   24MOL0     C 3150  10.583   7.733   6.960 -0.8657  0.4967  0.4842
   24MOL0     C 3151  10.518   7.795   7.073  0.0064  1.0335  0.4691
   24MOL0     O 3152  10.578   7.711   7.498 -0.1449  0.2668  0.8928
   24MOL0     C 3153  10.428   8.021   7.467 -1.3918  0.3479 -0.0766
   24MOL0     C 3154  10.369   8.125   7.533  0.1929 -0.7341 -0.1696
   24MOL0     N 3155   9.788   8.343   7.940  0.1695 -0.8508 -0.4944
   24MOL0     N 3156   9.676   8.289   7.976  0.7350 -0.8807 -0.1448
   24MOL0     C 3157   8.975   7.287   8.103  0.5417 -0.2616 -0.3758
   24MOL0     C 3158   8.859   7.224   8.068 -0.0137 -0.6956  0.9397
   24MOL0     C 3159   8.417   7.177   7.912 -0.0853 -1.2181 -0.4821
   24MOL0     C 3160   8.447   7.044   7.953  0.3983 -0.3329  0.3427
   24MOL0     C 3161   8.340   6.949   7.950 -0.3362 -0.4666  0.4758
   24MOL0     C 3162   8.213   6.978   7.900 -0.9626 -0.0180  0.0667
   24MOL0     O 3163   8.117   6.879   7.879 -0.3813  0.8894 -0.8921
   24MOL0     C 3164   8.128   6.741   7.906  0.4819  0.5590  0.1183
   24MOL0     C 3165   8.191   6.675   7.778  0.4033 -0.1567 -0.5617
   24MOL0     C 3166   8.248   6.540   7.807  0.5432 -0.5481 -0.6885
   24MOL0     C 3167   8.314   6.465   7.696  0.8388 -0.3748  0.3870
   24MOL0     C 3168   8.441   6.522   7.643 -0.3250 -0.4623  0.8574
   24MOL0     C 3169   8.541   6.578   7.600 -1.3849 -0.0312 -0.7107
   24MOL0     C 3170   8.183   7.115   7.866 -0.5239  0.7294  0.1663
   24MOL0     C 3171   8.283   7.216   7.870 -1.3106  0.1486 -1.0552
   24MOL0     C 3172   8.234   7.347   7.826  0.6581 -1.0487  0.0103
   24MOL0     H 3173   8.696   7.503   7.953 -1.0573 -0.7674  1.7796
   24MOL0     H 3174   8.907   7.611   8.003 -1.5140 -0.0256  0.8558
   24MOL0     H 3175   9.254   7.355   8.182 -0.4496 -0.3613  0.0247
   24MOL0     H 3176   9.233   7.398   8.008 -2.3042 -0.0288  0.0152
   24MOL0     H 3177   9.442   7.472   8.146  1.7246  0.4716 -3.0047
   24MOL0     H 3178   9.338   7.595   8.213  1.7389  0.9330 -0.5852
   24MOL0     H 3179   9.276   7.619   7.947  1.7282 -3.0259 -3.0233
   24MOL0     H 3180   9.437   7.565   7.927 -0.6215 -2.3872  1.1405
   24MOL0     H 3181   9.357   7.806   8.088 -1.6010 -3.2765  1.2149
   24MOL0     H 3182   9.523   7.742   8.095  1.0852 -2.1651 -0.9877
   24MOL0     H 3183   9.573   7.773   7.867  0.0829  2.8877 -2.0746
   24MOL0     H 3184   9.422   7.839   7.829  2.2002  0.7455  0.1290
   24MOL0     H 3185   9.587   8.022   7.875  0.8158  2.5877  0.5345
   24MOL0     H 3186   9.429   8.018   7.955 -0.4503 -0.5817 -4.7333
   24MOL0     H 3187   9.682   7.937   8.094  0.9584  1.5529 -1.5202
   24MOL0     H 3188   9.525   7.941   8.176 -1.9745  1.5716 -0.3598
   24MOL0     H 3189   9.497   8.176   8.100  0.4072  1.3521  0.8114
   24MOL0     H 3190   9.605   8.146   8.234  0.1673  0.0886  0.1126
   24MOL0     H 3191   9.898   8.121   8.143 -0.0618  0.2320 -0.1577
   24MOL0     H 3192  10.068   8.358   8.067 -2.5888  2.0496  0.5574
   24MOL0     H 3193  10.080   8.208   7.971 -0.3219  0.1644  3.3543
   24MOL0     H 3194  10.002   8.352   7.765  2.7937 -1.8963  0.2135
   24MOL0     H 3195  10.020   8.495   7.864  1.2289  0.7478  1.7357
   24MOL0     H 3196  10.272   8.420   7.877 -0.6914  1.9911  0.7964
   24MOL0     H 3197  10.200   8.525   7.752  3.2464 -0.4962 -0.7431
   24MOL0     H 3198  10.346   8.390   7.628 -1.6215  3.2092  0.4333
   24MOL0     H 3199  10.175   8.325   7.611 -0.7340  0.6567  0.1268
   24MOL0     H 3200  10.354   7.999   7.851 -1.9804  0.3302  0.6925
   24MOL0     H 3201  10.422   7.801   7.726 -1.8896  2.3816  3.0428
   24MOL0     H 3202  10.726   7.670   7.318  0.4219  1.6625  0.4473
   24MOL0     H 3203  10.850   7.571   7.106 -0.5428 -1.9118  1.1991
   24MOL0     H 3204  10.799   7.425   6.765 -2.1606 -0.0672 -3.5426
   24MOL0     H 3205  10.698   7.393   6.898  1.4904 -2.1080 -1.0618
   24MOL0     H 3206  10.505   7.507   6.790 -1.0290 -3.0173 -1.1107
   24MOL0     H 3207  10.616   7.597   6.672 -1.1026 -0.0659 -0.4233
   24MOL0     H 3208  10.696   7.350   6.594  0.6943  2.0806  0.9858
   24MOL0     H 3209  10.583   7.293   6.715 -1.5850  0.6823  0.7107
   24MOL0     H 3210  10.521   7.420   6.442  3.8442  0.2144  1.5333
   24MOL0     H 3211  10.396   7.389   6.565 -0.4112 -0.0949 -1.5975
   24MOL0     H 3212  10.443   7.136   6.552 -1.6230  0.3069  0.3031
   24MOL0     H 3213  10.563   7.173   6.436  0.0897  2.1193  0.0090
   24MOL0     H 3214  10.385   7.294   6.302 -1.6392  1.5262  0.6418
   24MOL0     H 3215  10.388   7.114   6.321  0.2079 -0.2517 -1.0159
   24MOL0     H 3216  10.215   7.330   6.441  0.2482 -1.6045  1.9678
   24MOL0     H 3217  10.205   7.174   6.517 -2.1060 -1.5400 -0.4130
   24MOL0     H 3218  10.146   7.244   6.222  0.5770  0.6251  0.7027
   24MOL0     H 3219  10.117   7.081   6.281 -1.2818 -0.4898 -1.6362
   24MOL0     H 3220  10.561   7.763   6.858 -0.5784 -1.9161 -0.3488
   24MOL0     H 3221  10.437   7.865   7.056 -1.2314 -0.7922 -1.8499
   24MOL0     H 3222  10.440   8.040   7.361  1.3624 -0.7812 -0.0709
   24MOL0     H 3223  10.351   8.215   7.475 -1.8317  0.4779  2.1194
   24MOL0     H 3224   9.061   7.240   8.151  1.9569  3.2540  0.8950
   24MOL0     H 3225   8.851   7.116   8.075  1.5313 -0.8679  0.4357
   24MOL0     H 3226   8.552   7.034   7.981  1.2434  5.5080  0.4113
   24MOL0     H 3227   8.352   6.849   7.988  3.5604 -0.6258 -0.7039
   24MOL0     H 3228   8.028   6.701   7.928  0.4427  0.4465 -0.2531
   24MOL0     H 3229   8.184   6.728   7.999  2.3553  0.1563 -1.0112
   24MOL0     H 3230   8.283   6.725   7.749  0.1266 -0.0745 -1.3202
   24MOL0     H 3231   8.114   6.662   7.701 -0.2276  1.0195 -0.1532
   24MOL0     H 3232   8.166   6.484   7.851 -0.9699  1.9133 -0.1907
   24MOL0     H 3233   8.332   6.555   7.875  0.3595  0.8315 -0.7331
   24MOL0     H 3234   8.346   6.368   7.737 -2.0296 -2.2858 -1.5102
   24MOL0     H 3235   8.244   6.452   7.614  0.3760  2.6392  0.2033
   24MOL0     H 3236   8.621   6.628   7.550 -2.1899  3.1050  0.8575
   24MOL0     H 3237   8.080   7.135   7.841 -1.0419  0.5015  1.9878
   24MOL0     H 3238   8.303   7.390   7.753 -2.3582 -0.1342 -2.5446
   24MOL0     H 3239   8.136   7.339   7.778 -0.1927 -1.0072  1.6761
   24MOL0     H 3240   8.213   7.422   7.902 -2.2183 -1.8651  0.1526
   25MOL0     O 3241   6.277   8.439   0.099  0.0431 -0.1551 -0.3172
   25MOL0     C 3242   6.296   8.533   0.187 -0.7243 -0.3613  0.4395
   25MOL0     O 3243   6.345   8.508   0.312 -0.0343 -0.6748  0.0230
   25MOL0     C 3244   6.433   8.405   0.341 -0.0404 -0.5323  0.7049
   25MOL0     C 3245   6.415   8.325   0.446  1.3103  0.5255  0.2282
   25MOL0     C 3246   6.488   8.203   0.463  0.6227 -0.4762  0.3451
   25MOL0     C 3247   6.585   8.161   0.371 -0.3111  0.2812  0.4284
   25MOL0     O 3248   6.654   8.046   0.391 -0.1663 -0.3253  0.4104
   25MOL0     C 3249   6.772   8.049   0.473 -0.3505  0.1895  0.6400
   25MOL0     C 3250   6.807   7.910   0.528  0.2732  0.5413 -0.1619
   25MOL0     C 3251   6.714   7.852   0.640  0.6395 -0.2229  0.2097
   25MOL0     C 3252   6.564   7.836   0.601 -0.5187  0.0521  0.1732
   25MOL0     C 3253   6.537   7.737   0.478 -1.6546  0.2017  0.1989
   25MOL0     C 3254   6.388   7.730   0.468 -0.4298 -0.4027 -0.9845
   25MOL0     C 3255   6.347   7.628   0.355  0.0382  0.2172 -0.4498
   25MOL0     C 3256   6.406   7.487   0.351  1.7006  0.3292 -0.5015
   25MOL0     N 3257   6.533   7.451   0.278 -0.3003  0.6575 -0.0759
   25MOL0     C 3258   6.584   7.517   0.173 -0.0862  1.2734 -0.5293
   25MOL0     C 3259   6.715   7.485   0.185  0.5020 -0.0744  0.2199
   25MOL0     C 3260   6.834   7.532   0.097  0.2638  0.1823  0.0935
   25MOL0     C 3261   6.875   7.675   0.128  1.5252 -0.6954 -0.0292
   25MOL0     C 3262   6.777   7.776   0.085 -0.0572  0.0211  1.1053
   25MOL0     C 3263   6.848   7.891   0.019  0.5307 -0.1230 -0.1514
   25MOL0     O 3264   6.754   7.996   0.002  0.3155 -0.1766 -0.4841
   25MOL0     C 3265   6.684   8.021  -0.113 -0.3415  0.1622 -0.9380
   25MOL0     C 3266   6.614   8.139  -0.121  0.7947 -0.6785  0.9348
   25MOL0     C 3267   6.548   8.179  -0.247  0.1563  0.1911  0.7396
   25MOL0     C 3268   6.542   8.085  -0.353 -0.1097 -0.5943 -0.1898
   25MOL0     C 3269   6.460   8.105  -0.473  0.8742 -0.5372 -0.0386
   25MOL0     O 3270   6.444   8.006  -0.564 -0.1232  0.2324 -0.6236
   25MOL0     C 3271   6.393   8.028  -0.695  0.5661  0.1962  0.1966
   25MOL0     C 3272   6.312   7.933  -0.742  0.7247  0.1075  0.6940
   25MOL0     C 3273   6.270   7.932  -0.874  0.0787 -0.9376  0.4655
   25MOL0     C 3274   6.313   8.028  -0.966 -0.4081 -1.3392 -0.0965
   25MOL0     O 3275   6.273   8.054  -1.096 -0.8520  0.7540 -0.2297
   25MOL0     C 3276   6.188   7.947  -1.148  0.0373  0.3936  0.0998
   25MOL0     C 3277   6.158   7.985  -1.299  0.1523  0.1848 -0.6714
   25MOL0     C 3278   6.088   7.869  -1.360 -0.0517  0.6754  0.0564
   25MOL0     C 3279   6.077   7.896  -1.511  0.0095  0.4001 -0.4390
   25MOL0     C 3280   6.015   7.769  -1.574 -0.1588  0.3571  0.3322
   25MOL0     C 3281   6.090   7.635  -1.559  0.2720 -0.7257  0.2579
   25MOL0     C 3282   6.028   7.523  -1.637 -0.9324  0.7194 -0.9637
   25MOL0     C 3283   6.070   7.378  -1.594 -0.3958 -0.7820  0.1441
   25MOL0    Cl 3284   6.249   7.378  -1.602 -0.2799  0.1336 -0.5076
   25MOL0     C 3285   6.403   8.131  -0.922 -0.2710  0.4598  0.0533
   25MOL0     C 3286   6.443   8.131  -0.786 -0.9443 -0.0794 -1.0443
   25MOL0     O 3287   6.398   8.216  -0.479  0.4909 -0.3073 -0.2551
   25MOL0     C 3288   6.611   7.964  -0.338 -1.2236  0.0618  0.2495
   25MOL0     C 3289   6.690   7.933  -0.226  0.2411 -0.1188  0.2998
   25MOL0     N 3290   6.736   7.391   0.286 -0.6084 -0.3391  0.2306
   25MOL0     N 3291   6.629   7.373   0.347 -1.0040 -0.5518 -0.2932
   25MOL0     C 3292   6.598   8.239   0.254 -0.4020  0.7169 -0.1250
   25MOL0     C 3293   6.524   8.360   0.242  1.2392  0.5596  0.8148
   25MOL0     C 3294   6.255   8.669   0.138  0.4876 -0.5959 -0.0233
   25MOL0     C 3295   6.195   8.745   0.241 -1.0424  0.1770 -0.5319
   25MOL0     C 3296   6.141   8.876   0.212  0.2264 -0.2826 -0.9628
   25MOL0     C 3297   6.147   8.924   0.080  0.6373  0.0383  0.2351
   25MOL0     O 3298   6.107   9.043   0.035 -0.3595  0.0818 -0.1560
   25MOL0     C 3299   6.099   9.143   0.138 -0.1232 -0.4228 -0.0677
   25MOL0     C 3300   6.121   9.280   0.069  0.2894  0.3483 -0.7943
   25MOL0     C 3301   6.149   9.386   0.180 -0.3831  0.0258  0.3908
   25MOL0     C 3302   6.160   9.533   0.132  0.7409 -0.2617  0.6267
   25MOL0     C 3303   6.033   9.598   0.151  0.7092  0.0955  0.7426
   25MOL0     C 3304   5.925   9.656   0.167 -0.4436 -0.3339 -0.1607
   25MOL0     C 3305   6.203   8.846  -0.018  0.2107 -0.2666  0.0537
   25MOL0     C 3306   6.252   8.719   0.009  0.2724  0.8421 -0.2264
   25MOL0     C 3307   6.313   8.635  -0.112  0.4832  0.2598  0.7588
   25MOL0     H 3308   6.347   8.354   0.526 -1.1808 -0.6973 -1.3174
   25MOL0     H 3309   6.464   8.131   0.540  1.5532 -0.8395  0.3075
   25MOL0     H 3310   6.857   8.098   0.425 -2.4774  3.3299 -0.2432
   25MOL0     H 3311   6.748   8.109   0.561 -2.3792  0.5701 -0.1096
   25MOL0     H 3312   6.910   7.919   0.564 -0.4423  0.5133  2.0376
   25MOL0     H 3313   6.802   7.841   0.444  2.3509  1.9988 -1.5704
   25MOL0     H 3314   6.714   7.919   0.726  0.1748 -1.8197  1.5094
   25MOL0     H 3315   6.748   7.753   0.669  0.0691 -0.1071  1.3167
   25MOL0     H 3316   6.506   7.805   0.688 -0.4317  1.6906  0.8506
   25MOL0     H 3317   6.524   7.935   0.578  0.1503  0.4169  0.5493
   25MOL0     H 3318   6.564   7.794   0.388 -1.0658 -1.2988 -0.6025
   25MOL0     H 3319   6.592   7.645   0.500 -0.6438  0.7738  0.1347
   25MOL0     H 3320   6.358   7.680   0.561  1.2402  0.1791 -0.0938
   25MOL0     H 3321   6.344   7.830   0.464  2.1701  0.8989  0.3929
   25MOL0     H 3322   6.354   7.666   0.253  1.8227 -1.9103 -1.2166
   25MOL0     H 3323   6.241   7.607   0.370  0.3035  0.4704  2.2774
   25MOL0     H 3324   6.407   7.440   0.450  0.0024 -1.4542 -1.2762
   25MOL0     H 3325   6.328   7.432   0.298  0.9662 -0.1212  0.9875
   25MOL0     H 3326   6.551   7.585   0.095 -0.3830  0.7002 -0.9049
   25MOL0     H 3327   6.918   7.474   0.137 -2.6872 -3.9122  0.9176
   25MOL0     H 3328   6.818   7.503  -0.007  0.6404 -1.9882  0.6061
   25MOL0     H 3329   6.882   7.673   0.237  3.7198 -1.2258 -0.1284
   25MOL0     H 3330   6.975   7.697   0.091  1.4989  1.0585  0.8578
   25MOL0     H 3331   6.703   7.813   0.157 -0.1587  0.7131  0.6468
   25MOL0     H 3332   6.718   7.730   0.006 -0.1540  0.6455  0.8065
   25MOL0     H 3333   6.897   7.870  -0.076  1.1427  2.9409 -0.6114
   25MOL0     H 3334   6.932   7.924   0.080 -0.3191  2.5633 -0.3248
   25MOL0     H 3335   6.621   8.203  -0.034 -0.1061  0.5086  0.1802
   25MOL0     H 3336   6.500   8.277  -0.251 -0.4187 -0.1311 -0.6375
   25MOL0     H 3337   6.286   7.843  -0.686 -1.2311  0.0754 -0.1655
   25MOL0     H 3338   6.195   7.860  -0.903 -1.6158  1.2272 -0.8124
   25MOL0     H 3339   6.255   7.864  -1.172 -0.9357 -0.9895  1.9032
   25MOL0     H 3340   6.095   7.935  -1.092  0.8688  0.1457  1.4884
   25MOL0     H 3341   6.084   8.065  -1.295 -0.7754 -0.7126  0.6073
   25MOL0     H 3342   6.247   8.023  -1.351 -0.3988  1.6098 -0.6171
   25MOL0     H 3343   6.148   7.780  -1.340 -1.8619 -0.4104  0.9520
   25MOL0     H 3344   5.989   7.841  -1.324 -0.1326 -0.1365 -0.7576
   25MOL0     H 3345   6.180   7.909  -1.545  1.0542 -0.8991  1.9747
   25MOL0     H 3346   6.029   7.993  -1.527  0.4872  1.1500  2.2121
   25MOL0     H 3347   6.009   7.784  -1.683  2.7739 -0.8742 -0.0942
   25MOL0     H 3348   5.911   7.759  -1.541  0.2725  0.3154  1.7162
   25MOL0     H 3349   6.191   7.651  -1.599 -0.2548 -2.3107 -1.9354
   25MOL0     H 3350   6.097   7.596  -1.457  0.5894 -0.2160  0.4329
   25MOL0     H 3351   6.043   7.543  -1.743 -0.2607  2.1347 -0.6220
   25MOL0     H 3352   5.922   7.526  -1.607  0.0532  0.8028  3.1708
   25MOL0     H 3353   6.027   7.359  -1.496 -0.1941  1.9170  0.8323
   25MOL0     H 3354   6.028   7.299  -1.657  0.6047 -0.6806 -0.6897
   25MOL0     H 3355   6.429   8.217  -0.984 -0.1057  2.0135  2.1945
   25MOL0     H 3356   6.520   8.201  -0.754  0.1089 -1.8970  0.6472
   25MOL0     H 3357   6.606   7.884  -0.411  3.5299  0.3341 -0.7049
   25MOL0     H 3358   6.729   7.832  -0.220 -1.0138 -0.8373 -2.3340
   25MOL0     H 3359   6.677   8.223   0.181 -1.2088 -0.1060 -0.8332
   25MOL0     H 3360   6.542   8.410   0.147  4.3022 -1.9948 -0.1511
   25MOL0     H 3361   6.180   8.705   0.340 -4.3948  1.1653 -0.5092
   25MOL0     H 3362   6.090   8.938   0.284 -1.7854 -1.6819 -1.1241
   25MOL0     H 3363   6.183   9.131   0.207  0.7132  2.9929 -0.3264
   25MOL0     H 3364   6.008   9.134   0.197  0.8721  0.3111  1.6457
   25MOL0     H 3365   6.038   9.317   0.008 -0.5252 -0.3113 -0.1124
   25MOL0     H 3366   6.197   9.278  -0.009 -1.6489 -0.0859 -2.7513
   25MOL0     H 3367   6.246   9.354   0.219  0.1788  1.1444 -0.0406
   25MOL0     H 3368   6.079   9.377   0.263 -0.1913 -1.5275  0.4190
   25MOL0     H 3369   6.227   9.589   0.198 -0.2795  2.2254 -0.3126
   25MOL0     H 3370   6.205   9.535   0.033 -0.8383 -1.8808 -0.1810
   25MOL0     H 3371   5.860   9.737   0.191  2.9541  2.3602  0.7543
   25MOL0     H 3372   6.222   8.884  -0.118  3.9156 -3.0330 -0.4914
   25MOL0     H 3373   6.242   8.581  -0.174 -2.1911  1.9595  2.1178
   25MOL0     H 3374   6.358   8.708  -0.179 -0.1206  2.2501  2.4041
   25MOL0     H 3375   6.389   8.570  -0.066 -1.7601  0.2016  4.8974
   26MOL0     O 3376   3.981   8.127   1.726  0.3442  0.8336 -0.0185
   26MOL0     C 3377   3.964   8.038   1.807 -0.9400  0.2183 -0.0722
   26MOL0     O 3378   3.855   8.026   1.882  0.3737 -0.3784 -0.3460
   26MOL0     C 3379   3.752   8.119   1.887 -0.2937  0.5902 -0.3162
   26MOL0     C 3380   3.694   8.170   1.773  0.1493  0.4861  0.6717
   26MOL0     C 3381   3.593   8.264   1.790  0.0542 -0.0269  1.3302
   26MOL0     C 3382   3.536   8.289   1.919  1.1009  0.7307  0.6145
   26MOL0     O 3383   3.415   8.362   1.924 -0.0775 -0.5163 -1.2375
   26MOL0     C 3384   3.328   8.362   1.807 -0.1652  0.0022  0.2168
   26MOL0     C 3385   3.201   8.423   1.860  0.6764  0.2665 -0.8922
   26MOL0     C 3386   3.071   8.388   1.782 -0.0308 -0.9544 -0.4021
   26MOL0     C 3387   2.944   8.452   1.851  0.4529  0.6328 -0.4038
   26MOL0     C 3388   2.821   8.441   1.765 -0.6236  0.8452  0.6201
   26MOL0     C 3389   2.778   8.293   1.732 -0.4572  0.3969 -0.1878
   26MOL0     C 3390   2.638   8.289   1.673  0.3101 -0.7685  0.3105
   26MOL0     C 3391   2.594   8.153   1.633  1.0579 -0.2776  0.5702
   26MOL0     N 3392   2.644   8.110   1.506 -0.7943 -0.3527 -0.4883
   26MOL0     C 3393   2.568   8.082   1.396 -0.0052  0.2498  0.4376
   26MOL0     C 3394   2.646   8.027   1.303  0.0087  1.1439 -0.0997
   26MOL0     C 3395   2.586   7.969   1.175 -0.5393  1.1263 -0.3131
   26MOL0     C 3396   2.670   8.014   1.062 -0.1233  0.2431  0.5849
   26MOL0     C 3397   2.640   7.949   0.917  0.3044  0.0061  0.1277
   26MOL0     C 3398   2.532   8.027   0.841  0.7400 -0.1268  0.7986
   26MOL0     O 3399   2.401   8.004   0.895 -0.0544  0.7119 -0.2921
   26MOL0     C 3400   2.361   7.869   0.904  0.8598  1.1298  0.4978
   26MOL0     C 3401   2.348   7.799   0.781  0.4920 -0.5060  0.3930
   26MOL0     C 3402   2.320   7.657   0.777  0.9334  0.4382 -0.2151
   26MOL0     C 3403   2.323   7.584   0.901  0.6401 -0.0410  0.6958
   26MOL0     C 3404   2.319   7.437   0.891 -0.7129 -0.6119 -0.2973
   26MOL0     O 3405   2.331   7.383   0.765 -0.1746 -0.4383 -0.0755
   26MOL0     C 3406   2.332   7.246   0.743 -0.5698 -0.1852 -0.3993
   26MOL0     C 3407   2.230   7.161   0.799 -0.5163 -0.0619 -0.8570
   26MOL0     C 3408   2.234   7.027   0.782 -0.9657  0.8204  1.4099
   26MOL0     C 3409   2.339   6.967   0.707  0.1425 -0.1556  0.0604
   26MOL0     O 3410   2.335   6.839   0.684 -0.2875 -0.8515  0.8380
   26MOL0     C 3411   2.257   6.788   0.570  0.8378 -1.1468 -0.4698
   26MOL0     C 3412   2.348   6.790   0.450  0.1138  0.9547 -0.8699
   26MOL0     C 3413   2.270   6.717   0.341 -0.5593 -1.4003 -0.2235
   26MOL0     C 3414   2.369   6.685   0.227 -0.0028 -0.3676 -0.5409
   26MOL0     C 3415   2.306   6.621   0.106 -0.6299  0.0074 -0.4204
   26MOL0     C 3416   2.256   6.478   0.120 -0.0228  0.7056 -0.1846
   26MOL0     C 3417   2.235   6.401  -0.010 -0.3270 -0.7555  0.6159
   26MOL0     C 3418   2.131   6.291  -0.016  0.8027  1.1283  0.6427
   26MOL0    Cl 3419   2.199   6.163   0.090 -0.7629 -0.0679  0.4468
   26MOL0     C 3420   2.436   7.048   0.655  0.4076 -0.0983  0.9184
   26MOL0     C 3421   2.433   7.187   0.676 -0.0820 -0.3255  0.3274
   26MOL0     O 3422   2.323   7.379   1.000 -0.3166 -0.7610 -0.2732
   26MOL0     C 3423   2.329   7.649   1.014  0.3001 -0.2829  0.7666
   26MOL0     C 3424   2.351   7.788   1.026 -0.4398 -0.6969  0.3894
   26MOL0     N 3425   2.775   8.019   1.356 -0.1984 -0.6664 -0.2562
   26MOL0     N 3426   2.776   8.081   1.474  0.4163  0.5198  0.0459
   26MOL0     C 3427   3.589   8.233   2.033  0.9692 -0.4261  1.1843
   26MOL0     C 3428   3.701   8.147   2.010 -0.1574 -0.0647 -0.4569
   26MOL0     C 3429   4.075   7.945   1.841  0.4373  0.0488  0.4902
   26MOL0     C 3430   4.049   7.829   1.915  0.1067 -0.8757 -1.1032
   26MOL0     C 3431   4.155   7.733   1.938  0.0856 -0.2267 -0.8532
   26MOL0     C 3432   4.282   7.754   1.892  0.3671  0.2146  0.8059
   26MOL0     O 3433   4.395   7.670   1.906  0.6599  0.0601 -0.1454
   26MOL0     C 3434   4.371   7.536   1.950 -0.2633  0.0647  0.2257
   26MOL0     C 3435   4.415   7.521   2.093  0.2688  0.6824 -0.1251
   26MOL0     C 3436   4.452   7.377   2.127 -0.2367  0.9248  0.0415
   26MOL0     C 3437   4.532   7.366   2.251  0.4614 -0.1556  0.4274
   26MOL0     C 3438   4.651   7.459   2.254  0.7872  0.1549 -0.2348
   26MOL0     C 3439   4.751   7.526   2.265  0.6690 -0.5174 -0.3157
   26MOL0     C 3440   4.307   7.879   1.828 -0.7871  0.9653 -0.7391
   26MOL0     C 3441   4.209   7.973   1.802  0.2810 -0.6489  0.1622
   26MOL0     C 3442   4.265   8.089   1.722  0.8427 -0.0829  0.4651
   26MOL0     H 3443   3.722   8.125   1.679  1.8571 -1.2572  1.9296
   26MOL0     H 3444   3.547   8.302   1.699 -2.1355 -2.1070  1.4779
   26MOL0     H 3445   3.359   8.429   1.726  1.3170 -0.9348 -0.0256
   26MOL0     H 3446   3.321   8.263   1.762  0.8649 -1.2720  2.7019
   26MOL0     H 3447   3.215   8.531   1.858 -2.0955  0.7333  0.0148
   26MOL0     H 3448   3.184   8.402   1.966 -2.1284  2.2589 -0.8272
   26MOL0     H 3449   3.062   8.279   1.768  2.8875 -0.9656 -3.5327
   26MOL0     H 3450   3.084   8.433   1.683 -0.4472  3.4351  1.3478
   26MOL0     H 3451   2.912   8.402   1.943 -3.8135 -1.8627 -2.9217
   26MOL0     H 3452   2.963   8.556   1.882  0.8974  0.1408  1.0505
   26MOL0     H 3453   2.744   8.489   1.826 -0.4609 -0.5693  2.0132
   26MOL0     H 3454   2.842   8.489   1.669 -0.3114  0.6526  0.5901
   26MOL0     H 3455   2.843   8.246   1.658 -0.9675  1.0026 -1.0527
   26MOL0     H 3456   2.784   8.240   1.827  2.5111  4.1729  2.0348
   26MOL0     H 3457   2.634   8.361   1.591  0.7268  3.4070  3.6229
   26MOL0     H 3458   2.577   8.311   1.761  0.6913 -0.8226  0.5888
   26MOL0     H 3459   2.618   8.084   1.714  0.3008  1.0660  1.9931
   26MOL0     H 3460   2.485   8.143   1.628  1.2755 -2.6600 -2.5303
   26MOL0     H 3461   2.460   8.082   1.391  0.0178 -1.6256 -3.0564
   26MOL0     H 3462   2.605   7.863   1.191 -0.1956  1.1817 -0.3282
   26MOL0     H 3463   2.481   7.996   1.164 -0.6893  1.6901  2.0323
   26MOL0     H 3464   2.653   8.119   1.037 -1.8966 -0.2060 -0.2294
   26MOL0     H 3465   2.778   8.007   1.072 -0.1044  0.1287  0.3082
   26MOL0     H 3466   2.621   7.842   0.929 -2.0596  0.3116 -0.4212
   26MOL0     H 3467   2.736   7.954   0.864  1.0503 -1.0428  1.3099
   26MOL0     H 3468   2.535   8.008   0.733 -2.0206 -0.0258  0.6079
   26MOL0     H 3469   2.549   8.135   0.847  0.9980 -0.2379  2.9694
   26MOL0     H 3470   2.326   7.860   0.694 -0.9146  0.0547  1.1034
   26MOL0     H 3471   2.299   7.605   0.684  4.4607 -1.7818  0.0250
   26MOL0     H 3472   2.152   7.194   0.867  1.5297 -1.2615  2.3283
   26MOL0     H 3473   2.158   6.962   0.825 -0.7172  0.4357  1.2731
   26MOL0     H 3474   2.214   6.693   0.602 -0.3516  0.0630  1.7922
   26MOL0     H 3475   2.164   6.844   0.558  1.1026 -0.7638 -0.7799
   26MOL0     H 3476   2.382   6.891   0.425  0.9739  1.4886  2.1195
   26MOL0     H 3477   2.434   6.728   0.475  0.3250  0.2496 -3.0852
   26MOL0     H 3478   2.215   6.628   0.373 -4.9837  0.9944 -0.4100
   26MOL0     H 3479   2.189   6.777   0.299 -3.0173 -1.8169  3.4114
   26MOL0     H 3480   2.464   6.646   0.263  1.1271 -0.5419 -3.5042
   26MOL0     H 3481   2.395   6.784   0.188 -1.5246  0.0629 -0.5621
   26MOL0     H 3482   2.386   6.630   0.032 -0.8505 -1.3853 -0.8688
   26MOL0     H 3483   2.232   6.688   0.061  0.4180  3.1635  2.1442
   26MOL0     H 3484   2.325   6.425   0.186  0.7576  1.1101 -0.6640
   26MOL0     H 3485   2.164   6.473   0.179  1.0897  1.1154  1.6543
   26MOL0     H 3486   2.334   6.359  -0.033 -0.2851 -0.2827 -0.1206
   26MOL0     H 3487   2.233   6.481  -0.085  1.5336 -1.1795  0.0484
   26MOL0     H 3488   2.035   6.329   0.020  0.0350  1.5265 -1.6439
   26MOL0     H 3489   2.118   6.251  -0.117  3.1081 -2.8109  1.6801
   26MOL0     H 3490   2.518   6.993   0.610  0.2986 -0.8869  1.6521
   26MOL0     H 3491   2.510   7.255   0.642 -0.4922 -0.6128 -1.2574
   26MOL0     H 3492   2.331   7.603   1.112  1.0324  1.4042  1.5983
   26MOL0     H 3493   2.351   7.828   1.127 -1.4984 -0.9007  0.4821
   26MOL0     H 3494   3.551   8.249   2.133 -0.5556  0.6073  0.4788
   26MOL0     H 3495   3.751   8.089   2.088  0.9406  1.2273 -0.1675
   26MOL0     H 3496   3.950   7.796   1.943  0.7339 -1.2273  0.8113
   26MOL0     H 3497   4.129   7.635   1.979 -2.2288 -0.6867 -3.1108
   26MOL0     H 3498   4.442   7.480   1.888 -1.5736  2.2436 -3.6090
   26MOL0     H 3499   4.267   7.500   1.942 -0.6851 -0.4948  5.2405
   26MOL0     H 3500   4.337   7.565   2.157  0.0494  2.4415 -1.5147
   26MOL0     H 3501   4.498   7.590   2.108 -0.5751  1.5477  0.7848
   26MOL0     H 3502   4.531   7.343   2.059  0.8517 -2.4469  2.6996
   26MOL0     H 3503   4.366   7.310   2.115  1.2288 -0.8128 -1.4321
   26MOL0     H 3504   4.463   7.362   2.336 -0.5008 -2.4222 -0.3804
   26MOL0     H 3505   4.555   7.259   2.253 -2.6065 -0.9401 -0.5099
   26MOL0     H 3506   4.844   7.575   2.287 -0.1093 -0.0068  2.2499
   26MOL0     H 3507   4.411   7.896   1.801 -0.4329 -1.0674 -0.7708
   26MOL0     H 3508   4.234   8.077   1.618 -1.3013  1.0352  0.9152
   26MOL0     H 3509   4.238   8.188   1.759 -0.2274 -0.4449  0.6872
   26MOL0     H 3510   4.373   8.084   1.708  0.6053 -1.6601 -1.1949
   27MOL0     O 3511   6.840   5.573   4.186  0.0864  0.4017  0.1337
   27MOL0     C 3512   6.884   5.451   4.171 -0.3080 -0.8499 -1.2098
   27MOL0     O 3513   6.948   5.380   4.275  0.2083  0.3661  0.2854
   27MOL0     C 3514   6.972   5.448   4.387  0.2792 -0.4624 -0.3003
   27MOL0     C 3515   6.871   5.450   4.481 -0.1110  0.1447 -0.0365
   27MOL0     C 3516   6.892   5.516   4.605  0.3679  0.2489  0.1412
   27MOL0     C 3517   7.013   5.585   4.628 -0.2061  0.1510 -0.3496
   27MOL0     O 3518   7.031   5.644   4.758  0.2157 -0.2375 -0.0934
   27MOL0     C 3519   6.937   5.615   4.857 -0.7041 -0.6326  0.1410
   27MOL0     C 3520   7.007   5.630   4.989  0.2255  0.4766  0.7910
   27MOL0     C 3521   7.059   5.774   5.008  0.2832  0.1789 -0.8078
   27MOL0     C 3522   7.078   5.813   5.156 -0.4654 -0.7037  0.6074
   27MOL0     C 3523   7.099   5.976   5.149  0.8513 -0.0502  0.8948
   27MOL0     C 3524   7.133   6.031   5.283  1.2623 -0.7202 -0.0366
   27MOL0     C 3525   7.115   6.180   5.290  0.4309 -0.2624 -0.2797
   27MOL0     C 3526   7.204   6.226   5.407  0.1057  0.2162  0.2318
   27MOL0     N 3527   7.207   6.371   5.421  0.3776 -0.3701 -0.4247
   27MOL0     C 3528   7.149   6.437   5.526 -0.5315  0.2896 -0.3471
   27MOL0     C 3529   7.209   6.560   5.521 -0.7124 -0.4796 -0.4362
   27MOL0     C 3530   7.185   6.678   5.603 -0.1666 -0.5392 -0.1682
   27MOL0     C 3531   7.205   6.659   5.745 -0.3086 -0.3703 -0.2218
   27MOL0     C 3532   7.337   6.602   5.787  0.2288  0.1717 -0.2138
   27MOL0     C 3533   7.465   6.676   5.746  0.5927 -0.1154  0.1457
   27MOL0     O 3534   7.569   6.661   5.838  0.1121 -0.0762 -0.5711
   27MOL0     C 3535   7.596   6.748   5.940  0.6491  0.0390 -0.4984
   27MOL0     C 3536   7.634   6.692   6.060  0.7643 -0.6007 -1.2465
   27MOL0     C 3537   7.659   6.771   6.170 -0.6637 -0.7239  0.1094
   27MOL0     C 3538   7.660   6.915   6.160  0.1186  0.3334  0.4675
   27MOL0     C 3539   7.680   7.000   6.286  0.5473  0.3931 -0.2343
   27MOL0     O 3540   7.703   6.946   6.413  0.3560  0.0132 -0.3814
   27MOL0     C 3541   7.750   7.034   6.513 -0.9267  0.4272  0.8396
   27MOL0     C 3542   7.699   7.154   6.553  0.8644  0.0497  0.5495
   27MOL0     C 3543   7.761   7.228   6.652 -0.1373  0.4548 -1.0801
   27MOL0     C 3544   7.883   7.184   6.712 -0.3494  0.0326 -0.1478
   27MOL0     O 3545   7.951   7.276   6.797  0.0045  0.8715  0.0585
   27MOL0     C 3546   8.058   7.240   6.881  0.0061  0.4346 -1.0773
   27MOL0     C 3547   8.087   7.354   6.984  1.1005  0.8097  0.5975
   27MOL0     C 3548   8.177   7.306   7.102 -0.7199  0.0553  0.0589
   27MOL0     C 3549   8.112   7.202   7.200  0.3210 -0.1418 -1.0997
   27MOL0     C 3550   8.197   7.178   7.319 -0.4490 -0.8538 -0.5877
   27MOL0     C 3551   8.133   7.083   7.411  0.6049 -0.1722  0.2603
   27MOL0     C 3552   8.208   7.039   7.537 -0.0560 -0.9887 -0.2346
   27MOL0     C 3553   8.332   6.964   7.513  0.6203 -0.3408  0.3673
   27MOL0    Cl 3554   8.304   6.822   7.414  0.4862 -0.0368 -0.1009
   27MOL0     C 3555   7.937   7.070   6.662  0.6285  0.3714  0.2597
   27MOL0     C 3556   7.865   6.994   6.575 -0.1374 -0.1318  0.5524
   27MOL0     O 3557   7.671   7.117   6.256  0.9787  0.4589 -0.1862
   27MOL0     C 3558   7.643   6.970   6.030  0.3688 -0.6930  0.2491
   27MOL0     C 3559   7.604   6.886   5.921 -0.7585  0.4453  1.3351
   27MOL0     N 3560   7.315   6.556   5.431  0.1874 -0.2963  0.4537
   27MOL0     N 3561   7.305   6.447   5.362  0.7330 -0.1742 -0.0348
   27MOL0     C 3562   7.115   5.588   4.530  0.3545  1.0628 -0.6075
   27MOL0     C 3563   7.094   5.512   4.411 -0.0666 -1.2396 -0.1455
   27MOL0     C 3564   6.876   5.377   4.048  0.3970  0.3378  0.8391
   27MOL0     C 3565   6.893   5.234   4.043  0.3367 -0.2571 -0.1549
   27MOL0     C 3566   6.889   5.155   3.928 -1.1378 -0.0368  1.0510
   27MOL0     C 3567   6.887   5.222   3.803  0.3959  0.3398  0.2228
   27MOL0     O 3568   6.895   5.153   3.682  0.1442  0.5569  0.1701
   27MOL0     C 3569   6.881   5.007   3.680 -0.0217 -0.1700  0.1058
   27MOL0     C 3570   6.899   4.977   3.536  0.0911  0.5858  0.3652
   27MOL0     C 3571   7.039   4.985   3.486 -0.1155 -0.9524  1.1190
   27MOL0     C 3572   7.036   4.973   3.334 -0.3408  0.1657  0.6905
   27MOL0     C 3573   6.999   4.844   3.286  0.1056  0.1074 -0.0765
   27MOL0     C 3574   6.963   4.740   3.241  0.4444  0.1705  0.1184
   27MOL0     C 3575   6.857   5.364   3.801  0.5569  0.1030 -0.1869
   27MOL0     C 3576   6.862   5.441   3.917  0.4003 -0.1347 -0.2839
   27MOL0     C 3577   6.885   5.593   3.894  0.1351 -0.0722  0.1422
   27MOL0     H 3578   6.774   5.403   4.468 -1.7827  2.8100  1.9212
   27MOL0     H 3579   6.798   5.528   4.659 -0.5005 -0.2909 -1.1746
   27MOL0     H 3580   6.854   5.685   4.845  1.0835  1.4688 -0.6074
   27MOL0     H 3581   6.891   5.516   4.852 -2.4559  0.1309  0.2717
   27MOL0     H 3582   7.088   5.558   5.002 -2.4620 -3.1430 -1.0364
   27MOL0     H 3583   6.925   5.596   5.052 -1.3419 -0.1868 -1.5020
   27MOL0     H 3584   6.973   5.835   4.980 -1.0070 -0.8237  0.7588
   27MOL0     H 3585   7.148   5.795   4.949  0.6263  0.7592 -0.1077
   27MOL0     H 3586   6.984   5.809   5.212 -1.1263  0.5565 -0.3471
   27MOL0     H 3587   7.149   5.754   5.215 -0.9665  0.0183  1.9803
   27MOL0     H 3588   7.181   5.999   5.081 -0.7434  0.4842 -0.9530
   27MOL0     H 3589   7.011   6.033   5.117  2.2952  2.2290  0.6909
   27MOL0     H 3590   7.061   5.982   5.349  1.0573 -2.2489 -1.3083
   27MOL0     H 3591   7.236   6.000   5.300  1.2813 -0.2007  0.8551
   27MOL0     H 3592   7.011   6.201   5.317  0.6574 -0.2681  0.6330
   27MOL0     H 3593   7.150   6.228   5.198  1.4343  0.3251  0.3935
   27MOL0     H 3594   7.183   6.197   5.510  2.7083  3.6426  1.9613
   27MOL0     H 3595   7.306   6.195   5.381 -0.1714 -1.2825  0.8687
   27MOL0     H 3596   7.067   6.411   5.593  0.2701  0.5264  0.7596
   27MOL0     H 3597   7.249   6.758   5.564 -0.4833 -1.4625 -2.7285
   27MOL0     H 3598   7.083   6.713   5.587 -0.5075 -1.0391  0.8396
   27MOL0     H 3599   7.194   6.755   5.797  2.9290  0.7599 -1.4194
   27MOL0     H 3600   7.126   6.589   5.778  1.0364 -1.8641 -0.0575
   27MOL0     H 3601   7.357   6.508   5.735  3.4706 -0.1475  1.3854
   27MOL0     H 3602   7.328   6.589   5.895  1.8151 -1.4451 -0.2390
   27MOL0     H 3603   7.450   6.782   5.723  2.5710  0.9363  3.0536
   27MOL0     H 3604   7.508   6.639   5.653 -1.2555 -2.7639  0.2369
   27MOL0     H 3605   7.626   6.583   6.064 -0.4231 -0.5973 -2.7776
   27MOL0     H 3606   7.676   6.720   6.264 -0.9163 -0.6749  0.1817
   27MOL0     H 3607   7.623   7.199   6.491 -1.5704 -2.3318  1.5979
   27MOL0     H 3608   7.717   7.327   6.650  1.2220  1.0797 -1.8455
   27MOL0     H 3609   8.027   7.142   6.918 -1.4793  2.0462  2.4220
   27MOL0     H 3610   8.153   7.221   6.831 -0.9087  0.0461 -2.7308
   27MOL0     H 3611   8.135   7.438   6.933  2.3088 -1.1204 -1.6221
   27MOL0     H 3612   7.991   7.382   7.030  0.6938  0.9656 -0.3281
   27MOL0     H 3613   8.278   7.276   7.071 -1.4456 -0.5737 -1.8659
   27MOL0     H 3614   8.186   7.402   7.153  3.0431 -0.5409  0.7982
   27MOL0     H 3615   8.109   7.102   7.157 -0.1233 -1.8433  2.5018
   27MOL0     H 3616   8.011   7.226   7.237  0.2468 -0.5297 -1.0479
   27MOL0     H 3617   8.214   7.271   7.373  0.4493 -0.7023 -1.1046
   27MOL0     H 3618   8.288   7.134   7.276  0.3918  1.9820 -1.9488
   27MOL0     H 3619   8.034   7.122   7.438 -0.0015  0.8813 -2.9990
   27MOL0     H 3620   8.124   6.989   7.356  3.8408  0.0744 -0.9033
   27MOL0     H 3621   8.143   6.973   7.595 -0.0075 -0.2136  0.7321
   27MOL0     H 3622   8.233   7.117   7.609 -0.8719 -1.9658  1.1601
   27MOL0     H 3623   8.407   7.028   7.467 -5.0323  3.0454 -5.8664
   27MOL0     H 3624   8.364   6.929   7.612 -0.8689 -0.5788  0.7938
   27MOL0     H 3625   8.024   7.017   6.698 -0.1819 -1.1741  0.0566
   27MOL0     H 3626   7.904   6.896   6.549  0.6415 -0.0273  1.3053
   27MOL0     H 3627   7.657   7.076   6.014 -0.2185 -0.7026 -0.3743
   27MOL0     H 3628   7.594   6.919   5.818  1.5819 -0.0051  0.9076
   27MOL0     H 3629   7.212   5.636   4.540  1.1016 -0.7736  2.0130
   27MOL0     H 3630   7.168   5.504   4.332  0.3420  0.3588  0.0415
   27MOL0     H 3631   6.897   5.192   4.143 -0.2909 -1.2628 -0.5388
   27MOL0     H 3632   6.900   5.047   3.927 -0.0083  0.0601 -0.2973
   27MOL0     H 3633   6.784   4.969   3.713 -2.0360  2.9248 -1.6690
   27MOL0     H 3634   6.942   4.943   3.744 -2.6712 -2.0933  0.9061
   27MOL0     H 3635   6.826   5.033   3.478 -1.9591 -3.3300 -1.2244
   27MOL0     H 3636   6.873   4.872   3.518 -2.9087  1.2074  0.5821
   27MOL0     H 3637   7.097   4.908   3.538 -0.4980  0.2115  3.3840
   27MOL0     H 3638   7.089   5.081   3.503  0.5882 -1.2411  0.7378
   27MOL0     H 3639   6.964   5.050   3.305 -0.8135  1.9018  5.5283
   27MOL0     H 3640   7.131   4.994   3.286 -1.4930  3.6707 -0.3231
   27MOL0     H 3641   6.934   4.651   3.188 -1.6606  2.8383 -3.7867
   27MOL0     H 3642   6.857   5.392   3.697 -3.1177 -1.1087 -0.6487
   27MOL0     H 3643   6.807   5.661   3.929 -0.0374 -0.1173 -0.1575
   27MOL0     H 3644   6.963   5.626   3.964 -1.4292 -0.2819  2.0943
   27MOL0     H 3645   6.914   5.607   3.790  1.4101 -2.1764  0.1552
   28MOL0     O 3646   6.127   1.119   6.904 -0.3791  0.2238 -0.0906
   28MOL0     C 3647   6.169   1.050   6.809  0.3550  0.1978 -0.4078
   28MOL0     O 3648   6.147   1.069   6.684  0.2887 -0.3858 -0.0936
   28MOL0     C 3649   6.100   1.185   6.649 -0.2695 -0.8626 -0.0971
   28MOL0     C 3650   5.983   1.192   6.581  0.7981  0.9024 -0.0389
   28MOL0     C 3651   5.915   1.305   6.546 -0.2908 -0.4090  0.6986
   28MOL0     C 3652   5.970   1.430   6.582 -0.6402  0.8440 -0.5934
   28MOL0     O 3653   5.902   1.548   6.587 -0.2605 -0.8215 -0.3387
   28MOL0     C 3654   5.784   1.553   6.496  1.0966  0.9425  0.8996
   28MOL0     C 3655   5.686   1.670   6.496 -0.0265 -0.0844 -0.2615
   28MOL0     C 3656   5.641   1.711   6.355 -0.0160 -0.2457  0.6809
   28MOL0     C 3657   5.619   1.616   6.238 -0.7857  0.7233 -0.8968
   28MOL0     C 3658   5.605   1.675   6.097  0.5380  0.4529  0.1404
   28MOL0     C 3659   5.560   1.569   5.996  0.0301 -0.3717 -0.5812
   28MOL0     C 3660   5.411   1.604   5.947 -0.1519 -0.0981 -0.3468
   28MOL0     C 3661   5.315   1.538   6.044  0.2021 -0.4079  0.3175
   28MOL0     N 3662   5.176   1.523   5.990  0.1975  0.5946 -0.3141
   28MOL0     C 3663   5.126   1.542   5.864  0.2324 -0.2434  0.2237
   28MOL0     C 3664   4.987   1.564   5.884 -0.0944 -0.1641  0.2553
   28MOL0     C 3665   4.905   1.598   5.772  0.6993 -0.7054 -0.4720
   28MOL0     C 3666   4.901   1.757   5.741 -0.8198 -0.0439  0.7420
   28MOL0     C 3667   5.052   1.805   5.722  0.4685 -0.5022  0.6578
   28MOL0     C 3668   5.057   1.919   5.636  0.6741  0.0061 -0.4287
   28MOL0     O 3669   5.195   1.942   5.617 -0.3626  0.2422  0.2248
   28MOL0     C 3670   5.280   1.979   5.714 -0.5672  0.3284 -0.2655
   28MOL0     C 3671   5.415   1.969   5.686  0.0729  0.5617  0.0701
   28MOL0     C 3672   5.508   2.012   5.777  0.5933  0.4768  0.3413
   28MOL0     C 3673   5.474   2.071   5.905 -0.2738 -1.1272  0.0035
   28MOL0     C 3674   5.578   2.095   6.009 -0.6683 -0.5408  0.3525
   28MOL0     O 3675   5.536   2.136   6.127  0.2730  0.1927  0.0311
   28MOL0     C 3676   5.607   2.131   6.241  0.8442 -0.5448 -0.6381
   28MOL0     C 3677   5.554   2.071   6.358 -0.3150 -0.0317  0.6305
   28MOL0     C 3678   5.634   2.038   6.472 -0.3269 -0.2696 -0.5551
   28MOL0     C 3679   5.768   2.086   6.475 -0.2659 -0.2519 -0.2048
   28MOL0     O 3680   5.835   2.072   6.591  0.0702  0.1491 -0.7688
   28MOL0     C 3681   5.974   2.037   6.586 -0.2581 -0.1368  0.2702
   28MOL0     C 3682   6.015   2.001   6.727  0.2548  0.3777 -0.3322
   28MOL0     C 3683   6.156   1.939   6.725 -0.6638 -1.0328  0.3265
   28MOL0     C 3684   6.188   1.864   6.845 -1.0586  0.2893  0.1512
   28MOL0     C 3685   6.352   1.850   6.863 -0.2601 -0.7319 -0.4040
   28MOL0     C 3686   6.395   1.721   6.939 -0.0433 -0.2965 -0.3982
   28MOL0     C 3687   6.383   1.594   6.857  1.5909 -0.3142 -0.0985
   28MOL0     C 3688   6.515   1.562   6.783  0.1362 -0.3858  0.8119
   28MOL0    Cl 3689   6.489   1.391   6.718 -0.1667 -0.1858 -0.1763
   28MOL0     C 3690   5.824   2.150   6.359  0.0013 -0.0183  0.8611
   28MOL0     C 3691   5.739   2.170   6.246 -0.7340 -0.2110 -0.6419
   28MOL0     O 3692   5.695   2.076   5.973 -0.5019 -0.7564 -0.2111
   28MOL0     C 3693   5.333   2.104   5.921 -0.4721  0.2382 -0.1214
   28MOL0     C 3694   5.240   2.051   5.826 -0.3957 -0.4198  1.8245
   28MOL0     N 3695   4.960   1.525   6.009  1.0918 -0.2546 -0.0310
   28MOL0     N 3696   5.073   1.491   6.074  0.7236  0.6070 -0.0282
   28MOL0     C 3697   6.089   1.428   6.654  0.8313  0.0703 -0.7479
   28MOL0     C 3698   6.153   1.315   6.694  0.0794  0.7506 -0.6906
   28MOL0     C 3699   6.254   0.931   6.851 -0.1546  0.0678 -0.1770
   28MOL0     C 3700   6.360   0.959   6.948 -0.4156 -0.0151 -0.7277
   28MOL0     C 3701   6.423   0.846   6.999 -0.4978 -0.0368  0.5185
   28MOL0     C 3702   6.406   0.721   6.945 -0.1371  0.5820  0.1274
   28MOL0     O 3703   6.481   0.619   7.007 -0.0779 -0.1426  0.3587
   28MOL0     C 3704   6.448   0.483   6.979 -0.0398  1.1903  0.4301
   28MOL0     C 3705   6.558   0.397   7.047 -0.4187  0.4000  0.0051
   28MOL0     C 3706   6.705   0.458   7.031  0.0863 -0.2936  0.4530
   28MOL0     C 3707   6.804   0.345   7.002 -0.0913  0.0749  0.3134
   28MOL0     C 3708   6.935   0.381   7.027  0.1063 -0.5001  0.6175
   28MOL0     C 3709   7.056   0.397   7.045 -0.1791  0.4886 -0.0993
   28MOL0     C 3710   6.307   0.697   6.840 -0.2095 -0.4330 -1.3714
   28MOL0     C 3711   6.236   0.806   6.791  0.4075  0.6041 -0.2719
   28MOL0     C 3712   6.149   0.782   6.670 -0.7284 -0.1979 -0.6408
   28MOL0     H 3713   5.935   1.101   6.546 -2.2254  3.4164 -3.0685
   28MOL0     H 3714   5.818   1.295   6.498 -1.1954  0.7493  2.2274
   28MOL0     H 3715   5.830   1.529   6.399  0.9522  2.1320  0.5205
   28MOL0     H 3716   5.723   1.470   6.533 -0.5426  1.2381 -0.9797
   28MOL0     H 3717   5.742   1.748   6.548 -2.2128  2.1114 -1.0356
   28MOL0     H 3718   5.600   1.646   6.560  1.3166 -0.5189  1.4745
   28MOL0     H 3719   5.712   1.785   6.317  0.6939 -1.6606 -0.8335
   28MOL0     H 3720   5.547   1.766   6.365  0.4441  1.2513 -2.2275
   28MOL0     H 3721   5.695   1.539   6.251  2.4360  3.9289  1.4619
   28MOL0     H 3722   5.526   1.562   6.259 -0.5462  1.1487  1.5432
   28MOL0     H 3723   5.545   1.765   6.101 -1.1887 -0.6633  0.3241
   28MOL0     H 3724   5.704   1.712   6.067  1.7288 -0.4448  2.6268
   28MOL0     H 3725   5.631   1.566   5.913  0.0451  3.2406 -0.8567
   28MOL0     H 3726   5.582   1.471   6.039  4.3383  0.3631 -0.6120
   28MOL0     H 3727   5.400   1.577   5.841  1.9035  2.3333 -1.2847
   28MOL0     H 3728   5.394   1.712   5.954 -0.8201 -0.2788  1.2496
   28MOL0     H 3729   5.349   1.439   6.076 -2.2181 -1.8382 -1.2126
   28MOL0     H 3730   5.314   1.595   6.138  0.0723  0.3193 -0.1214
   28MOL0     H 3731   5.177   1.538   5.768  1.7180 -4.2923  0.9805
   28MOL0     H 3732   4.950   1.540   5.691  0.9840 -3.6328  1.6267
   28MOL0     H 3733   4.805   1.556   5.784 -0.8896  2.8075 -0.1281
   28MOL0     H 3734   4.845   1.779   5.650  0.2843  2.0711  0.5064
   28MOL0     H 3735   4.855   1.806   5.827 -2.3450  0.0825 -0.1138
   28MOL0     H 3736   5.101   1.726   5.664 -4.2766 -1.3218 -2.9045
   28MOL0     H 3737   5.097   1.807   5.821  0.6576  2.4744  0.6170
   28MOL0     H 3738   5.002   2.000   5.684  0.5895 -0.3798  0.1248
   28MOL0     H 3739   5.002   1.916   5.541 -0.5753  0.2721  0.2668
   28MOL0     H 3740   5.435   1.943   5.583  2.3092  4.1725 -0.5726
   28MOL0     H 3741   5.611   1.984   5.755  0.9189  1.6445  0.3164
   28MOL0     H 3742   5.450   2.041   6.354  0.1232 -1.5810  0.1254
   28MOL0     H 3743   5.594   1.991   6.562 -0.4689 -0.9268 -0.9520
   28MOL0     H 3744   5.988   1.948   6.524  1.0504 -0.9380  1.6697
   28MOL0     H 3745   6.030   2.125   6.553 -0.3613 -0.5542 -1.1093
   28MOL0     H 3746   6.017   2.091   6.789  0.8156 -0.6109  1.1700
   28MOL0     H 3747   5.955   1.917   6.763 -0.3680 -0.1166 -2.4100
   28MOL0     H 3748   6.186   1.877   6.641  4.4426  1.5885 -0.1580
   28MOL0     H 3749   6.216   2.029   6.709 -1.6991 -0.4656 -0.5075
   28MOL0     H 3750   6.139   1.767   6.846  1.3566 -1.0146 -0.5311
   28MOL0     H 3751   6.155   1.914   6.936 -0.1779  1.8403 -0.3313
   28MOL0     H 3752   6.388   1.930   6.929 -0.4988 -1.0858  0.1690
   28MOL0     H 3753   6.403   1.872   6.769  2.1353  3.4648  1.5406
   28MOL0     H 3754   6.501   1.744   6.955 -1.1568  4.4144  2.3725
   28MOL0     H 3755   6.346   1.710   7.037 -0.3199 -1.4544 -0.6537
   28MOL0     H 3756   6.298   1.595   6.788 -0.3477  0.7084  2.1703
   28MOL0     H 3757   6.339   1.518   6.922 -2.6847  1.0536 -1.0403
   28MOL0     H 3758   6.527   1.625   6.694 -1.7496  1.9945  2.0917
   28MOL0     H 3759   6.606   1.559   6.844 -0.2205 -1.9990  1.3149
   28MOL0     H 3760   5.926   2.186   6.362 -0.5797  1.7285  3.9195
   28MOL0     H 3761   5.789   2.210   6.159  0.0915 -2.0428 -1.0720
   28MOL0     H 3762   5.299   2.156   6.010  0.6009 -0.8843  0.9793
   28MOL0     H 3763   5.134   2.073   5.828 -0.1913  1.2813 -0.8587
   28MOL0     H 3764   6.129   1.519   6.696 -0.2291 -0.7352  2.2158
   28MOL0     H 3765   6.238   1.310   6.762  2.8115 -0.9249 -3.8885
   28MOL0     H 3766   6.370   1.051   7.005  1.0450 -0.8907  0.5189
   28MOL0     H 3767   6.498   0.859   7.076  2.0461  1.5516 -2.0120
   28MOL0     H 3768   6.454   0.462   6.871  2.3614 -0.9732  0.8757
   28MOL0     H 3769   6.353   0.449   7.020  0.6473  1.2958  2.1786
   28MOL0     H 3770   6.554   0.307   6.985  4.2206  1.0477 -1.6261
   28MOL0     H 3771   6.527   0.371   7.149  1.0373 -3.4888 -0.3495
   28MOL0     H 3772   6.738   0.512   7.120  0.2528 -0.5643  0.5577
   28MOL0     H 3773   6.704   0.521   6.942 -2.4499 -3.7850 -2.2653
   28MOL0     H 3774   6.770   0.260   7.061 -2.5939  1.1391  0.5472
   28MOL0     H 3775   6.798   0.304   6.901 -0.0966 -0.3823  0.4955
   28MOL0     H 3776   7.152   0.405   7.093  0.5803 -1.3250 -1.2476
   28MOL0     H 3777   6.290   0.599   6.798  0.8134 -1.7713  1.1589
   28MOL0     H 3778   6.191   0.825   6.578  2.4690 -0.2310  0.6854
   28MOL0     H 3779   6.128   0.675   6.661  0.4683 -0.4170 -1.0283
   28MOL0     H 3780   6.047   0.819   6.688 -0.6139  0.6168 -1.5682
   29MOL0     O 3781   6.523   4.331  10.667 -0.1950  0.3950 -0.7124
   29MOL0     C 3782   6.599   4.253  10.614  0.8584 -0.0641 -0.0239
   29MOL0     O 3783   6.652   4.141  10.677 -0.3187  0.2951 -0.7798
   29MOL0     C 3784   6.610   4.106  10.800 -0.5791  0.2347  0.1441
   29MOL0     C 3785   6.600   3.970  10.811 -1.2872 -0.7779  0.2175
   29MOL0     C 3786   6.574   3.924  10.940 -1.2272 -0.4860  0.5018
   29MOL0     C 3787   6.539   4.008  11.037  0.1573 -0.2273 -0.7303
   29MOL0     O 3788   6.517   3.975  11.171  0.7016  0.8732  0.7063
   29MOL0     C 3789   6.490   3.835  11.187  0.2049 -0.8178 -0.4242
   29MOL0     C 3790   6.491   3.791  11.331  0.4971 -0.4974  0.3147
   29MOL0     C 3791   6.452   3.642  11.359 -0.3788 -0.3191  0.3461
   29MOL0     C 3792   6.526   3.538  11.284 -0.0316  0.1532 -0.2079
   29MOL0     C 3793   6.473   3.393  11.318 -0.5610 -0.5384 -0.4549
   29MOL0     C 3794   6.541   3.293  11.236 -0.3957  0.8003  0.2648
   29MOL0     C 3795   6.503   3.141  11.270  0.1057 -0.1807 -0.5725
   29MOL0     C 3796   6.559   3.053  11.164  0.3043  0.3689  0.0445
   29MOL0     N 3797   6.518   2.918  11.195 -0.1779  0.7700  0.3667
   29MOL0     C 3798   6.395   2.875  11.186  0.1841  0.2475 -0.0682
   29MOL0     C 3799   6.390   2.751  11.206  0.4174 -0.3754 -0.1400
   29MOL0     C 3800   6.263   2.669  11.199  0.6604 -0.5548  0.3583
   29MOL0     C 3801   6.296   2.524  11.190  0.0193  0.5337  0.0952
   29MOL0     C 3802   6.177   2.433  11.174  0.9889  0.0939  0.7427
   29MOL0     C 3803   6.114   2.450  11.031 -0.5510 -0.0440 -0.5106
   29MOL0     O 3804   5.984   2.391  11.023  0.2398  0.1275 -0.0511
   29MOL0     C 3805   5.874   2.457  11.068 -0.2487 -1.0160 -0.9892
   29MOL0     C 3806   5.870   2.582  11.135 -0.0597 -0.0226 -0.3811
   29MOL0     C 3807   5.753   2.618  11.192 -0.0512  0.5696  0.4723
   29MOL0     C 3808   5.629   2.558  11.170  1.9466 -0.1568 -0.6769
   29MOL0     C 3809   5.496   2.611  11.221 -0.8214 -0.3995  0.7578
   29MOL0     O 3810   5.395   2.551  11.161 -0.3356 -0.9333  0.5772
   29MOL0     C 3811   5.271   2.603  11.191 -0.7453 -0.1484 -0.5878
   29MOL0     C 3812   5.213   2.572  11.313  0.6778  0.9731 -0.0321
   29MOL0     C 3813   5.082   2.611  11.342  0.0661  0.4525  0.3971
   29MOL0     C 3814   5.009   2.692  11.255  0.1352  0.2137 -0.8538
   29MOL0     O 3815   4.884   2.712  11.276  0.3168 -0.3006  0.3142
   29MOL0     C 3816   4.840   2.850  11.281 -0.7286 -0.0758  0.2045
   29MOL0     C 3817   4.690   2.851  11.244 -0.6434 -0.2564  0.6147
   29MOL0     C 3818   4.623   2.991  11.265  0.0708 -0.1564  0.1423
   29MOL0     C 3819   4.464   2.983  11.264 -0.1627  0.2826  0.7116
   29MOL0     C 3820   4.410   2.893  11.380  0.7343  0.1342  1.3839
   29MOL0     C 3821   4.264   2.901  11.411 -0.2928  0.8894  0.6938
   29MOL0     C 3822   4.220   2.803  11.522 -0.2352 -0.3071  0.6148
   29MOL0     C 3823   4.063   2.797  11.521 -0.7436  0.3637 -0.0163
   29MOL0    Cl 3824   4.001   2.964  11.566 -0.1614 -0.6841 -0.2279
   29MOL0     C 3825   5.074   2.725  11.125  0.1314 -0.4160 -0.6267
   29MOL0     C 3826   5.206   2.678  11.097 -0.7444 -0.2076  1.0997
   29MOL0     O 3827   5.499   2.703  11.307 -0.9221  0.7579 -1.0424
   29MOL0     C 3828   5.631   2.447  11.085  0.6693 -1.1054  1.0458
   29MOL0     C 3829   5.751   2.393  11.034  0.5476  0.4695 -1.3685
   29MOL0     N 3830   6.527   2.714  11.227 -0.0859 -0.2315 -0.5551
   29MOL0     N 3831   6.602   2.814  11.214 -0.2661  0.9567 -1.2336
   29MOL0     C 3832   6.540   4.141  11.024 -0.5318  0.4930  0.2046
   29MOL0     C 3833   6.580   4.194  10.906 -0.3089  0.0488 -0.1174
   29MOL0     C 3834   6.625   4.278  10.466  0.4081  0.8375  0.3304
   29MOL0     C 3835   6.633   4.168  10.369 -0.0258  0.2264 -0.1854
   29MOL0     C 3836   6.669   4.184  10.236 -0.2205 -0.7310 -0.2068
   29MOL0     C 3837   6.696   4.312  10.188  0.2770  0.2348 -0.8651
   29MOL0     O 3838   6.751   4.339  10.070 -0.5869  0.2570  1.5675
   29MOL0     C 3839   6.786   4.235   9.979  0.4658  0.7912  0.8274
   29MOL0     C 3840   6.795   4.288   9.838  0.0076  0.1731  0.6070
   29MOL0     C 3841   6.914   4.388   9.821  0.7687  0.7813 -0.1445
   29MOL0     C 3842   6.885   4.493   9.713 -0.4457  0.2216  0.2901
   29MOL0     C 3843   6.770   4.571   9.773  0.2421 -0.0540  0.5945
   29MOL0     C 3844   6.686   4.644   9.803 -0.3718 -0.5692 -0.3277
   29MOL0     C 3845   6.678   4.416  10.277 -0.0461  0.1070  0.0560
   29MOL0     C 3846   6.637   4.402  10.412 -0.6927 -0.7605 -0.4182
   29MOL0     C 3847   6.618   4.533  10.489  0.4426 -0.4311 -0.8947
   29MOL0     H 3848   6.644   3.911  10.732  0.9410 -1.2679  1.7118
   29MOL0     H 3849   6.584   3.816  10.949  0.4929 -0.5254 -1.2310
   29MOL0     H 3850   6.389   3.816  11.150 -0.8961  0.0892  1.9229
   29MOL0     H 3851   6.563   3.768  11.140  1.8096  1.4524 -1.3315
   29MOL0     H 3852   6.424   3.859  11.384  0.7329 -0.7031  0.8924
   29MOL0     H 3853   6.595   3.802  11.363  0.9749 -3.3750  0.0128
   29MOL0     H 3854   6.343   3.644  11.344 -0.1023  0.8527 -2.2770
   29MOL0     H 3855   6.468   3.625  11.465 -3.0132 -1.7039  0.6022
   29MOL0     H 3856   6.528   3.545  11.175 -3.8306 -4.2672 -0.8887
   29MOL0     H 3857   6.625   3.561  11.326 -0.6121  4.1235 -0.6402
   29MOL0     H 3858   6.483   3.365  11.423  0.6779 -0.2319 -0.4753
   29MOL0     H 3859   6.366   3.377  11.301 -1.3208  0.6342  2.6592
   29MOL0     H 3860   6.523   3.297  11.128 -1.8867  0.5805  0.4853
   29MOL0     H 3861   6.646   3.312  11.259 -0.1835  1.9508 -1.4933
   29MOL0     H 3862   6.397   3.114  11.266  0.2786 -0.7196 -2.3464
   29MOL0     H 3863   6.553   3.124  11.365  2.1526  1.7321 -1.2072
   29MOL0     H 3864   6.508   3.082  11.072  0.0715  1.8025  0.6000
   29MOL0     H 3865   6.667   3.066  11.150  0.4692 -1.2020 -0.3187
   29MOL0     H 3866   6.313   2.945  11.178  1.7589  2.2015 -0.0513
   29MOL0     H 3867   6.201   2.680  11.288  1.1333  2.8931  0.3859
   29MOL0     H 3868   6.211   2.698  11.107  0.9180  0.6725  0.5824
   29MOL0     H 3869   6.355   2.523  11.097 -1.5195  4.2045 -1.0834
   29MOL0     H 3870   6.359   2.502  11.277  0.8762  1.4243 -0.2789
   29MOL0     H 3871   6.112   2.473  11.251  1.4634  2.9733 -0.2358
   29MOL0     H 3872   6.193   2.326  11.190 -1.3454 -0.4511 -0.2699
   29MOL0     H 3873   6.181   2.388  10.971  0.5761 -2.8255  3.1827
   29MOL0     H 3874   6.107   2.553  10.995 -3.2810 -0.7580 -2.3127
   29MOL0     H 3875   5.954   2.647  11.155 -0.7096  0.3312  1.4025
   29MOL0     H 3876   5.755   2.704  11.257  2.7311 -0.3938  1.8182
   29MOL0     H 3877   5.268   2.504  11.377  1.4335  0.3980 -1.2404
   29MOL0     H 3878   5.034   2.567  11.428  0.9438 -3.2666 -0.8541
   29MOL0     H 3879   4.876   2.894  11.375  0.1051  1.8138 -0.9482
   29MOL0     H 3880   4.888   2.917  11.209  1.5497  0.1735  1.8151
   29MOL0     H 3881   4.702   2.822  11.139 -0.4353  4.3586 -0.8935
   29MOL0     H 3882   4.637   2.775  11.302 -3.2024 -0.7932 -2.1900
   29MOL0     H 3883   4.663   3.032  11.359 -1.0378  0.0981  0.5201
   29MOL0     H 3884   4.664   3.045  11.180  1.4050 -1.4333 -0.0598
   29MOL0     H 3885   4.421   2.932  11.178  1.3925 -0.2669  0.2262
   29MOL0     H 3886   4.419   3.083  11.259 -1.6680 -0.3976  0.1676
   29MOL0     H 3887   4.470   2.932  11.463  1.4391  5.2079 -1.0981
   29MOL0     H 3888   4.442   2.793  11.349  0.8660  0.5435  0.1492
   29MOL0     H 3889   4.226   2.990  11.461 -2.8403 -0.2421  0.9360
   29MOL0     H 3890   4.199   2.889  11.324  0.9181  2.8729 -0.5565
   29MOL0     H 3891   4.265   2.842  11.614 -3.0878 -0.3756  2.1932
   29MOL0     H 3892   4.255   2.702  11.499 -0.5022  0.1150 -1.9362
   29MOL0     H 3893   4.023   2.771  11.422 -0.1747 -1.2462  0.1513
   29MOL0     H 3894   4.039   2.718  11.593 -0.0090  0.8263  0.7456
   29MOL0     H 3895   5.003   2.777  11.062 -0.2827 -0.9386 -0.5972
   29MOL0     H 3896   5.243   2.696  10.996  2.0990  0.3743  2.1510
   29MOL0     H 3897   5.536   2.400  11.064 -0.7065  1.7763  0.3397
   29MOL0     H 3898   5.753   2.294  10.990  0.2828 -0.2000  0.0700
   29MOL0     H 3899   6.505   4.206  11.104 -1.7713 -2.1311  1.9519
   29MOL0     H 3900   6.592   4.300  10.887 -0.3842 -0.5936 -5.0651
   29MOL0     H 3901   6.636   4.064  10.397  0.6939 -0.3368 -2.1936
   29MOL0     H 3902   6.689   4.096  10.175  0.0404 -0.6670 -0.2123
   29MOL0     H 3903   6.709   4.157   9.975  0.8957  0.1737  3.2642
   29MOL0     H 3904   6.874   4.174  10.001 -0.4625 -1.3086 -0.9196
   29MOL0     H 3905   6.703   4.343   9.815  1.1498  1.0302 -2.4788
   29MOL0     H 3906   6.790   4.208   9.763  0.4059  1.2179 -0.5789
   29MOL0     H 3907   6.995   4.324   9.785  1.3495  1.1858  0.4269
   29MOL0     H 3908   6.947   4.439   9.912 -0.0859  0.7808  0.1814
   29MOL0     H 3909   6.970   4.558   9.693 -1.6217  1.5356 -0.6871
   29MOL0     H 3910   6.857   4.444   9.620  1.4816  0.9010 -0.6916
   29MOL0     H 3911   6.624   4.725   9.835  0.2465  0.4233 -1.5452
   29MOL0     H 3912   6.700   4.514  10.236  0.8411 -0.4858 -0.9042
   29MOL0     H 3913   6.696   4.533  10.567 -1.2867 -1.0092  0.9025
   29MOL0     H 3914   6.634   4.616  10.420  0.4665 -0.5962 -1.0880
   29MOL0     H 3915   6.518   4.545  10.531  1.7607  3.9273  1.6372
   30MOL0     O 3916   6.972   9.849   5.465 -0.0160 -0.4139  0.3253
   30MOL0     C 3917   7.031   9.957   5.486  0.6059  0.4070 -0.6938
   30MOL0     O 3918   6.983  10.080   5.450 -0.4393  0.0620 -0.4826
   30MOL0     C 3919   6.887  10.087   5.355 -0.3292 -0.0584 -0.0944
   30MOL0     C 3920   6.899  10.157   5.230 -0.2945  0.1586 -0.5002
   30MOL0     C 3921   6.795  10.156   5.132  1.5601  0.0870 -0.1783
   30MOL0     C 3922   6.672  10.089   5.158 -0.4235 -0.5379  0.1052
   30MOL0     O 3923   6.571  10.076   5.070 -0.1506 -0.9932  0.4041
   30MOL0     C 3924   6.593  10.134   4.943  0.3031 -0.3081 -0.1092
   30MOL0     C 3925   6.501  10.074   4.836 -0.1912 -0.3071  0.2721
   30MOL0     C 3926   6.354  10.109   4.884 -0.3001 -0.0241  0.5614
   30MOL0     C 3927   6.259  10.048   4.778  0.7107 -0.6272  0.5544
   30MOL0     C 3928   6.114  10.081   4.817  0.2452  0.1152 -0.3894
   30MOL0     C 3929   6.009  10.023   4.717 -0.1359 -0.9730  0.9861
   30MOL0     C 3930   5.873  10.085   4.737  0.1043  0.2841  0.1009
   30MOL0     C 3931   5.846  10.222   4.691  0.8440 -0.2989 -0.2221
   30MOL0     N 3932   5.719  10.282   4.732 -0.3159 -0.7759  0.1086
   30MOL0     C 3933   5.673  10.307   4.861 -0.2348  0.8567 -0.2373
   30MOL0     C 3934   5.543  10.294   4.843 -0.1406  0.4779 -0.3101
   30MOL0     C 3935   5.430  10.276   4.944 -0.3285  0.0446  0.4025
   30MOL0     C 3936   5.333  10.389   4.910 -0.4799  0.1498  0.9904
   30MOL0     C 3937   5.234  10.384   5.018 -0.4679  0.8716  0.3816
   30MOL0     C 3938   5.129  10.504   5.019 -0.1962  1.5329  0.0947
   30MOL0     O 3939   5.026  10.487   5.121 -0.0610  0.4413  0.1259
   30MOL0     C 3940   4.936  10.587   5.133  0.3405  0.7534 -0.4471
   30MOL0     C 3941   4.798  10.546   5.110 -0.2463  0.2335 -0.0602
   30MOL0     C 3942   4.694  10.629   5.105  0.2073  0.2564  0.3458
   30MOL0     C 3943   4.717  10.769   5.076  0.0543 -0.4776  0.6171
   30MOL0     C 3944   4.599  10.858   5.055  0.1542  0.2710 -1.1186
   30MOL0     O 3945   4.479  10.791   5.026 -0.5476 -0.3337  0.1151
   30MOL0     C 3946   4.371  10.866   5.008 -0.6487  0.1591  0.1921
   30MOL0     C 3947   4.344  10.915   4.872 -0.2508  0.2947 -1.1027
   30MOL0     C 3948   4.218  10.963   4.829 -0.3992  0.4629  0.5387
   30MOL0     C 3949   4.115  10.958   4.915 -0.4684 -0.1427 -0.0396
   30MOL0     O 3950   3.989  10.985   4.868  0.6822  0.2547  0.5471
   30MOL0     C 3951   3.925  10.879   4.802 -0.0734 -0.5907  0.0571
   30MOL0     C 3952   3.804  10.941   4.730  0.4804  0.5154 -0.0533
   30MOL0     C 3953   3.717  10.851   4.648  0.0486  0.4568  0.1808
   30MOL0     C 3954   3.578  10.908   4.616  0.0773  0.4240 -1.2296
   30MOL0     C 3955   3.498  10.800   4.527 -0.0527 -0.5656  0.3678
   30MOL0     C 3956   3.349  10.794   4.562  0.0150  0.5977  0.1323
   30MOL0     C 3957   3.283  10.666   4.499 -1.0176  0.3260 -0.4969
   30MOL0     C 3958   3.139  10.671   4.549  0.2954  0.4433  0.1176
   30MOL0    Cl 3959   3.069  10.521   4.487 -0.3177 -0.1582  0.2120
   30MOL0     C 3960   4.135  10.921   5.052  0.0726  0.3653  0.2040
   30MOL0     C 3961   4.266  10.890   5.102  0.5585 -0.1472 -0.4577
   30MOL0     O 3962   4.617  10.978   5.075  0.3798  0.1054  0.3044
   30MOL0     C 3963   4.851  10.817   5.088 -0.0531  0.3166 -0.4522
   30MOL0     C 3964   4.954  10.725   5.124 -0.1429 -0.6958  0.7138
   30MOL0     N 3965   5.515  10.295   4.708 -0.0452  0.5575  0.6783
   30MOL0     N 3966   5.622  10.289   4.640  0.6556  0.8778 -0.0282
   30MOL0     C 3967   6.662  10.027   5.282 -0.3056  0.0120  0.0993
   30MOL0     C 3968   6.763  10.019   5.374  0.3352 -0.2611 -0.4902
   30MOL0     C 3969   7.162   9.957   5.554 -0.0074 -0.0222  0.4204
   30MOL0     C 3970   7.175   9.886   5.671  0.1430  0.5288  0.6387
   30MOL0     C 3971   7.293   9.878   5.743 -0.0657  0.3714 -0.9000
   30MOL0     C 3972   7.398   9.956   5.702  0.8130 -0.0381 -0.1745
   30MOL0     O 3973   7.521   9.949   5.756 -0.3183 -0.4705 -0.5357
   30MOL0     C 3974   7.592  10.066   5.803  0.7169 -0.0973 -0.2135
   30MOL0     C 3975   7.677  10.012   5.925 -0.0247 -1.1369 -0.3247
   30MOL0     C 3976   7.811   9.939   5.887 -0.0794 -0.7948  0.7320
   30MOL0     C 3977   7.912  10.042   5.820  0.2608 -0.4203 -0.0970
   30MOL0     C 3978   7.953  10.129   5.931 -0.7061 -0.5656 -0.2397
   30MOL0     C 3979   7.991  10.182   6.031  0.2321  0.3580  0.1106
   30MOL0     C 3980   7.386  10.036   5.587 -0.7256  0.2522  0.1250
   30MOL0     C 3981   7.271  10.037   5.508  0.2147 -0.2699  0.0164
   30MOL0     C 3982   7.270  10.102   5.376 -0.7878 -0.2015 -0.0880
   30MOL0     H 3983   6.987  10.217   5.211  0.6161 -1.5951 -2.2680
   30MOL0     H 3984   6.819  10.219   5.047 -3.2492  0.3159 -1.6634
   30MOL0     H 3985   6.587  10.242   4.958 -4.3167 -0.5631  1.1141
   30MOL0     H 3986   6.688  10.095   4.904  0.3739  0.0165 -0.2702
   30MOL0     H 3987   6.515   9.966   4.825  0.3326  0.0373 -4.0020
   30MOL0     H 3988   6.514  10.115   4.736 -0.7532 -1.4998 -0.2962
   30MOL0     H 3989   6.331  10.215   4.885  0.7560  0.2289 -0.0120
   30MOL0     H 3990   6.333  10.061   4.980 -0.6135 -1.4458 -0.1783
   30MOL0     H 3991   6.295  10.081   4.680  1.5043  1.3714  1.4732
   30MOL0     H 3992   6.274   9.939   4.782  3.2257 -0.5179 -2.2027
   30MOL0     H 3993   6.095  10.041   4.917  2.1480  1.2758  0.5062
   30MOL0     H 3994   6.097  10.189   4.816 -0.2677  0.0385 -0.0127
   30MOL0     H 3995   6.045  10.045   4.616 -2.6832 -1.8328 -0.2035
   30MOL0     H 3996   6.012   9.915   4.730 -0.6462 -1.6067 -2.9439
   30MOL0     H 3997   5.849  10.086   4.843  0.7821  0.7840  0.2599
   30MOL0     H 3998   5.796  10.025   4.688  0.7067  0.8904 -1.6826
   30MOL0     H 3999   5.921  10.284   4.741  0.9440 -0.0697 -0.6540
   30MOL0     H 4000   5.867  10.230   4.584  1.7480  0.1335 -0.0236
   30MOL0     H 4001   5.727  10.315   4.955  1.1273 -2.2296 -0.6480
   30MOL0     H 4002   5.396  10.172   4.944 -1.5741  0.4269 -0.5789
   30MOL0     H 4003   5.477  10.293   5.042  1.8435  2.9785 -0.9692
   30MOL0     H 4004   5.390  10.482   4.920  2.6500 -1.3161 -1.5583
   30MOL0     H 4005   5.285  10.376   4.813 -0.1155 -1.5798  1.0049
   30MOL0     H 4006   5.293  10.388   5.110  1.7749  0.0411 -0.9597
   30MOL0     H 4007   5.179  10.291   5.003  1.3760  0.0567 -1.7880
   30MOL0     H 4008   5.079  10.519   4.922 -2.4104  0.7553  1.0618
   30MOL0     H 4009   5.184  10.599   5.028 -2.9172  3.1913  0.3887
   30MOL0     H 4010   4.780  10.439   5.102  0.4493  0.0952  0.0909
   30MOL0     H 4011   4.596  10.581   5.107 -2.0935  4.3743 -1.2374
   30MOL0     H 4012   4.403  10.890   4.785 -0.4944 -1.8089 -0.7170
   30MOL0     H 4013   4.205  11.000   4.728 -0.3493 -1.0300 -0.0413
   30MOL0     H 4014   3.985  10.827   4.727 -0.8332 -1.3995 -0.0070
   30MOL0     H 4015   3.900  10.799   4.872  2.1977 -0.8807  0.6220
   30MOL0     H 4016   3.743  10.991   4.805  0.6048  2.0382 -0.9124
   30MOL0     H 4017   3.841  11.019   4.663  0.9906  0.5598  0.2716
   30MOL0     H 4018   3.756  10.822   4.550 -0.7110 -1.4337  0.4041
   30MOL0     H 4019   3.698  10.757   4.699  0.6412 -2.5766 -4.5682
   30MOL0     H 4020   3.594  10.998   4.557  3.0066 -1.1663 -3.1254
   30MOL0     H 4021   3.517  10.920   4.706  0.4710  0.8530 -1.0182
   30MOL0     H 4022   3.541  10.704   4.560  2.6330 -0.5798 -2.6079
   30MOL0     H 4023   3.507  10.806   4.418  1.8868  0.3186  0.5254
   30MOL0     H 4024   3.350  10.791   4.671 -1.3876  1.5033  0.1917
   30MOL0     H 4025   3.296  10.886   4.536  0.8844  0.9968 -0.2776
   30MOL0     H 4026   3.337  10.584   4.547 -1.2246  0.1686 -0.5344
   30MOL0     H 4027   3.287  10.647   4.391  1.5802 -0.7791 -0.2824
   30MOL0     H 4028   3.139  10.674   4.658 -4.1893  1.3716  0.2653
   30MOL0     H 4029   3.086  10.757   4.506  0.1708 -0.8473 -2.4507
   30MOL0     H 4030   4.047  10.919   5.116 -0.1625 -0.4531 -0.1289
   30MOL0     H 4031   4.296  10.869   5.204  4.1500 -1.4222 -1.6131
   30MOL0     H 4032   4.883  10.915   5.054  0.4153  0.0557 -0.7805
   30MOL0     H 4033   5.055  10.763   5.137 -0.2063  0.2431 -1.1274
   30MOL0     H 4034   6.560   9.992   5.290  0.0553 -1.0238  0.3547
   30MOL0     H 4035   6.745   9.971   5.470  1.1936  2.3637  1.1098
   30MOL0     H 4036   7.087   9.836   5.711 -1.5987  1.7427 -1.4515
   30MOL0     H 4037   7.318   9.824   5.834  3.0005 -0.3902 -2.0490
   30MOL0     H 4038   7.517  10.132   5.848  0.1371 -1.2876  0.6383
   30MOL0     H 4039   7.642  10.116   5.720 -2.1618  1.2622 -1.2716
   30MOL0     H 4040   7.624   9.950   5.998  0.6506 -0.7054  0.5497
   30MOL0     H 4041   7.706  10.101   5.982  4.4286 -1.5422 -1.5532
   30MOL0     H 4042   7.794   9.864   5.810  0.0812  1.6461 -1.8332
   30MOL0     H 4043   7.872   9.895   5.967  2.3714  0.7927 -0.1453
   30MOL0     H 4044   8.000   9.988   5.782  2.6105  0.1513  3.9184
   30MOL0     H 4045   7.863  10.093   5.736  0.1424  0.7543  0.6625
   30MOL0     H 4046   8.033  10.223   6.121  0.4515  0.4336 -0.0257
   30MOL0     H 4047   7.474  10.089   5.551  0.3421 -1.2593  0.3764
   30MOL0     H 4048   7.204  10.188   5.387  0.9814  1.2771 -0.6655
   30MOL0     H 4049   7.367  10.126   5.332 -0.2740 -2.7101 -0.4851
   30MOL0     H 4050   7.238  10.027   5.303 -1.7740  1.7960 -1.8181
   31MOL0     O 4051   0.461   1.030   9.802  0.0494 -0.5259  0.1486
   31MOL0     C 4052   0.545   0.943   9.794 -0.4774  0.3458  0.1240
   31MOL0     O 4053   0.527   0.820   9.730 -0.2207  0.1615  0.9029
   31MOL0     C 4054   0.414   0.802   9.660  0.1876  1.3238  0.2760
   31MOL0     C 4055   0.310   0.705   9.692 -1.3946  0.0520  0.0802
   31MOL0     C 4056   0.200   0.703   9.609  0.0379  0.8175 -0.1054
   31MOL0     C 4057   0.193   0.784   9.493 -0.9505 -0.4766 -0.3789
   31MOL0     O 4058   0.096   0.785   9.404  0.3595  0.3232 -0.4310
   31MOL0     C 4059  -0.004   0.679   9.398  0.0695 -0.6931  0.2421
   31MOL0     C 4060  -0.135   0.730   9.455  0.3930  0.5187  1.3353
   31MOL0     C 4061  -0.223   0.602   9.441 -1.1385  0.7445 -0.2235
   31MOL0     C 4062  -0.214   0.504   9.573  0.3080 -0.3097 -0.3549
   31MOL0     C 4063  -0.249   0.353   9.536 -0.1313  0.3372  0.2096
   31MOL0     C 4064  -0.129   0.289   9.453  0.0991  1.2892 -0.6907
   31MOL0     C 4065  -0.129   0.137   9.417 -0.7686 -0.6068 -1.0602
   31MOL0     C 4066  -0.265   0.079   9.387 -0.3126 -0.0479  0.7786
   31MOL0     N 4067  -0.333   0.017   9.511 -1.1680 -0.6026 -0.0975
   31MOL0     C 4068  -0.342  -0.111   9.546  0.3366 -0.0650 -0.6789
   31MOL0     C 4069  -0.423  -0.126   9.656 -0.2027  0.3766  0.1947
   31MOL0     C 4070  -0.459  -0.257   9.716  1.1273  1.1783  0.5164
   31MOL0     C 4071  -0.589  -0.310   9.650  0.2760 -0.1889  0.2248
   31MOL0     C 4072  -0.662  -0.399   9.734  0.4278  0.3236 -0.1886
   31MOL0     C 4073  -0.591  -0.531   9.772  0.6249 -0.0153  0.6938
   31MOL0     O 4074  -0.565  -0.609   9.647  0.1986 -0.0678  0.1534
   31MOL0     C 4075  -0.660  -0.706   9.624 -0.3971  0.3825  0.4157
   31MOL0     C 4076  -0.739  -0.714   9.508 -0.0559  0.6349  0.0009
   31MOL0     C 4077  -0.821  -0.816   9.485 -0.0792 -0.1328  0.1296
   31MOL0     C 4078  -0.824  -0.925   9.581  0.1446 -0.2410  0.5936
   31MOL0     C 4079  -0.929  -1.020   9.570  0.8864  0.3797  0.4998
   31MOL0     O 4080  -0.981  -1.049   9.445  0.3462  0.6687 -0.0267
   31MOL0     C 4081  -1.053  -1.158   9.410 -0.0005  0.2819 -0.4890
   31MOL0     C 4082  -1.068  -1.172   9.275  1.2550 -0.2410  0.2745
   31MOL0     C 4083  -1.139  -1.280   9.211  1.0230 -0.7310  0.2935
   31MOL0     C 4084  -1.201  -1.369   9.294 -0.2174 -0.5025 -0.5119
   31MOL0     O 4085  -1.275  -1.457   9.232 -0.1005  0.1346 -0.2979
   31MOL0     C 4086  -1.285  -1.588   9.282  0.9353  0.7111 -0.8226
   31MOL0     C 4087  -1.357  -1.694   9.188 -0.1804  0.0652 -0.9209
   31MOL0     C 4088  -1.249  -1.748   9.092  0.4362 -0.1927  0.2550
   31MOL0     C 4089  -1.304  -1.846   8.984  0.1987 -0.3591 -0.0873
   31MOL0     C 4090  -1.185  -1.886   8.890  1.0336 -0.1587 -0.9384
   31MOL0     C 4091  -1.156  -1.770   8.781  0.1071 -0.0261  0.5096
   31MOL0     C 4092  -1.035  -1.798   8.680 -0.6632 -0.4110 -0.7084
   31MOL0     C 4093  -1.073  -1.913   8.584  0.6478 -0.1115  0.3076
   31MOL0    Cl 4094  -1.007  -1.873   8.420  0.0760  0.1742 -0.4241
   31MOL0     C 4095  -1.183  -1.360   9.439  0.6725 -1.3593 -0.0453
   31MOL0     C 4096  -1.119  -1.248   9.495  0.0279  0.1994  0.0657
   31MOL0     O 4097  -0.974  -1.070   9.673 -0.8120 -0.2126 -0.3877
   31MOL0     C 4098  -0.742  -0.919   9.697 -0.2194 -0.0189  0.8542
   31MOL0     C 4099  -0.658  -0.814   9.713  0.2957 -0.1040  0.7258
   31MOL0     N 4100  -0.479  -0.003   9.679 -0.0288  0.4734  0.0973
   31MOL0     N 4101  -0.409   0.082   9.605 -0.7489 -0.8514  0.1592
   31MOL0     C 4102   0.289   0.878   9.462  0.3133 -1.0195 -0.4850
   31MOL0     C 4103   0.399   0.892   9.555 -0.0927 -0.2866  0.6154
   31MOL0     C 4104   0.660   0.955   9.889 -0.7782 -0.5804 -0.2258
   31MOL0     C 4105   0.639   1.007  10.015  0.1971 -0.0100  0.2459
   31MOL0     C 4106   0.755   1.030  10.094  0.4134  0.1350  0.9444
   31MOL0     C 4107   0.882   1.012  10.050 -0.3550 -0.1101  0.0984
   31MOL0     O 4108   0.985   1.042  10.135  0.8761 -0.3104 -0.0824
   31MOL0     C 4109   0.998   0.971  10.259 -0.4535  0.3040 -0.6416
   31MOL0     C 4110   1.143   0.968  10.298 -0.5141  0.3516 -0.4358
   31MOL0     C 4111   1.230   0.901  10.188 -0.0621 -0.6777 -0.3546
   31MOL0     C 4112   1.351   0.830  10.247  0.7982 -0.4293 -0.3973
   31MOL0     C 4113   1.318   0.700  10.286  0.7894  0.7473  0.5151
   31MOL0     C 4114   1.287   0.592  10.329 -0.2615 -0.2243  0.3370
   31MOL0     C 4115   0.905   0.954   9.921  0.6475 -0.1003  0.4308
   31MOL0     C 4116   0.792   0.936   9.840 -0.2810  0.4126 -0.8216
   31MOL0     C 4117   0.800   0.911   9.696  0.2714  0.4572 -0.1452
   31MOL0     H 4118   0.323   0.638   9.776  3.3106  0.0043 -0.4302
   31MOL0     H 4119   0.111   0.645   9.631 -1.7409  3.3073 -0.2478
   31MOL0     H 4120  -0.018   0.654   9.292  1.8105 -1.7031  0.2187
   31MOL0     H 4121   0.033   0.589   9.448 -1.2556 -2.0428 -1.0746
   31MOL0     H 4122  -0.185   0.812   9.403 -1.0567 -0.7313  0.6607
   31MOL0     H 4123  -0.126   0.743   9.563 -0.6240  0.7929  1.4012
   31MOL0     H 4124  -0.190   0.550   9.351  3.2663 -2.3813  2.7925
   31MOL0     H 4125  -0.329   0.629   9.432 -0.5864  3.6379  0.8546
   31MOL0     H 4126  -0.116   0.514   9.620 -0.0999 -0.0510  0.4566
   31MOL0     H 4127  -0.273   0.553   9.651 -2.0844 -2.2488 -0.8282
   31MOL0     H 4128  -0.261   0.296   9.628  0.6825  0.4117  0.3603
   31MOL0     H 4129  -0.345   0.335   9.486  0.7818  0.4100 -1.6673
   31MOL0     H 4130  -0.128   0.323   9.349  1.2414  1.4316 -0.6410
   31MOL0     H 4131  -0.037   0.316   9.505 -1.0588  0.8520  1.7131
   31MOL0     H 4132  -0.091   0.099   9.512 -1.8703  0.5978 -0.1036
   31MOL0     H 4133  -0.060   0.116   9.335  1.0178 -0.4094  0.3314
   31MOL0     H 4134  -0.324   0.162   9.349 -1.2739 -0.5094  1.2134
   31MOL0     H 4135  -0.268   0.003   9.308 -0.8860  1.3082 -0.5379
   31MOL0     H 4136  -0.289  -0.189   9.493  0.1723 -0.2828 -0.5259
   31MOL0     H 4137  -0.374  -0.326   9.712 -0.5368 -1.0384  1.3994
   31MOL0     H 4138  -0.485  -0.231   9.819  1.4636  0.9284  0.6660
   31MOL0     H 4139  -0.660  -0.229   9.634  1.2451  0.9803  1.6668
   31MOL0     H 4140  -0.572  -0.350   9.549 -3.3919 -0.7236 -0.3170
   31MOL0     H 4141  -0.753  -0.425   9.679 -0.4214 -1.6327  1.9601
   31MOL0     H 4142  -0.679  -0.352   9.832 -2.5926 -2.4100  0.7950
   31MOL0     H 4143  -0.658  -0.591   9.834 -1.5201 -1.0574 -2.3629
   31MOL0     H 4144  -0.504  -0.510   9.834  0.1772 -3.0446  2.6051
   31MOL0     H 4145  -0.722  -0.627   9.446  3.6143  1.6985  2.2052
   31MOL0     H 4146  -0.876  -0.817   9.392  0.3206  0.4065 -0.1148
   31MOL0     H 4147  -1.022  -1.089   9.223 -0.6049 -0.1889 -1.4398
   31MOL0     H 4148  -1.172  -1.269   9.108  1.9211 -2.6268 -0.2369
   31MOL0     H 4149  -1.189  -1.633   9.310  0.1459 -1.5338 -1.5229
   31MOL0     H 4150  -1.350  -1.585   9.370 -2.3916  0.1247 -3.0853
   31MOL0     H 4151  -1.394  -1.779   9.246  0.1437  0.0363 -0.7563
   31MOL0     H 4152  -1.441  -1.638   9.145  0.7000 -1.7725 -5.5365
   31MOL0     H 4153  -1.202  -1.664   9.042  1.3307 -1.1382 -0.5130
   31MOL0     H 4154  -1.162  -1.778   9.151  1.4508 -0.4577 -1.3404
   31MOL0     H 4155  -1.385  -1.797   8.929  0.8982  2.2840  1.1033
   31MOL0     H 4156  -1.337  -1.935   9.039  0.9151 -0.4467  0.2191
   31MOL0     H 4157  -1.211  -1.982   8.843 -0.5461  0.0860 -0.6112
   31MOL0     H 4158  -1.095  -1.909   8.948  0.4599  3.1749  1.5420
   31MOL0     H 4159  -1.247  -1.755   8.722  1.4472 -2.3035 -2.3561
   31MOL0     H 4160  -1.129  -1.677   8.832  1.8806  2.2324 -4.0368
   31MOL0     H 4161  -0.941  -1.817   8.734 -1.6621  2.1568  2.2273
   31MOL0     H 4162  -1.028  -1.704   8.625 -0.6114 -0.3126 -0.5342
   31MOL0     H 4163  -1.031  -2.010   8.613  1.2279 -0.1008 -0.4650
   31MOL0     H 4164  -1.181  -1.922   8.574  0.5694  1.3529 -0.3954
   31MOL0     H 4165  -1.220  -1.432   9.511  0.5889 -0.9095  0.3594
   31MOL0     H 4166  -1.141  -1.220   9.597  0.1359 -0.8117  0.3800
   31MOL0     H 4167  -0.745  -1.006   9.762  5.6058 -3.4743 -2.5786
   31MOL0     H 4168  -0.595  -0.813   9.801  1.6678 -4.0663 -0.0224
   31MOL0     H 4169   0.269   0.947   9.381 -0.4057 -2.7728 -1.8713
   31MOL0     H 4170   0.477   0.966   9.538 -1.3724  0.8352 -0.5117
   31MOL0     H 4171   0.542   1.043  10.049 -0.8269  0.4033 -2.8121
   31MOL0     H 4172   0.731   1.070  10.192 -1.8836  0.6664  0.2389
   31MOL0     H 4173   0.955   0.873  10.239 -2.1067  1.3391 -2.5624
   31MOL0     H 4174   0.932   1.021  10.330 -1.4813  0.5010 -1.6980
   31MOL0     H 4175   1.150   0.913  10.392  0.0649  2.1018  0.6014
   31MOL0     H 4176   1.175   1.071  10.317 -0.6132 -0.1868  3.5788
   31MOL0     H 4177   1.270   0.974  10.118 -1.0204 -0.6218 -0.8663
   31MOL0     H 4178   1.173   0.833  10.123 -2.0058 -1.0835  1.6314
   31MOL0     H 4179   1.422   0.824  10.165  1.6980  2.6676  0.0254
   31MOL0     H 4180   1.396   0.897  10.321  1.7680  1.1600 -2.3489
   31MOL0     H 4181   1.261   0.503  10.382  1.5003 -0.2448  1.2695
   31MOL0     H 4182   1.003   0.920   9.889  0.4882  0.0420 -0.2129
   31MOL0     H 4183   0.762   0.994   9.635  0.6527 -0.0319 -1.0595
   31MOL0     H 4184   0.904   0.914   9.662 -0.0164 -0.5554 -1.1663
   31MOL0     H 4185   0.772   0.810   9.666  0.0376  1.1144 -2.3095
   32MOL0     O 4186   0.464   8.576   6.929  0.4854  0.5075 -0.2375
   32MOL0     C 4187   0.356   8.554   6.871 -0.4903 -0.6846 -0.1091
   32MOL0     O 4188   0.348   8.488   6.754 -0.1915 -0.0627  0.4724
   32MOL0     C 4189   0.451   8.417   6.707 -0.2861  1.1625 -0.9051
   32MOL0     C 4190   0.448   8.280   6.697 -0.2723 -0.6059  0.0879
   32MOL0     C 4191   0.555   8.201   6.652 -0.0641  1.2108  0.1949
   32MOL0     C 4192   0.670   8.265   6.608  0.4487 -0.1068 -0.0390
   32MOL0     O 4193   0.781   8.189   6.571 -0.0782 -0.7313 -0.8950
   32MOL0     C 4194   0.765   8.055   6.533 -0.1298 -1.0684  0.9200
   32MOL0     C 4195   0.790   7.967   6.650  0.3364 -0.8775  0.1425
   32MOL0     C 4196   0.927   7.974   6.725 -0.2971 -0.0168 -0.3743
   32MOL0     C 4197   0.932   7.913   6.868  0.1164  0.6557  0.6132
   32MOL0     C 4198   0.901   7.763   6.878  0.2701 -0.5549 -0.4240
   32MOL0     C 4199   0.929   7.725   7.025  0.9641 -0.1510  0.5140
   32MOL0     C 4200   0.875   7.574   7.053 -0.3368  0.0330  0.7879
   32MOL0     C 4201   0.904   7.541   7.201 -0.2992  0.7976  1.0464
   32MOL0     N 4202   0.813   7.623   7.286  0.0995  0.7926  0.6110
   32MOL0     C 4203   0.679   7.590   7.319  0.3980  0.0351  0.0322
   32MOL0     C 4204   0.635   7.692   7.392  0.0713 -0.2295  0.3480
   32MOL0     C 4205   0.496   7.687   7.446 -1.6750  0.4659 -0.5467
   32MOL0     C 4206   0.496   7.691   7.601 -0.6737 -0.6497  0.0521
   32MOL0     C 4207   0.362   7.658   7.671 -0.2958 -0.1677 -0.8269
   32MOL0     C 4208   0.353   7.690   7.819 -0.2373  0.0528 -0.3405
   32MOL0     O 4209   0.220   7.729   7.858  0.2582  0.1127 -0.1066
   32MOL0     C 4210   0.185   7.857   7.892 -0.3028 -0.5500 -0.0156
   32MOL0     C 4211   0.267   7.957   7.952  0.1853  1.1538  0.3740
   32MOL0     C 4212   0.223   8.080   7.988  0.1286  0.3239  0.3442
   32MOL0     C 4213   0.097   8.115   7.961 -0.7811 -0.1454  0.1260
   32MOL0     C 4214   0.038   8.245   8.002  1.2687  0.2437  0.1943
   32MOL0     O 4215  -0.092   8.265   7.971  0.0428 -0.8962 -0.8758
   32MOL0     C 4216  -0.163   8.375   8.019  0.9591 -0.9803  1.2013
   32MOL0     C 4217  -0.273   8.349   8.097 -0.5085  0.4598  0.0479
   32MOL0     C 4218  -0.350   8.452   8.154 -0.6554  0.0533  0.5817
   32MOL0     C 4219  -0.320   8.590   8.126  0.9734 -0.0289  0.3922
   32MOL0     O 4220  -0.397   8.695   8.172 -0.5517  0.4130  0.4491
   32MOL0     C 4221  -0.524   8.708   8.104  0.0962  0.4932  0.4160
   32MOL0     C 4222  -0.568   8.849   8.121 -0.6458  0.3081 -0.5792
   32MOL0     C 4223  -0.706   8.882   8.071  0.1169  0.0496 -0.2194
   32MOL0     C 4224  -0.744   8.843   7.918 -0.7566  0.0149 -0.3601
   32MOL0     C 4225  -0.884   8.901   7.889  0.1379 -0.0138 -0.1717
   32MOL0     C 4226  -1.010   8.842   7.970 -0.0070 -1.1465  0.0260
   32MOL0     C 4227  -1.143   8.919   7.939  0.3199  0.4217  0.3609
   32MOL0     C 4228  -1.260   8.825   7.903  0.0907  0.9918  0.2327
   32MOL0    Cl 4229  -1.243   8.765   7.746  0.5356  0.1123 -0.2714
   32MOL0     C 4230  -0.211   8.609   8.038 -0.1705  0.7263 -0.3605
   32MOL0     C 4231  -0.132   8.507   7.985  0.1938 -0.1056  0.6001
   32MOL0     O 4232   0.109   8.326   8.058  0.3192 -0.1580  0.1023
   32MOL0     C 4233   0.009   8.014   7.906 -0.4521 -1.1387 -0.1862
   32MOL0     C 4234   0.052   7.880   7.882  0.3258 -0.6486  0.9314
   32MOL0     N 4235   0.732   7.788   7.399 -0.1310 -0.0339 -0.1022
   32MOL0     N 4236   0.838   7.745   7.339 -0.0500  0.3634  0.2601
   32MOL0     C 4237   0.679   8.402   6.612  1.1300 -0.3836 -0.0173
   32MOL0     C 4238   0.567   8.481   6.654  0.2841  0.8590  0.3007
   32MOL0     C 4239   0.229   8.597   6.940  0.2840 -0.6595  0.2450
   32MOL0     C 4240   0.113   8.579   6.868 -0.2238 -0.4098 -0.3784
   32MOL0     C 4241  -0.017   8.609   6.908 -0.4930  0.0406  0.1921
   32MOL0     C 4242  -0.035   8.666   7.031  0.7225 -0.1115 -0.5210
   32MOL0     O 4243  -0.163   8.677   7.079 -0.6970 -0.0459 -0.3167
   32MOL0     C 4244  -0.271   8.587   7.052 -0.8323  0.6729  0.3419
   32MOL0     C 4245  -0.388   8.658   6.993  0.1996  0.5588 -0.5939
   32MOL0     C 4246  -0.382   8.681   6.846  0.0477 -0.7761  1.3986
   32MOL0     C 4247  -0.434   8.564   6.770  0.2287 -0.3486 -0.8999
   32MOL0     C 4248  -0.587   8.567   6.778  0.2857  0.0857 -0.4279
   32MOL0     C 4249  -0.705   8.570   6.808  0.4269  0.3196 -0.1813
   32MOL0     C 4250   0.072   8.697   7.103 -0.4619 -0.3801  0.6752
   32MOL0     C 4251   0.211   8.657   7.071 -0.1887  0.6245  0.7134
   32MOL0     C 4252   0.321   8.689   7.162  0.2560 -0.2934  0.8037
   32MOL0     H 4253   0.364   8.221   6.734 -0.4137 -1.1144 -1.0211
   32MOL0     H 4254   0.537   8.094   6.656 -1.6615  1.4549  0.2425
   32MOL0     H 4255   0.664   8.042   6.494  0.0015 -0.6832  0.4449
   32MOL0     H 4256   0.825   8.006   6.455 -1.9804 -5.2636  1.8646
   32MOL0     H 4257   0.769   7.865   6.615 -0.2131 -0.3036 -1.2800
   32MOL0     H 4258   0.717   7.995   6.726 -0.2343 -0.1165 -0.6730
   32MOL0     H 4259   0.954   8.080   6.728  3.4168 -0.8269  0.4888
   32MOL0     H 4260   1.005   7.914   6.675 -0.8010 -0.8716 -0.1601
   32MOL0     H 4261   1.032   7.928   6.911  0.1492  3.5401 -0.2773
   32MOL0     H 4262   0.858   7.967   6.928 -2.1549 -0.2810 -1.1765
   32MOL0     H 4263   0.795   7.746   6.859  0.1347 -2.2571  1.4824
   32MOL0     H 4264   0.958   7.713   6.799 -1.5110 -0.6730 -1.6820
   32MOL0     H 4265   1.035   7.722   7.050  0.7787 -0.2754  1.3272
   32MOL0     H 4266   0.873   7.794   7.088  0.6558  0.7566 -0.7093
   32MOL0     H 4267   0.931   7.495   7.002 -2.0678 -0.1621 -0.8999
   32MOL0     H 4268   0.768   7.565   7.033 -0.1873 -0.1746  0.0591
   32MOL0     H 4269   0.888   7.434   7.214 -0.9317  0.7739  0.1540
   32MOL0     H 4270   1.009   7.563   7.222 -0.2345  1.7236 -0.1396
   32MOL0     H 4271   0.639   7.494   7.288 -0.4009 -0.3201  2.0415
   32MOL0     H 4272   0.429   7.762   7.401 -0.3858  2.6452  0.9932
   32MOL0     H 4273   0.449   7.589   7.433  0.4219 -0.8995  1.4237
   32MOL0     H 4274   0.568   7.618   7.640  1.3343 -1.1246 -3.9438
   32MOL0     H 4275   0.519   7.789   7.644 -1.2172 -0.4370 -0.1288
   32MOL0     H 4276   0.344   7.551   7.660 -1.7832  0.0769 -1.0396
   32MOL0     H 4277   0.281   7.718   7.627  0.0702  0.8585 -0.1294
   32MOL0     H 4278   0.416   7.775   7.847 -1.8974  0.5447  2.2151
   32MOL0     H 4279   0.376   7.601   7.878  2.9023  0.4126 -0.8554
   32MOL0     H 4280   0.369   7.926   7.973 -0.8192 -2.8410  0.1871
   32MOL0     H 4281   0.301   8.149   8.020 -1.4416  1.2729  2.4201
   32MOL0     H 4282  -0.300   8.245   8.113  2.2158 -0.2826  0.2131
   32MOL0     H 4283  -0.437   8.423   8.213 -4.8538 -0.9453 -5.1865
   32MOL0     H 4284  -0.507   8.690   7.997 -3.6865  1.0079 -0.3836
   32MOL0     H 4285  -0.604   8.644   8.139 -2.2790  1.2131 -3.1323
   32MOL0     H 4286  -0.571   8.860   8.229 -1.1121 -1.5256 -0.3719
   32MOL0     H 4287  -0.495   8.917   8.075 -0.7748  0.9249  0.1191
   32MOL0     H 4288  -0.769   8.825   8.140 -0.4470  3.2566  2.1354
   32MOL0     H 4289  -0.727   8.987   8.092 -0.1716  0.3208 -1.7595
   32MOL0     H 4290  -0.739   8.734   7.903 -0.7200 -0.3054  1.6449
   32MOL0     H 4291  -0.665   8.880   7.852  1.8720  1.2564  3.1747
   32MOL0     H 4292  -0.899   8.888   7.781  1.0591  0.5572 -0.3853
   32MOL0     H 4293  -0.870   9.008   7.910  1.9706 -0.4327  0.9363
   32MOL0     H 4294  -1.010   8.735   7.945  1.0759 -1.0672 -0.3846
   32MOL0     H 4295  -0.994   8.849   8.078  0.3962 -1.1902 -0.0292
   32MOL0     H 4296  -1.119   8.990   7.859  2.6105 -0.9439 -0.2285
   32MOL0     H 4297  -1.164   8.962   8.038 -1.4426 -1.4344  0.8629
   32MOL0     H 4298  -1.265   8.737   7.969  3.1522  1.2438  0.9483
   32MOL0     H 4299  -1.343   8.895   7.919  0.9850  2.1617 -0.1762
   32MOL0     H 4300  -0.180   8.712   8.022 -0.5581  1.0038  0.6005
   32MOL0     H 4301  -0.036   8.533   7.941  0.3155 -2.1400 -0.4095
   32MOL0     H 4302  -0.093   8.043   7.885 -0.6148 -0.5319  1.2797
   32MOL0     H 4303  -0.020   7.806   7.850 -1.8982  2.1979 -1.2054
   32MOL0     H 4304   0.770   8.449   6.577 -0.4313  2.7434 -0.2464
   32MOL0     H 4305   0.577   8.587   6.674 -1.3495  1.4613 -1.7145
   32MOL0     H 4306   0.124   8.531   6.771  0.2559  1.3893 -1.2539
   32MOL0     H 4307  -0.106   8.588   6.850 -2.1509 -0.2848  2.6931
   32MOL0     H 4308  -0.304   8.544   7.147 -0.3139 -0.3555  0.0713
   32MOL0     H 4309  -0.243   8.502   6.988 -0.8725  0.9477 -0.0405
   32MOL0     H 4310  -0.405   8.751   7.047 -2.4038 -0.2495  0.1014
   32MOL0     H 4311  -0.477   8.600   7.015  0.1820  0.9115  0.2909
   32MOL0     H 4312  -0.281   8.709   6.817  0.8621 -3.3514  1.5869
   32MOL0     H 4313  -0.452   8.764   6.829  0.0287 -1.3426 -1.8124
   32MOL0     H 4314  -0.397   8.577   6.668  1.0848  0.5289 -0.4915
   32MOL0     H 4315  -0.402   8.473   6.821 -0.7502  0.2231  0.8376
   32MOL0     H 4316  -0.809   8.587   6.826 -0.1543 -1.0511 -1.9691
   32MOL0     H 4317   0.046   8.753   7.193 -2.0833 -0.3765  0.2344
   32MOL0     H 4318   0.387   8.605   7.184 -1.2129 -0.8663  3.4684
   32MOL0     H 4319   0.363   8.774   7.108 -1.4304 -1.8757 -3.4261
   32MOL0     H 4320   0.290   8.726   7.260 -0.3526  0.4341  0.3504
   33MOL0     O 4321   4.056  10.682   4.222 -1.0219 -0.4677 -0.1479
   33MOL0     C 4322   4.001  10.689   4.334 -0.2885 -0.3069  0.1828
   33MOL0     O 4323   4.055  10.730   4.452  0.2932 -0.0951 -0.6319
   33MOL0     C 4324   4.183  10.729   4.473 -0.0399  0.6517  0.0172
   33MOL0     C 4325   4.263  10.819   4.403 -0.1958  0.2437  0.2630
   33MOL0     C 4326   4.394  10.837   4.449 -1.3309  0.3637 -0.1531
   33MOL0     C 4327   4.449  10.758   4.552 -0.3370 -0.6352  0.0509
   33MOL0     O 4328   4.579  10.792   4.577  0.1801  0.4545 -0.1626
   33MOL0     C 4329   4.640  10.690   4.651  0.3770  0.7180 -0.4418
   33MOL0     C 4330   4.790  10.740   4.669 -0.3177  0.3240  0.0482
   33MOL0     C 4331   4.885  10.623   4.692  0.4704  0.5896  0.7040
   33MOL0     C 4332   4.912  10.524   4.575  0.4747  0.0614 -0.0311
   33MOL0     C 4333   5.024  10.434   4.619 -0.8774 -0.4354  0.6591
   33MOL0     C 4334   5.065  10.357   4.484 -0.4828  0.0613  1.1148
   33MOL0     C 4335   4.963  10.281   4.394  1.1736 -0.6946 -0.9028
   33MOL0     C 4336   5.039  10.217   4.281  0.4550 -0.3781 -0.1349
   33MOL0     N 4337   5.114  10.299   4.182  0.3714 -0.2316 -0.6696
   33MOL0     C 4338   5.081  10.427   4.140  0.8448  0.6589 -0.1916
   33MOL0     C 4339   5.177  10.475   4.062 -0.8162 -0.1352  0.3460
   33MOL0     C 4340   5.187  10.611   3.991 -1.6150  0.5404 -0.2733
   33MOL0     C 4341   5.282  10.606   3.866  0.0918  0.4059  0.1315
   33MOL0     C 4342   5.220  10.513   3.763  0.7484 -0.7411 -0.6518
   33MOL0     C 4343   5.322  10.406   3.728  0.5101  0.1481  0.7592
   33MOL0     O 4344   5.287  10.352   3.606 -0.2794  0.8841 -1.3963
   33MOL0     C 4345   5.204  10.243   3.591  0.6056 -0.8541 -0.1464
   33MOL0     C 4346   5.211  10.191   3.462  0.0357 -0.5164 -0.8117
   33MOL0     C 4347   5.140  10.081   3.424  0.0786  1.1123 -0.4727
   33MOL0     C 4348   5.068  10.011   3.526 -0.3388  0.4714  0.0892
   33MOL0     C 4349   4.999   9.892   3.493  0.0241  0.5066  0.5264
   33MOL0     O 4350   5.027   9.822   3.376 -0.1853 -0.5887  0.8421
   33MOL0     C 4351   4.958   9.709   3.348  0.0515  0.1349 -1.0631
   33MOL0     C 4352   4.831   9.705   3.280  0.6835  0.4092 -0.0300
   33MOL0     C 4353   4.778   9.581   3.229  0.1686  0.2321  0.0242
   33MOL0     C 4354   4.841   9.464   3.253  0.9804  0.3297  1.0357
   33MOL0     O 4355   4.781   9.340   3.223  0.0425  0.3816 -0.0858
   33MOL0     C 4356   4.652   9.325   3.152 -0.9779  0.1999 -0.2303
   33MOL0     C 4357   4.526   9.320   3.239  0.9858 -0.4549  0.6834
   33MOL0     C 4358   4.414   9.247   3.158 -0.0570 -0.1158 -0.4457
   33MOL0     C 4359   4.281   9.234   3.239 -0.2047  0.1839 -0.3108
   33MOL0     C 4360   4.159   9.194   3.158  0.4899  0.1861  0.0243
   33MOL0     C 4361   4.040   9.186   3.255  0.4746 -0.2902 -0.2390
   33MOL0     C 4362   3.915   9.122   3.191  0.7982 -0.2201 -0.1239
   33MOL0     C 4363   3.800   9.116   3.291  0.0791 -0.8930  0.0512
   33MOL0    Cl 4364   3.746   9.288   3.309  0.0750 -0.0528  0.0998
   33MOL0     C 4365   4.964   9.462   3.323  0.0758 -0.0304  0.9790
   33MOL0     C 4366   5.014   9.582   3.371  0.4298  1.1398  0.0498
   33MOL0     O 4367   4.915   9.852   3.572 -0.2660 -0.0248 -0.2506
   33MOL0     C 4368   5.064  10.064   3.656  0.7439  0.2002 -0.1906
   33MOL0     C 4369   5.128  10.177   3.690  0.8248 -0.1896 -0.2366
   33MOL0     N 4370   5.276  10.379   4.055  0.0835 -0.2316  0.1475
   33MOL0     N 4371   5.234  10.272   4.121  0.0607  0.5290 -0.6724
   33MOL0     C 4372   4.371  10.658   4.609 -0.8925 -1.3213  0.6191
   33MOL0     C 4373   4.239  10.653   4.573 -0.2353 -0.3825 -0.1614
   33MOL0     C 4374   3.861  10.646   4.319 -0.2579 -0.1132  0.1761
   33MOL0     C 4375   3.815  10.547   4.410 -0.3943 -0.1999 -0.5557
   33MOL0     C 4376   3.684  10.494   4.397  0.1558  0.4444 -0.0228
   33MOL0     C 4377   3.600  10.531   4.288  0.5630 -0.1190  0.0626
   33MOL0     O 4378   3.475  10.486   4.264  0.2252 -0.5349  0.5598
   33MOL0     C 4379   3.420  10.377   4.335  0.2649  0.3965 -0.4257
   33MOL0     C 4380   3.295  10.318   4.260  0.3454 -0.4458  0.3219
   33MOL0     C 4381   3.218  10.220   4.347 -0.6510 -0.5862  0.9762
   33MOL0     C 4382   3.091  10.165   4.270  0.2618 -1.3611 -0.3932
   33MOL0     C 4383   2.995  10.086   4.357 -0.7742  0.2185  0.5151
   33MOL0     C 4384   2.914  10.019   4.428 -0.4180 -0.0251  0.0105
   33MOL0     C 4385   3.643  10.623   4.198 -1.6040 -1.5101 -0.0937
   33MOL0     C 4386   3.774  10.677   4.207  0.6651  0.2236 -0.3121
   33MOL0     C 4387   3.802  10.787   4.108  0.3093  0.1506 -0.7704
   33MOL0     H 4388   4.211  10.871   4.323 -2.0478  0.1349  1.3374
   33MOL0     H 4389   4.461  10.900   4.391 -2.0071 -0.7152 -2.2281
   33MOL0     H 4390   4.592  10.670   4.747 -1.7773 -0.0131 -1.6260
   33MOL0     H 4391   4.646  10.608   4.579  3.3672  1.0288 -0.7032
   33MOL0     H 4392   4.793  10.811   4.752 -0.6525  1.1770 -0.6532
   33MOL0     H 4393   4.825  10.778   4.573  0.8477 -0.2261  0.2373
   33MOL0     H 4394   4.843  10.559   4.770  1.7921 -1.4773 -0.1839
   33MOL0     H 4395   4.975  10.668   4.734  0.1948  3.0628 -1.1298
   33MOL0     H 4396   4.819  10.469   4.556  0.4322 -0.5159  1.6490
   33MOL0     H 4397   4.933  10.568   4.477 -1.5979 -3.9614 -2.5807
   33MOL0     H 4398   5.111  10.492   4.653 -0.1922 -1.1358  0.1255
   33MOL0     H 4399   4.992  10.364   4.697 -1.0040  1.8927  2.8283
   33MOL0     H 4400   5.117  10.432   4.423 -2.2393 -0.1120 -0.6753
   33MOL0     H 4401   5.145  10.285   4.506  0.0644  1.2074  3.1576
   33MOL0     H 4402   4.888  10.354   4.361 -0.7265 -1.4189  1.5418
   33MOL0     H 4403   4.901  10.211   4.450 -1.1088  1.3512 -0.7258
   33MOL0     H 4404   5.111  10.163   4.344 -0.8316  1.7555  3.4858
   33MOL0     H 4405   4.978  10.133   4.245  0.7235 -2.1250  3.0934
   33MOL0     H 4406   4.993  10.483   4.170  1.8945  0.3776  3.9991
   33MOL0     H 4407   5.094  10.659   3.962 -1.7050  0.4808 -0.0836
   33MOL0     H 4408   5.260  10.663   4.054  2.0689 -2.1310 -1.9307
   33MOL0     H 4409   5.286  10.709   3.828 -0.1309  0.3209 -0.1237
   33MOL0     H 4410   5.388  10.588   3.887  0.3982  1.6622 -0.2538
   33MOL0     H 4411   5.215  10.574   3.672  1.2077 -0.6692 -0.6318
   33MOL0     H 4412   5.127  10.471   3.800 -0.3930  2.5828  0.6029
   33MOL0     H 4413   5.316  10.331   3.807 -2.4399 -1.3193 -0.7046
   33MOL0     H 4414   5.427  10.438   3.717  0.9343 -0.6534  2.2620
   33MOL0     H 4415   5.272  10.251   3.395  2.5172 -0.4357  1.3426
   33MOL0     H 4416   5.155  10.042   3.324  1.9717  0.5777 -0.0168
   33MOL0     H 4417   4.781   9.801   3.268  0.8592  0.5205  0.1249
   33MOL0     H 4418   4.683   9.587   3.177 -0.9726  0.2625  2.0286
   33MOL0     H 4419   4.636   9.401   3.075 -0.2052  1.9330  1.2589
   33MOL0     H 4420   4.657   9.228   3.101 -1.0146  0.4658 -0.7506
   33MOL0     H 4421   4.544   9.260   3.328  1.0364  0.6621  1.4400
   33MOL0     H 4422   4.499   9.422   3.266 -0.4985 -1.2380  2.4130
   33MOL0     H 4423   4.380   9.313   3.077  3.0225  1.8208 -0.3251
   33MOL0     H 4424   4.440   9.150   3.117  0.1363 -0.3487  0.2139
   33MOL0     H 4425   4.253   9.323   3.295 -0.3746  1.3233 -2.1177
   33MOL0     H 4426   4.292   9.156   3.315  2.2757  0.1954 -0.6069
   33MOL0     H 4427   4.185   9.094   3.124  1.4246  0.2367  0.5358
   33MOL0     H 4428   4.144   9.258   3.070  0.5036  0.9116  0.5346
   33MOL0     H 4429   4.056   9.116   3.337 -0.6788  0.8090  0.9756
   33MOL0     H 4430   4.015   9.287   3.290  0.9662  0.9056 -2.9889
   33MOL0     H 4431   3.942   9.020   3.161 -0.9572 -0.3575 -1.3562
   33MOL0     H 4432   3.884   9.168   3.097 -2.4768 -2.1233 -0.1400
   33MOL0     H 4433   3.711   9.061   3.258 -0.9287  0.1454  0.9370
   33MOL0     H 4434   3.826   9.071   3.388  0.3656  3.8084  2.4212
   33MOL0     H 4435   5.008   9.365   3.346 -1.0075 -1.0265 -0.9311
   33MOL0     H 4436   5.096   9.600   3.439 -0.3014  0.3376  1.1710
   33MOL0     H 4437   5.008  10.015   3.735  2.4641 -1.3878  0.1193
   33MOL0     H 4438   5.117  10.203   3.795  0.2987 -1.9274  0.1741
   33MOL0     H 4439   4.401  10.587   4.685  2.6200 -0.8809 -0.1967
   33MOL0     H 4440   4.170  10.582   4.616  1.3043 -2.2088 -0.5818
   33MOL0     H 4441   3.877  10.527   4.497 -1.6583  1.9639  0.9277
   33MOL0     H 4442   3.662  10.415   4.468  3.7140  0.4956  1.3308
   33MOL0     H 4443   3.395  10.413   4.436 -2.8905  1.1769 -1.3636
   33MOL0     H 4444   3.480  10.287   4.342  2.4123  1.8771  2.3306
   33MOL0     H 4445   3.319  10.287   4.157  2.0738  0.9364  0.2639
   33MOL0     H 4446   3.226  10.401   4.244  2.0068  1.1462  1.1164
   33MOL0     H 4447   3.189  10.270   4.441  1.7100 -0.3874  1.6719
   33MOL0     H 4448   3.283  10.135   4.370  1.7494  0.6987 -0.5512
   33MOL0     H 4449   3.037  10.248   4.224  1.2391 -1.0656 -1.0362
   33MOL0     H 4450   3.128  10.113   4.180 -1.0344 -1.9582 -0.6141
   33MOL0     H 4451   2.855   9.951   4.487 -1.0904 -1.6929 -2.4182
   33MOL0     H 4452   3.569  10.655   4.126  0.5126  1.8944 -1.0036
   33MOL0     H 4453   3.787  10.748   4.007 -2.9547  1.4195 -0.8868
   33MOL0     H 4454   3.727  10.864   4.129 -0.6944 -1.1494  0.6689
   33MOL0     H 4455   3.900  10.835   4.117  0.4268 -0.2958  0.5513
   34MOL0     O 4456   3.027  11.462   0.704  0.1750  0.1179  0.1311
   34MOL0     C 4457   2.993  11.347   0.744 -0.5028  0.2766 -0.1529
   34MOL0     O 4458   3.074  11.251   0.796  0.4656  0.6823 -0.4974
   34MOL0     C 4459   3.210  11.235   0.778 -0.4480  1.0191  0.0908
   34MOL0     C 4460   3.261  11.103   0.786  0.3003  0.0045 -0.3796
   34MOL0     C 4461   3.386  11.069   0.744 -0.2250  0.0730  0.0315
   34MOL0     C 4462   3.479  11.170   0.708 -0.5645 -0.6351  1.2470
   34MOL0     O 4463   3.610  11.152   0.672 -0.7321 -0.2284 -0.2011
   34MOL0     C 4464   3.660  11.017   0.658 -0.3662  0.1086 -0.3786
   34MOL0     C 4465   3.818  11.030   0.646  0.6248  0.0052 -0.6875
   34MOL0     C 4466   3.835  11.104   0.512 -0.8813  1.3634 -0.4686
   34MOL0     C 4467   3.994  11.103   0.477  0.5014 -0.2467 -0.0482
   34MOL0     C 4468   4.027  11.168   0.342  0.0610 -0.4046  0.4670
   34MOL0     C 4469   4.171  11.187   0.293  0.7997  0.1632  0.0938
   34MOL0     C 4470   4.209  11.049   0.226 -1.3218  0.4897  0.5558
   34MOL0     C 4471   4.354  11.062   0.173 -1.2158 -0.2777 -0.0357
   34MOL0     N 4472   4.464  11.069   0.279  1.4959 -0.5268  0.2349
   34MOL0     C 4473   4.593  11.051   0.246  0.2361  0.3939  0.6952
   34MOL0     C 4474   4.649  10.979   0.351  0.1675  0.2966 -1.2099
   34MOL0     C 4475   4.786  10.931   0.358 -0.1720 -0.6056 -0.4248
   34MOL0     C 4476   4.850  10.996   0.484 -0.7068  0.5203  0.1738
   34MOL0     C 4477   4.970  10.912   0.533  0.3053 -0.6262 -0.2263
   34MOL0     C 4478   5.070  10.870   0.430 -0.0748 -0.1241  0.2027
   34MOL0     O 4479   5.141  10.777   0.516 -0.0280  0.3158 -0.4593
   34MOL0     C 4480   5.278  10.784   0.551  0.3876 -1.1544  0.0338
   34MOL0     C 4481   5.364  10.810   0.448 -0.2706  0.0857 -0.3222
   34MOL0     C 4482   5.494  10.861   0.478  0.0178 -1.1918  0.6105
   34MOL0     C 4483   5.547  10.841   0.600 -0.5503  0.4863  0.6911
   34MOL0     C 4484   5.687  10.869   0.632  0.9675 -0.7134  0.1897
   34MOL0     O 4485   5.720  10.866   0.764 -0.2230  0.1227 -0.0736
   34MOL0     C 4486   5.848  10.836   0.799 -0.6163 -1.2639 -0.3758
   34MOL0     C 4487   5.902  10.700   0.783 -0.0686 -0.0722  0.1763
   34MOL0     C 4488   6.027  10.675   0.819 -0.0112 -0.6336  1.1016
   34MOL0     C 4489   6.096  10.778   0.893  0.0364  0.4155 -0.0538
   34MOL0     O 4490   6.225  10.761   0.940  0.3947 -0.1887 -1.0814
   34MOL0     C 4491   6.323  10.701   0.849 -1.0043 -0.5412  0.5319
   34MOL0     C 4492   6.458  10.768   0.892  1.1437 -0.0182  0.0028
   34MOL0     C 4493   6.472  10.921   0.912  0.6571  0.5142  0.5557
   34MOL0     C 4494   6.407  11.009   0.802  0.0963 -0.7589  0.2487
   34MOL0     C 4495   6.435  11.158   0.825  0.1836  0.1655 -0.3908
   34MOL0     C 4496   6.364  11.213   0.940 -0.3627 -0.1210 -0.0872
   34MOL0     C 4497   6.392  11.364   0.959 -1.5209  0.0345 -0.3917
   34MOL0     C 4498   6.305  11.439   1.069 -0.6009 -0.2866  0.2866
   34MOL0    Cl 4499   6.314  11.350   1.224  0.3943 -0.0631 -0.2052
   34MOL0     C 4500   6.043  10.902   0.916 -0.5710  0.0430  0.2352
   34MOL0     C 4501   5.925  10.943   0.858  0.5545  0.6461  0.0808
   34MOL0     O 4502   5.762  10.899   0.537  0.6374 -0.1529 -0.4006
   34MOL0     C 4503   5.464  10.781   0.699 -0.2630 -0.2647  0.8972
   34MOL0     C 4504   5.322  10.756   0.673 -0.1946 -0.0726  0.2798
   34MOL0     N 4505   4.548  10.959   0.441 -0.6942  0.1505  0.1472
   34MOL0     N 4506   4.442  11.013   0.402  0.2397  0.2589  0.2331
   34MOL0     C 4507   3.425  11.300   0.686  0.2641 -0.4348  0.3855
   34MOL0     C 4508   3.295  11.329   0.729 -0.2081  0.2794  1.0079
   34MOL0     C 4509   2.850  11.316   0.767 -0.2208 -0.1756 -0.3708
   34MOL0     C 4510   2.779  11.438   0.825 -0.7178  0.5944 -0.2912
   34MOL0     C 4511   2.637  11.417   0.844 -0.1170  0.0634 -0.0848
   34MOL0     C 4512   2.577  11.293   0.825 -0.5667 -0.2442 -0.4841
   34MOL0     O 4513   2.447  11.269   0.853  0.5968  0.5498 -0.3576
   34MOL0     C 4514   2.405  11.293   0.992  0.1795  0.1011  0.5444
   34MOL0     C 4515   2.412  11.173   1.076  0.1973  0.2768 -0.0194
   34MOL0     C 4516   2.552  11.128   1.146 -0.0067 -0.9804  0.7963
   34MOL0     C 4517   2.589  11.185   1.282  0.2861 -0.5929  1.0869
   34MOL0     C 4518   2.507  11.129   1.398 -0.1456  1.0415 -0.5723
   34MOL0     C 4519   2.448  11.075   1.482 -0.7696  1.0302 -0.2195
   34MOL0     C 4520   2.651  11.193   0.760  1.4419  0.7564 -0.5982
   34MOL0     C 4521   2.785  11.201   0.732  0.0488  0.0136  0.0629
   34MOL0     C 4522   2.857  11.082   0.653 -0.2975  0.2298 -0.0958
   34MOL0     H 4523   3.200  11.018   0.816  0.7436 -0.8883 -1.9569
   34MOL0     H 4524   3.410  10.964   0.755  0.8054 -0.2160 -3.6655
   34MOL0     H 4525   3.638  10.951   0.743  1.3176 -1.9249 -1.4276
   34MOL0     H 4526   3.626  10.975   0.563 -1.0861  1.6607 -0.8317
   34MOL0     H 4527   3.875  10.939   0.663  2.5167  1.2997  0.3388
   34MOL0     H 4528   3.865  11.085   0.728  1.4021 -1.8429  0.1530
   34MOL0     H 4529   3.800  11.208   0.519  0.6184  1.7774  3.1268
   34MOL0     H 4530   3.769  11.058   0.438  0.0447  0.4539 -0.7547
   34MOL0     H 4531   4.043  11.166   0.551 -1.4102  3.0906 -1.4113
   34MOL0     H 4532   4.035  11.001   0.478  0.5683 -0.2567 -1.6042
   34MOL0     H 4533   3.972  11.117   0.262 -1.0128  2.9297 -1.0686
   34MOL0     H 4534   3.984  11.268   0.346  0.7103 -0.0461 -0.8997
   34MOL0     H 4535   4.175  11.262   0.214 -4.5606  0.6026 -0.1006
   34MOL0     H 4536   4.242  11.224   0.367 -1.8469  1.7572  1.9748
   34MOL0     H 4537   4.146  11.034   0.137 -0.4937  0.5174 -0.0490
   34MOL0     H 4538   4.200  10.967   0.298 -0.7769 -0.6015 -0.5777
   34MOL0     H 4539   4.380  10.988   0.098  3.3257  0.7335  0.2660
   34MOL0     H 4540   4.371  11.154   0.117  1.1718  0.4503  1.7215
   34MOL0     H 4541   4.633  11.062   0.146 -2.2442 -4.1109 -1.1200
   34MOL0     H 4542   4.778  10.825   0.386 -0.7125 -0.1442  1.3055
   34MOL0     H 4543   4.845  10.937   0.266 -0.5302 -2.1344 -0.7955
   34MOL0     H 4544   4.882  11.096   0.452 -0.7366 -0.4446 -3.1891
   34MOL0     H 4545   4.785  10.989   0.572 -0.4770  0.5425  0.3456
   34MOL0     H 4546   4.922  10.827   0.583  0.2055  0.5682  1.8315
   34MOL0     H 4547   5.019  10.971   0.611 -4.2884  0.8687  1.8866
   34MOL0     H 4548   5.113  10.963   0.391  0.2772  0.5148  2.0101
   34MOL0     H 4549   5.022  10.800   0.362  0.1830 -0.7234  0.6280
   34MOL0     H 4550   5.330  10.808   0.345  2.7152  0.6579 -1.4039
   34MOL0     H 4551   5.543  10.906   0.392 -2.3798  1.7340  0.6145
   34MOL0     H 4552   5.836  10.628   0.736 -0.5440  0.0070  0.7023
   34MOL0     H 4553   6.070  10.577   0.800 -1.3160 -1.1324  0.6345
   34MOL0     H 4554   6.329  10.592   0.857  2.2531 -0.6869 -1.8801
   34MOL0     H 4555   6.292  10.732   0.749  1.7222  0.5756 -0.0706
   34MOL0     H 4556   6.483  10.712   0.984  1.0267  0.2357  0.1898
   34MOL0     H 4557   6.533  10.744   0.816  0.1150  0.8574 -1.3096
   34MOL0     H 4558   6.425  10.934   1.010 -1.4492 -2.4246  0.0739
   34MOL0     H 4559   6.578  10.942   0.925  0.9332  0.5554 -1.5096
   34MOL0     H 4560   6.299  10.994   0.802  0.2264 -2.3608 -2.3124
   34MOL0     H 4561   6.459  10.981   0.709  0.9194  0.7262  0.2324
   34MOL0     H 4562   6.412  11.214   0.734 -0.9762 -1.0087 -0.8533
   34MOL0     H 4563   6.544  11.168   0.830  0.0024  1.7336  2.8634
   34MOL0     H 4564   6.257  11.200   0.924 -0.5226  1.7187 -0.7672
   34MOL0     H 4565   6.378  11.160   1.034 -0.7889 -0.4929 -0.2269
   34MOL0     H 4566   6.372  11.430   0.874 -2.6739  0.3626  0.1228
   34MOL0     H 4567   6.501  11.369   0.966 -1.3742 -0.7502 -1.7096
   34MOL0     H 4568   6.340  11.543   1.077 -2.6881  0.3123  3.7772
   34MOL0     H 4569   6.201  11.439   1.036  0.0666 -0.2286 -1.9836
   34MOL0     H 4570   6.105  10.964   0.980 -1.2389 -0.6940  1.6502
   34MOL0     H 4571   5.879  11.041   0.866 -0.9913  0.2041 -2.2663
   34MOL0     H 4572   5.494  10.751   0.799 -0.5314 -2.9257  0.2658
   34MOL0     H 4573   5.252  10.721   0.748 -0.2603  1.3005  0.8834
   34MOL0     H 4574   3.491  11.373   0.640  0.2373  0.9690  2.4452
   34MOL0     H 4575   3.263  11.429   0.701 -0.1755  0.1665  0.5608
   34MOL0     H 4576   2.825  11.534   0.846  0.4286  0.2841 -1.2942
   34MOL0     H 4577   2.572  11.495   0.882 -0.3518 -0.1403 -0.0648
   34MOL0     H 4578   2.303  11.331   0.978  0.8541  1.3693 -1.2773
   34MOL0     H 4579   2.473  11.363   1.042  1.8625 -1.3270  0.3380
   34MOL0     H 4580   2.394  11.100   0.996  1.6695  0.5512 -0.6436
   34MOL0     H 4581   2.334  11.158   1.151  2.4677 -0.1880  2.3976
   34MOL0     H 4582   2.636  11.139   1.076  0.5424  0.0003  1.5979
   34MOL0     H 4583   2.554  11.021   1.168  0.6365 -1.4126 -1.1526
   34MOL0     H 4584   2.697  11.165   1.286  0.5747  0.3770 -0.5964
   34MOL0     H 4585   2.575  11.293   1.272 -1.8683 -0.9298 -0.1519
   34MOL0     H 4586   2.387  11.025   1.555  1.2891  0.0675  0.9405
   34MOL0     H 4587   2.601  11.102   0.731  2.2533  0.0552  0.1573
   34MOL0     H 4588   2.922  11.131   0.580  0.6486 -0.0970  0.5157
   34MOL0     H 4589   2.913  11.021   0.724 -0.4494 -0.9808 -0.9849
   34MOL0     H 4590   2.778  11.017   0.615  0.4156  0.0424 -1.2949
   35MOL0     O 4591   8.531   1.355   7.389 -0.0977 -0.7697  0.5838
   35MOL0     C 4592   8.416   1.362   7.348  0.6120  0.9022 -0.9502
   35MOL0     O 4593   8.342   1.480   7.335  1.1638 -0.6493 -0.3334
   35MOL0     C 4594   8.397   1.595   7.367  0.7749  0.0962  0.1015
   35MOL0     C 4595   8.312   1.697   7.415 -0.2813 -0.8328  0.6069
   35MOL0     C 4596   8.344   1.835   7.418 -0.2814  1.5019 -0.8145
   35MOL0     C 4597   8.480   1.864   7.381 -0.3207  0.3865 -0.8311
   35MOL0     O 4598   8.515   2.001   7.393 -0.1283  0.6070  0.4034
   35MOL0     C 4599   8.651   2.015   7.417 -0.0906 -0.9756  0.0075
   35MOL0     C 4600   8.671   2.163   7.471 -0.7663 -0.4662 -0.1750
   35MOL0     C 4601   8.586   2.263   7.398 -0.8043  0.7823  0.2340
   35MOL0     C 4602   8.648   2.278   7.255  0.6063 -0.0604  0.2678
   35MOL0     C 4603   8.579   2.386   7.170 -0.3914  0.0029  0.0301
   35MOL0     C 4604   8.611   2.375   7.019 -0.3660  0.1844  0.2896
   35MOL0     C 4605   8.756   2.390   7.001  0.3098 -0.2053  0.0943
   35MOL0     C 4606   8.777   2.390   6.849  0.2839 -0.0237 -1.1334
   35MOL0     N 4607   8.858   2.508   6.814 -1.0705  0.2585 -1.0278
   35MOL0     C 4608   8.818   2.638   6.785 -0.2635 -0.1873 -0.3071
   35MOL0     C 4609   8.921   2.698   6.724 -0.2914  0.4452 -0.5493
   35MOL0     C 4610   8.914   2.838   6.683 -0.2509 -0.2001 -0.3429
   35MOL0     C 4611   9.017   2.942   6.718 -0.5488 -0.3201 -0.3689
   35MOL0     C 4612   9.166   2.913   6.694  0.2167  0.6148 -0.2606
   35MOL0     C 4613   9.270   3.023   6.720  0.1910 -0.8005  0.0627
   35MOL0     O 4614   9.258   3.128   6.611  0.0193  0.0663  0.2453
   35MOL0     C 4615   9.274   3.258   6.652  0.3013 -0.4926 -0.3593
   35MOL0     C 4616   9.382   3.302   6.727  0.8496 -0.4961  0.2026
   35MOL0     C 4617   9.410   3.438   6.750 -0.0235 -0.0751 -1.0179
   35MOL0     C 4618   9.326   3.544   6.695 -1.3789 -0.4101 -0.1994
   35MOL0     C 4619   9.370   3.682   6.705 -0.1588  0.2687 -0.9448
   35MOL0     O 4620   9.486   3.704   6.769  0.2181 -0.9755  0.4912
   35MOL0     C 4621   9.545   3.832   6.756  0.2035  1.3941 -0.4664
   35MOL0     C 4622   9.556   3.896   6.632  0.6049  0.1219 -0.9371
   35MOL0     C 4623   9.620   4.022   6.617 -0.3175 -1.3208 -0.5380
   35MOL0     C 4624   9.695   4.079   6.724  0.7169  0.2318  1.3582
   35MOL0     O 4625   9.766   4.196   6.702  0.2020  0.6470  0.3574
   35MOL0     C 4626   9.758   4.294   6.800  0.0786 -0.4527  0.6506
   35MOL0     C 4627   9.902   4.349   6.851  0.0331  0.2832  0.3437
   35MOL0     C 4628   9.894   4.442   6.967  0.2426 -0.1585 -0.0855
   35MOL0     C 4629  10.036   4.463   7.040 -0.8347  0.2624  0.1647
   35MOL0     C 4630  10.026   4.433   7.193  0.5589 -0.1126 -0.0376
   35MOL0     C 4631   9.984   4.286   7.236  0.0247  0.1379 -0.0009
   35MOL0     C 4632   9.984   4.262   7.386  0.2476 -0.0150 -0.6954
   35MOL0     C 4633   9.953   4.114   7.428 -0.7917 -0.0048 -0.9494
   35MOL0    Cl 4634   9.945   4.125   7.611 -0.1802  0.4965 -0.4959
   35MOL0     C 4635   9.692   4.012   6.850  0.4059  0.4864 -0.7321
   35MOL0     C 4636   9.617   3.889   6.866  0.8173 -0.1910  1.0967
   35MOL0     O 4637   9.297   3.769   6.654  0.1502 -0.5873  0.2342
   35MOL0     C 4638   9.210   3.501   6.630 -0.5203  0.6692  0.6902
   35MOL0     C 4639   9.190   3.362   6.602 -0.2903 -0.5977 -1.1342
   35MOL0     N 4640   9.016   2.596   6.693  0.7818 -0.3106  0.1374
   35MOL0     N 4641   8.977   2.480   6.741 -0.3518 -1.1451 -0.1834
   35MOL0     C 4642   8.559   1.771   7.323 -0.0445  1.5861  0.2656
   35MOL0     C 4643   8.520   1.631   7.316  0.1161  0.1110 -0.8484
   35MOL0     C 4644   8.348   1.243   7.298  0.1721  0.5760 -0.6941
   35MOL0     C 4645   8.241   1.256   7.215  0.3200  1.3841 -0.7180
   35MOL0     C 4646   8.160   1.145   7.173  1.0644 -0.8830 -0.4547
   35MOL0     C 4647   8.184   1.013   7.209  0.0762 -0.6730 -0.7932
   35MOL0     O 4648   8.113   0.909   7.158  1.0503  0.3588  0.3724
   35MOL0     C 4649   8.154   0.766   7.174  0.7783  0.0182  0.4350
   35MOL0     C 4650   8.282   0.751   7.090 -0.4025 -0.8820 -0.5125
   35MOL0     C 4651   8.345   0.607   7.102  0.5068 -0.2770  0.2982
   35MOL0     C 4652   8.442   0.574   6.985  0.1556 -0.1136  0.0271
   35MOL0     C 4653   8.369   0.559   6.857  0.2928  0.2230  0.7372
   35MOL0     C 4654   8.310   0.534   6.756 -0.5856  0.2249  0.4945
   35MOL0     C 4655   8.292   1.002   7.303  0.7275 -0.5000  0.3157
   35MOL0     C 4656   8.370   1.112   7.355 -0.2434  0.0530 -0.2255
   35MOL0     C 4657   8.468   1.074   7.457  0.3644 -1.2998 -0.5776
   35MOL0     H 4658   8.204   1.688   7.426 -0.6578  0.8707 -1.1790
   35MOL0     H 4659   8.268   1.911   7.432 -3.0120 -0.9074 -1.6674
   35MOL0     H 4660   8.688   1.952   7.498  1.4418  0.3519  0.3851
   35MOL0     H 4661   8.715   2.007   7.329  1.5761  0.2321  1.0439
   35MOL0     H 4662   8.778   2.187   7.467 -0.3665 -2.2086 -0.9388
   35MOL0     H 4663   8.646   2.156   7.577 -5.5626 -4.3716 -1.1811
   35MOL0     H 4664   8.580   2.358   7.452  2.7417  0.9203  0.6573
   35MOL0     H 4665   8.482   2.231   7.391 -0.2907 -1.5288  2.0750
   35MOL0     H 4666   8.751   2.316   7.253  0.8532 -0.6314  1.2718
   35MOL0     H 4667   8.653   2.178   7.211  1.3496 -0.1382  0.5089
   35MOL0     H 4668   8.471   2.366   7.172 -0.4135  0.1524  2.2742
   35MOL0     H 4669   8.602   2.483   7.215  0.2086 -0.9283  1.8009
   35MOL0     H 4670   8.579   2.280   6.977  1.6793 -1.1479  1.5683
   35MOL0     H 4671   8.564   2.463   6.975 -2.2499  0.3227  2.4231
   35MOL0     H 4672   8.817   2.311   7.046 -0.8839 -0.7289  0.8504
   35MOL0     H 4673   8.793   2.489   7.030 -0.7111 -0.1295  1.2485
   35MOL0     H 4674   8.824   2.296   6.819 -0.1657 -1.2865  1.7501
   35MOL0     H 4675   8.694   2.393   6.778  2.0766 -0.1529 -3.3504
   35MOL0     H 4676   8.720   2.675   6.812 -0.2308 -1.1424  1.1922
   35MOL0     H 4677   8.897   2.838   6.575  0.3626 -2.0687 -0.4732
   35MOL0     H 4678   8.818   2.883   6.711  0.5106  1.0766  0.3302
   35MOL0     H 4679   9.000   3.036   6.665 -2.7396 -1.0332 -1.0574
   35MOL0     H 4680   9.003   2.960   6.824 -2.5334  2.5743 -1.0063
   35MOL0     H 4681   9.176   2.891   6.587  0.2916  0.4424 -0.2183
   35MOL0     H 4682   9.194   2.823   6.750 -2.7719  0.2832  0.8720
   35MOL0     H 4683   9.371   2.982   6.732  0.5399  0.2056  0.6981
   35MOL0     H 4684   9.248   3.065   6.818 -0.6553 -1.5617  0.2081
   35MOL0     H 4685   9.446   3.230   6.776 -0.7840 -0.7697  2.1114
   35MOL0     H 4686   9.495   3.464   6.811 -0.7067 -0.8967  0.3318
   35MOL0     H 4687   9.515   3.846   6.545 -0.2034  0.6404 -0.8681
   35MOL0     H 4688   9.608   4.066   6.519 -2.0678  0.8066  0.5374
   35MOL0     H 4689   9.717   4.383   6.751 -0.4822 -1.4978 -0.8582
   35MOL0     H 4690   9.692   4.265   6.882 -0.2324 -0.3716  0.4281
   35MOL0     H 4691   9.958   4.261   6.883  0.6683 -0.5198 -2.6070
   35MOL0     H 4692   9.970   4.380   6.771  0.7413 -0.5957  0.5856
   35MOL0     H 4693   9.867   4.543   6.936 -0.1432  0.0251  0.8143
   35MOL0     H 4694   9.816   4.403   7.033 -2.5891  1.9865 -1.9370
   35MOL0     H 4695  10.065   4.566   7.015 -1.1802  0.3014 -0.0870
   35MOL0     H 4696  10.113   4.396   7.001  1.1276  2.0745  0.7302
   35MOL0     H 4697   9.948   4.504   7.221  0.2505  0.0824 -1.3284
   35MOL0     H 4698  10.124   4.457   7.236  0.3843  0.1362  0.2189
   35MOL0     H 4699   9.883   4.261   7.201 -0.0170  0.4056 -0.0782
   35MOL0     H 4700  10.047   4.215   7.182  0.8415  2.0785 -1.7620
   35MOL0     H 4701   9.904   4.321   7.430  1.1367  0.2461  0.6486
   35MOL0     H 4702  10.073   4.294   7.441 -0.7575 -0.5692  1.3416
   35MOL0     H 4703   9.859   4.077   7.385 -0.6035  0.6143 -1.9457
   35MOL0     H 4704  10.041   4.057   7.399 -0.3898 -0.5617  1.2119
   35MOL0     H 4705   9.741   4.035   6.943  0.3541  2.2920 -1.1228
   35MOL0     H 4706   9.615   3.834   6.959 -2.3580 -3.5566 -0.6905
   35MOL0     H 4707   9.154   3.587   6.595 -0.3267  0.2420 -0.7503
   35MOL0     H 4708   9.101   3.352   6.541 -2.3579  1.0398  1.3731
   35MOL0     H 4709   8.661   1.790   7.291  0.0388 -0.7547 -1.0175
   35MOL0     H 4710   8.584   1.560   7.265 -1.5462 -1.0291 -1.4309
   35MOL0     H 4711   8.215   1.351   7.170 -3.5936  1.1721  0.6670
   35MOL0     H 4712   8.085   1.170   7.099  0.3727  2.4825  1.2017
   35MOL0     H 4713   8.077   0.709   7.122  1.3704  0.5555 -1.0676
   35MOL0     H 4714   8.162   0.748   7.282  0.0874 -0.5031  0.4032
   35MOL0     H 4715   8.363   0.821   7.116  2.8556 -4.7833  0.8851
   35MOL0     H 4716   8.256   0.769   6.985  2.4418  1.4077 -0.9414
   35MOL0     H 4717   8.260   0.538   7.106  1.5608 -1.6129  0.6192
   35MOL0     H 4718   8.407   0.594   7.192  1.8287  1.6550 -0.2621
   35MOL0     H 4719   8.510   0.658   6.966 -1.1920  0.7488 -1.1741
   35MOL0     H 4720   8.505   0.487   7.002  4.0856  2.3439 -0.6767
   35MOL0     H 4721   8.261   0.501   6.667 -1.6751  1.7626  0.4839
   35MOL0     H 4722   8.316   0.911   7.357  3.3528  0.3638  0.7775
   35MOL0     H 4723   8.571   1.074   7.418  0.2520 -2.3667 -0.9131
   35MOL0     H 4724   8.460   1.131   7.550  3.1270 -0.9328 -0.4582
   35MOL0     H 4725   8.446   0.972   7.490  0.0186 -1.0368  0.0205
   36MOL0     O 4726   2.069   1.052   7.919  0.7257 -0.3159 -0.3146
   36MOL0     C 4727   1.961   1.094   7.887 -0.1165 -0.2967  0.0511
   36MOL0     O 4728   1.909   1.219   7.919 -0.0831  0.2894  0.4928
   36MOL0     C 4729   2.010   1.307   7.931  0.1473 -0.5913 -0.1712
   36MOL0     C 4730   2.064   1.364   7.812 -0.2621 -0.7301  0.2599
   36MOL0     C 4731   2.178   1.444   7.824 -0.2928  0.9647 -0.2181
   36MOL0     C 4732   2.234   1.481   7.946  0.3942 -0.0798  0.0442
   36MOL0     O 4733   2.344   1.563   7.962  0.5074  0.1243  0.5484
   36MOL0     C 4734   2.431   1.585   7.853 -0.2029 -0.6428  0.2318
   36MOL0     C 4735   2.555   1.665   7.902  0.2889  0.6822 -0.0947
   36MOL0     C 4736   2.656   1.688   7.785 -0.0499  0.1336 -0.4444
   36MOL0     C 4737   2.694   1.564   7.721 -0.4843  0.3182  0.3078
   36MOL0     C 4738   2.767   1.460   7.804  0.6733  0.3630 -0.0876
   36MOL0     C 4739   2.831   1.336   7.725  0.0385  0.4795  0.0414
   36MOL0     C 4740   2.914   1.257   7.817 -0.3228  1.4138 -0.7322
   36MOL0     C 4741   2.954   1.115   7.758  1.2082  0.0088  0.3715
   36MOL0     N 4742   3.065   1.057   7.832  0.5719  0.4664 -0.4904
   36MOL0     C 4743   3.197   1.057   7.792  0.3490 -0.3033 -0.2366
   36MOL0     C 4744   3.263   0.978   7.875 -0.2748  0.1745 -0.7465
   36MOL0     C 4745   3.413   0.951   7.885  0.1477 -0.1433  0.7477
   36MOL0     C 4746   3.450   1.031   8.006 -0.4061 -0.0047  0.5190
   36MOL0     C 4747   3.606   1.050   8.018  0.1046 -0.1868  0.0150
   36MOL0     C 4748   3.669   0.910   8.063 -0.7808  0.1514 -0.4733
   36MOL0     O 4749   3.776   0.868   7.970  0.7978  0.6888  0.1984
   36MOL0     C 4750   3.878   0.955   7.956 -0.6463 -0.5802  1.1162
   36MOL0     C 4751   3.957   0.953   7.836  0.3822  1.0774  0.6097
   36MOL0     C 4752   4.068   1.031   7.817  0.2012 -0.4850  1.1940
   36MOL0     C 4753   4.112   1.127   7.912 -0.5491  0.6414 -0.4868
   36MOL0     C 4754   4.234   1.203   7.888 -0.8781 -0.4910  0.9270
   36MOL0     O 4755   4.292   1.260   7.992  0.5751  0.0378 -0.0135
   36MOL0     C 4756   4.384   1.365   7.985  0.4044  0.6427 -0.3591
   36MOL0     C 4757   4.445   1.420   7.867 -0.2582  0.6736  0.9884
   36MOL0     C 4758   4.535   1.523   7.876  0.1148  0.2341  0.4553
   36MOL0     C 4759   4.574   1.566   8.000 -0.0478  0.2952 -0.1907
   36MOL0     O 4760   4.683   1.648   8.004  0.1741  0.4692  0.4045
   36MOL0     C 4761   4.788   1.605   8.086 -0.0071 -0.2219 -0.1734
   36MOL0     C 4762   4.881   1.513   8.023  0.0241  1.0104  1.5071
   36MOL0     C 4763   4.954   1.573   7.911 -0.3495 -0.9215 -0.2147
   36MOL0     C 4764   5.073   1.651   7.962  0.7444  0.6109  0.6727
   36MOL0     C 4765   5.116   1.759   7.858 -0.1864 -0.5080 -0.1583
   36MOL0     C 4766   5.247   1.825   7.920 -0.4381  0.0815 -0.2573
   36MOL0     C 4767   5.309   1.921   7.821  0.5872 -0.5372  0.5838
   36MOL0     C 4768   5.443   1.949   7.866 -0.8685 -0.8088 -0.2674
   36MOL0    Cl 4769   5.547   2.014   7.738 -0.0829  0.2623  0.0795
   36MOL0     C 4770   4.518   1.519   8.118  0.5090  0.3009 -0.2841
   36MOL0     C 4771   4.428   1.413   8.106  0.5970 -0.4878 -0.3335
   36MOL0     O 4772   4.276   1.208   7.768 -0.4038 -0.7514 -0.0968
   36MOL0     C 4773   4.051   1.119   8.040  0.0970  0.6871 -0.2385
   36MOL0     C 4774   3.940   1.036   8.058  0.5706  0.8105  0.4449
   36MOL0     N 4775   3.171   0.948   7.976  0.0422 -0.5958 -0.2831
   36MOL0     N 4776   3.055   0.993   7.949 -0.0843  1.3087 -0.1326
   36MOL0     C 4777   2.172   1.438   8.068  0.5673  0.0765 -0.6578
   36MOL0     C 4778   2.059   1.349   8.057  0.3016 -0.2461  0.0089
   36MOL0     C 4779   1.870   1.003   7.819 -0.7730  0.9310  0.6893
   36MOL0     C 4780   1.734   1.000   7.848 -0.3860 -0.3226  0.4081
   36MOL0     C 4781   1.648   0.902   7.786 -0.9642  0.5508 -0.2259
   36MOL0     C 4782   1.707   0.800   7.707  1.1174  0.0438  0.1898
   36MOL0     O 4783   1.623   0.709   7.649  0.2037 -0.2759 -0.5344
   36MOL0     C 4784   1.645   0.698   7.511 -0.0098  0.8564  0.7340
   36MOL0     C 4785   1.552   0.600   7.441 -0.7587  0.2099 -0.0396
   36MOL0     C 4786   1.405   0.630   7.461 -0.0051  0.7528  1.0198
   36MOL0     C 4787   1.312   0.508   7.478  0.7526 -0.0052 -0.2237
   36MOL0     C 4788   1.291   0.444   7.348 -0.1667 -1.2077  0.3794
   36MOL0     C 4789   1.281   0.386   7.240  0.6579 -0.7410 -0.4201
   36MOL0     C 4790   1.840   0.808   7.674 -0.4728 -0.2488 -0.2484
   36MOL0     C 4791   1.923   0.914   7.722 -0.4018  0.9171  0.6332
   36MOL0     C 4792   2.065   0.921   7.679 -0.5060 -0.2813  0.1846
   36MOL0     H 4793   2.031   1.344   7.710  0.4067  0.4397 -0.1995
   36MOL0     H 4794   2.233   1.469   7.734  0.1720 -1.5022 -0.6961
   36MOL0     H 4795   2.451   1.488   7.806 -2.6709 -0.4947 -1.2705
   36MOL0     H 4796   2.376   1.641   7.777 -0.7172 -2.1010 -0.5161
   36MOL0     H 4797   2.610   1.600   7.970 -1.2667 -2.8580 -1.9277
   36MOL0     H 4798   2.531   1.762   7.948 -2.3033 -1.2791  3.2103
   36MOL0     H 4799   2.742   1.742   7.824 -1.3098  0.4291  2.1067
   36MOL0     H 4800   2.619   1.761   7.712  0.4107  1.0424  0.2113
   36MOL0     H 4801   2.608   1.509   7.681 -0.5005  1.4688 -1.3934
   36MOL0     H 4802   2.752   1.596   7.633  0.4951 -2.9723 -0.3796
   36MOL0     H 4803   2.844   1.520   7.854 -2.0866  4.6304 -0.4275
   36MOL0     H 4804   2.688   1.430   7.874  0.1947 -1.3611 -1.3154
   36MOL0     H 4805   2.758   1.272   7.675  1.8104  0.6266 -3.0150
   36MOL0     H 4806   2.885   1.384   7.642 -1.2448  0.1414 -1.0207
   36MOL0     H 4807   2.866   1.234   7.912 -0.4019  2.9112 -0.3937
   36MOL0     H 4808   3.005   1.316   7.834  1.3653 -0.3687 -2.8969
   36MOL0     H 4809   2.869   1.049   7.776  0.4869 -0.0615 -2.7649
   36MOL0     H 4810   2.970   1.115   7.650  3.4161 -1.8232  0.6188
   36MOL0     H 4811   3.238   1.114   7.709  0.8863 -3.0972 -2.0375
   36MOL0     H 4812   3.429   0.846   7.912 -0.9825 -0.6922 -0.6104
   36MOL0     H 4813   3.465   0.979   7.794  0.8160 -0.1424  1.1219
   36MOL0     H 4814   3.420   1.134   7.982 -0.5325 -0.7035 -2.8425
   36MOL0     H 4815   3.394   0.995   8.093 -0.8679 -0.1775  0.1544
   36MOL0     H 4816   3.639   1.131   8.084  0.9596 -2.2984  2.2964
   36MOL0     H 4817   3.651   1.074   7.921 -0.0539 -0.9919 -0.2647
   36MOL0     H 4818   3.595   0.831   8.054 -0.7546  0.3356 -3.1247
   36MOL0     H 4819   3.712   0.907   8.163  0.4867  0.1717 -0.9953
   36MOL0     H 4820   3.915   0.888   7.760 -2.0151 -0.6248  3.1734
   36MOL0     H 4821   4.115   1.025   7.720 -0.6821  0.6099  0.6765
   36MOL0     H 4822   4.421   1.401   7.763 -2.4564 -0.5426  1.6539
   36MOL0     H 4823   4.577   1.569   7.787 -0.5792 -1.1216 -0.6043
   36MOL0     H 4824   4.849   1.692   8.114  0.6292 -0.1056 -1.7937
   36MOL0     H 4825   4.754   1.559   8.179 -0.6832  0.2295 -0.1852
   36MOL0     H 4826   4.958   1.469   8.088  2.0139  4.0054  1.3249
   36MOL0     H 4827   4.821   1.433   7.978  1.2260  0.0047  1.6483
   36MOL0     H 4828   4.990   1.505   7.833 -1.0703  0.3174 -1.6651
   36MOL0     H 4829   4.894   1.649   7.860  1.8773 -1.7198 -4.5023
   36MOL0     H 4830   5.159   1.585   7.973  2.4259  2.3048 -1.2476
   36MOL0     H 4831   5.050   1.694   8.060 -1.4591  0.4552  0.2765
   36MOL0     H 4832   5.041   1.839   7.852  1.1952  0.7260 -2.1265
   36MOL0     H 4833   5.128   1.711   7.761  0.4992  1.4076 -1.0627
   36MOL0     H 4834   5.236   1.870   8.018  2.5035  1.2474 -0.3525
   36MOL0     H 4835   5.315   1.740   7.931 -2.1397 -1.2158  0.6610
   36MOL0     H 4836   5.245   2.010   7.819 -0.0859 -1.0202  0.2228
   36MOL0     H 4837   5.300   1.879   7.721 -1.5297 -0.1232  0.5364
   36MOL0     H 4838   5.448   2.032   7.937  0.7957  0.4944 -1.7969
   36MOL0     H 4839   5.489   1.860   7.909  3.7662  0.6514 -1.6297
   36MOL0     H 4840   4.550   1.560   8.213  0.3586  1.3454 -0.6723
   36MOL0     H 4841   4.399   1.379   8.205 -2.3720 -0.7941 -1.2237
   36MOL0     H 4842   4.091   1.175   8.125  2.2344  5.1161 -3.7398
   36MOL0     H 4843   3.886   1.044   8.152 -0.0997  0.5452  0.0867
   36MOL0     H 4844   2.196   1.483   8.164 -0.6393  0.7854 -0.6738
   36MOL0     H 4845   2.010   1.312   8.147 -2.5088 -0.2085 -1.3929
   36MOL0     H 4846   1.693   1.068   7.922  1.6709 -2.1630  3.5024
   36MOL0     H 4847   1.544   0.916   7.814 -0.8648  3.7183 -1.0064
   36MOL0     H 4848   1.749   0.669   7.490 -0.0104  1.2576  0.1557
   36MOL0     H 4849   1.629   0.794   7.462  1.0120  1.0307  0.7111
   36MOL0     H 4850   1.573   0.500   7.481 -0.7498 -1.3386 -3.5667
   36MOL0     H 4851   1.563   0.609   7.333  1.4246  2.3038  0.2816
   36MOL0     H 4852   1.369   0.702   7.387  2.4368  0.5956 -0.4401
   36MOL0     H 4853   1.406   0.676   7.560 -1.5797 -1.2628  2.0414
   36MOL0     H 4854   1.359   0.431   7.539  0.8090 -0.6590 -1.0646
   36MOL0     H 4855   1.211   0.534   7.512  0.9161  3.6388 -2.0212
   36MOL0     H 4856   1.274   0.328   7.150 -1.2903  0.1725 -0.9021
   36MOL0     H 4857   1.891   0.743   7.605 -0.0758  0.2773 -0.4525
   36MOL0     H 4858   2.135   0.876   7.751  0.1080 -1.0941 -0.8913
   36MOL0     H 4859   2.077   0.866   7.586 -1.3175  0.8310 -0.6048
   36MOL0     H 4860   2.075   1.027   7.655  0.2601 -0.3318  0.2440
   37MOL0     O 4861   4.443   8.048   4.653  0.1889  0.3080 -0.1127
   37MOL0     C 4862   4.396   8.077   4.764  0.4206 -0.3943  0.4888
   37MOL0     O 4863   4.296   8.001   4.832 -0.0576  1.5847  0.5855
   37MOL0     C 4864   4.232   7.892   4.771 -0.1703 -0.3695  0.1243
   37MOL0     C 4865   4.277   7.818   4.656 -0.0972 -1.2688 -0.1591
   37MOL0     C 4866   4.219   7.699   4.622  0.6929 -1.0947  0.0790
   37MOL0     C 4867   4.099   7.655   4.684  0.3769  1.0861  0.2982
   37MOL0     O 4868   4.052   7.531   4.642 -0.5090  0.1234 -0.2990
   37MOL0     C 4869   3.973   7.461   4.735  0.3912 -0.4668  1.0490
   37MOL0     C 4870   4.065   7.427   4.854  0.7992 -0.0890  0.7651
   37MOL0     C 4871   3.977   7.368   4.968 -0.4238  0.3428  0.1583
   37MOL0     C 4872   3.859   7.455   5.025 -1.2919  0.8701  0.2111
   37MOL0     C 4873   3.814   7.390   5.156 -0.0162  0.2344  0.1818
   37MOL0     C 4874   3.695   7.453   5.206 -0.0466  1.0254  0.6265
   37MOL0     C 4875   3.614   7.362   5.304 -0.2288  0.7064  0.8762
   37MOL0     C 4876   3.517   7.437   5.392  0.0291 -0.5459  0.3674
   37MOL0     N 4877   3.406   7.499   5.311 -0.3631  0.4423 -0.4014
   37MOL0     C 4878   3.384   7.638   5.308  0.5562  0.9138 -0.0411
   37MOL0     C 4879   3.267   7.650   5.238 -0.0302 -0.4249  0.5782
   37MOL0     C 4880   3.189   7.774   5.194  0.1710  1.0292 -0.5350
   37MOL0     C 4881   3.237   7.842   5.075  0.5376 -0.0505  0.2360
   37MOL0     C 4882   3.355   7.924   5.103 -0.9740  0.0145 -0.3749
   37MOL0     C 4883   3.399   7.986   4.975 -0.4811 -0.4167  0.2883
   37MOL0     O 4884   3.308   8.072   4.920  0.3777  0.9678 -0.1844
   37MOL0     C 4885   3.330   8.212   4.928  0.7093 -0.8900 -0.1583
   37MOL0     C 4886   3.447   8.284   4.948  0.2051  0.4542  0.1196
   37MOL0     C 4887   3.453   8.422   4.938  0.4494  0.2124 -0.4224
   37MOL0     C 4888   3.333   8.498   4.926 -0.6416  0.4218 -0.5636
   37MOL0     C 4889   3.348   8.645   4.913  1.3078 -0.1650  0.0636
   37MOL0     O 4890   3.221   8.711   4.904 -0.4828 -0.4513  0.4784
   37MOL0     C 4891   3.213   8.842   4.923  1.5988  0.2115  0.9524
   37MOL0     C 4892   3.097   8.889   4.864  0.2539 -0.0301 -0.3560
   37MOL0     C 4893   3.077   9.021   4.857  0.4413 -0.5676 -0.1680
   37MOL0     C 4894   3.170   9.114   4.909  1.3176 -0.2782 -0.9334
   37MOL0     O 4895   3.145   9.253   4.909  0.2239  0.0456  0.6277
   37MOL0     C 4896   3.076   9.299   4.791  0.0956  0.2086  0.1071
   37MOL0     C 4897   3.102   9.445   4.797 -0.1581 -0.7994 -0.1241
   37MOL0     C 4898   3.246   9.484   4.792 -0.1448 -0.5594 -0.8528
   37MOL0     C 4899   3.266   9.632   4.750 -0.6732  0.5012  1.0756
   37MOL0     C 4900   3.238   9.713   4.872 -0.0700 -0.2918 -0.0545
   37MOL0     C 4901   3.265   9.865   4.836 -0.3604  0.2031 -0.7758
   37MOL0     C 4902   3.202   9.925   4.712 -0.2902  0.4894 -0.1097
   37MOL0     C 4903   3.218  10.068   4.712 -0.1480 -0.4613  0.5117
   37MOL0    Cl 4904   3.389  10.099   4.673  0.5047 -0.6023  0.2168
   37MOL0     C 4905   3.280   9.071   4.981 -1.0290 -0.4674  0.1416
   37MOL0     C 4906   3.300   8.934   4.980 -0.6029  0.8192 -0.4033
   37MOL0     O 4907   3.459   8.695   4.920 -0.0704 -0.0820 -0.4141
   37MOL0     C 4908   3.209   8.432   4.925 -0.0181  0.4528  0.1256
   37MOL0     C 4909   3.210   8.288   4.924  0.2850  0.2607  0.9467
   37MOL0     N 4910   3.225   7.525   5.208  0.7068 -0.8164 -0.6004
   37MOL0     N 4911   3.304   7.432   5.252  0.6405  0.1656  0.3050
   37MOL0     C 4912   4.053   7.729   4.792 -0.7153  0.1401 -0.3951
   37MOL0     C 4913   4.122   7.839   4.840 -0.3041 -1.0748 -0.0019
   37MOL0     C 4914   4.432   8.208   4.835 -0.4843 -0.0042  1.0249
   37MOL0     C 4915   4.371   8.243   4.955  0.8814  0.0299  0.0825
   37MOL0     C 4916   4.390   8.367   5.009  1.2034  0.0500 -1.2574
   37MOL0     C 4917   4.481   8.461   4.964 -0.6257 -0.6566 -0.0498
   37MOL0     O 4918   4.497   8.583   5.034  0.3031 -0.1768 -0.1860
   37MOL0     C 4919   4.572   8.694   4.979  0.4144 -0.2822 -0.5658
   37MOL0     C 4920   4.702   8.710   5.062 -1.2016 -1.0586  0.8939
   37MOL0     C 4921   4.781   8.578   5.072  0.0473 -0.2256 -0.1321
   37MOL0     C 4922   4.926   8.597   5.077  1.1005  0.6752  0.1350
   37MOL0     C 4923   5.001   8.629   4.958  0.0749 -0.8894  0.6839
   37MOL0     C 4924   5.060   8.672   4.857 -0.6435  0.7760 -0.7377
   37MOL0     C 4925   4.563   8.411   4.856 -0.3426 -0.4453  0.5642
   37MOL0     C 4926   4.538   8.294   4.789 -0.1953 -0.7266 -1.5128
   37MOL0     C 4927   4.635   8.282   4.675 -0.4006 -1.0093  0.3546
   37MOL0     H 4928   4.379   7.828   4.620 -0.3424 -2.1635 -1.1690
   37MOL0     H 4929   4.273   7.650   4.541  2.1812  3.2145 -1.8097
   37MOL0     H 4930   3.879   7.506   4.767 -1.4741 -2.8512 -0.6954
   37MOL0     H 4931   3.930   7.379   4.676 -1.9536  1.9485 -0.8466
   37MOL0     H 4932   4.119   7.509   4.901  2.4144 -0.1181 -0.9130
   37MOL0     H 4933   4.142   7.362   4.812  1.4844  1.4570 -0.4515
   37MOL0     H 4934   4.045   7.332   5.046 -0.0161  1.6924  0.4699
   37MOL0     H 4935   3.932   7.280   4.923 -0.2292 -0.3341  1.2552
   37MOL0     H 4936   3.904   7.552   5.049  0.9097 -0.3424  1.2573
   37MOL0     H 4937   3.780   7.467   4.950  1.0191  1.3299 -2.3472
   37MOL0     H 4938   3.801   7.284   5.131  2.0425 -1.9002  6.3342
   37MOL0     H 4939   3.892   7.389   5.233  0.4950 -1.4758 -0.3004
   37MOL0     H 4940   3.711   7.553   5.247 -0.1953  1.9373 -1.4187
   37MOL0     H 4941   3.629   7.464   5.119  2.2138  1.7347 -1.0983
   37MOL0     H 4942   3.690   7.308   5.362 -0.5610 -2.4572 -1.3506
   37MOL0     H 4943   3.566   7.286   5.240  3.3141 -1.4862  0.5235
   37MOL0     H 4944   3.479   7.369   5.469  1.1552  1.6876  3.0887
   37MOL0     H 4945   3.579   7.500   5.456  0.9644 -1.4724  0.3829
   37MOL0     H 4946   3.434   7.730   5.335  0.2632  1.2311 -0.5581
   37MOL0     H 4947   3.084   7.745   5.183  0.7342 -2.0454  1.0167
   37MOL0     H 4948   3.187   7.844   5.277  1.0754  3.1772 -2.2268
   37MOL0     H 4949   3.258   7.778   4.989 -0.5427  0.5371 -0.4970
   37MOL0     H 4950   3.161   7.909   5.032  2.1188  0.1094 -2.5677
   37MOL0     H 4951   3.429   7.857   5.148 -1.5049  0.1352  0.7119
   37MOL0     H 4952   3.340   7.998   5.182  1.1130 -0.1695  0.2372
   37MOL0     H 4953   3.419   7.912   4.897 -1.8730  0.0864 -0.5720
   37MOL0     H 4954   3.498   8.026   4.997 -0.4104 -0.9538  1.0129
   37MOL0     H 4955   3.544   8.235   4.959  0.3633  1.0685  1.6349
   37MOL0     H 4956   3.550   8.472   4.930  0.5297  0.0425 -0.5292
   37MOL0     H 4957   3.028   8.819   4.819  1.0597 -0.9766 -0.1450
   37MOL0     H 4958   2.987   9.044   4.800 -0.5778 -3.1634  0.2190
   37MOL0     H 4959   3.114   9.265   4.694 -3.6903  0.6825 -1.7055
   37MOL0     H 4960   2.969   9.283   4.805  0.1473  1.7490  2.7817
   37MOL0     H 4961   3.055   9.470   4.702 -0.2002 -0.9476 -0.1415
   37MOL0     H 4962   3.043   9.493   4.875  0.6907 -1.5876  1.0388
   37MOL0     H 4963   3.292   9.469   4.890 -4.5440  0.9510  1.7354
   37MOL0     H 4964   3.300   9.430   4.713  2.3372  0.9276 -0.2628
   37MOL0     H 4965   3.198   9.657   4.668  0.3581  0.9988  0.3491
   37MOL0     H 4966   3.371   9.646   4.722 -0.9319  0.2706 -0.0770
   37MOL0     H 4967   3.300   9.681   4.956 -2.2915 -2.3720  0.9157
   37MOL0     H 4968   3.131   9.697   4.888 -0.3022 -0.4439 -1.6117
   37MOL0     H 4969   3.228   9.923   4.921  2.1649  0.7373  0.0381
   37MOL0     H 4970   3.371   9.889   4.823 -0.7411  1.8758 -1.0512
   37MOL0     H 4971   3.099   9.889   4.704 -0.5544  1.2711 -0.2382
   37MOL0     H 4972   3.246   9.879   4.623  1.3090 -2.9884  2.2198
   37MOL0     H 4973   3.160  10.103   4.626  0.1128 -0.0127  0.5154
   37MOL0     H 4974   3.181  10.105   4.808 -4.7852 -2.0759 -0.4238
   37MOL0     H 4975   3.350   9.149   5.007  0.2156 -1.2653 -0.7230
   37MOL0     H 4976   3.383   8.907   5.044 -2.2752  0.8580  1.9029
   37MOL0     H 4977   3.117   8.489   4.920 -1.2078 -1.2124  1.9514
   37MOL0     H 4978   3.114   8.241   4.908 -0.3784  0.4235  3.8574
   37MOL0     H 4979   3.964   7.707   4.851  0.4059  2.1244  2.2913
   37MOL0     H 4980   4.100   7.876   4.939 -2.7834 -2.8997  0.2415
   37MOL0     H 4981   4.294   8.188   5.009 -0.2792  2.4665  1.0677
   37MOL0     H 4982   4.316   8.398   5.082  2.1613  1.3996 -0.8173
   37MOL0     H 4983   4.512   8.785   4.988 -1.1366 -1.3159 -0.0993
   37MOL0     H 4984   4.579   8.693   4.870  0.8009 -1.9704 -0.5521
   37MOL0     H 4985   4.687   8.732   5.168 -0.1419 -1.3906  1.1278
   37MOL0     H 4986   4.768   8.784   5.016  0.6782 -0.7582  3.7829
   37MOL0     H 4987   4.755   8.519   4.983 -1.2919  2.8634 -1.9793
   37MOL0     H 4988   4.749   8.515   5.155  0.4433 -3.6878 -2.3957
   37MOL0     H 4989   4.946   8.681   5.144 -2.1389  3.1875 -1.7551
   37MOL0     H 4990   4.982   8.506   5.102  0.3048 -0.2045 -1.1622
   37MOL0     H 4991   5.123   8.701   4.775 -0.0002 -0.0693 -0.5648
   37MOL0     H 4992   4.638   8.480   4.820 -1.8188  0.8016 -0.2215
   37MOL0     H 4993   4.581   8.270   4.581 -3.2164 -1.1945  1.8890
   37MOL0     H 4994   4.702   8.368   4.663  0.3599 -1.7669 -1.0614
   37MOL0     H 4995   4.707   8.203   4.700  1.3191  0.7984  1.3966
   38MOL0     O 4996  10.728  11.155   5.943 -0.4414 -0.5444  0.1087
   38MOL0     C 4997  10.635  11.230   5.977 -0.1806  1.2547  0.2065
   38MOL0     O 4998  10.501  11.207   5.954 -0.1953  0.1793 -0.3671
   38MOL0     C 4999  10.462  11.108   5.864  0.2634 -0.3364  0.2743
   38MOL0     C 5000  10.386  10.998   5.907 -0.4576 -0.5001 -0.2959
   38MOL0     C 5001  10.345  10.906   5.815  0.0878 -0.2508 -0.6697
   38MOL0     C 5002  10.378  10.924   5.672 -0.8990  0.2133 -0.3728
   38MOL0     O 5003  10.352  10.825   5.580 -0.3052  0.4799 -0.0502
   38MOL0     C 5004  10.239  10.748   5.586 -0.4224  1.0813  0.0751
   38MOL0     C 5005  10.225  10.648   5.464 -0.4101  0.2469 -0.3704
   38MOL0     C 5006  10.183  10.711   5.340  0.3165  0.2397  0.2016
   38MOL0     C 5007  10.230  10.635   5.226 -0.2602 -0.9475 -0.6917
   38MOL0     C 5008  10.186  10.706   5.102 -0.6914  0.6808 -0.4034
   38MOL0     C 5009  10.220  10.617   4.990 -0.1861 -0.0460 -0.0718
   38MOL0     C 5010  10.178  10.680   4.861  0.7637 -0.3211 -0.0120
   38MOL0     C 5011  10.249  10.603   4.745  0.0368  0.1510  1.0217
   38MOL0     N 5012  10.182  10.612   4.618 -0.2852  0.7552  0.7941
   38MOL0     C 5013  10.126  10.724   4.571  0.2427 -0.0506  0.3899
   38MOL0     C 5014  10.027  10.698   4.489  0.5549  1.2178  0.0654
   38MOL0     C 5015   9.949  10.795   4.417 -1.0222  0.3524 -0.3249
   38MOL0     C 5016   9.823  10.848   4.492  0.5012  1.4405  0.9111
   38MOL0     C 5017   9.827  10.848   4.655 -0.3014 -0.4764 -0.4414
   38MOL0     C 5018   9.919  10.942   4.728 -0.6937  0.3682 -0.7100
   38MOL0     O 5019   9.903  11.074   4.683 -0.7467 -0.3444  0.0601
   38MOL0     C 5020   9.994  11.171   4.725 -0.4124 -0.0512 -0.0686
   38MOL0     C 5021  10.000  11.280   4.641 -0.1102 -0.8640  0.2287
   38MOL0     C 5022  10.090  11.389   4.667  0.6087  0.1482  0.4137
   38MOL0     C 5023  10.182  11.377   4.773 -0.0657  0.8020 -0.2078
   38MOL0     C 5024  10.286  11.475   4.795  0.2384  0.0594  0.3344
   38MOL0     O 5025  10.387  11.437   4.879 -0.0867 -0.2618  0.2421
   38MOL0     C 5026  10.487  11.531   4.899  1.1089 -0.3415 -0.6613
   38MOL0     C 5027  10.460  11.652   4.974 -0.3864 -0.0151 -0.1833
   38MOL0     C 5028  10.567  11.738   4.995  0.5372 -0.4503 -0.8341
   38MOL0     C 5029  10.696  11.720   4.949  0.5420 -0.3997  0.0827
   38MOL0     O 5030  10.801  11.806   4.953 -0.2888 -0.7858 -0.1930
   38MOL0     C 5031  10.795  11.922   5.034  0.6153  0.5140  0.5359
   38MOL0     C 5032  10.931  11.987   5.042 -0.2108  0.3090  0.5600
   38MOL0     C 5033  11.014  11.880   5.128  0.3741 -0.7896  0.6798
   38MOL0     C 5034  11.116  11.787   5.046  0.7037 -0.6547  0.3143
   38MOL0     C 5035  11.176  11.681   5.131  0.5240 -0.8727 -0.4580
   38MOL0     C 5036  11.248  11.730   5.259  0.0774  0.4430 -0.3270
   38MOL0     C 5037  11.364  11.826   5.231 -0.0980  0.0012  0.7724
   38MOL0     C 5038  11.461  11.761   5.125 -1.1768 -0.3644  0.3205
   38MOL0    Cl 5039  11.622  11.830   5.156 -0.0301  0.2396  0.2100
   38MOL0     C 5040  10.717  11.597   4.881 -0.3490 -0.4172 -0.2537
   38MOL0     C 5041  10.617  11.515   4.849  0.4802  0.0788 -0.1347
   38MOL0     O 5042  10.291  11.572   4.720  0.0201 -0.2715  0.5630
   38MOL0     C 5043  10.176  11.265   4.860 -0.0621 -0.4505 -0.0773
   38MOL0     C 5044  10.078  11.165   4.836  1.2959 -0.2243 -0.2168
   38MOL0     N 5045  10.011  10.559   4.492 -0.0830 -1.3764 -0.0453
   38MOL0     N 5046  10.103  10.512   4.572 -0.3140  0.1017  0.0882
   38MOL0     C 5047  10.455  11.031   5.631 -0.1935  0.6408  0.4883
   38MOL0     C 5048  10.498  11.117   5.726 -0.4227  0.4390  0.5071
   38MOL0     C 5049  10.671  11.353   6.060  0.9496 -0.0080  1.0159
   38MOL0     C 5050  10.768  11.333   6.153 -0.1585  0.4763 -0.6742
   38MOL0     C 5051  10.799  11.430   6.248  0.7258  0.3834 -0.1808
   38MOL0     C 5052  10.730  11.555   6.253 -0.9062 -0.1282 -0.9872
   38MOL0     O 5053  10.749  11.651   6.350 -0.4896  1.0918  0.9226
   38MOL0     C 5054  10.853  11.632   6.443 -0.7796  0.6519 -0.1087
   38MOL0     C 5055  10.896  11.760   6.499 -0.2228  0.6727 -0.6562
   38MOL0     C 5056  10.945  11.863   6.394 -0.7495 -0.2209  0.0136
   38MOL0     C 5057  10.979  12.002   6.459 -0.2387 -0.0121  0.1449
   38MOL0     C 5058  10.904  12.106   6.386  0.1816  0.4889  0.2403
   38MOL0     C 5059  10.834  12.186   6.320 -0.1650  0.1749 -0.1509
   38MOL0     C 5060  10.629  11.568   6.166  0.5148  0.3126  0.5393
   38MOL0     C 5061  10.601  11.475   6.063 -0.1057  0.1569 -0.2815
   38MOL0     C 5062  10.513  11.531   5.949 -0.7574 -0.4475  0.0964
   38MOL0     H 5063  10.363  10.990   6.013 -1.8624 -0.8569 -0.6011
   38MOL0     H 5064  10.280  10.823   5.839  3.0393 -2.5509 -0.1053
   38MOL0     H 5065  10.248  10.693   5.680  4.0638  3.1389  1.1048
   38MOL0     H 5066  10.140  10.794   5.597 -0.7603  0.1981  0.8788
   38MOL0     H 5067  10.157  10.567   5.493 -1.3267  0.8622 -0.7520
   38MOL0     H 5068  10.325  10.607   5.452 -1.0351 -0.7095 -2.9774
   38MOL0     H 5069  10.226  10.811   5.346 -1.3817  0.9687  0.6638
   38MOL0     H 5070  10.074  10.714   5.340  0.3036 -0.1362  1.0391
   38MOL0     H 5071  10.339  10.630   5.215 -0.3162 -1.8694 -0.9442
   38MOL0     H 5072  10.179  10.538   5.227 -0.5019 -0.8206 -0.2931
   38MOL0     H 5073  10.077  10.713   5.105 -0.6151  2.1787  0.0452
   38MOL0     H 5074  10.231  10.806   5.097 -1.6835  1.1119 -1.2240
   38MOL0     H 5075  10.328  10.602   4.993  0.3251  3.1299  0.6102
   38MOL0     H 5076  10.156  10.529   5.004 -1.1047  1.0555  3.7670
   38MOL0     H 5077  10.207  10.785   4.853  0.3820 -0.3642 -3.1996
   38MOL0     H 5078  10.069  10.680   4.850  0.9283  2.2513 -3.0516
   38MOL0     H 5079  10.354  10.631   4.731  0.3344 -1.1893  0.4187
   38MOL0     H 5080  10.263  10.499   4.775  3.2457 -0.2108 -1.1936
   38MOL0     H 5081  10.151  10.827   4.593  0.2818 -0.0355  0.2762
   38MOL0     H 5082  10.019  10.876   4.395 -1.5586  0.9239  0.0299
   38MOL0     H 5083   9.928  10.755   4.317  2.5358  1.0805 -1.5142
   38MOL0     H 5084   9.793  10.946   4.454  1.6107  1.4959  0.1070
   38MOL0     H 5085   9.736  10.786   4.471 -0.1373  1.7086  2.6783
   38MOL0     H 5086   9.854  10.744   4.677  1.1815 -0.5201 -2.1578
   38MOL0     H 5087   9.729  10.874   4.694 -0.4922  1.3954 -1.9667
   38MOL0     H 5088  10.024  10.913   4.719 -0.5324 -0.8742  3.2049
   38MOL0     H 5089   9.900  10.932   4.836 -2.8952  0.6533 -1.0351
   38MOL0     H 5090   9.944  11.281   4.548 -1.6573 -0.9725  1.1283
   38MOL0     H 5091  10.100  11.475   4.602 -0.5009 -0.6194 -0.8220
   38MOL0     H 5092  10.361  11.683   5.005 -0.2964 -0.2040  0.2873
   38MOL0     H 5093  10.533  11.821   5.056 -1.8184 -2.4793  0.8163
   38MOL0     H 5094  10.720  11.989   4.990  1.6301  1.8664  0.7924
   38MOL0     H 5095  10.756  11.906   5.135 -2.8016  3.0223 -0.2049
   38MOL0     H 5096  10.973  11.999   4.942 -3.6060 -2.0689 -1.3646
   38MOL0     H 5097  10.918  12.090   5.076 -1.3799  0.2705  0.2832
   38MOL0     H 5098  11.073  11.944   5.195  2.9642 -0.4982 -1.6770
   38MOL0     H 5099  10.956  11.818   5.197 -0.1790 -1.6031 -0.4881
   38MOL0     H 5100  11.196  11.844   4.999 -1.0448  0.4371 -1.5289
   38MOL0     H 5101  11.065  11.738   4.963  1.6465 -1.1205 -0.0000
   38MOL0     H 5102  11.238  11.615   5.070 -1.0770 -0.0274 -3.1667
   38MOL0     H 5103  11.099  11.611   5.166  0.6299 -0.9575 -0.3941
   38MOL0     H 5104  11.174  11.773   5.328 -0.6999 -1.5480  0.1573
   38MOL0     H 5105  11.290  11.638   5.299  0.8786 -0.2234 -2.5329
   38MOL0     H 5106  11.405  11.850   5.329  2.3874 -2.1117  0.3707
   38MOL0     H 5107  11.327  11.920   5.189  2.7433  2.2115  2.7946
   38MOL0     H 5108  11.475  11.654   5.142  4.6482 -0.4559 -2.5059
   38MOL0     H 5109  11.428  11.773   5.021  0.3760 -3.2749 -0.6206
   38MOL0     H 5110  10.816  11.573   4.844 -1.4782  2.4700 -6.4799
   38MOL0     H 5111  10.634  11.429   4.784 -1.4354  0.2993 -0.9751
   38MOL0     H 5112  10.245  11.255   4.943 -0.0339  3.3084  0.5466
   38MOL0     H 5113  10.068  11.072   4.891 -2.3004  0.0949 -0.1233
   38MOL0     H 5114  10.469  11.040   5.524  1.3418 -3.0975  0.2402
   38MOL0     H 5115  10.561  11.201   5.696 -1.2068  0.6255 -0.6897
   38MOL0     H 5116  10.822  11.238   6.163  3.1066  2.0635 -1.6560
   38MOL0     H 5117  10.871  11.410   6.326  1.4941 -0.8627 -1.1826
   38MOL0     H 5118  10.944  11.584   6.406 -0.4062 -0.6664  2.2965
   38MOL0     H 5119  10.820  11.560   6.519  1.5864  0.1014  0.4812
   38MOL0     H 5120  10.981  11.751   6.567  1.6147 -1.8390 -3.0822
   38MOL0     H 5121  10.814  11.793   6.563 -0.3710  0.8033 -0.9083
   38MOL0     H 5122  10.860  11.869   6.325 -0.1997 -1.0474 -0.7515
   38MOL0     H 5123  11.029  11.815   6.342 -2.2688 -0.3158 -2.5516
   38MOL0     H 5124  10.942  11.999   6.563  1.6166  1.4166  0.8880
   38MOL0     H 5125  11.085  12.028   6.466 -0.6642  3.4293 -3.2861
   38MOL0     H 5126  10.763  12.227   6.250 -2.1726 -1.6198  0.7052
   38MOL0     H 5127  10.562  11.652   6.175 -0.2500 -0.3961  1.7536
   38MOL0     H 5128  10.409  11.512   5.980 -0.0535 -2.9644  1.2217
   38MOL0     H 5129  10.515  11.640   5.942 -5.1536 -0.1335  0.4817
   38MOL0     H 5130  10.524  11.480   5.853 -2.1261 -2.7228  1.0376
   39MOL0     O 5131   8.007   1.105  10.957 -1.3393 -0.2089  0.0978
   39MOL0     C 5132   7.990   1.225  10.973 -0.9720  0.2733 -0.0051
   39MOL0     O 5133   7.996   1.317  10.875  0.8462  0.3210  0.1043
   39MOL0     C 5134   7.986   1.273  10.745  0.1608  0.1843 -0.6019
   39MOL0     C 5135   7.941   1.151  10.681  0.2002 -0.3446  0.2486
   39MOL0     C 5136   7.920   1.145  10.538 -0.6771  0.1232  0.1974
   39MOL0     C 5137   7.970   1.255  10.460 -0.8340 -0.1819 -0.2272
   39MOL0     O 5138   7.973   1.237  10.326 -0.3406  0.0124 -0.2985
   39MOL0     C 5139   8.053   1.322  10.250 -0.1153 -0.2768  0.2095
   39MOL0     C 5140   8.088   1.249  10.117 -0.3543  0.4590  0.4860
   39MOL0     C 5141   8.183   1.125  10.134 -0.3705  0.9306  0.7019
   39MOL0     C 5142   8.331   1.165  10.143  0.2452  0.1908 -0.1363
   39MOL0     C 5143   8.413   1.038  10.171  0.0893 -0.0097 -0.1240
   39MOL0     C 5144   8.553   1.067  10.210  1.0091  0.1683  0.4036
   39MOL0     C 5145   8.639   0.939  10.162 -1.0085  0.5781 -0.3733
   39MOL0     C 5146   8.792   0.953  10.212 -0.4198  0.2591  0.3247
   39MOL0     N 5147   8.876   1.022  10.109  0.4764 -0.1071 -0.8015
   39MOL0     C 5148   8.888   1.155  10.088 -0.2690 -0.4035  1.3126
   39MOL0     C 5149   8.948   1.166   9.962 -0.2773 -0.3817 -0.3555
   39MOL0     C 5150   8.990   1.278   9.881  0.5380 -0.9868  0.7969
   39MOL0     C 5151   8.879   1.355   9.815  0.6286  0.1546  0.5764
   39MOL0     C 5152   8.816   1.296   9.690  0.0372 -0.8346  0.9668
   39MOL0     C 5153   8.783   1.154   9.693  0.7092  0.2001 -0.1795
   39MOL0     O 5154   8.648   1.135   9.742  0.2274  0.7646 -0.3397
   39MOL0     C 5155   8.605   1.004   9.768 -1.4145 -0.5454 -0.5362
   39MOL0     C 5156   8.476   0.974   9.741 -0.5138 -0.1125  0.2836
   39MOL0     C 5157   8.416   0.848   9.747 -0.6187 -0.3488 -0.6012
   39MOL0     C 5158   8.499   0.739   9.778  0.1371  0.2532 -0.3069
   39MOL0     C 5159   8.434   0.601   9.793  1.3618 -0.6310  0.5522
   39MOL0     O 5160   8.308   0.588   9.730  0.1965  0.1619 -0.1873
   39MOL0     C 5161   8.243   0.468   9.720  0.8009  0.5434  0.6161
   39MOL0     C 5162   8.228   0.361   9.814  1.0222 -0.3430 -0.1080
   39MOL0     C 5163   8.126   0.263   9.804 -0.1441 -0.2784 -0.1088
   39MOL0     C 5164   8.029   0.273   9.704  0.7886  1.0826 -0.8066
   39MOL0     O 5165   7.947   0.158   9.693 -0.0049 -0.3168  0.6318
   39MOL0     C 5166   7.848   0.152   9.588 -1.4064 -0.4592 -0.4325
   39MOL0     C 5167   7.767   0.015   9.597 -0.2746 -0.8694 -0.1390
   39MOL0     C 5168   7.688  -0.011   9.466  0.1956 -0.4359 -0.4710
   39MOL0     C 5169   7.587   0.094   9.434 -0.6364 -0.5899 -1.0621
   39MOL0     C 5170   7.520   0.087   9.300  0.2343  0.1236  0.2019
   39MOL0     C 5171   7.401   0.177   9.287 -0.4187 -0.2386  0.3265
   39MOL0     C 5172   7.429   0.321   9.244 -0.1312  0.6656 -0.4403
   39MOL0     C 5173   7.319   0.414   9.248  0.2491 -1.5951  0.5785
   39MOL0    Cl 5174   7.162   0.390   9.167 -0.0858 -0.2191 -0.3942
   39MOL0     C 5175   8.038   0.386   9.614  0.9126  0.0367 -0.1929
   39MOL0     C 5176   8.137   0.483   9.630 -0.2643  0.1934  0.0846
   39MOL0     O 5177   8.478   0.520   9.873  0.5127  1.3278  0.1238
   39MOL0     C 5178   8.643   0.760   9.803  0.9083  0.1367 -0.6007
   39MOL0     C 5179   8.690   0.898   9.798  0.3709  0.6758 -1.0449
   39MOL0     N 5180   9.003   1.042   9.934 -0.4137 -0.5441  0.1297
   39MOL0     N 5181   8.952   0.957  10.023 -0.5429  0.0115 -0.3243
   39MOL0     C 5182   8.018   1.374  10.526 -0.3405 -0.5335 -0.6198
   39MOL0     C 5183   8.017   1.378  10.664  0.3297 -0.1952  0.6629
   39MOL0     C 5184   7.965   1.275  11.108 -0.0479 -0.6662 -0.5512
   39MOL0     C 5185   7.954   1.426  11.125 -0.3696 -0.1951  0.7023
   39MOL0     C 5186   7.937   1.478  11.249  0.0455 -0.0638 -0.1519
   39MOL0     C 5187   7.936   1.400  11.365  0.1993 -0.5765  0.6422
   39MOL0     O 5188   7.897   1.450  11.494 -0.3173 -0.3130 -0.4348
   39MOL0     C 5189   7.880   1.586  11.506  1.0071  0.1063 -0.3941
   39MOL0     C 5190   7.741   1.630  11.462  0.2920 -0.5970 -0.9819
   39MOL0     C 5191   7.718   1.784  11.496 -0.5639  0.5356  0.3756
   39MOL0     C 5192   7.593   1.843  11.440  0.5346  0.4812  0.2342
   39MOL0     C 5193   7.590   1.850  11.286  0.4682  0.1750 -0.1593
   39MOL0     C 5194   7.573   1.862  11.165  0.7490  0.6449  0.4627
   39MOL0     C 5195   7.952   1.269  11.351 -0.0060  0.8678  0.3271
   39MOL0     C 5196   7.967   1.202  11.234 -0.0758  0.5032 -0.3766
   39MOL0     C 5197   7.957   1.052  11.240  0.1656 -0.1959  0.3181
   39MOL0     H 5198   7.916   1.056  10.729 -3.1834 -1.4941 -3.2560
   39MOL0     H 5199   7.867   1.063  10.491  1.5186 -0.7737 -0.8517
   39MOL0     H 5200   7.989   1.406  10.226 -1.0692 -1.0221  0.0718
   39MOL0     H 5201   8.148   1.344  10.301  0.1819 -1.1307  0.0486
   39MOL0     H 5202   8.127   1.329  10.053 -1.5055  3.2770  3.1066
   39MOL0     H 5203   7.994   1.219  10.069  1.0943 -2.0590 -1.0268
   39MOL0     H 5204   8.171   1.055  10.051  1.3918 -0.9276  1.9099
   39MOL0     H 5205   8.143   1.071  10.220  2.7859  0.0754  1.7959
   39MOL0     H 5206   8.366   1.209  10.049  0.7790  0.9243  0.3957
   39MOL0     H 5207   8.341   1.239  10.223 -2.6022  0.9063 -0.3686
   39MOL0     H 5208   8.368   0.988  10.257  0.4547  0.7791  0.5406
   39MOL0     H 5209   8.408   0.969  10.086 -0.2656  3.1081 -2.8111
   39MOL0     H 5210   8.585   1.162  10.165 -1.0243  0.5281 -0.4047
   39MOL0     H 5211   8.562   1.081  10.318 -1.3264 -1.6302  0.9194
   39MOL0     H 5212   8.640   0.920  10.054 -1.6196 -0.5796 -0.1916
   39MOL0     H 5213   8.596   0.847  10.203 -0.0336 -0.6659 -2.0264
   39MOL0     H 5214   8.782   1.006  10.307 -1.2567  1.2521 -0.2928
   39MOL0     H 5215   8.830   0.851  10.216  3.5084  1.5903  1.2654
   39MOL0     H 5216   8.867   1.245  10.145  1.8004  0.7846  0.3161
   39MOL0     H 5217   9.033   1.348   9.954 -2.1077  1.9802 -0.2149
   39MOL0     H 5218   9.068   1.259   9.807  1.0286 -0.7730  1.2571
   39MOL0     H 5219   8.799   1.380   9.885  1.2133  0.6184  1.0924
   39MOL0     H 5220   8.909   1.454   9.780  2.5320 -1.1956 -1.8831
   39MOL0     H 5221   8.879   1.328   9.607 -2.3616  3.1804  0.4180
   39MOL0     H 5222   8.728   1.360   9.675  0.4463 -0.5849 -0.5541
   39MOL0     H 5223   8.861   1.089   9.733 -0.0468  1.0314  2.8800
   39MOL0     H 5224   8.782   1.115   9.591  1.9121 -0.6233  0.0971
   39MOL0     H 5225   8.423   1.065   9.714  0.7088 -0.3989 -3.7394
   39MOL0     H 5226   8.311   0.832   9.725 -1.0292 -2.5747  2.2831
   39MOL0     H 5227   8.296   0.338   9.895  1.0759 -0.7243 -0.2598
   39MOL0     H 5228   8.122   0.186   9.881  3.5952  1.5168  2.1721
   39MOL0     H 5229   7.775   0.230   9.611  1.0350  1.6396  0.7176
   39MOL0     H 5230   7.885   0.177   9.489  0.1752  4.8332  1.1467
   39MOL0     H 5231   7.834  -0.070   9.610  1.3154 -0.3879 -3.8356
   39MOL0     H 5232   7.710   0.033   9.688  1.3140  0.9078  0.5797
   39MOL0     H 5233   7.760  -0.014   9.383 -0.0283  1.1625 -0.7654
   39MOL0     H 5234   7.636  -0.107   9.466 -2.2476  0.7911  1.7240
   39MOL0     H 5235   7.626   0.195   9.444  0.4693 -1.1179  0.1598
   39MOL0     H 5236   7.516   0.092   9.517  3.4033  0.2961  2.7686
   39MOL0     H 5237   7.483  -0.012   9.272  0.2138  0.1940 -0.0186
   39MOL0     H 5238   7.582   0.117   9.215 -0.7935 -0.7196 -0.8844
   39MOL0     H 5239   7.336   0.143   9.206  3.2214 -0.8367 -2.6242
   39MOL0     H 5240   7.342   0.176   9.379  0.0584 -2.7213  0.6658
   39MOL0     H 5241   7.473   0.320   9.144 -0.9049  1.4317 -0.7946
   39MOL0     H 5242   7.514   0.356   9.303  0.4996  2.9924 -2.5757
   39MOL0     H 5243   7.292   0.432   9.352 -1.5657  0.5627 -0.1732
   39MOL0     H 5244   7.360   0.506   9.204 -1.3198 -0.8548  0.5940
   39MOL0     H 5245   7.967   0.400   9.533  0.1116  0.0087  0.4904
   39MOL0     H 5246   8.152   0.571   9.568  0.8536  1.6128  2.2341
   39MOL0     H 5247   8.712   0.679   9.821  1.5332  0.6690 -0.5660
   39MOL0     H 5248   8.793   0.919   9.824 -0.2815 -0.0183  2.6944
   39MOL0     H 5249   8.033   1.462  10.463  1.5269  1.7793  2.6851
   39MOL0     H 5250   8.028   1.481  10.697  1.1428 -0.5609  1.5453
   39MOL0     H 5251   7.972   1.485  11.036  3.4511 -0.6516  1.0288
   39MOL0     H 5252   7.936   1.586  11.261  0.7862 -0.2098  1.5020
   39MOL0     H 5253   7.954   1.644  11.450 -1.1000  3.5686  0.0629
   39MOL0     H 5254   7.913   1.631  11.600  2.5884  1.1820 -1.4118
   39MOL0     H 5255   7.661   1.573  11.512 -0.4236  2.1739  1.3276
   39MOL0     H 5256   7.716   1.607  11.358 -1.3679 -0.7284 -0.5901
   39MOL0     H 5257   7.809   1.839  11.471 -0.9758  0.2825 -1.9700
   39MOL0     H 5258   7.695   1.774  11.603 -1.6974 -4.4033 -0.0531
   39MOL0     H 5259   7.506   1.778  11.451 -1.0290  2.4181 -0.1682
   39MOL0     H 5260   7.567   1.934  11.494  2.2218  0.7248  0.6944
   39MOL0     H 5261   7.567   1.880  11.059  1.3344 -1.5029  0.0027
   39MOL0     H 5262   7.936   1.206  11.438 -1.2043  1.5123  0.5915
   39MOL0     H 5263   7.864   1.024  11.190 -0.0640  1.7599 -0.4512
   39MOL0     H 5264   8.037   0.999  11.188 -1.1034 -0.2210 -1.7404
   39MOL0     H 5265   7.963   1.024  11.345  3.0404 -0.6575  0.1239
   40MOL0     O 5266   4.180   0.316   3.093 -0.2139  0.3803 -0.4498
   40MOL0     C 5267   4.208   0.307   3.209  0.6051 -0.2778 -0.1106
   40MOL0     O 5268   4.284   0.400   3.278 -0.0531 -0.5837 -0.4448
   40MOL0     C 5269   4.298   0.410   3.419 -0.2512  0.4693 -0.4389
   40MOL0     C 5270   4.184   0.449   3.500 -0.8353  0.4216  0.5196
   40MOL0     C 5271   4.209   0.487   3.636 -0.3460  0.8091  0.1988
   40MOL0     C 5272   4.331   0.470   3.694 -0.8074 -0.0403 -0.2490
   40MOL0     O 5273   4.341   0.508   3.825 -0.1845 -0.2556  0.0927
   40MOL0     C 5274   4.472   0.543   3.868 -0.0723 -0.8528 -0.1521
   40MOL0     C 5275   4.448   0.684   3.931 -0.2437  0.1361 -0.4038
   40MOL0     C 5276   4.588   0.729   3.980  0.6336 -0.3360  0.3986
   40MOL0     C 5277   4.572   0.871   4.040 -1.9062 -0.1741 -0.3898
   40MOL0     C 5278   4.711   0.948   4.028  0.0640 -0.1133 -0.1223
   40MOL0     C 5279   4.828   0.884   4.106 -0.3989  0.4791  0.6836
   40MOL0     C 5280   4.963   0.944   4.057 -0.5755 -1.1736  0.3888
   40MOL0     C 5281   4.979   1.096   4.066  0.7882  0.4241 -0.1462
   40MOL0     N 5282   5.084   1.140   3.971 -0.3123  1.1145 -0.4461
   40MOL0     C 5283   5.067   1.171   3.837  0.9756  0.5470 -0.6150
   40MOL0     C 5284   5.196   1.176   3.791  0.8130  0.2938 -0.2172
   40MOL0     C 5285   5.226   1.179   3.639  0.0270 -1.0457 -0.4078
   40MOL0     C 5286   5.264   1.051   3.568  0.1686  0.4636 -0.3254
   40MOL0     C 5287   5.372   0.963   3.629 -0.0281  0.0235  0.5797
   40MOL0     C 5288   5.509   1.021   3.665  0.6166 -0.0105 -0.4032
   40MOL0     O 5289   5.561   1.060   3.535 -0.2310  0.0282  0.3240
   40MOL0     C 5290   5.629   1.177   3.516 -0.4072  0.7926  0.1917
   40MOL0     C 5291   5.669   1.272   3.601 -0.0912 -1.1831  0.1688
   40MOL0     C 5292   5.752   1.376   3.565  0.1855 -0.2885  0.5262
   40MOL0     C 5293   5.811   1.389   3.436 -0.3105 -0.3659 -0.4728
   40MOL0     C 5294   5.918   1.477   3.405 -0.4094 -0.7865  1.2406
   40MOL0     O 5295   5.969   1.557   3.502 -0.0488  0.4133  0.0203
   40MOL0     C 5296   6.042   1.667   3.467  1.0216  0.0859 -0.2506
   40MOL0     C 5297   6.180   1.675   3.503  0.7390 -0.0732  0.3731
   40MOL0     C 5298   6.264   1.785   3.463  0.6112 -0.6973  0.4309
   40MOL0     C 5299   6.197   1.893   3.392  0.0181 -0.5546  2.0315
   40MOL0     O 5300   6.273   2.001   3.335 -0.1930 -0.3055  0.0114
   40MOL0     C 5301   6.378   2.055   3.427  0.0258  0.1000  1.2735
   40MOL0     C 5302   6.459   2.171   3.357  0.0946 -0.0724  0.2401
   40MOL0     C 5303   6.367   2.287   3.343  0.1995 -0.7928  0.5620
   40MOL0     C 5304   6.363   2.373   3.458 -0.1322 -0.0976  0.3965
   40MOL0     C 5305   6.260   2.494   3.445 -0.1206 -1.2074  0.8302
   40MOL0     C 5306   6.295   2.593   3.335  0.6603 -0.1672 -0.2945
   40MOL0     C 5307   6.207   2.726   3.346  0.2504  0.3165 -0.5444
   40MOL0     C 5308   6.267   2.841   3.279 -0.9951 -0.7980  0.5245
   40MOL0    Cl 5309   6.181   2.986   3.342 -0.0016  0.4023  0.5962
   40MOL0     C 5310   6.066   1.873   3.342  0.1655 -0.1284 -1.3319
   40MOL0     C 5311   5.991   1.760   3.384  0.1301  0.5055 -0.6158
   40MOL0     O 5312   5.942   1.491   3.283 -0.4509  0.2458  0.2692
   40MOL0     C 5313   5.758   1.297   3.342 -0.0444  0.1428 -0.3273
   40MOL0     C 5314   5.675   1.198   3.385  0.9553  0.6985 -0.7237
   40MOL0     N 5315   5.276   1.182   3.900 -0.1183 -0.4273 -0.5199
   40MOL0     N 5316   5.214   1.152   4.010  0.4287 -0.6739 -0.7777
   40MOL0     C 5317   4.431   0.396   3.618 -0.2223  0.4134 -0.0902
   40MOL0     C 5318   4.406   0.369   3.487 -0.9296  0.3595  0.4857
   40MOL0     C 5319   4.132   0.206   3.293 -0.9527 -1.1406  0.1506
   40MOL0     C 5320   4.003   0.234   3.326  0.8034  0.8396  0.4870
   40MOL0     C 5321   3.923   0.144   3.410 -0.6048  0.4032  0.6152
   40MOL0     C 5322   3.980   0.022   3.444  0.5821  0.2873 -0.4834
   40MOL0     O 5323   3.911  -0.078   3.510 -0.8140  0.1604  0.1799
   40MOL0     C 5324   3.771  -0.072   3.517  0.4484 -0.5679  0.2201
   40MOL0     C 5325   3.706  -0.203   3.562  0.9349  0.2765 -0.2634
   40MOL0     C 5326   3.626  -0.194   3.696  0.8045 -0.4245 -0.5480
   40MOL0     C 5327   3.590  -0.335   3.734  0.5722 -0.4140  0.4676
   40MOL0     C 5328   3.691  -0.439   3.736 -0.3144  0.4841  0.3759
   40MOL0     C 5329   3.766  -0.532   3.714 -0.6431  0.2158  0.8915
   40MOL0     C 5330   4.110  -0.014   3.407  0.2830 -0.8168 -0.4166
   40MOL0     C 5331   4.188   0.081   3.339 -0.0443  0.1800  0.5140
   40MOL0     C 5332   4.328   0.041   3.322 -0.1845 -0.1475 -0.3054
   40MOL0     H 5333   4.091   0.484   3.457 -1.1748 -1.1609 -0.0920
   40MOL0     H 5334   4.132   0.541   3.690 -2.1244  0.0149 -1.4460
   40MOL0     H 5335   4.526   0.484   3.942  1.0401 -0.3812 -0.5588
   40MOL0     H 5336   4.532   0.563   3.778 -3.5249  0.7905 -2.3352
   40MOL0     H 5337   4.371   0.676   4.009 -1.9563  1.0963 -1.9031
   40MOL0     H 5338   4.408   0.739   3.845 -3.0566 -1.8744 -0.5299
   40MOL0     H 5339   4.649   0.738   3.890 -1.8201  0.6035 -1.2711
   40MOL0     H 5340   4.634   0.661   4.052  0.5112 -0.8061  0.0323
   40MOL0     H 5341   4.499   0.921   3.974 -1.0180  1.5556 -0.1074
   40MOL0     H 5342   4.542   0.857   4.144  1.0048 -1.9547  0.3067
   40MOL0     H 5343   4.726   0.951   3.919 -0.6742 -1.4050 -0.2821
   40MOL0     H 5344   4.680   1.046   4.065  0.4314  0.3323 -0.9668
   40MOL0     H 5345   4.821   0.901   4.214 -2.0944  2.6066  0.3108
   40MOL0     H 5346   4.835   0.777   4.086 -0.9742  0.5373  0.1177
   40MOL0     H 5347   4.968   0.935   3.948 -2.7966 -1.1846  0.2229
   40MOL0     H 5348   5.046   0.889   4.101  0.8794  0.8510  0.2613
   40MOL0     H 5349   4.886   1.146   4.038  1.0172 -1.1545 -4.3029
   40MOL0     H 5350   4.993   1.108   4.174 -0.6398  0.9524  0.0041
   40MOL0     H 5351   4.974   1.178   3.780  0.7469 -0.9075 -0.4613
   40MOL0     H 5352   5.135   1.219   3.594 -0.4913 -0.8838  0.7682
   40MOL0     H 5353   5.301   1.258   3.626 -2.4612  2.3195  3.2464
   40MOL0     H 5354   5.176   0.986   3.560  0.3992  0.1427 -0.2700
   40MOL0     H 5355   5.298   1.078   3.467  2.6444 -0.3987  0.2174
   40MOL0     H 5356   5.396   0.886   3.555  1.1455  0.9608 -0.0459
   40MOL0     H 5357   5.327   0.901   3.707  0.9450 -1.2918  0.1300
   40MOL0     H 5358   5.574   0.947   3.713  0.2484 -0.4096 -0.5155
   40MOL0     H 5359   5.492   1.112   3.724 -1.3938 -1.6655  1.7527
   40MOL0     H 5360   5.642   1.266   3.706 -4.9108  1.6209 -0.5865
   40MOL0     H 5361   5.787   1.428   3.654 -2.4076 -3.4109  3.6555
   40MOL0     H 5362   6.228   1.601   3.568 -1.3016 -0.9722  0.9305
   40MOL0     H 5363   6.371   1.794   3.479  0.3692 -0.5862  2.2490
   40MOL0     H 5364   6.340   2.095   3.522  0.5166  3.3161  0.2460
   40MOL0     H 5365   6.445   1.971   3.445  0.5326 -0.9932 -4.1906
   40MOL0     H 5366   6.537   2.191   3.432  1.3094 -0.2849 -0.9329
   40MOL0     H 5367   6.501   2.133   3.264  0.0049 -2.8514  1.2279
   40MOL0     H 5368   6.429   2.334   3.266 -0.3137  3.8410  2.6559
   40MOL0     H 5369   6.276   2.276   3.283  2.8220 -0.9450 -3.8092
   40MOL0     H 5370   6.457   2.428   3.468 -0.2068  0.1493 -0.2002
   40MOL0     H 5371   6.343   2.317   3.550 -0.1017  1.1677  1.1910
   40MOL0     H 5372   6.263   2.548   3.540 -1.8205  2.5305 -1.0249
   40MOL0     H 5373   6.159   2.454   3.432  0.4811 -1.9116 -2.8177
   40MOL0     H 5374   6.396   2.634   3.332 -0.3274  2.6085  0.8036
   40MOL0     H 5375   6.271   2.537   3.244 -0.9287 -1.8570  1.0843
   40MOL0     H 5376   6.201   2.754   3.452  0.2374 -2.3460  0.2232
   40MOL0     H 5377   6.107   2.723   3.302  1.5675  3.5106 -4.3396
   40MOL0     H 5378   6.373   2.845   3.306 -0.2313  0.2424 -2.2551
   40MOL0     H 5379   6.257   2.843   3.170  1.6455 -0.8065  0.2235
   40MOL0     H 5380   6.041   1.949   3.269  0.6448  0.6675 -0.6806
   40MOL0     H 5381   5.894   1.771   3.337 -0.8152  3.4195  1.7859
   40MOL0     H 5382   5.791   1.276   3.241 -2.3208  0.3026 -1.1575
   40MOL0     H 5383   5.641   1.119   3.318 -2.3835 -0.7577  2.3723
   40MOL0     H 5384   4.527   0.374   3.663 -0.2650  0.5641  0.0784
   40MOL0     H 5385   4.490   0.326   3.433 -2.3384 -0.4075 -1.2006
   40MOL0     H 5386   3.957   0.330   3.306 -1.3366  0.6581  3.7398
   40MOL0     H 5387   3.824   0.175   3.440 -0.8367 -0.3651  0.6607
   40MOL0     H 5388   3.745  -0.053   3.412 -0.9622 -0.9617  0.4753
   40MOL0     H 5389   3.736   0.010   3.580 -1.5866  0.7097 -2.3806
   40MOL0     H 5390   3.785  -0.278   3.573  1.3643  0.7714  0.0239
   40MOL0     H 5391   3.645  -0.240   3.478  1.7273  0.6368 -1.0134
   40MOL0     H 5392   3.529  -0.144   3.689  0.7448 -0.0413  1.9985
   40MOL0     H 5393   3.683  -0.144   3.775 -0.5617 -0.1313  0.2873
   40MOL0     H 5394   3.545  -0.327   3.834  1.1591 -2.1116  0.8947
   40MOL0     H 5395   3.510  -0.367   3.667  0.8119 -2.7369  1.1843
   40MOL0     H 5396   3.826  -0.615   3.682 -0.4825  0.9241 -0.7389
   40MOL0     H 5397   4.161  -0.106   3.434  3.7974  0.7614 -1.1102
   40MOL0     H 5398   4.362   0.107   3.242 -2.2619  0.1940 -0.9679
   40MOL0     H 5399   4.380   0.059   3.417 -0.4502  0.8449 -0.3376
   40MOL0     H 5400   4.346  -0.059   3.284 -0.4215 -0.4052  0.2485
   41MOL0     O 5401   5.438   1.578   6.868  1.2046 -0.8561 -0.7403
   41MOL0     C 5402   5.421   1.542   6.754 -0.6539 -0.8228  0.3385
   41MOL0     O 5403   5.457   1.418   6.708 -0.1319 -0.7883 -0.2835
   41MOL0     C 5404   5.533   1.331   6.775  0.5206  0.2524 -0.5614
   41MOL0     C 5405   5.667   1.343   6.800  0.4488 -0.6942  0.7715
   41MOL0     C 5406   5.738   1.251   6.876  0.2961  0.2139  0.0683
   41MOL0     C 5407   5.677   1.147   6.925  0.3066  0.4485 -0.3104
   41MOL0     O 5408   5.753   1.066   7.009  0.2563  0.4230 -0.3547
   41MOL0     C 5409   5.809   0.957   6.939 -0.2284  0.8165  0.3054
   41MOL0     C 5410   5.922   0.882   7.006 -0.6733 -0.9851  0.1016
   41MOL0     C 5411   5.874   0.797   7.109 -0.7961 -0.1494 -0.6801
   41MOL0     C 5412   5.986   0.702   7.163 -0.7117  0.1870 -0.2937
   41MOL0     C 5413   5.930   0.597   7.257 -0.4019 -0.3377 -0.6377
   41MOL0     C 5414   6.040   0.534   7.334  0.5937  0.5935 -0.4932
   41MOL0     C 5415   5.984   0.414   7.416 -0.3406 -0.4838  0.5188
   41MOL0     C 5416   6.043   0.283   7.374  0.3637 -0.6404 -0.1619
   41MOL0     N 5417   6.171   0.251   7.444 -0.5559 -0.3083  0.9619
   41MOL0     C 5418   6.296   0.280   7.391  0.6978 -0.5572  0.2948
   41MOL0     C 5419   6.374   0.285   7.505 -0.4479  0.1589  0.5854
   41MOL0     C 5420   6.498   0.355   7.521 -0.3067 -0.3966  0.5766
   41MOL0     C 5421   6.478   0.514   7.530  0.3254  0.3089  0.5419
   41MOL0     C 5422   6.469   0.570   7.386  0.8397  0.6564 -0.1747
   41MOL0     C 5423   6.493   0.712   7.350 -0.2033  0.1212 -0.0424
   41MOL0     O 5424   6.365   0.771   7.385 -0.3251 -1.2784 -0.6848
   41MOL0     C 5425   6.349   0.903   7.354  0.5987 -0.7376 -0.9098
   41MOL0     C 5426   6.450   0.989   7.320 -0.0131  0.1496 -0.1016
   41MOL0     C 5427   6.423   1.123   7.301  0.5447 -0.2191  0.0273
   41MOL0     C 5428   6.289   1.173   7.288 -0.0990  0.2851 -0.2421
   41MOL0     C 5429   6.263   1.313   7.236 -0.5500 -1.1690 -0.0056
   41MOL0     O 5430   6.138   1.367   7.227 -0.0179  0.0756 -0.4958
   41MOL0     C 5431   6.114   1.484   7.158 -0.4620 -0.2756  0.1337
   41MOL0     C 5432   6.062   1.477   7.031 -0.0149  0.4453  0.0573
   41MOL0     C 5433   6.002   1.579   6.966 -0.1129 -0.0419  0.0895
   41MOL0     C 5434   5.983   1.702   7.039  0.5935 -0.4155 -0.6843
   41MOL0     O 5435   5.914   1.807   6.986  0.1273 -0.0071 -0.1171
   41MOL0     C 5436   5.778   1.775   6.953 -0.3184  0.0817 -0.4494
   41MOL0     C 5437   5.672   1.866   7.008  0.4125  0.7873 -0.3530
   41MOL0     C 5438   5.680   2.018   6.949  0.5412  0.0300  0.2277
   41MOL0     C 5439   5.558   2.092   6.976 -0.1653 -0.7494  0.1755
   41MOL0     C 5440   5.553   2.240   6.930 -0.4475 -0.4227 -0.3754
   41MOL0     C 5441   5.675   2.331   6.987  0.2318 -0.0331  0.1873
   41MOL0     C 5442   5.662   2.471   6.926  0.7670 -0.6280  0.0942
   41MOL0     C 5443   5.748   2.570   6.994 -0.6973  0.0028 -0.3216
   41MOL0    Cl 5444   5.702   2.740   6.941 -0.3695  0.4367 -0.3706
   41MOL0     C 5445   6.038   1.714   7.161 -0.1160  0.1818 -0.3295
   41MOL0     C 5446   6.103   1.606   7.225 -0.3869 -0.2949 -0.1708
   41MOL0     O 5447   6.368   1.371   7.192  0.3562  0.9403 -0.0223
   41MOL0     C 5448   6.187   1.079   7.311 -0.3393  0.0256 -0.2617
   41MOL0     C 5449   6.214   0.948   7.349  0.3408  0.7567  0.6561
   41MOL0     N 5450   6.299   0.247   7.613  0.0211 -0.0452  0.5068
   41MOL0     N 5451   6.176   0.217   7.574 -0.1823 -0.2101 -0.2973
   41MOL0     C 5452   5.541   1.129   6.902 -0.1314  1.5496 -0.6105
   41MOL0     C 5453   5.469   1.218   6.831 -0.2891  0.3030 -0.0374
   41MOL0     C 5454   5.344   1.624   6.649  0.8007  0.2387 -0.4443
   41MOL0     C 5455   5.285   1.551   6.544 -0.3237 -0.1885  0.4421
   41MOL0     C 5456   5.242   1.614   6.426  0.3657 -0.2092 -0.0590
   41MOL0     C 5457   5.232   1.759   6.421 -0.2734  0.1855 -0.9715
   41MOL0     O 5458   5.193   1.842   6.319 -0.5176 -0.1536 -0.0924
   41MOL0     C 5459   5.081   1.789   6.240 -0.1251 -0.4494  0.7380
   41MOL0     C 5460   4.947   1.863   6.275  0.3490 -0.4047 -0.0698
   41MOL0     C 5461   4.952   1.998   6.338  0.1653 -0.3390 -0.3480
   41MOL0     C 5462   5.042   2.095   6.250  0.3909  0.8286  0.5487
   41MOL0     C 5463   4.975   2.137   6.121  0.8575  0.0702  0.6411
   41MOL0     C 5464   4.915   2.164   6.009 -0.9585  0.2986 -0.4225
   41MOL0     C 5465   5.264   1.833   6.533 -0.6455  0.1865  0.0033
   41MOL0     C 5466   5.323   1.762   6.650  0.5774 -0.4992 -0.3870
   41MOL0     C 5467   5.387   1.849   6.760  0.4230  0.1986 -0.3851
   41MOL0     H 5468   5.729   1.426   6.768  1.4338 -1.3664  0.8970
   41MOL0     H 5469   5.846   1.253   6.886  0.2704 -1.9565  1.6781
   41MOL0     H 5470   5.730   0.887   6.909  1.2135  0.5510 -3.4173
   41MOL0     H 5471   5.837   0.987   6.838 -0.8668  0.1778 -0.0758
   41MOL0     H 5472   5.997   0.948   7.048  1.5672 -0.8656 -3.6495
   41MOL0     H 5473   5.981   0.822   6.936  1.7501  1.9941 -0.5925
   41MOL0     H 5474   5.785   0.743   7.074 -0.0259 -1.1407 -1.1841
   41MOL0     H 5475   5.851   0.858   7.197  2.0297  0.6589 -0.4143
   41MOL0     H 5476   6.033   0.669   7.070  0.7445  2.2088 -0.3189
   41MOL0     H 5477   6.054   0.764   7.222  2.1941 -1.1194 -2.0514
   41MOL0     H 5478   5.862   0.652   7.323 -0.9242  1.0999 -2.2696
   41MOL0     H 5479   5.872   0.519   7.206 -0.3943 -2.3660  2.2424
   41MOL0     H 5480   6.122   0.500   7.270  0.9913 -0.3067  0.4776
   41MOL0     H 5481   6.070   0.603   7.413 -0.9295  2.3171 -1.3387
   41MOL0     H 5482   5.878   0.406   7.390 -0.0511 -0.4295 -0.7717
   41MOL0     H 5483   6.002   0.435   7.522 -0.8458  2.6528  0.0804
   41MOL0     H 5484   5.969   0.211   7.410  0.2874 -0.8709 -0.7782
   41MOL0     H 5485   6.065   0.279   7.267  0.3114 -2.4512 -0.1400
   41MOL0     H 5486   6.313   0.327   7.295 -0.8056 -1.2570 -0.3510
   41MOL0     H 5487   6.551   0.332   7.614  1.4303  1.6722  0.1679
   41MOL0     H 5488   6.582   0.316   7.463 -2.0088 -1.8378 -1.0316
   41MOL0     H 5489   6.387   0.536   7.587 -0.1103 -0.0110 -0.0272
   41MOL0     H 5490   6.560   0.566   7.582  0.6748  2.4559 -1.9341
   41MOL0     H 5491   6.373   0.543   7.339  0.7311 -1.1817  0.9846
   41MOL0     H 5492   6.540   0.507   7.331  0.0999 -1.0829  0.7871
   41MOL0     H 5493   6.504   0.717   7.241 -2.5277  1.0981 -0.2832
   41MOL0     H 5494   6.583   0.754   7.396  1.9665  1.0926 -4.6087
   41MOL0     H 5495   6.555   0.959   7.318  0.0758  0.4991 -1.8040
   41MOL0     H 5496   6.508   1.189   7.286  0.5922  0.0085  1.2140
   41MOL0     H 5497   6.075   1.382   6.980 -1.4420  0.0023  0.4787
   41MOL0     H 5498   5.945   1.574   6.874 -2.1170 -0.7743  1.2995
   41MOL0     H 5499   5.768   1.776   6.844 -1.4991 -1.1370 -0.3806
   41MOL0     H 5500   5.754   1.675   6.991  0.0907  0.5169  1.0006
   41MOL0     H 5501   5.576   1.822   6.980  0.7922  1.6847 -3.5220
   41MOL0     H 5502   5.680   1.867   7.117 -1.1002  0.0826 -0.2081
   41MOL0     H 5503   5.761   2.065   7.005 -0.5179  2.1438  0.0593
   41MOL0     H 5504   5.717   2.012   6.846  3.2434 -0.9542  1.1703
   41MOL0     H 5505   5.546   2.093   7.085  0.1981  2.7061  0.3022
   41MOL0     H 5506   5.468   2.041   6.943 -1.5596  1.9275 -0.4414
   41MOL0     H 5507   5.462   2.293   6.958  0.3175 -0.1000  1.6307
   41MOL0     H 5508   5.543   2.244   6.821 -2.5430 -0.3603 -0.2193
   41MOL0     H 5509   5.666   2.339   7.095 -0.7516  0.0819  0.1033
   41MOL0     H 5510   5.772   2.288   6.961 -0.6235 -0.6257 -2.2978
   41MOL0     H 5511   5.558   2.502   6.940  0.9569 -0.0366  0.2478
   41MOL0     H 5512   5.681   2.470   6.818 -2.5003  0.3628 -0.6253
   41MOL0     H 5513   5.739   2.577   7.103  0.8080  1.9731 -0.2581
   41MOL0     H 5514   5.849   2.541   6.965 -1.2536 -1.8739 -0.5040
   41MOL0     H 5515   6.019   1.807   7.214  1.7604 -0.0404  0.8488
   41MOL0     H 5516   6.133   1.617   7.328 -0.3243  3.6276 -0.4648
   41MOL0     H 5517   6.087   1.121   7.309  0.4567  2.1628  1.3632
   41MOL0     H 5518   6.129   0.889   7.381  1.8939 -1.7416  0.4388
   41MOL0     H 5519   5.499   1.039   6.947  2.9761 -0.6727 -1.7614
   41MOL0     H 5520   5.362   1.200   6.820 -0.2474 -0.7744  1.1347
   41MOL0     H 5521   5.278   1.443   6.541 -1.2029 -0.1278 -0.6380
   41MOL0     H 5522   5.203   1.560   6.341  1.0177  0.6860 -0.9604
   41MOL0     H 5523   5.068   1.680   6.245  2.4542 -0.7942  1.9059
   41MOL0     H 5524   5.111   1.821   6.140  2.9467 -2.2908  0.9195
   41MOL0     H 5525   4.899   1.785   6.335 -1.7025  2.0550  1.6995
   41MOL0     H 5526   4.890   1.877   6.183  0.1192  3.0344  0.4520
   41MOL0     H 5527   4.992   1.985   6.439 -1.7314 -0.1800  0.4707
   41MOL0     H 5528   4.848   2.033   6.339  0.2100 -0.2045 -0.4820
   41MOL0     H 5529   5.041   2.190   6.305 -0.1127  1.6216 -0.7816
   41MOL0     H 5530   5.139   2.048   6.235 -0.7118 -1.5547  0.4404
   41MOL0     H 5531   4.872   2.176   5.912  1.9325  1.0595 -1.7132
   41MOL0     H 5532   5.278   1.939   6.512  0.1674 -0.1815 -1.4217
   41MOL0     H 5533   5.343   1.835   6.859 -1.4900 -0.0070 -1.2281
   41MOL0     H 5534   5.493   1.822   6.772  0.2194 -1.5853 -2.1128
   41MOL0     H 5535   5.377   1.954   6.732 -0.7311  1.2218  3.2793
   42MOL0     O 5536   3.010   7.062   3.919 -0.9615  0.4499  0.2635
   42MOL0     C 5537   3.037   6.982   3.830  0.4126  0.0440  0.0202
   42MOL0     O 5538   3.016   7.008   3.696 -0.1612  0.1349 -0.2346
   42MOL0     C 5539   3.016   7.139   3.646 -0.5629 -0.5146  0.2188
   42MOL0     C 5540   3.079   7.161   3.523 -0.8914  1.0362  0.2339
   42MOL0     C 5541   3.116   7.283   3.477  0.2143 -0.6998  0.3904
   42MOL0     C 5542   3.084   7.402   3.533 -0.2774 -0.9838 -0.5523
   42MOL0     O 5543   3.122   7.529   3.502 -0.3347 -0.2484  0.1807
   42MOL0     C 5544   3.155   7.545   3.367  0.2876 -0.2757  1.2584
   42MOL0     C 5545   3.126   7.700   3.326  0.5543  1.1022  0.8828
   42MOL0     C 5546   3.175   7.719   3.183  0.1171 -0.3946 -0.4203
   42MOL0     C 5547   3.193   7.865   3.170  0.6011 -1.0909  0.4706
   42MOL0     C 5548   3.305   7.900   3.058  0.4489 -0.3566 -0.1245
   42MOL0     C 5549   3.322   8.049   2.996 -0.9000  0.0808 -0.0952
   42MOL0     C 5550   3.439   8.059   2.894  0.6652  0.1083 -0.6712
   42MOL0     C 5551   3.437   7.980   2.765 -0.1886  0.7309 -0.0300
   42MOL0     N 5552   3.476   7.845   2.787 -0.1582  0.3916 -0.1188
   42MOL0     C 5553   3.589   7.798   2.840 -0.5037  0.4071 -0.2614
   42MOL0     C 5554   3.577   7.666   2.854 -1.1642  0.9306  0.3744
   42MOL0     C 5555   3.681   7.568   2.918 -0.0438 -0.5151 -0.1728
   42MOL0     C 5556   3.610   7.488   3.028 -0.0674  0.1248  0.4052
   42MOL0     C 5557   3.696   7.374   3.072 -0.4539  0.0002  0.1413
   42MOL0     C 5558   3.638   7.303   3.191  0.1136  0.5129  0.3781
   42MOL0     O 5559   3.663   7.378   3.309  0.3523 -0.3872  0.0800
   42MOL0     C 5560   3.554   7.396   3.395 -0.1735  0.7471 -0.6822
   42MOL0     C 5561   3.480   7.291   3.462  0.4772 -0.2260  0.7024
   42MOL0     C 5562   3.418   7.329   3.578  0.5812  0.5174  0.5076
   42MOL0     C 5563   3.422   7.460   3.635 -0.2345  0.5752  0.5534
   42MOL0     C 5564   3.384   7.480   3.777 -0.5933  0.2880  0.0096
   42MOL0     O 5565   3.399   7.370   3.851 -0.1556 -0.6754 -0.5034
   42MOL0     C 5566   3.353   7.386   3.975  0.1264 -1.1755  0.4716
   42MOL0     C 5567   3.254   7.310   4.025  0.1273  0.1828  0.2104
   42MOL0     C 5568   3.217   7.324   4.159  0.3233  0.2554 -0.1872
   42MOL0     C 5569   3.286   7.407   4.251 -0.6104  0.0765 -0.6272
   42MOL0     O 5570   3.268   7.410   4.386  0.2206 -0.2186  0.1351
   42MOL0     C 5571   3.132   7.384   4.421 -0.6240 -1.3993  0.2127
   42MOL0     C 5572   3.106   7.450   4.567  0.1202 -0.4801  0.6798
   42MOL0     C 5573   3.169   7.594   4.574 -1.0946  0.8393 -0.1894
   42MOL0     C 5574   3.108   7.702   4.474 -0.3805 -0.3756 -0.7181
   42MOL0     C 5575   3.143   7.839   4.512  0.5238 -0.1739  0.2630
   42MOL0     C 5576   3.292   7.869   4.514  0.1188  0.0716  1.0304
   42MOL0     C 5577   3.318   8.016   4.569 -0.2423  0.2577  0.5362
   42MOL0     C 5578   3.472   8.046   4.586 -0.4941  0.0089 -0.4137
   42MOL0    Cl 5579   3.502   8.216   4.612  0.5088  0.2954 -0.3106
   42MOL0     C 5580   3.385   7.490   4.203 -0.6496  0.2656 -0.2048
   42MOL0     C 5581   3.416   7.479   4.067  0.6928 -0.9239  0.1481
   42MOL0     O 5582   3.344   7.593   3.814  0.8314  0.1331 -0.0029
   42MOL0     C 5583   3.483   7.556   3.559  0.4314 -1.2348  0.2065
   42MOL0     C 5584   3.542   7.521   3.442  0.2922 -0.0311  0.8221
   42MOL0     N 5585   3.463   7.626   2.796 -0.5461 -0.4453  0.8045
   42MOL0     N 5586   3.399   7.730   2.766 -0.0356 -0.9719  0.8601
   42MOL0     C 5587   3.012   7.383   3.656  0.0093 -0.0793  0.3379
   42MOL0     C 5588   2.974   7.261   3.708 -1.0738 -1.1156 -1.4610
   42MOL0     C 5589   3.069   6.848   3.859  0.0999  0.9405 -0.2244
   42MOL0     C 5590   3.000   6.756   3.787  0.3960 -0.3070 -0.3725
   42MOL0     C 5591   3.022   6.618   3.795  0.5209  0.0635 -0.2158
   42MOL0     C 5592   3.123   6.574   3.884  0.8053 -0.5893 -0.4851
   42MOL0     O 5593   3.156   6.440   3.912  0.2445  0.3461 -0.8462
   42MOL0     C 5594   3.091   6.332   3.829  0.2606  1.1757 -1.3577
   42MOL0     C 5595   3.111   6.186   3.890  0.2511 -0.0571  0.2328
   42MOL0     C 5596   3.260   6.160   3.891  0.4268 -0.0993 -0.2162
   42MOL0     C 5597   3.289   6.008   3.901  0.2443  0.4301  0.0014
   42MOL0     C 5598   3.437   5.989   3.915  0.2781  0.7597 -0.1346
   42MOL0     C 5599   3.551   5.972   3.921  0.1062 -1.2405  0.1309
   42MOL0     C 5600   3.192   6.658   3.961 -0.2109 -0.2195  0.6143
   42MOL0     C 5601   3.165   6.798   3.949  0.0055 -0.3227  0.3221
   42MOL0     C 5602   3.256   6.891   4.024 -0.2344 -0.3260 -0.2292
   42MOL0     H 5603   3.113   7.065   3.483 -4.6203 -1.5809  2.6712
   42MOL0     H 5604   3.181   7.270   3.391  1.5905  0.2911  1.2453
   42MOL0     H 5605   3.255   7.510   3.340  0.0736 -0.4200  0.6304
   42MOL0     H 5606   3.080   7.509   3.296 -2.3184  2.6579  2.2721
   42MOL0     H 5607   3.183   7.767   3.391 -0.0488 -0.7552  3.4604
   42MOL0     H 5608   3.025   7.740   3.319  0.8063  1.5363 -4.2671
   42MOL0     H 5609   3.090   7.685   3.124 -0.6611  2.0697 -0.8341
   42MOL0     H 5610   3.271   7.673   3.158  1.3168  3.4925 -4.2417
   42MOL0     H 5611   3.096   7.901   3.136 -0.4832 -3.6497  0.6516
   42MOL0     H 5612   3.233   7.918   3.257  1.6687  0.2102 -0.7691
   42MOL0     H 5613   3.400   7.881   3.107  1.3725  3.6495 -0.0165
   42MOL0     H 5614   3.278   7.839   2.971  0.9732 -0.9475  0.1270
   42MOL0     H 5615   3.222   8.074   2.959 -0.4813  0.6805 -0.8459
   42MOL0     H 5616   3.350   8.113   3.080  0.9014 -1.4494  0.5447
   42MOL0     H 5617   3.530   8.025   2.945 -0.9303 -0.4757  1.9679
   42MOL0     H 5618   3.441   8.166   2.871  0.2169  0.4467  0.7634
   42MOL0     H 5619   3.338   7.970   2.719 -0.4401 -0.0195  0.6543
   42MOL0     H 5620   3.512   8.033   2.706  0.2238  2.7127  2.1319
   42MOL0     H 5621   3.681   7.847   2.873 -1.7297  3.4119 -1.0065
   42MOL0     H 5622   3.728   7.506   2.841  0.7616  1.0924 -1.0190
   42MOL0     H 5623   3.773   7.616   2.950  0.8594 -1.7494 -0.8274
   42MOL0     H 5624   3.593   7.569   3.100 -1.1334  0.2919 -0.0132
   42MOL0     H 5625   3.508   7.459   3.000  1.3973 -2.5248 -2.8778
   42MOL0     H 5626   3.799   7.406   3.090  0.9473 -0.7304 -4.9718
   42MOL0     H 5627   3.703   7.300   2.991  2.0276  0.5551 -0.2320
   42MOL0     H 5628   3.687   7.206   3.199 -0.4580  0.1749 -0.1637
   42MOL0     H 5629   3.532   7.294   3.167 -0.1413 -1.0917  1.8944
   42MOL0     H 5630   3.499   7.185   3.454 -0.8820 -0.6087  1.9552
   42MOL0     H 5631   3.365   7.258   3.640  1.3085  0.0598  0.6087
   42MOL0     H 5632   3.195   7.258   3.949  0.8662 -0.1863 -0.1246
   42MOL0     H 5633   3.133   7.264   4.193 -1.3218  1.7590 -1.3782
   42MOL0     H 5634   3.061   7.429   4.351  3.4520 -0.1006 -3.5456
   42MOL0     H 5635   3.128   7.275   4.417  0.6509 -1.4195 -2.6890
   42MOL0     H 5636   2.996   7.453   4.571  0.1169 -0.9850  1.0457
   42MOL0     H 5637   3.151   7.387   4.644  0.9810  0.6418  1.1226
   42MOL0     H 5638   3.147   7.628   4.676  3.2992 -1.6811  1.9093
   42MOL0     H 5639   3.278   7.583   4.569 -1.1335 -0.7457  1.3485
   42MOL0     H 5640   3.000   7.689   4.466 -0.4541 -3.0801  2.5805
   42MOL0     H 5641   3.142   7.671   4.374 -1.1813  0.1632 -1.1657
   42MOL0     H 5642   3.113   7.845   4.617 -0.2905 -1.8497  0.1565
   42MOL0     H 5643   3.091   7.909   4.446 -0.1712 -1.0800 -0.1684
   42MOL0     H 5644   3.344   7.798   4.578  0.2131 -1.4928 -0.7138
   42MOL0     H 5645   3.329   7.844   4.414  1.5436  3.3532  0.6072
   42MOL0     H 5646   3.273   8.021   4.668  0.9258  1.3509  1.0381
   42MOL0     H 5647   3.272   8.098   4.513  0.6648 -0.4791 -1.4025
   42MOL0     H 5648   3.512   7.996   4.674 -0.0151 -1.6336 -1.5110
   42MOL0     H 5649   3.527   8.022   4.494 -1.9164  0.0181 -1.3071
   42MOL0     H 5650   3.435   7.561   4.269  0.0200  1.2470 -1.7037
   42MOL0     H 5651   3.494   7.546   4.032 -0.0630  0.7366  1.4960
   42MOL0     H 5652   3.494   7.659   3.591  1.1932 -1.6981  1.4881
   42MOL0     H 5653   3.594   7.607   3.401 -3.1801  1.1139 -1.6576
   42MOL0     H 5654   2.986   7.472   3.713 -0.9027 -0.8361  1.1619
   42MOL0     H 5655   2.915   7.270   3.798 -0.2882 -0.5955 -0.9799
   42MOL0     H 5656   2.918   6.791   3.725 -2.0462 -1.1316  2.1750
   42MOL0     H 5657   2.957   6.551   3.739  2.6420  0.4910 -3.4555
   42MOL0     H 5658   3.123   6.337   3.725 -2.9040 -0.3813 -2.5441
   42MOL0     H 5659   2.983   6.348   3.831  0.2712  1.1931 -0.4732
   42MOL0     H 5660   3.054   6.108   3.839  0.6587 -0.3267  0.1813
   42MOL0     H 5661   3.076   6.188   3.993  0.9021  0.2508  0.4541
   42MOL0     H 5662   3.304   6.214   3.975  1.8884 -3.1501  1.1410
   42MOL0     H 5663   3.316   6.197   3.804  0.8697 -2.0076 -0.8092
   42MOL0     H 5664   3.236   5.973   3.990 -2.0615  4.7691  0.6077
   42MOL0     H 5665   3.254   5.969   3.805  1.1852 -0.3676 -0.0471
   42MOL0     H 5666   3.654   5.951   3.946  0.5604  0.6012 -0.0597
   42MOL0     H 5667   3.280   6.623   4.016 -0.0787 -0.6876  0.1083
   42MOL0     H 5668   3.205   6.916   4.117 -1.3286  3.5772 -1.6815
   42MOL0     H 5669   3.352   6.841   4.040 -1.5605 -3.2705 -0.8246
   42MOL0     H 5670   3.267   6.985   3.970  3.9536 -0.7231 -0.4029
   43MOL0     O 5671  10.059   7.001   1.672  0.6350  0.2774 -0.3953
   43MOL0     C 5672  10.131   7.086   1.709 -0.2712 -0.0532 -0.2674
   43MOL0     O 5673  10.100   7.209   1.731  0.2189 -0.4971 -0.1813
   43MOL0     C 5674   9.974   7.242   1.687 -0.7405 -0.7909  0.3408
   43MOL0     C 5675   9.857   7.232   1.764  0.1405  0.3268  0.4973
   43MOL0     C 5676   9.734   7.262   1.706 -0.1889  0.1346  0.2283
   43MOL0     C 5677   9.725   7.311   1.573 -0.2677 -1.1188 -0.4858
   43MOL0     O 5678   9.605   7.351   1.516  0.1862  0.1294  0.0019
   43MOL0     C 5679   9.549   7.238   1.442  0.6603 -0.5328  0.6142
   43MOL0     C 5680   9.399   7.266   1.408 -0.1129  0.6251  0.3181
   43MOL0     C 5681   9.334   7.330   1.530 -0.7452 -0.4957 -0.2417
   43MOL0     C 5682   9.182   7.320   1.519  1.0225  0.2767 -0.4293
   43MOL0     C 5683   9.127   7.334   1.381  0.4719  0.1633  1.1592
   43MOL0     C 5684   8.976   7.335   1.386 -0.8296  0.3758 -0.5990
   43MOL0     C 5685   8.896   7.314   1.259 -0.1080 -0.5364  0.3709
   43MOL0     C 5686   8.941   7.414   1.150 -0.6449  0.1797 -0.6080
   43MOL0     N 5687   8.863   7.404   1.029  0.1590  0.3070 -0.7706
   43MOL0     C 5688   8.737   7.458   1.019 -1.1567 -0.1397  0.2854
   43MOL0     C 5689   8.711   7.428   0.884  0.0223  1.6642 -0.3445
   43MOL0     C 5690   8.574   7.446   0.819  1.2705  0.4399 -0.0621
   43MOL0     C 5691   8.471   7.508   0.915  1.0934  0.5445 -0.4279
   43MOL0     C 5692   8.321   7.488   0.858  1.3813  0.5777 -0.1646
   43MOL0     C 5693   8.217   7.547   0.955 -0.3844 -0.6881 -0.2038
   43MOL0     O 5694   8.249   7.695   0.966  0.1424 -0.4069 -0.5940
   43MOL0     C 5695   8.153   7.779   0.919  0.3716 -0.1343 -0.6521
   43MOL0     C 5696   8.082   7.754   0.802 -0.2340  0.9017 -1.0437
   43MOL0     C 5697   7.992   7.833   0.743 -0.7435 -0.7847  0.6271
   43MOL0     C 5698   7.959   7.956   0.808 -0.3893 -0.2108  0.4172
   43MOL0     C 5699   7.847   8.038   0.765 -0.7129 -0.0734 -0.2123
   43MOL0     O 5700   7.803   8.135   0.857  0.0710 -0.4595 -0.0575
   43MOL0     C 5701   7.680   8.198   0.855  1.3259  0.8748  0.8361
   43MOL0     C 5702   7.608   8.220   0.966  0.4362  0.2015 -1.4421
   43MOL0     C 5703   7.480   8.279   0.951 -0.4501 -0.2310  0.1954
   43MOL0     C 5704   7.421   8.297   0.822  0.6391  0.3395  0.0881
   43MOL0     O 5705   7.298   8.347   0.823  0.2798 -0.4673  0.2674
   43MOL0     C 5706   7.238   8.372   0.703 -0.1681  0.1189  0.5435
   43MOL0     C 5707   7.088   8.398   0.700  0.3435 -0.9185 -0.1477
   43MOL0     C 5708   7.011   8.313   0.812 -0.0967  0.6674 -0.0320
   43MOL0     C 5709   6.859   8.353   0.802  0.8428  0.0415 -0.0434
   43MOL0     C 5710   6.770   8.266   0.900  0.1319  0.1126  0.2332
   43MOL0     C 5711   6.817   8.263   1.041  1.3096  0.1372 -0.0599
   43MOL0     C 5712   6.693   8.254   1.138  0.3081  0.2548 -0.6307
   43MOL0     C 5713   6.736   8.231   1.280  0.3213  0.2192 -0.3588
   43MOL0    Cl 5714   6.805   8.068   1.284 -0.6106 -0.3696  0.2699
   43MOL0     C 5715   7.505   8.282   0.710  0.1944 -0.1675 -0.2610
   43MOL0     C 5716   7.635   8.243   0.732  0.2454 -1.2438 -0.6885
   43MOL0     O 5717   7.792   8.014   0.660 -0.2978 -0.2743  0.1136
   43MOL0     C 5718   8.033   7.990   0.931 -0.1407  0.2135 -0.5719
   43MOL0     C 5719   8.128   7.898   0.985  0.7325  0.5241 -0.3358
   43MOL0     N 5720   8.822   7.367   0.820 -0.4920 -0.0077  0.2141
   43MOL0     N 5721   8.913   7.366   0.907  0.1676  0.7344 -0.7265
   43MOL0     C 5722   9.838   7.320   1.493 -0.1852 -0.7744 -0.0326
   43MOL0     C 5723   9.957   7.298   1.556 -0.0320 -0.0801  0.3639
   43MOL0     C 5724  10.273   7.032   1.724  0.6177 -0.6173  0.5236
   43MOL0     C 5725  10.304   6.913   1.667 -0.9446 -0.3933  0.2938
   43MOL0     C 5726  10.437   6.855   1.670  0.3468  0.6646  0.1504
   43MOL0     C 5727  10.540   6.925   1.725 -0.1121  0.5348  0.7813
   43MOL0     O 5728  10.661   6.855   1.740 -1.1200  0.0344 -0.1212
   43MOL0     C 5729  10.770   6.941   1.767 -0.8500  0.7780  0.3199
   43MOL0     C 5730  10.899   6.859   1.737  0.5815  0.7877  0.6805
   43MOL0     C 5731  10.936   6.746   1.836 -0.3888 -0.0143 -0.1924
   43MOL0     C 5732  11.020   6.648   1.750 -0.4847  0.3549 -0.1214
   43MOL0     C 5733  11.104   6.553   1.836  1.0916  0.6130 -0.3499
   43MOL0     C 5734  11.190   6.502   1.904  1.1810  1.3901 -0.6867
   43MOL0     C 5735  10.514   7.045   1.771  0.3478  0.0737  0.3656
   43MOL0     C 5736  10.381   7.107   1.768 -0.8033  0.0558  0.4723
   43MOL0     C 5737  10.394   7.249   1.807 -0.4895 -0.9039  0.4474
   43MOL0     H 5738   9.856   7.191   1.865  1.6828 -2.2239 -0.4144
   43MOL0     H 5739   9.648   7.261   1.771  0.2625 -1.0109  0.8341
   43MOL0     H 5740   9.605   7.214   1.351 -0.2910  0.8386 -0.3612
   43MOL0     H 5741   9.571   7.156   1.512  3.0699 -1.8727 -1.5405
   43MOL0     H 5742   9.354   7.168   1.389 -0.2330  0.6476  0.4816
   43MOL0     H 5743   9.393   7.337   1.326  0.9928  0.0435 -0.2852
   43MOL0     H 5744   9.366   7.434   1.539 -1.1386 -0.4289  0.4631
   43MOL0     H 5745   9.364   7.277   1.622 -1.1436  3.2027  2.2363
   43MOL0     H 5746   9.142   7.230   1.567  2.2649 -0.0460  0.0311
   43MOL0     H 5747   9.150   7.403   1.584  2.0736  0.9408 -0.7395
   43MOL0     H 5748   9.172   7.415   1.324 -0.2092 -0.7764 -0.8109
   43MOL0     H 5749   9.149   7.246   1.320  2.6718 -0.0244  2.1137
   43MOL0     H 5750   8.951   7.257   1.459  0.2807 -1.0850 -1.7187
   43MOL0     H 5751   8.947   7.434   1.423 -0.6275 -0.2502  1.3665
   43MOL0     H 5752   8.791   7.344   1.267  0.2369  1.5370 -1.6405
   43MOL0     H 5753   8.905   7.207   1.234  1.6992 -0.6589  1.4008
   43MOL0     H 5754   8.933   7.515   1.194 -0.3320 -0.1063  0.1262
   43MOL0     H 5755   9.046   7.394   1.127 -1.0837 -0.3243 -2.2908
   43MOL0     H 5756   8.686   7.517   1.095  0.9796  1.4243  0.5984
   43MOL0     H 5757   8.590   7.512   0.733 -1.5930  2.6236  0.9268
   43MOL0     H 5758   8.543   7.353   0.770  0.9566  1.0339 -1.0132
   43MOL0     H 5759   8.476   7.468   1.017 -1.5414 -0.6002 -0.6606
   43MOL0     H 5760   8.493   7.615   0.926  0.9773  0.3175  3.5337
   43MOL0     H 5761   8.304   7.381   0.851 -3.8436  1.1451 -0.6634
   43MOL0     H 5762   8.297   7.525   0.758 -1.4928 -0.5202  0.0133
   43MOL0     H 5763   8.225   7.500   1.054  1.0302 -2.5954 -1.1691
   43MOL0     H 5764   8.111   7.528   0.940 -0.6029 -0.5315  0.9971
   43MOL0     H 5765   8.098   7.658   0.754 -0.3730 -1.6668  3.4902
   43MOL0     H 5766   7.945   7.806   0.649  0.6851  1.3629 -0.7720
   43MOL0     H 5767   7.655   8.194   1.060 -0.7470  1.7304 -0.3673
   43MOL0     H 5768   7.411   8.311   1.029 -0.4214 -1.0432  0.5669
   43MOL0     H 5769   7.282   8.458   0.653 -1.7886  1.4973  1.3815
   43MOL0     H 5770   7.241   8.289   0.631  3.9299 -0.3553  1.0664
   43MOL0     H 5771   7.067   8.504   0.717  2.2809 -0.6179  0.6239
   43MOL0     H 5772   7.065   8.385   0.594  1.3346 -0.6788 -0.4048
   43MOL0     H 5773   7.033   8.208   0.791  0.4406  0.5357  1.0654
   43MOL0     H 5774   7.044   8.330   0.915  0.6313 -2.3364  0.3210
   43MOL0     H 5775   6.823   8.342   0.700 -0.4770 -0.5391  0.4548
   43MOL0     H 5776   6.852   8.458   0.834 -0.9243  0.9858 -3.1555
   43MOL0     H 5777   6.780   8.163   0.866  1.7886  0.7653 -1.3814
   43MOL0     H 5778   6.667   8.304   0.902 -0.1296 -0.5916  1.5685
   43MOL0     H 5779   6.877   8.173   1.059  0.1367 -0.6735 -0.0901
   43MOL0     H 5780   6.874   8.351   1.073 -0.3055  1.1953  0.0159
   43MOL0     H 5781   6.614   8.182   1.112  1.3029 -1.4986  1.0027
   43MOL0     H 5782   6.653   8.356   1.140 -1.5221 -0.4110  1.6596
   43MOL0     H 5783   6.797   8.318   1.307  4.4266 -1.5776 -2.9297
   43MOL0     H 5784   6.657   8.230   1.356  1.3965 -1.6507  0.8198
   43MOL0     H 5785   7.478   8.310   0.609  0.9959  1.9236  0.0445
   43MOL0     H 5786   7.696   8.247   0.643  0.7236  0.0688 -0.3285
   43MOL0     H 5787   8.013   8.088   0.973 -0.4096  0.3060 -0.9085
   43MOL0     H 5788   8.191   7.924   1.070  0.5516  0.8173 -0.2914
   43MOL0     H 5789   9.830   7.342   1.387  1.3665 -1.5581 -0.3410
   43MOL0     H 5790  10.041   7.304   1.487  2.2164 -3.2821  2.5726
   43MOL0     H 5791  10.227   6.853   1.620  0.7195  1.1402 -5.1519
   43MOL0     H 5792  10.463   6.755   1.636  0.7724  0.9952 -0.5259
   43MOL0     H 5793  10.763   6.976   1.870 -3.3071 -0.3280  0.5940
   43MOL0     H 5794  10.767   7.035   1.711 -1.1533  0.5387 -0.0732
   43MOL0     H 5795  10.987   6.924   1.740  2.0291 -1.0449  3.9741
   43MOL0     H 5796  10.879   6.832   1.633 -0.8667  2.4139  0.4947
   43MOL0     H 5797  10.853   6.702   1.892  1.6265  0.1207  3.1445
   43MOL0     H 5798  11.002   6.778   1.917 -2.5706 -1.5241  2.3310
   43MOL0     H 5799  10.961   6.588   1.680  3.3456 -0.1636 -3.2246
   43MOL0     H 5800  11.091   6.696   1.683  0.5530  0.7911  1.2492
   43MOL0     H 5801  11.252   6.474   1.987 -0.2595  2.1186  0.6847
   43MOL0     H 5802  10.592   7.118   1.789  0.1919  0.1618  0.6880
   43MOL0     H 5803  10.439   7.244   1.906  0.3847 -3.7384 -0.0169
   43MOL0     H 5804  10.468   7.307   1.750 -0.8953 -1.1758 -0.3814
   43MOL0     H 5805  10.302   7.309   1.801  1.7322  2.8618  0.7874
   44MOL0     O 5806   0.860   3.990   3.268  0.5372  0.6091  0.5235
   44MOL0     C 5807   0.745   3.978   3.311  0.9286 -0.2559  0.5745
   44MOL0     O 5808   0.691   4.057   3.409 -0.0135  0.2381  0.2213
   44MOL0     C 5809   0.753   4.171   3.449 -0.2012 -0.9596 -0.4189
   44MOL0     C 5810   0.804   4.279   3.373 -0.3564 -0.2883 -0.0695
   44MOL0     C 5811   0.866   4.393   3.434  0.3726 -0.9909  0.1042
   44MOL0     C 5812   0.873   4.403   3.567 -0.0962 -0.9146 -0.2386
   44MOL0     O 5813   0.938   4.504   3.629 -0.6497  0.1602  0.1717
   44MOL0     C 5814   0.854   4.616   3.626  0.3871  0.0400  0.9019
   44MOL0     C 5815   0.898   4.715   3.515  0.6062 -0.1269 -0.4858
   44MOL0     C 5816   0.869   4.861   3.560 -0.0886  0.4022  0.1656
   44MOL0     C 5817   0.933   4.961   3.470  0.1469 -0.2729 -0.0763
   44MOL0     C 5818   0.939   5.095   3.538 -0.5175  0.1539  0.6306
   44MOL0     C 5819   0.954   5.203   3.427  0.1403  0.5136 -0.3784
   44MOL0     C 5820   1.099   5.198   3.363  0.3869 -0.5192 -0.3253
   44MOL0     C 5821   1.116   5.295   3.248  0.2887 -0.7328 -0.8148
   44MOL0     N 5822   1.109   5.424   3.295 -0.2687 -1.0879 -0.8412
   44MOL0     C 5823   0.990   5.489   3.324  0.3616 -0.7278  0.3952
   44MOL0     C 5824   1.025   5.591   3.404 -0.4397 -0.2682  0.2496
   44MOL0     C 5825   0.922   5.688   3.465 -0.1170  1.3219  0.4044
   44MOL0     C 5826   0.896   5.810   3.372  0.4619  0.0038  0.2050
   44MOL0     C 5827   1.005   5.862   3.279 -1.6323 -0.9753 -0.8994
   44MOL0     C 5828   1.121   5.937   3.348 -0.0340  0.3303  0.4624
   44MOL0     O 5829   1.075   6.065   3.378  0.5481  0.1545  0.2955
   44MOL0     C 5830   1.157   6.149   3.445 -0.7897  1.1511 -0.3329
   44MOL0     C 5831   1.292   6.123   3.463 -0.0693 -0.7938  0.5640
   44MOL0     C 5832   1.366   6.215   3.529 -0.1242  0.6337 -0.1162
   44MOL0     C 5833   1.315   6.338   3.572 -0.5278  0.1048  0.1106
   44MOL0     C 5834   1.386   6.453   3.640 -0.5450  0.4484  0.1401
   44MOL0     O 5835   1.333   6.576   3.648 -0.3096 -0.3403 -1.1320
   44MOL0     C 5836   1.403   6.683   3.701  0.1231 -0.7249 -0.3224
   44MOL0     C 5837   1.349   6.789   3.757 -0.0744 -0.0682 -0.8224
   44MOL0     C 5838   1.418   6.899   3.805 -0.5585  0.2911 -0.1898
   44MOL0     C 5839   1.550   6.912   3.782  0.1018 -0.1571 -0.6852
   44MOL0     O 5840   1.626   7.020   3.816  1.1333  0.5172 -0.3015
   44MOL0     C 5841   1.555   7.134   3.870 -0.7422  0.3991  0.3998
   44MOL0     C 5842   1.642   7.256   3.904  0.6395 -0.5742  0.1550
   44MOL0     C 5843   1.784   7.223   3.954  0.3381 -0.4280 -0.4113
   44MOL0     C 5844   1.882   7.341   3.926 -0.2801  0.5130 -0.0020
   44MOL0     C 5845   1.996   7.301   4.018 -0.2168 -0.2199 -0.0662
   44MOL0     C 5846   2.115   7.390   3.988  0.1765 -0.7983 -0.1862
   44MOL0     C 5847   2.124   7.519   4.061 -0.0059  0.4233 -0.7282
   44MOL0     C 5848   2.153   7.505   4.211  0.5039 -0.1916  0.3585
   44MOL0    Cl 5849   2.326   7.453   4.223 -0.1946  0.3472 -0.2213
   44MOL0     C 5850   1.622   6.810   3.721 -0.0212 -0.3985 -0.7034
   44MOL0     C 5851   1.550   6.696   3.687 -0.1422  0.4565  0.1921
   44MOL0     O 5852   1.498   6.423   3.677  0.6314 -0.5107 -1.5109
   44MOL0     C 5853   1.188   6.374   3.530 -0.6777  0.8988 -1.0805
   44MOL0     C 5854   1.106   6.269   3.476 -0.0204 -0.3981 -1.1259
   44MOL0     N 5855   1.163   5.610   3.406  1.1495  0.1837 -0.0008
   44MOL0     N 5856   1.209   5.504   3.345  0.5121  0.0577  0.0011
   44MOL0     C 5857   0.828   4.305   3.647  0.9083  0.7845  0.9076
   44MOL0     C 5858   0.777   4.189   3.583 -0.8188  0.5297 -0.4678
   44MOL0     C 5859   0.655   3.863   3.268 -0.5729 -1.0370 -0.6804
   44MOL0     C 5860   0.594   3.794   3.378  1.2344  0.4859 -0.4060
   44MOL0     C 5861   0.530   3.675   3.356 -0.2912 -0.6200 -0.4899
   44MOL0     C 5862   0.505   3.634   3.224  0.8032 -0.6763 -0.3927
   44MOL0     O 5863   0.418   3.530   3.208 -0.0226 -0.1214  0.5772
   44MOL0     C 5864   0.487   3.407   3.229 -0.2929  0.3691 -0.1443
   44MOL0     C 5865   0.386   3.309   3.285 -0.7164  0.5492 -0.3220
   44MOL0     C 5866   0.463   3.178   3.319  0.9247 -0.4766  0.0067
   44MOL0     C 5867   0.366   3.062   3.332 -0.0751  0.1436 -0.4625
   44MOL0     C 5868   0.240   3.068   3.418 -0.8331 -0.1431 -0.3974
   44MOL0     C 5869   0.140   3.068   3.486 -0.7653 -0.3808 -1.2257
   44MOL0     C 5870   0.558   3.707   3.112  0.2542  0.5091  0.2444
   44MOL0     C 5871   0.641   3.827   3.135  0.6391  0.2474 -1.1096
   44MOL0     C 5872   0.675   3.905   3.015  0.1224  0.5957  0.9461
   44MOL0     H 5873   0.800   4.266   3.266 -0.1409  0.9791 -0.2483
   44MOL0     H 5874   0.907   4.468   3.366 -1.3742 -0.6327 -0.6071
   44MOL0     H 5875   0.746   4.596   3.622 -0.0995  2.2536  1.3626
   44MOL0     H 5876   0.871   4.669   3.720 -1.1641 -0.3965  1.4712
   44MOL0     H 5877   0.845   4.694   3.422 -0.1033  1.4665 -0.4725
   44MOL0     H 5878   1.001   4.700   3.483  1.2682  2.3696  0.2605
   44MOL0     H 5879   0.911   4.867   3.661 -2.0647 -1.0638  1.1463
   44MOL0     H 5880   0.760   4.867   3.570 -0.1128 -0.5743  0.6584
   44MOL0     H 5881   1.036   4.938   3.442 -0.0126 -0.3505 -0.6152
   44MOL0     H 5882   0.875   4.952   3.378 -0.5504 -2.6062  0.5390
   44MOL0     H 5883   0.848   5.104   3.598  1.3736 -2.6727  4.3821
   44MOL0     H 5884   1.024   5.103   3.607 -0.0552 -2.6428  0.5167
   44MOL0     H 5885   0.883   5.173   3.350 -3.8013 -0.5921  3.2650
   44MOL0     H 5886   0.931   5.305   3.459  0.1698  0.4517 -0.1529
   44MOL0     H 5887   1.126   5.098   3.327  1.7532 -0.1270 -0.4476
   44MOL0     H 5888   1.166   5.227   3.445 -1.4275 -1.0284  1.3993
   44MOL0     H 5889   1.215   5.263   3.215  1.5203 -0.4060  2.2233
   44MOL0     H 5890   1.045   5.289   3.165  2.0848 -0.5674 -2.4473
   44MOL0     H 5891   0.885   5.459   3.324 -0.2927  1.2392  2.8874
   44MOL0     H 5892   0.828   5.642   3.497 -0.1008  1.8432  1.2329
   44MOL0     H 5893   0.958   5.733   3.558  3.1322  3.3949 -1.6307
   44MOL0     H 5894   0.798   5.799   3.324 -0.5418 -2.1160  2.4763
   44MOL0     H 5895   0.870   5.883   3.449 -0.7655 -0.3130  0.1095
   44MOL0     H 5896   0.954   5.923   3.204 -2.4506 -0.5357  0.0012
   44MOL0     H 5897   1.048   5.778   3.223 -1.4213 -1.0508 -0.6244
   44MOL0     H 5898   1.198   5.954   3.272 -1.7457 -0.0568 -1.4147
   44MOL0     H 5899   1.172   5.884   3.430  1.4938 -0.5312 -0.9792
   44MOL0     H 5900   1.354   6.034   3.449  4.6277  2.0603  1.1808
   44MOL0     H 5901   1.473   6.201   3.537 -0.3038 -1.3613 -0.6178
   44MOL0     H 5902   1.242   6.781   3.772  0.3320 -1.0146  2.1312
   44MOL0     H 5903   1.370   6.973   3.868 -0.3580 -1.1139  1.7002
   44MOL0     H 5904   1.488   7.178   3.795  0.2073 -0.6593 -1.1468
   44MOL0     H 5905   1.516   7.104   3.967  0.2427 -0.9057  0.4228
   44MOL0     H 5906   1.659   7.328   3.823 -1.1206  4.0085  3.4495
   44MOL0     H 5907   1.596   7.309   3.988  1.3669 -4.5113  3.3492
   44MOL0     H 5908   1.783   7.201   4.061  0.1578  0.6533 -0.1821
   44MOL0     H 5909   1.811   7.130   3.903 -2.0869 -1.4921  0.1438
   44MOL0     H 5910   1.846   7.442   3.949  1.7971  1.5829 -1.0704
   44MOL0     H 5911   1.919   7.345   3.823  0.8770  1.7214  0.4185
   44MOL0     H 5912   2.022   7.195   4.007  1.5095 -0.1246  2.4850
   44MOL0     H 5913   1.980   7.316   4.125  0.9401 -2.1980  0.4435
   44MOL0     H 5914   2.211   7.337   4.000  0.3396 -0.1110  2.1262
   44MOL0     H 5915   2.114   7.416   3.882 -2.6645 -1.3694 -0.3820
   44MOL0     H 5916   2.028   7.570   4.049 -0.1741  1.1675  2.6316
   44MOL0     H 5917   2.211   7.575   4.024  0.5284 -0.3494 -0.6601
   44MOL0     H 5918   2.159   7.606   4.252  0.5651  0.4997 -1.2616
   44MOL0     H 5919   2.076   7.446   4.261 -1.4259  1.2332 -0.7370
   44MOL0     H 5920   1.724   6.832   3.693 -1.0258  5.5187 -1.1331
   44MOL0     H 5921   1.613   6.621   3.639  5.1427  3.2028  2.0252
   44MOL0     H 5922   1.155   6.476   3.539  2.0531  1.7059  1.7825
   44MOL0     H 5923   1.003   6.280   3.444 -0.6818  1.4972  1.2372
   44MOL0     H 5924   0.826   4.320   3.754 -1.7467  2.3510  0.7230
   44MOL0     H 5925   0.727   4.121   3.650 -0.5625  1.9778  1.2645
   44MOL0     H 5926   0.603   3.836   3.477 -1.4863  0.3590 -0.0202
   44MOL0     H 5927   0.498   3.612   3.437  1.1098 -1.7361 -0.7678
   44MOL0     H 5928   0.582   3.410   3.284 -0.6302  2.0782  0.3982
   44MOL0     H 5929   0.521   3.376   3.130 -1.0134  0.6024 -0.4663
   44MOL0     H 5930   0.304   3.305   3.212  0.2690 -0.7869 -1.4145
   44MOL0     H 5931   0.354   3.348   3.382 -1.7287 -1.4380  0.1937
   44MOL0     H 5932   0.510   3.202   3.415 -2.2487  3.0766  0.9374
   44MOL0     H 5933   0.542   3.152   3.249  0.1696  0.0258 -1.0671
   44MOL0     H 5934   0.314   3.041   3.238 -4.8088  0.0802  1.8281
   44MOL0     H 5935   0.417   2.971   3.362 -1.2236 -0.2391  0.4351
   44MOL0     H 5936   0.054   3.077   3.549 -0.7246 -0.8681 -1.0996
   44MOL0     H 5937   0.553   3.669   3.010  3.8381 -2.8079  1.0988
   44MOL0     H 5938   0.777   3.945   3.012  0.6738 -0.7316  1.4740
   44MOL0     H 5939   0.677   3.841   2.927 -2.7248 -1.6664  2.3224
   44MOL0     H 5940   0.600   3.981   2.990 -1.9289 -1.2129  1.3318
   45MOL0     O 5941  10.950   7.113   3.285  0.4275 -0.3623 -0.1460
   45MOL0     C 5942  10.909   7.146   3.394  0.3568  0.9221  0.5448
   45MOL0     O 5943  10.863   7.070   3.490 -0.5409  0.0999  0.0962
   45MOL0     C 5944  10.878   6.927   3.492 -0.6880 -0.3800 -0.8463
   45MOL0     C 5945  10.944   6.841   3.396 -0.1783 -0.8188  0.0984
   45MOL0     C 5946  10.954   6.705   3.414  1.0350  0.2982 -0.3689
   45MOL0     C 5947  10.893   6.660   3.529 -0.2461 -0.1202 -1.2102
   45MOL0     O 5948  10.890   6.529   3.548 -0.4895 -0.1589 -0.1372
   45MOL0     C 5949  10.775   6.464   3.604  0.3124 -0.0667  0.7659
   45MOL0     C 5950  10.648   6.490   3.517  0.4808 -1.1695  0.6672
   45MOL0     C 5951  10.657   6.436   3.376 -0.5896  0.2428  0.0083
   45MOL0     C 5952  10.531   6.485   3.317  0.5575  1.2775  0.4553
   45MOL0     C 5953  10.510   6.444   3.177 -0.1308 -1.0310 -0.2521
   45MOL0     C 5954  10.619   6.512   3.096  0.0192 -0.0572  0.3512
   45MOL0     C 5955  10.583   6.554   2.952  0.0347  0.1638 -0.2923
   45MOL0     C 5956  10.547   6.704   2.931  0.1175 -0.3323  0.1790
   45MOL0     N 5957  10.668   6.783   2.896 -0.4623 -0.0273 -0.4145
   45MOL0     C 5958  10.757   6.838   2.985 -0.1778 -0.8416 -0.3668
   45MOL0     C 5959  10.839   6.910   2.903 -0.1758  0.4806 -0.9636
   45MOL0     C 5960  10.957   6.997   2.930  0.1076  0.4766  0.0509
   45MOL0     C 5961  11.074   6.964   2.840  0.8498 -0.2629  0.3746
   45MOL0     C 5962  11.206   7.029   2.904  0.3882  0.7326 -0.4010
   45MOL0     C 5963  11.224   7.176   2.876  0.4550 -0.7268 -0.2048
   45MOL0     O 5964  11.354   7.217   2.907 -0.3573  0.6033  0.0074
   45MOL0     C 5965  11.368   7.291   3.023 -0.9455 -0.5294  0.2632
   45MOL0     C 5966  11.456   7.398   3.011 -1.0623  0.0847 -0.0554
   45MOL0     C 5967  11.489   7.485   3.118 -0.9848 -0.7264  1.0937
   45MOL0     C 5968  11.419   7.466   3.241  0.2387 -0.3972 -0.0408
   45MOL0     C 5969  11.441   7.559   3.359 -0.4050 -0.2785  0.3946
   45MOL0     O 5970  11.559   7.630   3.372  0.3690  0.4427 -0.4773
   45MOL0     C 5971  11.576   7.684   3.495  0.0848  0.3300 -0.2909
   45MOL0     C 5972  11.536   7.814   3.499 -0.4975  0.8392 -0.3334
   45MOL0     C 5973  11.583   7.902   3.602 -1.0896  0.5466 -0.2451
   45MOL0     C 5974  11.659   7.846   3.713 -0.1312  0.0655  0.7747
   45MOL0     O 5975  11.689   7.926   3.821  0.5472  1.0089 -0.6752
   45MOL0     C 5976  11.823   7.915   3.883 -0.0070 -0.5563 -0.4079
   45MOL0     C 5977  11.916   8.014   3.824 -0.8160 -0.2842  0.5436
   45MOL0     C 5978  12.031   8.056   3.917  1.1944  0.6488  0.6744
   45MOL0     C 5979  12.129   7.940   3.924  0.2508 -0.5169  0.0616
   45MOL0     C 5980  12.207   7.894   3.797 -1.4785  0.1558  0.1825
   45MOL0     C 5981  12.326   7.799   3.825 -0.8454 -0.3398 -0.7913
   45MOL0     C 5982  12.443   7.864   3.909  1.2163  0.4556 -1.0027
   45MOL0     C 5983  12.546   7.760   3.939  0.4849  0.5320  1.5669
   45MOL0    Cl 5984  12.596   7.744   4.110 -0.5357 -0.2937  0.3848
   45MOL0     C 5985  11.690   7.708   3.705 -2.3699 -0.0566 -0.6091
   45MOL0     C 5986  11.657   7.633   3.591 -0.0377 -0.0261 -0.8129
   45MOL0     O 5987  11.353   7.554   3.448 -0.0053  0.2036 -0.6517
   45MOL0     C 5988  11.322   7.363   3.251 -0.2333  0.4594  0.7732
   45MOL0     C 5989  11.305   7.269   3.145 -0.7531 -1.0946  0.0644
   45MOL0     N 5990  10.799   6.891   2.773  0.2424 -0.4929  0.4182
   45MOL0     N 5991  10.690   6.816   2.768 -0.2135  0.7403 -0.7164
   45MOL0     C 5992  10.834   6.738   3.631 -0.7881 -0.6586 -0.8599
   45MOL0     C 5993  10.833   6.879   3.615 -0.9879 -0.4339  0.7668
   45MOL0     C 5994  10.932   7.287   3.429  0.7140  0.1923 -0.4447
   45MOL0     C 5995  10.962   7.320   3.555 -0.2611  0.3491 -0.9162
   45MOL0     C 5996  10.995   7.444   3.598 -0.5648 -0.6374 -0.1134
   45MOL0     C 5997  10.987   7.550   3.502  0.5123 -0.6890  0.2744
   45MOL0     O 5998  10.997   7.680   3.544 -0.6730  0.4610  0.5702
   45MOL0     C 5999  11.058   7.707   3.674 -0.8094  0.8959  0.1654
   45MOL0     C 6000  11.093   7.862   3.688 -0.2572  0.1241 -0.0340
   45MOL0     C 6001  11.195   7.906   3.580  0.6545  0.0277 -0.0816
   45MOL0     C 6002  11.251   8.045   3.602  0.3409 -0.5256  0.4018
   45MOL0     C 6003  11.326   8.086   3.485 -0.5053  0.4010 -0.0119
   45MOL0     C 6004  11.395   8.100   3.392  0.6812 -0.6358 -0.3094
   45MOL0     C 6005  10.946   7.521   3.366 -0.6180  0.8857  0.4056
   45MOL0     C 6006  10.926   7.392   3.325  0.0156  1.1038  0.1511
   45MOL0     C 6007  10.884   7.375   3.182  0.8285  0.5486  0.0395
   45MOL0     H 6008  10.981   6.882   3.302 -2.0973  1.7051  0.3230
   45MOL0     H 6009  11.005   6.631   3.353 -1.2787 -1.8655  0.2010
   45MOL0     H 6010  10.780   6.356   3.591 -0.5673 -0.0372  0.0594
   45MOL0     H 6011  10.760   6.483   3.711 -0.7674  1.1743  0.4262
   45MOL0     H 6012  10.627   6.598   3.518 -0.7866 -1.3320 -1.7496
   45MOL0     H 6013  10.565   6.436   3.563 -1.0664 -2.6934 -3.4527
   45MOL0     H 6014  10.646   6.327   3.366 -1.7024  0.4856 -1.8708
   45MOL0     H 6015  10.750   6.463   3.325  0.1409 -1.9140  0.0592
   45MOL0     H 6016  10.445   6.444   3.370 -0.9439  2.7403 -0.7351
   45MOL0     H 6017  10.531   6.595   3.309  0.3523  1.2814  0.5142
   45MOL0     H 6018  10.515   6.336   3.163 -0.4431 -1.1775  0.7300
   45MOL0     H 6019  10.411   6.485   3.152  0.1742  0.3220  0.6644
   45MOL0     H 6020  10.670   6.600   3.138 -1.1094  0.2205  1.1950
   45MOL0     H 6021  10.695   6.434   3.096  2.8719  2.4827 -1.2148
   45MOL0     H 6022  10.511   6.485   2.908  1.6459 -0.4526 -2.0975
   45MOL0     H 6023  10.674   6.526   2.897  1.7236  0.1160  2.3396
   45MOL0     H 6024  10.477   6.732   2.851  2.4787  1.9533 -1.2241
   45MOL0     H 6025  10.491   6.736   3.019 -1.3441 -1.7726 -0.1624
   45MOL0     H 6026  10.751   6.819   3.092  0.1283  1.0520  0.0306
   45MOL0     H 6027  10.927   7.102   2.919 -0.7750  0.3603  1.1397
   45MOL0     H 6028  11.000   6.983   3.030 -1.6906  1.4418  1.0231
   45MOL0     H 6029  11.072   6.855   2.852 -0.9007 -0.1450  1.5424
   45MOL0     H 6030  11.058   6.989   2.735 -3.0391 -1.8734  0.4430
   45MOL0     H 6031  11.295   6.987   2.858  0.6017  1.2325 -0.4547
   45MOL0     H 6032  11.214   6.999   3.009  1.6777 -0.3589 -0.7985
   45MOL0     H 6033  11.153   7.241   2.929  2.5610  0.1541  1.7471
   45MOL0     H 6034  11.212   7.197   2.770 -0.9310 -0.7478 -0.0711
   45MOL0     H 6035  11.506   7.420   2.917 -1.9284 -1.7341 -0.9934
   45MOL0     H 6036  11.562   7.564   3.102  0.4455 -2.1431  0.3421
   45MOL0     H 6037  11.473   7.855   3.421  0.0557  3.1897  0.3848
   45MOL0     H 6038  11.569   8.010   3.601 -4.2994  0.3018 -3.0954
   45MOL0     H 6039  11.798   7.946   3.985 -1.7961  0.3781 -1.0896
   45MOL0     H 6040  11.852   7.810   3.893 -1.4132 -0.9867 -0.6582
   45MOL0     H 6041  11.950   7.964   3.733 -0.9789 -1.5496  1.1521
   45MOL0     H 6042  11.858   8.101   3.793 -0.6143 -1.4616 -3.7847
   45MOL0     H 6043  12.080   8.150   3.892  1.9213 -0.1649 -1.1888
   45MOL0     H 6044  11.982   8.077   4.012 -1.2947  3.6364 -1.0963
   45MOL0     H 6045  12.080   7.856   3.972 -1.0318 -2.1593 -3.7526
   45MOL0     H 6046  12.198   7.971   4.003  0.3551 -2.0114  0.5857
   45MOL0     H 6047  12.234   7.983   3.740 -2.8574  0.8460  0.5684
   45MOL0     H 6048  12.136   7.834   3.739 -0.4455  0.5284 -1.5408
   45MOL0     H 6049  12.300   7.712   3.886 -1.6693  2.4067  3.2149
   45MOL0     H 6050  12.367   7.767   3.729 -1.9412  0.2889 -1.4962
   45MOL0     H 6051  12.405   7.910   4.001  0.7538  0.8696 -1.3982
   45MOL0     H 6052  12.489   7.943   3.848  1.9572  0.8670  0.0534
   45MOL0     H 6053  12.512   7.659   3.915 -1.3747  1.0816  1.7192
   45MOL0     H 6054  12.635   7.784   3.880 -0.1672  2.7082  1.3827
   45MOL0     H 6055  11.735   7.653   3.787 -5.3521 -2.0968 -0.1725
   45MOL0     H 6056  11.689   7.530   3.575  2.7860  0.5610  0.4634
   45MOL0     H 6057  11.269   7.348   3.344  0.2641 -2.5403  0.6518
   45MOL0     H 6058  11.232   7.189   3.148 -3.5532  1.1516 -2.3906
   45MOL0     H 6059  10.787   6.703   3.722  0.3183  0.1235  0.0405
   45MOL0     H 6060  10.785   6.951   3.680  2.6266  0.8581  2.2224
   45MOL0     H 6061  10.966   7.239   3.627  1.5042  0.2979 -1.0499
   45MOL0     H 6062  11.017   7.461   3.703 -0.6870 -0.2368 -0.1505
   45MOL0     H 6063  11.156   7.659   3.679  0.1863  2.5883 -1.6460
   45MOL0     H 6064  10.993   7.671   3.754  2.9784 -1.5822  2.4230
   45MOL0     H 6065  11.124   7.885   3.790  0.6696  0.3474 -0.3540
   45MOL0     H 6066  11.006   7.926   3.669 -0.9602 -1.2036 -1.5246
   45MOL0     H 6067  11.157   7.892   3.478 -1.7026 -2.1321  0.9633
   45MOL0     H 6068  11.272   7.828   3.587  0.9178  0.2738 -0.2400
   45MOL0     H 6069  11.166   8.111   3.620  0.9340  0.8875 -1.5865
   45MOL0     H 6070  11.317   8.039   3.690  0.2947 -1.9318  0.3665
   45MOL0     H 6071  11.462   8.125   3.312 -0.3764  0.1708 -0.9611
   45MOL0     H 6072  10.954   7.611   3.306  1.8703  1.1547  1.0185
   45MOL0     H 6073  10.977   7.342   3.137  1.6591 -2.4921  3.4849
   45MOL0     H 6074  10.815   7.294   3.156  0.0757  1.2215 -0.0911
   45MOL0     H 6075  10.854   7.470   3.137 -0.4302  1.0636  1.8355
   46MOL0     O 6076   7.826   2.644   9.248  0.5657 -1.0591 -0.8778
   46MOL0     C 6077   7.949   2.672   9.248 -0.1540  0.5656  0.5059
   46MOL0     O 6078   8.012   2.790   9.196 -0.1444 -0.1539  0.2534
   46MOL0     C 6079   7.939   2.891   9.143  0.3979 -0.9886 -0.8475
   46MOL0     C 6080   7.942   3.031   9.200  0.0525 -0.3408  0.3835
   46MOL0     C 6081   7.858   3.127   9.145  0.0375 -1.3396  0.4673
   46MOL0     C 6082   7.780   3.105   9.032 -0.2222 -1.0217  0.4725
   46MOL0     O 6083   7.710   3.207   8.971 -0.0235 -0.3858 -0.5670
   46MOL0     C 6084   7.669   3.331   9.027 -0.1858 -0.5803 -0.0805
   46MOL0     C 6085   7.554   3.337   9.123 -0.3621  0.7530  0.5749
   46MOL0     C 6086   7.445   3.230   9.073 -0.8768 -0.2294  0.6157
   46MOL0     C 6087   7.322   3.278   9.148 -0.6654  0.9336 -0.1105
   46MOL0     C 6088   7.239   3.149   9.160 -0.0637 -0.7297 -0.4487
   46MOL0     C 6089   7.109   3.174   9.249 -0.3731 -1.0655 -0.0354
   46MOL0     C 6090   7.006   3.276   9.191 -0.9552 -0.9881 -0.1049
   46MOL0     C 6091   6.917   3.319   9.312 -0.3321 -1.4494  0.1575
   46MOL0     N 6092   6.787   3.392   9.284  0.4800  1.1300 -0.2789
   46MOL0     C 6093   6.766   3.530   9.269  0.1688  0.1788  0.2584
   46MOL0     C 6094   6.634   3.554   9.224  0.9444  0.1874  0.4227
   46MOL0     C 6095   6.577   3.698   9.198 -0.6091  0.1671 -0.0654
   46MOL0     C 6096   6.464   3.686   9.091 -1.5130  0.4183  0.4333
   46MOL0     C 6097   6.512   3.692   8.941  0.1972 -0.9652 -0.7499
   46MOL0     C 6098   6.399   3.662   8.836  0.2360  0.1908 -0.7985
   46MOL0     O 6099   6.300   3.759   8.870  0.0643 -0.3588 -0.0543
   46MOL0     C 6100   6.210   3.788   8.775 -0.3193 -0.7124 -0.2594
   46MOL0     C 6101   6.144   3.910   8.772 -0.2138  0.3124  0.6832
   46MOL0     C 6102   6.039   3.938   8.684  0.3939  0.7806 -1.1451
   46MOL0     C 6103   6.013   3.842   8.590  0.6089  0.8412  0.6304
   46MOL0     C 6104   5.894   3.864   8.500  0.4179  0.1351 -0.4091
   46MOL0     O 6105   5.836   3.749   8.447  0.1523 -0.0940  0.2660
   46MOL0     C 6106   5.709   3.746   8.393  0.3536 -0.1579  0.3131
   46MOL0     C 6107   5.693   3.819   8.278  0.6239  0.5607  0.1513
   46MOL0     C 6108   5.575   3.820   8.204  0.2949 -0.7292 -0.3884
   46MOL0     C 6109   5.454   3.764   8.253  0.8713 -0.5074 -0.7890
   46MOL0     O 6110   5.337   3.752   8.174 -0.2658  0.0851 -0.0292
   46MOL0     C 6111   5.326   3.840   8.056 -0.1701  0.3788 -0.1360
   46MOL0     C 6112   5.180   3.813   7.998 -0.1504 -0.5256  0.5901
   46MOL0     C 6113   5.138   3.916   7.887 -0.2095  0.6099  0.3090
   46MOL0     C 6114   5.009   3.877   7.811  0.0763  0.4249  1.0963
   46MOL0     C 6115   4.973   3.964   7.689 -0.4124 -0.1426 -0.1414
   46MOL0     C 6116   5.104   3.985   7.600  0.8939 -0.0296  0.3682
   46MOL0     C 6117   5.080   4.057   7.467  0.8103 -0.1356  0.2088
   46MOL0     C 6118   5.002   3.986   7.357 -0.3728 -0.3653  0.2747
   46MOL0    Cl 6119   5.005   3.810   7.370 -0.3616 -0.2497  0.2521
   46MOL0     C 6120   5.470   3.694   8.371 -0.4696  0.9305 -0.7512
   46MOL0     C 6121   5.599   3.681   8.440 -0.5361  0.4795  0.1256
   46MOL0     O 6122   5.861   3.984   8.475  0.2714  0.0321  0.3415
   46MOL0     C 6123   6.074   3.717   8.592  0.3054 -0.5501 -0.1828
   46MOL0     C 6124   6.178   3.691   8.685 -0.3633  0.9588 -0.0407
   46MOL0     N 6125   6.584   3.427   9.195  0.1529  0.0587  0.2037
   46MOL0     N 6126   6.666   3.332   9.251 -0.0184 -0.3166  0.2845
   46MOL0     C 6127   7.771   2.983   8.977 -1.4204  0.3519  0.7995
   46MOL0     C 6128   7.848   2.877   9.033  0.5150  0.4643  0.0831
   46MOL0     C 6129   8.037   2.554   9.290 -0.4400 -0.7808  0.5794
   46MOL0     C 6130   8.177   2.563   9.257 -0.4462  0.6633 -0.6208
   46MOL0     C 6131   8.266   2.455   9.269  0.7135 -0.2838 -0.4268
   46MOL0     C 6132   8.218   2.332   9.319  0.0743 -0.3785  0.5501
   46MOL0     O 6133   8.307   2.235   9.333 -0.2049 -0.2818  0.4124
   46MOL0     C 6134   8.263   2.120   9.395 -0.2404  0.6071  0.1828
   46MOL0     C 6135   8.384   2.015   9.414  0.3109  0.4411  0.2451
   46MOL0     C 6136   8.357   1.895   9.504 -0.1586 -1.8454  0.3291
   46MOL0     C 6137   8.254   1.798   9.448  0.2046 -0.3958  0.2091
   46MOL0     C 6138   8.234   1.695   9.553 -0.4308 -0.1117 -0.4254
   46MOL0     C 6139   8.223   1.606   9.632 -0.2939  0.2378  1.1109
   46MOL0     C 6140   8.084   2.331   9.359 -0.0517 -0.2689 -0.3144
   46MOL0     C 6141   7.993   2.439   9.348  0.1728  0.4771 -0.6481
   46MOL0     C 6142   7.848   2.403   9.409  0.3596  0.5659  0.3357
   46MOL0     H 6143   8.001   3.068   9.284 -0.2206  0.9806  0.0187
   46MOL0     H 6144   7.878   3.228   9.179  0.9058 -0.9141 -1.2118
   46MOL0     H 6145   7.748   3.393   9.070 -2.2266  0.9700  1.7089
   46MOL0     H 6146   7.648   3.392   8.939  2.4266 -0.1817 -0.5028
   46MOL0     H 6147   7.512   3.437   9.108  4.4954  2.7748 -1.3809
   46MOL0     H 6148   7.594   3.317   9.223 -1.6850 -3.0454  0.5319
   46MOL0     H 6149   7.484   3.129   9.087  0.9962  0.3836  0.1878
   46MOL0     H 6150   7.434   3.239   8.965  0.5509  2.8051  0.6197
   46MOL0     H 6151   7.344   3.324   9.245  1.2807 -1.2299  0.5652
   46MOL0     H 6152   7.282   3.354   9.080  2.4473  1.3734 -1.6468
   46MOL0     H 6153   7.215   3.113   9.060  2.3837 -2.3686 -0.5325
   46MOL0     H 6154   7.296   3.073   9.217  1.3331  1.0904  0.7081
   46MOL0     H 6155   7.053   3.080   9.249 -2.6501  0.1852 -1.5528
   46MOL0     H 6156   7.147   3.203   9.347  0.1023  1.3983 -0.8758
   46MOL0     H 6157   6.949   3.237   9.106 -2.1695 -1.2398  0.7946
   46MOL0     H 6158   7.061   3.364   9.157 -0.3879 -1.1522  0.3747
   46MOL0     H 6159   6.899   3.227   9.369 -0.3558 -2.1217 -0.8921
   46MOL0     H 6160   6.977   3.384   9.376 -0.3229 -2.3246  1.0691
   46MOL0     H 6161   6.830   3.616   9.284  0.6448  0.0558 -0.9455
   46MOL0     H 6162   6.545   3.747   9.290  4.6733  0.5989  1.8944
   46MOL0     H 6163   6.666   3.755   9.169 -0.7192  0.2788 -0.1809
   46MOL0     H 6164   6.405   3.599   9.120 -1.3845  0.2442  0.1753
   46MOL0     H 6165   6.403   3.772   9.120  1.4957  2.1364  2.1806
   46MOL0     H 6166   6.603   3.634   8.919 -1.5020 -4.3186  0.3346
   46MOL0     H 6167   6.547   3.795   8.929 -1.6977 -0.0868  0.7775
   46MOL0     H 6168   6.359   3.564   8.861 -4.9658  2.4159  1.0322
   46MOL0     H 6169   6.435   3.671   8.733  1.4826 -0.6328 -0.4587
   46MOL0     H 6170   6.169   3.992   8.839  0.1373  1.4603 -0.8082
   46MOL0     H 6171   5.977   4.027   8.678 -1.0593 -0.2531 -2.0797
   46MOL0     H 6172   5.772   3.867   8.222  1.6232 -1.1321  0.0353
   46MOL0     H 6173   5.584   3.860   8.104 -0.8505  0.5331 -0.0256
   46MOL0     H 6174   5.322   3.944   8.088  3.8228 -0.0695  2.5823
   46MOL0     H 6175   5.409   3.821   7.986  1.9617  0.5217  2.1901
   46MOL0     H 6176   5.170   3.719   7.944 -0.9782  0.7242 -1.5524
   46MOL0     H 6177   5.100   3.818   8.071 -3.0775  0.0293 -2.4269
   46MOL0     H 6178   5.125   4.015   7.930  0.3378 -0.1652  2.4225
   46MOL0     H 6179   5.227   3.929   7.825  0.2372 -0.5770  0.6550
   46MOL0     H 6180   4.925   3.869   7.880 -0.0107  2.6178  1.3068
   46MOL0     H 6181   5.018   3.777   7.767 -2.7755  1.1053 -1.3707
   46MOL0     H 6182   4.943   4.063   7.725 -3.2002 -0.1774 -2.0572
   46MOL0     H 6183   4.889   3.923   7.631  0.6200  0.1602 -1.9337
   46MOL0     H 6184   5.179   4.041   7.655  2.2776 -0.0094 -1.4319
   46MOL0     H 6185   5.147   3.886   7.583  0.0415 -0.0796 -1.9523
   46MOL0     H 6186   5.180   4.083   7.432  1.1879 -1.1715  0.4906
   46MOL0     H 6187   5.028   4.152   7.480 -0.8638 -0.6987 -1.8341
   46MOL0     H 6188   4.900   4.020   7.376 -0.2618  2.3161 -3.0154
   46MOL0     H 6189   5.030   4.030   7.260 -0.3682  1.7051  1.1723
   46MOL0     H 6190   5.392   3.630   8.411 -0.2719  1.8754  1.2858
   46MOL0     H 6191   5.616   3.615   8.524 -1.4850 -0.8016 -0.6470
   46MOL0     H 6192   6.049   3.645   8.514  3.4505 -0.2299 -1.6061
   46MOL0     H 6193   6.218   3.590   8.682 -0.9872  0.6366  1.3529
   46MOL0     H 6194   7.718   2.958   8.886  0.1530 -0.1447 -0.0315
   46MOL0     H 6195   7.856   2.774   8.997 -2.6448  0.3320 -0.5465
   46MOL0     H 6196   8.217   2.660   9.230  0.2663  0.9302  1.2310
   46MOL0     H 6197   8.365   2.461   9.224  0.2130 -1.2311 -1.7181
   46MOL0     H 6198   8.173   2.082   9.347 -1.1994  2.9884 -0.0155
   46MOL0     H 6199   8.237   2.146   9.498 -4.7772  0.5829 -0.7389
   46MOL0     H 6200   8.469   2.066   9.460  0.6779 -2.2008  2.8264
   46MOL0     H 6201   8.406   1.967   9.318  0.7939 -1.1535  1.1112
   46MOL0     H 6202   8.310   1.934   9.596  0.5766  1.9058 -0.7122
   46MOL0     H 6203   8.450   1.845   9.532  2.4545  1.3942 -1.8386
   46MOL0     H 6204   8.161   1.845   9.414  0.6271  1.7056  1.7638
   46MOL0     H 6205   8.307   1.758   9.361 -0.9712  0.3638 -0.9018
   46MOL0     H 6206   8.220   1.525   9.702 -3.1737  0.1705  1.0510
   46MOL0     H 6207   8.043   2.245   9.411  0.0730  0.3020  0.7544
   46MOL0     H 6208   7.804   2.489   9.460  1.6714  1.2048  0.4402
   46MOL0     H 6209   7.775   2.391   9.328 -0.6106  2.8115  0.7791
   46MOL0     H 6210   7.848   2.320   9.480 -1.6201  0.3914  0.1726
   47MOL0     O 6211   6.206   4.454   2.804  0.0562  0.6557 -0.6072
   47MOL0     C 6212   6.120   4.517   2.749 -0.2382 -0.1739 -0.8562
   47MOL0     O 6213   6.047   4.478   2.638  0.8192 -0.2966  0.0245
   47MOL0     C 6214   6.053   4.351   2.598  0.7668  0.4459  0.6605
   47MOL0     C 6215   6.056   4.341   2.454  0.9597  0.6428  0.3762
   47MOL0     C 6216   6.049   4.218   2.390  0.3272  0.2103 -0.9178
   47MOL0     C 6217   6.045   4.099   2.469 -0.0337 -0.1803  0.0748
   47MOL0     O 6218   6.036   3.968   2.429 -0.1081 -0.8686  0.7198
   47MOL0     C 6219   6.129   3.920   2.326 -0.0289  0.3783  0.4421
   47MOL0     C 6220   6.170   3.770   2.356 -0.1206 -0.4034 -0.3374
   47MOL0     C 6221   6.257   3.776   2.486 -0.5602  0.3121  0.1161
   47MOL0     C 6222   6.347   3.647   2.498  0.5076 -0.1576 -1.2726
   47MOL0     C 6223   6.454   3.667   2.594 -0.1279 -0.8359 -0.4909
   47MOL0     C 6224   6.543   3.545   2.619  0.1027 -0.1218  0.9087
   47MOL0     C 6225   6.650   3.572   2.731 -0.1942  0.1214  0.1511
   47MOL0     C 6226   6.714   3.441   2.778  1.2086 -1.3485 -0.8883
   47MOL0     N 6227   6.824   3.400   2.697 -0.0755  0.3636  0.2869
   47MOL0     C 6228   6.897   3.458   2.597  0.4500 -0.2324 -0.4420
   47MOL0     C 6229   6.982   3.365   2.562 -0.7705  0.1057  0.1905
   47MOL0     C 6230   7.058   3.361   2.432 -0.5450  0.1327 -0.2388
   47MOL0     C 6231   7.211   3.388   2.455 -0.4793 -0.1187 -0.0796
   47MOL0     C 6232   7.289   3.267   2.509 -0.3265 -0.6436  1.0800
   47MOL0     C 6233   7.257   3.152   2.423 -0.7573  0.2309 -0.6692
   47MOL0     O 6234   7.348   3.054   2.462 -1.0227 -0.1161  0.0585
   47MOL0     C 6235   7.468   3.047   2.392 -0.0506 -1.0560  1.0559
   47MOL0     C 6236   7.503   3.111   2.276 -0.3397  0.4422  0.4850
   47MOL0     C 6237   7.631   3.115   2.237 -1.1404 -0.4600  0.4135
   47MOL0     C 6238   7.726   3.027   2.284 -0.0318 -0.0051 -0.1309
   47MOL0     C 6239   7.850   3.012   2.219 -1.0294 -0.1574 -0.1723
   47MOL0     O 6240   7.932   2.919   2.268  0.6055  0.6017  0.5302
   47MOL0     C 6241   8.060   2.949   2.254  0.2315  0.4107 -0.3026
   47MOL0     C 6242   8.131   2.915   2.139  0.3705 -0.5592 -1.0245
   47MOL0     C 6243   8.264   2.943   2.136  0.5365 -0.2487  0.6593
   47MOL0     C 6244   8.326   3.016   2.228 -0.9287 -0.4021  0.2003
   47MOL0     O 6245   8.454   3.065   2.202  0.3433  0.0590  0.0443
   47MOL0     C 6246   8.558   3.001   2.280 -0.1219 -0.6049 -0.3479
   47MOL0     C 6247   8.697   3.024   2.208  0.2234 -0.4576 -0.5557
   47MOL0     C 6248   8.821   3.016   2.297 -0.0802  0.0503 -0.3498
   47MOL0     C 6249   8.814   3.120   2.411 -0.2496  0.2305  0.4016
   47MOL0     C 6250   8.939   3.089   2.497  0.2937 -0.2866 -0.0659
   47MOL0     C 6251   8.962   3.213   2.571 -0.6449  0.3278  0.1542
   47MOL0     C 6252   9.038   3.185   2.706  0.1569 -0.2664 -0.2253
   47MOL0     C 6253   9.153   3.075   2.698  1.1115  0.7125  0.3646
   47MOL0    Cl 6254   9.224   3.040   2.849  0.0299 -0.2379 -0.5239
   47MOL0     C 6255   8.268   3.041   2.351  0.0384 -0.1635 -0.1230
   47MOL0     C 6256   8.131   3.005   2.362 -1.8597  0.0995  0.4040
   47MOL0     O 6257   7.867   3.077   2.117  0.4168 -0.0383  0.1659
   47MOL0     C 6258   7.695   2.955   2.406 -0.0230  0.0173 -0.0074
   47MOL0     C 6259   7.568   2.965   2.451 -0.1411 -0.2705 -0.3681
   47MOL0     N 6260   6.962   3.249   2.641 -0.3593 -0.3400  0.4454
   47MOL0     N 6261   6.872   3.271   2.729 -0.1194 -0.1709 -0.7493
   47MOL0     C 6262   6.054   4.112   2.607  0.5538  0.0097  0.3070
   47MOL0     C 6263   6.064   4.236   2.673 -0.3910  1.4827  0.1416
   47MOL0     C 6264   6.087   4.663   2.777 -0.6882  0.2950  0.7228
   47MOL0     C 6265   5.977   4.724   2.712  0.2236 -0.6695  0.3261
   47MOL0     C 6266   5.956   4.867   2.723  0.4655 -0.0993  0.9812
   47MOL0     C 6267   6.028   4.943   2.805 -0.0018  0.3718 -0.9629
   47MOL0     O 6268   5.989   5.079   2.808  0.6778 -0.4716 -0.2061
   47MOL0     C 6269   6.039   5.176   2.914  0.7365  0.6947 -0.0732
   47MOL0     C 6270   6.006   5.317   2.850 -0.7027 -0.3586 -0.2197
   47MOL0     C 6271   6.098   5.363   2.739 -0.0818  0.0147 -0.0282
   47MOL0     C 6272   6.065   5.302   2.596 -0.0158 -0.0880  0.6430
   47MOL0     C 6273   5.942   5.347   2.533 -0.3716 -0.0338 -0.0286
   47MOL0     C 6274   5.857   5.408   2.477  0.4514 -1.0731 -0.0846
   47MOL0     C 6275   6.131   4.887   2.870 -0.6360 -0.1122  0.3333
   47MOL0     C 6276   6.172   4.753   2.849 -0.5954 -1.3013 -0.6305
   47MOL0     C 6277   6.280   4.710   2.940 -0.4119  0.7810 -0.4909
   47MOL0     H 6278   6.046   4.431   2.394  2.0486  0.3087 -0.3205
   47MOL0     H 6279   6.036   4.210   2.283 -0.9987 -0.9462 -0.7045
   47MOL0     H 6280   6.064   3.919   2.238 -1.1027  1.4300  1.1941
   47MOL0     H 6281   6.211   3.992   2.334  1.3771 -1.2474  1.5663
   47MOL0     H 6282   6.237   3.741   2.275  0.4822  2.6664 -1.0588
   47MOL0     H 6283   6.076   3.713   2.359 -1.6749  1.9980 -0.2546
   47MOL0     H 6284   6.196   3.785   2.577  0.9083  2.1917  0.9987
   47MOL0     H 6285   6.313   3.870   2.484 -1.7597  1.0343 -1.9516
   47MOL0     H 6286   6.287   3.564   2.539 -2.7628  1.3665 -2.5726
   47MOL0     H 6287   6.383   3.613   2.401  1.6188  0.3916 -1.0624
   47MOL0     H 6288   6.504   3.758   2.558  0.1274 -1.8422 -2.8923
   47MOL0     H 6289   6.419   3.693   2.694  0.1830  2.2155 -1.0492
   47MOL0     H 6290   6.472   3.470   2.654 -0.5169  0.1132  0.1694
   47MOL0     H 6291   6.587   3.510   2.525 -3.2441 -0.0560 -0.8476
   47MOL0     H 6292   6.599   3.621   2.814  2.1935  3.7657 -0.3032
   47MOL0     H 6293   6.725   3.648   2.705 -0.2503 -0.1633 -0.8758
   47MOL0     H 6294   6.745   3.448   2.882 -1.2699  1.8423 -0.1975
   47MOL0     H 6295   6.628   3.375   2.769 -2.4654  2.5827  1.4869
   47MOL0     H 6296   6.875   3.554   2.550  1.3881  3.1780  5.1437
   47MOL0     H 6297   7.043   3.277   2.363  2.7418 -1.7767  1.1401
   47MOL0     H 6298   7.006   3.443   2.382 -2.1003 -0.8064 -0.2125
   47MOL0     H 6299   7.253   3.412   2.357  1.2772  2.3442  1.1803
   47MOL0     H 6300   7.212   3.471   2.526 -4.1827  1.0217 -1.0963
   47MOL0     H 6301   7.252   3.250   2.611  1.4247 -1.6565  1.5751
   47MOL0     H 6302   7.396   3.278   2.525 -0.0980 -3.0230  1.6408
   47MOL0     H 6303   7.258   3.183   2.318  1.1335 -0.2012 -0.8138
   47MOL0     H 6304   7.166   3.094   2.442  1.7498 -2.8475  3.5968
   47MOL0     H 6305   7.433   3.169   2.217  0.9608 -1.0201 -2.7507
   47MOL0     H 6306   7.666   3.179   2.157  1.8357 -2.8914 -0.4190
   47MOL0     H 6307   8.079   2.862   2.060 -1.2799 -0.1199 -0.2923
   47MOL0     H 6308   8.323   2.912   2.050 -1.1089 -3.0648  0.4317
   47MOL0     H 6309   8.547   3.043   2.380  0.2467 -1.4734  0.0670
   47MOL0     H 6310   8.534   2.896   2.301 -1.6694  0.0387  1.3514
   47MOL0     H 6311   8.710   2.952   2.127 -3.2000 -2.1646  0.2102
   47MOL0     H 6312   8.697   3.118   2.152 -1.9199 -0.5380 -0.7539
   47MOL0     H 6313   8.842   2.913   2.329  2.4095 -0.1431 -2.3585
   47MOL0     H 6314   8.893   3.041   2.220  0.7909 -1.5225 -0.0868
   47MOL0     H 6315   8.730   3.113   2.481  0.7450 -1.2591  1.4886
   47MOL0     H 6316   8.816   3.220   2.365  0.3653 -0.8948 -2.1498
   47MOL0     H 6317   9.026   3.056   2.439  0.1670 -3.3991  1.3560
   47MOL0     H 6318   8.903   3.012   2.565 -1.0292  2.3536  2.4825
   47MOL0     H 6319   9.020   3.283   2.511  0.8346 -1.9222 -1.1854
   47MOL0     H 6320   8.866   3.249   2.609 -1.2641 -1.2887  0.1895
   47MOL0     H 6321   8.957   3.146   2.768 -1.9927 -3.7374 -4.6060
   47MOL0     H 6322   9.071   3.280   2.749 -0.8632  0.7079 -1.4931
   47MOL0     H 6323   9.101   2.986   2.662 -3.1442  2.4594  1.4990
   47MOL0     H 6324   9.238   3.102   2.635  0.3174 -3.6385 -3.0439
   47MOL0     H 6325   8.311   3.096   2.435  1.9954 -2.1051  0.2377
   47MOL0     H 6326   8.078   3.035   2.452  1.2149 -1.4748  2.9266
   47MOL0     H 6327   7.761   2.883   2.452 -0.1937  1.0694  1.9932
   47MOL0     H 6328   7.538   2.897   2.530 -0.7562  0.1896 -0.1998
   47MOL0     H 6329   6.068   4.016   2.655 -0.2278 -1.3968 -2.1596
   47MOL0     H 6330   6.074   4.220   2.780  1.9458 -2.3691 -0.4833
   47MOL0     H 6331   5.908   4.670   2.648  1.5863 -2.8369  0.5939
   47MOL0     H 6332   5.892   4.919   2.652  2.0111  1.9714  0.9722
   47MOL0     H 6333   6.139   5.154   2.953 -0.9093 -1.0949  3.5681
   47MOL0     H 6334   5.969   5.170   2.997 -4.0979  0.2927 -3.7367
   47MOL0     H 6335   6.022   5.388   2.932 -0.0811 -2.5714  1.6789
   47MOL0     H 6336   5.902   5.317   2.817  0.3860 -0.5710 -4.1472
   47MOL0     H 6337   6.204   5.343   2.756 -0.4321 -0.1013  2.3697
   47MOL0     H 6338   6.099   5.473   2.731  1.1903 -0.0255 -0.4972
   47MOL0     H 6339   6.152   5.324   2.534  0.5168 -2.4455  0.4545
   47MOL0     H 6340   6.050   5.193   2.602 -2.2994  0.1711  0.6127
   47MOL0     H 6341   5.776   5.458   2.430 -0.3952 -1.2148  1.1713
   47MOL0     H 6342   6.185   4.945   2.944  2.3432  1.6405 -2.8982
   47MOL0     H 6343   6.338   4.795   2.975 -2.8521  2.3487 -0.0241
   47MOL0     H 6344   6.258   4.643   3.024  2.3622 -0.4866 -0.6735
   47MOL0     H 6345   6.339   4.650   2.870 -0.3721 -0.3635  0.4933
   48MOL0     O 6346   3.254   0.714   7.387  0.2323 -0.4687  0.0220
   48MOL0     C 6347   3.288   0.768   7.489 -1.5093  0.3560  0.3135
   48MOL0     O 6348   3.240   0.881   7.539  0.0807  0.6003 -0.3960
   48MOL0     C 6349   3.116   0.911   7.495 -0.1196 -0.3826 -0.7953
   48MOL0     C 6350   3.101   1.040   7.433  0.1811 -0.3162  1.1081
   48MOL0     C 6351   2.987   1.074   7.369  0.2976 -1.1030 -0.6865
   48MOL0     C 6352   2.868   0.987   7.376  0.3607 -0.3961 -0.2292
   48MOL0     O 6353   2.748   1.002   7.311 -0.0226 -0.0118 -0.4797
   48MOL0     C 6354   2.762   1.072   7.187 -0.8639  0.4973 -0.1850
   48MOL0     C 6355   2.627   1.115   7.124 -0.1025 -0.2419  0.6896
   48MOL0     C 6356   2.509   1.027   7.161  0.2484 -0.3154 -0.0970
   48MOL0     C 6357   2.532   0.884   7.124 -0.4476 -0.4394  1.2098
   48MOL0     C 6358   2.403   0.818   7.077 -0.6029 -0.5353  0.3166
   48MOL0     C 6359   2.317   0.784   7.204  1.9716 -0.3025  0.7524
   48MOL0     C 6360   2.333   0.641   7.255 -0.0847 -0.2350  0.2811
   48MOL0     C 6361   2.218   0.610   7.350  0.1594  0.9308 -0.1181
   48MOL0     N 6362   2.086   0.615   7.293  0.5552  1.0136 -1.3025
   48MOL0     C 6363   2.045   0.571   7.172  0.1251 -0.5404  0.1732
   48MOL0     C 6364   1.933   0.637   7.144  0.0922 -0.5872 -0.0517
   48MOL0     C 6365   1.865   0.623   7.016  0.5481 -0.5440  0.4590
   48MOL0     C 6366   1.862   0.755   6.928 -0.2758  0.4286 -0.3431
   48MOL0     C 6367   2.010   0.806   6.907 -0.2515  0.4211  0.0894
   48MOL0     C 6368   2.000   0.953   6.868 -0.8673 -0.1466  0.2410
   48MOL0     O 6369   2.132   1.013   6.884 -0.4121 -0.5049 -0.0877
   48MOL0     C 6370   2.148   1.153   6.880  0.1012  0.1899 -0.1374
   48MOL0     C 6371   2.273   1.214   6.920  0.3118 -0.4256 -0.8521
   48MOL0     C 6372   2.280   1.354   6.924  0.5901  0.8519  0.3010
   48MOL0     C 6373   2.170   1.443   6.909 -0.6932  0.4388  0.6176
   48MOL0     C 6374   2.196   1.592   6.913 -0.1652  0.1447  0.9902
   48MOL0     O 6375   2.310   1.646   6.950  0.0774  0.4513 -0.6804
   48MOL0     C 6376   2.326   1.783   6.955 -0.1985  0.3406 -0.0342
   48MOL0     C 6377   2.406   1.836   6.851 -0.4282  0.4045  1.2973
   48MOL0     C 6378   2.434   1.973   6.853  0.3165 -0.3777  0.0118
   48MOL0     C 6379   2.380   2.058   6.952 -0.4977  0.5846 -0.0957
   48MOL0     O 6380   2.418   2.193   6.962  1.0116  0.1824 -0.4289
   48MOL0     C 6381   2.512   2.252   6.874 -0.3270 -0.0055  0.3911
   48MOL0     C 6382   2.580   2.384   6.911  0.6224  0.7458  0.6496
   48MOL0     C 6383   2.716   2.359   6.985 -0.1977 -0.0887 -0.9218
   48MOL0     C 6384   2.765   2.476   7.075 -1.1479 -0.4909  0.2790
   48MOL0     C 6385   2.807   2.604   6.992 -0.2382  0.2264 -0.4221
   48MOL0     C 6386   2.806   2.742   7.056 -0.1705 -1.8785  0.8304
   48MOL0     C 6387   2.835   2.862   6.959 -0.4643  0.2011 -0.3470
   48MOL0     C 6388   2.797   3.002   7.011 -0.2020  0.1933  0.2011
   48MOL0    Cl 6389   2.930   3.042   7.135  0.0565  0.5961 -0.0765
   48MOL0     C 6390   2.307   2.004   7.055 -0.7030  0.0588  0.5254
   48MOL0     C 6391   2.277   1.867   7.062 -0.8517 -0.3302  0.1560
   48MOL0     O 6392   2.095   1.660   6.882  0.2052 -0.4412 -0.3594
   48MOL0     C 6393   2.052   1.379   6.890 -0.3770 -0.9752 -0.4839
   48MOL0     C 6394   2.038   1.242   6.877  0.3963  0.4932 -0.9977
   48MOL0     N 6395   1.898   0.717   7.250  0.7147  0.7299  0.2132
   48MOL0     N 6396   1.981   0.694   7.344  0.4518 -0.1150  0.0903
   48MOL0     C 6397   2.887   0.855   7.422 -0.7223  0.0023  0.0338
   48MOL0     C 6398   3.005   0.821   7.501 -0.7527 -0.7257 -0.4070
   48MOL0     C 6399   3.387   0.700   7.572 -0.1173 -0.7300 -0.4630
   48MOL0     C 6400   3.342   0.587   7.637 -1.1982  0.3449  0.5629
   48MOL0     C 6401   3.431   0.528   7.730 -0.7075  0.1740  0.7811
   48MOL0     C 6402   3.569   0.576   7.737 -0.7209 -0.4114  0.7938
   48MOL0     O 6403   3.671   0.518   7.808  0.1283  0.6127  0.5426
   48MOL0     C 6404   3.639   0.409   7.897 -0.7631 -0.1118  0.6738
   48MOL0     C 6405   3.640   0.280   7.835  0.0444 -0.7790 -0.0375
   48MOL0     C 6406   3.776   0.259   7.764  0.0723  0.2966 -0.5936
   48MOL0     C 6407   3.782   0.116   7.726 -0.9740  0.4463 -0.9528
   48MOL0     C 6408   3.697   0.078   7.618  0.8743  1.1469 -0.7684
   48MOL0     C 6409   3.622   0.048   7.523 -0.0843  0.6493  0.6778
   48MOL0     C 6410   3.614   0.678   7.654  1.0713 -0.2531 -0.4103
   48MOL0     C 6411   3.524   0.747   7.576  0.5956  0.3288 -0.4168
   48MOL0     C 6412   3.571   0.864   7.497  0.7912 -1.0001 -0.6467
   48MOL0     H 6413   3.187   1.105   7.428  0.6828 -1.0131 -4.0893
   48MOL0     H 6414   2.982   1.166   7.312 -0.8567 -1.0923 -0.5897
   48MOL0     H 6415   2.840   1.149   7.181  0.2373 -0.6412 -0.7126
   48MOL0     H 6416   2.798   0.993   7.121 -0.4705  3.4507 -3.8197
   48MOL0     H 6417   2.638   1.127   7.016  0.9502  2.2947  1.0110
   48MOL0     H 6418   2.586   1.205   7.173  0.7224 -0.5391  1.9764
   48MOL0     H 6419   2.409   1.064   7.137  0.5046 -1.3419 -3.2299
   48MOL0     H 6420   2.511   1.050   7.268  1.9245  0.3801 -0.2446
   48MOL0     H 6421   2.601   0.878   7.039  1.3001 -2.7980  2.6556
   48MOL0     H 6422   2.578   0.829   7.207 -2.7838 -3.6587  0.5660
   48MOL0     H 6423   2.341   0.877   7.009 -0.4350 -1.4838 -0.6818
   48MOL0     H 6424   2.420   0.725   7.022 -0.0004  1.5225 -3.2868
   48MOL0     H 6425   2.334   0.850   7.290 -2.2319 -1.5481  2.8274
   48MOL0     H 6426   2.213   0.794   7.169  1.7142 -2.4060  0.8256
   48MOL0     H 6427   2.423   0.629   7.317 -0.3513  1.3631  1.0440
   48MOL0     H 6428   2.340   0.570   7.172 -0.6059 -0.6696  0.6025
   48MOL0     H 6429   2.235   0.505   7.378 -0.9187 -0.3075 -3.5786
   48MOL0     H 6430   2.220   0.670   7.441  0.8102 -0.4246  0.8082
   48MOL0     H 6431   2.099   0.508   7.102  2.9748  3.3231 -1.5155
   48MOL0     H 6432   1.905   0.536   6.961 -0.7442 -0.7189 -0.2556
   48MOL0     H 6433   1.761   0.598   7.040 -0.5634  1.1207 -2.1234
   48MOL0     H 6434   1.836   0.721   6.827  4.1180 -2.0016 -0.9204
   48MOL0     H 6435   1.800   0.829   6.979 -1.2160 -0.3457 -0.3284
   48MOL0     H 6436   2.055   0.747   6.827 -1.4261 -1.5671  0.8188
   48MOL0     H 6437   2.085   0.787   6.984  4.3341 -0.3022 -4.0683
   48MOL0     H 6438   1.931   0.993   6.943 -2.9714  1.6070 -2.4559
   48MOL0     H 6439   1.967   0.975   6.766  2.8985  1.7992 -0.7613
   48MOL0     H 6440   2.359   1.147   6.923  1.1063  0.5493 -1.2287
   48MOL0     H 6441   2.381   1.393   6.934  0.3870  0.8728  3.4603
   48MOL0     H 6442   2.462   1.780   6.777  1.2348  0.1431  2.7014
   48MOL0     H 6443   2.510   2.014   6.787 -0.2632 -0.5821 -0.8021
   48MOL0     H 6444   2.595   2.181   6.869  0.4474  0.9358 -0.4780
   48MOL0     H 6445   2.465   2.263   6.776  0.6485 -1.1716 -0.2331
   48MOL0     H 6446   2.602   2.431   6.815 -1.5761 -2.2627 -1.5371
   48MOL0     H 6447   2.500   2.439   6.960 -2.2294 -3.0700  0.7319
   48MOL0     H 6448   2.709   2.267   7.043  1.7589  0.2453 -0.0653
   48MOL0     H 6449   2.789   2.342   6.905 -0.5082  0.3644 -1.3067
   48MOL0     H 6450   2.832   2.440   7.153 -1.6686  3.9150  3.1313
   48MOL0     H 6451   2.672   2.507   7.124 -0.8619  0.4386  0.2671
   48MOL0     H 6452   2.730   2.618   6.915 -1.7019  0.7221  1.0720
   48MOL0     H 6453   2.909   2.589   6.955  0.0175 -1.7074  0.9130
   48MOL0     H 6454   2.714   2.761   7.112  0.9267 -1.0949  2.4442
   48MOL0     H 6455   2.884   2.745   7.133  0.7968  1.4197 -0.1292
   48MOL0     H 6456   2.788   2.837   6.863 -1.7263 -1.7672  0.7065
   48MOL0     H 6457   2.942   2.849   6.944 -0.1002 -2.1410  3.1813
   48MOL0     H 6458   2.790   3.083   6.938  2.1627  2.8560  2.6136
   48MOL0     H 6459   2.702   3.008   7.065 -0.6763  1.4954 -0.7209
   48MOL0     H 6460   2.265   2.056   7.141 -0.2379  2.4114 -0.6016
   48MOL0     H 6461   2.226   1.814   7.141  1.8883 -2.5615  0.5657
   48MOL0     H 6462   1.966   1.446   6.899  2.8874  4.1288 -2.6372
   48MOL0     H 6463   1.936   1.209   6.863 -0.2529  2.2434 -0.6612
   48MOL0     H 6464   2.800   0.790   7.416  1.3646 -2.9610  0.0986
   48MOL0     H 6465   3.013   0.731   7.561  0.0232  0.4402  1.3081
   48MOL0     H 6466   3.241   0.549   7.631 -0.4741 -2.0984  2.0674
   48MOL0     H 6467   3.392   0.448   7.793 -1.3745  0.9811  1.4147
   48MOL0     H 6468   3.548   0.427   7.957 -0.7368 -4.3769  2.3681
   48MOL0     H 6469   3.715   0.403   7.975 -0.5582  1.1611  0.5863
   48MOL0     H 6470   3.557   0.262   7.767  0.3498 -0.5477 -0.4793
   48MOL0     H 6471   3.625   0.212   7.919 -1.5919  1.7936  1.9024
   48MOL0     H 6472   3.864   0.284   7.823 -1.7769 -1.3650  3.1790
   48MOL0     H 6473   3.780   0.326   7.678 -3.2236  0.8210 -0.4830
   48MOL0     H 6474   3.882   0.077   7.704  0.0035  1.2164  1.8524
   48MOL0     H 6475   3.755   0.060   7.816 -1.3257 -1.0918 -1.9725
   48MOL0     H 6476   3.555   0.025   7.442  0.2042  1.0600  0.3183
   48MOL0     H 6477   3.716   0.714   7.662 -0.1151  3.1523  1.2686
   48MOL0     H 6478   3.678   0.885   7.495  0.7240 -0.1919  1.5645
   48MOL0     H 6479   3.538   0.850   7.393 -2.9983 -1.7775  0.4895
   48MOL0     H 6480   3.520   0.949   7.543 -1.3156 -3.8003  2.7380
   49MOL0     O 6481  10.965   5.081   5.316  0.4835 -0.2772 -0.0810
   49MOL0     C 6482  11.041   5.120   5.407 -0.6543 -1.0688 -0.5439
   49MOL0     O 6483  11.075   5.058   5.522  0.4758 -0.1154 -0.4262
   49MOL0     C 6484  10.998   4.943   5.552  0.3290 -0.2829  0.8907
   49MOL0     C 6485  10.893   4.946   5.644  0.3195  0.0973  1.1638
   49MOL0     C 6486  10.837   4.820   5.677 -0.0955  0.1249 -1.3164
   49MOL0     C 6487  10.863   4.701   5.620 -0.4497 -0.0535  0.0914
   49MOL0     O 6488  10.812   4.572   5.656  0.4748  1.0801  0.3553
   49MOL0     C 6489  10.732   4.564   5.786 -0.0662  0.1019 -0.5360
   49MOL0     C 6490  10.586   4.595   5.778  0.1913 -0.1229  0.0804
   49MOL0     C 6491  10.496   4.516   5.690 -0.2180 -0.4867 -0.3928
   49MOL0     C 6492  10.465   4.583   5.558 -0.3389  0.4817  0.6052
   49MOL0     C 6493  10.383   4.494   5.457 -0.6184 -0.5529 -0.5698
   49MOL0     C 6494  10.237   4.480   5.495  0.0033 -0.2252  0.9845
   49MOL0     C 6495  10.154   4.605   5.520  0.3638  0.1360 -0.2849
   49MOL0     C 6496  10.143   4.682   5.383 -0.7860  0.5764 -0.9879
   49MOL0     N 6497  10.044   4.616   5.296  0.4578 -0.4588 -0.4410
   49MOL0     C 6498  10.079   4.556   5.183 -0.6731  0.7149 -0.3244
   49MOL0     C 6499   9.967   4.516   5.118 -0.4398 -1.0821  0.1714
   49MOL0     C 6500   9.968   4.449   4.985 -0.7817 -0.0145 -0.6345
   49MOL0     C 6501   9.929   4.306   5.018 -0.9216  0.7706 -0.2991
   49MOL0     C 6502   9.977   4.205   4.915  0.2780 -0.3949  0.1127
   49MOL0     C 6503   9.910   4.217   4.784 -0.0429  0.2641 -0.4227
   49MOL0     O 6504  10.002   4.171   4.684 -0.5727  1.2394 -0.1593
   49MOL0     C 6505   9.988   4.201   4.553 -0.1823  0.2514  0.2901
   49MOL0     C 6506   9.860   4.224   4.493 -0.5839 -0.5799  0.2620
   49MOL0     C 6507   9.850   4.243   4.356  0.1163 -1.5644 -0.5053
   49MOL0     C 6508   9.965   4.254   4.275  0.3826  0.3082 -0.4889
   49MOL0     C 6509   9.949   4.268   4.134  0.5107 -0.1021 -1.0134
   49MOL0     O 6510   9.830   4.222   4.070  0.3090  0.0838 -0.4088
   49MOL0     C 6511   9.826   4.259   3.935  0.7654  1.0705 -0.1451
   49MOL0     C 6512   9.754   4.374   3.890  0.1696 -0.2676  0.0458
   49MOL0     C 6513   9.754   4.408   3.754  0.0767 -0.6182  0.9771
   49MOL0     C 6514   9.814   4.330   3.662 -0.2492  0.1580  0.1983
   49MOL0     O 6515   9.815   4.381   3.533 -0.3425  0.0190 -0.4593
   49MOL0     C 6516   9.939   4.398   3.470 -0.6539  0.1448  0.2669
   49MOL0     C 6517   9.937   4.509   3.367  0.1487 -0.4643  0.0592
   49MOL0     C 6518  10.056   4.531   3.281  0.0786  0.7064  0.5955
   49MOL0     C 6519  10.024   4.590   3.136 -0.3957 -0.0134 -0.0129
   49MOL0     C 6520  10.154   4.616   3.054 -0.1318 -0.4800  0.5549
   49MOL0     C 6521  10.120   4.661   2.918  0.9047 -0.7700  1.3017
   49MOL0     C 6522  10.092   4.808   2.898  0.3604 -0.7445  0.1000
   49MOL0     C 6523  10.032   4.863   2.767  0.6470 -0.6542 -0.1380
   49MOL0    Cl 6524   9.875   4.773   2.751  0.1866 -0.0061  0.2410
   49MOL0     C 6525   9.871   4.206   3.703 -0.3834  0.5642 -0.4978
   49MOL0     C 6526   9.885   4.170   3.842 -0.7069 -0.1045  0.3655
   49MOL0     O 6527  10.054   4.312   4.086  0.0459  0.8867  0.2820
   49MOL0     C 6528  10.083   4.237   4.332 -0.0061 -0.9223  0.1377
   49MOL0     C 6529  10.100   4.206   4.469 -0.0359 -0.1212  0.5184
   49MOL0     N 6530   9.863   4.568   5.199 -0.0386 -0.5971  0.7237
   49MOL0     N 6531   9.907   4.625   5.304  0.3873 -0.1968  0.5113
   49MOL0     C 6532  10.959   4.708   5.515  0.7965 -0.4760  0.3275
   49MOL0     C 6533  11.030   4.820   5.488 -0.0062 -0.2330  0.5174
   49MOL0     C 6534  11.115   5.243   5.372  0.2123  0.8229  0.4614
   49MOL0     C 6535  11.160   5.254   5.240  0.7975  0.0235 -0.4442
   49MOL0     C 6536  11.243   5.364   5.210 -1.1618  0.3189  0.7180
   49MOL0     C 6537  11.281   5.456   5.305 -0.0109 -0.0539 -0.8118
   49MOL0     O 6538  11.372   5.554   5.267 -0.7695  0.7524  0.1724
   49MOL0     C 6539  11.371   5.680   5.335 -0.7366  0.3904  0.2348
   49MOL0     C 6540  11.388   5.797   5.235  0.2708  0.0441  0.5757
   49MOL0     C 6541  11.277   5.795   5.123 -0.4802 -0.0388  0.8018
   49MOL0     C 6542  11.263   5.936   5.062 -0.1219 -0.3296 -0.1191
   49MOL0     C 6543  11.378   5.963   4.976 -0.1388  0.3712 -0.1625
   49MOL0     C 6544  11.475   5.972   4.910 -0.2776 -0.3085 -0.3953
   49MOL0     C 6545  11.235   5.445   5.439  0.1251 -1.0179 -0.2684
   49MOL0     C 6546  11.147   5.343   5.473  0.3521  0.0113  0.0716
   49MOL0     C 6547  11.092   5.336   5.608  0.3293 -0.6275 -0.3231
   49MOL0     H 6548  10.866   5.036   5.697  3.0016  1.9587 -0.3873
   49MOL0     H 6549  10.762   4.819   5.756  0.8525  0.7228 -0.3872
   49MOL0     H 6550  10.739   4.467   5.836 -1.7195  1.3629  2.3950
   49MOL0     H 6551  10.779   4.629   5.860 -2.4725  1.5629 -0.2230
   49MOL0     H 6552  10.565   4.702   5.771 -2.4936 -0.4452  1.8212
   49MOL0     H 6553  10.553   4.582   5.882 -1.5524  1.4473 -0.2279
   49MOL0     H 6554  10.397   4.512   5.737 -0.4441  1.1119 -0.6510
   49MOL0     H 6555  10.530   4.414   5.673  1.1108  0.0810 -1.2825
   49MOL0     H 6556  10.413   4.676   5.584 -2.4420 -0.8298  1.3536
   49MOL0     H 6557  10.559   4.598   5.504 -1.8726  0.0014 -2.3852
   49MOL0     H 6558  10.399   4.529   5.355 -1.4222  1.2078 -0.1311
   49MOL0     H 6559  10.417   4.390   5.465 -1.0526 -0.5636  4.2825
   49MOL0     H 6560  10.179   4.421   5.423  0.2592  0.7731 -0.0722
   49MOL0     H 6561  10.236   4.430   5.593 -0.4366  2.0358  2.1955
   49MOL0     H 6562  10.202   4.682   5.582 -0.3442 -0.6711  1.3116
   49MOL0     H 6563  10.059   4.577   5.566  0.8260  1.7717  1.8715
   49MOL0     H 6564  10.120   4.788   5.397 -0.9054  0.4493 -0.1935
   49MOL0     H 6565  10.240   4.684   5.333  0.2457 -0.6875  0.8085
   49MOL0     H 6566  10.180   4.540   5.147 -1.3059  0.4333 -2.1126
   49MOL0     H 6567   9.904   4.500   4.912  1.2480  0.5248 -2.1362
   49MOL0     H 6568  10.067   4.455   4.939  0.4495  2.6659  2.0380
   49MOL0     H 6569   9.979   4.285   5.113  1.6009 -0.0495 -1.7040
   49MOL0     H 6570   9.821   4.291   5.019 -0.8087 -1.2232 -3.3024
   49MOL0     H 6571   9.952   4.109   4.961  0.4887  0.3558  1.8622
   49MOL0     H 6572  10.085   4.218   4.902  0.0910  0.6905 -0.5629
   49MOL0     H 6573   9.898   4.325   4.770  0.6336  0.5701  1.0870
   49MOL0     H 6574   9.809   4.175   4.788 -0.7613  1.9829  0.4932
   49MOL0     H 6575   9.771   4.215   4.554 -0.2042  2.2382  1.3592
   49MOL0     H 6576   9.752   4.254   4.312 -0.7049 -0.3839  1.5026
   49MOL0     H 6577   9.717   4.448   3.960 -0.5592  2.9477 -3.4215
   49MOL0     H 6578   9.717   4.505   3.722  0.3265 -0.0737  2.2767
   49MOL0     H 6579  10.015   4.428   3.543  1.3556 -0.6827 -1.3914
   49MOL0     H 6580   9.970   4.303   3.425 -2.2981  0.3583 -1.4247
   49MOL0     H 6581   9.850   4.489   3.303 -0.5124  0.1408  0.7452
   49MOL0     H 6582   9.917   4.591   3.437 -0.1843 -1.9073  1.7328
   49MOL0     H 6583  10.118   4.604   3.333 -0.2772  1.1968  0.3355
   49MOL0     H 6584  10.112   4.437   3.274  0.6596  0.9187  2.1491
   49MOL0     H 6585   9.963   4.681   3.137 -0.1853  0.2110 -2.2159
   49MOL0     H 6586   9.961   4.513   3.090 -1.2906  1.0527 -0.6451
   49MOL0     H 6587  10.211   4.523   3.055 -0.3671 -0.6657 -1.0349
   49MOL0     H 6588  10.218   4.690   3.103  1.2959 -2.4627  1.8288
   49MOL0     H 6589  10.205   4.637   2.853  0.3433  3.2860 -1.2791
   49MOL0     H 6590  10.033   4.617   2.867  1.1647  3.4916 -3.5474
   49MOL0     H 6591  10.186   4.865   2.907 -0.0657 -0.2755  2.2109
   49MOL0     H 6592  10.022   4.840   2.976 -1.8216 -0.6576 -1.7889
   49MOL0     H 6593  10.004   4.968   2.779  0.6854 -0.9075  2.7821
   49MOL0     H 6594  10.092   4.860   2.675  0.4621  2.9571 -0.5200
   49MOL0     H 6595   9.923   4.132   3.643 -0.4707  2.0417 -2.4965
   49MOL0     H 6596   9.935   4.078   3.872 -0.9846  0.9526  4.6937
   49MOL0     H 6597  10.173   4.245   4.271 -1.7685  0.7043 -2.4475
   49MOL0     H 6598  10.202   4.212   4.505 -0.2267  0.2226  1.0140
   49MOL0     H 6599  10.994   4.618   5.465 -1.2763 -2.3131  1.9922
   49MOL0     H 6600  11.105   4.819   5.411  0.0397 -0.3264  0.5631
   49MOL0     H 6601  11.143   5.178   5.164  0.7058  2.8609 -3.5025
   49MOL0     H 6602  11.284   5.368   5.110  1.7707 -0.0686  1.8012
   49MOL0     H 6603  11.458   5.677   5.401  1.6118  0.7443 -2.6562
   49MOL0     H 6604  11.279   5.691   5.394 -2.8691 -2.1048 -2.3201
   49MOL0     H 6605  11.490   5.796   5.196  1.6580 -2.7687  3.7804
   49MOL0     H 6606  11.362   5.895   5.276 -1.6666 -0.4913  0.7132
   49MOL0     H 6607  11.184   5.755   5.164  0.4419 -1.8752  1.2091
   49MOL0     H 6608  11.307   5.728   5.042 -0.0507  0.4053  0.5914
   49MOL0     H 6609  11.175   5.952   4.999  0.2841  3.5253  0.0787
   49MOL0     H 6610  11.244   6.016   5.134  1.8127 -0.2651  0.3872
   49MOL0     H 6611  11.567   5.980   4.856 -0.3636 -2.5144 -0.9414
   49MOL0     H 6612  11.269   5.518   5.511 -3.0479  1.2033 -0.8169
   49MOL0     H 6613  11.101   5.422   5.675 -0.1077  0.0845 -1.1737
   49MOL0     H 6614  10.983   5.331   5.597  0.5393 -0.2981 -3.4754
   49MOL0     H 6615  11.139   5.254   5.664 -0.6234 -1.7581 -1.1272
   50MOL0     O 6616   2.343   7.745   3.210  0.0202 -0.3158  0.5651
   50MOL0     C 6617   2.242   7.775   3.145  0.4516 -0.0759  0.1478
   50MOL0     O 6618   2.194   7.694   3.038 -0.3118  0.1364  0.2366
   50MOL0     C 6619   2.223   7.561   3.020 -1.3092 -0.4688 -0.1082
   50MOL0     C 6620   2.327   7.486   3.076 -0.1265  0.0802 -0.1864
   50MOL0     C 6621   2.343   7.350   3.065 -0.0873 -0.2813 -0.0219
   50MOL0     C 6622   2.244   7.277   2.989  0.0092  0.5286 -0.2094
   50MOL0     O 6623   2.254   7.140   2.969 -0.6620 -0.7401 -0.0834
   50MOL0     C 6624   2.278   7.065   3.091  0.3495  0.2237 -0.2999
   50MOL0     C 6625   2.172   6.946   3.093 -0.0844 -0.2299 -0.7288
   50MOL0     C 6626   2.031   7.004   3.043  0.4280  0.3157 -0.5701
   50MOL0     C 6627   1.899   6.923   3.073  0.2479  0.1848 -0.4030
   50MOL0     C 6628   1.771   6.960   3.001  0.0576 -0.2404 -0.3390
   50MOL0     C 6629   1.770   7.112   2.961 -0.3598 -0.0468  0.4237
   50MOL0     C 6630   1.642   7.177   2.953  0.0043  0.0267 -0.0205
   50MOL0     C 6631   1.571   7.113   2.839  0.5210 -0.1047 -0.0290
   50MOL0     N 6632   1.439   7.190   2.809  0.8509  0.1856  0.2005
   50MOL0     C 6633   1.423   7.303   2.727  0.0367 -0.0173 -0.9649
   50MOL0     C 6634   1.293   7.324   2.728  0.0602 -0.1906  0.2830
   50MOL0     C 6635   1.230   7.431   2.633 -0.0714  0.7044  0.1248
   50MOL0     C 6636   1.104   7.492   2.686 -0.3362 -0.7183 -1.0599
   50MOL0     C 6637   1.108   7.545   2.832  0.2942  0.4412  1.3300
   50MOL0     C 6638   1.205   7.669   2.853  0.2281  0.8096  0.3247
   50MOL0     O 6639   1.230   7.700   2.992 -0.1960  0.3085  0.0962
   50MOL0     C 6640   1.336   7.639   3.059 -0.0855 -0.6237 -0.7335
   50MOL0     C 6641   1.400   7.526   3.026 -0.8242  0.0315 -0.2230
   50MOL0     C 6642   1.484   7.462   3.119 -0.7805  0.2320 -1.0482
   50MOL0     C 6643   1.519   7.530   3.243 -0.1965  0.1429  0.1709
   50MOL0     C 6644   1.621   7.479   3.336 -0.0882 -0.2352  0.9696
   50MOL0     O 6645   1.693   7.373   3.289  0.5108 -0.6099 -0.4269
   50MOL0     C 6646   1.789   7.312   3.366  0.0178 -0.2840  0.0328
   50MOL0     C 6647   1.766   7.263   3.494  0.0845 -0.1146  0.0584
   50MOL0     C 6648   1.866   7.188   3.567  0.0085  0.0550  0.2503
   50MOL0     C 6649   2.000   7.187   3.518  0.4629  0.1031  0.5184
   50MOL0     O 6650   2.107   7.147   3.582 -0.6341  0.1375 -0.2775
   50MOL0     C 6651   2.084   7.043   3.688  0.0736  0.1139 -0.5090
   50MOL0     C 6652   1.997   6.914   3.653 -0.0246 -0.2547  0.1448
   50MOL0     C 6653   2.038   6.847   3.522 -0.5636 -0.1315 -0.6852
   50MOL0     C 6654   1.924   6.744   3.492 -0.4273  0.1437 -0.2080
   50MOL0     C 6655   1.956   6.678   3.357 -0.4120 -0.0024 -0.7085
   50MOL0     C 6656   1.841   6.575   3.324  0.3025 -0.3961  0.5528
   50MOL0     C 6657   1.887   6.484   3.203 -0.4041  0.5770  0.1709
   50MOL0     C 6658   1.767   6.445   3.118 -0.3602  0.7432 -0.0572
   50MOL0    Cl 6659   1.723   6.586   3.022  0.4630 -0.0747 -0.3976
   50MOL0     C 6660   2.022   7.236   3.390 -0.2256 -0.4729 -0.4445
   50MOL0     C 6661   1.919   7.305   3.320  0.3677 -0.1395 -0.3724
   50MOL0     O 6662   1.631   7.534   3.444 -0.8713  0.2292 -0.0832
   50MOL0     C 6663   1.448   7.646   3.272 -0.3720  0.5094  0.3165
   50MOL0     C 6664   1.361   7.710   3.184  0.1668  0.7066 -0.2356
   50MOL0     N 6665   1.228   7.226   2.809 -0.5733  0.5959 -0.0777
   50MOL0     N 6666   1.324   7.144   2.853 -0.6635 -0.6114  0.2396
   50MOL0     C 6667   2.136   7.345   2.934 -0.4804 -0.4205  0.7513
   50MOL0     C 6668   2.125   7.488   2.946  0.3088 -0.7839 -0.7122
   50MOL0     C 6669   2.184   7.906   3.160 -0.2540 -0.0973 -1.0971
   50MOL0     C 6670   2.086   7.938   3.068 -0.0551 -0.0686  0.2972
   50MOL0     C 6671   2.013   8.058   3.075 -0.4327  0.0566  0.5187
   50MOL0     C 6672   2.053   8.160   3.162 -0.4626 -0.7695 -0.1072
   50MOL0     O 6673   1.977   8.279   3.156 -0.4801 -1.0602 -0.7512
   50MOL0     C 6674   1.998   8.381   3.254  0.4652  0.1650  0.1800
   50MOL0     C 6675   1.910   8.325   3.372 -0.7061  0.3931 -0.6965
   50MOL0     C 6676   1.917   8.404   3.498  0.1071 -0.3430 -0.0342
   50MOL0     C 6677   1.881   8.552   3.495 -0.3855 -0.1517  0.6698
   50MOL0     C 6678   1.881   8.607   3.625 -0.6262 -0.7071 -1.3254
   50MOL0     C 6679   1.886   8.672   3.734  0.8814 -0.3895 -0.0857
   50MOL0     C 6680   2.148   8.123   3.262 -0.0644  0.1922  0.8474
   50MOL0     C 6681   2.214   8.006   3.256 -0.1351 -0.2518  0.0723
   50MOL0     C 6682   2.342   7.989   3.345 -0.2713 -1.0697  0.3108
   50MOL0     H 6683   2.416   7.531   3.119  2.4843 -1.6523 -3.3062
   50MOL0     H 6684   2.430   7.295   3.101  1.3568  0.5308 -2.1038
   50MOL0     H 6685   2.376   7.018   3.083  1.0069  1.7785 -2.0117
   50MOL0     H 6686   2.261   7.134   3.175  1.8983  1.5365 -1.0116
   50MOL0     H 6687   2.160   6.909   3.196  0.0288  1.9843  0.1302
   50MOL0     H 6688   2.213   6.862   3.036  0.1920 -0.7427  0.2017
   50MOL0     H 6689   2.035   7.012   2.934 -0.4974  1.6793 -0.5251
   50MOL0     H 6690   2.012   7.102   3.086 -3.2757 -1.1670  1.6818
   50MOL0     H 6691   1.913   6.816   3.055 -0.6057  0.1342 -0.7772
   50MOL0     H 6692   1.870   6.939   3.177 -0.2988  2.6953 -0.8601
   50MOL0     H 6693   1.756   6.890   2.919  1.2761 -0.8161 -0.1036
   50MOL0     H 6694   1.693   6.930   3.071  0.5202 -3.7842 -1.1250
   50MOL0     H 6695   1.812   7.177   3.038 -1.7538  1.1993  0.1692
   50MOL0     H 6696   1.831   7.126   2.871 -1.2045 -0.0463 -0.1556
   50MOL0     H 6697   1.645   7.285   2.936  0.8533 -0.3083 -2.4190
   50MOL0     H 6698   1.590   7.147   3.044 -2.5880 -0.6173 -1.5857
   50MOL0     H 6699   1.627   7.121   2.746 -1.4029 -0.4892 -1.2680
   50MOL0     H 6700   1.547   7.009   2.862 -3.8548  0.5404 -0.8252
   50MOL0     H 6701   1.501   7.359   2.674 -1.0458  3.6447  0.9618
   50MOL0     H 6702   1.312   7.502   2.622  0.0476  0.5806  0.2138
   50MOL0     H 6703   1.207   7.368   2.547 -0.0310 -0.1482  0.7159
   50MOL0     H 6704   1.080   7.570   2.614  2.2096  0.2369 -0.9972
   50MOL0     H 6705   1.030   7.412   2.685  0.4658 -1.4943 -0.6443
   50MOL0     H 6706   1.135   7.463   2.900  3.9807  2.3236  2.3911
   50MOL0     H 6707   1.007   7.580   2.857  0.2335 -0.2768  2.1363
   50MOL0     H 6708   1.162   7.757   2.804  1.9323  1.9115  0.7277
   50MOL0     H 6709   1.302   7.656   2.805  0.5744  2.8580  0.3679
   50MOL0     H 6710   1.383   7.478   2.930  0.3563 -1.4079  0.2649
   50MOL0     H 6711   1.530   7.368   3.092 -0.2574 -0.1978  1.1811
   50MOL0     H 6712   1.667   7.268   3.538  0.8840 -0.4865  2.0431
   50MOL0     H 6713   1.838   7.147   3.664  1.6469  2.0842  1.6586
   50MOL0     H 6714   2.175   6.996   3.727 -0.2660 -0.5272 -0.4797
   50MOL0     H 6715   2.035   7.093   3.771 -1.8224 -1.6473 -0.4842
   50MOL0     H 6716   2.009   6.843   3.735  1.3664  1.1976  1.2459
   50MOL0     H 6717   1.892   6.944   3.641 -0.4422 -2.3287 -2.3516
   50MOL0     H 6718   2.041   6.924   3.444  0.3528 -1.6830 -2.2389
   50MOL0     H 6719   2.136   6.802   3.536 -0.3223  0.9959  1.7874
   50MOL0     H 6720   1.828   6.796   3.490  0.7610  2.4577 -0.9314
   50MOL0     H 6721   1.921   6.666   3.568  0.6825  1.6364  1.4474
   50MOL0     H 6722   2.062   6.650   3.358 -0.5184 -0.5316  1.7089
   50MOL0     H 6723   1.953   6.754   3.278  0.6720  0.0184 -0.7402
   50MOL0     H 6724   1.813   6.513   3.410 -1.1669 -0.0763  0.3256
   50MOL0     H 6725   1.748   6.618   3.286  0.1171  0.3504  1.7940
   50MOL0     H 6726   1.933   6.394   3.245 -1.0635 -0.0962 -0.5277
   50MOL0     H 6727   1.958   6.525   3.131 -1.1701 -1.9872 -2.2151
   50MOL0     H 6728   1.801   6.360   3.057 -2.1199 -0.3846  0.4391
   50MOL0     H 6729   1.682   6.422   3.182 -0.0848  0.4653  0.2094
   50MOL0     H 6730   2.124   7.247   3.355  0.4428 -1.0267  1.2209
   50MOL0     H 6731   1.944   7.350   3.225 -2.4725 -0.5507 -1.4287
   50MOL0     H 6732   1.465   7.702   3.363 -1.5918  0.1573  0.7782
   50MOL0     H 6733   1.310   7.803   3.207 -0.2552  0.5534 -0.5299
   50MOL0     H 6734   2.047   7.302   2.888 -2.1258 -0.6090  3.8420
   50MOL0     H 6735   2.039   7.542   2.908  0.6238 -0.6602 -1.2618
   50MOL0     H 6736   2.059   7.857   3.001  2.3761 -1.8120  1.3018
   50MOL0     H 6737   1.922   8.079   3.020  0.7226  3.7995 -0.2047
   50MOL0     H 6738   1.964   8.478   3.216 -1.5165 -0.3670  0.4768
   50MOL0     H 6739   2.101   8.389   3.288 -0.2029  1.0710  2.1502
   50MOL0     H 6740   1.931   8.218   3.379  0.6915  0.7224  0.8772
   50MOL0     H 6741   1.805   8.330   3.341 -0.0536  2.5190 -2.8483
   50MOL0     H 6742   2.023   8.391   3.520  0.7445  3.9326  0.2682
   50MOL0     H 6743   1.863   8.350   3.576 -0.0312  1.4689  1.1983
   50MOL0     H 6744   1.947   8.607   3.426 -2.8759  3.7216  1.0344
   50MOL0     H 6745   1.780   8.547   3.451  0.0203 -3.3591 -0.1403
   50MOL0     H 6746   1.876   8.721   3.829 -0.0991 -0.2153 -0.2690
   50MOL0     H 6747   2.168   8.194   3.342 -3.0087  0.1276  1.7585
   50MOL0     H 6748   2.328   7.899   3.405 -1.7905 -0.9908  0.1250
   50MOL0     H 6749   2.428   7.966   3.281  0.8548  4.6234 -0.7503
   50MOL0     H 6750   2.360   8.076   3.408  0.2711 -2.2211  1.7944
   51MOL0     O 6751   4.628   9.617   2.685  0.2253  0.0585  0.3783
   51MOL0     C 6752   4.520   9.568   2.653  0.7682  0.0774 -0.3984
   51MOL0     O 6753   4.486   9.426   2.663 -0.1658  0.3085  0.9993
   51MOL0     C 6754   4.575   9.324   2.692  0.4694 -0.1355  0.8723
   51MOL0     C 6755   4.533   9.201   2.631  0.3545 -0.2304 -0.6746
   51MOL0     C 6756   4.608   9.086   2.663 -0.0245 -0.8483 -0.2391
   51MOL0     C 6757   4.714   9.092   2.752  1.0988  0.5058  0.3050
   51MOL0     O 6758   4.780   8.976   2.785 -0.3624 -0.3146 -0.5478
   51MOL0     C 6759   4.829   8.967   2.922 -0.1618 -1.3767  1.0141
   51MOL0     C 6760   4.855   8.826   2.956 -0.4759 -0.1120 -0.1785
   51MOL0     C 6761   5.000   8.778   2.931  0.1155  0.3375 -0.0962
   51MOL0     C 6762   5.109   8.868   2.996 -1.5513  0.3775 -0.0150
   51MOL0     C 6763   5.243   8.791   3.004  0.1464 -0.9081  0.3326
   51MOL0     C 6764   5.348   8.871   3.088  0.4270 -0.5267  0.1899
   51MOL0     C 6765   5.495   8.828   3.070 -0.7120 -0.1894 -0.4983
   51MOL0     C 6766   5.523   8.687   3.127 -0.9033 -0.3982 -0.9491
   51MOL0     N 6767   5.664   8.657   3.097  0.5836 -1.1465 -0.3758
   51MOL0     C 6768   5.703   8.632   2.966  0.0950 -0.3286  0.1942
   51MOL0     C 6769   5.835   8.616   2.971  0.0436  0.9132  0.2295
   51MOL0     C 6770   5.934   8.596   2.864  0.4859  0.4124 -0.2342
   51MOL0     C 6771   6.080   8.576   2.918  0.3116 -0.1349  0.0616
   51MOL0     C 6772   6.162   8.539   2.796  1.1451  0.6939  0.4312
   51MOL0     C 6773   6.297   8.479   2.835  0.0571 -0.0529  0.3861
   51MOL0     O 6774   6.381   8.474   2.726  0.0349  0.2127  0.6900
   51MOL0     C 6775   6.448   8.583   2.685 -0.0317  0.6386  0.3666
   51MOL0     C 6776   6.510   8.581   2.559  0.2770  0.2574 -0.0569
   51MOL0     C 6777   6.607   8.678   2.517 -0.3455 -0.4492 -0.3445
   51MOL0     C 6778   6.646   8.772   2.616  0.4428 -0.7715 -0.1474
   51MOL0     C 6779   6.740   8.878   2.590  0.1819 -1.0365  0.6528
   51MOL0     O 6780   6.726   8.998   2.658  0.4832 -0.4090  0.2888
   51MOL0     C 6781   6.828   9.082   2.682 -0.3919 -0.2039 -0.2063
   51MOL0     C 6782   6.967   9.044   2.680 -0.0298  0.6524 -0.2735
   51MOL0     C 6783   7.073   9.130   2.697 -0.0143  0.7946 -0.6747
   51MOL0     C 6784   7.038   9.269   2.720 -0.2374 -0.9740 -0.3767
   51MOL0     O 6785   7.137   9.368   2.728  0.1046  1.3289 -0.7258
   51MOL0     C 6786   7.247   9.323   2.813  0.9202 -0.5868 -0.0964
   51MOL0     C 6787   7.258   9.423   2.935  0.8319 -0.0772 -0.2293
   51MOL0     C 6788   7.297   9.563   2.886  1.1506  1.1785 -0.0584
   51MOL0     C 6789   7.361   9.646   2.993  1.3831  0.0570  0.8414
   51MOL0     C 6790   7.252   9.703   3.083 -0.2025  0.1589 -0.9559
   51MOL0     C 6791   7.320   9.788   3.194 -0.1500  0.5252  0.9385
   51MOL0     C 6792   7.456   9.751   3.243  0.2320  0.0754 -0.3211
   51MOL0     C 6793   7.502   9.867   3.331  0.2187  0.3899  0.3600
   51MOL0    Cl 6794   7.665   9.841   3.407  0.4465 -0.6320 -0.1692
   51MOL0     C 6795   6.897   9.311   2.728  0.1678 -0.7249 -0.5317
   51MOL0     C 6796   6.800   9.217   2.714  0.1367 -0.0913  0.8240
   51MOL0     O 6797   6.820   8.861   2.500 -0.4377 -0.7728 -0.0535
   51MOL0     C 6798   6.584   8.779   2.740 -0.1192  0.1890 -0.9037
   51MOL0     C 6799   6.478   8.691   2.765 -0.3082  0.8508 -0.6723
   51MOL0     N 6800   5.872   8.642   3.110  0.7214  0.2543 -0.3246
   51MOL0     N 6801   5.769   8.673   3.174 -0.0413 -0.5531 -0.2087
   51MOL0     C 6802   4.740   9.218   2.815  0.3689  0.7550  0.8536
   51MOL0     C 6803   4.677   9.332   2.781  0.8212  0.3346 -0.1550
   51MOL0     C 6804   4.443   9.642   2.548 -0.4639  0.7261 -0.6154
   51MOL0     C 6805   4.514   9.745   2.478 -0.0262 -1.5034 -0.3799
   51MOL0     C 6806   4.443   9.817   2.376 -0.8304 -0.2464 -0.1815
   51MOL0     C 6807   4.307   9.808   2.368  0.9209  0.3040  1.9093
   51MOL0     O 6808   4.218   9.892   2.298  0.2283 -0.0339 -0.7132
   51MOL0     C 6809   4.252  10.000   2.210  0.5489 -0.1438  0.2075
   51MOL0     C 6810   4.307  10.126   2.274 -0.1730 -0.2808 -0.5505
   51MOL0     C 6811   4.190  10.212   2.339  0.1169 -0.1173 -0.5266
   51MOL0     C 6812   4.246  10.350   2.373  0.0831 -0.1359 -0.8318
   51MOL0     C 6813   4.261  10.429   2.251 -0.2441  0.0482  0.0767
   51MOL0     C 6814   4.257  10.504   2.153 -0.5233  0.8022  0.8628
   51MOL0     C 6815   4.233   9.712   2.440  0.8282 -0.3493 -0.2357
   51MOL0     C 6816   4.302   9.624   2.524  0.1268  0.3592  0.7311
   51MOL0     C 6817   4.218   9.514   2.594 -0.4608 -1.6251  0.3901
   51MOL0     H 6818   4.445   9.187   2.569 -0.4534  1.4883  0.0264
   51MOL0     H 6819   4.569   8.990   2.629 -1.8893  0.0519 -0.7451
   51MOL0     H 6820   4.919   9.027   2.938 -1.1052  0.0204  1.3146
   51MOL0     H 6821   4.758   9.006   2.996 -0.4378 -0.0091  0.0708
   51MOL0     H 6822   4.781   8.771   2.898  0.0770  0.3631 -1.3938
   51MOL0     H 6823   4.832   8.806   3.061 -1.6573  0.3822 -0.3292
   51MOL0     H 6824   5.024   8.767   2.825  2.8149  3.8928 -0.0092
   51MOL0     H 6825   5.008   8.676   2.972 -2.8619  0.1066  0.1537
   51MOL0     H 6826   5.121   8.948   2.923 -1.3346  0.6713  0.3378
   51MOL0     H 6827   5.068   8.898   3.093 -3.4969  2.3588 -1.3349
   51MOL0     H 6828   5.241   8.691   3.050 -0.9792 -0.8409  0.4662
   51MOL0     H 6829   5.299   8.779   2.911  0.5380 -0.0456  0.4494
   51MOL0     H 6830   5.326   8.970   3.049 -0.3726 -0.0286  1.8267
   51MOL0     H 6831   5.309   8.885   3.190 -2.2431  0.2051 -0.8384
   51MOL0     H 6832   5.546   8.915   3.112 -2.1061  1.4372 -2.0098
   51MOL0     H 6833   5.515   8.831   2.963 -0.8108  0.1500 -0.5066
   51MOL0     H 6834   5.495   8.689   3.233 -0.4708  1.5591 -0.8435
   51MOL0     H 6835   5.461   8.623   3.064 -0.5753  1.4848 -3.2923
   51MOL0     H 6836   5.649   8.618   2.873 -2.0816 -2.1540  1.6278
   51MOL0     H 6837   5.906   8.512   2.800  3.5000  0.9701 -2.5055
   51MOL0     H 6838   5.936   8.677   2.790 -0.5454 -0.4603 -1.2530
   51MOL0     H 6839   6.135   8.659   2.963  0.8984 -1.2659  1.4893
   51MOL0     H 6840   6.068   8.495   2.990  0.6683 -0.3978 -0.1696
   51MOL0     H 6841   6.169   8.614   2.717 -1.6616  0.0706 -0.5204
   51MOL0     H 6842   6.120   8.444   2.763 -0.4508 -0.0271  4.0980
   51MOL0     H 6843   6.285   8.378   2.877  0.8634 -1.6146 -2.8187
   51MOL0     H 6844   6.344   8.531   2.919  0.3092  0.1233  0.1369
   51MOL0     H 6845   6.492   8.493   2.498  0.8414 -1.3756  1.9905
   51MOL0     H 6846   6.661   8.670   2.424  1.5486 -1.7684  0.7993
   51MOL0     H 6847   6.994   8.939   2.677  0.4132  0.7735 -0.7326
   51MOL0     H 6848   7.174   9.090   2.703  0.2051  1.2923 -0.9464
   51MOL0     H 6849   7.242   9.219   2.846  1.9774 -0.8618 -0.7630
   51MOL0     H 6850   7.339   9.336   2.756  1.5697 -1.7371  0.6471
   51MOL0     H 6851   7.166   9.422   2.993 -0.4037 -0.8840 -2.0914
   51MOL0     H 6852   7.341   9.398   3.002 -0.1455  2.0236  1.9204
   51MOL0     H 6853   7.368   9.545   2.805  0.5942 -5.4862  0.3836
   51MOL0     H 6854   7.212   9.618   2.844 -1.3476 -0.7407  2.1826
   51MOL0     H 6855   7.410   9.734   2.949 -2.3208  3.1907  2.3659
   51MOL0     H 6856   7.438   9.587   3.044  1.3657 -0.1755  0.5996
   51MOL0     H 6857   7.186   9.633   3.135 -0.4144  0.1856 -1.1878
   51MOL0     H 6858   7.188   9.764   3.018 -0.6103  0.8013  0.0245
   51MOL0     H 6859   7.333   9.889   3.152 -0.6726  1.7299  3.4776
   51MOL0     H 6860   7.248   9.793   3.276 -2.9130 -1.8649 -1.1456
   51MOL0     H 6861   7.533   9.742   3.166  0.2375  1.9930 -0.5851
   51MOL0     H 6862   7.439   9.663   3.305 -2.6090  2.0166  1.9371
   51MOL0     H 6863   7.516   9.953   3.266 -0.9372 -1.4867 -2.6121
   51MOL0     H 6864   7.423   9.889   3.403 -0.9525 -2.1921 -0.0146
   51MOL0     H 6865   6.869   9.416   2.729 -2.0650 -1.2569 -1.5385
   51MOL0     H 6866   6.698   9.250   2.734 -0.8993 -2.9626  0.7238
   51MOL0     H 6867   6.610   8.845   2.823 -1.1247  0.8323 -1.0932
   51MOL0     H 6868   6.442   8.702   2.866  3.3281 -0.5722  0.9674
   51MOL0     H 6869   4.812   9.219   2.896 -1.0307 -1.7935  2.2452
   51MOL0     H 6870   4.698   9.428   2.826 -0.0530  0.5883 -0.2562
   51MOL0     H 6871   4.613   9.775   2.508 -0.9151 -0.7624  2.1027
   51MOL0     H 6872   4.479   9.897   2.311 -1.1429 -1.5748 -2.0716
   51MOL0     H 6873   4.168  10.020   2.143 -0.0441 -0.9812  0.6805
   51MOL0     H 6874   4.321   9.956   2.137 -1.3001 -3.2508  0.1543
   51MOL0     H 6875   4.351  10.185   2.193 -0.7917 -0.0367 -0.7124
   51MOL0     H 6876   4.385  10.108   2.348 -0.2335 -0.5307 -0.5452
   51MOL0     H 6877   4.159  10.155   2.426 -1.3992  1.1745 -0.1699
   51MOL0     H 6878   4.109  10.215   2.265 -0.2054  0.9271 -0.1550
   51MOL0     H 6879   4.181  10.403   2.444  0.6649 -1.0971  0.4674
   51MOL0     H 6880   4.337  10.335   2.432  0.4692  0.4051 -1.2894
   51MOL0     H 6881   4.243  10.569   2.069 -2.7330 -1.2884 -0.5069
   51MOL0     H 6882   4.129   9.706   2.410  0.1847  4.5023  0.3533
   51MOL0     H 6883   4.110   9.524   2.575 -1.1257  1.4566  4.4311
   51MOL0     H 6884   4.246   9.412   2.568  0.1794 -1.7148  1.3762
   51MOL0     H 6885   4.246   9.532   2.698  0.2217 -1.4182  0.1716
   52MOL0     O 6886   9.403   5.716   4.204  0.3033  0.4593  0.5613
   52MOL0     C 6887   9.452   5.734   4.095 -0.4534 -0.9945 -0.2462
   52MOL0     O 6888   9.392   5.709   3.975 -0.3113 -0.3178 -0.2254
   52MOL0     C 6889   9.264   5.655   3.982 -0.1003  0.4677 -0.6612
   52MOL0     C 6890   9.179   5.718   3.893  0.1750 -0.0447  0.8124
   52MOL0     C 6891   9.049   5.675   3.882 -0.3670  0.7070 -1.0703
   52MOL0     C 6892   8.985   5.574   3.960 -1.3236  0.1253 -0.0067
   52MOL0     O 6893   8.854   5.539   3.930 -0.5086  0.6710  0.8260
   52MOL0     C 6894   8.765   5.485   4.024  0.0279 -0.1753 -0.6400
   52MOL0     C 6895   8.694   5.587   4.108  0.0921 -0.3551  0.7043
   52MOL0     C 6896   8.789   5.614   4.227  0.6628 -0.2425  0.1069
   52MOL0     C 6897   8.808   5.758   4.261  0.4136  0.8396  0.0574
   52MOL0     C 6898   8.670   5.832   4.292 -0.2541  0.1375  1.1847
   52MOL0     C 6899   8.632   5.805   4.432 -0.2622  0.2364 -0.1503
   52MOL0     C 6900   8.486   5.865   4.453 -0.2110  0.9553 -0.1682
   52MOL0     C 6901   8.393   5.750   4.469 -0.1042  0.2828 -0.1681
   52MOL0     N 6902   8.437   5.626   4.525  0.6340 -0.1767 -0.3345
   52MOL0     C 6903   8.470   5.615   4.661  0.6037  0.0866  0.1708
   52MOL0     C 6904   8.462   5.481   4.677  0.7623  0.4945 -0.7645
   52MOL0     C 6905   8.483   5.402   4.796 -0.3302  0.8455 -0.1421
   52MOL0     C 6906   8.568   5.273   4.781 -0.2804 -0.3016  0.0661
   52MOL0     C 6907   8.538   5.185   4.911 -0.4452  0.1216  0.8074
   52MOL0     C 6908   8.665   5.098   4.936  0.5752 -0.4542  0.9972
   52MOL0     O 6909   8.743   5.156   5.041  1.0533 -0.1767 -0.0644
   52MOL0     C 6910   8.705   5.114   5.170 -0.3920  0.9336 -0.0712
   52MOL0     C 6911   8.642   5.208   5.247  1.7170  0.3686  0.6645
   52MOL0     C 6912   8.606   5.174   5.381  0.2749  0.4270  0.4313
   52MOL0     C 6913   8.649   5.053   5.438 -0.4046 -0.5516 -0.5018
   52MOL0     C 6914   8.614   5.021   5.576  0.2873  0.0404  0.6192
   52MOL0     O 6915   8.668   4.904   5.627 -0.4579  0.2241  0.2401
   52MOL0     C 6916   8.608   4.855   5.736 -0.3972 -0.4142 -1.1811
   52MOL0     C 6917   8.524   4.745   5.731 -0.1414  0.0019  0.8165
   52MOL0     C 6918   8.465   4.696   5.845  0.5039  0.2012 -0.6061
   52MOL0     C 6919   8.502   4.756   5.979 -0.2096  0.0474 -0.2612
   52MOL0     O 6920   8.452   4.713   6.102 -0.5602 -0.2546 -0.1439
   52MOL0     C 6921   8.320   4.668   6.107 -0.2394  0.7152 -0.7961
   52MOL0     C 6922   8.257   4.710   6.236 -0.1678 -0.1042 -0.4013
   52MOL0     C 6923   8.330   4.716   6.375 -0.6125 -1.2307 -0.1474
   52MOL0     C 6924   8.333   4.579   6.444 -0.6033 -1.1445  0.0720
   52MOL0     C 6925   8.401   4.595   6.578  0.1732 -0.4001  0.2108
   52MOL0     C 6926   8.324   4.675   6.675 -0.0632  0.2258  0.3310
   52MOL0     C 6927   8.378   4.658   6.820  0.3502  0.1219 -0.7025
   52MOL0     C 6928   8.330   4.757   6.917 -0.0200 -0.2866 -0.3088
   52MOL0    Cl 6929   8.152   4.764   6.893  0.4308  0.0273 -0.1991
   52MOL0     C 6930   8.603   4.857   5.979 -0.0239 -0.5818 -0.6945
   52MOL0     C 6931   8.655   4.901   5.858  0.8581 -0.0393  0.4931
   52MOL0     O 6932   8.525   5.085   5.628  0.0875  0.4271 -0.4242
   52MOL0     C 6933   8.712   4.956   5.357  0.6986 -0.0877  0.1829
   52MOL0     C 6934   8.724   4.984   5.220  1.6901  0.5795 -0.5322
   52MOL0     N 6935   8.435   5.412   4.560 -0.5250  1.3266  0.6190
   52MOL0     N 6936   8.417   5.501   4.462  0.1818 -0.5368 -0.4301
   52MOL0     C 6937   9.080   5.511   4.048  0.0316  0.3768 -0.4927
   52MOL0     C 6938   9.217   5.543   4.061 -0.1917 -0.5072 -0.6183
   52MOL0     C 6939   9.581   5.813   4.081 -0.4216  0.7598  0.2832
   52MOL0     C 6940   9.619   5.848   3.950 -0.0602 -0.0884  0.1155
   52MOL0     C 6941   9.742   5.902   3.904  0.2752  0.5736  0.4198
   52MOL0     C 6942   9.839   5.913   4.003 -0.4751 -0.5538 -0.7872
   52MOL0     O 6943   9.959   5.972   3.980 -0.1464  0.1273 -0.0324
   52MOL0     C 6944  10.025   5.946   3.854 -0.0878 -0.3928  0.0782
   52MOL0     C 6945  10.174   5.944   3.872  0.1837 -0.4322  1.1805
   52MOL0     C 6946  10.242   6.081   3.892  0.0315 -0.1207 -0.6991
   52MOL0     C 6947  10.393   6.080   3.897 -0.3227  0.1865  0.1708
   52MOL0     C 6948  10.450   6.033   3.767  0.5254  0.4977 -0.2804
   52MOL0     C 6949  10.515   6.019   3.670 -0.0333 -0.3611  0.2674
   52MOL0     C 6950   9.805   5.888   4.137 -0.3178 -0.6234 -0.9085
   52MOL0     C 6951   9.682   5.837   4.183  0.3066  0.7699 -0.3307
   52MOL0     C 6952   9.663   5.797   4.328 -0.1483 -0.2325 -0.3820
   52MOL0     H 6953   9.212   5.799   3.829  0.0373 -0.9337 -0.4080
   52MOL0     H 6954   8.992   5.737   3.812  1.2537  2.5805 -0.8308
   52MOL0     H 6955   8.690   5.429   3.966 -0.3211 -2.8689  2.1344
   52MOL0     H 6956   8.813   5.410   4.088 -0.0591  1.6698  1.6867
   52MOL0     H 6957   8.597   5.554   4.144 -0.8927 -0.7100 -2.0739
   52MOL0     H 6958   8.679   5.668   4.036  1.8195 -0.5818  0.0378
   52MOL0     H 6959   8.890   5.572   4.219  0.4560 -1.0772  1.5472
   52MOL0     H 6960   8.744   5.577   4.320  2.0541 -1.9941  0.1502
   52MOL0     H 6961   8.883   5.757   4.340  1.3648 -0.2872 -0.8196
   52MOL0     H 6962   8.860   5.803   4.176 -0.2228 -2.6086 -2.3592
   52MOL0     H 6963   8.685   5.940   4.276 -0.4201 -0.2078 -1.9455
   52MOL0     H 6964   8.592   5.798   4.223 -1.9173 -0.3186  3.2148
   52MOL0     H 6965   8.641   5.696   4.438 -0.4389  0.2403  0.1630
   52MOL0     H 6966   8.705   5.850   4.500  0.0978  0.5638 -0.7399
   52MOL0     H 6967   8.460   5.934   4.372 -2.0833  0.1594 -0.2678
   52MOL0     H 6968   8.490   5.917   4.549  3.1549 -1.7702  1.3987
   52MOL0     H 6969   8.306   5.797   4.514  1.4913  4.0795 -0.6849
   52MOL0     H 6970   8.371   5.712   4.369  4.6253 -1.7500 -0.7145
   52MOL0     H 6971   8.491   5.692   4.735  3.5367  0.2989 -0.7576
   52MOL0     H 6972   8.541   5.462   4.867  0.5353 -0.5169  0.3448
   52MOL0     H 6973   8.385   5.377   4.838 -0.9870  0.6515 -1.7192
   52MOL0     H 6974   8.539   5.214   4.693  1.4039 -0.8867 -0.1256
   52MOL0     H 6975   8.676   5.290   4.781 -0.2877 -0.0034  2.3090
   52MOL0     H 6976   8.449   5.123   4.896 -0.7623  0.5363  0.9651
   52MOL0     H 6977   8.523   5.255   4.994  0.3899  1.6294 -0.2782
   52MOL0     H 6978   8.734   5.092   4.851  3.1516 -3.2588  3.0520
   52MOL0     H 6979   8.633   4.994   4.954 -0.1698 -0.3168  0.5455
   52MOL0     H 6980   8.622   5.309   5.216 -2.2052 -0.6082 -0.5329
   52MOL0     H 6981   8.558   5.253   5.439  1.9804  0.9523  1.1879
   52MOL0     H 6982   8.507   4.716   5.628  2.8495  1.1138 -0.0905
   52MOL0     H 6983   8.388   4.621   5.830 -0.0854  0.6813 -0.0573
   52MOL0     H 6984   8.266   4.707   6.021  0.3860  1.3262 -0.9185
   52MOL0     H 6985   8.311   4.560   6.093  4.1994 -0.1460  1.2650
   52MOL0     H 6986   8.235   4.816   6.221 -1.1683  0.1497  2.3527
   52MOL0     H 6987   8.163   4.657   6.255 -0.4357  0.8392  1.0301
   52MOL0     H 6988   8.434   4.747   6.366 -1.3244  3.3277  3.3965
   52MOL0     H 6989   8.291   4.800   6.433  3.8296  4.0287 -3.7926
   52MOL0     H 6990   8.390   4.506   6.386 -3.0309 -2.6934 -0.4911
   52MOL0     H 6991   8.235   4.532   6.454 -1.6135  0.0467 -3.1165
   52MOL0     H 6992   8.500   4.641   6.568  0.7902 -1.5770  0.7286
   52MOL0     H 6993   8.422   4.496   6.620 -0.9261 -0.1426  1.4166
   52MOL0     H 6994   8.334   4.778   6.641  0.3319 -0.5249 -1.9613
   52MOL0     H 6995   8.218   4.659   6.654 -0.0588  1.8424 -1.1753
   52MOL0     H 6996   8.487   4.669   6.815  0.3997 -0.0700 -0.1521
   52MOL0     H 6997   8.368   4.558   6.865 -2.0936  1.3680  1.8451
   52MOL0     H 6998   8.348   4.716   7.016 -3.8628 -1.7944 -0.0844
   52MOL0     H 6999   8.378   4.855   6.906  1.4292 -0.9530 -0.1127
   52MOL0     H 7000   8.624   4.900   6.076 -4.1235  0.4679 -0.0612
   52MOL0     H 7001   8.736   4.972   5.848  1.0650 -0.4300 -0.8459
   52MOL0     H 7002   8.737   4.856   5.392  0.8415  0.0241  0.4038
   52MOL0     H 7003   8.787   4.915   5.165 -1.3159 -3.0258  0.1396
   52MOL0     H 7004   9.043   5.438   4.119 -0.6120 -0.1875 -1.3886
   52MOL0     H 7005   9.287   5.500   4.132  0.5273  1.0111 -0.3715
   52MOL0     H 7006   9.553   5.831   3.866 -1.3316 -0.3374  1.1155
   52MOL0     H 7007   9.747   5.921   3.797 -2.7436 -0.9302 -0.0985
   52MOL0     H 7008   9.995   6.026   3.785 -2.1420 -0.6640  0.5705
   52MOL0     H 7009   9.994   5.852   3.807  2.4697 -1.2149 -0.1105
   52MOL0     H 7010  10.193   5.890   3.779 -1.1012  1.8702 -0.5301
   52MOL0     H 7011  10.202   5.879   3.955  0.0279  1.0930  2.4923
   52MOL0     H 7012  10.201   6.122   3.985  1.8948  2.6286 -0.9849
   52MOL0     H 7013  10.197   6.142   3.814 -1.8165 -1.0675 -0.4358
   52MOL0     H 7014  10.421   6.185   3.910 -2.8979  0.7047  2.3770
   52MOL0     H 7015  10.430   6.015   3.976  4.9545 -1.7423 -3.3034
   52MOL0     H 7016  10.574   5.999   3.583 -2.5838 -0.7915 -1.4834
   52MOL0     H 7017   9.889   5.908   4.202 -0.1055  1.1912 -1.6871
   52MOL0     H 7018   9.639   5.692   4.346  2.2998 -0.7323  0.2649
   52MOL0     H 7019   9.750   5.822   4.388 -3.4889  2.5914  3.9418
   52MOL0     H 7020   9.576   5.851   4.368  1.9026  0.5517  3.5180
   53MOL0     O 7021  10.756   5.715  10.979 -0.8583  0.0291 -0.4436
   53MOL0     C 7022  10.668   5.623  10.980 -1.5534 -0.1174  0.6373
   53MOL0     O 7023  10.567   5.628  10.904  0.2514 -0.3877 -0.1644
   53MOL0     C 7024  10.563   5.697  10.778 -0.6181  0.2040  0.0407
   53MOL0     C 7025  10.456   5.772  10.744 -0.8513 -0.9673  0.4331
   53MOL0     C 7026  10.455   5.836  10.616  0.7647 -0.7062 -0.5643
   53MOL0     C 7027  10.558   5.810  10.534  0.6499  0.6658  0.3092
   53MOL0     O 7028  10.561   5.871  10.414  0.0401  0.0027  0.4152
   53MOL0     C 7029  10.458   5.827  10.321  0.4344  0.0142  0.8079
   53MOL0     C 7030  10.526   5.790  10.190 -0.6818 -0.2992  0.7425
   53MOL0     C 7031  10.420   5.735  10.087 -0.5659 -0.5452 -0.6962
   53MOL0     C 7032  10.382   5.588  10.100  0.5742 -0.0960 -0.3080
   53MOL0     C 7033  10.274   5.537  10.003  0.1317 -0.1229 -0.6581
   53MOL0     C 7034  10.320   5.494   9.860  0.3955  0.0310 -0.2114
   53MOL0     C 7035  10.203   5.445   9.763 -0.9139 -0.0824  0.4207
   53MOL0     C 7036  10.123   5.323   9.816  0.1333 -0.4608  0.0757
   53MOL0     N 7037  10.047   5.253   9.708  0.5699  0.1610  0.2904
   53MOL0     C 7038   9.990   5.320   9.599  0.0571 -0.1121 -0.1915
   53MOL0     C 7039   9.977   5.221   9.507 -0.0301 -0.1820  0.4169
   53MOL0     C 7040   9.911   5.239   9.371 -0.1388  0.5380 -0.4523
   53MOL0     C 7041  10.014   5.247   9.262 -0.3911  0.0566 -0.3589
   53MOL0     C 7042   9.950   5.264   9.126  1.2473 -0.5306  0.4252
   53MOL0     C 7043   9.871   5.137   9.085 -0.4807 -0.2002 -0.4109
   53MOL0     O 7044   9.748   5.114   9.149  0.0176  0.0517  0.1699
   53MOL0     C 7045   9.692   4.996   9.122  0.6001  0.0285  0.4501
   53MOL0     C 7046   9.740   4.893   9.036 -0.6045  0.3402  0.3548
   53MOL0     C 7047   9.679   4.767   9.023  0.1344 -0.0878 -0.2398
   53MOL0     C 7048   9.544   4.745   9.077 -0.1862  0.0237 -0.9464
   53MOL0     C 7049   9.479   4.612   9.070  0.4240 -0.8118 -0.0968
   53MOL0     O 7050   9.372   4.589   9.144 -0.4602  0.9377 -0.2514
   53MOL0     C 7051   9.313   4.466   9.157 -0.2073  1.0991  1.3907
   53MOL0     C 7052   9.374   4.338   9.150 -0.4347 -0.4849 -0.6137
   53MOL0     C 7053   9.294   4.231   9.150 -0.8688  0.9928  0.1695
   53MOL0     C 7054   9.149   4.234   9.153 -1.3060 -0.1248  0.5857
   53MOL0     O 7055   9.061   4.133   9.166 -0.7338 -0.2522 -0.4227
   53MOL0     C 7056   9.101   3.995   9.177  0.4971 -0.3501  0.2054
   53MOL0     C 7057   9.150   3.953   9.315  0.2132  0.5504  0.4485
   53MOL0     C 7058   9.035   3.975   9.418 -0.4525 -0.2122  0.2835
   53MOL0     C 7059   9.098   3.979   9.553 -0.3941 -0.3638 -0.6844
   53MOL0     C 7060   8.981   3.993   9.647 -0.6233 -0.1657 -0.0157
   53MOL0     C 7061   9.011   4.010   9.794  0.5223  0.2049 -0.9518
   53MOL0     C 7062   8.895   3.953   9.883 -1.0557  1.1883  0.4433
   53MOL0     C 7063   8.774   4.034   9.879  0.4108 -0.0873  1.1985
   53MOL0    Cl 7064   8.637   3.966   9.968  0.1432  0.1830 -0.1964
   53MOL0     C 7065   9.085   4.356   9.155 -0.2967  0.4656 -0.4975
   53MOL0     C 7066   9.174   4.469   9.165  0.1902  0.0449 -0.0018
   53MOL0     O 7067   9.536   4.531   8.992  0.1913 -0.2377  0.4567
   53MOL0     C 7068   9.488   4.847   9.156 -0.3141 -0.4515  0.3384
   53MOL0     C 7069   9.560   4.972   9.176 -0.5987  0.1261 -0.2933
   53MOL0     N 7070  10.038   5.107   9.552 -0.3251 -0.1906 -0.0760
   53MOL0     N 7071  10.084   5.129   9.671 -0.0183 -0.1046  0.5615
   53MOL0     C 7072  10.662   5.729  10.569 -1.0350 -0.0781  0.2816
   53MOL0     C 7073  10.673   5.677  10.697 -0.1289 -0.4818  0.1942
   53MOL0     C 7074  10.650   5.530  11.101 -0.2983  0.7244  0.0672
   53MOL0     C 7075  10.536   5.453  11.111  0.3817 -0.0864  0.3291
   53MOL0     C 7076  10.528   5.354  11.199  0.5332  0.1096 -0.6202
   53MOL0     C 7077  10.628   5.321  11.285 -0.8816  1.3143 -0.3264
   53MOL0     O 7078  10.616   5.200  11.353 -0.2613 -0.9538  0.3437
   53MOL0     C 7079  10.713   5.166  11.456 -0.0257  0.0500 -0.6706
   53MOL0     C 7080  10.823   5.074  11.412  0.2751  0.5023  0.3941
   53MOL0     C 7081  10.785   4.937  11.371 -0.2555  1.6580  0.2362
   53MOL0     C 7082  10.771   4.942  11.219  0.3327  0.2760  2.3029
   53MOL0     C 7083  10.749   4.807  11.167 -0.4094  0.2680 -0.2112
   53MOL0     C 7084  10.706   4.692  11.126  0.2933 -0.8667  0.3131
   53MOL0     C 7085  10.743   5.401  11.287 -0.0753  0.8781  0.4185
   53MOL0     C 7086  10.757   5.508  11.193  0.7876 -0.7437  0.5805
   53MOL0     C 7087  10.887   5.575  11.192 -0.4500 -0.0249 -0.2810
   53MOL0     H 7088  10.378   5.785  10.818 -1.4467 -1.2711 -0.1350
   53MOL0     H 7089  10.374   5.902  10.584  0.1021 -0.7376  0.9563
   53MOL0     H 7090  10.413   5.736  10.362 -0.6507  1.1167  2.1694
   53MOL0     H 7091  10.384   5.908  10.316  1.2338  0.9126  2.5017
   53MOL0     H 7092  10.606   5.718  10.207 -1.3459 -1.0196  0.8630
   53MOL0     H 7093  10.565   5.877  10.136 -3.8399  0.7431 -0.0584
   53MOL0     H 7094  10.460   5.755   9.987  1.4271 -0.5362  0.0545
   53MOL0     H 7095  10.333   5.797  10.108  0.2486  0.7751 -1.1074
   53MOL0     H 7096  10.469   5.521  10.087 -0.8884 -1.8042 -1.8970
   53MOL0     H 7097  10.343   5.580  10.202  2.8588 -0.0042  0.6413
   53MOL0     H 7098  10.216   5.467  10.063 -1.0040  1.1756 -0.1846
   53MOL0     H 7099  10.216   5.629   9.987  1.5678  1.4536  2.3629
   53MOL0     H 7100  10.365   5.580   9.810  1.8047 -0.0990  0.7990
   53MOL0     H 7101  10.396   5.417   9.869 -1.0314 -1.1618  4.2913
   53MOL0     H 7102  10.253   5.413   9.671 -1.2448  1.9817 -0.5326
   53MOL0     H 7103  10.150   5.529   9.718  2.6455  1.8514 -0.5868
   53MOL0     H 7104  10.188   5.250   9.864 -0.4016 -1.4612 -0.6814
   53MOL0     H 7105  10.062   5.366   9.896  2.7439 -0.4891  2.2075
   53MOL0     H 7106   9.949   5.421   9.595 -0.4601 -0.2334  1.4240
   53MOL0     H 7107   9.848   5.150   9.358  2.0354 -0.9089 -1.8186
   53MOL0     H 7108   9.843   5.324   9.370  0.2481  0.8840  0.6723
   53MOL0     H 7109  10.092   5.318   9.291 -2.0621  1.4293  1.0368
   53MOL0     H 7110  10.077   5.158   9.262 -1.6636 -0.8755  0.1153
   53MOL0     H 7111  10.035   5.284   9.060  1.6243 -2.2147  0.3583
   53MOL0     H 7112   9.893   5.358   9.126  0.2169 -1.1006 -1.6249
   53MOL0     H 7113   9.936   5.052   9.109 -1.6003 -0.7580  0.7841
   53MOL0     H 7114   9.864   5.141   8.976  3.2631 -0.8793 -0.7986
   53MOL0     H 7115   9.822   4.910   8.967 -1.1802  4.4926  0.4612
   53MOL0     H 7116   9.727   4.691   8.961 -0.7382 -1.3029  0.5352
   53MOL0     H 7117   9.483   4.340   9.148 -0.3419  1.7736  1.1763
   53MOL0     H 7118   9.345   4.135   9.153  2.0927  2.4620  2.1722
   53MOL0     H 7119   9.019   3.931   9.144  1.4316 -1.1323 -0.6769
   53MOL0     H 7120   9.180   3.972   9.104  1.3315  0.6779  0.7487
   53MOL0     H 7121   9.180   3.848   9.309 -1.4317  0.1084 -1.3194
   53MOL0     H 7122   9.239   4.013   9.333 -1.3021  3.0850 -0.0122
   53MOL0     H 7123   8.962   4.055   9.401 -0.8671 -0.3546  1.3275
   53MOL0     H 7124   8.972   3.885   9.420  2.0498 -2.0471  0.5476
   53MOL0     H 7125   9.168   4.063   9.551 -0.0201 -0.6606 -2.9063
   53MOL0     H 7126   9.153   3.889   9.579  0.4031  0.1547 -0.5589
   53MOL0     H 7127   8.931   3.896   9.635  1.1607 -0.9695 -1.3816
   53MOL0     H 7128   8.912   4.066   9.604 -2.3740 -3.4955 -3.5596
   53MOL0     H 7129   9.098   3.947   9.813  0.1297 -0.7132 -2.0318
   53MOL0     H 7130   9.039   4.110   9.828 -0.7953 -0.1852  1.4973
   53MOL0     H 7131   8.949   3.951   9.978  0.5065 -1.4654 -0.3993
   53MOL0     H 7132   8.873   3.849   9.858 -0.8150  1.1317  0.4622
   53MOL0     H 7133   8.795   4.135   9.915 -1.3956  1.3078 -1.3063
   53MOL0     H 7134   8.742   4.029   9.774 -0.0930 -3.8658  1.3901
   53MOL0     H 7135   8.976   4.356   9.161 -0.4418  0.0662 -2.3918
   53MOL0     H 7136   9.133   4.566   9.187 -1.3662 -1.2676  3.6555
   53MOL0     H 7137   9.388   4.851   9.199  0.2539  0.5385  1.6330
   53MOL0     H 7138   9.513   5.057   9.225 -0.8806  0.8605 -1.7826
   53MOL0     H 7139  10.742   5.705  10.499  1.9707 -0.3061  3.5165
   53MOL0     H 7140  10.760   5.618  10.723 -0.0643  0.3620  2.1008
   53MOL0     H 7141  10.466   5.449  11.028  2.7593  3.1327 -2.0738
   53MOL0     H 7142  10.442   5.288  11.190 -0.1750  0.9093  0.0484
   53MOL0     H 7143  10.659   5.120  11.539 -0.6306 -0.3304 -1.2623
   53MOL0     H 7144  10.773   5.250  11.491  0.8707 -0.1474 -1.6996
   53MOL0     H 7145  10.887   5.063  11.500  1.5899 -1.4810 -0.6987
   53MOL0     H 7146  10.884   5.126  11.337 -1.4625  0.0185 -1.4286
   53MOL0     H 7147  10.690   4.904  11.414  0.9013 -1.2195  0.8496
   53MOL0     H 7148  10.858   4.859  11.397  1.2686  3.1994  0.8275
   53MOL0     H 7149  10.680   4.996  11.191  0.7836 -1.2224 -3.1855
   53MOL0     H 7150  10.850   4.989  11.160 -1.7073  0.9878 -0.0377
   53MOL0     H 7151  10.657   4.601  11.097  1.5871 -1.6327  0.4564
   53MOL0     H 7152  10.833   5.373  11.340 -0.0947 -0.0266  0.0032
   53MOL0     H 7153  10.939   5.568  11.096 -1.6921 -1.3974 -0.9004
   53MOL0     H 7154  10.870   5.666  11.250  1.2137 -0.7863  1.5040
   53MOL0     H 7155  10.961   5.531  11.259 -0.7949 -1.4973 -0.8283
   54MOL0     O 7156   6.462   9.172   4.778  0.0828 -0.1926  0.4733
   54MOL0     C 7157   6.456   9.050   4.767 -0.3330  0.0898 -0.7959
   54MOL0     O 7158   6.376   8.961   4.844 -0.4395 -0.5448  0.1082
   54MOL0     C 7159   6.288   9.003   4.938 -0.3344  0.1582  0.9055
   54MOL0     C 7160   6.176   9.081   4.910 -0.8034 -0.6565  0.4529
   54MOL0     C 7161   6.105   9.142   5.015 -0.0034 -0.7233  0.0087
   54MOL0     C 7162   6.143   9.124   5.156  0.0571 -0.1848  0.2633
   54MOL0     O 7163   6.070   9.191   5.243  0.3210 -0.2916 -0.4378
   54MOL0     C 7164   6.131   9.212   5.373 -0.0381 -0.5727 -0.3082
   54MOL0     C 7165   6.055   9.339   5.417  0.3897  0.2789  0.2896
   54MOL0     C 7166   6.105   9.393   5.561 -0.6240 -0.6298 -0.0679
   54MOL0     C 7167   6.176   9.527   5.549 -0.9701  0.2730 -0.1962
   54MOL0     C 7168   6.325   9.518   5.583  0.3596  0.2687 -1.2049
   54MOL0     C 7169   6.392   9.653   5.567 -0.5318 -0.4376 -0.4369
   54MOL0     C 7170   6.546   9.653   5.593  0.4593  0.5511  0.4418
   54MOL0     C 7171   6.577   9.709   5.734 -0.0844 -0.7784 -0.6577
   54MOL0     N 7172   6.519   9.626   5.853  0.0283 -0.0962 -0.5369
   54MOL0     C 7173   6.553   9.492   5.869  1.0719 -0.0689 -0.0288
   54MOL0     C 7174   6.462   9.445   5.962  1.0378 -0.1698  0.6031
   54MOL0     C 7175   6.441   9.303   6.005  0.2153 -0.1666  0.1942
   54MOL0     C 7176   6.294   9.253   6.043 -0.0570  0.1195  1.5651
   54MOL0     C 7177   6.224   9.310   6.165  0.1997 -0.2373 -0.0488
   54MOL0     C 7178   6.077   9.259   6.180 -0.0271  1.3007 -0.8502
   54MOL0     O 7179   6.031   9.288   6.311 -0.6440  0.4443  0.5494
   54MOL0     C 7180   5.911   9.264   6.351  0.3628 -0.5991 -0.0334
   54MOL0     C 7181   5.825   9.161   6.309  0.6429  0.2028 -0.3153
   54MOL0     C 7182   5.696   9.156   6.368 -0.7951 -0.4843  0.0007
   54MOL0     C 7183   5.666   9.237   6.479  0.0169 -0.2811 -1.3965
   54MOL0     C 7184   5.539   9.212   6.548 -0.1194 -0.2422 -0.0795
   54MOL0     O 7185   5.477   9.317   6.616 -0.3226  0.8083  0.8281
   54MOL0     C 7186   5.345   9.307   6.668 -0.9676 -0.1119 -0.3202
   54MOL0     C 7187   5.296   9.214   6.769 -0.1538  0.4172  0.3287
   54MOL0     C 7188   5.163   9.228   6.823  0.0405 -0.0062  0.6468
   54MOL0     C 7189   5.074   9.330   6.771 -0.9836 -0.5455 -0.0194
   54MOL0     O 7190   4.955   9.347   6.828 -0.4992  0.5625  0.1490
   54MOL0     C 7191   4.861   9.239   6.799 -0.0342  0.1245 -0.5635
   54MOL0     C 7192   4.721   9.261   6.866 -0.0831  0.2483 -0.3222
   54MOL0     C 7193   4.673   9.406   6.841  0.7471  0.4828  0.0617
   54MOL0     C 7194   4.521   9.411   6.812  0.8137 -0.0340  0.8724
   54MOL0     C 7195   4.478   9.567   6.791 -0.9772 -0.0108  0.0711
   54MOL0     C 7196   4.342   9.577   6.739 -0.1731  0.2686 -0.0648
   54MOL0     C 7197   4.218   9.518   6.826 -0.9126 -0.3373 -0.6278
   54MOL0     C 7198   4.086   9.536   6.747  0.6087 -0.8642 -0.0285
   54MOL0    Cl 7199   4.067   9.406   6.627 -0.0835  0.2242  0.4859
   54MOL0     C 7200   5.124   9.421   6.682 -0.7789 -0.7461  0.6950
   54MOL0     C 7201   5.256   9.407   6.631  0.5427  0.3821  0.5345
   54MOL0     O 7202   5.499   9.095   6.546  0.0653 -0.3474  0.8557
   54MOL0     C 7203   5.747   9.343   6.519  0.5880  0.1727 -0.3293
   54MOL0     C 7204   5.862   9.354   6.445  0.6384  0.2750 -0.3514
   54MOL0     N 7205   6.374   9.547   5.987  0.6525  0.0636 -0.2754
   54MOL0     N 7206   6.402   9.647   5.933 -0.0834 -0.1305  1.1149
   54MOL0     C 7207   6.246   9.035   5.173  0.4291  0.3690 -0.1139
   54MOL0     C 7208   6.317   8.972   5.068  0.2469 -0.5894 -0.6568
   54MOL0     C 7209   6.546   8.978   4.673  0.3244  0.2755  0.0698
   54MOL0     C 7210   6.540   8.834   4.662  0.1059  0.5826 -0.9495
   54MOL0     C 7211   6.617   8.763   4.565  0.7030 -1.3357  0.0725
   54MOL0     C 7212   6.704   8.825   4.487  0.7618 -0.0715  0.4111
   54MOL0     O 7213   6.774   8.751   4.390  0.7166 -0.2576 -1.3229
   54MOL0     C 7214   6.897   8.809   4.350 -0.4922 -0.3039 -0.7981
   54MOL0     C 7215   6.977   8.721   4.259  0.6265 -0.1461 -0.0847
   54MOL0     C 7216   7.013   8.585   4.310 -0.1005  0.5520  0.3324
   54MOL0     C 7217   7.130   8.585   4.420 -0.6794  0.1925 -0.8501
   54MOL0     C 7218   7.168   8.457   4.471  0.2593  1.2977 -0.1962
   54MOL0     C 7219   7.186   8.354   4.532  0.0124  0.2345  0.3953
   54MOL0     C 7220   6.725   8.967   4.504 -0.2201 -0.7140  0.6223
   54MOL0     C 7221   6.643   9.041   4.588  1.4826 -0.4812  0.5871
   54MOL0     C 7222   6.679   9.190   4.592 -0.6967  0.0788  0.2747
   54MOL0     H 7223   6.146   9.118   4.813 -1.3898 -2.1787  0.0238
   54MOL0     H 7224   6.029   9.216   4.991  1.5904  0.4191 -1.7565
   54MOL0     H 7225   6.125   9.125   5.439  3.4362 -0.4750  0.3032
   54MOL0     H 7226   6.238   9.235   5.367 -0.5382  1.8454 -0.8632
   54MOL0     H 7227   5.951   9.314   5.438  0.2216 -2.0478 -2.6397
   54MOL0     H 7228   6.057   9.422   5.346 -0.0857  0.3908  0.4055
   54MOL0     H 7229   6.171   9.323   5.613  0.7540 -1.0804 -2.2817
   54MOL0     H 7230   6.012   9.403   5.617 -1.4886 -1.5640 -1.2706
   54MOL0     H 7231   6.166   9.574   5.451 -1.0466  3.3763  1.1827
   54MOL0     H 7232   6.126   9.597   5.617  2.9936  0.7861  2.5071
   54MOL0     H 7233   6.314   9.468   5.680 -5.3269 -0.8019 -2.0145
   54MOL0     H 7234   6.382   9.453   5.515 -1.0600 -0.8138 -1.4172
   54MOL0     H 7235   6.375   9.692   5.466 -0.1536 -1.1548 -0.7870
   54MOL0     H 7236   6.343   9.725   5.633 -1.5045 -0.5129 -1.0481
   54MOL0     H 7237   6.609   9.706   5.521  1.3922 -2.1133 -0.8342
   54MOL0     H 7238   6.578   9.549   5.590  2.8136  1.2087 -2.6847
   54MOL0     H 7239   6.684   9.728   5.749 -0.7944  1.2847  2.9488
   54MOL0     H 7240   6.531   9.808   5.735  0.5414 -0.4787 -1.0712
   54MOL0     H 7241   6.636   9.445   5.818  0.9239 -0.3154 -0.0429
   54MOL0     H 7242   6.474   9.242   5.921 -1.4542 -5.7654  3.1042
   54MOL0     H 7243   6.504   9.287   6.093  1.7959 -1.6164 -1.1315
   54MOL0     H 7244   6.225   9.265   5.959  2.3199  0.8708 -0.4033
   54MOL0     H 7245   6.304   9.146   6.063  0.6639 -0.6429 -2.1829
   54MOL0     H 7246   6.217   9.419   6.174 -0.6729 -0.3570  0.8858
   54MOL0     H 7247   6.282   9.280   6.252  0.2253  1.7984  0.6877
   54MOL0     H 7248   6.062   9.151   6.171 -2.8520  0.3355  7.1483
   54MOL0     H 7249   6.018   9.313   6.105  0.2630  3.7689  0.5863
   54MOL0     H 7250   5.856   9.088   6.234  1.3627  1.3926 -1.2211
   54MOL0     H 7251   5.633   9.077   6.328 -0.8014 -1.2841  1.5128
   54MOL0     H 7252   5.362   9.137   6.808  0.0653  0.5971  0.3151
   54MOL0     H 7253   5.127   9.160   6.900  0.4680 -0.8074  0.1491
   54MOL0     H 7254   4.844   9.229   6.692  1.1724 -2.3077 -0.5949
   54MOL0     H 7255   4.904   9.141   6.821 -1.1619  0.2603  2.9977
   54MOL0     H 7256   4.655   9.184   6.825 -2.4523  2.1512 -0.2347
   54MOL0     H 7257   4.720   9.245   6.974  0.0865  2.4308  0.0300
   54MOL0     H 7258   4.685   9.468   6.931 -1.8675  4.2148 -1.9213
   54MOL0     H 7259   4.735   9.465   6.773 -2.1287  2.9791 -0.6238
   54MOL0     H 7260   4.462   9.382   6.899 -0.5603 -0.1922 -0.0909
   54MOL0     H 7261   4.492   9.355   6.722  0.7276  1.2287  0.0814
   54MOL0     H 7262   4.532   9.612   6.708 -3.0042 -0.3823 -1.5354
   54MOL0     H 7263   4.500   9.637   6.872  4.1300  0.2060 -1.1837
   54MOL0     H 7264   4.333   9.685   6.719  1.7369  1.0053  2.5406
   54MOL0     H 7265   4.343   9.525   6.643 -1.9968  0.7690 -0.4039
   54MOL0     H 7266   4.208   9.584   6.913  2.2586  2.6796 -2.2693
   54MOL0     H 7267   4.228   9.419   6.872 -1.0762  0.0737  0.3285
   54MOL0     H 7268   4.008   9.528   6.824 -3.0112  3.7612 -2.6695
   54MOL0     H 7269   4.075   9.638   6.710  1.2610  0.2176  2.5465
   54MOL0     H 7270   5.053   9.500   6.658 -3.0262 -3.0056 -0.5252
   54MOL0     H 7271   5.295   9.486   6.567 -0.8097  1.5643  1.1277
   54MOL0     H 7272   5.725   9.406   6.604  0.6314  0.8451 -0.8067
   54MOL0     H 7273   5.928   9.438   6.469 -0.3525  0.4578  1.9853
   54MOL0     H 7274   6.275   9.013   5.275  0.2816 -1.6402 -0.4712
   54MOL0     H 7275   6.406   8.914   5.093  1.3319  0.8419 -1.0830
   54MOL0     H 7276   6.480   8.759   4.712  2.7316 -2.8414 -2.5043
   54MOL0     H 7277   6.590   8.662   4.534  3.5222 -2.0153 -0.4718
   54MOL0     H 7278   6.952   8.845   4.437 -2.2220  2.0302 -0.5616
   54MOL0     H 7279   6.877   8.896   4.287 -0.5169  1.1230  1.0904
   54MOL0     H 7280   7.054   8.767   4.196 -1.8761  0.4920 -2.9619
   54MOL0     H 7281   6.905   8.697   4.179  1.1970 -0.8774 -0.3859
   54MOL0     H 7282   7.043   8.530   4.220 -1.1265  2.8540 -1.5292
   54MOL0     H 7283   6.922   8.537   4.345  0.1731  0.3755  0.8108
   54MOL0     H 7284   7.223   8.612   4.369  0.0218 -3.7408 -1.9502
   54MOL0     H 7285   7.105   8.652   4.503  3.1653  0.4444  0.2836
   54MOL0     H 7286   7.203   8.260   4.580 -2.7060  0.3182  1.6712
   54MOL0     H 7287   6.812   9.018   4.463 -0.0032 -1.6010 -0.0700
   54MOL0     H 7288   6.692   9.232   4.492  0.0399 -1.7554 -0.4441
   54MOL0     H 7289   6.596   9.253   4.627  0.6646  1.1410  1.6891
   54MOL0     H 7290   6.767   9.208   4.654  0.4267  0.8407 -1.4555
   55MOL0     O 7291   3.795   1.156   6.850 -0.6459  0.4302 -0.1974
   55MOL0     C 7292   3.729   1.210   6.945  0.5167  0.4495  0.7164
   55MOL0     O 7293   3.646   1.136   7.025  0.1050 -0.7073 -0.0858
   55MOL0     C 7294   3.610   1.010   7.000 -0.1565  0.5764 -0.2255
   55MOL0     C 7295   3.572   0.967   6.878 -0.6197  1.3407  0.4697
   55MOL0     C 7296   3.503   0.840   6.869  0.3023 -0.3815  0.1555
   55MOL0     C 7297   3.480   0.757   6.984  0.7722 -0.2127  0.5587
   55MOL0     O 7298   3.432   0.629   6.987  0.0231 -0.4506  0.0209
   55MOL0     C 7299   3.447   0.558   6.864 -0.7514 -0.5898  0.2685
   55MOL0     C 7300   3.428   0.417   6.889  0.7970 -0.2889 -1.2733
   55MOL0     C 7301   3.414   0.346   6.761 -0.0389  0.1580  0.1691
   55MOL0     C 7302   3.482   0.206   6.750  0.3589  0.3181 -0.9590
   55MOL0     C 7303   3.472   0.158   6.608  0.3212  0.0617  0.4941
   55MOL0     C 7304   3.333   0.108   6.560 -0.2582  0.4813 -0.5472
   55MOL0     C 7305   3.342   0.036   6.424  0.3228 -0.0636 -0.6364
   55MOL0     C 7306   3.215   0.043   6.341  0.0794 -0.0469 -0.4019
   55MOL0     N 7307   3.256   0.005   6.208 -0.7212 -1.2893  0.5871
   55MOL0     C 7308   3.290  -0.129   6.169 -0.2210 -0.6803  0.8318
   55MOL0     C 7309   3.323  -0.106   6.038  0.7615 -0.1578 -0.5431
   55MOL0     C 7310   3.338  -0.212   5.924  0.1661  0.7474 -0.9553
   55MOL0     C 7311   3.222  -0.258   5.855 -0.9101  0.5426 -0.2516
   55MOL0     C 7312   3.105  -0.283   5.952  1.0314 -0.2488 -0.3691
   55MOL0     C 7313   2.992  -0.344   5.877 -0.0810  0.3306  1.1243
   55MOL0     O 7314   2.932  -0.448   5.961  0.6191  0.1917 -0.5390
   55MOL0     C 7315   2.839  -0.537   5.913  0.6430 -0.4622 -0.5089
   55MOL0     C 7316   2.782  -0.519   5.790 -0.1248 -0.5322 -0.6023
   55MOL0     C 7317   2.686  -0.599   5.733  0.6587  0.4046 -0.9724
   55MOL0     C 7318   2.629  -0.703   5.814 -0.6864 -0.0017  0.2777
   55MOL0     C 7319   2.530  -0.793   5.742 -0.0168 -0.3549  0.3343
   55MOL0     O 7320   2.487  -0.900   5.816  0.3843 -0.4622  0.7629
   55MOL0     C 7321   2.430  -1.009   5.760  0.2981  0.1823 -0.6202
   55MOL0     C 7322   2.445  -1.051   5.629  0.5861 -0.1651 -0.4259
   55MOL0     C 7323   2.390  -1.171   5.590  0.3668 -0.8850 -0.4583
   55MOL0     C 7324   2.320  -1.256   5.668  0.4708 -0.4650 -0.2446
   55MOL0     O 7325   2.294  -1.381   5.618 -0.9374  1.2028  0.2208
   55MOL0     C 7326   2.223  -1.492   5.690 -0.3378 -0.2730 -0.4392
   55MOL0     C 7327   2.070  -1.477   5.686 -0.7216  0.8980  0.7376
   55MOL0     C 7328   2.031  -1.468   5.535  0.4422 -0.3601 -0.1156
   55MOL0     C 7329   1.903  -1.556   5.514  0.8053 -0.6186  0.2759
   55MOL0     C 7330   1.858  -1.544   5.368 -0.0963  0.5903  0.1541
   55MOL0     C 7331   1.717  -1.601   5.352 -0.0564 -0.6348  0.1047
   55MOL0     C 7332   1.669  -1.587   5.209 -0.6051  0.9129  0.3489
   55MOL0     C 7333   1.549  -1.679   5.180 -0.3024 -0.6079 -1.0696
   55MOL0    Cl 7334   1.488  -1.661   5.009  0.1195 -0.7141 -0.3224
   55MOL0     C 7335   2.283  -1.207   5.791  0.1389  0.0092 -0.2465
   55MOL0     C 7336   2.345  -1.095   5.841 -1.3381 -0.7243  0.4244
   55MOL0     O 7337   2.497  -0.769   5.625  0.2898 -0.1324 -0.1585
   55MOL0     C 7338   2.675  -0.721   5.943 -0.1967  0.5550  0.0423
   55MOL0     C 7339   2.785  -0.644   5.994 -0.3303 -0.0112  0.6046
   55MOL0     N 7340   3.323   0.035   6.012 -0.0757  0.5318  0.4141
   55MOL0     N 7341   3.287   0.103   6.116  1.0738  0.2682  0.4432
   55MOL0     C 7342   3.520   0.810   7.113 -0.4574 -0.3283  0.6813
   55MOL0     C 7343   3.581   0.939   7.114  0.1857 -0.4846 -0.0471
   55MOL0     C 7344   3.755   1.346   6.988 -0.0924 -0.0393 -0.3298
   55MOL0     C 7345   3.698   1.399   7.107  0.3875  0.1341 -0.2507
   55MOL0     C 7346   3.720   1.528   7.154  0.7520  0.5506  0.1030
   55MOL0     C 7347   3.817   1.607   7.094 -0.8528 -0.2779  0.0727
   55MOL0     O 7348   3.859   1.729   7.153  0.2181  0.2153  0.2856
   55MOL0     C 7349   3.809   1.769   7.277  0.0933 -0.0359 -0.2277
   55MOL0     C 7350   3.881   1.687   7.383 -0.1005  0.1103  0.1700
   55MOL0     C 7351   3.837   1.729   7.528 -0.4662 -0.8804 -0.5459
   55MOL0     C 7352   3.955   1.715   7.637  0.3306  0.3741 -0.0796
   55MOL0     C 7353   4.042   1.596   7.629 -0.1141 -0.5686  0.7423
   55MOL0     C 7354   4.107   1.495   7.619  0.4622 -1.0807  0.1007
   55MOL0     C 7355   3.867   1.567   6.976 -0.1235 -0.7821 -0.4974
   55MOL0     C 7356   3.832   1.445   6.916  0.6693  0.0581  0.8548
   55MOL0     C 7357   3.907   1.413   6.792 -0.5338  0.6536  1.0534
   55MOL0     H 7358   3.584   1.005   6.777 -0.1184  1.6883  0.6575
   55MOL0     H 7359   3.469   0.813   6.770  3.8052  2.8521 -2.1879
   55MOL0     H 7360   3.374   0.594   6.791  0.5260  3.1496  0.6496
   55MOL0     H 7361   3.547   0.571   6.821 -1.0323  0.7019 -0.0435
   55MOL0     H 7362   3.345   0.389   6.954 -0.0516  0.2939 -2.0787
   55MOL0     H 7363   3.524   0.381   6.928  0.7639  0.4738 -0.4432
   55MOL0     H 7364   3.441   0.413   6.679  2.0888  0.3600  0.9845
   55MOL0     H 7365   3.310   0.313   6.748  0.6375 -2.0050 -0.2300
   55MOL0     H 7366   3.588   0.203   6.774 -0.4203  0.0772  3.0421
   55MOL0     H 7367   3.431   0.135   6.816 -0.1968  0.0171 -1.6901
   55MOL0     H 7368   3.512   0.223   6.530 -1.7974 -1.3995 -1.9681
   55MOL0     H 7369   3.546   0.078   6.604  1.2106  0.3162  5.2212
   55MOL0     H 7370   3.294   0.031   6.628  1.7599 -1.3941 -1.4086
   55MOL0     H 7371   3.270   0.197   6.549  2.1794  2.3944  0.1784
   55MOL0     H 7372   3.354  -0.064   6.466 -0.8367  0.1465  0.2514
   55MOL0     H 7373   3.433   0.076   6.378  1.0289  1.3636  1.8290
   55MOL0     H 7374   3.143  -0.031   6.376 -1.6037  2.2802  1.3517
   55MOL0     H 7375   3.168   0.142   6.341  0.0266 -0.0514  1.0170
   55MOL0     H 7376   3.284  -0.222   6.225  2.8257 -2.9702 -2.1801
   55MOL0     H 7377   3.411  -0.176   5.850 -1.1425 -0.8886 -3.1721
   55MOL0     H 7378   3.387  -0.295   5.977 -1.6558  1.5062  2.1637
   55MOL0     H 7379   3.192  -0.191   5.774 -0.5175  2.0657  0.8217
   55MOL0     H 7380   3.245  -0.353   5.806  1.6370 -0.0771  1.8819
   55MOL0     H 7381   3.080  -0.186   5.996  2.9542  0.0549  0.1429
   55MOL0     H 7382   3.134  -0.337   6.042  0.6971  2.8633  1.7713
   55MOL0     H 7383   3.034  -0.389   5.787 -1.3429 -0.5145  0.9296
   55MOL0     H 7384   2.918  -0.272   5.841 -0.5484 -1.7490 -2.4814
   55MOL0     H 7385   2.814  -0.440   5.722 -2.8556 -0.4603 -1.9762
   55MOL0     H 7386   2.651  -0.595   5.631  0.1856  2.9975 -0.7549
   55MOL0     H 7387   2.500  -0.989   5.559 -2.4782  2.1221 -1.0208
   55MOL0     H 7388   2.392  -1.197   5.485 -2.8324 -2.3044 -0.2706
   55MOL0     H 7389   2.252  -1.588   5.646  1.4991 -0.4280  0.9774
   55MOL0     H 7390   2.258  -1.498   5.794 -2.2195 -3.6489  0.1665
   55MOL0     H 7391   2.023  -1.563   5.735  0.4310 -0.2597 -0.1272
   55MOL0     H 7392   2.033  -1.392   5.743 -2.7515 -0.8941  2.2783
   55MOL0     H 7393   2.001  -1.364   5.517  1.7072 -0.1759 -1.3546
   55MOL0     H 7394   2.113  -1.493   5.467  0.7026 -2.4874  0.9265
   55MOL0     H 7395   1.824  -1.527   5.584  1.8587 -0.0134  1.2604
   55MOL0     H 7396   1.926  -1.662   5.529 -0.1234 -0.9578 -0.6328
   55MOL0     H 7397   1.924  -1.602   5.303  1.3909  1.8187  0.4997
   55MOL0     H 7398   1.854  -1.439   5.338 -1.8323  1.9498  4.3654
   55MOL0     H 7399   1.705  -1.706   5.380 -2.4787  0.1145  2.2411
   55MOL0     H 7400   1.648  -1.549   5.419 -0.6997 -0.2656 -0.8169
   55MOL0     H 7401   1.751  -1.605   5.139 -1.7721 -0.1140 -0.8223
   55MOL0     H 7402   1.640  -1.483   5.191 -1.3097  1.2358  2.9519
   55MOL0     H 7403   1.563  -1.786   5.195 -2.9761 -0.8793  0.0318
   55MOL0     H 7404   1.463  -1.653   5.242 -1.0115  0.3549 -2.3974
   55MOL0     H 7405   2.224  -1.264   5.862  1.8322 -2.3738 -0.6186
   55MOL0     H 7406   2.320  -1.068   5.943  0.2111 -1.7973  1.1327
   55MOL0     H 7407   2.630  -0.800   6.002  1.2248 -1.2642 -1.2152
   55MOL0     H 7408   2.822  -0.654   6.096 -0.1977  2.8994  0.9383
   55MOL0     H 7409   3.501   0.745   7.198  1.1254 -2.2341 -0.3108
   55MOL0     H 7410   3.624   0.977   7.206 -1.6934  0.0246  0.6599
   55MOL0     H 7411   3.639   1.333   7.171 -0.8997  1.6418  0.1858
   55MOL0     H 7412   3.674   1.557   7.248 -0.3115 -0.3929 -0.1055
   55MOL0     H 7413   3.702   1.767   7.295  0.3909  2.1368  2.5679
   55MOL0     H 7414   3.836   1.873   7.299  2.1622 -0.6652  0.4714
   55MOL0     H 7415   3.990   1.697   7.379 -0.0401 -0.4653  0.3074
   55MOL0     H 7416   3.859   1.582   7.363  0.6649  0.2406 -1.5789
   55MOL0     H 7417   3.759   1.660   7.561  0.7268 -2.1965 -0.3533
   55MOL0     H 7418   3.799   1.831   7.540  0.2822 -0.5566 -0.8547
   55MOL0     H 7419   4.017   1.805   7.633 -1.2103  1.6083  1.7529
   55MOL0     H 7420   3.922   1.713   7.742  2.0182 -0.1557  0.4829
   55MOL0     H 7421   4.167   1.407   7.623  1.4061 -0.4999 -0.8134
   55MOL0     H 7422   3.938   1.631   6.924  1.1969 -2.0929 -0.3712
   55MOL0     H 7423   3.829   1.405   6.716  0.4967 -0.7366  0.0979
   55MOL0     H 7424   3.986   1.485   6.769 -0.4041  0.0706 -0.3948
   55MOL0     H 7425   3.957   1.316   6.795 -0.5365  0.5954 -0.3765
   56MOL0     O 7426   9.964  10.016   7.720  0.3951 -0.0384 -0.6298
   56MOL0     C 7427  10.055   9.944   7.745 -0.1297  0.5280 -0.6693
   56MOL0     O 7428  10.139   9.949   7.849  0.0736 -0.2915 -0.9174
   56MOL0     C 7429  10.106  10.016   7.962 -0.3893  0.3784  0.0305
   56MOL0     C 7430  10.219  10.075   8.011 -0.6793  1.2920 -0.7766
   56MOL0     C 7431  10.219  10.141   8.134  0.5184  0.0985  0.6433
   56MOL0     C 7432  10.107  10.135   8.219  0.6165 -0.4117 -0.4783
   56MOL0     O 7433  10.097  10.177   8.345  0.1596 -0.2896  0.2286
   56MOL0     C 7434  10.206  10.179   8.437  0.3555  0.2003  0.2312
   56MOL0     C 7435  10.178  10.235   8.575 -0.4637 -0.1115  0.2698
   56MOL0     C 7436  10.305  10.292   8.640 -0.1360 -0.6288 -0.2523
   56MOL0     C 7437  10.385  10.172   8.692  0.4543  0.1008 -0.9391
   56MOL0     C 7438  10.524  10.209   8.747  0.8551  0.1913 -0.1513
   56MOL0     C 7439  10.619  10.093   8.760  0.5375  1.2509  0.2117
   56MOL0     C 7440  10.761  10.141   8.794  0.1594  0.3196 -0.3875
   56MOL0     C 7441  10.865  10.029   8.833 -0.3489  0.4686  0.7613
   56MOL0     N 7442  10.833   9.977   8.964 -0.9751 -0.1741  0.4213
   56MOL0     C 7443  10.861  10.039   9.081 -0.4167  0.4613  0.1689
   56MOL0     C 7444  10.849   9.952   9.176  0.4314  0.5477  0.3529
   56MOL0     C 7445  10.880   9.973   9.320 -0.4652 -1.1576  0.3433
   56MOL0     C 7446  10.819  10.109   9.380 -0.5968 -0.2621  0.5171
   56MOL0     C 7447  10.708  10.098   9.475  0.1869 -0.5856  0.0168
   56MOL0     C 7448  10.750  10.006   9.593 -0.1691  0.5124  0.0085
   56MOL0     O 7449  10.871  10.054   9.656 -0.5182  0.3301 -0.7566
   56MOL0     C 7450  10.862  10.113   9.784 -0.8207  0.6399 -0.5435
   56MOL0     C 7451  10.761  10.192   9.837 -0.1991 -0.6628 -0.2963
   56MOL0     C 7452  10.757  10.246   9.968  1.1988  0.2363  0.2110
   56MOL0     C 7453  10.861  10.211  10.051 -0.2756  0.3022 -0.3689
   56MOL0     C 7454  10.871  10.281  10.187 -0.3078  1.4039  0.3409
   56MOL0     O 7455  10.779  10.365  10.237  0.3184 -0.7024 -0.6437
   56MOL0     C 7456  10.793  10.409  10.372  0.2219 -1.0133 -0.5794
   56MOL0     C 7457  10.855  10.530  10.389 -0.5370 -0.2952  0.0055
   56MOL0     C 7458  10.886  10.575  10.522  0.0736 -0.6530 -0.6422
   56MOL0     C 7459  10.830  10.505  10.633  0.9210  0.2673 -0.6682
   56MOL0     O 7460  10.855  10.562  10.754 -0.1371 -1.0278 -0.0036
   56MOL0     C 7461  10.786  10.531  10.872 -0.1479 -0.1459 -0.7195
   56MOL0     C 7462  10.637  10.569  10.879 -0.7563 -0.2816 -1.8136
   56MOL0     C 7463  10.580  10.563  11.025 -0.2399 -0.4217  0.7151
   56MOL0     C 7464  10.458  10.655  11.035  0.0812  0.2026 -0.5029
   56MOL0     C 7465  10.404  10.648  11.182 -0.1827 -0.3927 -1.1536
   56MOL0     C 7466  10.303  10.765  11.202 -0.0644 -0.1322 -0.5655
   56MOL0     C 7467  10.205  10.746  11.323 -0.2530  0.4302 -0.4954
   56MOL0     C 7468  10.109  10.864  11.337 -0.4481 -0.0828  0.1388
   56MOL0    Cl 7469  10.028  10.857  11.493 -0.2218  0.0428  0.3119
   56MOL0     C 7470  10.762  10.384  10.613 -0.4208 -0.0855 -0.1018
   56MOL0     C 7471  10.755  10.331  10.481  0.0624  1.0176 -0.2924
   56MOL0     O 7472  10.974  10.239  10.251  1.0565 -0.0774  0.5168
   56MOL0     C 7473  10.967  10.135  10.006  0.7651  0.5970 -0.2185
   56MOL0     C 7474  10.968  10.088   9.874 -0.3119 -0.1203  0.3872
   56MOL0     N 7475  10.790   9.840   9.121 -0.8073 -1.1463  0.1625
   56MOL0     N 7476  10.789   9.850   8.995  0.5994 -0.6073  0.2706
   56MOL0     C 7477   9.999  10.071   8.162  0.1984 -0.1101 -0.8078
   56MOL0     C 7478   9.990  10.017   8.040 -0.3592 -0.9301  0.3355
   56MOL0     C 7479  10.078   9.825   7.666 -0.1965  0.7064  0.2105
   56MOL0     C 7480  10.081   9.698   7.718  0.1075  1.1389 -0.2092
   56MOL0     C 7481  10.088   9.586   7.637 -0.3044  0.5611  0.7603
   56MOL0     C 7482  10.090   9.607   7.496 -0.4361  0.2978 -0.1596
   56MOL0     O 7483  10.099   9.499   7.409 -0.0814 -0.0095 -0.7333
   56MOL0     C 7484  10.055   9.498   7.272  0.8713  0.4842  0.2021
   56MOL0     C 7485  10.038   9.357   7.225 -0.3041 -0.1214 -0.7501
   56MOL0     C 7486  10.168   9.288   7.198 -0.2336  0.1727 -0.3095
   56MOL0     C 7487  10.263   9.342   7.088  0.5602 -0.1150  0.2567
   56MOL0     C 7488  10.192   9.376   6.955  0.0926 -1.2728  0.3484
   56MOL0     C 7489  10.120   9.395   6.858 -0.0070 -0.8400 -0.0603
   56MOL0     C 7490  10.085   9.737   7.449  0.9534 -0.5116  0.7958
   56MOL0     C 7491  10.082   9.849   7.527  1.0090 -0.4296  0.4683
   56MOL0     C 7492  10.072   9.982   7.461 -0.2341  0.3704  0.5815
   56MOL0     H 7493  10.309  10.094   7.953 -0.2995  1.2767 -0.1957
   56MOL0     H 7494  10.304  10.199   8.169  0.4785  0.6287 -0.1044
   56MOL0     H 7495  10.237  10.075   8.449  1.5145 -0.0777 -3.6578
   56MOL0     H 7496  10.286  10.232   8.383  0.1448 -1.0305 -1.3612
   56MOL0     H 7497  10.132  10.162   8.642  0.2135 -1.0220 -0.2416
   56MOL0     H 7498  10.110  10.321   8.565  0.4460  0.7907  1.4969
   56MOL0     H 7499  10.282  10.355   8.727  1.6222 -1.4711  0.8713
   56MOL0     H 7500  10.361  10.348   8.564 -2.9913  0.0838 -1.9859
   56MOL0     H 7501  10.337  10.119   8.775  0.3482  4.1527  1.8810
   56MOL0     H 7502  10.392  10.097   8.612 -4.2595  0.1100 -1.6448
   56MOL0     H 7503  10.559  10.279   8.671 -1.1495  0.3970 -0.9520
   56MOL0     H 7504  10.513  10.252   8.847 -1.2547 -1.3140  0.3526
   56MOL0     H 7505  10.588  10.027   8.842  0.8907  0.5676 -0.1980
   56MOL0     H 7506  10.627  10.032   8.670  0.5198 -0.5607  1.3760
   56MOL0     H 7507  10.765  10.215   8.875  2.7609  1.3248 -1.3551
   56MOL0     H 7508  10.797  10.201   8.711 -0.6151 -0.2788 -1.1778
   56MOL0     H 7509  10.840   9.958   8.754 -1.0156  3.2016 -1.6725
   56MOL0     H 7510  10.967  10.066   8.818 -0.0242 -1.1911 -1.7243
   56MOL0     H 7511  10.906  10.137   9.096 -0.0343  0.4423 -0.7655
   56MOL0     H 7512  10.842   9.889   9.379  1.4916 -0.2317  3.1696
   56MOL0     H 7513  10.988   9.965   9.338 -0.1047 -2.8452 -2.1081
   56MOL0     H 7514  10.908  10.159   9.420 -1.2629 -0.2308  2.0198
   56MOL0     H 7515  10.770  10.162   9.297  0.5834  1.5826  0.9495
   56MOL0     H 7516  10.625  10.054   9.419  0.6342  1.2181 -2.2033
   56MOL0     H 7517  10.677  10.196   9.512 -0.5873 -1.5752  2.1443
   56MOL0     H 7518  10.772   9.906   9.555  0.1630  1.1908 -1.7104
   56MOL0     H 7519  10.664  10.001   9.660 -2.5310  0.4908 -2.7904
   56MOL0     H 7520  10.679  10.223   9.772 -0.7592  2.2261  1.5879
   56MOL0     H 7521  10.685  10.323   9.995  1.4185  0.5912 -0.1965
   56MOL0     H 7522  10.883  10.584  10.298 -0.1295 -0.8665 -0.2131
   56MOL0     H 7523  10.940  10.669  10.513 -1.4206  0.0495 -3.6033
   56MOL0     H 7524  10.785  10.423  10.885 -3.1288  0.0084  1.5736
   56MOL0     H 7525  10.841  10.570  10.959  1.4135 -1.3752 -1.1002
   56MOL0     H 7526  10.616  10.670  10.843  0.3567  0.6665  0.0864
   56MOL0     H 7527  10.580  10.505  10.811 -2.0251  0.2411 -1.2891
   56MOL0     H 7528  10.548  10.460  11.043  1.6597 -0.6759  3.0161
   56MOL0     H 7529  10.648  10.596  11.104 -1.6139 -0.0153  1.7554
   56MOL0     H 7530  10.388  10.619  10.959  0.4331  1.2699 -1.3615
   56MOL0     H 7531  10.483  10.758  11.007  0.3816  0.0802 -0.6855
   56MOL0     H 7532  10.496  10.635  11.241 -0.2962 -0.7119 -1.0429
   56MOL0     H 7533  10.338  10.561  11.192 -2.1487  0.9483 -1.9102
   56MOL0     H 7534  10.374  10.847  11.220  2.0546 -2.3108  1.7732
   56MOL0     H 7535  10.255  10.794  11.108  1.1607 -1.0560 -1.5041
   56MOL0     H 7536  10.278  10.750  11.404 -0.5580 -0.0424 -0.1886
   56MOL0     H 7537  10.144  10.655  11.317 -0.0612  0.3915 -2.2975
   56MOL0     H 7538  10.178  10.949  11.335 -0.7316  0.1381 -0.8363
   56MOL0     H 7539  10.039  10.876  11.254  2.3061 -1.3183 -2.5836
   56MOL0     H 7540  10.716  10.333  10.697  3.2811 -1.7221  1.1255
   56MOL0     H 7541  10.708  10.235  10.461 -1.1293  1.2313  1.3103
   56MOL0     H 7542  11.044  10.097  10.072  0.1048 -4.2401 -1.8569
   56MOL0     H 7543  11.054  10.045   9.824 -1.7437  1.7541 -4.3103
   56MOL0     H 7544   9.904  10.055   8.212  0.0723  1.3685 -0.5216
   56MOL0     H 7545   9.894   9.980   8.007 -1.8862  2.4303  0.6450
   56MOL0     H 7546  10.093   9.674   7.823  1.1991  1.1277 -0.3241
   56MOL0     H 7547  10.092   9.488   7.684 -0.7909  0.5584  0.7962
   56MOL0     H 7548  10.120   9.555   7.205 -0.2131 -0.4836 -1.7827
   56MOL0     H 7549   9.953   9.538   7.271  0.5579 -0.1466 -2.9042
   56MOL0     H 7550   9.970   9.359   7.139 -1.5245  0.8201  0.1967
   56MOL0     H 7551   9.984   9.306   7.305  0.0564  1.6948  0.7324
   56MOL0     H 7552  10.143   9.183   7.182 -0.7560 -0.0585  1.7318
   56MOL0     H 7553  10.229   9.284   7.289  1.0084  2.2062 -0.9922
   56MOL0     H 7554  10.301   9.439   7.121 -0.6338  1.2381 -2.0838
   56MOL0     H 7555  10.338   9.265   7.064 -0.2102 -0.5684 -0.7693
   56MOL0     H 7556  10.065   9.395   6.766  1.1838  2.4779 -0.9148
   56MOL0     H 7557  10.091   9.748   7.342  0.7189  0.2436  0.8566
   56MOL0     H 7558  10.147  10.051   7.499  0.2231 -1.2427  2.7878
   56MOL0     H 7559  10.077   9.986   7.352 -2.2183  0.3960  0.4461
   56MOL0     H 7560   9.973  10.026   7.478  1.4217  3.6417  2.7684
   57MOL0     O 7561   0.185  10.840   7.940  1.2263 -0.1783 -0.5095
   57MOL0     C 7562   0.305  10.832   7.930  0.1319  0.5438 -0.7386
   57MOL0     O 7563   0.371  10.802   7.812 -0.4404 -0.0829  0.0876
   57MOL0     C 7564   0.313  10.771   7.689  0.7653  1.0338  0.5184
   57MOL0     C 7565   0.401  10.774   7.586 -0.2293  0.1715 -0.1134
   57MOL0     C 7566   0.365  10.736   7.457  0.7528 -0.6324  0.7101
   57MOL0     C 7567   0.226  10.715   7.431 -0.1522 -0.0790  0.7244
   57MOL0     O 7568   0.159  10.696   7.312 -0.0364  0.3641  0.3762
   57MOL0     C 7569   0.236  10.655   7.198 -0.8645  0.2447 -0.5375
   57MOL0     C 7570   0.151  10.573   7.100  1.1445  0.0975  0.6231
   57MOL0     C 7571   0.058  10.668   7.021 -0.7534  0.1892  0.3854
   57MOL0     C 7572   0.139  10.730   6.907 -1.0615 -0.1300  0.1623
   57MOL0     C 7573   0.073  10.846   6.844 -0.0768  0.5637  0.3799
   57MOL0     C 7574  -0.053  10.795   6.778  0.2124  0.6879  0.1065
   57MOL0     C 7575  -0.133  10.910   6.720 -0.0233 -0.8257 -0.2788
   57MOL0     C 7576  -0.088  10.952   6.577  1.2698  0.4098  0.7575
   57MOL0     N 7577   0.005  11.059   6.579 -1.0731  0.6017 -0.1214
   57MOL0     C 7578   0.031  11.137   6.687  1.3663 -0.0841 -1.2479
   57MOL0     C 7579   0.082  11.252   6.646 -0.0361  0.0043 -0.0446
   57MOL0     C 7580   0.143  11.375   6.714 -0.0382  0.7864  0.8692
   57MOL0     C 7581   0.079  11.509   6.670  0.7511 -0.5860 -0.5439
   57MOL0     C 7582   0.134  11.559   6.533 -0.4962  0.1838 -0.0882
   57MOL0     C 7583   0.076  11.705   6.498 -0.1113 -0.0787  0.0023
   57MOL0     O 7584  -0.075  11.699   6.490  0.6616 -0.4482  0.1487
   57MOL0     C 7585  -0.120  11.661   6.360 -0.8874 -1.0022 -1.1641
   57MOL0     C 7586  -0.260  11.666   6.353 -0.3026 -0.1861  1.0522
   57MOL0     C 7587  -0.315  11.639   6.226  0.0050  0.1026  0.2474
   57MOL0     C 7588  -0.236  11.602   6.110  0.4511 -0.5112  0.9701
   57MOL0     C 7589  -0.307  11.552   5.989  0.0147  0.1654  0.2048
   57MOL0     O 7590  -0.430  11.599   5.958  0.2684 -0.6331  0.6100
   57MOL0     C 7591  -0.509  11.557   5.852 -0.0137 -0.0440  0.0015
   57MOL0     C 7592  -0.563  11.430   5.855  0.2178  0.4213 -0.3544
   57MOL0     C 7593  -0.653  11.388   5.760 -0.6606  0.2355 -0.0252
   57MOL0     C 7594  -0.675  11.467   5.644  0.4879 -1.4579  0.0704
   57MOL0     O 7595  -0.759  11.425   5.553  0.3633 -0.4866 -0.4502
   57MOL0     C 7596  -0.793  11.511   5.437 -0.6995  0.1031  0.0029
   57MOL0     C 7597  -0.681  11.511   5.323 -0.8010  0.5115 -0.3378
   57MOL0     C 7598  -0.654  11.368   5.277  0.9800  0.3323  0.8415
   57MOL0     C 7599  -0.590  11.352   5.144 -0.2857 -0.9221 -0.4801
   57MOL0     C 7600  -0.595  11.201   5.100 -0.6797  0.2937 -1.0000
   57MOL0     C 7601  -0.628  11.175   4.951 -0.1407 -0.4608 -0.9497
   57MOL0     C 7602  -0.649  11.022   4.918 -1.0829  0.2360  0.1376
   57MOL0     C 7603  -0.547  10.935   4.981 -0.2742 -0.2647  0.0873
   57MOL0    Cl 7604  -0.575  10.782   4.900 -0.7388 -0.0734  0.1015
   57MOL0     C 7605  -0.603  11.589   5.632 -1.1804 -1.8977  0.2393
   57MOL0     C 7606  -0.515  11.631   5.731 -0.3051  0.0302  0.6221
   57MOL0     O 7607  -0.252  11.465   5.931  0.3691  0.5073 -0.6719
   57MOL0     C 7608  -0.100  11.589   6.128  1.0245  0.0310  0.0731
   57MOL0     C 7609  -0.039  11.616   6.254  0.5121 -0.0201  0.8206
   57MOL0     N 7610   0.091  11.237   6.510  0.0564  0.7326  0.2031
   57MOL0     N 7611   0.046  11.130   6.473  0.3461  0.3453 -0.6175
   57MOL0     C 7612   0.144  10.703   7.537 -0.1810 -0.0114 -0.7786
   57MOL0     C 7613   0.186  10.718   7.667  0.1664 -1.1179  0.8821
   57MOL0     C 7614   0.385  10.857   8.053  0.5607 -0.8470  0.3916
   57MOL0     C 7615   0.521  10.859   8.026  0.9051  0.3205  0.3815
   57MOL0     C 7616   0.612  10.881   8.126  0.1884  0.9016  0.0195
   57MOL0     C 7617   0.563  10.902   8.265 -1.5748 -0.3077  0.2921
   57MOL0     O 7618   0.638  10.902   8.379  0.4060 -1.0103  1.0518
   57MOL0     C 7619   0.786  10.871   8.359  0.2491 -0.7234 -0.6270
   57MOL0     C 7620   0.876  10.866   8.485 -0.4936 -0.5225 -0.8105
   57MOL0     C 7621   1.024  10.813   8.442  0.3401 -0.5141  0.3372
   57MOL0     C 7622   1.107  10.751   8.563  0.8554  0.0556  0.1688
   57MOL0     C 7623   1.133  10.857   8.657  0.9528  0.3238 -0.2869
   57MOL0     C 7624   1.141  10.959   8.731 -0.4013  0.5516  0.8714
   57MOL0     C 7625   0.427  10.903   8.288  0.6613 -0.1509  0.0166
   57MOL0     C 7626   0.338  10.884   8.186  0.5071  0.2115 -0.4605
   57MOL0     C 7627   0.189  10.902   8.218 -0.0908 -0.4706  0.6474
   57MOL0     H 7628   0.496  10.813   7.620  0.2187  1.3048 -2.4610
   57MOL0     H 7629   0.446  10.746   7.386 -0.6643  3.4348 -0.6669
   57MOL0     H 7630   0.278  10.750   7.162 -0.8559  0.7297  0.7076
   57MOL0     H 7631   0.310  10.581   7.228 -3.9022 -1.2996  4.1147
   57MOL0     H 7632   0.090  10.495   7.148 -0.8819  1.2350  0.0127
   57MOL0     H 7633   0.219  10.523   7.030  0.6160 -0.9017  0.7937
   57MOL0     H 7634   0.019  10.739   7.094  0.4610 -1.4120  2.7632
   57MOL0     H 7635  -0.030  10.613   6.988 -1.7646  1.5836  0.6986
   57MOL0     H 7636   0.239  10.757   6.943 -2.1264  3.1254  0.9938
   57MOL0     H 7637   0.163  10.660   6.826 -2.8560  0.7380 -1.1962
   57MOL0     H 7638   0.055  10.919   6.924  3.5842  0.2207  1.7452
   57MOL0     H 7639   0.143  10.882   6.769 -0.7517 -3.2453 -2.3691
   57MOL0     H 7640  -0.024  10.728   6.697 -0.0371 -1.6701  1.8727
   57MOL0     H 7641  -0.117  10.735   6.843  1.2918 -2.5104 -1.5819
   57MOL0     H 7642  -0.153  10.991   6.791 -0.2566  0.6688 -1.9579
   57MOL0     H 7643  -0.229  10.864   6.697 -0.1088 -0.2398 -1.1672
   57MOL0     H 7644  -0.061  10.859   6.525 -0.8459 -0.8159  1.7094
   57MOL0     H 7645  -0.173  10.990   6.521  3.0092  0.8437 -1.7817
   57MOL0     H 7646   0.022  11.122   6.794  0.4188 -2.0190 -1.5570
   57MOL0     H 7647   0.139  11.356   6.822 -3.2850 -0.9401  0.5614
   57MOL0     H 7648   0.249  11.378   6.687 -0.5189 -2.0011 -1.7463
   57MOL0     H 7649  -0.031  11.509   6.668  0.6395  2.8665 -2.0546
   57MOL0     H 7650   0.107  11.589   6.739  2.7527 -2.0338  0.4130
   57MOL0     H 7651   0.078  11.500   6.460 -3.6851 -0.5945  2.7211
   57MOL0     H 7652   0.243  11.555   6.539 -0.1470  3.5624 -1.9238
   57MOL0     H 7653   0.112  11.758   6.409  0.7076  0.8349  0.8545
   57MOL0     H 7654   0.110  11.766   6.582 -0.4819 -0.8844  0.7465
   57MOL0     H 7655  -0.316  11.715   6.431  0.2753  2.1175  0.0989
   57MOL0     H 7656  -0.422  11.634   6.210  0.1007  0.6650 -0.6794
   57MOL0     H 7657  -0.547  11.362   5.938  0.8032 -1.2582 -1.7855
   57MOL0     H 7658  -0.685  11.284   5.754  2.1922 -0.6518 -1.6073
   57MOL0     H 7659  -0.881  11.460   5.396 -1.1357  1.9352 -1.4469
   57MOL0     H 7660  -0.834  11.609   5.464  1.5278  1.2134 -0.4478
   57MOL0     H 7661  -0.708  11.576   5.240 -2.7834  3.1837  2.2166
   57MOL0     H 7662  -0.589  11.556   5.360  0.2496 -0.9929 -1.0131
   57MOL0     H 7663  -0.583  11.322   5.346  2.2695 -0.8959 -1.1926
   57MOL0     H 7664  -0.744  11.307   5.283  2.8081 -2.6517 -0.0346
   57MOL0     H 7665  -0.488  11.382   5.168 -0.0654 -3.6032  2.5611
   57MOL0     H 7666  -0.631  11.413   5.063 -0.2074  1.8308  1.4478
   57MOL0     H 7667  -0.651  11.134   5.167 -0.2118 -2.0238 -2.8077
   57MOL0     H 7668  -0.492  11.164   5.109 -1.3660 -1.9699 -1.8763
   57MOL0     H 7669  -0.720  11.228   4.924 -0.1443 -0.3283 -0.6883
   57MOL0     H 7670  -0.542  11.211   4.893  1.6120  0.7399  2.1331
   57MOL0     H 7671  -0.649  11.017   4.808 -0.4147  2.2362 -0.0092
   57MOL0     H 7672  -0.739  10.976   4.959  1.4280 -2.0646  3.5840
   57MOL0     H 7673  -0.444  10.970   4.974 -0.3441  0.7741  2.7681
   57MOL0     H 7674  -0.561  10.922   5.089 -1.0985 -2.1490 -0.2061
   57MOL0     H 7675  -0.618  11.653   5.545 -2.8134 -3.4253 -0.6759
   57MOL0     H 7676  -0.468  11.726   5.706 -2.3288  0.7552 -0.7363
   57MOL0     H 7677  -0.036  11.563   6.045  0.5965 -1.5434  0.2049
   57MOL0     H 7678   0.067  11.594   6.256  0.8057 -0.0358 -3.8125
   57MOL0     H 7679   0.040  10.675   7.534  0.3522 -2.6757  1.4673
   57MOL0     H 7680   0.114  10.716   7.748  1.1996 -2.5601  1.8014
   57MOL0     H 7681   0.569  10.841   7.931 -1.2884  0.3461 -0.7938
   57MOL0     H 7682   0.719  10.883   8.108  0.0852  0.5248 -0.6435
   57MOL0     H 7683   0.834  10.951   8.302 -0.2618  0.5186  0.6181
   57MOL0     H 7684   0.791  10.774   8.308  1.4945 -0.0504 -1.8181
   57MOL0     H 7685   0.825  10.798   8.555  0.2759 -0.7403 -0.4483
   57MOL0     H 7686   0.888  10.966   8.527 -1.2963 -0.2527 -1.2013
   57MOL0     H 7687   1.078  10.903   8.413 -1.0016  0.2027 -0.0128
   57MOL0     H 7688   1.021  10.738   8.362  2.5458  0.2505 -0.5134
   57MOL0     H 7689   1.044  10.673   8.608 -3.0410  2.2330 -1.0318
   57MOL0     H 7690   1.200  10.719   8.516  0.9600  1.2092 -0.4396
   57MOL0     H 7691   1.137  11.050   8.787  0.1719  2.3082 -1.7379
   57MOL0     H 7692   0.404  10.911   8.394  3.9878 -3.1416  1.1310
   57MOL0     H 7693   0.131  10.810   8.214 -0.8599 -0.0406  1.5760
   57MOL0     H 7694   0.180  10.945   8.318  4.8981  1.4162  0.5547
   57MOL0     H 7695   0.145  10.969   8.144  0.7297 -1.3247 -0.6640
   58MOL0     O 7696   9.318   7.467  10.220  0.7317  0.4973 -0.5164
   58MOL0     C 7697   9.200   7.469  10.247 -0.5085  0.7324  0.0967
   58MOL0     O 7698   9.117   7.366  10.251 -0.1522 -0.4594  0.6029
   58MOL0     C 7699   9.171   7.242  10.264  0.1021 -0.8891  1.3097
   58MOL0     C 7700   9.255   7.210  10.369  0.2038  0.2149 -0.5786
   58MOL0     C 7701   9.312   7.088  10.385 -0.6565  0.4874  0.4126
   58MOL0     C 7702   9.267   6.995  10.298 -0.1552  1.0166 -0.9766
   58MOL0     O 7703   9.286   6.867  10.327  0.0714  0.1829 -0.2168
   58MOL0     C 7704   9.422   6.813  10.308  0.5514 -0.0163  0.0562
   58MOL0     C 7705   9.432   6.723  10.185  0.1338  0.5591  0.0602
   58MOL0     C 7706   9.369   6.590  10.190  0.6280  0.0086 -0.4724
   58MOL0     C 7707   9.406   6.524  10.061 -0.7858  1.0324 -0.2139
   58MOL0     C 7708   9.380   6.375  10.071  0.4628 -0.1642 -0.0387
   58MOL0     C 7709   9.430   6.307   9.929  0.7510  0.1240  0.0670
   58MOL0     C 7710   9.453   6.156   9.942 -0.2216 -1.0679  0.4710
   58MOL0     C 7711   9.535   6.093   9.828  0.0653  0.9900 -0.5856
   58MOL0     N 7712   9.455   6.065   9.706 -0.4274 -0.6035 -0.3693
   58MOL0     C 7713   9.385   5.946   9.671 -1.3011 -0.6872  0.2074
   58MOL0     C 7714   9.320   5.978   9.555  0.0481  0.2270  0.4430
   58MOL0     C 7715   9.222   5.877   9.503 -0.2328 -0.7379 -1.1764
   58MOL0     C 7716   9.281   5.743   9.445 -0.0923 -0.5298  0.1588
   58MOL0     C 7717   9.399   5.774   9.352  0.9393  0.4332  0.8940
   58MOL0     C 7718   9.396   5.668   9.230 -0.1847 -0.5848 -0.1563
   58MOL0     O 7719   9.515   5.687   9.149 -0.7673  0.5192 -0.0106
   58MOL0     C 7720   9.639   5.693   9.207 -0.6556  0.2907 -0.3054
   58MOL0     C 7721   9.743   5.777   9.160  0.2011  0.1600  0.0012
   58MOL0     C 7722   9.876   5.777   9.209  0.7007 -0.4942  0.5029
   58MOL0     C 7723   9.904   5.695   9.315  0.4874 -0.5668 -0.0587
   58MOL0     C 7724  10.038   5.685   9.371 -0.9230 -0.4947 -0.2583
   58MOL0     O 7725  10.110   5.800   9.360  0.0038 -0.4568 -0.2096
   58MOL0     C 7726  10.201   5.827   9.453 -0.7858 -1.1811  0.2715
   58MOL0     C 7727  10.162   5.833   9.594  0.6450  0.2199  0.5717
   58MOL0     C 7728  10.255   5.880   9.688  0.8587  0.8554  0.4971
   58MOL0     C 7729  10.386   5.904   9.656  0.7806  0.2968  0.3824
   58MOL0     O 7730  10.474   5.925   9.757  0.7910  0.1471 -0.0725
   58MOL0     C 7731  10.540   6.044   9.746  0.0821 -0.2625  1.2709
   58MOL0     C 7732  10.604   6.083   9.879  0.7348 -0.5738 -0.1789
   58MOL0     C 7733  10.710   6.190   9.875 -0.2390  0.7483 -0.5832
   58MOL0     C 7734  10.673   6.319   9.807  0.6913 -0.4451 -0.8586
   58MOL0     C 7735  10.761   6.438   9.824  0.0942 -0.3163  0.4154
   58MOL0     C 7736  10.897   6.403   9.770  0.1588 -0.1183  1.1446
   58MOL0     C 7737  10.994   6.530   9.780  0.7670  0.1937 -0.6117
   58MOL0     C 7738  11.134   6.498   9.737 -0.3860  0.0012 -0.2834
   58MOL0    Cl 7739  11.227   6.644   9.746 -0.2212 -0.3229 -0.0658
   58MOL0     C 7740  10.429   5.888   9.509 -0.4426 -0.5812 -1.0893
   58MOL0     C 7741  10.324   5.857   9.417  0.0008 -0.3415  0.6863
   58MOL0     O 7742  10.066   5.580   9.447 -0.9383 -0.1055  0.2349
   58MOL0     C 7743   9.805   5.606   9.369  0.0056 -0.1676  1.2382
   58MOL0     C 7744   9.674   5.603   9.309 -0.3147  0.4340 -0.0476
   58MOL0     N 7745   9.356   6.108   9.510 -0.6224 -0.0086  0.7916
   58MOL0     N 7746   9.438   6.147   9.599  0.6601 -1.2204  0.0542
   58MOL0     C 7747   9.196   7.026  10.181  0.2999 -0.1991 -0.2673
   58MOL0     C 7748   9.138   7.151  10.163 -0.6498  0.2059  0.7177
   58MOL0     C 7749   9.134   7.590  10.286 -1.2265  0.3322  0.1639
   58MOL0     C 7750   8.996   7.593  10.327  0.1357 -0.1364 -0.4084
   58MOL0     C 7751   8.939   7.701  10.377  1.1449  0.3089 -0.6250
   58MOL0     C 7752   9.003   7.820  10.384  0.6669  0.2247  0.4727
   58MOL0     O 7753   8.949   7.929  10.449 -0.4933 -0.5442 -0.5240
   58MOL0     C 7754   9.023   7.971  10.564  0.3167  0.2290  1.0989
   58MOL0     C 7755   8.919   8.042  10.656 -0.8142 -0.0203 -0.2728
   58MOL0     C 7756   8.884   8.179  10.586 -0.3870 -0.0462 -0.0936
   58MOL0     C 7757   8.793   8.264  10.672 -0.0654 -0.4352 -0.2122
   58MOL0     C 7758   8.662   8.203  10.694 -0.1771 -0.6408 -0.0410
   58MOL0     C 7759   8.544   8.161  10.712 -0.4982 -0.1132 -0.0226
   58MOL0     C 7760   9.130   7.828  10.342 -0.5229 -0.3267 -0.3544
   58MOL0     C 7761   9.203   7.718  10.299  0.1652 -0.0103 -0.1723
   58MOL0     C 7762   9.343   7.756  10.244  1.2252  0.3008  0.9396
   58MOL0     H 7763   9.268   7.280  10.450  4.3225  0.6038 -1.3769
   58MOL0     H 7764   9.375   7.068  10.471  1.5407  2.3288 -0.6603
   58MOL0     H 7765   9.486   6.901  10.294 -0.0832  0.4121 -0.1896
   58MOL0     H 7766   9.452   6.761  10.400  0.1906  0.4554  0.4432
   58MOL0     H 7767   9.537   6.707  10.159  0.6451  1.0095  1.7575
   58MOL0     H 7768   9.374   6.770  10.105 -2.3491  0.0805  1.4762
   58MOL0     H 7769   9.261   6.607  10.181  1.1962  3.8440 -2.3112
   58MOL0     H 7770   9.392   6.533  10.280 -5.0890 -2.2314 -0.0438
   58MOL0     H 7771   9.359   6.570   9.974 -2.8512 -0.8175 -0.1778
   58MOL0     H 7772   9.514   6.531  10.045 -0.3831 -0.3425  1.4899
   58MOL0     H 7773   9.428   6.336  10.161  1.1035  0.0104 -0.3048
   58MOL0     H 7774   9.271   6.380  10.081  0.6755 -0.0370  3.1441
   58MOL0     H 7775   9.366   6.337   9.845  2.1712  0.3077 -0.9826
   58MOL0     H 7776   9.523   6.361   9.910  1.5868 -2.0196 -2.6116
   58MOL0     H 7777   9.361   6.096   9.948 -1.1568  0.4202  1.8785
   58MOL0     H 7778   9.512   6.143  10.033 -2.1887 -3.6267  1.5096
   58MOL0     H 7779   9.607   6.169   9.796 -2.0815  3.0606 -0.7611
   58MOL0     H 7780   9.592   6.006   9.861  1.4030  3.0458  2.9574
   58MOL0     H 7781   9.382   5.852   9.726 -0.6614 -0.8116  0.0426
   58MOL0     H 7782   9.149   5.849   9.580 -1.0005 -1.2597 -2.0705
   58MOL0     H 7783   9.173   5.932   9.422 -0.3136 -3.1119 -2.8585
   58MOL0     H 7784   9.325   5.687   9.528  1.0410  2.6355  1.8669
   58MOL0     H 7785   9.203   5.683   9.397  0.4973 -1.9852  0.9630
   58MOL0     H 7786   9.495   5.770   9.404  1.6871  3.1826 -0.1075
   58MOL0     H 7787   9.393   5.878   9.319 -1.8322  0.2044  0.4516
   58MOL0     H 7788   9.302   5.693   9.180  0.6804 -0.0830 -1.6238
   58MOL0     H 7789   9.385   5.563   9.260  0.4858  0.2363  3.3818
   58MOL0     H 7790   9.724   5.858   9.090 -1.4658 -0.6375 -0.5172
   58MOL0     H 7791   9.953   5.837   9.162 -0.1797 -0.1850 -0.5784
   58MOL0     H 7792  10.063   5.807   9.632 -1.4563  2.9436 -2.4279
   58MOL0     H 7793  10.222   5.886   9.792  0.9782  0.1484  0.5821
   58MOL0     H 7794  10.620   6.028   9.673 -0.4226 -0.7835  0.8237
   58MOL0     H 7795  10.471   6.126   9.724  1.7815  0.6535 -1.0670
   58MOL0     H 7796  10.525   6.133   9.934 -0.7627 -0.4685 -2.3015
   58MOL0     H 7797  10.642   5.999   9.937 -0.2104  0.1498  1.5343
   58MOL0     H 7798  10.717   6.218   9.981 -3.5766  0.4692 -0.1931
   58MOL0     H 7799  10.806   6.147   9.843  1.0084  1.1018  2.3413
   58MOL0     H 7800  10.576   6.352   9.844  1.1443  1.2520 -1.1275
   58MOL0     H 7801  10.645   6.301   9.703 -3.6414  0.1128  0.0233
   58MOL0     H 7802  10.772   6.468   9.929 -2.2859 -0.1774  0.6871
   58MOL0     H 7803  10.720   6.531   9.784  0.9384  1.1159  2.6539
   58MOL0     H 7804  10.943   6.314   9.814  0.6540 -0.1986  0.4784
   58MOL0     H 7805  10.891   6.375   9.665 -0.7912  0.0851  1.1411
   58MOL0     H 7806  10.997   6.563   9.885 -0.0808 -3.6369  0.7817
   58MOL0     H 7807  10.955   6.603   9.709  2.5894  1.4030 -0.4357
   58MOL0     H 7808  11.185   6.421   9.795 -0.6028  0.3997  0.4511
   58MOL0     H 7809  11.134   6.473   9.630 -1.7653  0.6478 -0.4548
   58MOL0     H 7810  10.532   5.901   9.479 -0.3653  0.5501 -0.4149
   58MOL0     H 7811  10.352   5.852   9.312  2.2974  0.3623  1.1966
   58MOL0     H 7812   9.827   5.539   9.452 -2.2596 -0.8142  1.3755
   58MOL0     H 7813   9.593   5.544   9.352  1.2218 -2.2096 -0.5720
   58MOL0     H 7814   9.183   6.943  10.112  1.3177 -1.1875  0.7014
   58MOL0     H 7815   9.076   7.176  10.078  3.5504  0.8515 -2.4379
   58MOL0     H 7816   8.939   7.501  10.319  1.7612 -1.3123  0.8724
   58MOL0     H 7817   8.841   7.693  10.423  2.2794 -2.2362  1.6253
   58MOL0     H 7818   9.097   8.040  10.521 -2.3851  1.9744 -1.0606
   58MOL0     H 7819   9.074   7.893  10.621 -1.8093 -1.6760  0.5453
   58MOL0     H 7820   8.954   8.055  10.759  0.3838  0.4265 -0.7203
   58MOL0     H 7821   8.832   7.976  10.664  0.5058 -2.0991 -1.9370
   58MOL0     H 7822   8.847   8.180  10.483  0.9084  4.0686 -0.7336
   58MOL0     H 7823   8.977   8.237  10.590 -0.6386  0.3150  0.7685
   58MOL0     H 7824   8.840   8.278  10.770  0.3617 -2.7427 -0.0261
   58MOL0     H 7825   8.771   8.357  10.619 -0.2974 -1.1667 -1.4323
   58MOL0     H 7826   8.442   8.129  10.719 -0.5407 -0.1807 -0.8576
   58MOL0     H 7827   9.184   7.922  10.334  1.0300 -1.3050 -2.2963
   58MOL0     H 7828   9.376   7.854  10.279  1.3059  1.4088 -1.9569
   58MOL0     H 7829   9.421   7.680  10.258  0.1055 -0.7204  1.8713
   58MOL0     H 7830   9.333   7.775  10.137 -2.8741  4.0074  1.7174
   59MOL0     O 7831   9.097   0.160   8.679 -0.4824  0.7974 -0.0398
   59MOL0     C 7832   9.166   0.235   8.602  0.1664  0.5849 -0.2701
   59MOL0     O 7833   9.220   0.196   8.487  0.1311 -0.3880  0.0399
   59MOL0     C 7834   9.200   0.078   8.439  0.2254  0.3673  0.7155
   59MOL0     C 7835   9.067   0.016   8.420 -0.1051  0.7628 -0.2760
   59MOL0     C 7836   9.052  -0.112   8.373 -0.2587  0.3165 -0.1097
   59MOL0     C 7837   9.165  -0.188   8.330  0.3497  0.6309  0.0811
   59MOL0     O 7838   9.141  -0.313   8.276 -0.8536 -0.3655  0.5065
   59MOL0     C 7839   9.243  -0.375   8.197  0.3492  0.3558  0.5635
   59MOL0     C 7840   9.179  -0.495   8.120 -0.2257  0.0270 -0.8667
   59MOL0     C 7841   9.074  -0.441   8.018 -0.2392 -0.2553 -1.0538
   59MOL0     C 7842   9.025  -0.549   7.926  0.5872  0.2691 -0.3034
   59MOL0     C 7843   8.870  -0.542   7.895  0.4389 -0.0028 -0.6878
   59MOL0     C 7844   8.832  -0.559   7.749  0.2932 -0.2441  0.3562
   59MOL0     C 7845   8.692  -0.509   7.703  0.0710 -0.1613  0.8123
   59MOL0     C 7846   8.693  -0.363   7.670  0.0049 -1.2091  0.0547
   59MOL0     N 7847   8.730  -0.267   7.778  0.7447 -0.1833 -0.3392
   59MOL0     C 7848   8.634  -0.215   7.865 -0.2645 -0.4233 -0.6007
   59MOL0     C 7849   8.702  -0.134   7.955 -0.2035 -0.4763  0.0196
   59MOL0     C 7850   8.642  -0.045   8.060 -0.6963 -0.1044  0.0924
   59MOL0     C 7851   8.550   0.069   7.999  0.5391 -0.9701  0.6444
   59MOL0     C 7852   8.478   0.162   8.107  0.1810  1.3470  0.1047
   59MOL0     C 7853   8.573   0.275   8.155 -0.4812 -0.4916  0.2024
   59MOL0     O 7854   8.483   0.359   8.229 -0.3065 -1.0009 -0.4053
   59MOL0     C 7855   8.502   0.487   8.258  0.6465  1.3505  0.4341
   59MOL0     C 7856   8.609   0.566   8.205  1.6733  0.3339 -0.0054
   59MOL0     C 7857   8.609   0.707   8.229 -0.3955  0.9303  0.9602
   59MOL0     C 7858   8.513   0.766   8.319  0.4624  0.9833 -0.4972
   59MOL0     C 7859   8.519   0.909   8.351  0.0311 -0.5669 -0.5151
   59MOL0     O 7860   8.419   0.957   8.432  0.3690 -0.6699 -0.5326
   59MOL0     C 7861   8.408   1.094   8.463  0.0097 -0.1468 -0.2945
   59MOL0     C 7862   8.436   1.207   8.382 -1.6008  0.1151  0.3806
   59MOL0     C 7863   8.397   1.333   8.417 -0.9001 -0.2765  0.0324
   59MOL0     C 7864   8.343   1.363   8.540  0.6051  0.0157  0.4548
   59MOL0     O 7865   8.304   1.492   8.566 -0.4783  0.1564  0.0200
   59MOL0     C 7866   8.273   1.528   8.700 -0.1504 -0.2977 -1.4778
   59MOL0     C 7867   8.246   1.673   8.702 -0.6270  0.7958  0.1573
   59MOL0     C 7868   8.217   1.728   8.843  0.4157  0.1098  1.1049
   59MOL0     C 7869   8.193   1.872   8.838 -0.4481 -0.2332  0.7305
   59MOL0     C 7870   8.162   1.931   8.978 -0.3217  0.4254 -0.6881
   59MOL0     C 7871   8.020   1.894   9.022  0.2561 -0.0860 -1.1721
   59MOL0     C 7872   7.981   1.961   9.155 -0.5297 -0.3634 -0.1058
   59MOL0     C 7873   7.838   1.995   9.163  0.3470  0.7187 -0.4050
   59MOL0    Cl 7874   7.809   2.080   9.312  0.2090 -0.0103  0.1325
   59MOL0     C 7875   8.313   1.250   8.616  0.1600  0.2395 -0.6017
   59MOL0     C 7876   8.343   1.117   8.576 -0.3191  0.2951  0.7232
   59MOL0     O 7877   8.611   0.981   8.309 -0.5016 -0.1157 -0.2791
   59MOL0     C 7878   8.411   0.674   8.369 -0.5748 -0.6919 -0.9343
   59MOL0     C 7879   8.417   0.541   8.346 -0.1338  0.3128 -0.4330
   59MOL0     N 7880   8.840  -0.138   7.913  0.4604  0.2907 -0.4061
   59MOL0     N 7881   8.851  -0.224   7.818 -0.0066 -0.0565  0.6649
   59MOL0     C 7882   9.286  -0.137   8.349 -0.7658 -0.5600  0.0471
   59MOL0     C 7883   9.306  -0.012   8.409  0.5039 -0.7441  0.6840
   59MOL0     C 7884   9.175   0.373   8.646  0.1131 -0.8769 -0.4214
   59MOL0     C 7885   9.200   0.464   8.544 -0.6672  0.1810  0.6240
   59MOL0     C 7886   9.208   0.602   8.568  0.0502  0.3817  0.7493
   59MOL0     C 7887   9.176   0.651   8.697 -1.2237 -1.0214 -1.3231
   59MOL0     O 7888   9.164   0.788   8.714 -0.4338 -0.6550  0.3971
   59MOL0     C 7889   9.155   0.839   8.856  0.5435  0.2967  0.4194
   59MOL0     C 7890   9.171   0.996   8.861 -0.3307  0.2998 -0.3654
   59MOL0     C 7891   9.160   1.058   8.996  0.8155 -0.3004  0.1615
   59MOL0     C 7892   9.179   1.200   8.996 -0.4650 -0.3174  0.4951
   59MOL0     C 7893   9.323   1.219   9.009  0.2087 -0.8400 -0.2044
   59MOL0     C 7894   9.440   1.249   9.028  0.1127 -0.2425 -0.0494
   59MOL0     C 7895   9.158   0.556   8.804  0.3337  0.4402 -0.2066
   59MOL0     C 7896   9.168   0.419   8.779  0.0258  0.8552  0.5373
   59MOL0     C 7897   9.169   0.339   8.900  0.7383 -0.0200 -0.3300
   59MOL0     H 7898   8.982   0.066   8.466 -2.4480 -2.4698 -0.7158
   59MOL0     H 7899   8.957  -0.165   8.367 -0.4533  0.5745  0.6035
   59MOL0     H 7900   9.286  -0.304   8.126 -0.8723 -1.3390 -2.0473
   59MOL0     H 7901   9.312  -0.426   8.265  0.3238 -0.8821 -0.3073
   59MOL0     H 7902   9.139  -0.573   8.186 -0.7158 -0.8390 -2.1386
   59MOL0     H 7903   9.250  -0.559   8.066 -0.6679 -2.8036  1.6193
   59MOL0     H 7904   9.119  -0.366   7.952  4.2299 -1.7938 -0.0981
   59MOL0     H 7905   8.995  -0.395   8.078 -2.1710 -2.3433 -1.8894
   59MOL0     H 7906   9.086  -0.553   7.836 -2.4913  0.6246 -2.5906
   59MOL0     H 7907   9.039  -0.646   7.975 -1.1400  0.5840  0.9469
   59MOL0     H 7908   8.814  -0.610   7.961  0.8134  1.8534  1.6792
   59MOL0     H 7909   8.830  -0.446   7.930 -1.5165 -0.7279 -0.7771
   59MOL0     H 7910   8.903  -0.517   7.678  1.1380 -0.9369  0.7728
   59MOL0     H 7911   8.838  -0.665   7.725 -1.1525  0.2709 -2.7682
   59MOL0     H 7912   8.615  -0.519   7.779  1.6755  0.1461  2.5750
   59MOL0     H 7913   8.677  -0.565   7.611 -2.2523  1.4043  0.1431
   59MOL0     H 7914   8.759  -0.334   7.588 -2.6852 -1.6503 -2.4128
   59MOL0     H 7915   8.597  -0.332   7.629  1.2921  0.5434 -1.8090
   59MOL0     H 7916   8.527  -0.231   7.860 -0.4563  1.0324 -1.8043
   59MOL0     H 7917   8.585  -0.113   8.125 -0.2301 -1.0032 -0.4107
   59MOL0     H 7918   8.720  -0.006   8.124  0.9679  0.3543 -2.1026
   59MOL0     H 7919   8.606   0.136   7.934 -1.3505  1.2780  1.1888
   59MOL0     H 7920   8.478   0.012   7.940  0.2917  0.2221 -0.2351
   59MOL0     H 7921   8.450   0.094   8.188  1.0894 -0.6082 -1.1403
   59MOL0     H 7922   8.385   0.199   8.063  0.9793  0.2916 -2.6772
   59MOL0     H 7923   8.612   0.330   8.069  0.9990  2.2114  2.4239
   59MOL0     H 7924   8.653   0.236   8.219  0.6995  1.0082 -0.2722
   59MOL0     H 7925   8.690   0.542   8.137  1.6390  0.4513 -0.0888
   59MOL0     H 7926   8.680   0.777   8.187  0.2012 -0.8443 -1.2130
   59MOL0     H 7927   8.474   1.188   8.282  0.9875 -0.6143  1.4167
   59MOL0     H 7928   8.405   1.410   8.340 -1.2960  1.5630  1.7575
   59MOL0     H 7929   8.185   1.466   8.722  1.4685 -1.8285  1.2987
   59MOL0     H 7930   8.345   1.502   8.778 -0.1891 -0.0515 -1.3587
   59MOL0     H 7931   8.337   1.716   8.659 -0.2055  0.2781  0.5139
   59MOL0     H 7932   8.165   1.695   8.632 -0.1764 -3.5891 -2.1209
   59MOL0     H 7933   8.135   1.676   8.893 -2.0544  1.5761 -1.1248
   59MOL0     H 7934   8.307   1.707   8.902  3.6407  2.2844 -2.5085
   59MOL0     H 7935   8.109   1.875   8.768  0.9866 -5.3309 -1.7316
   59MOL0     H 7936   8.276   1.925   8.790 -2.7090  1.8773 -1.1492
   59MOL0     H 7937   8.166   2.040   8.971 -0.2964  0.7053  2.4139
   59MOL0     H 7938   8.247   1.894   9.036  1.1629 -0.5939 -3.3299
   59MOL0     H 7939   7.953   1.935   8.946 -2.0425 -2.1381 -0.3683
   59MOL0     H 7940   8.006   1.787   9.041  1.4352  0.1977  1.7743
   59MOL0     H 7941   8.037   2.054   9.166 -0.0573 -0.8892  2.6179
   59MOL0     H 7942   8.022   1.893   9.230  4.9507  0.7180 -1.6366
   59MOL0     H 7943   7.817   2.053   9.072  1.4252  1.4550 -0.1947
   59MOL0     H 7944   7.768   1.910   9.165  0.7351  0.4106  0.3628
   59MOL0     H 7945   8.257   1.260   8.709  0.1183 -3.0638 -0.1557
   59MOL0     H 7946   8.315   1.041   8.649 -0.2223  0.3259  0.7930
   59MOL0     H 7947   8.342   0.716   8.442  0.7947 -2.4322  1.4822
   59MOL0     H 7948   8.331   0.488   8.387 -2.6065  1.4969 -3.6541
   59MOL0     H 7949   9.380  -0.178   8.313  2.2017  2.9846  2.9316
   59MOL0     H 7950   9.402   0.037   8.422 -0.1235  0.4825  0.8190
   59MOL0     H 7951   9.206   0.425   8.443 -2.2195  0.4676  0.3988
   59MOL0     H 7952   9.228   0.658   8.478 -1.1956 -1.7860 -0.9945
   59MOL0     H 7953   9.222   0.787   8.925 -0.1195  0.2927  1.0740
   59MOL0     H 7954   9.055   0.811   8.891  1.0452 -1.7293  0.3587
   59MOL0     H 7955   9.091   1.033   8.797 -1.7144  0.0281  1.1621
   59MOL0     H 7956   9.262   1.030   8.810 -1.1328  2.2822 -0.5433
   59MOL0     H 7957   9.237   0.995   9.043 -0.5078 -1.1022  1.3568
   59MOL0     H 7958   9.066   1.031   9.045 -0.0901  1.8776 -0.2951
   59MOL0     H 7959   9.148   1.244   8.900  1.0784  3.4307  1.5298
   59MOL0     H 7960   9.127   1.238   9.085 -0.2684  1.1778  0.0139
   59MOL0     H 7961   9.543   1.277   9.037 -0.9351  3.6511  2.0293
   59MOL0     H 7962   9.143   0.589   8.906 -0.8279 -1.3926  0.2434
   59MOL0     H 7963   9.066   0.338   8.938  1.0524 -4.2184  0.8951
   59MOL0     H 7964   9.205   0.237   8.887 -1.2343 -1.0600  1.5915
   59MOL0     H 7965   9.230   0.394   8.972 -0.4869  0.7564  0.1528
   60MOL0     O 7966   6.247   3.904  10.480  0.8391  0.0173  0.2677
   60MOL0     C 7967   6.268   3.914  10.599  0.7772  0.5591 -0.6919
   60MOL0     O 7968   6.198   4.005  10.681 -0.1139  0.5869  0.6524
   60MOL0     C 7969   6.151   4.125  10.624 -1.1888 -0.2306  0.0693
   60MOL0     C 7970   6.234   4.240  10.653  0.6759 -0.0145  0.2524
   60MOL0     C 7971   6.196   4.369  10.601  0.3165  0.4533  1.0785
   60MOL0     C 7972   6.094   4.377  10.498 -0.2484  0.8462 -0.5395
   60MOL0     O 7973   6.075   4.495  10.427  0.2767  0.4888 -0.4954
   60MOL0     C 7974   5.938   4.538  10.397  0.1994 -0.9875  0.3222
   60MOL0     C 7975   5.932   4.690  10.363 -0.6700 -0.5108 -0.2778
   60MOL0     C 7976   5.984   4.780  10.482 -0.0067 -0.2866  0.2682
   60MOL0     C 7977   5.865   4.828  10.573  0.5952 -0.4932  0.2358
   60MOL0     C 7978   5.901   4.856  10.718 -0.3390 -0.0686  0.0206
   60MOL0     C 7979   5.945   4.728  10.788 -1.4711  0.4103 -0.7614
   60MOL0     C 7980   5.983   4.750  10.940 -0.2685  0.1432  0.7616
   60MOL0     C 7981   6.030   4.621  11.009 -0.4482  0.6914  0.6764
   60MOL0     N 7982   5.946   4.502  10.994 -0.1599  0.5530  0.4996
   60MOL0     C 7983   5.936   4.420  10.879 -0.4134  0.1890  0.5374
   60MOL0     C 7984   5.859   4.327  10.914  0.1666  0.0769 -0.1685
   60MOL0     C 7985   5.805   4.217  10.831 -0.3339  0.4374 -0.4515
   60MOL0     C 7986   5.674   4.254  10.754  0.4249  0.2479 -0.3263
   60MOL0     C 7987   5.602   4.128  10.706  0.5498  0.0869 -0.3432
   60MOL0     C 7988   5.640   4.096  10.564 -0.4630 -0.0579  1.5529
   60MOL0     O 7989   5.584   4.197  10.481  0.2618 -0.7145  0.3359
   60MOL0     C 7990   5.640   4.238  10.355 -0.1682 -0.4311 -1.1746
   60MOL0     C 7991   5.607   4.362  10.312  0.4919 -0.2904  0.2165
   60MOL0     C 7992   5.674   4.412  10.205  0.6692 -1.3694 -0.4898
   60MOL0     C 7993   5.747   4.333  10.121  0.3368 -0.7756 -0.5836
   60MOL0     C 7994   5.801   4.384   9.992 -0.0675 -0.4515 -0.6643
   60MOL0     O 7995   5.803   4.514   9.981  0.1940 -0.3613  0.1675
   60MOL0     C 7996   5.838   4.569   9.856  0.4897  0.6953  0.0394
   60MOL0     C 7997   5.739   4.570   9.762 -0.2452 -0.2486 -0.2703
   60MOL0     C 7998   5.764   4.614   9.638 -0.4534  0.1827  0.6244
   60MOL0     C 7999   5.893   4.671   9.597  0.8393  0.6921 -0.5551
   60MOL0     O 8000   5.926   4.726   9.478  0.1171  0.6717 -0.1339
   60MOL0     C 8001   5.823   4.737   9.375  0.2379 -0.6867  0.1740
   60MOL0     C 8002   5.903   4.776   9.244  0.4737 -0.1145 -1.0360
   60MOL0     C 8003   5.998   4.894   9.252  0.4309 -0.4629  0.3103
   60MOL0     C 8004   5.920   5.029   9.271  0.0730  0.4828 -0.6643
   60MOL0     C 8005   6.019   5.147   9.299  1.0041  0.0196 -0.8580
   60MOL0     C 8006   6.098   5.189   9.168  1.0480 -0.2064  0.1599
   60MOL0     C 8007   6.207   5.288   9.204 -0.2832 -0.7072 -0.4863
   60MOL0     C 8008   6.295   5.339   9.085  0.1087  0.5150  0.0793
   60MOL0    Cl 8009   6.200   5.448   8.972  0.0440 -0.0478  0.5026
   60MOL0     C 8010   5.996   4.664   9.699  0.8073  0.2457 -0.0743
   60MOL0     C 8011   5.971   4.617   9.826  0.5949  0.0041 -0.4218
   60MOL0     O 8012   5.855   4.307   9.917  0.1090  0.3497  0.2486
   60MOL0     C 8013   5.776   4.198  10.158 -0.2657  0.0544  0.0930
   60MOL0     C 8014   5.727   4.156  10.282  0.1639 -0.3542  0.1222
   60MOL0     N 8015   5.810   4.347  11.042  0.1203 -0.5132 -0.5596
   60MOL0     N 8016   5.860   4.457  11.088 -1.2452 -0.1140 -0.0443
   60MOL0     C 8017   6.018   4.258  10.478 -0.5296  0.2255  0.6088
   60MOL0     C 8018   6.039   4.132  10.540  0.1538 -0.1103  0.8284
   60MOL0     C 8019   6.342   3.797  10.671  0.5263  0.7968 -0.5009
   60MOL0     C 8020   6.314   3.769  10.804  0.7330 -0.4287  0.1699
   60MOL0     C 8021   6.364   3.662  10.871 -0.0211  1.3068 -0.1467
   60MOL0     C 8022   6.461   3.584  10.821 -1.0721  0.7552  1.1132
   60MOL0     O 8023   6.519   3.477  10.886 -0.2035  0.1127  0.5152
   60MOL0     C 8024   6.541   3.353  10.821 -0.2384  0.0588  0.8208
   60MOL0     C 8025   6.431   3.296  10.733 -0.0074 -0.0161 -0.1407
   60MOL0     C 8026   6.327   3.233  10.821 -0.5282  0.0754 -0.7806
   60MOL0     C 8027   6.260   3.105  10.758 -0.1156 -0.1590 -0.0810
   60MOL0     C 8028   6.351   2.995  10.790  0.6139 -0.2628  0.2971
   60MOL0     C 8029   6.395   2.888  10.825  0.4739  0.2566  0.0754
   60MOL0     C 8030   6.494   3.605  10.686  0.9056  0.5607 -0.9587
   60MOL0     C 8031   6.438   3.716  10.612 -0.3448 -0.3888 -0.3893
   60MOL0     C 8032   6.495   3.729  10.471  0.6862 -0.5135  0.4832
   60MOL0     H 8033   6.317   4.226  10.721 -0.1800 -1.9456  0.9684
   60MOL0     H 8034   6.242   4.464  10.623  1.3967  0.2947 -0.3166
   60MOL0     H 8035   5.908   4.496  10.301 -0.7430  2.7925 -1.2396
   60MOL0     H 8036   5.871   4.507  10.477 -0.5208 -0.5370 -0.0890
   60MOL0     H 8037   5.832   4.720  10.331  1.0815  3.5540 -2.7860
   60MOL0     H 8038   5.999   4.693  10.276 -2.4537  0.2299 -1.7016
   60MOL0     H 8039   6.028   4.870  10.438  1.2915 -0.0409  1.9631
   60MOL0     H 8040   6.058   4.726  10.541 -0.1318  0.0808  0.7630
   60MOL0     H 8041   5.841   4.930  10.542 -4.6373 -1.8594 -1.2327
   60MOL0     H 8042   5.782   4.757  10.565 -0.1457  0.5136 -1.4900
   60MOL0     H 8043   5.976   4.935  10.726 -1.0286  0.6284 -0.1979
   60MOL0     H 8044   5.812   4.901  10.763  0.8868  1.7497  0.7556
   60MOL0     H 8045   5.868   4.653  10.769 -2.4384  1.9479 -3.3693
   60MOL0     H 8046   6.034   4.700  10.730 -1.3679  2.0716 -1.4561
   60MOL0     H 8047   5.895   4.785  10.994 -0.9402  0.6946 -0.6438
   60MOL0     H 8048   6.067   4.818  10.957 -0.4840  0.8865 -0.9357
   60MOL0     H 8049   6.127   4.592  10.967 -1.7320 -1.1358 -1.2397
   60MOL0     H 8050   6.042   4.639  11.117  0.5637  3.1484  0.2130
   60MOL0     H 8051   5.997   4.414  10.790  3.7891 -0.8211  3.2044
   60MOL0     H 8052   5.880   4.171  10.765  0.6366  0.6405  0.4805
   60MOL0     H 8053   5.783   4.143  10.909 -0.5071  1.8491  0.8848
   60MOL0     H 8054   5.607   4.301  10.827  0.1380 -2.4740  1.3099
   60MOL0     H 8055   5.694   4.323  10.672  3.1609  0.0470  0.0856
   60MOL0     H 8056   5.495   4.147  10.700  0.2676 -1.0770  0.6225
   60MOL0     H 8057   5.617   4.037  10.766  0.1475 -0.9127 -1.7054
   60MOL0     H 8058   5.604   3.994  10.546 -0.8642 -0.0998  2.4955
   60MOL0     H 8059   5.749   4.092  10.572 -0.1025  1.8868 -1.2525
   60MOL0     H 8060   5.544   4.428  10.371 -0.6097 -2.0638  1.0893
   60MOL0     H 8061   5.674   4.520  10.197 -0.7184 -1.3475 -0.4146
   60MOL0     H 8062   5.641   4.529   9.785 -0.6851  0.1172 -1.4276
   60MOL0     H 8063   5.679   4.625   9.571 -1.0234  1.1229  1.4779
   60MOL0     H 8064   5.776   4.639   9.372 -1.4873  0.0107  2.0983
   60MOL0     H 8065   5.748   4.812   9.402 -0.6781 -1.6410  0.3588
   60MOL0     H 8066   5.967   4.692   9.216  1.5509  0.1745  0.4522
   60MOL0     H 8067   5.820   4.800   9.176 -0.0980  3.0908  0.5901
   60MOL0     H 8068   6.077   4.873   9.325 -0.6383 -3.4337  0.7205
   60MOL0     H 8069   6.029   4.900   9.147 -3.0348 -1.5900 -0.9068
   60MOL0     H 8070   5.849   5.032   9.354 -0.5058 -2.6685 -0.9260
   60MOL0     H 8071   5.875   5.071   9.180  1.1462  3.4450  0.0519
   60MOL0     H 8072   6.090   5.110   9.373  0.6380 -4.0039 -2.2933
   60MOL0     H 8073   5.959   5.233   9.332 -2.3414 -0.5055 -4.7392
   60MOL0     H 8074   6.146   5.103   9.121  2.0504  0.5145 -0.1871
   60MOL0     H 8075   6.021   5.221   9.097  1.3197  1.6477  0.6263
   60MOL0     H 8076   6.276   5.251   9.280  1.0762 -2.4158 -2.4665
   60MOL0     H 8077   6.159   5.381   9.238  2.0300  0.8472 -1.2524
   60MOL0     H 8078   6.376   5.394   9.133  0.2763 -0.3846  0.8447
   60MOL0     H 8079   6.341   5.256   9.030 -1.1936  0.6118 -1.2469
   60MOL0     H 8080   6.093   4.692   9.662 -0.1527  0.0286 -3.0365
   60MOL0     H 8081   6.056   4.618   9.893  0.7763  1.5476 -0.6421
   60MOL0     H 8082   5.851   4.141  10.105 -1.1265 -2.0078  0.9971
   60MOL0     H 8083   5.743   4.055  10.318 -2.4909 -0.7114  0.4545
   60MOL0     H 8084   5.939   4.285  10.409 -0.4090 -0.0087  0.3786
   60MOL0     H 8085   5.978   4.050  10.502  1.8993 -0.6240 -0.9901
   60MOL0     H 8086   6.238   3.830  10.853  1.2428 -1.0645  1.8390
   60MOL0     H 8087   6.340   3.632  10.973  3.5519  2.0537  1.0449
   60MOL0     H 8088   6.571   3.266  10.880  0.8873 -1.9510 -2.4066
   60MOL0     H 8089   6.625   3.369  10.753  0.1550 -0.1702  1.2489
   60MOL0     H 8090   6.472   3.224  10.661  0.5831 -0.6189  0.7868
   60MOL0     H 8091   6.365   3.367  10.681  1.7105  1.9365  0.2180
   60MOL0     H 8092   6.239   3.298  10.833  0.5914  1.4739  0.2395
   60MOL0     H 8093   6.363   3.206  10.920 -0.8659  1.5763 -0.2186
   60MOL0     H 8094   6.166   3.070  10.803 -0.0617 -1.1834 -0.7349
   60MOL0     H 8095   6.249   3.116  10.649 -2.3345  0.0605  0.1118
   60MOL0     H 8096   6.441   2.801  10.867 -1.7408 -0.2931  1.5341
   60MOL0     H 8097   6.558   3.535  10.634 -2.5749 -2.0230 -2.2039
   60MOL0     H 8098   6.560   3.816  10.464  1.1327 -0.8093  0.9095
   60MOL0     H 8099   6.561   3.643  10.458  0.6576 -0.4595 -0.0200
   60MOL0     H 8100   6.419   3.752  10.396  0.9067  3.1004  1.1954
   61MOL0     O 8101   6.045   0.517   0.866 -0.2644  0.2620  0.1648
   61MOL0     C 8102   6.019   0.427   0.946 -0.5278 -0.3404  0.0689
   61MOL0     O 8103   6.070   0.301   0.947 -0.3504 -0.4108 -0.2109
   61MOL0     C 8104   6.153   0.250   0.853 -1.0887  0.7246 -0.4190
   61MOL0     C 8105   6.280   0.306   0.842 -0.9556  0.2897  0.5549
   61MOL0     C 8106   6.364   0.259   0.746 -1.3808  0.6688 -0.2327
   61MOL0     C 8107   6.334   0.148   0.666  0.9213  0.6976  0.7771
   61MOL0     O 8108   6.422   0.085   0.581  0.5891  0.0824  0.9816
   61MOL0     C 8109   6.551   0.137   0.579  0.5391 -0.3372  0.3774
   61MOL0     C 8110   6.635   0.045   0.481  0.4129 -0.1315 -0.5926
   61MOL0     C 8111   6.776   0.117   0.451  0.6844  0.3495  0.4388
   61MOL0     C 8112   6.887   0.110   0.546 -0.2766  0.2933 -0.9915
   61MOL0     C 8113   7.023   0.160   0.480 -0.7040 -0.0470  0.4924
   61MOL0     C 8114   7.151   0.124   0.570 -0.1383  0.0435  0.3953
   61MOL0     C 8115   7.272   0.119   0.469 -0.1900  0.7387 -0.6929
   61MOL0     C 8116   7.402   0.077   0.539 -0.1964  0.8702 -0.2120
   61MOL0     N 8117   7.422  -0.064   0.560 -0.3509  0.0341  0.0129
   61MOL0     C 8118   7.446  -0.161   0.473 -0.4256 -0.0818 -0.4852
   61MOL0     C 8119   7.450  -0.274   0.548  1.0833  0.9213  1.2098
   61MOL0     C 8120   7.494  -0.408   0.500  0.0551 -0.2166  0.6166
   61MOL0     C 8121   7.409  -0.482   0.391 -0.2245 -0.2196  0.3786
   61MOL0     C 8122   7.492  -0.567   0.289 -0.4912  0.0167 -0.4801
   61MOL0     C 8123   7.543  -0.698   0.355  0.6752  0.3691  0.6134
   61MOL0     O 8124   7.621  -0.772   0.257 -0.9869 -0.0632 -0.9823
   61MOL0     C 8125   7.666  -0.890   0.297 -0.2298 -0.0359  0.9367
   61MOL0     C 8126   7.740  -0.964   0.196  0.7530  0.0185 -0.4128
   61MOL0     C 8127   7.786  -1.093   0.226 -0.6652 -0.7218  0.6733
   61MOL0     C 8128   7.782  -1.138   0.361 -0.5258  0.1221  0.5432
   61MOL0     C 8129   7.840  -1.263   0.400 -1.0548 -0.2593  0.3472
   61MOL0     O 8130   7.771  -1.324   0.498 -0.6861 -0.4510  0.4890
   61MOL0     C 8131   7.842  -1.413   0.581  0.8589  0.3336 -0.1403
   61MOL0     C 8132   7.767  -1.516   0.639  0.0187  0.0713  0.2783
   61MOL0     C 8133   7.827  -1.598   0.737 -0.4227 -0.2205  0.7654
   61MOL0     C 8134   7.971  -1.590   0.767  0.3610  0.4489 -0.1414
   61MOL0     O 8135   8.046  -1.669   0.866 -0.8265 -0.4862 -0.3624
   61MOL0     C 8136   7.971  -1.786   0.907 -0.5663 -0.1721 -0.5872
   61MOL0     C 8137   8.039  -1.860   1.027  0.6820 -0.3083  0.4334
   61MOL0     C 8138   8.192  -1.882   1.008  0.1840  0.4205 -0.1729
   61MOL0     C 8139   8.258  -1.920   1.144  0.0457 -0.5012  0.0761
   61MOL0     C 8140   8.392  -1.997   1.134  0.6087  0.0951  0.6218
   61MOL0     C 8141   8.383  -2.139   1.061  0.3685 -0.3352 -0.7593
   61MOL0     C 8142   8.516  -2.223   1.054 -0.1439 -1.2599  0.1638
   61MOL0     C 8143   8.601  -2.174   0.936  0.7687  0.5912  0.0927
   61MOL0    Cl 8144   8.762  -2.264   0.947 -0.2860  0.2179 -0.0542
   61MOL0     C 8145   8.030  -1.481   0.717 -0.1130 -0.1882 -0.4589
   61MOL0     C 8146   7.970  -1.394   0.620  0.2308  0.1632 -0.0060
   61MOL0     O 8147   7.945  -1.300   0.347  0.5781  0.8666 -1.1042
   61MOL0     C 8148   7.708  -1.068   0.450  0.3013 -0.9609 -0.6217
   61MOL0     C 8149   7.649  -0.948   0.427  0.3729 -1.2647  0.5801
   61MOL0     N 8150   7.428  -0.244   0.678  0.2060 -1.1868  0.0916
   61MOL0     N 8151   7.392  -0.120   0.680 -1.2902  0.4353  0.3342
   61MOL0     C 8152   6.211   0.081   0.692  0.0707 -0.3051 -0.7399
   61MOL0     C 8153   6.117   0.138   0.775 -0.0666  0.4181  0.6545
   61MOL0     C 8154   5.926   0.479   1.052 -0.4719 -0.1380 -0.5667
   61MOL0     C 8155   5.844   0.595   1.025  0.6797  0.1104  0.1557
   61MOL0     C 8156   5.739   0.634   1.104  0.0473 -0.5312  0.1417
   61MOL0     C 8157   5.709   0.549   1.220  0.9117  0.7670 -0.0616
   61MOL0     O 8158   5.629   0.591   1.319 -0.6043 -0.1603  0.1841
   61MOL0     C 8159   5.581   0.727   1.312  0.4105  0.2435  1.2499
   61MOL0     C 8160   5.516   0.738   1.449 -0.5852  0.3243 -0.5128
   61MOL0     C 8161   5.376   0.658   1.455 -0.3950 -0.4937  0.3336
   61MOL0     C 8162   5.352   0.596   1.596  0.0383 -1.1715  0.3059
   61MOL0     C 8163   5.222   0.517   1.598  0.3687  0.3357 -0.3979
   61MOL0     C 8164   5.113   0.457   1.593 -0.2224 -0.8583 -1.0180
   61MOL0     C 8165   5.789   0.438   1.252  0.3069 -0.5896  0.0406
   61MOL0     C 8166   5.890   0.399   1.164  0.2222 -0.3534  0.1821
   61MOL0     C 8167   5.970   0.282   1.208 -0.3184  1.0718  0.4128
   61MOL0     H 8168   6.315   0.391   0.899 -1.6608  0.8734  0.1383
   61MOL0     H 8169   6.462   0.305   0.750 -1.5545  0.9375  1.9942
   61MOL0     H 8170   6.558   0.240   0.542  0.0158 -0.4087  0.0728
   61MOL0     H 8171   6.595   0.125   0.679  0.3439 -1.4498  0.3403
   61MOL0     H 8172   6.580   0.035   0.387  2.0643 -0.8355 -1.5122
   61MOL0     H 8173   6.647  -0.052   0.530  0.0436 -0.4500 -1.1188
   61MOL0     H 8174   6.757   0.223   0.430  1.3697  0.6451  1.2692
   61MOL0     H 8175   6.813   0.062   0.364  0.1711 -1.9556  1.6212
   61MOL0     H 8176   6.863   0.166   0.637  2.0598  1.0855 -0.7777
   61MOL0     H 8177   6.911   0.005   0.563 -1.3246 -0.1966 -2.3711
   61MOL0     H 8178   7.042   0.105   0.387 -0.3513 -2.4958  1.9154
   61MOL0     H 8179   7.012   0.267   0.459  0.8608  0.5638  2.4670
   61MOL0     H 8180   7.167   0.203   0.644  1.0687 -1.0049  1.3118
   61MOL0     H 8181   7.136   0.024   0.613 -1.0369  0.1667  0.3858
   61MOL0     H 8182   7.288   0.214   0.417  1.8855  1.4441  1.0608
   61MOL0     H 8183   7.257   0.044   0.391 -0.1701 -0.5247  0.4819
   61MOL0     H 8184   7.484   0.103   0.471  0.9004 -1.6110  0.0573
   61MOL0     H 8185   7.412   0.145   0.624 -1.6965  1.0897 -0.1730
   61MOL0     H 8186   7.465  -0.153   0.367 -5.3307 -3.6607 -2.0031
   61MOL0     H 8187   7.597  -0.394   0.465 -0.7853  1.6878 -1.3142
   61MOL0     H 8188   7.505  -0.475   0.586  1.1358  1.6005  1.9754
   61MOL0     H 8189   7.333  -0.541   0.443 -0.3782 -2.3225 -2.0639
   61MOL0     H 8190   7.358  -0.405   0.333 -1.6901 -0.9597  0.6219
   61MOL0     H 8191   7.579  -0.516   0.247 -0.7374 -0.4948 -1.6646
   61MOL0     H 8192   7.426  -0.589   0.204  0.1924 -3.3631 -0.2684
   61MOL0     H 8193   7.460  -0.763   0.382 -0.3596 -0.3784 -3.6659
   61MOL0     H 8194   7.615  -0.678   0.435 -0.3712 -3.7376  2.8711
   61MOL0     H 8195   7.733  -0.931   0.093 -2.7690 -2.0417 -0.9952
   61MOL0     H 8196   7.832  -1.147   0.143 -4.1176 -1.0488 -1.2384
   61MOL0     H 8197   7.661  -1.527   0.618  0.0910  0.1295 -0.1280
   61MOL0     H 8198   7.761  -1.667   0.788 -2.7400  1.0134 -0.3950
   61MOL0     H 8199   7.862  -1.779   0.916 -0.5744 -0.5056 -0.3857
   61MOL0     H 8200   7.987  -1.861   0.828  1.0317 -1.8771  1.2350
   61MOL0     H 8201   8.030  -1.788   1.109 -0.5833  1.5324 -1.2331
   61MOL0     H 8202   7.983  -1.951   1.051 -1.0949  0.1544 -1.7064
   61MOL0     H 8203   8.216  -1.961   0.935  0.1986  1.9190 -1.8667
   61MOL0     H 8204   8.241  -1.792   0.971 -4.0864  2.6075 -1.2070
   61MOL0     H 8205   8.189  -1.976   1.208  1.5236 -2.5697 -0.0563
   61MOL0     H 8206   8.284  -1.829   1.198  2.1059 -1.4046  0.7218
   61MOL0     H 8207   8.447  -2.007   1.228 -0.9878  0.4766  1.6311
   61MOL0     H 8208   8.464  -1.946   1.070  0.8136  0.0364  0.8055
   61MOL0     H 8209   8.309  -2.199   1.114  1.7380 -0.5561  0.9976
   61MOL0     H 8210   8.345  -2.119   0.961 -2.1221 -1.6810 -0.1517
   61MOL0     H 8211   8.491  -2.329   1.037 -0.7449 -0.8925 -1.4864
   61MOL0     H 8212   8.570  -2.221   1.149  0.2091  0.8559 -0.0498
   61MOL0     H 8213   8.570  -2.207   0.836 -0.5627 -1.3389  1.0787
   61MOL0     H 8214   8.620  -2.067   0.927  0.9250  0.4050 -3.2560
   61MOL0     H 8215   8.137  -1.467   0.731  0.1706 -1.6938 -0.9167
   61MOL0     H 8216   8.036  -1.318   0.581  3.0463 -1.7632  0.6495
   61MOL0     H 8217   7.696  -1.101   0.552  1.1187 -1.6529 -0.7353
   61MOL0     H 8218   7.583  -0.893   0.494 -2.0167 -1.9058 -1.1123
   61MOL0     H 8219   6.186  -0.002   0.628  2.9774 -0.6673 -1.5414
   61MOL0     H 8220   6.025   0.081   0.785 -0.0075  0.7361  4.1470
   61MOL0     H 8221   5.855   0.642   0.928  0.5989 -4.4554 -2.3761
   61MOL0     H 8222   5.678   0.721   1.083  0.8083  0.6395  2.4116
   61MOL0     H 8223   5.512   0.747   1.229  4.0772 -1.7549 -2.6868
   61MOL0     H 8224   5.661   0.797   1.289 -0.6946  1.1211 -0.1134
   61MOL0     H 8225   5.489   0.841   1.474 -0.3285 -0.0704  1.5955
   61MOL0     H 8226   5.585   0.705   1.528  2.0036  1.5882 -2.0984
   61MOL0     H 8227   5.382   0.584   1.375  2.3325 -0.1866  0.1647
   61MOL0     H 8228   5.294   0.727   1.431  1.1298  1.1635 -0.3440
   61MOL0     H 8229   5.436   0.527   1.613 -0.2129 -1.7130 -0.5699
   61MOL0     H 8230   5.345   0.676   1.670 -1.8516 -3.0911  2.3359
   61MOL0     H 8231   5.027   0.393   1.596 -0.1641 -1.0913 -2.9270
   61MOL0     H 8232   5.770   0.387   1.346  0.7628  1.2291  1.1713
   61MOL0     H 8233   6.075   0.272   1.179 -0.0924  4.6571 -0.5522
   61MOL0     H 8234   5.980   0.292   1.316 -2.2680  0.6775  0.6550
   61MOL0     H 8235   5.918   0.190   1.181  0.1660  1.3816 -1.8405
   62MOL0     O 8236   4.837   6.877   8.394 -0.2787  0.0628 -1.0276
   62MOL0     C 8237   4.775   6.847   8.502 -0.0405 -0.2026  0.3217
   62MOL0     O 8238   4.833   6.777   8.605  0.8303  0.2805 -0.8959
   62MOL0     C 8239   4.970   6.770   8.619  0.4456  0.1417 -0.3859
   62MOL0     C 8240   5.052   6.875   8.597  0.1131 -0.4109 -1.1025
   62MOL0     C 8241   5.195   6.866   8.620  0.2951 -0.0650 -0.5905
   62MOL0     C 8242   5.251   6.750   8.679  0.7172 -0.9954 -0.0970
   62MOL0     O 8243   5.393   6.739   8.680 -0.0484 -0.1630 -0.0090
   62MOL0     C 8244   5.434   6.640   8.775  0.4462 -0.4059  0.4288
   62MOL0     C 8245   5.581   6.618   8.770  0.1785 -0.3977 -0.8201
   62MOL0     C 8246   5.618   6.473   8.812  0.7428 -0.5036 -0.2260
   62MOL0     C 8247   5.641   6.445   8.966 -0.7718 -0.3905 -0.3278
   62MOL0     C 8248   5.773   6.505   9.025  0.6053 -0.7807  0.3198
   62MOL0     C 8249   5.773   6.493   9.183 -0.2758 -0.0170 -0.0783
   62MOL0     C 8250   5.663   6.575   9.249 -0.5648  0.5349  0.2744
   62MOL0     C 8251   5.697   6.624   9.395 -0.3472  0.4268 -0.1862
   62MOL0     N 8252   5.578   6.672   9.469 -0.6117 -0.6215  0.3955
   62MOL0     C 8253   5.482   6.597   9.537 -0.3191 -0.4956 -0.3518
   62MOL0     C 8254   5.383   6.691   9.565  0.0726 -0.2084 -0.4906
   62MOL0     C 8255   5.258   6.645   9.620  0.5129  0.2470  0.0155
   62MOL0     C 8256   5.249   6.662   9.773  0.1264 -0.0843 -0.2098
   62MOL0     C 8257   5.204   6.808   9.825  0.0178 -0.0182  0.3656
   62MOL0     C 8258   5.313   6.914   9.805 -0.1304  0.8461 -0.2152
   62MOL0     O 8259   5.313   7.012   9.912 -0.0285  0.5845  0.1339
   62MOL0     C 8260   5.411   7.021  10.007 -0.4760 -0.1353  0.4561
   62MOL0     C 8261   5.469   7.149  10.021  0.7656 -0.7277 -0.5403
   62MOL0     C 8262   5.573   7.167  10.110 -0.0556  0.5051  1.2442
   62MOL0     C 8263   5.610   7.062  10.197  0.1937  0.7035 -0.8535
   62MOL0     C 8264   5.712   7.077  10.302  0.1669  0.1356 -0.4949
   62MOL0     O 8265   5.716   6.989  10.416 -0.3196 -0.8905  0.2940
   62MOL0     C 8266   5.794   7.008  10.535  0.9052 -0.4644  0.1230
   62MOL0     C 8267   5.784   6.907  10.628  0.6491  0.1579 -0.0682
   62MOL0     C 8268   5.870   6.906  10.739 -0.0074  0.4386 -0.2177
   62MOL0     C 8269   5.949   7.017  10.768 -0.4497 -0.9029 -0.0727
   62MOL0     O 8270   6.028   7.001  10.879  0.3577 -0.8232 -0.6625
   62MOL0     C 8271   6.122   7.110  10.904  0.5669 -0.6328 -0.9735
   62MOL0     C 8272   6.253   7.104  10.809  0.6168 -0.7147  0.3246
   62MOL0     C 8273   6.353   7.205  10.861  0.0387  0.4088 -0.0508
   62MOL0     C 8274   6.495   7.160  10.820  1.0665 -0.0189  0.9601
   62MOL0     C 8275   6.595   7.242  10.888 -0.2807 -0.1859 -0.2818
   62MOL0     C 8276   6.731   7.208  10.839 -1.0694 -0.9658  0.1128
   62MOL0     C 8277   6.822   7.312  10.901  0.1999  0.0724 -0.1010
   62MOL0     C 8278   6.965   7.285  10.846  0.2766 -0.2550  0.2546
   62MOL0    Cl 8279   7.064   7.433  10.873  0.5964  0.0919  0.2401
   62MOL0     C 8280   5.956   7.127  10.671 -0.3829  0.4870 -0.8855
   62MOL0     C 8281   5.877   7.117  10.564  0.5549  0.5511 -0.2752
   62MOL0     O 8282   5.773   7.180  10.296  0.7924 -0.9618 -0.9404
   62MOL0     C 8283   5.545   6.941  10.189  0.3244  0.9143  0.9981
   62MOL0     C 8284   5.451   6.915  10.088 -0.4010 -0.4427  0.3588
   62MOL0     N 8285   5.417   6.806   9.508  0.1250 -0.6745  0.3901
   62MOL0     N 8286   5.541   6.807   9.459  0.3373 -0.2174  0.6669
   62MOL0     C 8287   5.159   6.650   8.717 -0.2040 -0.2249  0.8912
   62MOL0     C 8288   5.025   6.652   8.680  0.1522 -1.0827 -0.1565
   62MOL0     C 8289   4.639   6.872   8.512  1.1234  0.3939  0.5675
   62MOL0     C 8290   4.543   6.767   8.510  0.9673 -0.6667 -0.3577
   62MOL0     C 8291   4.407   6.807   8.509 -0.2445 -0.1181  0.0545
   62MOL0     C 8292   4.365   6.939   8.526 -0.4603  0.1995 -0.4418
   62MOL0     O 8293   4.235   6.978   8.529  0.0571  0.0282  0.8251
   62MOL0     C 8294   4.168   7.037   8.642 -0.6276  0.6268  0.4352
   62MOL0     C 8295   4.206   6.988   8.785  0.2681 -0.1501 -0.5637
   62MOL0     C 8296   4.131   6.857   8.825 -0.2716  0.6701 -0.1482
   62MOL0     C 8297   4.205   6.801   8.950 -0.1455 -0.1670  0.3100
   62MOL0     C 8298   4.160   6.659   8.976  0.3997  0.5828  0.5338
   62MOL0     C 8299   4.150   6.537   8.976  0.8202  0.7878 -1.3560
   62MOL0     C 8300   4.467   7.028   8.544 -0.2554 -0.0264  0.5906
   62MOL0     C 8301   4.598   7.003   8.520  0.2734 -0.1737 -0.2417
   62MOL0     C 8302   4.688   7.122   8.508  0.2470 -0.6909  0.5817
   62MOL0     H 8303   5.002   6.968   8.573 -0.2505  0.1752  1.5808
   62MOL0     H 8304   5.252   6.955   8.597  2.0401 -0.3873  2.0735
   62MOL0     H 8305   5.386   6.676   8.867 -1.0908  2.9278 -1.5119
   62MOL0     H 8306   5.390   6.545   8.743  0.7735 -0.6307  0.6356
   62MOL0     H 8307   5.619   6.698   8.834 -2.7061 -1.8966  3.1480
   62MOL0     H 8308   5.610   6.636   8.666  2.6915  0.6047 -0.0267
   62MOL0     H 8309   5.716   6.459   8.767  1.2402 -1.0964  1.0013
   62MOL0     H 8310   5.541   6.404   8.776 -0.0293  0.6060 -0.7605
   62MOL0     H 8311   5.549   6.463   9.021  0.0478 -0.8779  1.2537
   62MOL0     H 8312   5.662   6.338   8.956  2.9844  0.3870 -6.9636
   62MOL0     H 8313   5.859   6.455   8.979  1.6688  0.8598  0.4156
   62MOL0     H 8314   5.786   6.608   8.990 -0.8119 -0.9263 -0.7236
   62MOL0     H 8315   5.769   6.389   9.216 -0.4210 -0.8514 -2.5245
   62MOL0     H 8316   5.870   6.531   9.214 -0.5677  1.5395 -0.9278
   62MOL0     H 8317   5.571   6.515   9.246  0.9653 -1.9890 -2.4560
   62MOL0     H 8318   5.635   6.664   9.192  1.6154  1.7369  0.9767
   62MOL0     H 8319   5.740   6.543   9.455 -2.0104 -1.2279 -1.0963
   62MOL0     H 8320   5.775   6.698   9.376  0.8885 -0.9254 -0.5640
   62MOL0     H 8321   5.481   6.489   9.554 -1.0990 -0.7003 -1.6268
   62MOL0     H 8322   5.172   6.695   9.575  1.0599  0.5023 -0.7636
   62MOL0     H 8323   5.256   6.537   9.604  0.5811  0.7194 -4.4508
   62MOL0     H 8324   5.178   6.586   9.809 -1.1730  0.6471 -1.1435
   62MOL0     H 8325   5.332   6.632   9.837 -1.4442 -0.8256  1.5736
   62MOL0     H 8326   5.174   6.802   9.930 -1.8428 -4.0277 -0.2175
   62MOL0     H 8327   5.117   6.850   9.773  0.0217  1.1314  1.2449
   62MOL0     H 8328   5.291   6.974   9.716 -0.8064 -0.1822 -0.7638
   62MOL0     H 8329   5.414   6.873   9.794 -0.1586  0.9577 -0.9258
   62MOL0     H 8330   5.450   7.228   9.949  2.6909  0.6228  0.3629
   62MOL0     H 8331   5.640   7.252  10.121  0.5567  0.2934 -0.4480
   62MOL0     H 8332   5.718   6.823  10.609 -0.1300  0.8752 -0.6115
   62MOL0     H 8333   5.860   6.823  10.808 -2.7624 -2.0026 -3.2406
   62MOL0     H 8334   6.078   7.208  10.884 -0.6392 -0.1050  3.2464
   62MOL0     H 8335   6.137   7.115  11.012  2.4389 -0.8745 -1.1807
   62MOL0     H 8336   6.295   7.003  10.816 -0.7006 -1.2895  0.2292
   62MOL0     H 8337   6.229   7.126  10.705  1.7283  0.3462  0.2682
   62MOL0     H 8338   6.341   7.310  10.830  3.6008  1.4390  1.6024
   62MOL0     H 8339   6.349   7.205  10.970 -0.8820 -1.5147 -0.0533
   62MOL0     H 8340   6.503   7.193  10.716  3.3225  4.7526  2.3843
   62MOL0     H 8341   6.515   7.055  10.847 -1.1267  0.5028  5.6307
   62MOL0     H 8342   6.580   7.223  10.995 -0.8118 -0.0436 -0.3282
   62MOL0     H 8343   6.571   7.344  10.858  0.0612 -0.3713 -1.1936
   62MOL0     H 8344   6.777   7.110  10.853  4.0899  1.1843  0.3510
   62MOL0     H 8345   6.734   7.220  10.730  2.2953 -2.3298 -0.0631
   62MOL0     H 8346   6.813   7.301  11.010 -1.1950 -0.1438 -0.2267
   62MOL0     H 8347   6.791   7.416  10.889 -0.2929  0.0465  0.8435
   62MOL0     H 8348   7.015   7.201  10.895  0.2471 -1.1520 -1.1827
   62MOL0     H 8349   6.959   7.256  10.741  1.1809 -0.2710  0.2010
   62MOL0     H 8350   6.006   7.221  10.689  0.8571 -0.1684 -0.8463
   62MOL0     H 8351   5.858   7.213  10.515  1.0669  1.8370  1.9340
   62MOL0     H 8352   5.560   6.865  10.266 -3.7413 -3.1841 -1.7482
   62MOL0     H 8353   5.390   6.825  10.079 -3.0180  0.9873  2.3430
   62MOL0     H 8354   5.190   6.553   8.756 -3.9920 -1.6305  0.8005
   62MOL0     H 8355   4.955   6.576   8.714 -2.4701  0.7510 -1.0602
   62MOL0     H 8356   4.565   6.661   8.496 -1.7683 -1.6001  1.5403
   62MOL0     H 8357   4.334   6.727   8.498 -1.5306  1.2401 -2.0505
   62MOL0     H 8358   4.061   7.013   8.635 -0.3610 -0.2484 -0.9230
   62MOL0     H 8359   4.170   7.146   8.644  0.4783  0.6317 -0.1737
   62MOL0     H 8360   4.180   7.064   8.860 -3.7508  1.4879 -3.3151
   62MOL0     H 8361   4.312   6.962   8.796 -0.0459 -1.4388 -0.3635
   62MOL0     H 8362   4.127   6.789   8.740  0.4571 -0.8559  0.9947
   62MOL0     H 8363   4.027   6.875   8.851 -0.0603  0.6068  0.7867
   62MOL0     H 8364   4.308   6.777   8.923 -0.1034 -3.5588  2.7623
   62MOL0     H 8365   4.200   6.871   9.034  1.1911 -2.8517  2.8259
   62MOL0     H 8366   4.150   6.430   8.962  0.2658  0.8312 -1.7343
   62MOL0     H 8367   4.431   7.129   8.556 -3.6424 -0.8234 -1.3990
   62MOL0     H 8368   4.747   7.127   8.416  2.2553  6.6129  1.6522
   62MOL0     H 8369   4.639   7.219   8.517  1.9033  0.0800  1.5071
   62MOL0     H 8370   4.749   7.132   8.598 -0.9052  1.3815  1.1974
   63MOL0     O 8371   8.877   8.358  11.512 -0.0202 -0.0130  0.8487
   63MOL0     C 8372   8.834   8.261  11.573  1.2874 -0.6309 -0.3137
   63MOL0     O 8373   8.848   8.127  11.529  0.4379 -0.2914 -2.3331
   63MOL0     C 8374   8.882   8.079  11.410 -0.2490 -0.1157  0.8535
   63MOL0     C 8375   8.918   7.947  11.399 -0.5388  0.4631 -0.4198
   63MOL0     C 8376   8.932   7.897  11.264  1.6124  0.7768 -0.5321
   63MOL0     C 8377   8.924   7.973  11.150 -0.3593 -0.3142 -0.8768
   63MOL0     O 8378   8.928   7.923  11.027  0.3397 -0.5913  0.1907
   63MOL0     C 8379   8.983   7.785  11.012  0.1924 -0.4531 -0.0708
   63MOL0     C 8380   9.002   7.753  10.862 -0.8671  0.5672 -0.1273
   63MOL0     C 8381   9.012   7.594  10.848  0.4744  0.5778  0.0017
   63MOL0     C 8382   9.028   7.541  10.706  0.0218  0.9538  0.1602
   63MOL0     C 8383   9.044   7.389  10.701 -0.2633  0.3759 -0.4015
   63MOL0     C 8384   8.924   7.313  10.768 -0.3199 -0.8286  0.0995
   63MOL0     C 8385   8.897   7.183  10.700 -0.0955 -0.6399  0.1230
   63MOL0     C 8386   8.785   7.191  10.587  0.6255 -0.7154  0.0555
   63MOL0     N 8387   8.753   7.062  10.527 -0.6842  0.0575 -0.1665
   63MOL0     C 8388   8.824   6.995  10.437 -0.2995 -0.4694 -0.8360
   63MOL0     C 8389   8.730   6.909  10.383  0.1897 -0.0985  0.3295
   63MOL0     C 8390   8.768   6.818  10.263 -0.0650 -0.0515  0.3990
   63MOL0     C 8391   8.801   6.672  10.289 -0.9925  0.4474 -0.2428
   63MOL0     C 8392   8.702   6.609  10.390 -0.5369  0.4527  0.4092
   63MOL0     C 8393   8.564   6.573  10.336  0.5483  0.2523 -0.7402
   63MOL0     O 8394   8.576   6.473  10.236  0.0236 -0.2701 -0.5784
   63MOL0     C 8395   8.462   6.419  10.184 -0.0721  0.6075  0.6159
   63MOL0     C 8396   8.478   6.361  10.055  0.1705  0.0386  0.5242
   63MOL0     C 8397   8.368   6.301   9.988  0.5541 -0.4241 -0.0884
   63MOL0     C 8398   8.235   6.295  10.051  0.4559  0.1049  0.6943
   63MOL0     C 8399   8.110   6.241   9.987  0.4541 -0.6071  0.2517
   63MOL0     O 8400   7.983   6.261  10.039  0.2034 -0.6892  0.3528
   63MOL0     C 8401   7.864   6.224   9.978 -0.1661  0.3889  0.5689
   63MOL0     C 8402   7.848   6.202   9.837 -0.0036  0.3459  0.2506
   63MOL0     C 8403   7.712   6.202   9.794  0.0192  0.2232 -0.6091
   63MOL0     C 8404   7.601   6.196   9.873  1.0687  0.4403  0.5194
   63MOL0     O 8405   7.472   6.196   9.823  0.3872 -0.2643  0.1639
   63MOL0     C 8406   7.448   6.134   9.698 -0.2656 -1.2409 -0.2629
   63MOL0     C 8407   7.308   6.087   9.699 -0.1403 -0.6594  0.1915
   63MOL0     C 8408   7.270   6.019   9.575  1.3289  0.1127  0.5519
   63MOL0     C 8409   7.217   6.136   9.479  0.3046  0.0399  0.9350
   63MOL0     C 8410   7.168   6.069   9.351  0.3806 -0.3805  0.0105
   63MOL0     C 8411   7.281   6.005   9.271 -0.3739 -1.1716 -1.0474
   63MOL0     C 8412   7.252   6.031   9.130  0.4944 -0.7044  0.0086
   63MOL0     C 8413   7.120   5.974   9.075  0.0894  0.2589  1.2922
   63MOL0    Cl 8414   7.138   5.796   9.066  0.0249  1.2155 -0.1583
   63MOL0     C 8415   7.628   6.213  10.011 -0.3603 -0.6464 -0.4052
   63MOL0     C 8416   7.760   6.230  10.069  0.7740  0.5956 -0.0238
   63MOL0     O 8417   8.132   6.176   9.887  0.2606  0.1854  0.2026
   63MOL0     C 8418   8.228   6.367  10.171 -0.2315 -1.0888 -0.0898
   63MOL0     C 8419   8.336   6.433  10.232  0.5032  0.5526  0.6249
   63MOL0     N 8420   8.611   6.913  10.459  0.4571 -0.2508 -0.0980
   63MOL0     N 8421   8.636   7.000  10.553 -0.3991  0.1008  0.2482
   63MOL0     C 8422   8.897   8.113  11.166  0.2683 -0.0712 -0.2872
   63MOL0     C 8423   8.859   8.157  11.293  0.0483 -0.5370  0.2340
   63MOL0     C 8424   8.792   8.281  11.715  0.4849  0.2405  0.7270
   63MOL0     C 8425   8.802   8.409  11.765 -0.0625 -0.5827 -0.6107
   63MOL0     C 8426   8.754   8.447  11.896 -0.4314 -0.5288  0.0734
   63MOL0     C 8427   8.680   8.362  11.979  0.2568  0.2714 -0.1371
   63MOL0     O 8428   8.628   8.397  12.100  0.2846  0.3652  0.0307
   63MOL0     C 8429   8.639   8.532  12.148 -0.2684  0.5694 -1.6181
   63MOL0     C 8430   8.557   8.535  12.276 -0.1016  0.5926  1.5755
   63MOL0     C 8431   8.554   8.671  12.336  0.1564 -0.5482  0.3597
   63MOL0     C 8432   8.477   8.663  12.474 -0.0649  0.5552  0.0675
   63MOL0     C 8433   8.404   8.792  12.504 -0.3864 -0.0754  0.1286
   63MOL0     C 8434   8.344   8.895  12.496  0.5905  0.1533 -0.9656
   63MOL0     C 8435   8.667   8.229  11.933  0.1531  1.0367 -0.2147
   63MOL0     C 8436   8.735   8.189  11.806  0.1273 -1.3853 -0.3552
   63MOL0     C 8437   8.729   8.038  11.774  0.4536  0.1319 -0.4284
   63MOL0     H 8438   8.936   7.894  11.492 -0.4883  2.0822  0.5216
   63MOL0     H 8439   8.950   7.790  11.275 -4.2028 -0.4719 -0.1233
   63MOL0     H 8440   9.078   7.780  11.067  2.1236 -2.7960 -3.2473
   63MOL0     H 8441   8.909   7.717  11.057 -0.4710 -0.6281 -1.3939
   63MOL0     H 8442   9.094   7.799  10.825 -2.0089  0.6751 -3.0216
   63MOL0     H 8443   8.916   7.771  10.797  0.6754 -0.7336 -2.6991
   63MOL0     H 8444   8.923   7.550  10.894  1.0000 -0.3737  0.1409
   63MOL0     H 8445   9.102   7.552  10.894  0.3358  0.0487 -0.2087
   63MOL0     H 8446   8.944   7.575  10.645 -0.1899 -0.4704 -0.3824
   63MOL0     H 8447   9.114   7.596  10.668  2.1240  0.3657  3.5974
   63MOL0     H 8448   9.059   7.354  10.599  3.7646  0.5124 -0.0103
   63MOL0     H 8449   9.131   7.357  10.760 -2.1629 -1.5673  1.5617
   63MOL0     H 8450   8.963   7.299  10.870 -2.7792  3.3845  1.8748
   63MOL0     H 8451   8.849   7.392  10.779 -2.2378 -2.6464  0.7441
   63MOL0     H 8452   8.870   7.108  10.774 -3.5493 -2.4575 -2.7083
   63MOL0     H 8453   8.993   7.156  10.655  0.6119  1.2011  0.4308
   63MOL0     H 8454   8.701   7.228  10.647 -1.7740  1.0268 -4.0053
   63MOL0     H 8455   8.808   7.272  10.517  2.3775 -0.4420  0.8827
   63MOL0     H 8456   8.925   7.013  10.402  0.6258 -2.0033  0.9000
   63MOL0     H 8457   8.696   6.817  10.180  0.3845 -0.4940  0.0093
   63MOL0     H 8458   8.858   6.854  10.212 -0.2627  2.3698  1.5872
   63MOL0     H 8459   8.788   6.610  10.200 -2.9945  3.2468 -2.0998
   63MOL0     H 8460   8.907   6.663  10.315 -0.5373 -2.7658 -2.6034
   63MOL0     H 8461   8.684   6.671  10.478  0.6479  1.6938 -0.1807
   63MOL0     H 8462   8.761   6.521  10.419  0.4142 -0.2047 -2.9880
   63MOL0     H 8463   8.511   6.653  10.283  0.0994 -0.6323 -1.6585
   63MOL0     H 8464   8.499   6.544  10.419  2.7608 -2.7661  0.1058
   63MOL0     H 8465   8.575   6.340  10.010 -1.3603 -0.4400 -2.8856
   63MOL0     H 8466   8.373   6.266   9.886 -1.8743  0.3832 -0.5371
   63MOL0     H 8467   7.929   6.183   9.767  0.2143  1.1087  0.2937
   63MOL0     H 8468   7.713   6.184   9.687  1.3449  1.0132 -0.7502
   63MOL0     H 8469   7.461   6.219   9.630  3.6188 -0.4061  1.2392
   63MOL0     H 8470   7.519   6.052   9.684  0.1149 -0.8086 -0.9437
   63MOL0     H 8471   7.305   6.006   9.773 -1.6031 -0.8691 -0.0741
   63MOL0     H 8472   7.230   6.157   9.730  1.3867  0.2904  2.1407
   63MOL0     H 8473   7.353   5.956   9.542  0.3772 -0.7270 -0.2837
   63MOL0     H 8474   7.188   5.947   9.584  0.7856  0.6935  0.2717
   63MOL0     H 8475   7.303   6.200   9.453 -0.4088  0.0671 -1.6562
   63MOL0     H 8476   7.136   6.202   9.510 -2.8562 -0.7466 -4.3359
   63MOL0     H 8477   7.128   6.147   9.285  2.5609  0.6773 -0.1483
   63MOL0     H 8478   7.083   6.008   9.384 -2.6034  4.7662  3.3935
   63MOL0     H 8479   7.377   6.056   9.274 -2.3475  3.1002 -2.4304
   63MOL0     H 8480   7.297   5.898   9.289 -0.7154 -1.2078 -0.9464
   63MOL0     H 8481   7.330   5.997   9.061  0.9217  1.7930 -0.8772
   63MOL0     H 8482   7.251   6.139   9.111 -5.5073 -0.2997  0.7325
   63MOL0     H 8483   7.030   6.009   9.127  0.4931  0.1356  2.0820
   63MOL0     H 8484   7.110   6.021   8.977 -0.9064  0.0809  1.2954
   63MOL0     H 8485   7.537   6.217  10.070 -1.8570 -2.1495 -2.4353
   63MOL0     H 8486   7.778   6.248  10.174 -0.1966 -3.2388  0.9847
   63MOL0     H 8487   8.129   6.366  10.217  0.2063  0.7270  1.0025
   63MOL0     H 8488   8.315   6.495  10.318  0.0482 -0.2773  1.1311
   63MOL0     H 8489   8.904   8.177  11.078 -1.0945 -0.0485 -0.4094
   63MOL0     H 8490   8.823   8.260  11.293 -0.3660 -0.6758  1.0809
   63MOL0     H 8491   8.841   8.486  11.699  1.7101 -0.7298  0.1901
   63MOL0     H 8492   8.761   8.554  11.911 -0.4367 -0.8125  2.4770
   63MOL0     H 8493   8.606   8.612  12.081  0.7490  1.5784 -0.9768
   63MOL0     H 8494   8.746   8.539  12.171 -0.1534 -0.4441 -1.8109
   63MOL0     H 8495   8.600   8.468  12.351  1.3282  1.1400  1.2720
   63MOL0     H 8496   8.450   8.521  12.260 -0.3459  0.7621  2.9113
   63MOL0     H 8497   8.503   8.739  12.267  0.5600  1.9374  2.3745
   63MOL0     H 8498   8.649   8.719  12.362 -0.6551  1.9149 -0.9002
   63MOL0     H 8499   8.409   8.579  12.465  1.6001 -1.1051  1.8350
   63MOL0     H 8500   8.535   8.639  12.564  0.8209 -2.3514 -1.1905
   63MOL0     H 8501   8.296   8.989  12.514 -3.0780 -2.0822  2.8921
   63MOL0     H 8502   8.624   8.146  11.987  2.7542  0.3062  0.8753
   63MOL0     H 8503   8.668   8.025  11.684 -0.8008  0.2094  0.4000
   63MOL0     H 8504   8.829   7.995  11.760  0.8988 -0.1233  2.8333
   63MOL0     H 8505   8.681   7.983  11.855  0.7311  1.1561  0.4537
   64MOL0     O 8506  10.322   2.321   3.309  1.0720  0.3292  0.4060
   64MOL0     C 8507  10.381   2.254   3.223 -0.2693 -0.7501 -0.3722
   64MOL0     O 8508  10.391   2.300   3.086 -0.0802  0.0511  0.7867
   64MOL0     C 8509  10.278   2.356   3.021 -1.0066  0.0056 -1.2323
   64MOL0     C 8510  10.144   2.335   3.068  0.4125 -0.4421 -0.0802
   64MOL0     C 8511  10.044   2.367   2.983  0.3070 -0.3544  0.3169
   64MOL0     C 8512  10.061   2.438   2.861 -0.7682  0.1891  0.4025
   64MOL0     O 8513   9.959   2.481   2.770 -1.0733  0.6876 -0.2558
   64MOL0     C 8514   9.824   2.464   2.804 -0.5781  0.1451  0.1994
   64MOL0     C 8515   9.740   2.527   2.693  0.0252  0.5553  0.7979
   64MOL0     C 8516   9.761   2.452   2.563 -0.6908 -0.2116  0.1762
   64MOL0     C 8517   9.657   2.492   2.461 -0.4546  0.5420  0.3667
   64MOL0     C 8518   9.708   2.478   2.317  1.3685  0.9276 -0.4248
   64MOL0     C 8519   9.589   2.478   2.219 -0.3163  0.5818  0.2575
   64MOL0     C 8520   9.632   2.403   2.085  0.8497 -1.3573 -0.0143
   64MOL0     C 8521   9.531   2.411   1.977 -0.2620  0.6665 -0.2439
   64MOL0     N 8522   9.531   2.308   1.871 -0.3905 -0.2320 -0.2301
   64MOL0     C 8523   9.634   2.257   1.801  0.3453 -0.1685 -0.0779
   64MOL0     C 8524   9.573   2.158   1.735 -0.4710  0.0648  0.3607
   64MOL0     C 8525   9.631   2.074   1.623 -0.6815 -0.0064 -0.4411
   64MOL0     C 8526   9.668   1.932   1.668  0.5885 -0.5525 -1.0908
   64MOL0     C 8527   9.719   1.833   1.560  0.4181  0.4086  0.6859
   64MOL0     C 8528   9.703   1.689   1.604 -0.5358  0.1135  0.6305
   64MOL0     O 8529   9.671   1.621   1.479  0.1670 -0.8298 -0.4129
   64MOL0     C 8530   9.625   1.499   1.494  0.6715 -0.3809 -0.2787
   64MOL0     C 8531   9.720   1.395   1.525  0.6051  0.9573 -0.5167
   64MOL0     C 8532   9.680   1.270   1.574 -0.5891  0.4985 -0.9254
   64MOL0     C 8533   9.549   1.241   1.593  0.5844  0.2362  1.2967
   64MOL0     C 8534   9.507   1.107   1.628 -0.6111 -0.7342  0.1363
   64MOL0     O 8535   9.596   1.027   1.695  0.0421 -0.1435 -0.2262
   64MOL0     C 8536   9.557   0.894   1.719  0.1703 -0.0796  0.3598
   64MOL0     C 8537   9.512   0.812   1.611  0.2196 -1.2126  1.0732
   64MOL0     C 8538   9.479   0.681   1.632 -1.1511  0.1862 -0.6564
   64MOL0     C 8539   9.477   0.635   1.765 -0.1217 -0.4761 -0.4963
   64MOL0     O 8540   9.433   0.504   1.799  0.7258  0.3748  0.2166
   64MOL0     C 8541   9.406   0.420   1.695 -0.9278  0.4488 -0.7124
   64MOL0     C 8542   9.377   0.278   1.743 -0.0211  0.1811  0.5424
   64MOL0     C 8543   9.235   0.288   1.814  0.1672  0.8803 -0.5583
   64MOL0     C 8544   9.197   0.151   1.869 -0.4901  0.5851 -0.2502
   64MOL0     C 8545   9.048   0.127   1.882 -0.5399 -0.0736  0.3349
   64MOL0     C 8546   8.974   0.209   1.994  0.7907 -0.1375 -0.0928
   64MOL0     C 8547   8.852   0.147   2.056  0.6450 -0.4017  0.6821
   64MOL0     C 8548   8.725   0.141   1.979 -0.7508 -0.8698 -0.2737
   64MOL0    Cl 8549   8.598   0.078   2.082 -0.2358  0.0899  0.2013
   64MOL0     C 8550   9.518   0.712   1.868 -0.0751 -0.4659 -0.1807
   64MOL0     C 8551   9.567   0.845   1.846  0.0212  0.5719  0.8646
   64MOL0     O 8552   9.393   1.067   1.595 -0.1539  0.3970 -0.9152
   64MOL0     C 8553   9.450   1.341   1.556 -0.4143 -1.1858 -0.1192
   64MOL0     C 8554   9.493   1.465   1.508  0.4573  0.3859  0.7996
   64MOL0     N 8555   9.440   2.156   1.765 -1.1265  0.7491  0.0594
   64MOL0     N 8556   9.420   2.234   1.851 -0.6846 -0.8786  0.6060
   64MOL0     C 8557  10.196   2.467   2.824 -0.6954 -0.1313  0.0807
   64MOL0     C 8558  10.304   2.427   2.905  0.7382 -0.2753  1.0215
   64MOL0     C 8559  10.426   2.123   3.274 -0.0717 -0.8353  0.0381
   64MOL0     C 8560  10.463   2.107   3.412 -0.2008  0.4893 -0.0284
   64MOL0     C 8561  10.487   1.978   3.470  0.5378 -0.8452  0.6022
   64MOL0     C 8562  10.478   1.860   3.390  1.0986 -0.0070  0.5714
   64MOL0     O 8563  10.492   1.728   3.431  0.5881 -1.0190  0.3179
   64MOL0     C 8564  10.540   1.705   3.564  0.6400 -1.0167 -1.0726
   64MOL0     C 8565  10.569   1.551   3.588 -0.0637  0.4771 -0.3009
   64MOL0     C 8566  10.450   1.468   3.607  0.5517  0.0860  0.1517
   64MOL0     C 8567  10.361   1.452   3.486 -0.2824  0.3699  0.7661
   64MOL0     C 8568  10.258   1.356   3.512  0.5591  0.1105 -0.2036
   64MOL0     C 8569  10.166   1.277   3.541 -0.2515 -0.7532 -0.6034
   64MOL0     C 8570  10.456   1.882   3.248  1.7663 -0.3722  0.3157
   64MOL0     C 8571  10.430   2.013   3.194  0.5262 -0.3748  0.2921
   64MOL0     C 8572  10.376   2.007   3.055 -0.3865  0.5929  0.3970
   64MOL0     H 8573  10.115   2.278   3.156 -1.6019  2.5403  1.3889
   64MOL0     H 8574   9.944   2.335   3.009  1.4582 -3.8341  1.0004
   64MOL0     H 8575   9.795   2.361   2.828  0.4617  0.6693  4.3074
   64MOL0     H 8576   9.809   2.519   2.897 -1.3304  1.1406 -0.4880
   64MOL0     H 8577   9.767   2.632   2.682 -2.0506  1.6288  4.3806
   64MOL0     H 8578   9.634   2.521   2.719  0.1069 -0.3920  0.9509
   64MOL0     H 8579   9.769   2.344   2.578  2.5536 -0.0290  0.4966
   64MOL0     H 8580   9.856   2.489   2.522 -1.8729 -0.2683 -2.8510
   64MOL0     H 8581   9.579   2.419   2.484  0.1410 -0.1809  0.1436
   64MOL0     H 8582   9.613   2.592   2.467 -2.8503 -0.2138 -2.3286
   64MOL0     H 8583   9.774   2.564   2.309  1.1326  1.2901  1.1505
   64MOL0     H 8584   9.760   2.383   2.300  0.9043  0.6376 -0.2373
   64MOL0     H 8585   9.506   2.417   2.256 -0.0817 -0.6383 -1.1163
   64MOL0     H 8586   9.564   2.583   2.201 -1.3579 -0.1616 -3.5522
   64MOL0     H 8587   9.669   2.301   2.099  0.7569 -1.1264  2.2492
   64MOL0     H 8588   9.719   2.465   2.059 -1.0008  1.2467 -0.4143
   64MOL0     H 8589   9.435   2.404   2.029 -0.3913 -0.7874 -0.6396
   64MOL0     H 8590   9.526   2.512   1.934 -0.4665  0.0989 -1.5932
   64MOL0     H 8591   9.737   2.290   1.807  0.7210 -1.0907 -1.1203
   64MOL0     H 8592   9.558   2.081   1.542  1.7586 -0.5322 -2.8388
   64MOL0     H 8593   9.719   2.128   1.586  0.0913 -0.1436  1.0937
   64MOL0     H 8594   9.743   1.940   1.747  1.9057 -0.9265 -2.2710
   64MOL0     H 8595   9.576   1.889   1.709  1.4413  0.3746  2.0637
   64MOL0     H 8596   9.821   1.856   1.527 -0.0762 -1.6914 -2.9092
   64MOL0     H 8597   9.648   1.841   1.477 -0.9950 -1.9979  1.5767
   64MOL0     H 8598   9.622   1.678   1.677 -0.3779  1.3113  1.0064
   64MOL0     H 8599   9.790   1.638   1.646  1.0824 -2.5577 -4.9397
   64MOL0     H 8600   9.825   1.422   1.530  0.4329  1.5509 -0.0179
   64MOL0     H 8601   9.747   1.189   1.602 -2.3027 -0.7981 -0.3798
   64MOL0     H 8602   9.526   0.835   1.506 -1.1162 -1.8645  0.7279
   64MOL0     H 8603   9.456   0.621   1.545  0.1737 -0.6017 -0.4870
   64MOL0     H 8604   9.327   0.441   1.622 -1.8843 -0.8182 -0.0775
   64MOL0     H 8605   9.499   0.420   1.638  0.7019 -0.2318  1.8174
   64MOL0     H 8606   9.370   0.202   1.665 -1.9398 -0.4508  1.2719
   64MOL0     H 8607   9.453   0.248   1.816 -0.8255 -0.3916  1.1521
   64MOL0     H 8608   9.233   0.361   1.896  0.5076 -1.8396  2.0318
   64MOL0     H 8609   9.165   0.317   1.734  0.5405  0.8322 -0.9059
   64MOL0     H 8610   9.240   0.124   1.966  0.7829 -4.8630 -1.9921
   64MOL0     H 8611   9.238   0.074   1.804 -0.9933  0.5456 -0.5239
   64MOL0     H 8612   9.020   0.023   1.897  0.9060 -0.6085 -0.4746
   64MOL0     H 8613   9.010   0.156   1.783  0.3652  1.1130  0.3132
   64MOL0     H 8614   9.041   0.240   2.075 -2.7840  1.5606  2.5029
   64MOL0     H 8615   8.941   0.300   1.944  6.6401  1.7263 -1.2327
   64MOL0     H 8616   8.836   0.195   2.153  1.6921 -2.6074  2.0214
   64MOL0     H 8617   8.875   0.044   2.086  0.4803 -0.5784  0.2094
   64MOL0     H 8618   8.696   0.238   1.937  1.6427 -0.1156 -0.3835
   64MOL0     H 8619   8.740   0.081   1.889 -3.3679 -0.7105 -0.8759
   64MOL0     H 8620   9.519   0.674   1.969 -0.7050  0.9301  0.3762
   64MOL0     H 8621   9.599   0.914   1.923 -0.6782 -0.0506  1.7351
   64MOL0     H 8622   9.347   1.308   1.544  0.1067 -2.2273 -2.3273
   64MOL0     H 8623   9.414   1.534   1.482 -0.0258  1.2700  4.1348
   64MOL0     H 8624  10.195   2.524   2.732 -2.5846  1.7181  1.1494
   64MOL0     H 8625  10.404   2.455   2.872  0.2596 -0.8298 -1.0314
   64MOL0     H 8626  10.465   2.189   3.484 -1.2808 -2.2100  3.3154
   64MOL0     H 8627  10.495   1.981   3.579  0.1665  1.5906  0.6254
   64MOL0     H 8628  10.459   1.739   3.629  2.5732  1.7859  0.0547
   64MOL0     H 8629  10.636   1.746   3.596  1.6552 -2.9195 -1.5515
   64MOL0     H 8630  10.628   1.536   3.678  0.4926 -2.2576 -1.0477
   64MOL0     H 8631  10.629   1.513   3.505  2.3219  0.3922  1.3602
   64MOL0     H 8632  10.395   1.499   3.696  0.0886 -0.9638  0.2346
   64MOL0     H 8633  10.484   1.368   3.634 -0.0266  0.1962  1.3677
   64MOL0     H 8634  10.314   1.546   3.459 -0.0587 -0.2276 -1.9495
   64MOL0     H 8635  10.420   1.414   3.403  0.5631  0.9605  1.0875
   64MOL0     H 8636  10.095   1.201   3.567 -0.5600 -0.1385  0.3977
   64MOL0     H 8637  10.440   1.798   3.181 -2.9710 -0.6595  1.4902
   64MOL0     H 8638  10.271   2.037   3.055 -0.1506  1.4557  0.0410
   64MOL0     H 8639  10.433   2.069   2.985 -1.2018  0.4256 -0.4331
   64MOL0     H 8640  10.389   1.908   3.011 -1.4139 -0.5190  2.4234
   65MOL0     O 8641   8.258  11.007   7.636 -0.4036  0.5346  0.0258
   65MOL0     C 8642   8.154  10.976   7.692  0.2235 -0.0670  0.2449
   65MOL0     O 8643   8.147  10.973   7.831 -0.0096  0.4225  0.4709
   65MOL0     C 8644   8.266  10.987   7.900  0.8147 -0.8084  1.0444
   65MOL0     C 8645   8.362  10.883   7.919 -0.1121  0.2314 -0.4167
   65MOL0     C 8646   8.470  10.904   7.993 -0.0023 -0.0555 -0.7311
   65MOL0     C 8647   8.490  11.027   8.064  0.9631  0.5867 -0.5416
   65MOL0     O 8648   8.585  11.059   8.148  0.7800 -0.6045  0.1548
   65MOL0     C 8649   8.634  10.959   8.236  1.0871  0.1843  0.2076
   65MOL0     C 8650   8.536  10.943   8.352 -0.1402  0.0801  0.1245
   65MOL0     C 8651   8.590  10.861   8.468 -0.6091  0.9540 -0.6104
   65MOL0     C 8652   8.565  10.712   8.461 -0.0689 -0.4394 -0.6998
   65MOL0     C 8653   8.571  10.632   8.587 -0.2952 -0.0867  0.5390
   65MOL0     C 8654   8.502  10.496   8.569  0.2601  0.1444  0.0653
   65MOL0     C 8655   8.457  10.450   8.704 -0.3775 -0.2959  0.2560
   65MOL0     C 8656   8.392  10.313   8.690  0.1803  0.7016 -0.8635
   65MOL0     N 8657   8.258  10.324   8.623  0.4025 -0.3000 -0.4812
   65MOL0     C 8658   8.138  10.342   8.705 -0.2242  0.7535  0.3331
   65MOL0     C 8659   8.041  10.322   8.614 -0.0766 -0.1805  0.2222
   65MOL0     C 8660   7.893  10.331   8.647 -0.6462 -0.0733 -0.3969
   65MOL0     C 8661   7.828  10.437   8.567  0.3373 -0.1104  0.6007
   65MOL0     C 8662   7.674  10.410   8.581  1.2338  0.0672  0.4108
   65MOL0     C 8663   7.593  10.499   8.484 -0.1332  0.0324  0.0898
   65MOL0     O 8664   7.463  10.443   8.460 -0.1381  0.0415  0.4250
   65MOL0     C 8665   7.428  10.354   8.361  0.1149 -0.6804 -0.5950
   65MOL0     C 8666   7.518  10.279   8.276  0.5636  0.4769 -0.8097
   65MOL0     C 8667   7.478  10.182   8.180  0.7073  0.9489 -0.9734
   65MOL0     C 8668   7.339  10.148   8.170 -1.0470  0.8322 -0.1248
   65MOL0     C 8669   7.288  10.058   8.065 -0.4680  0.9250  0.2335
   65MOL0     O 8670   7.159  10.066   8.057  0.7059  0.1352 -0.0461
   65MOL0     C 8671   7.096   9.969   7.989 -0.6085 -0.3588  0.0485
   65MOL0     C 8672   6.971  10.010   7.933 -0.2672 -0.0834  0.5407
   65MOL0     C 8673   6.882   9.909   7.887 -0.3195 -0.9949  0.3724
   65MOL0     C 8674   6.931   9.779   7.867  0.7188 -0.2636  0.2789
   65MOL0     O 8675   6.864   9.676   7.805  0.3989  0.1996 -0.2145
   65MOL0     C 8676   6.726   9.661   7.827  0.1590 -0.7769  1.1831
   65MOL0     C 8677   6.661   9.547   7.734  0.5861 -0.4596 -1.0900
   65MOL0     C 8678   6.516   9.552   7.775  0.5092  0.6987 -0.3770
   65MOL0     C 8679   6.437   9.507   7.657 -0.9491 -0.0993 -0.2764
   65MOL0     C 8680   6.288   9.495   7.683 -0.1398 -0.4766  0.2937
   65MOL0     C 8681   6.226   9.379   7.599  0.3806 -0.3179  0.3293
   65MOL0     C 8682   6.075   9.388   7.630 -0.8689 -0.1926  0.6931
   65MOL0     C 8683   5.996   9.289   7.543  0.4957 -0.9840  0.1277
   65MOL0    Cl 8684   5.981   9.356   7.382 -0.4548  0.2807  0.2852
   65MOL0     C 8685   7.063   9.751   7.913 -0.3896  0.4410  0.8656
   65MOL0     C 8686   7.136   9.837   7.978  0.1018  0.3300 -0.7164
   65MOL0     O 8687   7.365  10.010   7.983  0.4673  1.1649  0.1673
   65MOL0     C 8688   7.251  10.215   8.257  0.4375  0.8823  0.8273
   65MOL0     C 8689   7.294  10.317   8.348 -0.6541 -0.1156 -0.1224
   65MOL0     N 8690   8.104  10.314   8.480  0.8966 -0.8209 -0.0217
   65MOL0     N 8691   8.231  10.308   8.494 -1.0144  0.1610 -0.0801
   65MOL0     C 8692   8.395  11.128   8.044 -1.3316 -0.2735 -0.9008
   65MOL0     C 8693   8.284  11.111   7.959  0.3287  0.9250 -0.2199
   65MOL0     C 8694   8.038  10.946   7.601 -0.8646 -1.6035 -0.0228
   65MOL0     C 8695   8.036  11.011   7.478 -1.4382  0.6529  0.1258
   65MOL0     C 8696   7.945  10.994   7.374  1.3854 -0.1946  0.5851
   65MOL0     C 8697   7.829  10.911   7.411 -0.9332 -0.0766 -0.7761
   65MOL0     O 8698   7.719  10.882   7.321 -0.4387 -0.0189 -0.2137
   65MOL0     C 8699   7.722  10.915   7.185 -0.3205  0.3106  0.0670
   65MOL0     C 8700   7.615  10.856   7.097  0.3808  0.8469  0.2791
   65MOL0     C 8701   7.492  10.952   7.095  0.4278  0.9380 -1.4369
   65MOL0     C 8702   7.378  10.937   6.997 -1.0573 -0.0107 -0.3148
   65MOL0     C 8703   7.330  10.791   6.995 -0.7084 -0.4711  0.1525
   65MOL0     C 8704   7.315  10.666   6.992 -0.9298 -0.3935 -0.2692
   65MOL0     C 8705   7.828  10.846   7.539  0.5035 -0.2061  0.4139
   65MOL0     C 8706   7.935  10.861   7.633  0.2862 -0.1001 -1.1001
   65MOL0     C 8707   7.927  10.777   7.763 -0.2553  0.0911  0.2843
   65MOL0     H 8708   8.333  10.791   7.869  1.5496 -1.1426  1.0383
   65MOL0     H 8709   8.542  10.824   8.008  2.9230  2.5658  0.2781
   65MOL0     H 8710   8.669  10.865   8.193  1.3338  0.6664 -0.6874
   65MOL0     H 8711   8.733  10.996   8.265  2.2284 -1.5898 -1.2365
   65MOL0     H 8712   8.442  10.900   8.316 -1.3071  1.4804  1.3623
   65MOL0     H 8713   8.512  11.041   8.393 -2.6449  1.3053 -3.7596
   65MOL0     H 8714   8.569  10.903   8.567  0.8991 -2.0054  1.0898
   65MOL0     H 8715   8.698  10.865   8.456 -0.8222  0.2153 -3.8629
   65MOL0     H 8716   8.464  10.700   8.421 -1.6636  1.4662  2.4095
   65MOL0     H 8717   8.632  10.674   8.383  1.3249  1.7140 -0.6312
   65MOL0     H 8718   8.674  10.636   8.625 -0.6453  2.4930  1.3835
   65MOL0     H 8719   8.515  10.685   8.665 -0.4053  0.3685  0.1539
   65MOL0     H 8720   8.408  10.504   8.514  0.7064 -1.4883 -1.0013
   65MOL0     H 8721   8.564  10.421   8.519 -0.9511 -1.0266  0.2691
   65MOL0     H 8722   8.386  10.522   8.746 -0.0828 -0.1379  0.4848
   65MOL0     H 8723   8.545  10.451   8.770 -0.2529  2.0266  0.1440
   65MOL0     H 8724   8.458  10.257   8.624  2.4854 -1.5696  2.9781
   65MOL0     H 8725   8.384  10.260   8.785  4.4958  0.4169 -0.4657
   65MOL0     H 8726   8.130  10.357   8.812  1.0188  2.0905  0.2722
   65MOL0     H 8727   7.856  10.232   8.619  1.5752 -0.8208 -0.8753
   65MOL0     H 8728   7.878  10.342   8.755  2.7125  2.0709 -0.0174
   65MOL0     H 8729   7.851  10.544   8.573 -1.3458  0.4959 -2.1543
   65MOL0     H 8730   7.860  10.420   8.464 -1.7339 -1.0078  0.0566
   65MOL0     H 8731   7.651  10.421   8.687  5.6047  1.0474  1.4698
   65MOL0     H 8732   7.647  10.305   8.567  1.2337 -0.1289  1.7208
   65MOL0     H 8733   7.647  10.523   8.392  0.8141  2.0078  1.0884
   65MOL0     H 8734   7.576  10.590   8.544 -3.0351 -1.2525  1.4060
   65MOL0     H 8735   7.617  10.323   8.283  0.2096  1.2696 -0.6951
   65MOL0     H 8736   7.549  10.124   8.120 -0.1657  0.5492 -1.6375
   65MOL0     H 8737   6.927  10.107   7.951  1.1770  0.8509 -0.7220
   65MOL0     H 8738   6.780   9.936   7.860  0.1784  1.5766  0.8007
   65MOL0     H 8739   6.714   9.630   7.931 -3.3172  0.0684  1.1567
   65MOL0     H 8740   6.672   9.754   7.808  0.0311 -0.7693  1.5910
   65MOL0     H 8741   6.673   9.573   7.629  2.0764 -1.4020 -1.1818
   65MOL0     H 8742   6.711   9.450   7.740 -0.4328 -0.9106  0.7970
   65MOL0     H 8743   6.506   9.481   7.857  3.8614 -0.4409 -0.8072
   65MOL0     H 8744   6.476   9.649   7.808 -0.3468 -0.0184  0.7466
   65MOL0     H 8745   6.479   9.408   7.637 -1.0414 -0.6236  1.9065
   65MOL0     H 8746   6.448   9.576   7.573 -1.8140 -0.7799 -0.9590
   65MOL0     H 8747   6.244   9.586   7.642  2.3077  0.6852  0.1079
   65MOL0     H 8748   6.262   9.477   7.788  0.2771  1.1341  0.6895
   65MOL0     H 8749   6.245   9.392   7.492 -1.6830 -2.8921 -0.4577
   65MOL0     H 8750   6.258   9.278   7.627  0.5955 -0.1593  0.6647
   65MOL0     H 8751   6.037   9.489   7.612  0.8677  0.0454 -2.3430
   65MOL0     H 8752   6.062   9.361   7.735  1.6238  1.1789  1.4569
   65MOL0     H 8753   6.053   9.195   7.542  0.3750 -1.0816  1.2293
   65MOL0     H 8754   5.893   9.267   7.572  0.0744 -2.1526 -2.0292
   65MOL0     H 8755   7.095   9.648   7.897  0.7329  0.5090  2.4985
   65MOL0     H 8756   7.226   9.800   8.026 -0.6394 -1.2924 -0.5187
   65MOL0     H 8757   7.143  10.204   8.248  0.1479  0.8971  3.4302
   65MOL0     H 8758   7.213  10.356   8.409 -3.1737 -2.6296 -1.6368
   65MOL0     H 8759   8.402  11.224   8.095 -1.6062 -0.9080  0.3733
   65MOL0     H 8760   8.216  11.194   7.945  0.6596  1.4596  1.2300
   65MOL0     H 8761   8.124  11.071   7.458 -0.4379 -0.5670  0.7454
   65MOL0     H 8762   7.955  11.041   7.277 -3.8752  3.8469  1.5301
   65MOL0     H 8763   7.816  10.879   7.141 -1.0705 -0.6420 -0.8158
   65MOL0     H 8764   7.732  11.024   7.178  0.2681  0.1460 -4.0049
   65MOL0     H 8765   7.596  10.755   7.132 -1.2474  1.0940  0.1754
   65MOL0     H 8766   7.640  10.843   6.992 -1.0271  0.1307  0.0168
   65MOL0     H 8767   7.521  11.056   7.081  0.6724  1.9850  4.4139
   65MOL0     H 8768   7.454  10.950   7.197  3.2952  0.1172 -0.2805
   65MOL0     H 8769   7.294  11.003   7.020 -0.0125  2.5816 -3.2847
   65MOL0     H 8770   7.424  10.964   6.901  2.5231 -3.9817  0.0032
   65MOL0     H 8771   7.307  10.560   6.988  3.7288 -0.9332 -3.1844
   65MOL0     H 8772   7.746  10.775   7.548 -0.8970  1.0997 -1.2291
   65MOL0     H 8773   7.969  10.818   7.856 -0.9244 -0.7444  0.9732
   65MOL0     H 8774   7.822  10.763   7.790 -1.4239  3.0567 -2.0904
   65MOL0     H 8775   7.983  10.685   7.744 -0.7315 -0.6234  2.1298
   66MOL0     O 8776  11.141  10.586   0.860  0.3213  0.2133  0.3413
   66MOL0     C 8777  11.049  10.663   0.885  0.5822  0.5387  0.2153
   66MOL0     O 8778  10.963  10.698   0.787 -0.7682  0.2735 -0.6339
   66MOL0     C 8779  11.014  10.668   0.658  0.5921  0.4710 -0.3108
   66MOL0     C 8780  10.966  10.551   0.586 -0.2705 -0.0433 -0.9722
   66MOL0     C 8781  11.005  10.551   0.451  0.0535  0.4295 -0.3477
   66MOL0     C 8782  11.099  10.639   0.402 -0.5624  0.5545  0.6792
   66MOL0     O 8783  11.162  10.606   0.277  0.0808  0.5359 -0.0535
   66MOL0     C 8784  11.232  10.701   0.198  0.3502 -0.0657 -1.1849
   66MOL0     C 8785  11.132  10.797   0.137 -0.0412  0.7196 -0.4721
   66MOL0     C 8786  11.209  10.902   0.049 -0.3351  0.2335  0.2325
   66MOL0     C 8787  11.292  10.995   0.126 -0.3463 -0.3822  1.2189
   66MOL0     C 8788  11.379  11.085   0.047  0.5955  0.0399  0.4225
   66MOL0     C 8789  11.473  11.144   0.147 -0.4221 -0.0181  0.4079
   66MOL0     C 8790  11.534  11.282   0.103  0.0750  0.3186 -0.1688
   66MOL0     C 8791  11.424  11.400   0.119 -0.0591 -0.8343 -0.5887
   66MOL0     N 8792  11.498  11.526   0.132  0.2995 -0.0115 -0.9230
   66MOL0     C 8793  11.547  11.591   0.021 -0.3808  0.1260 -0.3455
   66MOL0     C 8794  11.641  11.678   0.073 -0.0595  1.3598 -0.4824
   66MOL0     C 8795  11.729  11.762  -0.008  1.3671  0.3731  0.5445
   66MOL0     C 8796  11.856  11.688  -0.041 -0.4220 -0.9245 -0.1600
   66MOL0     C 8797  11.838  11.585  -0.155  0.2679 -0.1040  0.2614
   66MOL0     C 8798  11.977  11.532  -0.205 -0.2898  0.3100 -0.1763
   66MOL0     O 8799  12.033  11.459  -0.100  0.0334  0.4485  0.3268
   66MOL0     C 8800  11.973  11.340  -0.064  0.7971 -0.1883 -0.0311
   66MOL0     C 8801  11.923  11.248  -0.153  0.1213 -0.3791  0.8133
   66MOL0     C 8802  11.853  11.134  -0.117  0.7401 -0.9298 -0.2835
   66MOL0     C 8803  11.861  11.093   0.018 -0.2856  1.1999  0.3755
   66MOL0     C 8804  11.806  10.956   0.050  0.0561  0.0661 -0.0094
   66MOL0     O 8805  11.711  10.912  -0.035  0.3178  0.1518 -0.1404
   66MOL0     C 8806  11.664  10.783  -0.036  0.0300 -0.3892 -0.2326
   66MOL0     C 8807  11.649  10.728  -0.158  0.5547  0.4886  0.5257
   66MOL0     C 8808  11.598  10.596  -0.169  0.0990  0.4543 -1.1125
   66MOL0     C 8809  11.573  10.517  -0.051 -0.1617  0.6055  0.2474
   66MOL0     O 8810  11.529  10.390  -0.079  0.4092  0.1931  0.3812
   66MOL0     C 8811  11.565  10.288   0.020  0.5358  0.0045 -0.7331
   66MOL0     C 8812  11.450  10.258   0.118 -0.4320 -0.6857  0.3044
   66MOL0     C 8813  11.329  10.189   0.058  0.1710  0.9179  1.0120
   66MOL0     C 8814  11.240  10.268  -0.043  0.0165  0.9004  0.4575
   66MOL0     C 8815  11.117  10.192  -0.091  1.1283  0.7123 -0.3339
   66MOL0     C 8816  11.037  10.288  -0.182 -0.3339  0.9780 -0.7342
   66MOL0     C 8817  10.890  10.265  -0.225 -0.1674  0.2443  0.1116
   66MOL0     C 8818  10.848  10.319  -0.359 -0.1411 -0.7743 -0.0426
   66MOL0    Cl 8819  10.930  10.245  -0.505  0.5009  0.4613 -0.3411
   66MOL0     C 8820  11.582  10.580   0.077 -0.0815 -0.6272  0.5808
   66MOL0     C 8821  11.623  10.718   0.083 -0.2750  0.3134  0.1129
   66MOL0     O 8822  11.858  10.895   0.145  0.0054  0.5730 -0.6637
   66MOL0     C 8823  11.918  11.179   0.112 -0.2798 -1.0717 -0.6887
   66MOL0     C 8824  11.976  11.299   0.068  0.5050 -0.7877 -0.2386
   66MOL0     N 8825  11.646  11.667   0.208 -0.7334 -0.2454 -0.1575
   66MOL0     N 8826  11.566  11.575   0.244 -0.8134  0.4712  0.4572
   66MOL0     C 8827  11.144  10.744   0.473 -0.1711 -0.8985 -0.5222
   66MOL0     C 8828  11.089  10.772   0.599 -1.4802  0.6490  0.4930
   66MOL0     C 8829  11.029  10.711   1.026 -0.6126  0.2075  0.3397
   66MOL0     C 8830  10.908  10.787   1.043  0.0655 -0.4013 -0.9554
   66MOL0     C 8831  10.871  10.821   1.169  0.4037 -0.8614  0.4818
   66MOL0     C 8832  10.940  10.784   1.281  0.2604  0.6800  0.1975
   66MOL0     O 8833  10.908  10.820   1.411  0.2580 -0.2060 -0.0119
   66MOL0     C 8834  10.788  10.906   1.431  0.0300  0.2539 -0.3847
   66MOL0     C 8835  10.792  10.964   1.571  0.2683 -0.3518 -0.8544
   66MOL0     C 8836  10.690  11.081   1.600 -0.2455 -0.8191 -0.2225
   66MOL0     C 8837  10.541  11.060   1.557  0.7916  0.3100  0.7800
   66MOL0     C 8838  10.462  10.965   1.639 -0.2808  0.0100 -0.5182
   66MOL0     C 8839  10.397  10.895   1.719  0.0776 -0.3511  0.6553
   66MOL0     C 8840  11.052  10.713   1.267  0.6179  0.4342 -0.5508
   66MOL0     C 8841  11.102  10.673   1.140 -0.5750 -0.1109 -0.7121
   66MOL0     C 8842  11.230  10.587   1.147  0.0628 -0.2744  0.5841
   66MOL0     H 8843  10.892  10.483   0.625  1.2290 -2.1437 -1.5797
   66MOL0     H 8844  10.978  10.473   0.380 -1.7875 -0.0384  0.8020
   66MOL0     H 8845  11.321  10.741   0.246 -0.5916  0.4383  0.1991
   66MOL0     H 8846  11.255  10.636   0.113 -2.1110 -3.7961  0.7096
   66MOL0     H 8847  11.081  10.859   0.210  2.6413 -0.1516  2.3559
   66MOL0     H 8848  11.066  10.739   0.071  1.0328 -2.5566  1.1216
   66MOL0     H 8849  11.142  10.955  -0.019  0.9750  2.0854  0.3024
   66MOL0     H 8850  11.272  10.845  -0.020 -1.2496  0.0437 -0.4572
   66MOL0     H 8851  11.227  11.069   0.174 -0.2097  1.4894 -1.2501
   66MOL0     H 8852  11.339  10.939   0.207 -1.0587 -2.6651  0.1340
   66MOL0     H 8853  11.443  11.028  -0.022 -2.2931 -0.5530 -2.0207
   66MOL0     H 8854  11.329  11.155  -0.021 -1.0408 -1.6097 -0.1957
   66MOL0     H 8855  11.434  11.152   0.249 -1.2912 -1.0854  0.1761
   66MOL0     H 8856  11.558  11.077   0.163 -0.4863 -0.2128 -0.0619
   66MOL0     H 8857  11.571  11.269   0.001  1.1367  0.6961  0.1543
   66MOL0     H 8858  11.613  11.313   0.172  0.4215 -2.0328  0.5850
   66MOL0     H 8859  11.356  11.420   0.036 -0.6944  2.8385  0.6239
   66MOL0     H 8860  11.369  11.394   0.214  0.7110  2.5873  0.2377
   66MOL0     H 8861  11.514  11.575  -0.081  0.5184  1.5707 -0.8923
   66MOL0     H 8862  11.667  11.784  -0.095 -2.6465 -1.3433  2.6794
   66MOL0     H 8863  11.751  11.850   0.053 -1.0578 -1.0373  3.7898
   66MOL0     H 8864  11.926  11.769  -0.065  2.9388 -3.5044  0.1684
   66MOL0     H 8865  11.900  11.639   0.047 -2.4913  1.6030  2.4839
   66MOL0     H 8866  11.782  11.625  -0.239 -1.8902  0.1864  1.7418
   66MOL0     H 8867  11.770  11.511  -0.111  0.6119 -1.2570 -1.0790
   66MOL0     H 8868  12.037  11.621  -0.225  1.9415 -0.5097  2.3556
   66MOL0     H 8869  11.955  11.476  -0.297  0.6836 -0.6522  0.1627
   66MOL0     H 8870  11.926  11.271  -0.259  1.3537 -0.4606  0.8113
   66MOL0     H 8871  11.801  11.071  -0.189  0.9441 -1.2119 -0.1803
   66MOL0     H 8872  11.648  10.794  -0.244  0.1845  0.2900  0.3720
   66MOL0     H 8873  11.572  10.559  -0.267 -0.7265 -0.8927 -0.4222
   66MOL0     H 8874  11.594  10.193  -0.027  0.0225 -0.8824  0.6890
   66MOL0     H 8875  11.649  10.315   0.084  0.7428  1.0875 -1.4369
   66MOL0     H 8876  11.478  10.191   0.199 -3.0650 -1.4786  0.6327
   66MOL0     H 8877  11.424  10.354   0.163 -1.3940 -0.7909 -0.0102
   66MOL0     H 8878  11.368  10.103   0.003  0.5094  0.5776  1.7666
   66MOL0     H 8879  11.272  10.144   0.140  1.4620 -0.5223  1.1689
   66MOL0     H 8880  11.294  10.279  -0.137 -1.0306  3.2224  0.0615
   66MOL0     H 8881  11.211  10.365  -0.002 -0.5797  1.4667 -1.2420
   66MOL0     H 8882  11.056  10.153  -0.009  1.5067 -1.9906 -1.2414
   66MOL0     H 8883  11.137  10.097  -0.142  3.5360  1.0948 -0.2392
   66MOL0     H 8884  11.049  10.391  -0.146  1.7044 -0.0328  1.7596
   66MOL0     H 8885  11.094  10.281  -0.274 -0.0890 -0.8913 -0.4736
   66MOL0     H 8886  10.830  10.315  -0.149 -0.0265  1.3352 -0.4779
   66MOL0     H 8887  10.866  10.158  -0.225  0.6649  0.0460 -0.5386
   66MOL0     H 8888  10.745  10.286  -0.372 -0.1133 -1.8125  2.0030
   66MOL0     H 8889  10.832  10.427  -0.348  2.0176 -0.5324  1.2230
   66MOL0     H 8890  11.570  10.527   0.172 -2.5431  0.1668  0.8068
   66MOL0     H 8891  11.617  10.761   0.183  0.7145  1.5590 -0.3466
   66MOL0     H 8892  11.931  11.155   0.217  2.2046 -1.6928 -1.0652
   66MOL0     H 8893  12.018  11.362   0.146  0.6876  0.4241 -1.2919
   66MOL0     H 8894  11.226  10.808   0.442  0.5386 -2.2005 -1.4524
   66MOL0     H 8895  11.117  10.864   0.650  1.6170 -0.9165  1.9114
   66MOL0     H 8896  10.842  10.818   0.963  1.3104  2.5030 -0.9557
   66MOL0     H 8897  10.776  10.874   1.173  1.5791  1.6833 -1.8486
   66MOL0     H 8898  10.699  10.843   1.422  0.5995 -1.3399  3.4461
   66MOL0     H 8899  10.775  10.990   1.363 -1.2314 -0.5940 -1.2400
   66MOL0     H 8900  10.890  11.011   1.585 -0.0536  0.6202 -1.7125
   66MOL0     H 8901  10.770  10.883   1.641  2.4796 -0.6465 -0.4321
   66MOL0     H 8902  10.716  11.170   1.543 -1.0805 -0.7859 -0.5734
   66MOL0     H 8903  10.688  11.105   1.707  0.5699 -1.2130 -0.1188
   66MOL0     H 8904  10.487  11.153   1.536  1.7578  0.9603  1.1126
   66MOL0     H 8905  10.538  11.016   1.457 -1.6883  1.2996  0.3481
   66MOL0     H 8906  10.349  10.825   1.783 -0.9892 -0.3584 -0.1183
   66MOL0     H 8907  11.109  10.697   1.358 -3.3764 -2.3058  1.7837
   66MOL0     H 8908  11.223  10.478   1.156  1.2399 -0.5593 -1.3960
   66MOL0     H 8909  11.276  10.591   1.048 -0.0240 -0.2130  0.5463
   66MOL0     H 8910  11.301  10.622   1.222 -1.9352 -1.1315  3.0555
   67MOL0     O 8911   5.463  10.151   6.242 -0.1363  0.4792  0.4717
   67MOL0     C 8912   5.429  10.080   6.149 -1.5008  0.1765 -0.0215
   67MOL0     O 8913   5.378  10.120   6.025 -0.2850  0.0618 -0.0441
   67MOL0     C 8914   5.342  10.248   6.011 -0.8258 -0.1772  0.3979
   67MOL0     C 8915   5.435  10.345   6.029 -0.7115  0.2872 -0.0660
   67MOL0     C 8916   5.398  10.480   6.006  0.6087  0.2565 -0.8609
   67MOL0     C 8917   5.267  10.520   5.965  0.0294  0.1810 -0.1586
   67MOL0     O 8918   5.233  10.653   5.962  0.3593 -0.3148 -0.8764
   67MOL0     C 8919   5.095  10.703   5.942  0.1100  0.4954  0.5792
   67MOL0     C 8920   5.083  10.853   5.989  0.5506  0.3954  0.9999
   67MOL0     C 8921   5.087  10.865   6.143  0.5095 -0.0663 -0.8355
   67MOL0     C 8922   5.029  11.009   6.177 -0.5977 -0.4574  0.2253
   67MOL0     C 8923   5.045  11.027   6.333 -0.4126  1.1805  0.1249
   67MOL0     C 8924   4.976  11.159   6.378 -1.1351  1.1704 -0.1174
   67MOL0     C 8925   4.997  11.214   6.519 -1.2004 -0.5729  0.2176
   67MOL0     C 8926   4.936  11.129   6.631  0.1841 -0.1542  0.0551
   67MOL0     N 8927   4.948  11.195   6.761 -0.1862 -0.0671 -0.6894
   67MOL0     C 8928   4.911  11.325   6.790 -0.1760 -0.7202  0.8194
   67MOL0     C 8929   4.956  11.334   6.920 -0.6936 -0.1302  0.5325
   67MOL0     C 8930   4.909  11.462   7.006  0.0549 -0.1118  0.0883
   67MOL0     C 8931   4.757  11.478   7.030 -0.2962  1.0319  0.9802
   67MOL0     C 8932   4.711  11.607   7.069  0.1782  0.4937 -0.0226
   67MOL0     C 8933   4.716  11.624   7.225 -0.0844  0.0045  0.4168
   67MOL0     O 8934   4.633  11.534   7.307  0.0553  0.1935 -0.1550
   67MOL0     C 8935   4.621  11.572   7.432  0.0356  0.6764 -0.1352
   67MOL0     C 8936   4.526  11.503   7.502 -0.6383  0.8923 -0.3316
   67MOL0     C 8937   4.496  11.522   7.638 -0.5582  0.3413 -0.7756
   67MOL0     C 8938   4.567  11.627   7.710  1.0739  0.0851  0.1796
   67MOL0     C 8939   4.530  11.664   7.847 -0.7521 -0.3543  0.5068
   67MOL0     O 8940   4.624  11.727   7.923 -0.0076  0.2874 -1.1877
   67MOL0     C 8941   4.621  11.699   8.061  0.2014  0.0615 -0.5790
   67MOL0     C 8942   4.617  11.568   8.120  0.5837  1.1749 -0.1851
   67MOL0     C 8943   4.629  11.558   8.266  0.3109 -0.8981  0.5390
   67MOL0     C 8944   4.666  11.665   8.344 -0.2071 -0.5062  0.4835
   67MOL0     O 8945   4.704  11.689   8.478 -0.2250 -0.3244 -0.4924
   67MOL0     C 8946   4.708  11.560   8.544 -0.2224  0.4705  0.5262
   67MOL0     C 8947   4.754  11.578   8.686 -0.0493  0.0496 -0.8739
   67MOL0     C 8948   4.914  11.615   8.690 -0.6142  0.3121 -0.2359
   67MOL0     C 8949   4.974  11.660   8.826 -0.1288 -0.2239  0.0143
   67MOL0     C 8950   5.107  11.725   8.801 -0.5457 -0.5291  0.4465
   67MOL0     C 8951   5.221  11.618   8.777 -0.3288  0.5467  0.5680
   67MOL0     C 8952   5.362  11.681   8.737  0.2068 -0.3093 -0.4427
   67MOL0     C 8953   5.480  11.598   8.756 -0.3593  0.2430 -0.4272
   67MOL0    Cl 8954   5.631  11.696   8.772  0.4968 -0.0907 -0.2987
   67MOL0     C 8955   4.666  11.788   8.278  1.6045 -0.0745 -0.2209
   67MOL0     C 8956   4.643  11.806   8.139  0.6290  0.8465  0.6307
   67MOL0     O 8957   4.415  11.633   7.886 -0.2651  0.1318  0.4379
   67MOL0     C 8958   4.670  11.693   7.645  0.6249  0.8883  0.3315
   67MOL0     C 8959   4.700  11.660   7.509  0.5017  0.2813  0.1493
   67MOL0     N 8960   5.014  11.213   6.962  0.3044 -0.0822  0.6790
   67MOL0     N 8961   5.008  11.133   6.862  0.4365 -0.1829 -0.4844
   67MOL0     C 8962   5.174  10.412   5.949  0.8813  0.7559 -0.4151
   67MOL0     C 8963   5.208  10.279   5.962  0.5207  0.1674  1.0141
   67MOL0     C 8964   5.419   9.932   6.159 -0.4712  0.4220  0.0892
   67MOL0     C 8965   5.523   9.859   6.209 -0.3997 -0.3184  0.0471
   67MOL0     C 8966   5.529   9.716   6.210  0.0345  0.0714  0.8581
   67MOL0     C 8967   5.431   9.641   6.143 -0.5164  0.4071 -1.2053
   67MOL0     O 8968   5.433   9.499   6.133 -0.4751  0.3854  0.0329
   67MOL0     C 8969   5.554   9.429   6.128 -0.7474  0.5131 -0.6261
   67MOL0     C 8970   5.641   9.471   6.005  0.6973 -0.1158  0.0342
   67MOL0     C 8971   5.781   9.405   5.996 -0.7977 -0.2740  0.0196
   67MOL0     C 8972   5.867   9.425   5.872  0.0146  0.2362 -0.2083
   67MOL0     C 8973   5.946   9.547   5.874 -0.6929  0.9912 -0.7210
   67MOL0     C 8974   6.011   9.649   5.861 -0.4788 -0.2536 -0.0109
   67MOL0     C 8975   5.330   9.713   6.093 -0.3925  0.4357  0.5893
   67MOL0     C 8976   5.316   9.854   6.095 -0.6985 -0.8993  0.0519
   67MOL0     C 8977   5.203   9.902   6.021 -0.1950 -0.2759  0.4298
   67MOL0     H 8978   5.537  10.324   6.057 -0.3791  0.8114 -0.8599
   67MOL0     H 8979   5.479  10.550   6.022  0.7004 -0.4512  2.7439
   67MOL0     H 8980   5.082  10.699   5.834  0.6155  0.3612  0.5228
   67MOL0     H 8981   5.008  10.651   5.984 -1.7230  1.5313 -1.7609
   67MOL0     H 8982   4.987  10.892   5.952  1.4288 -0.0374 -2.0618
   67MOL0     H 8983   5.158  10.911   5.934 -1.3572  1.6401 -0.4264
   67MOL0     H 8984   5.180  10.832   6.190  0.0736  0.1195  0.1920
   67MOL0     H 8985   5.021  10.786   6.178  2.0708 -1.6895 -1.4240
   67MOL0     H 8986   5.088  11.092   6.138 -1.0176 -0.4823 -0.4707
   67MOL0     H 8987   4.926  11.019   6.143  0.4566  1.1816 -2.8646
   67MOL0     H 8988   4.998  10.937   6.374  0.6963  0.7988  0.6192
   67MOL0     H 8989   5.153  11.026   6.352 -0.4694 -1.5996  0.8394
   67MOL0     H 8990   4.996  11.232   6.299 -1.7716  2.1503  0.5980
   67MOL0     H 8991   4.870  11.134   6.367 -0.6088 -1.5040  0.1728
   67MOL0     H 8992   4.959  11.317   6.515  0.2491  0.0098  0.6804
   67MOL0     H 8993   5.106  11.211   6.528 -1.1745 -0.7123 -0.1382
   67MOL0     H 8994   4.829  11.111   6.618  0.4404 -0.6587 -1.6201
   67MOL0     H 8995   4.981  11.030   6.638 -0.1601 -0.8184 -4.3937
   67MOL0     H 8996   4.854  11.398   6.733 -3.4974  0.0933  4.6945
   67MOL0     H 8997   4.963  11.454   7.101  1.4208 -3.1425 -0.8099
   67MOL0     H 8998   4.948  11.545   6.947  0.3942  1.0561  1.8723
   67MOL0     H 8999   4.699  11.450   6.942 -0.4878 -1.1436  1.7337
   67MOL0     H 9000   4.728  11.403   7.105 -3.0694  0.8169 -0.1796
   67MOL0     H 9001   4.603  11.605   7.053  0.3641  1.2910 -1.5640
   67MOL0     H 9002   4.762  11.694   7.027 -1.3437  2.9313  2.8231
   67MOL0     H 9003   4.705  11.732   7.242  1.2866  0.5562 -1.7848
   67MOL0     H 9004   4.821  11.617   7.254  0.9221  2.8502 -2.0254
   67MOL0     H 9005   4.473  11.417   7.461  2.5714 -0.7900 -1.2777
   67MOL0     H 9006   4.421  11.470   7.697  0.0244  1.5645  1.1561
   67MOL0     H 9007   4.613  11.480   8.057 -3.8860  0.9533  0.1161
   67MOL0     H 9008   4.631  11.459   8.309 -2.9977  0.5401  4.6787
   67MOL0     H 9009   4.618  11.497   8.548  0.1593 -0.2296 -1.0673
   67MOL0     H 9010   4.780  11.499   8.488 -1.4502  0.5254 -1.2166
   67MOL0     H 9011   4.692  11.655   8.733 -1.2416 -0.0760 -2.1612
   67MOL0     H 9012   4.741  11.488   8.747  0.8399  0.9922  0.7677
   67MOL0     H 9013   4.961  11.521   8.658 -0.2721 -0.1555  1.5422
   67MOL0     H 9014   4.933  11.702   8.627 -1.0860  2.5872  2.5572
   67MOL0     H 9015   4.977  11.580   8.900  0.6662 -0.3949 -0.2002
   67MOL0     H 9016   4.914  11.744   8.860  1.3378  0.7449  0.2690
   67MOL0     H 9017   5.142  11.793   8.879 -1.7603 -0.2480  0.7793
   67MOL0     H 9018   5.093  11.796   8.719 -1.3933 -0.0869  0.9551
   67MOL0     H 9019   5.226  11.552   8.864 -1.3975  0.1950  0.3768
   67MOL0     H 9020   5.197  11.553   8.692 -0.7703 -1.5961  2.2390
   67MOL0     H 9021   5.365  11.766   8.806  1.1274 -1.0411  0.4561
   67MOL0     H 9022   5.355  11.736   8.643  0.0363  0.3098 -0.0785
   67MOL0     H 9023   5.469  11.538   8.847  1.2421 -0.7176 -0.8225
   67MOL0     H 9024   5.497  11.522   8.678  0.8228  0.3435 -0.2809
   67MOL0     H 9025   4.674  11.877   8.340 -0.4733 -0.7906  1.2240
   67MOL0     H 9026   4.649  11.902   8.089  0.0556 -0.4619 -2.2045
   67MOL0     H 9027   4.741  11.752   7.702  1.0522  0.9782 -0.2836
   67MOL0     H 9028   4.783  11.713   7.463  1.3021  0.1347  1.3723
   67MOL0     H 9029   5.072  10.446   5.932  0.7802  1.5768  1.5364
   67MOL0     H 9030   5.131  10.211   5.929 -2.2779  3.6275 -0.2707
   67MOL0     H 9031   5.599   9.912   6.266 -0.2354 -0.3120 -0.1750
   67MOL0     H 9032   5.621   9.676   6.251  2.8457  2.4282 -2.5401
   67MOL0     H 9033   5.531   9.326   6.099 -0.0692  0.7971 -2.2668
   67MOL0     H 9034   5.608   9.422   6.223 -0.4089 -2.7910 -0.9316
   67MOL0     H 9035   5.651   9.579   5.996 -1.4496  0.1489  0.4230
   67MOL0     H 9036   5.598   9.440   5.909  1.8494  0.0573 -0.5567
   67MOL0     H 9037   5.771   9.297   6.007 -3.1015 -0.0056  1.2199
   67MOL0     H 9038   5.837   9.450   6.079  1.4548 -2.0419 -0.4547
   67MOL0     H 9039   5.935   9.340   5.864  2.2282  1.9494 -0.3777
   67MOL0     H 9040   5.801   9.434   5.784 -3.4444 -1.2077  2.0139
   67MOL0     H 9041   6.086   9.725   5.848  0.4213 -0.7589  1.8669
   67MOL0     H 9042   5.246   9.666   6.042 -0.0158 -0.1394  0.4870
   67MOL0     H 9043   5.218   9.900   5.913  0.5895 -0.5788  0.5421
   67MOL0     H 9044   5.120   9.835   6.045 -1.0178  0.4910 -0.1872
   67MOL0     H 9045   5.178  10.003   6.056 -1.5797 -1.4918  3.2354
   68MOL0     O 9046   5.293   1.918   3.370  0.4613  0.9214 -0.3697
   68MOL0     C 9047   5.410   1.945   3.409  0.7272  0.9288 -0.2467
   68MOL0     O 9048   5.513   1.848   3.427  0.4303 -0.0152 -0.6528
   68MOL0     C 9049   5.483   1.723   3.376 -0.1749 -0.1779 -0.0145
   68MOL0     C 9050   5.493   1.617   3.461 -0.2351  0.2399 -0.2251
   68MOL0     C 9051   5.464   1.486   3.406 -0.2714 -0.1804 -0.1964
   68MOL0     C 9052   5.426   1.461   3.276 -0.1699 -0.2274 -0.1048
   68MOL0     O 9053   5.396   1.336   3.243  1.1671  0.4877  0.3848
   68MOL0     C 9054   5.294   1.317   3.140  0.1851 -0.2951  0.2149
   68MOL0     C 9055   5.273   1.173   3.129 -0.7153 -0.1581  0.0153
   68MOL0     C 9056   5.391   1.114   3.049 -0.4833 -0.5547 -0.2966
   68MOL0     C 9057   5.381   0.961   3.031 -0.1476  0.2900  0.3809
   68MOL0     C 9058   5.477   0.876   2.951  0.1239 -0.7051  0.2433
   68MOL0     C 9059   5.461   0.882   2.802 -0.6862 -0.2825  0.5334
   68MOL0     C 9060   5.563   0.809   2.716  0.3564  0.0939  0.1466
   68MOL0     C 9061   5.555   0.652   2.748  0.2471 -0.2195  0.5289
   68MOL0     N 9062   5.427   0.585   2.744 -0.0212 -0.2610  0.3716
   68MOL0     C 9063   5.366   0.566   2.621 -0.5256 -0.3552 -0.3372
   68MOL0     C 9064   5.257   0.500   2.650  1.0031  0.3816  0.2479
   68MOL0     C 9065   5.166   0.443   2.546  0.4032  0.6215 -0.0914
   68MOL0     C 9066   5.149   0.301   2.591  0.3212 -0.2703  0.3061
   68MOL0     C 9067   5.053   0.243   2.488  0.5485  1.2789  0.3883
   68MOL0     C 9068   5.003   0.099   2.501 -0.1809  0.8320  0.7418
   68MOL0     O 9069   4.902   0.062   2.396 -0.0521 -0.3441 -1.1472
   68MOL0     C 9070   4.838  -0.056   2.400 -0.4492  0.2562 -0.2955
   68MOL0     C 9071   4.849  -0.154   2.504 -0.5895 -0.4339  0.9956
   68MOL0     C 9072   4.779  -0.278   2.495  0.8012  0.3344 -0.9563
   68MOL0     C 9073   4.692  -0.299   2.381  0.6791 -0.2154  0.4377
   68MOL0     C 9074   4.626  -0.434   2.360 -0.7075  1.0647  0.6114
   68MOL0     O 9075   4.613  -0.518   2.470  0.3170 -0.1960 -0.1758
   68MOL0     C 9076   4.647  -0.644   2.442  0.0191  0.3262  0.0735
   68MOL0     C 9077   4.551  -0.745   2.439 -0.3265  0.0102 -0.5227
   68MOL0     C 9078   4.593  -0.880   2.407  0.9025  1.0084 -0.6078
   68MOL0     C 9079   4.721  -0.918   2.386 -1.3274  0.0742  0.8295
   68MOL0     O 9080   4.769  -1.040   2.346  0.3109  0.5797 -0.4329
   68MOL0     C 9081   4.681  -1.137   2.288 -0.6145  0.0162 -0.1417
   68MOL0     C 9082   4.768  -1.269   2.275  0.7302 -0.6728 -0.1267
   68MOL0     C 9083   4.860  -1.264   2.147  0.2475 -0.2584 -0.0771
   68MOL0     C 9084   5.002  -1.327   2.169 -0.7463  0.1660  0.1625
   68MOL0     C 9085   5.078  -1.340   2.031  0.0804  1.4965  0.4270
   68MOL0     C 9086   5.205  -1.432   2.048 -0.2031 -1.1911 -0.3955
   68MOL0     C 9087   5.266  -1.460   1.912  0.0663  0.0237 -0.7347
   68MOL0     C 9088   5.395  -1.561   1.923  0.2774  1.2261 -0.2776
   68MOL0    Cl 9089   5.466  -1.607   1.773 -0.3359  0.0977  0.2709
   68MOL0     C 9090   4.818  -0.817   2.368 -0.5824  0.7646  0.3180
   68MOL0     C 9091   4.777  -0.682   2.388  1.2082  0.5502  0.1469
   68MOL0     O 9092   4.584  -0.465   2.248  0.2533  0.0521 -0.2056
   68MOL0     C 9093   4.695  -0.201   2.277  0.5503  0.9168 -0.4880
   68MOL0     C 9094   4.752  -0.078   2.287  0.0263 -0.7158 -0.1003
   68MOL0     N 9095   5.257   0.463   2.786 -0.5246  0.4230 -0.0415
   68MOL0     N 9096   5.358   0.527   2.840  0.5402 -0.4669  0.2278
   68MOL0     C 9097   5.428   1.570   3.184 -1.5842  0.2162 -0.9506
   68MOL0     C 9098   5.460   1.697   3.231 -0.8808 -0.0679 -0.6929
   68MOL0     C 9099   5.433   2.078   3.440  0.0484 -0.9182 -0.6313
   68MOL0     C 9100   5.340   2.180   3.397 -0.7157  0.5630 -0.8981
   68MOL0     C 9101   5.341   2.317   3.435  0.1827  0.8979  0.8822
   68MOL0     C 9102   5.436   2.354   3.526 -0.2213  0.5900  0.8553
   68MOL0     O 9103   5.428   2.492   3.535  0.0738  0.4934 -0.6123
   68MOL0     C 9104   5.528   2.551   3.612  0.2507  0.6477 -0.0921
   68MOL0     C 9105   5.498   2.696   3.606  0.5150 -1.1368  0.3142
   68MOL0     C 9106   5.600   2.783   3.530  0.3463  0.5916 -0.1604
   68MOL0     C 9107   5.575   2.755   3.378  0.5041  0.2390 -0.0578
   68MOL0     C 9108   5.696   2.810   3.310  0.4586 -0.0313  0.7024
   68MOL0     C 9109   5.810   2.858   3.271  0.3338 -0.9670  0.5053
   68MOL0     C 9110   5.527   2.262   3.577 -0.2177 -0.3021 -0.8374
   68MOL0     C 9111   5.527   2.126   3.539  0.0750 -0.2511 -0.0258
   68MOL0     C 9112   5.626   2.034   3.602 -0.1594 -1.3995  0.0743
   68MOL0     H 9113   5.519   1.624   3.567  3.9639 -1.4485 -0.9272
   68MOL0     H 9114   5.466   1.400   3.472  0.0696  0.2251  0.3320
   68MOL0     H 9115   5.200   1.366   3.163  1.4351  1.5493  1.7068
   68MOL0     H 9116   5.326   1.346   3.040 -3.6037  0.3237 -0.9751
   68MOL0     H 9117   5.181   1.153   3.073  0.9986  1.6666 -3.7678
   68MOL0     H 9118   5.277   1.134   3.232  2.0897  4.5846  2.0149
   68MOL0     H 9119   5.484   1.128   3.104 -1.8623  0.8142  1.8251
   68MOL0     H 9120   5.393   1.172   2.956 -1.5282  0.8928  0.5551
   68MOL0     H 9121   5.405   0.920   3.130  0.1083 -1.6418 -0.4316
   68MOL0     H 9122   5.277   0.936   3.005 -0.2009  3.6561 -3.6665
   68MOL0     H 9123   5.578   0.901   2.986 -0.4755  1.3192  0.6642
   68MOL0     H 9124   5.457   0.770   2.964 -1.3801 -0.9099 -2.8523
   68MOL0     H 9125   5.360   0.854   2.770 -0.3206  2.4895 -3.9965
   68MOL0     H 9126   5.466   0.987   2.770  0.8978 -0.2789  0.7358
   68MOL0     H 9127   5.661   0.857   2.714  0.2206  0.4005 -2.1520
   68MOL0     H 9128   5.528   0.830   2.615 -1.0519  1.6449  0.9076
   68MOL0     H 9129   5.624   0.605   2.677 -2.2894  0.7499 -2.8581
   68MOL0     H 9130   5.595   0.632   2.848 -0.2451 -0.0304  0.7647
   68MOL0     H 9131   5.390   0.604   2.522 -2.7239 -2.0483 -1.6218
   68MOL0     H 9132   5.077   0.506   2.540 -0.7748 -0.5443  3.1734
   68MOL0     H 9133   5.217   0.442   2.449  0.7802 -1.0940  0.0849
   68MOL0     H 9134   5.243   0.248   2.610 -1.1443 -2.3305  2.2971
   68MOL0     H 9135   5.094   0.311   2.685  0.6300  1.6915  0.3048
   68MOL0     H 9136   5.102   0.253   2.390  1.5549 -2.0226  0.4487
   68MOL0     H 9137   4.956   0.292   2.484 -0.1200  0.0598 -3.8312
   68MOL0     H 9138   4.954   0.082   2.598  0.5119  3.2864  1.5945
   68MOL0     H 9139   5.088   0.031   2.493  0.3188  1.5451 -0.2149
   68MOL0     H 9140   4.914  -0.136   2.589  2.0906  3.2749 -1.4918
   68MOL0     H 9141   4.783  -0.351   2.575 -0.0316 -0.2922 -1.4698
   68MOL0     H 9142   4.452  -0.725   2.480 -0.0655  5.8120 -1.7707
   68MOL0     H 9143   4.520  -0.960   2.420  1.6472  0.4961  0.5440
   68MOL0     H 9144   4.595  -1.166   2.350 -1.9287 -0.0425 -1.9212
   68MOL0     H 9145   4.638  -1.092   2.198  1.2484 -2.5606 -2.4777
   68MOL0     H 9146   4.816  -1.292   2.370 -0.7659 -1.2056  0.5265
   68MOL0     H 9147   4.699  -1.352   2.258 -1.2130 -0.5984  5.3327
   68MOL0     H 9148   4.809  -1.309   2.061 -0.9207  3.2509 -1.4012
   68MOL0     H 9149   4.859  -1.161   2.111 -1.0734  0.3261  1.4998
   68MOL0     H 9150   4.975  -1.423   2.213 -3.0282  0.2794 -0.8568
   68MOL0     H 9151   5.049  -1.266   2.247 -1.7621  1.2046 -0.0140
   68MOL0     H 9152   5.102  -1.238   2.001 -3.6467  1.9592 -1.6287
   68MOL0     H 9153   5.013  -1.371   1.949  2.0448  0.8405 -0.9605
   68MOL0     H 9154   5.280  -1.382   2.110  0.5539 -1.8285 -0.7695
   68MOL0     H 9155   5.175  -1.526   2.095  0.6442 -0.9528  0.6510
   68MOL0     H 9156   5.294  -1.358   1.883 -2.4727  1.9252  2.7579
   68MOL0     H 9157   5.206  -1.502   1.831  0.7893  0.4455 -1.5159
   68MOL0     H 9158   5.468  -1.506   1.983 -1.3852  0.0423  3.0757
   68MOL0     H 9159   5.377  -1.652   1.982 -0.1185  2.3360  1.3931
   68MOL0     H 9160   4.916  -0.855   2.340  0.0674  2.3928  0.2814
   68MOL0     H 9161   4.845  -0.602   2.362 -0.6035  1.7019 -1.3746
   68MOL0     H 9162   4.637  -0.222   2.188  1.8525  0.9629 -1.3654
   68MOL0     H 9163   4.743  -0.012   2.202  0.9071 -0.7000 -0.1851
   68MOL0     H 9164   5.403   1.543   3.082  2.5583 -0.4120 -2.0142
   68MOL0     H 9165   5.451   1.781   3.163 -3.2347  0.3430  0.0228
   68MOL0     H 9166   5.259   2.144   3.334 -1.9193 -0.9258  1.3791
   68MOL0     H 9167   5.272   2.390   3.395  1.1579  2.2001  1.4912
   68MOL0     H 9168   5.628   2.524   3.578  0.7890  1.4202  0.8294
   68MOL0     H 9169   5.522   2.509   3.713 -2.8798  0.0351 -0.4109
   68MOL0     H 9170   5.486   2.733   3.708 -1.4635 -0.3491 -0.1538
   68MOL0     H 9171   5.406   2.728   3.556 -0.0636 -1.0509  1.4040
   68MOL0     H 9172   5.698   2.745   3.562  0.2514 -1.5168 -2.1375
   68MOL0     H 9173   5.579   2.887   3.556 -0.9679 -0.1416  2.0413
   68MOL0     H 9174   5.556   2.650   3.353 -3.0380  0.8101 -0.4113
   68MOL0     H 9175   5.491   2.815   3.339  1.9053  1.2721 -1.6568
   68MOL0     H 9176   5.903   2.898   3.233 -1.6272  0.9818 -2.7400
   68MOL0     H 9177   5.606   2.302   3.640 -1.8782  0.4555  0.8502
   68MOL0     H 9178   5.680   1.977   3.526  1.8509  1.4045 -0.7214
   68MOL0     H 9179   5.702   2.095   3.651 -0.4157 -2.4179  1.8589
   68MOL0     H 9180   5.585   1.971   3.682  0.9971 -1.8342  0.3434
   69MOL0     O 9181  10.725  11.092   8.532 -0.0784  0.2795  0.5179
   69MOL0     C 9182  10.826  11.159   8.572  0.9311  0.4366 -0.1056
   69MOL0     O 9183  10.889  11.257   8.502  0.2887 -0.6289 -0.4102
   69MOL0     C 9184  10.809  11.323   8.405  0.4652 -0.5422  0.8390
   69MOL0     C 9185  10.710  11.427   8.429  0.1950 -0.0006 -0.5140
   69MOL0     C 9186  10.633  11.489   8.328  0.4917  1.0228 -0.9141
   69MOL0     C 9187  10.661  11.465   8.194  0.8464 -0.2181  0.1858
   69MOL0     O 9188  10.594  11.523   8.089  0.6464  0.2070  0.3491
   69MOL0     C 9189  10.458  11.473   8.080  0.1974  0.5680  0.8156
   69MOL0     C 9190  10.452  11.356   7.977  0.6833 -0.3782  0.6274
   69MOL0     C 9191  10.338  11.371   7.867 -0.3771  0.0423 -0.1858
   69MOL0     C 9192  10.320  11.250   7.782 -0.2951  0.4811  0.9802
   69MOL0     C 9193  10.427  11.219   7.672 -0.2044 -0.2090 -0.6056
   69MOL0     C 9194  10.391  11.101   7.576  0.3234 -0.3273  0.2363
   69MOL0     C 9195  10.486  11.092   7.458 -0.6122 -1.0718  0.5649
   69MOL0     C 9196  10.630  11.093   7.500 -0.2697 -0.4700  0.2074
   69MOL0     N 9197  10.726  11.069   7.395  0.2881 -0.3787 -0.1017
   69MOL0     C 9198  10.703  10.974   7.297 -0.1386 -0.3208  0.1849
   69MOL0     C 9199  10.795  10.999   7.204 -0.0387 -0.3322  0.1032
   69MOL0     C 9200  10.826  10.902   7.095  0.2081  0.1059 -0.1272
   69MOL0     C 9201  10.703  10.896   6.996 -0.5468  0.3541  0.0270
   69MOL0     C 9202  10.721  10.797   6.882 -0.1235 -0.6586  0.1868
   69MOL0     C 9203  10.596  10.799   6.803  0.1547 -0.3241  0.6036
   69MOL0     O 9204  10.625  10.704   6.695 -0.1674 -0.6621 -0.5828
   69MOL0     C 9205  10.544  10.706   6.581  0.2405  0.7648 -0.4321
   69MOL0     C 9206  10.422  10.777   6.571  0.1209  0.3511 -0.5020
   69MOL0     C 9207  10.339  10.769   6.463  0.6192  0.2712 -0.4296
   69MOL0     C 9208  10.364  10.690   6.358 -0.4023  0.0175  0.7331
   69MOL0     C 9209  10.279  10.678   6.230 -0.5631  0.0206  0.3870
   69MOL0     O 9210  10.158  10.736   6.244  0.1222 -0.1700  0.0701
   69MOL0     C 9211  10.076  10.749   6.127 -0.0716 -0.4208  0.7934
   69MOL0     C 9212  10.075  10.877   6.059  0.0417 -0.1858 -0.3878
   69MOL0     C 9213   9.986  10.893   5.952 -0.3304 -0.5583 -0.4143
   69MOL0     C 9214   9.899  10.782   5.914 -0.4132  0.0252 -0.2257
   69MOL0     O 9215   9.822  10.783   5.801  0.0334  0.3007  0.1267
   69MOL0     C 9216   9.862  10.834   5.675 -0.4128  0.4758  0.5534
   69MOL0     C 9217   9.734  10.859   5.589 -0.1862  0.2457 -1.3150
   69MOL0     C 9218   9.773  10.918   5.452 -0.4871  1.1455 -0.6538
   69MOL0     C 9219   9.660  10.934   5.355  0.5866 -0.2615 -0.2437
   69MOL0     C 9220   9.696  10.995   5.219 -0.1478 -0.3334  0.1487
   69MOL0     C 9221   9.578  11.012   5.123 -0.5674 -0.7020 -0.3924
   69MOL0     C 9222   9.625  11.080   5.001  1.5637  0.2105  0.6055
   69MOL0     C 9223   9.510  11.133   4.916 -0.0059 -0.2029 -0.4446
   69MOL0    Cl 9224   9.576  11.193   4.768 -0.1712  0.2227  0.5388
   69MOL0     C 9225   9.887  10.664   5.993  1.0004  0.2169 -0.8513
   69MOL0     C 9226   9.986  10.647   6.093 -1.0906 -0.2760 -0.2776
   69MOL0     O 9227  10.330  10.632   6.132 -0.5354  0.1765  0.1414
   69MOL0     C 9228  10.485  10.610   6.368 -0.1422 -1.1835 -0.5738
   69MOL0     C 9229  10.574  10.623   6.475  0.4108 -0.2245  0.0451
   69MOL0     N 9230  10.882  11.101   7.252  0.2395  0.4587  0.8327
   69MOL0     N 9231  10.837  11.138   7.370  0.1578  0.3904  0.9855
   69MOL0     C 9232  10.759  11.380   8.166  0.6787 -0.5242  0.2414
   69MOL0     C 9233  10.837  11.311   8.265 -0.3015  0.6142  1.7055
   69MOL0     C 9234  10.893  11.105   8.697  0.2946 -0.4769  0.4614
   69MOL0     C 9235  11.030  11.146   8.706  1.0392  0.3527 -0.8567
   69MOL0     C 9236  11.118  11.102   8.801  0.5868  0.1611  1.1933
   69MOL0     C 9237  11.065  11.013   8.897 -0.8492  0.5018  0.2358
   69MOL0     O 9238  11.164  10.965   8.984  0.2505  0.3535  0.2957
   69MOL0     C 9239  11.174  10.825   9.005  0.3131  0.5136 -0.0959
   69MOL0     C 9240  11.333  10.803   8.989 -0.1914 -0.5752  0.7541
   69MOL0     C 9241  11.409  10.884   9.097  1.0748  0.4366 -0.3023
   69MOL0     C 9242  11.559  10.870   9.090 -0.0581 -0.4987 -0.2439
   69MOL0     C 9243  11.622  10.743   9.059  0.1604 -0.1722 -0.4645
   69MOL0     C 9244  11.673  10.639   9.045 -0.6140  0.5103  0.3529
   69MOL0     C 9245  10.936  10.970   8.893 -0.0997  0.0796  0.4572
   69MOL0     C 9246  10.840  11.020   8.800 -0.5588  0.9882 -0.2197
   69MOL0     C 9247  10.703  10.978   8.807  1.5852  0.9680 -0.0865
   69MOL0     H 9248  10.688  11.439   8.534  1.7870 -1.3368  0.0287
   69MOL0     H 9249  10.556  11.562   8.351  2.6160  3.6404 -1.6363
   69MOL0     H 9250  10.425  11.440   8.179 -0.5283 -1.9427 -0.1826
   69MOL0     H 9251  10.382  11.543   8.043 -0.9963 -1.0777  0.0169
   69MOL0     H 9252  10.424  11.262   8.026 -1.1180  1.3554  3.1871
   69MOL0     H 9253  10.544  11.354   7.918  0.2886  0.8354 -0.0510
   69MOL0     H 9254  10.371  11.450   7.799  1.2183 -1.6436 -1.4674
   69MOL0     H 9255  10.243  11.408   7.907 -0.3458  1.7436 -1.5778
   69MOL0     H 9256  10.306  11.163   7.846  1.7599 -0.5782  0.0873
   69MOL0     H 9257  10.221  11.259   7.735  0.2084  0.0740 -0.1841
   69MOL0     H 9258  10.459  11.309   7.621  2.5530 -1.7396 -1.8027
   69MOL0     H 9259  10.515  11.181   7.726 -0.7280  0.1789  0.5510
   69MOL0     H 9260  10.394  11.003   7.625 -0.0657 -0.4586 -0.0024
   69MOL0     H 9261  10.289  11.118   7.542  1.2329  2.3609 -1.4573
   69MOL0     H 9262  10.483  11.185   7.400  2.5895 -1.0393  0.2227
   69MOL0     H 9263  10.459  11.003   7.401 -0.2287  0.6178 -2.4781
   69MOL0     H 9264  10.665  11.182   7.553  0.4436 -2.6698  3.8272
   69MOL0     H 9265  10.636  11.013   7.575  0.8630 -0.4747  0.1190
   69MOL0     H 9266  10.630  10.896   7.316  1.2680 -1.7588 -0.0680
   69MOL0     H 9267  10.917  10.942   7.050  0.8661 -1.5850 -0.3639
   69MOL0     H 9268  10.861  10.804   7.129  2.0108  0.3171 -1.1990
   69MOL0     H 9269  10.605  10.875   7.041 -1.2515  3.6022  0.2544
   69MOL0     H 9270  10.681  10.999   6.965 -1.7727  0.2182  0.3748
   69MOL0     H 9271  10.739  10.701   6.930  0.7177  0.5267  2.3645
   69MOL0     H 9272  10.806  10.838   6.825 -0.8753  0.3748 -0.2316
   69MOL0     H 9273  10.576  10.899   6.763 -2.3353 -0.8445  0.3420
   69MOL0     H 9274  10.514  10.757   6.862  0.6055 -2.6996 -0.3713
   69MOL0     H 9275  10.391  10.834   6.657 -2.4555 -3.1191  1.1285
   69MOL0     H 9276  10.259  10.842   6.456  0.3704 -0.1462 -3.1063
   69MOL0     H 9277  10.144  10.957   6.085 -0.7367  0.7445 -1.1293
   69MOL0     H 9278   9.979  10.988   5.901 -0.6552  1.1227  2.5677
   69MOL0     H 9279   9.919  10.927   5.670 -1.8486  1.3595 -4.0895
   69MOL0     H 9280   9.919  10.761   5.618 -2.8295 -1.9647  1.0278
   69MOL0     H 9281   9.674  10.768   5.573 -0.7792 -0.1525  2.3525
   69MOL0     H 9282   9.663  10.932   5.629  1.6005  1.0014  0.6941
   69MOL0     H 9283   9.836  11.007   5.452  0.9913  0.1770 -2.2700
   69MOL0     H 9284   9.833  10.841   5.401  2.7202  1.4272  2.2726
   69MOL0     H 9285   9.571  10.986   5.393 -1.9096 -1.7215 -3.4793
   69MOL0     H 9286   9.625  10.834   5.326 -0.2180 -0.3187  0.8621
   69MOL0     H 9287   9.772  10.931   5.172  0.5013  0.1524  0.5260
   69MOL0     H 9288   9.741  11.094   5.230 -0.9497  0.3218 -1.8822
   69MOL0     H 9289   9.544  10.910   5.101  2.3024 -1.6620 -0.7424
   69MOL0     H 9290   9.498  11.073   5.166 -2.0278 -2.0251 -1.1025
   69MOL0     H 9291   9.679  11.007   4.939  1.4372 -0.1050  0.8634
   69MOL0     H 9292   9.703  11.154   5.023  3.8545 -1.3461 -1.6234
   69MOL0     H 9293   9.442  11.049   4.902 -0.2370 -0.1781  0.4681
   69MOL0     H 9294   9.458  11.213   4.970 -0.1580  0.0331 -0.9367
   69MOL0     H 9295   9.816  10.584   5.974 -0.8127  1.8526 -1.3311
   69MOL0     H 9296   9.992  10.568   6.168  2.5357 -1.0042 -1.1219
   69MOL0     H 9297  10.502  10.541   6.286 -3.1638 -2.0663 -0.5773
   69MOL0     H 9298  10.666  10.566   6.468  1.6084  1.7400 -1.4693
   69MOL0     H 9299  10.765  11.357   8.060  0.3918 -2.3965  0.5966
   69MOL0     H 9300  10.910  11.242   8.224 -0.5626  2.9261 -3.3226
   69MOL0     H 9301  11.073  11.209   8.628 -0.6118 -1.4750 -3.4109
   69MOL0     H 9302  11.223  11.126   8.809  0.7501 -0.9386  2.6087
   69MOL0     H 9303  11.106  10.772   8.938 -0.5776  2.7176 -1.0368
   69MOL0     H 9304  11.153  10.797   9.109 -0.2505  0.5021 -0.2078
   69MOL0     H 9305  11.378  10.834   8.895  0.7974 -2.6042  0.4959
   69MOL0     H 9306  11.351  10.695   8.990 -0.1829 -0.6170  3.5525
   69MOL0     H 9307  11.387  10.852   9.200 -0.0307 -0.8252 -0.9063
   69MOL0     H 9308  11.377  10.988   9.087 -4.8982 -0.7961  1.9055
   69MOL0     H 9309  11.606  10.946   9.027 -0.1134  0.6612  1.0606
   69MOL0     H 9310  11.595  10.893   9.191 -1.8794 -0.5004  0.4425
   69MOL0     H 9311  11.730  10.549   9.055  1.2849  1.7010  0.9216
   69MOL0     H 9312  10.912  10.896   8.968 -0.3968 -0.2177  0.0750
   69MOL0     H 9313  10.661  10.938   8.714  0.5347  1.0383  0.3342
   69MOL0     H 9314  10.685  10.900   8.882  0.1452  0.0751 -1.3094
   69MOL0     H 9315  10.634  11.063   8.811 -1.0373 -0.6888 -3.9838
   70MOL0     O 9316   4.242  10.238   5.192 -0.1811 -0.1560 -0.7022
   70MOL0     C 9317   4.244  10.362   5.159 -0.2293 -0.4583  1.0259
   70MOL0     O 9318   4.339  10.432   5.090  1.2940  0.3990 -0.6771
   70MOL0     C 9319   4.444  10.359   5.032 -0.3755 -0.3346 -0.2092
   70MOL0     C 9320   4.508  10.247   5.097  0.2188  0.0781  0.0482
   70MOL0     C 9321   4.629  10.195   5.047  0.3403  0.4131  0.6596
   70MOL0     C 9322   4.684  10.233   4.923 -0.6343 -0.2494 -0.0475
   70MOL0     O 9323   4.794  10.180   4.853 -0.5040  0.1228 -0.2145
   70MOL0     C 9324   4.831  10.051   4.900 -0.6087 -0.2955  0.2200
   70MOL0     C 9325   4.952  10.016   4.822  0.5986 -0.0243  0.1752
   70MOL0     C 9326   5.011   9.885   4.875  0.3079  0.4266 -0.5867
   70MOL0     C 9327   5.084   9.806   4.762 -0.2082  0.5408  0.9372
   70MOL0     C 9328   5.203   9.883   4.705 -0.5454  0.0763 -0.7646
   70MOL0     C 9329   5.273   9.790   4.596  0.6609 -0.3971 -0.6551
   70MOL0     C 9330   5.383   9.870   4.516  0.7612  0.2740  0.3950
   70MOL0     C 9331   5.479   9.964   4.594  0.5884 -0.3938 -0.2192
   70MOL0     N 9332   5.561   9.908   4.706  0.9588 -0.2924  0.6257
   70MOL0     C 9333   5.625   9.789   4.682  0.2698 -0.1342  0.1500
   70MOL0     C 9334   5.684   9.756   4.795 -0.0560 -0.2302 -0.2395
   70MOL0     C 9335   5.757   9.627   4.831 -0.1205 -0.6518 -0.0094
   70MOL0     C 9336   5.912   9.628   4.791 -0.7651  0.3104  0.2307
   70MOL0     C 9337   5.980   9.507   4.854 -0.5941  0.1401 -0.0766
   70MOL0     C 9338   6.132   9.516   4.826  0.0083 -0.1273  0.6328
   70MOL0     O 9339   6.190   9.604   4.923 -0.3772  0.4142 -0.3403
   70MOL0     C 9340   6.324   9.625   4.911 -0.0625 -0.6683  0.4878
   70MOL0     C 9341   6.410   9.559   4.827 -0.3451  0.2975 -0.6501
   70MOL0     C 9342   6.554   9.574   4.834  0.1224  0.3026 -0.2239
   70MOL0     C 9343   6.614   9.671   4.914  1.0739  1.1448  0.8302
   70MOL0     C 9344   6.755   9.703   4.911 -0.1539 -0.1968 -0.0826
   70MOL0     O 9345   6.792   9.802   4.992  0.3068 -0.8029 -0.4822
   70MOL0     C 9346   6.925   9.843   5.001  0.0054  0.6935 -0.2796
   70MOL0     C 9347   6.989   9.927   4.909  0.0704 -0.0540 -1.4508
   70MOL0     C 9348   7.129   9.953   4.917 -0.2541  0.0043  1.2868
   70MOL0     C 9349   7.207   9.885   5.011  0.2157 -0.3949  0.2917
   70MOL0     O 9350   7.336   9.886   5.023  0.2988 -0.5565  0.9148
   70MOL0     C 9351   7.398   9.963   4.913 -0.0816 -0.1033  0.2577
   70MOL0     C 9352   7.546   9.951   4.932  0.0443  1.0265  0.1514
   70MOL0     C 9353   7.626  10.070   4.868  0.7864 -0.1676  0.3280
   70MOL0     C 9354   7.618  10.080   4.721 -0.1067 -0.1912  0.5076
   70MOL0     C 9355   7.746  10.150   4.660 -0.2764 -0.4977 -0.3998
   70MOL0     C 9356   7.851  10.054   4.607  0.0264  0.1220 -0.9652
   70MOL0     C 9357   7.967  10.117   4.529  0.1330  0.3923  0.2000
   70MOL0     C 9358   8.068  10.181   4.621  0.2689 -0.0077  0.2472
   70MOL0    Cl 9359   8.225  10.156   4.554 -0.2404 -0.2609  0.1567
   70MOL0     C 9360   7.146   9.804   5.095 -0.5002  0.6964 -0.6434
   70MOL0     C 9361   7.007   9.777   5.093  0.2390 -0.1449  0.7117
   70MOL0     O 9362   6.828   9.630   4.845  0.2386 -0.2112  0.0708
   70MOL0     C 9363   6.525   9.744   4.994  0.7296  1.0074 -0.1477
   70MOL0     C 9364   6.386   9.720   4.993  0.4672 -0.1276  0.2207
   70MOL0     N 9365   5.650   9.854   4.891 -0.9469  0.4836  0.3929
   70MOL0     N 9366   5.565   9.938   4.838  0.2076  0.6195 -0.1398
   70MOL0     C 9367   4.616  10.333   4.859  0.0578 -0.7762  0.4321
   70MOL0     C 9368   4.501  10.400   4.915 -0.5831 -1.0208  1.5274
   70MOL0     C 9369   4.139  10.438   5.209 -0.7370  0.2713 -0.3463
   70MOL0     C 9370   4.157  10.574   5.245  0.3993 -0.2164  0.5454
   70MOL0     C 9371   4.061  10.653   5.305  0.3396 -0.2638 -0.2285
   70MOL0     C 9372   3.933  10.601   5.325 -0.2661  0.1841  0.0985
   70MOL0     O 9373   3.831  10.673   5.379 -0.0339  0.0332  0.2246
   70MOL0     C 9374   3.719  10.719   5.299 -0.6961  0.8296  0.1098
   70MOL0     C 9375   3.780  10.819   5.195 -0.2773  0.9883 -0.5225
   70MOL0     C 9376   3.666  10.881   5.111  0.6099 -0.4923  0.1884
   70MOL0     C 9377   3.577  10.794   5.039  0.8341  0.1644  0.8509
   70MOL0     C 9378   3.461  10.869   4.987  0.3020  1.4563 -0.3577
   70MOL0     C 9379   3.359  10.914   4.947 -0.2584 -0.6406 -1.1316
   70MOL0     C 9380   3.904  10.457   5.303 -0.6170 -0.2458  0.9974
   70MOL0     C 9381   4.004  10.382   5.245 -0.4925  0.0270  0.3356
   70MOL0     C 9382   3.948  10.246   5.197 -0.8892  0.9112 -0.6294
   70MOL0     H 9383   4.471  10.209   5.192 -0.3907  2.0936  0.6488
   70MOL0     H 9384   4.677  10.117   5.105 -1.2653  0.3584  1.9743
   70MOL0     H 9385   4.849  10.046   5.008 -1.1309 -0.4963  0.3015
   70MOL0     H 9386   4.745   9.986   4.882  0.8290 -1.8514 -1.4835
   70MOL0     H 9387   5.030  10.089   4.841 -0.8151  1.2795  1.2782
   70MOL0     H 9388   4.919  10.008   4.718 -2.5589 -0.7345  1.0989
   70MOL0     H 9389   4.935   9.822   4.922  0.9307  0.8537  1.0718
   70MOL0     H 9390   5.087   9.911   4.949  0.8066 -0.4844 -0.7657
   70MOL0     H 9391   5.111   9.704   4.792  0.9661 -0.8494 -3.9810
   70MOL0     H 9392   5.014   9.780   4.682  0.1785  0.5786  0.5826
   70MOL0     H 9393   5.169   9.976   4.658 -0.8943 -0.9658 -2.6456
   70MOL0     H 9394   5.282   9.893   4.780 -0.7009  1.7951 -0.7881
   70MOL0     H 9395   5.325   9.705   4.641 -0.3488 -1.2297 -1.0123
   70MOL0     H 9396   5.193   9.759   4.528  0.3205 -1.2315  0.1169
   70MOL0     H 9397   5.345   9.941   4.442  4.3930  2.4051  0.3105
   70MOL0     H 9398   5.433   9.801   4.447  0.6073  0.5488  0.0054
   70MOL0     H 9399   5.545  10.024   4.530 -0.0833 -1.3081 -1.8381
   70MOL0     H 9400   5.416  10.045   4.632  2.9276  1.2180  0.4252
   70MOL0     H 9401   5.634   9.728   4.593  3.8195 -1.0948  1.0056
   70MOL0     H 9402   5.746   9.613   4.939  3.5019 -1.9614  0.3064
   70MOL0     H 9403   5.708   9.541   4.785 -2.5155 -1.5041  3.6394
   70MOL0     H 9404   5.913   9.596   4.686  1.4663 -3.3798  1.1594
   70MOL0     H 9405   5.963   9.724   4.802  0.2711  0.0080 -1.4618
   70MOL0     H 9406   5.943   9.412   4.812  1.5526 -0.6977 -0.1890
   70MOL0     H 9407   5.958   9.507   4.961  1.3253  0.2281  0.3545
   70MOL0     H 9408   6.145   9.556   4.725 -1.7296 -0.4673  0.2412
   70MOL0     H 9409   6.185   9.421   4.837  5.1553  2.3675  0.0326
   70MOL0     H 9410   6.369   9.490   4.753 -0.2835  1.6776 -2.0268
   70MOL0     H 9411   6.630   9.518   4.781  0.4074  1.3544 -0.9675
   70MOL0     H 9412   6.913   9.973   4.847 -0.2728  0.8446 -0.3828
   70MOL0     H 9413   7.171  10.012   4.836  3.3019  1.0165  3.6242
   70MOL0     H 9414   7.370   9.929   4.813 -3.6492  0.8851  0.7903
   70MOL0     H 9415   7.367  10.067   4.922 -0.5088 -0.1374 -0.6506
   70MOL0     H 9416   7.574   9.944   5.038 -1.8773  2.1043  0.7632
   70MOL0     H 9417   7.577   9.856   4.886 -1.4299  1.7478 -2.5246
   70MOL0     H 9418   7.583  10.159   4.915 -0.2255 -2.1407  3.4163
   70MOL0     H 9419   7.731  10.058   4.896  0.7815 -1.9195 -0.2949
   70MOL0     H 9420   7.530  10.143   4.705  0.2796 -0.1906 -2.2028
   70MOL0     H 9421   7.594   9.992   4.661 -0.1718  0.8854 -1.1156
   70MOL0     H 9422   7.787  10.222   4.732 -1.7143  2.2760 -2.2012
   70MOL0     H 9423   7.700  10.210   4.581 -1.0505  2.6773  2.2285
   70MOL0     H 9424   7.875   9.997   4.698 -2.8626  1.5917  0.8747
   70MOL0     H 9425   7.809   9.985   4.533 -0.1842 -1.3271  0.4522
   70MOL0     H 9426   7.933  10.180   4.447  0.0556  0.7605  0.5137
   70MOL0     H 9427   8.008  10.022   4.493 -1.5778 -0.5218  0.5396
   70MOL0     H 9428   8.048  10.286   4.644  1.4174 -0.1822  2.2613
   70MOL0     H 9429   8.065  10.139   4.722  0.8927  2.4597  1.3668
   70MOL0     H 9430   7.211   9.738   5.152  2.7254 -0.0550 -4.7031
   70MOL0     H 9431   6.965   9.689   5.141  0.1678 -1.9241 -2.3783
   70MOL0     H 9432   6.552   9.800   5.082  0.6464  0.2040  0.3990
   70MOL0     H 9433   6.320   9.773   5.061 -1.6964 -1.5179 -0.7213
   70MOL0     H 9434   4.660  10.357   4.763 -0.8713  0.9762  0.4105
   70MOL0     H 9435   4.449  10.481   4.863  0.2459  0.2101  2.5582
   70MOL0     H 9436   4.250  10.620   5.213  0.0150  1.6206  1.9422
   70MOL0     H 9437   4.086  10.757   5.326  2.4062 -0.6077 -0.8017
   70MOL0     H 9438   3.640  10.760   5.363 -0.3668 -2.3047  2.7712
   70MOL0     H 9439   3.681  10.631   5.248 -0.2987 -0.6048  2.1853
   70MOL0     H 9440   3.849  10.771   5.125 -0.3432  0.4597 -0.2278
   70MOL0     H 9441   3.820  10.898   5.260  0.2281 -0.5446  1.0874
   70MOL0     H 9442   3.711  10.938   5.030 -4.8240  2.2599 -1.3425
   70MOL0     H 9443   3.613  10.963   5.161  1.2810 -0.2248  0.4774
   70MOL0     H 9444   3.635  10.758   4.954  2.0828  0.2324  1.6411
   70MOL0     H 9445   3.529  10.717   5.100  1.1097  1.0497  2.2448
   70MOL0     H 9446   3.261  10.930   4.907 -0.8113  1.1852  0.7753
   70MOL0     H 9447   3.802  10.427   5.328 -1.8063  1.7674 -1.0260
   70MOL0     H 9448   3.843  10.248   5.165 -1.2024 -2.7799 -0.1717
   70MOL0     H 9449   4.010  10.196   5.122 -2.0292 -0.3450 -0.7743
   70MOL0     H 9450   3.936  10.183   5.285  0.3736  3.8654  1.8185
   71MOL0     O 9451   4.316   9.912   4.070  0.2478 -0.6583  1.0000
   71MOL0     C 9452   4.383   9.815   4.036  0.4525  0.2776 -0.1537
   71MOL0     O 9453   4.327   9.688   4.010 -0.1542 -0.9817  0.0175
   71MOL0     C 9454   4.196   9.670   4.041 -0.7471 -0.3079  1.1270
   71MOL0     C 9455   4.130   9.733   4.149  0.6467  0.0151 -0.0965
   71MOL0     C 9456   4.002   9.695   4.174  0.4243  0.6131 -0.0487
   71MOL0     C 9457   3.935   9.602   4.096  0.9158 -0.0593  0.1615
   71MOL0     O 9458   3.795   9.578   4.119 -0.5747  0.0053 -0.1876
   71MOL0     C 9459   3.757   9.550   4.258 -0.0568  0.8212 -0.5059
   71MOL0     C 9460   3.628   9.464   4.254  0.4445 -0.7477 -0.3349
   71MOL0     C 9461   3.624   9.328   4.198  0.7359  1.1254 -0.5506
   71MOL0     C 9462   3.491   9.250   4.202  0.4171  0.3528 -0.2440
   71MOL0     C 9463   3.483   9.130   4.295 -0.0033 -0.4626  0.6316
   71MOL0     C 9464   3.518   9.170   4.440  0.8499  0.4027 -0.3250
   71MOL0     C 9465   3.548   9.037   4.514 -0.4233 -0.2410 -1.0711
   71MOL0     C 9466   3.499   9.022   4.665  0.0460  0.7869  0.6444
   71MOL0     N 9467   3.561   9.118   4.763 -0.1256 -0.1226 -0.0949
   71MOL0     C 9468   3.661   9.093   4.849 -0.2102  0.2014  0.2072
   71MOL0     C 9469   3.668   9.205   4.921  0.0898  0.1161  0.0445
   71MOL0     C 9470   3.769   9.204   5.033 -1.2597 -1.1926  1.2516
   71MOL0     C 9471   3.836   9.335   5.051  0.5029 -0.2910 -0.5688
   71MOL0     C 9472   3.931   9.349   5.176  0.8074  0.9798  0.0646
   71MOL0     C 9473   4.026   9.475   5.152  0.1539 -0.0724 -0.6263
   71MOL0     O 9474   4.125   9.452   5.053 -0.2969 -0.0556  0.3176
   71MOL0     C 9475   4.224   9.367   5.084 -0.6882  0.1065 -0.9890
   71MOL0     C 9476   4.317   9.411   5.181  0.1315  0.1550 -0.4085
   71MOL0     C 9477   4.426   9.326   5.208 -0.4817  1.4106 -0.2364
   71MOL0     C 9478   4.451   9.208   5.139  0.1402 -0.6849  0.2653
   71MOL0     C 9479   4.570   9.128   5.169 -0.5112  0.0363 -0.2549
   71MOL0     O 9480   4.645   9.174   5.261 -0.1312 -0.1185  0.3057
   71MOL0     C 9481   4.742   9.103   5.327 -0.0630 -0.1001 -0.0799
   71MOL0     C 9482   4.751   9.123   5.461 -0.0312  0.1230 -0.2249
   71MOL0     C 9483   4.851   9.062   5.535 -0.0625 -0.5559  0.1456
   71MOL0     C 9484   4.936   8.967   5.478 -0.4331 -0.2465 -0.2693
   71MOL0     O 9485   5.026   8.909   5.561  0.1289 -0.0330  0.1667
   71MOL0     C 9486   5.154   8.981   5.559 -0.7350 -0.4514  0.4789
   71MOL0     C 9487   5.252   8.865   5.573 -0.0597 -0.7997  0.2474
   71MOL0     C 9488   5.392   8.922   5.573 -0.2397  0.0704  1.0963
   71MOL0     C 9489   5.494   8.807   5.593  0.0437  1.2843 -0.1233
   71MOL0     C 9490   5.505   8.770   5.734  0.1281  0.2282 -0.9233
   71MOL0     C 9491   5.646   8.697   5.747  0.6389  0.1610  0.1272
   71MOL0     C 9492   5.684   8.650   5.880 -0.1243 -1.8748  0.7315
   71MOL0     C 9493   5.809   8.571   5.895 -0.3900  0.6954  0.1767
   71MOL0    Cl 9494   5.965   8.658   5.835 -0.0346 -0.3178  0.1412
   71MOL0     C 9495   4.917   8.937   5.347 -1.0531 -0.2068 -0.2759
   71MOL0     C 9496   4.833   9.012   5.274 -0.3035 -0.2807  0.1894
   71MOL0     O 9497   4.591   9.023   5.114 -0.7781 -0.3530 -0.0506
   71MOL0     C 9498   4.354   9.172   5.041  0.3485 -0.8909  0.2045
   71MOL0     C 9499   4.249   9.251   5.015  0.5981  0.0044  0.1226
   71MOL0     N 9500   3.581   9.304   4.874 -0.2909  0.5884  0.1277
   71MOL0     N 9501   3.511   9.245   4.779  0.1624 -0.5443  0.1550
   71MOL0     C 9502   3.990   9.547   3.986 -0.2904  0.6892 -0.6163
   71MOL0     C 9503   4.126   9.574   3.958 -0.0832 -0.7172 -1.0059
   71MOL0     C 9504   4.535   9.830   4.007 -0.2485  0.6530  0.4171
   71MOL0     C 9505   4.591   9.945   4.055 -0.0235  1.3389  0.0543
   71MOL0     C 9506   4.728   9.972   4.035  1.0943 -0.4526 -0.7888
   71MOL0     C 9507   4.814   9.878   3.977  0.0033 -0.0748 -0.2236
   71MOL0     O 9508   4.945   9.875   4.007 -1.1776  0.2233  0.1432
   71MOL0     C 9509   5.029   9.775   3.945 -0.7589 -0.9685  0.0098
   71MOL0     C 9510   5.177   9.806   3.986  0.1415 -0.3047 -0.7152
   71MOL0     C 9511   5.198   9.811   4.135 -0.9377 -0.0005 -0.1505
   71MOL0     C 9512   5.340   9.788   4.161  0.0406  0.3440  0.3199
   71MOL0     C 9513   5.434   9.899   4.132 -0.8740  0.0715 -0.5418
   71MOL0     C 9514   5.515   9.990   4.116 -0.0962 -0.3614 -0.5375
   71MOL0     C 9515   4.747   9.763   3.920  0.0284  0.5230  0.1868
   71MOL0     C 9516   4.617   9.731   3.951  0.2564  0.0651  0.0880
   71MOL0     C 9517   4.576   9.585   3.929  1.4180 -0.2022 -0.0446
   71MOL0     H 9518   4.172   9.802   4.222  0.4750 -0.6131  0.6091
   71MOL0     H 9519   3.957   9.739   4.263 -1.4264 -0.2296 -0.5177
   71MOL0     H 9520   3.842   9.516   4.317 -0.6696  0.6040  0.2588
   71MOL0     H 9521   3.725   9.645   4.302  0.3965  0.9347 -0.4172
   71MOL0     H 9522   3.551   9.520   4.200 -0.2775 -1.2537  0.1650
   71MOL0     H 9523   3.592   9.460   4.357 -0.3005  0.0885 -0.5552
   71MOL0     H 9524   3.708   9.269   4.236 -0.3693 -0.4430 -0.4458
   71MOL0     H 9525   3.636   9.337   4.090 -2.5184 -0.7106 -1.1983
   71MOL0     H 9526   3.405   9.315   4.220  0.0550 -0.6860  2.1680
   71MOL0     H 9527   3.485   9.209   4.101 -1.3709 -3.5248  1.2293
   71MOL0     H 9528   3.385   9.082   4.293 -0.6405  0.7962 -1.4696
   71MOL0     H 9529   3.556   9.054   4.264  0.9799  0.3653  0.8537
   71MOL0     H 9530   3.612   9.226   4.447 -0.8674  3.2852  2.0188
   71MOL0     H 9531   3.431   9.219   4.484 -1.5753 -3.9382  0.2298
   71MOL0     H 9532   3.657   9.025   4.512 -0.1551  1.5648  0.3737
   71MOL0     H 9533   3.506   8.949   4.465 -0.0545 -1.0229 -0.0342
   71MOL0     H 9534   3.391   9.028   4.652 -0.3342 -1.4725  2.1359
   71MOL0     H 9535   3.518   8.923   4.707 -0.3962  1.2032  1.8520
   71MOL0     H 9536   3.719   9.004   4.872  0.0492 -1.0243 -4.3072
   71MOL0     H 9537   3.712   9.185   5.125 -4.9723 -3.3408 -1.2013
   71MOL0     H 9538   3.849   9.132   5.015  1.2293  1.2442  1.8978
   71MOL0     H 9539   3.887   9.341   4.955 -1.4455 -0.5414 -1.6578
   71MOL0     H 9540   3.772   9.423   5.049  0.1924 -0.5329 -2.6188
   71MOL0     H 9541   3.993   9.260   5.189  1.3494  1.4298  0.6506
   71MOL0     H 9542   3.877   9.364   5.271  0.4353 -2.7896  0.6399
   71MOL0     H 9543   4.073   9.517   5.241  0.0140 -3.1274  1.0071
   71MOL0     H 9544   3.957   9.553   5.119 -1.1569  0.5375  3.1016
   71MOL0     H 9545   4.304   9.505   5.233 -0.0532 -1.4154  2.5841
   71MOL0     H 9546   4.496   9.350   5.288  1.5805 -2.4748 -0.6079
   71MOL0     H 9547   4.683   9.194   5.507  1.5882  2.8059 -1.6862
   71MOL0     H 9548   4.855   9.084   5.642 -0.4326 -1.1291  0.2839
   71MOL0     H 9549   5.167   9.040   5.467 -0.2298 -0.8799  0.2667
   71MOL0     H 9550   5.158   9.043   5.649  2.1209  0.4123 -0.1278
   71MOL0     H 9551   5.226   8.820   5.669 -1.9147  2.6098  1.5106
   71MOL0     H 9552   5.244   8.787   5.497 -0.1739 -1.2893  0.7565
   71MOL0     H 9553   5.407   8.975   5.478 -0.0422 -3.4684 -1.0164
   71MOL0     H 9554   5.405   8.997   5.651  0.5787  0.0017  1.0381
   71MOL0     H 9555   5.593   8.843   5.566  0.3628  2.2273  2.1282
   71MOL0     H 9556   5.471   8.715   5.537  1.6772 -0.7410  2.3231
   71MOL0     H 9557   5.415   8.711   5.756 -2.3359  2.8565 -3.1657
   71MOL0     H 9558   5.496   8.851   5.807  0.1534 -0.6837  0.1127
   71MOL0     H 9559   5.645   8.612   5.678  1.0945  2.0128 -2.2637
   71MOL0     H 9560   5.724   8.762   5.706  0.7535  0.1944  0.3933
   71MOL0     H 9561   5.597   8.596   5.918 -1.4903 -0.5670 -0.3855
   71MOL0     H 9562   5.704   8.746   5.929  2.6729 -1.4097 -1.0665
   71MOL0     H 9563   5.824   8.553   6.002  1.2062  1.8979  0.2059
   71MOL0     H 9564   5.797   8.470   5.856  0.0886  1.3006 -1.6230
   71MOL0     H 9565   4.981   8.862   5.302  1.1625  1.1473  0.4642
   71MOL0     H 9566   4.842   9.006   5.166  1.6986  0.4051  0.2613
   71MOL0     H 9567   4.376   9.095   4.967  2.6859 -1.1733  1.1184
   71MOL0     H 9568   4.188   9.227   4.928  1.3298 -1.7250  0.0562
   71MOL0     H 9569   3.926   9.479   3.931 -0.8083  0.4588  0.2463
   71MOL0     H 9570   4.187   9.554   3.871 -0.2168  1.8282 -1.7653
   71MOL0     H 9571   4.531  10.018   4.108 -2.1442  0.4177 -0.9593
   71MOL0     H 9572   4.756  10.064   4.084  1.4698 -1.5045  1.0453
   71MOL0     H 9573   5.018   9.775   3.836 -3.2600  0.2321  0.1969
   71MOL0     H 9574   4.998   9.674   3.976 -0.9773 -1.6482 -2.2158
   71MOL0     H 9575   5.214   9.889   3.925  1.3585 -0.4414 -0.1963
   71MOL0     H 9576   5.227   9.721   3.939 -0.9679  0.7573 -4.1695
   71MOL0     H 9577   5.143   9.726   4.176  0.0793 -2.7510 -3.9736
   71MOL0     H 9578   5.176   9.907   4.184 -0.5122  0.0313 -0.0151
   71MOL0     H 9579   5.365   9.757   4.263 -1.0572  3.0968  1.5307
   71MOL0     H 9580   5.376   9.706   4.098 -0.2606  0.3470  0.1411
   71MOL0     H 9581   5.594  10.058   4.092 -0.6081 -0.7623 -3.8486
   71MOL0     H 9582   4.813   9.692   3.871  1.4100 -0.0105  2.6303
   71MOL0     H 9583   4.534   9.532   4.014 -0.1634 -3.1141 -2.4682
   71MOL0     H 9584   4.491   9.567   3.863  2.6617 -3.1583 -1.0065
   71MOL0     H 9585   4.663   9.525   3.900  1.1416 -1.4357  1.5411
   72MOL0     O 9586   0.077  10.115   5.625 -0.4018 -0.1402  0.8218
   72MOL0     C 9587   0.059  10.057   5.730  1.0979 -0.8816  0.5837
   72MOL0     O 9588   0.115   9.941   5.773 -0.2146 -0.8930 -0.0474
   72MOL0     C 9589   0.191   9.879   5.682 -0.4877  0.5209 -0.0597
   72MOL0     C 9590   0.313   9.938   5.631  0.4993 -0.0197  0.8955
   72MOL0     C 9591   0.394   9.879   5.536 -0.5815  0.0557 -1.1118
   72MOL0     C 9592   0.363   9.741   5.504 -0.3076  0.1497  0.2968
   72MOL0     O 9593   0.435   9.677   5.404  0.9350  0.0841  0.1482
   72MOL0     C 9594   0.385   9.641   5.275  0.5632 -0.2582 -0.2044
   72MOL0     C 9595   0.394   9.765   5.189 -0.2732  0.5096 -0.3158
   72MOL0     C 9596   0.531   9.784   5.114 -1.1231 -0.0903 -0.2380
   72MOL0     C 9597   0.517   9.895   5.005  0.1059  0.6056  0.0699
   72MOL0     C 9598   0.649   9.922   4.940 -0.4923 -0.3892  0.4355
   72MOL0     C 9599   0.751  10.007   5.022  0.7668 -0.2879  0.1362
   72MOL0     C 9600   0.849  10.087   4.929 -0.2191  0.0884  0.1127
   72MOL0     C 9601   0.978  10.021   4.894  0.1512 -0.3154 -0.2041
   72MOL0     N 9602   1.079  10.121   4.876 -0.7514  0.2761  0.2203
   72MOL0     C 9603   1.084  10.224   4.784  0.2685  0.8142  0.1805
   72MOL0     C 9604   1.212  10.267   4.778  0.8881 -0.1785 -0.1100
   72MOL0     C 9605   1.261  10.356   4.668 -0.6279  2.0352 -0.0727
   72MOL0     C 9606   1.285  10.501   4.722  0.4168  0.2896  0.3289
   72MOL0     C 9607   1.155  10.560   4.776  0.5279 -0.1859 -0.2202
   72MOL0     C 9608   1.136  10.704   4.833 -0.5879 -0.8321  0.5910
   72MOL0     O 9609   1.217  10.783   4.743  0.4849 -0.0014 -0.0374
   72MOL0     C 9610   1.162  10.811   4.622  0.3768 -0.7116  0.6107
   72MOL0     C 9611   1.239  10.898   4.550 -0.1668 -1.0652  0.3117
   72MOL0     C 9612   1.203  10.928   4.416 -0.7213  0.1591 -0.5761
   72MOL0     C 9613   1.086  10.883   4.361  0.8226  0.1977 -0.0101
   72MOL0     C 9614   1.058  10.894   4.221  0.1315 -0.5873  0.8420
   72MOL0     O 9615   1.134  10.961   4.136 -0.5966 -0.4178  0.4745
   72MOL0     C 9616   1.135  10.924   4.008  0.3849  0.0174  0.5500
   72MOL0     C 9617   1.165  10.795   3.951  0.1298 -0.4215 -0.5659
   72MOL0     C 9618   1.181  10.768   3.823 -0.0681 -0.0500  0.1053
   72MOL0     C 9619   1.154  10.875   3.733 -0.1145  0.0079 -0.1865
   72MOL0     O 9620   1.163  10.845   3.606  0.2202 -0.3491  0.4072
   72MOL0     C 9621   1.049  10.876   3.525  0.0734  0.7819 -0.2400
   72MOL0     C 9622   0.925  10.800   3.576 -1.0217  0.5436  0.6050
   72MOL0     C 9623   0.823  10.786   3.465 -0.2772 -0.6146  0.2061
   72MOL0     C 9624   0.822  10.658   3.388  0.0192  0.0636 -0.4924
   72MOL0     C 9625   0.724  10.644   3.271  0.4759  0.6759 -0.0667
   72MOL0     C 9626   0.739  10.506   3.208 -0.0577 -0.0588 -0.4523
   72MOL0     C 9627   0.661  10.510   3.072 -0.0453  0.6009 -0.1800
   72MOL0     C 9628   0.623  10.364   3.024  0.0223  0.5455 -0.0220
   72MOL0    Cl 9629   0.771  10.264   2.988 -0.5287  0.0242 -0.0468
   72MOL0     C 9630   1.132  11.000   3.779  0.8097 -0.5490 -0.5535
   72MOL0     C 9631   1.123  11.024   3.914  0.4410  0.1082  0.7531
   72MOL0     O 9632   0.960  10.827   4.181  0.4605 -0.5045 -0.2360
   72MOL0     C 9633   0.994  10.817   4.443 -0.9676  1.1107 -0.4730
   72MOL0     C 9634   1.033  10.774   4.571 -0.8418 -0.4294 -1.1127
   72MOL0     N 9635   1.276  10.211   4.892  0.8688 -0.0536  1.0013
   72MOL0     N 9636   1.202  10.120   4.938 -0.0398 -0.0333 -0.4627
   72MOL0     C 9637   0.248   9.677   5.555 -0.2025 -0.2692 -0.0596
   72MOL0     C 9638   0.159   9.749   5.640  0.2050 -0.3199  0.1173
   72MOL0     C 9639  -0.027  10.129   5.824 -0.4926 -0.0412  0.0927
   72MOL0     C 9640  -0.129  10.219   5.782  0.4993 -0.3552  0.6855
   72MOL0     C 9641  -0.223  10.267   5.877 -0.4448 -0.5021  1.0086
   72MOL0     C 9642  -0.216  10.234   6.010 -0.0410 -0.0002 -0.0072
   72MOL0     O 9643  -0.332  10.264   6.089 -0.1188  0.0042  0.2016
   72MOL0     C 9644  -0.344  10.245   6.227 -0.8343 -0.8583  0.4114
   72MOL0     C 9645  -0.457  10.322   6.290 -0.1159  0.4411 -0.4361
   72MOL0     C 9646  -0.605  10.272   6.270 -0.8262 -0.3342 -0.5129
   72MOL0     C 9647  -0.684  10.378   6.344 -1.2560  0.1384  0.1203
   72MOL0     C 9648  -0.700  10.334   6.486  0.2501  0.3331 -0.0647
   72MOL0     C 9649  -0.726  10.291   6.601 -0.0156 -0.2731 -0.3331
   72MOL0     C 9650  -0.114  10.153   6.045 -1.0392 -0.3364  0.3261
   72MOL0     C 9651  -0.005  10.111   5.961  0.4611 -1.9823  0.0620
   72MOL0     C 9652   0.097  10.034   6.036 -1.2034 -0.0412  0.2915
   72MOL0     H 9653   0.335  10.042   5.653 -0.3363  0.9049 -2.2801
   72MOL0     H 9654   0.472   9.936   5.486  0.6176  0.0828  0.7013
   72MOL0     H 9655   0.456   9.567   5.237  2.8170  3.0362 -2.9761
   72MOL0     H 9656   0.280   9.610   5.268 -0.5500  3.4422 -2.9835
   72MOL0     H 9657   0.382   9.853   5.253  0.7871  0.0596  0.5417
   72MOL0     H 9658   0.317   9.764   5.112 -3.7180  0.0736  2.8643
   72MOL0     H 9659   0.573   9.696   5.063 -1.9747 -1.4266  1.2847
   72MOL0     H 9660   0.609   9.800   5.189 -1.9598 -1.8954  1.0761
   72MOL0     H 9661   0.437   9.865   4.937  0.4853  3.0661 -1.5710
   72MOL0     H 9662   0.473   9.976   5.064 -1.6482 -1.5478  1.9390
   72MOL0     H 9663   0.697   9.827   4.913  1.8239  0.3288  1.7367
   72MOL0     H 9664   0.629   9.982   4.852 -1.5223 -0.1414  0.8307
   72MOL0     H 9665   0.688  10.073   5.082  2.2811  0.6082  0.8127
   72MOL0     H 9666   0.811   9.943   5.088  3.8238  0.5536 -1.6247
   72MOL0     H 9667   0.871  10.170   4.997 -0.8337 -2.7167  4.1123
   72MOL0     H 9668   0.799  10.112   4.835  2.1208 -2.8811 -2.1211
   72MOL0     H 9669   1.016   9.958   4.975  2.6166  3.0251  1.5153
   72MOL0     H 9670   0.949   9.969   4.803 -0.4413  1.3202 -0.9876
   72MOL0     H 9671   1.020  10.245   4.698  2.6258  1.1995 -1.5869
   72MOL0     H 9672   1.346  10.308   4.619 -2.4555 -0.7018 -0.8235
   72MOL0     H 9673   1.189  10.348   4.586  0.9129  1.4308 -1.4261
   72MOL0     H 9674   1.367  10.512   4.794  1.7418 -3.5270 -0.3923
   72MOL0     H 9675   1.323  10.559   4.637  1.8718 -1.5311 -0.3296
   72MOL0     H 9676   1.131  10.500   4.864 -0.0964 -1.4260 -1.2101
   72MOL0     H 9677   1.075  10.549   4.703 -0.5612 -1.7419  1.1346
   72MOL0     H 9678   1.193  10.705   4.926  0.6630 -1.4293 -0.1348
   72MOL0     H 9679   1.033  10.741   4.837 -0.9001 -0.9380 -2.8586
   72MOL0     H 9680   1.318  10.955   4.599 -3.4048  1.0892  3.5878
   72MOL0     H 9681   1.288  10.978   4.372  1.7780 -1.3192  2.2399
   72MOL0     H 9682   1.189  10.710   4.014  0.2065 -0.9754 -1.3264
   72MOL0     H 9683   1.202  10.666   3.793  2.6465 -0.8934  4.1218
   72MOL0     H 9684   1.038  10.981   3.498 -0.6691  0.2371 -2.2621
   72MOL0     H 9685   1.084  10.846   3.425 -1.7856  1.6435 -1.2093
   72MOL0     H 9686   0.950  10.701   3.613 -1.3382  1.4183  3.3794
   72MOL0     H 9687   0.887  10.855   3.662 -2.8306  0.8562 -0.3498
   72MOL0     H 9688   0.722  10.793   3.507 -0.0774 -1.6447  0.9047
   72MOL0     H 9689   0.844  10.871   3.399  0.0423 -0.3847  0.6011
   72MOL0     H 9690   0.794  10.580   3.459  0.9926  0.2350  0.0972
   72MOL0     H 9691   0.922  10.632   3.354  0.2222  0.5784 -0.2971
   72MOL0     H 9692   0.732  10.728   3.202 -1.3480 -1.4772 -3.1588
   72MOL0     H 9693   0.621  10.643   3.306  0.6332  0.4518  0.4053
   72MOL0     H 9694   0.838  10.461   3.200  0.2320  0.2683  1.0371
   72MOL0     H 9695   0.684  10.439   3.276 -0.5228 -0.6469 -1.3860
   72MOL0     H 9696   0.722  10.560   2.997 -0.3177 -1.9548 -2.2239
   72MOL0     H 9697   0.569  10.569   3.085 -0.3381  1.4712 -4.7624
   72MOL0     H 9698   0.567  10.310   3.102 -0.3775  1.9430  0.6875
   72MOL0     H 9699   0.568  10.368   2.930 -0.0997 -0.9731 -0.0475
   72MOL0     H 9700   1.115  11.088   3.717  3.0030 -0.0270 -0.5227
   72MOL0     H 9701   1.120  11.127   3.950  1.0168 -0.6488  3.1757
   72MOL0     H 9702   0.902  10.776   4.401  0.0866 -4.2670  1.7036
   72MOL0     H 9703   0.961  10.721   4.632 -0.8369  0.1907 -0.5537
   72MOL0     H 9704   0.235   9.573   5.526  2.8637 -0.6398 -0.4429
   72MOL0     H 9705   0.075   9.696   5.686  0.7361 -1.7468 -0.4951
   72MOL0     H 9706  -0.126  10.243   5.676  2.7777  0.1485  0.8165
   72MOL0     H 9707  -0.316  10.307   5.839 -0.0831 -0.7181 -0.1560
   72MOL0     H 9708  -0.251  10.283   6.270 -1.4752  0.5508  0.5897
   72MOL0     H 9709  -0.346  10.136   6.238  2.1267 -1.1094 -0.6352
   72MOL0     H 9710  -0.447  10.421   6.245  1.6209  0.8453  0.7512
   72MOL0     H 9711  -0.436  10.339   6.396 -0.6564  0.8680 -0.3953
   72MOL0     H 9712  -0.630  10.171   6.302 -0.2239  0.7637  4.1487
   72MOL0     H 9713  -0.617  10.277   6.162  1.1870  1.3220 -0.7288
   72MOL0     H 9714  -0.652  10.481   6.325 -2.2688  0.4992  0.2627
   72MOL0     H 9715  -0.786  10.382   6.303 -1.4770 -0.5890  0.5796
   72MOL0     H 9716  -0.742  10.256   6.701 -1.8901  0.2781 -0.4157
   72MOL0     H 9717  -0.116  10.132   6.151 -1.4638  1.2847  0.6675
   72MOL0     H 9718   0.083   9.927   6.023 -0.8918 -0.3604  2.2483
   72MOL0     H 9719   0.189  10.071   5.989 -0.9583  1.9929  2.2167
   72MOL0     H 9720   0.107  10.055   6.143  2.3988 -0.6786  0.2149
   73MOL0     O 9721   9.455   3.599   4.677  0.1478  0.2591 -0.2760
   73MOL0     C 9722   9.449   3.687   4.590  0.8987 -0.6413  0.3647
   73MOL0     O 9723   9.439   3.658   4.455  0.0469  0.0285  0.1783
   73MOL0     C 9724   9.403   3.517   4.432 -0.8323 -0.6639 -0.6622
   73MOL0     C 9725   9.304   3.443   4.498 -0.5905  0.3084 -1.0856
   73MOL0     C 9726   9.255   3.318   4.447 -0.2954 -0.1272 -0.2311
   73MOL0     C 9727   9.307   3.266   4.330  0.9279 -0.1979  1.3538
   73MOL0     O 9728   9.278   3.148   4.278  0.4070  0.2621  0.2820
   73MOL0     C 9729   9.141   3.101   4.285  0.1019 -0.3625 -0.6593
   73MOL0     C 9730   9.131   2.987   4.191  0.0076  0.0732  0.3153
   73MOL0     C 9731   9.218   2.862   4.215  0.1803  0.0062 -0.5356
   73MOL0     C 9732   9.247   2.794   4.079  1.2771  0.4802  0.4865
   73MOL0     C 9733   9.398   2.822   4.045  0.2442 -0.1843 -0.8644
   73MOL0     C 9734   9.448   2.717   3.946 -0.3843  0.0125 -0.3805
   73MOL0     C 9735   9.452   2.574   3.999 -0.5361  0.5754  0.5644
   73MOL0     C 9736   9.522   2.496   3.876  0.1776  0.0880 -0.4222
   73MOL0     N 9737   9.547   2.353   3.914 -0.5400 -0.4845  0.0355
   73MOL0     C 9738   9.474   2.256   3.863  0.1218 -0.0999 -0.1931
   73MOL0     C 9739   9.524   2.143   3.925  0.2964  0.4696  0.6737
   73MOL0     C 9740   9.479   2.003   3.902 -0.4397  0.5168  0.8790
   73MOL0     C 9741   9.483   1.955   3.757  0.5314  0.3671  0.8826
   73MOL0     C 9742   9.624   1.944   3.697  0.5522 -0.1584  0.2870
   73MOL0     C 9743   9.627   1.868   3.566  0.1395 -0.1127  0.1033
   73MOL0     O 9744   9.579   1.734   3.589 -1.4224  0.2778 -0.0381
   73MOL0     C 9745   9.464   1.684   3.527 -1.0098 -1.0493 -0.1262
   73MOL0     C 9746   9.396   1.578   3.594 -0.0784  0.5086 -0.5267
   73MOL0     C 9747   9.278   1.535   3.538 -0.0042  0.5137  0.8476
   73MOL0     C 9748   9.248   1.580   3.406  0.1717 -1.3550  0.1395
   73MOL0     C 9749   9.126   1.527   3.339 -0.1650  0.3495  0.5798
   73MOL0     O 9750   9.093   1.585   3.218  0.3183 -0.9810 -0.5884
   73MOL0     C 9751   8.969   1.555   3.160  0.6719 -0.4796 -0.2856
   73MOL0     C 9752   8.911   1.657   3.093 -0.4281  0.7429  0.6259
   73MOL0     C 9753   8.783   1.650   3.037 -0.7087 -0.4573 -0.3816
   73MOL0     C 9754   8.712   1.534   3.060  0.0252 -0.3348 -0.2921
   73MOL0     O 9755   8.571   1.524   3.033  0.5094  0.2294 -0.9531
   73MOL0     C 9756   8.493   1.645   3.019 -1.0505  0.7308 -0.4957
   73MOL0     C 9757   8.340   1.601   3.040 -0.9036  0.1078  0.0172
   73MOL0     C 9758   8.243   1.703   2.985 -0.0516 -0.5933 -0.3444
   73MOL0     C 9759   8.148   1.654   2.886  0.0390  0.0374 -0.4817
   73MOL0     C 9760   8.061   1.767   2.835  0.0696 -0.8020 -0.8141
   73MOL0     C 9761   7.987   1.867   2.937 -0.0748  0.5785 -0.2782
   73MOL0     C 9762   7.874   1.788   3.012  0.5466 -0.6080  0.1854
   73MOL0     C 9763   7.777   1.882   3.075  0.5492 -1.0786 -0.9304
   73MOL0    Cl 9764   7.709   2.000   2.953  0.6961  0.2076 -0.2649
   73MOL0     C 9765   8.773   1.425   3.112 -0.4249 -0.6933 -0.8276
   73MOL0     C 9766   8.897   1.435   3.174 -0.5783  0.9527  0.5269
   73MOL0     O 9767   9.057   1.453   3.402  0.3279  0.9471  0.0782
   73MOL0     C 9768   9.318   1.679   3.337  0.5385 -0.1514  0.3685
   73MOL0     C 9769   9.425   1.728   3.402 -0.1342  0.2526  0.3811
   73MOL0     N 9770   9.625   2.180   4.014 -0.3538 -0.3489  0.3382
   73MOL0     N 9771   9.630   2.313   4.012 -1.0361  0.8552  0.0699
   73MOL0     C 9772   9.406   3.342   4.262  0.5297 -0.8597 -0.4704
   73MOL0     C 9773   9.452   3.463   4.311  0.3153 -0.8545 -0.5165
   73MOL0     C 9774   9.454   3.834   4.622  0.1698 -0.4001  0.4612
   73MOL0     C 9775   9.406   3.915   4.517  0.5888  0.0857 -1.2093
   73MOL0     C 9776   9.413   4.053   4.527  0.5496  0.6751  0.4439
   73MOL0     C 9777   9.488   4.105   4.630  0.2726  0.3436 -0.2552
   73MOL0     O 9778   9.522   4.235   4.653 -0.0897  0.1047 -0.6767
   73MOL0     C 9779   9.511   4.332   4.547 -0.2113  0.2064 -0.6004
   73MOL0     C 9780   9.496   4.465   4.599 -0.2327  0.4718 -0.4006
   73MOL0     C 9781   9.624   4.507   4.682  0.9649 -0.1571 -0.3396
   73MOL0     C 9782   9.588   4.620   4.779  0.7897  0.0245 -0.3477
   73MOL0     C 9783   9.553   4.586   4.918 -0.0191  0.6269  0.1278
   73MOL0     C 9784   9.546   4.574   5.040  0.4651 -0.5100  0.0590
   73MOL0     C 9785   9.539   4.026   4.730 -0.1615 -0.2600 -0.4036
   73MOL0     C 9786   9.534   3.891   4.728 -1.5747  0.6801 -0.5250
   73MOL0     C 9787   9.624   3.822   4.824  1.1748  0.8013 -0.7367
   73MOL0     H 9788   9.262   3.488   4.588 -3.6240 -1.4218 -1.4800
   73MOL0     H 9789   9.180   3.264   4.504 -0.4216 -0.8014 -1.0292
   73MOL0     H 9790   9.113   3.077   4.388 -0.8941 -0.5751 -0.9740
   73MOL0     H 9791   9.078   3.186   4.257 -0.3574  0.6698  2.9984
   73MOL0     H 9792   9.161   3.025   4.093 -0.8558 -1.7480 -0.7009
   73MOL0     H 9793   9.025   2.958   4.191  0.0885 -0.6021  3.5219
   73MOL0     H 9794   9.158   2.788   4.270  1.9715 -0.2549  1.2273
   73MOL0     H 9795   9.303   2.883   4.281  0.3621  1.9975 -1.3510
   73MOL0     H 9796   9.224   2.687   4.086  1.9932  0.2617 -0.2905
   73MOL0     H 9797   9.188   2.831   3.995  1.0960 -1.4052 -0.2731
   73MOL0     H 9798   9.412   2.924   4.008  2.0744 -0.9136 -2.3877
   73MOL0     H 9799   9.454   2.821   4.138 -0.0339  3.9353 -0.4638
   73MOL0     H 9800   9.393   2.729   3.852  0.2320  0.1268 -0.7318
   73MOL0     H 9801   9.551   2.743   3.919 -0.2650  2.2122  1.8709
   73MOL0     H 9802   9.362   2.515   4.018  0.4640 -0.3698  2.7517
   73MOL0     H 9803   9.519   2.562   4.085 -1.8110  0.2477  1.5293
   73MOL0     H 9804   9.457   2.485   3.789 -0.8701 -0.5877  0.4227
   73MOL0     H 9805   9.617   2.541   3.846  1.5880 -0.0045  3.3947
   73MOL0     H 9806   9.398   2.260   3.785 -1.1958 -0.4167  1.0335
   73MOL0     H 9807   9.537   1.936   3.966  2.3803  0.4770 -1.4954
   73MOL0     H 9808   9.372   2.002   3.923 -0.6242 -1.1329  0.0398
   73MOL0     H 9809   9.431   1.859   3.746  2.6543 -0.6027 -2.0969
   73MOL0     H 9810   9.418   2.028   3.706 -0.1765  1.1288  2.7595
   73MOL0     H 9811   9.695   1.900   3.768  0.9250  3.2694  2.2542
   73MOL0     H 9812   9.669   2.039   3.667 -0.1471  0.8136  2.2055
   73MOL0     H 9813   9.730   1.858   3.531  0.8333 -1.0281  2.2096
   73MOL0     H 9814   9.574   1.916   3.483 -1.0827 -1.4140  0.0966
   73MOL0     H 9815   9.429   1.523   3.681 -1.7970  2.2484  1.3260
   73MOL0     H 9816   9.223   1.454   3.585 -0.9040 -0.7210 -2.0959
   73MOL0     H 9817   8.974   1.738   3.060  0.4565 -0.3397 -0.4329
   73MOL0     H 9818   8.746   1.746   3.002  0.4876  0.7353  1.4525
   73MOL0     H 9819   8.521   1.721   3.092  3.6533  0.2826 -1.5296
   73MOL0     H 9820   8.514   1.685   2.919  2.8382  0.2545 -0.0310
   73MOL0     H 9821   8.310   1.504   2.997 -2.9591 -0.8035  3.1610
   73MOL0     H 9822   8.315   1.580   3.144 -2.3989 -1.0962 -0.5390
   73MOL0     H 9823   8.188   1.739   3.072  1.9816 -0.1306  0.8074
   73MOL0     H 9824   8.303   1.784   2.942  1.0335 -1.8729 -1.3456
   73MOL0     H 9825   8.082   1.570   2.908 -2.3152  0.9737 -3.3313
   73MOL0     H 9826   8.208   1.609   2.806 -1.1352 -1.1413 -0.7420
   73MOL0     H 9827   7.988   1.726   2.764 -2.3835 -1.8400  2.0876
   73MOL0     H 9828   8.132   1.832   2.782  1.2765 -0.7889  0.7563
   73MOL0     H 9829   8.050   1.892   3.023 -1.3747  0.4404  0.7501
   73MOL0     H 9830   7.956   1.960   2.890  0.7024  0.1540 -1.6783
   73MOL0     H 9831   7.912   1.706   3.073 -1.6723 -2.0787 -0.2537
   73MOL0     H 9832   7.810   1.733   2.942 -0.7619  1.2081 -0.1232
   73MOL0     H 9833   7.697   1.828   3.126  1.0875 -0.7094  0.3770
   73MOL0     H 9834   7.825   1.942   3.154 -0.2095  1.6968 -2.4606
   73MOL0     H 9835   8.718   1.332   3.120  3.0445 -3.0017 -1.3048
   73MOL0     H 9836   8.938   1.349   3.227 -3.0427 -1.2475 -0.8965
   73MOL0     H 9837   9.303   1.701   3.232  0.1512 -1.5600  0.1185
   73MOL0     H 9838   9.477   1.796   3.335 -4.6100 -0.0900 -4.0058
   73MOL0     H 9839   9.423   3.302   4.162 -0.7035 -0.6495 -0.7760
   73MOL0     H 9840   9.527   3.518   4.255  0.3628 -1.0293 -0.6290
   73MOL0     H 9841   9.362   3.872   4.428  0.8923 -1.3269 -0.6956
   73MOL0     H 9842   9.365   4.121   4.457 -1.9200  1.3953  2.6960
   73MOL0     H 9843   9.413   4.315   4.501  0.1477 -0.7045 -1.0614
   73MOL0     H 9844   9.586   4.327   4.468 -0.5354 -2.1750 -0.8518
   73MOL0     H 9845   9.414   4.463   4.671  0.1507 -0.7192  0.0203
   73MOL0     H 9846   9.474   4.528   4.512 -0.1585 -1.3579 -1.8069
   73MOL0     H 9847   9.700   4.542   4.612  0.3247 -0.9087 -1.4488
   73MOL0     H 9848   9.665   4.421   4.736  3.1740 -0.4401 -2.2966
   73MOL0     H 9849   9.664   4.698   4.788 -1.2857  2.2364 -0.9671
   73MOL0     H 9850   9.497   4.672   4.745 -0.3046  0.7392  3.2204
   73MOL0     H 9851   9.554   4.584   5.146  4.7932 -0.9277 -0.0325
   73MOL0     H 9852   9.591   4.080   4.808 -1.0551  0.0785 -0.0261
   73MOL0     H 9853   9.664   3.731   4.779  0.6167  1.2500 -2.1943
   73MOL0     H 9854   9.691   3.894   4.873  0.3480 -0.1591  2.0235
   73MOL0     H 9855   9.562   3.786   4.907 -0.2451  1.9701 -1.2467
   74MOL0     O 9856   3.609   3.535   9.761  0.3444 -0.2668  0.5283
   74MOL0     C 9857   3.590   3.545   9.643 -0.1561  0.5317 -0.0120
   74MOL0     O 9858   3.624   3.454   9.545 -0.2391  0.1490  0.1717
   74MOL0     C 9859   3.659   3.318   9.563 -0.4105 -0.0541  0.9465
   74MOL0     C 9860   3.741   3.258   9.459  0.6576 -0.4855  0.4970
   74MOL0     C 9861   3.774   3.129   9.475  0.7439 -0.3631  1.0027
   74MOL0     C 9862   3.713   3.051   9.572  0.1059 -0.2176 -0.4737
   74MOL0     O 9863   3.717   2.911   9.581  0.3451 -0.0066 -0.7872
   74MOL0     C 9864   3.848   2.846   9.586 -0.3182  0.8592  0.2980
   74MOL0     C 9865   3.947   2.909   9.679 -0.0055  0.3069  0.5108
   74MOL0     C 9866   4.085   2.841   9.645  0.5720 -0.2470 -0.1371
   74MOL0     C 9867   4.186   2.894   9.737  0.7467 -0.5776 -0.4806
   74MOL0     C 9868   4.240   3.033   9.700  0.8131 -0.0739 -0.1010
   74MOL0     C 9869   4.352   3.075   9.796  0.2644  0.1200  0.4334
   74MOL0     C 9870   4.423   3.210   9.775 -0.2645  0.8078  0.0811
   74MOL0     C 9871   4.484   3.241   9.641 -0.1185  0.8429 -0.5700
   74MOL0     N 9872   4.576   3.135   9.600 -0.5976 -0.4522  0.9594
   74MOL0     C 9873   4.703   3.130   9.652 -0.7147 -0.0603  0.1543
   74MOL0     C 9874   4.750   3.011   9.605  0.0864  0.1166  0.2134
   74MOL0     C 9875   4.886   2.939   9.621  0.0435  0.5465  0.2213
   74MOL0     C 9876   4.980   3.022   9.708 -0.3978 -0.6094  0.0681
   74MOL0     C 9877   5.102   2.940   9.756  0.3680 -1.2600  0.0952
   74MOL0     C 9878   5.209   2.909   9.650 -0.0165 -0.2874 -0.7188
   74MOL0     O 9879   5.162   2.822   9.553 -0.5806  0.7568  0.3776
   74MOL0     C 9880   5.239   2.811   9.435  0.7829  0.0877 -0.5052
   74MOL0     C 9881   5.349   2.888   9.403  0.0185 -0.0110  0.3048
   74MOL0     C 9882   5.423   2.862   9.280  0.0515  0.0251  0.6094
   74MOL0     C 9883   5.375   2.773   9.186 -0.2005  0.5123  0.6375
   74MOL0     C 9884   5.435   2.751   9.056  0.4839  0.2304  0.6310
   74MOL0     O 9885   5.382   2.654   8.971  0.3680 -0.5831  0.1801
   74MOL0     C 9886   5.429   2.643   8.843 -0.6347  0.1643 -0.6474
   74MOL0     C 9887   5.445   2.750   8.753 -0.4014  0.8275 -0.2205
   74MOL0     C 9888   5.488   2.736   8.623  1.2853 -0.1744  0.3010
   74MOL0     C 9889   5.528   2.606   8.573 -0.5388  0.0012  0.0695
   74MOL0     O 9890   5.574   2.582   8.444  0.3079 -0.1092  0.3364
   74MOL0     C 9891   5.628   2.700   8.384 -0.7548  0.2820 -0.8089
   74MOL0     C 9892   5.721   2.646   8.281  0.7302 -0.1906 -0.3453
   74MOL0     C 9893   5.672   2.535   8.187  0.2758  0.5777 -0.2857
   74MOL0     C 9894   5.572   2.576   8.076  0.2875  0.5880  0.2492
   74MOL0     C 9895   5.501   2.453   8.024  0.0599 -0.0330 -0.3051
   74MOL0     C 9896   5.380   2.477   7.949  0.4350  0.3476  0.1922
   74MOL0     C 9897   5.316   2.353   7.876  0.8976  1.0737  0.3753
   74MOL0     C 9898   5.399   2.335   7.737  0.7961  1.0906  0.4666
   74MOL0    Cl 9899   5.390   2.446   7.595  0.1464 -0.0451 -0.0837
   74MOL0     C 9900   5.510   2.499   8.658  1.2218  0.6491  0.1982
   74MOL0     C 9901   5.450   2.511   8.787  0.0330 -0.5910  0.4973
   74MOL0     O 9902   5.537   2.823   9.032 -1.1656 -0.5034  0.3654
   74MOL0     C 9903   5.264   2.693   9.223  0.7456 -0.0972 -0.1452
   74MOL0     C 9904   5.207   2.704   9.349 -0.1056  0.2606  0.8676
   74MOL0     N 9905   4.650   2.958   9.525 -0.6932 -0.6150  0.6233
   74MOL0     N 9906   4.548   3.033   9.515  0.1285  0.8897 -0.5053
   74MOL0     C 9907   3.634   3.106   9.671 -0.4114  0.0376 -0.2630
   74MOL0     C 9908   3.610   3.243   9.666  0.1138  0.5358 -0.3436
   74MOL0     C 9909   3.521   3.662   9.582  0.0810  0.1393  0.1883
   74MOL0     C 9910   3.479   3.661   9.447 -0.4898  1.0761 -0.5312
   74MOL0     C 9911   3.432   3.780   9.385 -0.2668  0.2161  0.7179
   74MOL0     C 9912   3.417   3.897   9.455  0.5921  0.1770  0.5580
   74MOL0     O 9913   3.346   4.003   9.398  0.0645 -0.0188  0.1838
   74MOL0     C 9914   3.419   4.095   9.320 -0.4067 -0.1649  0.8267
   74MOL0     C 9915   3.516   4.180   9.404 -0.1879 -0.6526 -0.5868
   74MOL0     C 9916   3.602   4.272   9.321 -0.5737  0.1604  0.2939
   74MOL0     C 9917   3.595   4.411   9.383  0.1469 -0.3192  0.2424
   74MOL0     C 9918   3.694   4.491   9.313  0.1421 -0.5441 -0.0437
   74MOL0     C 9919   3.781   4.547   9.250  0.6203 -0.3870 -0.0631
   74MOL0     C 9920   3.445   3.899   9.588  0.7821 -0.1940 -0.4013
   74MOL0     C 9921   3.508   3.794   9.650  0.1968 -0.4685 -0.1276
   74MOL0     C 9922   3.538   3.814   9.796 -0.4060  0.0321  0.2543
   74MOL0     H 9923   3.787   3.313   9.378  2.2823 -3.6105 -0.8651
   74MOL0     H 9924   3.826   3.075   9.396  0.7004  1.4770 -0.3708
   74MOL0     H 9925   3.835   2.742   9.619  3.3351 -0.2982 -1.4066
   74MOL0     H 9926   3.880   2.853   9.482 -1.2790  0.3226 -0.0476
   74MOL0     H 9927   3.914   2.884   9.781  1.0698 -3.6039  0.0909
   74MOL0     H 9928   3.956   3.016   9.662  1.6964  0.3719  1.5838
   74MOL0     H 9929   4.125   2.843   9.543  1.5001  0.5090  0.2293
   74MOL0     H 9930   4.069   2.736   9.670  2.4001  0.0846  2.9797
   74MOL0     H 9931   4.138   2.901   9.836  0.1364 -2.5470 -0.5803
   74MOL0     H 9932   4.272   2.826   9.745  0.4669 -0.7447  4.4260
   74MOL0     H 9933   4.278   3.036   9.597 -1.2543 -0.4557 -0.9233
   74MOL0     H 9934   4.167   3.114   9.704 -0.3046 -0.9289 -1.9414
   74MOL0     H 9935   4.315   3.084   9.899 -2.0536  2.6215 -0.5099
   74MOL0     H 9936   4.427   2.995   9.792 -0.6506 -0.7831  0.8304
   74MOL0     H 9937   4.509   3.209   9.843  0.2450  0.2223 -0.5469
   74MOL0     H 9938   4.355   3.292   9.797  1.5802  2.1166  1.1140
   74MOL0     H 9939   4.408   3.269   9.568  1.0272  2.4356 -1.1870
   74MOL0     H 9940   4.533   3.336   9.662 -0.7395  1.4402 -1.7554
   74MOL0     H 9941   4.757   3.204   9.711 -2.3348  0.8251  0.5755
   74MOL0     H 9942   4.865   2.841   9.666  2.0528  0.0899  0.2486
   74MOL0     H 9943   4.919   2.931   9.518  2.9895  0.2724  1.0962
   74MOL0     H 9944   5.018   3.111   9.659  0.7772 -0.1398  1.7354
   74MOL0     H 9945   4.924   3.055   9.796  0.7840 -0.5729  0.8239
   74MOL0     H 9946   5.073   2.849   9.810  2.2721 -2.0758 -0.1673
   74MOL0     H 9947   5.137   2.996   9.843 -0.0000  2.7805 -2.1288
   74MOL0     H 9948   5.297   2.873   9.704  1.8995  1.8000 -2.2371
   74MOL0     H 9949   5.238   3.000   9.596  0.3691 -1.4855 -2.6183
   74MOL0     H 9950   5.408   2.955   9.464  1.1534 -1.2057  0.5599
   74MOL0     H 9951   5.515   2.917   9.261  1.2649 -1.3339  2.1823
   74MOL0     H 9952   5.416   2.846   8.794  0.1538  0.7564  0.3532
   74MOL0     H 9953   5.504   2.829   8.569 -1.8568 -1.1779 -2.7213
   74MOL0     H 9954   5.541   2.758   8.351 -1.6648  1.3089  2.9875
   74MOL0     H 9955   5.691   2.772   8.437  1.5638 -1.4835 -0.9911
   74MOL0     H 9956   5.748   2.737   8.227  0.7036 -0.7072 -1.2420
   74MOL0     H 9957   5.807   2.605   8.335  0.6372  0.1435  0.0627
   74MOL0     H 9958   5.762   2.495   8.140 -1.1950 -2.7075 -0.5485
   74MOL0     H 9959   5.630   2.450   8.241  0.6042 -0.0196 -0.9633
   74MOL0     H 9960   5.626   2.630   7.998 -0.0189 -2.7667 -2.5285
   74MOL0     H 9961   5.496   2.638   8.124 -0.5415 -0.8394  0.8433
   74MOL0     H 9962   5.467   2.384   8.102 -0.0086 -0.8811 -1.0718
   74MOL0     H 9963   5.575   2.411   7.956 -0.1754 -0.9206 -0.0201
   74MOL0     H 9964   5.307   2.504   8.026  1.8242  1.8965  1.0239
   74MOL0     H 9965   5.382   2.563   7.881 -0.7886 -0.7826 -1.3590
   74MOL0     H 9966   5.212   2.376   7.854  1.1566 -1.4611 -5.2416
   74MOL0     H 9967   5.322   2.260   7.932  2.9401 -0.2492 -1.8200
   74MOL0     H 9968   5.505   2.329   7.765  0.8114  1.7156  0.5501
   74MOL0     H 9969   5.380   2.233   7.701 -0.2369  0.9488  1.3743
   74MOL0     H 9970   5.533   2.407   8.605  3.7594  1.2709  0.1097
   74MOL0     H 9971   5.429   2.422   8.845 -0.6786 -2.8359 -2.8656
   74MOL0     H 9972   5.222   2.617   9.158  0.5784 -0.7483  0.7038
   74MOL0     H 9973   5.119   2.644   9.369 -1.3026  0.9853 -1.7279
   74MOL0     H 9974   3.591   3.045   9.749  1.9730 -1.6250 -0.1184
   74MOL0     H 9975   3.554   3.293   9.745 -0.5535  0.9455 -1.0595
   74MOL0     H 9976   3.487   3.577   9.379 -0.8518  1.3455 -0.9137
   74MOL0     H 9977   3.407   3.767   9.280  2.0886 -1.1158  0.2492
   74MOL0     H 9978   3.355   4.170   9.274 -0.9555 -1.9439 -1.4746
   74MOL0     H 9979   3.477   4.041   9.245 -0.4044  1.0810 -0.0909
   74MOL0     H 9980   3.578   4.117   9.469 -0.4894 -0.7959 -0.4346
   74MOL0     H 9981   3.451   4.247   9.461  1.8369  2.6035 -1.8842
   74MOL0     H 9982   3.561   4.266   9.220  1.6966 -0.4412 -0.6699
   74MOL0     H 9983   3.704   4.233   9.324 -0.9726 -0.8967  0.4473
   74MOL0     H 9984   3.491   4.444   9.380  0.4649  0.6369 -0.8646
   74MOL0     H 9985   3.624   4.402   9.488 -0.1795  0.8228  0.4450
   74MOL0     H 9986   3.843   4.615   9.194  1.5449 -0.2177  1.1180
   74MOL0     H 9987   3.432   3.991   9.644  0.3267  2.2945 -4.1981
   74MOL0     H 9988   3.535   3.918   9.829 -0.1788  0.1673 -0.1395
   74MOL0     H 9989   3.468   3.758   9.858 -1.4650  0.2152 -0.7325
   74MOL0     H 9990   3.638   3.774   9.813 -1.0745 -0.8007  2.4878
   75MOL0     O 9991   4.415   4.889   9.044  0.5458 -1.7193  0.1748
   75MOL0     C 9992   4.296   4.895   9.082 -0.7450  0.1428  0.4051
   75MOL0     O 9993   4.232   5.008   9.125 -0.0791 -0.3649 -0.1205
   75MOL0     C 9994   4.306   5.117   9.135 -0.5261 -0.6469  0.1217
   75MOL0     C 9995   4.297   5.172   9.260  0.1145 -0.0637 -0.0638
   75MOL0     C 9996   4.368   5.293   9.277  0.1335  1.0205 -0.6216
   75MOL0     C 9997   4.443   5.360   9.176  0.1589 -0.6771  0.0639
   75MOL0     O 9998   4.501   5.482   9.195 -0.0412  0.4738  0.3851
   75MOL0     C 9999   4.430   5.577   9.275 -0.0188 -0.3762 -0.1053
   75MOL0     C10000   4.492   5.609   9.406 -0.1706  0.6850  0.0948
   75MOL0     C10001   4.608   5.707   9.392  0.1169 -0.4047  0.5084
   75MOL0     C10002   4.730   5.638   9.327  0.2784  0.7161  0.0607
   75MOL0     C10003   4.839   5.750   9.323  0.8161 -1.4891 -0.0298
   75MOL0     C10004   4.981   5.690   9.315 -0.8567 -0.5192  0.8395
   75MOL0     C10005   5.081   5.790   9.373 -0.2646 -0.9387 -0.6305
   75MOL0     C10006   5.109   5.917   9.283  0.8558  1.3035  0.0258
   75MOL0     N10007   5.177   5.886   9.159  0.4344  0.5276 -0.3993
   75MOL0     C10008   5.138   5.814   9.046  0.3162 -0.6373  0.7929
   75MOL0     C10009   5.217   5.858   8.948 -1.2034  0.0414 -0.4791
   75MOL0     C10010   5.212   5.838   8.798  0.5503 -0.4115  0.3911
   75MOL0     C10011   5.078   5.866   8.723 -0.0499 -0.3312  0.2364
   75MOL0     C10012   4.950   5.806   8.782  1.0522 -0.0851 -0.2636
   75MOL0     C10013   4.859   5.895   8.871  0.3065  0.3615 -0.2713
   75MOL0     O10014   4.756   5.803   8.920  0.2997 -0.1238  0.6724
   75MOL0     C10015   4.624   5.832   8.922 -0.7905 -0.1486 -0.7618
   75MOL0     C10016   4.536   5.722   8.925 -1.2127 -0.4799  0.2009
   75MOL0     C10017   4.396   5.742   8.929  0.3528 -0.5598  0.1377
   75MOL0     C10018   4.346   5.872   8.942  0.3202  0.3317  0.4701
   75MOL0     C10019   4.202   5.894   8.967 -0.3394  0.7632 -0.3644
   75MOL0     O10020   4.115   5.795   8.927  0.0274 -0.3344 -0.8490
   75MOL0     C10021   3.996   5.784   8.995  0.7251 -0.1376 -0.1185
   75MOL0     C10022   3.988   5.770   9.122  0.2423 -0.2720  0.0082
   75MOL0     C10023   3.869   5.788   9.188  0.1355  0.0811 -0.0212
   75MOL0     C10024   3.753   5.815   9.116  0.8263 -0.0134  1.0096
   75MOL0     O10025   3.636   5.828   9.189  0.1833  0.9530  0.3726
   75MOL0     C10026   3.510   5.810   9.124  0.0733  0.4458  0.1847
   75MOL0     C10027   3.394   5.756   9.218 -0.2968 -0.1871 -0.4596
   75MOL0     C10028   3.395   5.796   9.370  0.1292 -0.3030  0.3571
   75MOL0     C10029   3.352   5.944   9.371 -0.4541  0.6580 -0.8443
   75MOL0     C10030   3.386   6.015   9.497  0.7527  0.1520  0.0003
   75MOL0     C10031   3.531   6.054   9.508 -0.5154  0.2121  1.0790
   75MOL0     C10032   3.565   6.128   9.640  2.0492  0.6333  1.0581
   75MOL0     C10033   3.684   6.063   9.723  0.4104  0.1077  0.4912
   75MOL0    Cl10034   3.839   6.143   9.685 -0.3358  0.0237  0.0012
   75MOL0     C10035   3.762   5.831   8.977 -0.4577 -0.0156 -0.6160
   75MOL0     C10036   3.886   5.812   8.920 -0.3399 -0.5897 -0.4871
   75MOL0     O10037   4.171   6.005   9.007 -0.9126  0.7980  0.6262
   75MOL0     C10038   4.434   5.980   8.941  0.2060 -0.8276  0.4396
   75MOL0     C10039   4.569   5.961   8.918  0.1561 -0.7624 -0.4234
   75MOL0     N10040   5.312   5.939   9.009 -0.9534  0.8731 -0.4340
   75MOL0     N10041   5.293   5.950   9.134  0.6271 -0.2196 -0.2620
   75MOL0     C10042   4.439   5.307   9.044  0.7818 -0.5316  0.3558
   75MOL0     C10043   4.373   5.184   9.027 -0.3954  0.3766 -0.5348
   75MOL0     C10044   4.234   4.764   9.051 -0.3438 -0.1800 -0.1835
   75MOL0     C10045   4.318   4.659   9.001  0.6240 -0.1089 -0.5849
   75MOL0     C10046   4.251   4.531   8.963 -0.1625 -0.0401 -0.7879
   75MOL0     C10047   4.113   4.523   8.950 -0.0123 -0.6606  0.0626
   75MOL0     O10048   4.051   4.419   8.890 -0.2162 -0.0575 -0.9325
   75MOL0     C10049   4.129   4.312   8.832  0.5425 -0.3061 -0.9690
   75MOL0     C10050   4.028   4.198   8.795  1.0687 -0.5352 -0.0555
   75MOL0     C10051   4.026   4.084   8.896 -0.6718 -0.5818 -0.5102
   75MOL0     C10052   4.159   4.009   8.901  0.2258  0.0354 -0.4536
   75MOL0     C10053   4.168   3.934   8.773 -0.6350  0.7190  0.0295
   75MOL0     C10054   4.176   3.880   8.666  0.3241  0.6052  0.3859
   75MOL0     C10055   4.034   4.632   8.992 -0.0924 -0.9481  0.0856
   75MOL0     C10056   4.088   4.756   9.026 -1.2094  0.5407 -0.6265
   75MOL0     C10057   3.986   4.877   9.026 -0.7317  0.3251 -0.2470
   75MOL0     H10058   4.241   5.128   9.341 -2.7818  0.4512 -1.6455
   75MOL0     H10059   4.360   5.326   9.380 -2.5741 -0.5010 -0.2520
   75MOL0     H10060   4.434   5.670   9.217  0.1420 -0.5863 -0.4393
   75MOL0     H10061   4.324   5.553   9.289 -0.2554  2.0465  3.2494
   75MOL0     H10062   4.527   5.513   9.444  2.2172  3.0099  4.6056
   75MOL0     H10063   4.417   5.654   9.472  0.1163  0.6460  0.4492
   75MOL0     H10064   4.635   5.733   9.495  0.1062  2.8291 -0.1896
   75MOL0     H10065   4.590   5.801   9.339  3.0069  0.6762  1.2874
   75MOL0     H10066   4.761   5.550   9.384 -0.2075  0.6078  0.1685
   75MOL0     H10067   4.706   5.611   9.224  3.4554 -6.5302  0.6247
   75MOL0     H10068   4.834   5.812   9.233  0.6191 -0.4942  0.6467
   75MOL0     H10069   4.832   5.821   9.407  2.3430  1.0272 -1.8775
   75MOL0     H10070   4.985   5.613   9.393  2.4344  0.8566  2.1896
   75MOL0     H10071   5.001   5.642   9.219 -1.0920 -3.1399  2.0032
   75MOL0     H10072   5.181   5.749   9.393  0.9432  1.6530 -0.8318
   75MOL0     H10073   5.054   5.827   9.473 -1.7340 -0.0955 -1.3037
   75MOL0     H10074   5.018   5.971   9.255 -0.5540 -0.8608  0.2062
   75MOL0     H10075   5.170   5.978   9.351 -1.1259  1.8137  1.4541
   75MOL0     H10076   5.049   5.752   9.036 -1.4477  1.9347 -0.8893
   75MOL0     H10077   5.283   5.913   8.764  0.2713  0.0604  0.8416
   75MOL0     H10078   5.267   5.744   8.784  2.1501  0.1911  2.1980
   75MOL0     H10079   5.061   5.974   8.720 -3.7104 -0.7477  0.8621
   75MOL0     H10080   5.087   5.835   8.619 -1.2594 -3.5451  0.9776
   75MOL0     H10081   4.978   5.713   8.833  3.2630  1.9882  2.6690
   75MOL0     H10082   4.883   5.785   8.699  2.0247  1.1123 -1.3981
   75MOL0     H10083   4.814   5.979   8.818 -0.0574  0.5506  0.3331
   75MOL0     H10084   4.904   5.937   8.961 -2.6771  0.1417  1.4544
   75MOL0     H10085   4.584   5.625   8.924 -0.1974 -0.0191  0.9878
   75MOL0     H10086   4.332   5.655   8.938 -1.2988  0.6149  0.1381
   75MOL0     H10087   4.074   5.757   9.187  0.5888  0.2028 -0.3550
   75MOL0     H10088   3.860   5.763   9.293  3.2299 -1.4776 -0.0029
   75MOL0     H10089   3.481   5.907   9.083  0.1354  0.3707 -0.0352
   75MOL0     H10090   3.502   5.734   9.046 -5.8758  0.9905 -0.2028
   75MOL0     H10091   3.299   5.763   9.165 -2.1987  1.0084  2.8399
   75MOL0     H10092   3.410   5.648   9.223 -1.7758 -0.5669 -2.5670
   75MOL0     H10093   3.321   5.730   9.417 -0.7217  0.4914  0.1741
   75MOL0     H10094   3.491   5.785   9.421 -0.0845 -1.2718  0.5676
   75MOL0     H10095   3.245   5.960   9.354 -0.2800  2.1568 -0.6887
   75MOL0     H10096   3.399   6.008   9.296  1.8538  1.5535  1.2492
   75MOL0     H10097   3.349   5.953   9.579  1.4568  1.0292  1.0071
   75MOL0     H10098   3.325   6.106   9.503 -1.6218 -1.3930  0.8290
   75MOL0     H10099   3.589   5.961   9.505 -0.2143  0.4105 -1.7429
   75MOL0     H10100   3.572   6.112   9.425 -0.1406 -1.1443  0.2909
   75MOL0     H10101   3.479   6.132   9.707  1.4224 -0.3558  0.3402
   75MOL0     H10102   3.578   6.235   9.620 -0.3925  1.0005  1.1600
   75MOL0     H10103   3.667   6.069   9.831  1.7635  2.1054  0.6490
   75MOL0     H10104   3.715   5.966   9.683  2.9770  2.0200 -2.7402
   75MOL0     H10105   3.671   5.848   8.920 -0.8025  0.6263  0.1083
   75MOL0     H10106   3.902   5.827   8.814  0.7204 -1.5806 -0.4826
   75MOL0     H10107   4.394   6.081   8.939  0.1907 -0.8329  0.4849
   75MOL0     H10108   4.638   6.045   8.924 -0.3322 -0.2800 -1.3680
   75MOL0     H10109   4.473   5.362   8.956 -1.2055  2.0583  1.1175
   75MOL0     H10110   4.359   5.139   8.930 -0.6092  0.5250 -0.5726
   75MOL0     H10111   4.427   4.657   8.998  0.6053 -1.4982 -3.0471
   75MOL0     H10112   4.309   4.450   8.920 -0.6197 -0.1637 -1.1946
   75MOL0     H10113   4.210   4.269   8.891  0.7996  0.6768 -0.5969
   75MOL0     H10114   4.182   4.356   8.747  0.8273  1.6318  0.1582
   75MOL0     H10115   4.038   4.157   8.694  2.6806 -3.2204  1.0801
   75MOL0     H10116   3.928   4.241   8.797  0.5008 -1.7081 -1.6962
   75MOL0     H10117   3.941   4.017   8.877 -1.5077  0.4784 -0.6245
   75MOL0     H10118   4.019   4.133   8.994  2.0080 -1.4418  0.1930
   75MOL0     H10119   4.245   4.076   8.901  0.7714 -0.6513 -0.0848
   75MOL0     H10120   4.157   3.940   8.985  0.6860 -0.6654 -1.0034
   75MOL0     H10121   4.190   3.840   8.568  3.9885  2.0861  0.1282
   75MOL0     H10122   3.929   4.614   8.975  0.4797 -1.6011 -3.6343
   75MOL0     H10123   3.946   4.887   9.127 -1.3794 -2.6383 -0.1163
   75MOL0     H10124   4.038   4.967   8.994  0.9198  0.4087  2.3850
   75MOL0     H10125   3.901   4.856   8.959  1.1805 -0.1587 -2.6764
   76MOL0     O10126   4.880  10.739   1.769 -0.1141 -0.9980 -0.5238
   76MOL0     C10127   4.933  10.730   1.885  0.1242  0.0471  1.0754
   76MOL0     O10128   4.862  10.706   1.998  0.1735  0.6857  0.3550
   76MOL0     C10129   4.732  10.716   1.976  0.0640  0.3756  0.5176
   76MOL0     C10130   4.670  10.846   1.989  0.0796  0.4417  0.3609
   76MOL0     C10131   4.531  10.849   1.979 -0.3321  0.2094  0.4601
   76MOL0     C10132   4.449  10.739   1.942  0.4414 -0.1407  0.0287
   76MOL0     O10133   4.309  10.740   1.923 -0.2959 -0.0145 -0.3113
   76MOL0     C10134   4.236  10.854   1.890 -0.4137 -0.8234 -0.1601
   76MOL0     C10135   4.092  10.814   1.857 -0.4554  0.9582 -0.5315
   76MOL0     C10136   4.081  10.744   1.723  0.0832  0.6579 -0.3680
   76MOL0     C10137   3.950  10.689   1.695 -0.5114 -1.0081 -0.8503
   76MOL0     C10138   3.955  10.600   1.576 -0.3991 -0.8916 -0.6584
   76MOL0     C10139   4.040  10.471   1.606  1.4432  0.2251  0.4501
   76MOL0     C10140   4.028  10.355   1.497  0.1399 -0.6628 -0.0792
   76MOL0     C10141   4.159  10.270   1.495  0.7929 -0.2834  0.0254
   76MOL0     N10142   4.130  10.167   1.389 -1.3736 -0.5911  0.0750
   76MOL0     C10143   4.130  10.185   1.250 -0.0137  0.7048 -0.6407
   76MOL0     C10144   4.077  10.067   1.195  0.3977 -0.3203 -0.0992
   76MOL0     C10145   4.048  10.054   1.054 -0.4918 -1.0803  0.0144
   76MOL0     C10146   3.893  10.054   1.033  0.1230 -1.3356  0.4585
   76MOL0     C10147   3.858  10.024   0.889 -0.8594 -0.9814 -1.6695
   76MOL0     C10148   3.942  10.082   0.783  0.1225  0.3076 -0.7466
   76MOL0     O10149   3.958  10.228   0.793  0.3788 -0.4731 -0.6411
   76MOL0     C10150   3.859  10.311   0.731  0.5087  0.4086 -0.7594
   76MOL0     C10151   3.876  10.451   0.735  0.2598  0.4770  1.1859
   76MOL0     C10152   3.796  10.534   0.655 -0.9525  0.4582 -0.4865
   76MOL0     C10153   3.689  10.484   0.580  0.1602 -0.1424  0.1405
   76MOL0     C10154   3.624  10.573   0.490  0.5555  0.1607  0.5122
   76MOL0     O10155   3.555  10.512   0.382 -1.4626 -0.1018  0.7401
   76MOL0     C10156   3.492  10.594   0.291  0.5955 -0.6553  0.0361
   76MOL0     C10157   3.383  10.660   0.338  0.3815 -0.1063  0.5011
   76MOL0     C10158   3.324  10.759   0.267  0.1868  1.1902 -0.2102
   76MOL0     C10159   3.365  10.796   0.138  0.1512  0.6157  0.2110
   76MOL0     O10160   3.314  10.887   0.059  0.5946  0.2359  0.7076
   76MOL0     C10161   3.204  10.965   0.101 -0.8771 -0.6918 -0.1046
   76MOL0     C10162   3.144  11.028  -0.021 -0.6814 -0.1938  0.0430
   76MOL0     C10163   3.017  11.104   0.012  0.2725 -0.4595  0.2311
   76MOL0     C10164   2.989  11.226  -0.087 -0.1200 -0.4258  0.9120
   76MOL0     C10165   3.080  11.344  -0.067 -0.6538 -0.7953  0.2893
   76MOL0     C10166   3.039  11.484  -0.137 -1.1614  0.4908 -0.4342
   76MOL0     C10167   3.156  11.584  -0.130 -1.4657  0.4844  0.1472
   76MOL0     C10168   3.101  11.726  -0.145 -0.3924 -0.2215  0.1193
   76MOL0    Cl10169   3.228  11.855  -0.158 -0.4195 -0.5260 -0.2692
   76MOL0     C10170   3.462  10.719   0.080  0.1434  0.3839  0.0290
   76MOL0     C10171   3.531  10.616   0.154  0.7321  0.3465 -0.5969
   76MOL0     O10172   3.614  10.691   0.525  0.4154 -0.1850 -0.4993
   76MOL0     C10173   3.662  10.344   0.584 -0.6144 -0.9888 -0.2494
   76MOL0     C10174   3.741  10.264   0.662  0.2905 -0.1332  0.6726
   76MOL0     N10175   4.042   9.983   1.303 -1.1281 -0.3274 -0.1942
   76MOL0     N10176   4.070  10.043   1.414  0.0484  0.3905 -1.0686
   76MOL0     C10177   4.509  10.613   1.954  0.4142  1.2492 -0.1388
   76MOL0     C10178   4.645  10.600   1.968  0.0664  1.3134  0.8455
   76MOL0     C10179   5.084  10.752   1.900  0.0748  0.2289  0.2023
   76MOL0     C10180   5.150  10.854   1.815  0.0619 -0.6314  0.3305
   76MOL0     C10181   5.287  10.866   1.820 -0.4183 -0.0623  0.0897
   76MOL0     C10182   5.361  10.786   1.914  0.8794 -0.5746  1.2439
   76MOL0     O10183   5.486  10.794   1.932 -0.0089 -0.2965 -0.0831
   76MOL0     C10184   5.528  10.908   2.014  0.9159 -0.6126  1.0886
   76MOL0     C10185   5.466  10.923   2.164 -0.6443  0.9514 -1.0151
   76MOL0     C10186   5.509  10.799   2.248 -0.2947  1.1706  0.0099
   76MOL0     C10187   5.563  10.837   2.391  0.0205  0.0717 -1.6506
   76MOL0     C10188   5.697  10.905   2.380  0.2303  0.5538  0.1456
   76MOL0     C10189   5.798  10.965   2.379  0.8191 -0.1828  0.1716
   76MOL0     C10190   5.291  10.691   1.990 -0.1775  0.1606  0.1720
   76MOL0     C10191   5.157  10.670   1.987 -0.3881 -0.0094  0.5715
   76MOL0     C10192   5.109  10.565   2.072  1.0756 -1.5412 -0.5229
   76MOL0     H10193   4.737  10.931   1.998  1.3083 -0.6348  1.9057
   76MOL0     H10194   4.489  10.949   1.991  0.0515  0.6536 -1.5215
   76MOL0     H10195   4.239  10.926   1.972  3.0481 -3.5870  2.4837
   76MOL0     H10196   4.274  10.909   1.803 -3.4372  3.3188  0.8615
   76MOL0     H10197   4.032  10.906   1.851 -1.5692  0.2650 -0.3821
   76MOL0     H10198   4.037  10.754   1.930 -1.3735  2.5972  0.1845
   76MOL0     H10199   4.158  10.668   1.732  1.8356  2.4975  1.2334
   76MOL0     H10200   4.105  10.819   1.647  0.5235  1.5216  0.5948
   76MOL0     H10201   3.930  10.620   1.778  3.9601 -3.4926 -1.4983
   76MOL0     H10202   3.879  10.771   1.708  1.2057  0.2597  1.4357
   76MOL0     H10203   3.849  10.574   1.563 -1.3673  2.3463  0.0611
   76MOL0     H10204   4.000  10.656   1.493  1.6380 -0.4649  0.6644
   76MOL0     H10205   4.147  10.493   1.616  1.5028 -0.6460  2.0934
   76MOL0     H10206   4.009  10.429   1.702 -0.1967  0.9087  0.2529
   76MOL0     H10207   4.012  10.389   1.395  2.9747  0.3527 -0.2811
   76MOL0     H10208   3.933  10.305   1.516 -0.4373  0.5096  0.2384
   76MOL0     H10209   4.248  10.332   1.479  0.2474  0.8187  1.1533
   76MOL0     H10210   4.170  10.224   1.593  0.2614  0.6218  0.5156
   76MOL0     H10211   4.155  10.275   1.195 -1.4591  0.6136 -1.4786
   76MOL0     H10212   4.095  10.134   0.996  0.8027 -2.6520 -1.2037
   76MOL0     H10213   4.081   9.957   1.016 -0.2678 -0.5564 -1.1860
   76MOL0     H10214   3.860   9.980   1.106 -1.7662  0.9065  2.0497
   76MOL0     H10215   3.846  10.150   1.058  3.8343  1.1826 -1.2391
   76MOL0     H10216   3.755  10.053   0.866 -1.0026  0.1082  0.1859
   76MOL0     H10217   3.861   9.917   0.864 -2.3232 -0.8070 -2.7176
   76MOL0     H10218   3.924  10.054   0.679  0.4068  1.4434 -1.1192
   76MOL0     H10219   4.036  10.029   0.799 -0.3724  0.1677  2.2199
   76MOL0     H10220   3.964  10.484   0.788  0.2395 -1.3936  2.4874
   76MOL0     H10221   3.833  10.636   0.648 -0.7325  0.2586 -2.7726
   76MOL0     H10222   3.342  10.639   0.436  0.0245 -1.2098  0.1358
   76MOL0     H10223   3.240  10.810   0.315 -0.4058  1.2243 -1.2531
   76MOL0     H10224   3.133  10.890   0.136  0.6771 -2.4828 -0.6076
   76MOL0     H10225   3.240  11.037   0.175 -2.7734  0.3175 -0.1257
   76MOL0     H10226   3.221  11.080  -0.079 -0.3110  0.3362  0.9863
   76MOL0     H10227   3.113  10.944  -0.083 -0.9259 -1.6102  1.9980
   76MOL0     H10228   2.932  11.038  -0.002 -0.3896  0.2806  0.6644
   76MOL0     H10229   3.011  11.138   0.115 -1.0886  2.6602 -0.7470
   76MOL0     H10230   2.890  11.270  -0.070  0.7499  1.4602  1.3095
   76MOL0     H10231   3.001  11.194  -0.191 -1.5764 -0.6774  0.7888
   76MOL0     H10232   3.163  11.320  -0.134 -2.1921 -0.8917 -1.6875
   76MOL0     H10233   3.117  11.356   0.035  3.5476 -0.0065 -1.1230
   76MOL0     H10234   3.006  11.461  -0.238  1.2038  2.1528 -1.6869
   76MOL0     H10235   2.959  11.524  -0.074 -0.4809 -1.0529  1.5125
   76MOL0     H10236   3.234  11.563  -0.205 -1.3764 -1.2674  0.6882
   76MOL0     H10237   3.188  11.576  -0.026 -1.4711 -0.8363  0.0617
   76MOL0     H10238   3.051  11.730  -0.242  3.8048  1.6066 -2.2354
   76MOL0     H10239   3.028  11.742  -0.066  0.1689 -3.4140  1.4327
   76MOL0     H10240   3.507  10.748  -0.014  4.1991  5.0809  2.9414
   76MOL0     H10241   3.612  10.552   0.120  1.7871  1.5167 -0.3689
   76MOL0     H10242   3.590  10.297   0.519  0.6642  0.2560 -2.7166
   76MOL0     H10243   3.715  10.159   0.647  1.5631 -0.3811  0.0660
   76MOL0     H10244   4.453  10.522   1.937  2.6963  0.2832 -3.6895
   76MOL0     H10245   4.688  10.500   1.964 -1.4333  0.5941 -3.4895
   76MOL0     H10246   5.083  10.915   1.756  0.2621 -0.7496 -0.0197
   76MOL0     H10247   5.331  10.929   1.743  1.2930  0.6580  1.5912
   76MOL0     H10248   5.497  10.995   1.955  2.4895 -0.6914  0.0717
   76MOL0     H10249   5.637  10.902   2.006  0.8915 -1.4239  1.2811
   76MOL0     H10250   5.357  10.909   2.170 -0.4339  0.0994  2.8032
   76MOL0     H10251   5.492  11.020   2.205  2.2457  0.6240 -1.8913
   76MOL0     H10252   5.584  10.749   2.185 -1.3149  0.8328 -0.9932
   76MOL0     H10253   5.423  10.731   2.256 -1.6476  2.4785 -2.1441
   76MOL0     H10254   5.496  10.900   2.449  1.6910 -0.7171  1.3959
   76MOL0     H10255   5.577  10.748   2.453  3.7611 -0.4119 -2.8949
   76MOL0     H10256   5.896  11.005   2.396 -0.2752  3.1523 -0.5332
   76MOL0     H10257   5.354  10.627   2.052  0.8595 -0.1734 -1.1731
   76MOL0     H10258   5.075  10.601   2.169  4.1812  1.2910 -0.2960
   76MOL0     H10259   5.033  10.511   2.015 -0.1050  2.2757 -2.9344
   76MOL0     H10260   5.189  10.498   2.106  0.8580 -1.4511  0.1668
   77MOL0     O10261   6.178   5.683   8.629  0.7187 -0.2014  0.2514
   77MOL0     C10262   6.210   5.562   8.632  0.3915 -0.1300  0.2392
   77MOL0     O10263   6.119   5.460   8.609 -0.0874  0.1559  0.3032
   77MOL0     C10264   6.000   5.504   8.579  0.4618  0.7843  0.0074
   77MOL0     C10265   5.946   5.448   8.468  0.1283 -0.4246  1.1175
   77MOL0     C10266   5.806   5.469   8.450 -0.3734 -0.1105  0.2292
   77MOL0     C10267   5.716   5.543   8.527  0.3434  0.0497 -0.4720
   77MOL0     O10268   5.583   5.558   8.500 -0.4104  0.2568  0.1900
   77MOL0     C10269   5.532   5.682   8.462  0.5083 -0.4503 -0.6238
   77MOL0     C10270   5.405   5.649   8.380  0.2795 -0.8634  0.6110
   77MOL0     C10271   5.304   5.562   8.466 -0.4492  0.1779  0.1933
   77MOL0     C10272   5.166   5.550   8.391 -0.1883 -1.4637 -0.4871
   77MOL0     C10273   5.170   5.457   8.278  0.7624  0.3902 -1.2755
   77MOL0     C10274   5.038   5.450   8.201 -0.7569 -0.0673 -0.7031
   77MOL0     C10275   5.019   5.303   8.147  0.2813  0.1145  0.1251
   77MOL0     C10276   4.890   5.296   8.063 -0.2239 -0.5912  0.0295
   77MOL0     N10277   4.760   5.314   8.133  1.4102 -0.2066  0.3987
   77MOL0     C10278   4.717   5.240   8.243 -0.1971 -1.2632  0.3384
   77MOL0     C10279   4.586   5.269   8.253 -0.0964 -0.8338  0.0152
   77MOL0     C10280   4.491   5.218   8.354  0.4166 -0.8061  0.4226
   77MOL0     C10281   4.449   5.074   8.337 -0.1344 -0.6759 -0.3254
   77MOL0     C10282   4.321   5.081   8.262  0.2623 -0.3841 -0.1314
   77MOL0     C10283   4.240   4.955   8.252 -0.1680  0.6078  0.3367
   77MOL0     O10284   4.318   4.840   8.211 -0.6524  0.0588 -0.0565
   77MOL0     C10285   4.325   4.807   8.079  1.0716  0.8739 -0.6050
   77MOL0     C10286   4.237   4.843   7.984 -0.1242 -1.2192  0.3560
   77MOL0     C10287   4.256   4.821   7.850 -0.2699  0.3540 -0.9653
   77MOL0     C10288   4.367   4.742   7.808 -0.6612 -0.4781 -0.0094
   77MOL0     C10289   4.389   4.715   7.661  0.2538  0.5509  0.2315
   77MOL0     O10290   4.506   4.655   7.616  0.5770 -0.2473 -0.0560
   77MOL0     C10291   4.526   4.632   7.488  0.4587  0.5962  1.1038
   77MOL0     C10292   4.507   4.723   7.381  0.1442 -0.0041 -0.1452
   77MOL0     C10293   4.558   4.699   7.245 -0.5806  0.0667 -0.7196
   77MOL0     C10294   4.622   4.577   7.215  0.8057  0.5726  0.0880
   77MOL0     O10295   4.662   4.541   7.089 -0.4817  0.2710 -0.6950
   77MOL0     C10296   4.794   4.482   7.080  1.2992  0.8553 -0.3354
   77MOL0     C10297   4.856   4.509   6.941 -0.3013 -0.1576 -0.5166
   77MOL0     C10298   5.001   4.492   6.936  0.2328 -0.2534  0.4736
   77MOL0     C10299   5.080   4.586   7.026  0.2713 -0.4491 -0.3034
   77MOL0     C10300   5.226   4.557   7.019 -0.1399  0.7584  0.7627
   77MOL0     C10301   5.304   4.695   7.033  0.9086 -0.2146 -0.8436
   77MOL0     C10302   5.323   4.773   6.904 -0.7960 -0.6093  0.4359
   77MOL0     C10303   5.424   4.706   6.804  0.2599 -0.6424  0.4571
   77MOL0    Cl10304   5.424   4.793   6.643 -0.3629 -0.3477 -0.0122
   77MOL0     C10305   4.632   4.489   7.321  0.3992  0.0921 -0.3869
   77MOL0     C10306   4.596   4.519   7.457 -0.7889  0.3108  0.1671
   77MOL0     O10307   4.299   4.737   7.587  0.6674  0.4394 -0.6407
   77MOL0     C10308   4.446   4.686   7.905 -0.2326 -0.3974 -0.3532
   77MOL0     C10309   4.433   4.730   8.038  0.5025  0.2338 -0.8312
   77MOL0     N10310   4.551   5.357   8.158  0.0333 -0.4408  0.1145
   77MOL0     N10311   4.648   5.371   8.077  0.6130 -0.5021  0.2848
   77MOL0     C10312   5.778   5.598   8.643  0.6251  0.5426 -0.2587
   77MOL0     C10313   5.913   5.572   8.667 -0.2043 -0.0432  0.2912
   77MOL0     C10314   6.352   5.533   8.642 -0.4704  0.0481 -0.3323
   77MOL0     C10315   6.396   5.405   8.658 -0.4014  0.5184  0.9801
   77MOL0     C10316   6.531   5.361   8.659  0.6401 -1.0201 -0.4078
   77MOL0     C10317   6.633   5.458   8.632 -0.0411 -0.0062  0.3509
   77MOL0     O10318   6.771   5.436   8.612  0.0583  0.6830 -0.5725
   77MOL0     C10319   6.828   5.309   8.637  0.2062  0.1681  0.5728
   77MOL0     C10320   6.965   5.291   8.574 -0.4116  0.1866  0.4914
   77MOL0     C10321   6.973   5.310   8.424 -0.1252 -0.4539  0.7893
   77MOL0     C10322   7.078   5.419   8.395  0.0470 -0.5048 -0.4295
   77MOL0     C10323   7.122   5.421   8.258 -0.6187 -0.0108 -0.2238
   77MOL0     C10324   7.165   5.417   8.145  0.1939 -0.3591  0.7499
   77MOL0     C10325   6.591   5.593   8.633  0.8012  0.4106  0.8092
   77MOL0     C10326   6.452   5.637   8.632  0.1455 -0.7844  0.0453
   77MOL0     C10327   6.439   5.787   8.611 -0.8191 -0.1991  0.7203
   77MOL0     H10328   5.998   5.377   8.405  1.0574 -0.5014  1.9652
   77MOL0     H10329   5.755   5.446   8.357  0.7619  1.0003 -0.7097
   77MOL0     H10330   5.514   5.743   8.551 -0.0622 -2.1201  0.4622
   77MOL0     H10331   5.615   5.727   8.408  2.0726 -1.0714  1.1385
   77MOL0     H10332   5.430   5.588   8.293  1.7839  0.8183 -0.1956
   77MOL0     H10333   5.355   5.739   8.344 -0.4347 -1.4671  0.0737
   77MOL0     H10334   5.293   5.601   8.567 -0.1410 -3.2182  1.6899
   77MOL0     H10335   5.348   5.462   8.479 -2.0437 -1.2965 -3.9454
   77MOL0     H10336   5.088   5.528   8.465  0.7787  0.7770  1.3316
   77MOL0     H10337   5.148   5.649   8.348  3.5861 -0.3187  0.1839
   77MOL0     H10338   5.244   5.484   8.202  0.7011  1.0946 -1.0876
   77MOL0     H10339   5.200   5.362   8.323 -1.4493  1.1098  2.0966
   77MOL0     H10340   4.954   5.458   8.271  0.5715  3.2111  0.7646
   77MOL0     H10341   5.020   5.527   8.125 -0.8688  1.8148  1.1252
   77MOL0     H10342   5.011   5.230   8.228 -3.5556  0.1811  0.0082
   77MOL0     H10343   5.100   5.286   8.076 -1.2896  0.2769 -1.7788
   77MOL0     H10344   4.888   5.361   7.975  2.3936  1.4048  1.3074
   77MOL0     H10345   4.886   5.192   8.030  0.5155 -0.7137  0.3028
   77MOL0     H10346   4.779   5.170   8.297  1.0124 -1.2281 -0.9424
   77MOL0     H10347   4.542   5.221   8.451  0.1426  0.7441  0.5415
   77MOL0     H10348   4.412   5.293   8.361  1.6720  0.7564 -1.1928
   77MOL0     H10349   4.524   5.026   8.274  0.4186 -1.8854  1.1913
   77MOL0     H10350   4.427   5.018   8.429 -2.1878 -0.7203 -0.8098
   77MOL0     H10351   4.331   5.124   8.162 -0.4175  1.0288  0.3772
   77MOL0     H10352   4.262   5.158   8.313  0.2353 -1.9709  2.3915
   77MOL0     H10353   4.152   4.976   8.191  0.1369  5.5180  1.1446
   77MOL0     H10354   4.197   4.928   8.349  1.2294 -1.4710  0.4534
   77MOL0     H10355   4.148   4.901   8.009 -0.6585 -1.4600 -0.9314
   77MOL0     H10356   4.174   4.857   7.788 -0.0819 -1.1339 -2.1300
   77MOL0     H10357   4.448   4.812   7.399 -2.8475 -1.5657 -1.5503
   77MOL0     H10358   4.560   4.777   7.169  2.3675 -0.1021 -0.9288
   77MOL0     H10359   4.854   4.527   7.160 -2.6384  1.2313  2.7321
   77MOL0     H10360   4.781   4.375   7.099 -2.0597  1.1250 -0.4867
   77MOL0     H10361   4.806   4.433   6.880 -1.5788 -2.3840  3.0060
   77MOL0     H10362   4.824   4.605   6.899 -2.0344 -0.4143  0.1368
   77MOL0     H10363   5.023   4.388   6.960 -0.8551 -0.8885 -1.0728
   77MOL0     H10364   5.026   4.495   6.829 -2.4215 -3.1785 -0.3962
   77MOL0     H10365   5.042   4.579   7.128  0.4487 -3.4888 -0.3657
   77MOL0     H10366   5.065   4.688   6.989 -0.0730  0.0404  1.1191
   77MOL0     H10367   5.247   4.510   6.922 -2.4769  0.5981  0.2753
   77MOL0     H10368   5.255   4.492   7.102 -0.5070 -0.5100 -0.0790
   77MOL0     H10369   5.259   4.761   7.107  0.7119 -1.6961  0.4087
   77MOL0     H10370   5.399   4.668   7.080 -1.4802  1.2628  5.9825
   77MOL0     H10371   5.371   4.867   6.933  0.7263 -1.4665  0.8678
   77MOL0     H10372   5.232   4.801   6.852 -2.1038 -1.5371  2.1322
   77MOL0     H10373   5.524   4.734   6.837  1.7433  0.1825 -4.0365
   77MOL0     H10374   5.414   4.597   6.807 -3.0197 -0.5360 -1.3834
   77MOL0     H10375   4.678   4.391   7.313  1.1489 -0.0004  3.3786
   77MOL0     H10376   4.611   4.449   7.538  0.4255  1.5711  1.0701
   77MOL0     H10377   4.529   4.618   7.886  1.8240  1.2815  1.9068
   77MOL0     H10378   4.500   4.698   8.117  0.6990  0.7862 -0.7677
   77MOL0     H10379   5.720   5.634   8.727  1.7756 -0.6969  1.1252
   77MOL0     H10380   5.965   5.606   8.756  0.6458  1.0490 -0.5937
   77MOL0     H10381   6.320   5.327   8.652 -0.8680  1.0296  0.0203
   77MOL0     H10382   6.540   5.255   8.677 -2.1530 -0.8152  3.9758
   77MOL0     H10383   6.750   5.236   8.615 -2.0408  2.5639 -0.0468
   77MOL0     H10384   6.838   5.308   8.745 -1.1766  1.1851  0.7484
   77MOL0     H10385   6.993   5.190   8.606 -0.9452  0.2859  1.2949
   77MOL0     H10386   7.029   5.365   8.624  0.4312  0.2024 -0.5873
   77MOL0     H10387   6.879   5.325   8.371  0.5934  0.3223 -0.3162
   77MOL0     H10388   7.024   5.219   8.390  1.4108  1.3974 -2.2225
   77MOL0     H10389   7.038   5.519   8.416  1.5031  0.2562 -1.1667
   77MOL0     H10390   7.164   5.413   8.462  0.9459  3.5178 -0.9093
   77MOL0     H10391   7.189   5.426   8.041 -1.8849  0.9859  0.3455
   77MOL0     H10392   6.681   5.653   8.632  0.8522  0.3715 -0.7197
   77MOL0     H10393   6.377   5.807   8.524  1.8480  5.7202 -0.2764
   77MOL0     H10394   6.403   5.845   8.697 -1.9963 -2.6535  1.9897
   77MOL0     H10395   6.529   5.829   8.566 -2.1837 -0.5222 -2.6153
   78MOL0     O10396   2.179   6.814   6.405 -0.3846 -0.1442 -0.2146
   78MOL0     C10397   2.097   6.911   6.409 -0.7903 -0.3830 -0.1305
   78MOL0     O10398   1.970   6.911   6.368 -0.7720 -0.5606  0.4790
   78MOL0     C10399   1.924   6.799   6.304 -0.2900 -0.0628 -0.5395
   78MOL0     C10400   1.885   6.686   6.380 -0.2732 -0.3895 -0.1522
   78MOL0     C10401   1.840   6.565   6.314 -0.2223 -1.0397 -0.1816
   78MOL0     C10402   1.832   6.565   6.174  0.1856 -0.8631 -0.4784
   78MOL0     O10403   1.815   6.441   6.117  0.3248 -0.0140 -0.2757
   78MOL0     C10404   1.685   6.414   6.072 -0.8393 -0.0518 -0.3017
   78MOL0     C10405   1.602   6.357   6.193  0.2472  0.0393 -0.2516
   78MOL0     C10406   1.468   6.303   6.142  0.3732  0.3459  0.4050
   78MOL0     C10407   1.398   6.218   6.252  0.2929 -0.1526 -0.0262
   78MOL0     C10408   1.266   6.162   6.193 -0.2105 -1.0061 -0.4333
   78MOL0     C10409   1.284   6.046   6.098  0.2552 -0.7010 -0.1067
   78MOL0     C10410   1.374   5.934   6.154 -0.9561  0.2704 -0.2803
   78MOL0     C10411   1.349   5.800   6.096  0.0820  0.7307  0.0904
   78MOL0     N10412   1.438   5.707   6.165 -0.2077  0.4308 -0.4853
   78MOL0     C10413   1.565   5.672   6.123  0.2434 -0.4826  0.3969
   78MOL0     C10414   1.592   5.558   6.194 -0.2426  0.1378 -0.2285
   78MOL0     C10415   1.727   5.491   6.209  0.6254  0.1176  0.0530
   78MOL0     C10416   1.812   5.587   6.293 -0.4313 -0.3921  0.2059
   78MOL0     C10417   1.952   5.528   6.302 -0.6597 -0.8443  0.2868
   78MOL0     C10418   2.054   5.619   6.377 -0.9307 -0.4101  0.3381
   78MOL0     O10419   2.004   5.649   6.511  0.3293 -0.3368  0.5037
   78MOL0     C10420   2.099   5.699   6.599  0.7268 -0.4068 -0.7488
   78MOL0     C10421   2.166   5.608   6.677 -1.1689 -0.1441  0.9036
   78MOL0     C10422   2.254   5.655   6.769  0.2522 -0.0209 -0.3253
   78MOL0     C10423   2.264   5.792   6.788 -0.6716  0.2385 -0.0358
   78MOL0     C10424   2.355   5.841   6.892 -0.0826 -1.0084  0.3348
   78MOL0     O10425   2.396   5.980   6.883 -0.1267 -0.2169  0.1762
   78MOL0     C10426   2.442   6.037   7.001  1.1352  0.1890  0.0449
   78MOL0     C10427   2.384   6.137   7.082 -0.2802  0.0339 -0.2891
   78MOL0     C10428   2.443   6.174   7.202 -0.0279 -0.8011 -0.4051
   78MOL0     C10429   2.580   6.126   7.246 -0.4232  1.4587  0.9672
   78MOL0     O10430   2.667   6.155   7.350  0.4906 -0.8806  0.3597
   78MOL0     C10431   2.596   6.228   7.451 -0.1738  0.1292  0.7256
   78MOL0     C10432   2.693   6.236   7.569 -0.5615  0.3807  0.3834
   78MOL0     C10433   2.631   6.308   7.699 -0.5170 -0.0684  0.4489
   78MOL0     C10434   2.733   6.303   7.813 -1.1131  0.9284 -0.1578
   78MOL0     C10435   2.757   6.158   7.859 -0.3349 -0.8019 -0.4722
   78MOL0     C10436   2.631   6.076   7.870 -0.4522 -0.7331 -0.2387
   78MOL0     C10437   2.644   5.956   7.971  0.0942  0.5527  0.3562
   78MOL0     C10438   2.743   5.847   7.940 -0.2070 -0.0439  0.0989
   78MOL0    Cl10439   2.710   5.707   8.042  0.2124 -0.1961 -0.4100
   78MOL0     C10440   2.629   6.021   7.157 -0.5356 -0.2235  1.3193
   78MOL0     C10441   2.561   5.981   7.044 -0.4753 -0.4071 -0.4988
   78MOL0     O10442   2.388   5.764   6.983 -0.4765  0.3710 -1.7001
   78MOL0     C10443   2.194   5.884   6.713 -0.6738  0.3075 -0.0649
   78MOL0     C10444   2.114   5.837   6.619 -0.0622 -0.4145 -0.1673
   78MOL0     N10445   1.485   5.527   6.277  0.0105  0.6168 -0.4723
   78MOL0     N10446   1.390   5.616   6.254  0.6979  0.6765  0.1714
   78MOL0     C10447   1.882   6.679   6.102 -0.2347  0.2834 -0.5403
   78MOL0     C10448   1.926   6.795   6.165  0.1804  0.3752  0.0288
   78MOL0     C10449   2.154   7.039   6.463 -0.0844 -0.1737  0.1947
   78MOL0     C10450   2.096   7.163   6.432 -0.4021 -0.1763 -1.1974
   78MOL0     C10451   2.146   7.286   6.489  0.2222  0.2332  0.4497
   78MOL0     C10452   2.242   7.284   6.587  0.3664 -0.4306 -0.3050
   78MOL0     O10453   2.269   7.400   6.651 -0.2430  0.8344 -0.1261
   78MOL0     C10454   2.369   7.411   6.752 -0.7230  0.0421 -0.0654
   78MOL0     C10455   2.319   7.374   6.887 -0.8794  0.6817 -0.4830
   78MOL0     C10456   2.434   7.342   6.978 -0.0759 -0.1917 -0.0351
   78MOL0     C10457   2.399   7.336   7.125 -0.5096 -0.2298 -1.0729
   78MOL0     C10458   2.528   7.311   7.193  0.8664  0.0480 -0.3590
   78MOL0     C10459   2.633   7.294   7.247 -0.2428 -0.1917 -1.8357
   78MOL0     C10460   2.294   7.155   6.620  0.7321 -0.0573 -0.2384
   78MOL0     C10461   2.255   7.037   6.562  0.3024  0.4957  0.0731
   78MOL0     C10462   2.329   6.912   6.615 -0.5732  1.0441 -0.0370
   78MOL0     H10463   1.900   6.682   6.487 -1.1138 -1.3923 -0.0538
   78MOL0     H10464   1.810   6.480   6.374 -0.7679 -0.1679  0.8156
   78MOL0     H10465   1.640   6.497   6.017  0.7989 -0.8309 -3.0136
   78MOL0     H10466   1.696   6.327   6.006 -3.0749 -0.6112 -0.0456
   78MOL0     H10467   1.580   6.437   6.264 -0.4827 -1.7324  1.6015
   78MOL0     H10468   1.657   6.277   6.244 -2.4198 -1.7651  0.0171
   78MOL0     H10469   1.500   6.228   6.069 -0.5132  0.9808 -0.6681
   78MOL0     H10470   1.398   6.378   6.105  1.4354  0.8934 -0.5480
   78MOL0     H10471   1.469   6.138   6.277  0.1666  0.3609  2.1782
   78MOL0     H10472   1.383   6.276   6.344 -3.6244  1.2784 -1.3631
   78MOL0     H10473   1.212   6.133   6.283 -2.1262  2.0485 -0.4464
   78MOL0     H10474   1.205   6.240   6.146  0.5930 -0.1964 -0.1583
   78MOL0     H10475   1.184   6.013   6.069  0.0536 -0.3617  0.1855
   78MOL0     H10476   1.338   6.061   6.005 -0.8004 -3.0765 -1.1756
   78MOL0     H10477   1.356   5.929   6.262 -2.7881 -0.0344 -0.5598
   78MOL0     H10478   1.479   5.955   6.133 -0.5172 -0.7175  0.8478
   78MOL0     H10479   1.246   5.767   6.109 -0.4436  1.5379 -1.7210
   78MOL0     H10480   1.354   5.795   5.986 -0.1233 -0.7264  0.1320
   78MOL0     H10481   1.619   5.735   6.054  2.3708 -1.1386  1.3731
   78MOL0     H10482   1.713   5.391   6.250 -1.9297  0.8091  1.0714
   78MOL0     H10483   1.776   5.472   6.113 -1.2209 -0.1459 -0.8707
   78MOL0     H10484   1.820   5.684   6.243  0.7468 -0.3410  0.4586
   78MOL0     H10485   1.752   5.587   6.385 -1.4173 -2.8681 -0.3502
   78MOL0     H10486   1.998   5.514   6.204  2.2017  2.7238  0.9418
   78MOL0     H10487   1.951   5.433   6.356  0.8808 -0.8526  0.3374
   78MOL0     H10488   2.072   5.713   6.326 -0.9458 -1.1139 -1.0190
   78MOL0     H10489   2.150   5.570   6.398 -0.3849  1.6384  3.1815
   78MOL0     H10490   2.160   5.501   6.659  1.1402  0.0389 -1.5265
   78MOL0     H10491   2.317   5.584   6.820  0.3475 -0.8362 -1.5239
   78MOL0     H10492   2.296   6.191   7.050  0.4754 -0.0385 -2.7202
   78MOL0     H10493   2.388   6.244   7.265 -0.6272 -2.0500  0.5040
   78MOL0     H10494   2.581   6.325   7.401 -2.6070  0.0461  1.1482
   78MOL0     H10495   2.505   6.188   7.496  0.1357 -2.2454 -0.5967
   78MOL0     H10496   2.726   6.136   7.598 -0.3056 -0.2315 -1.8641
   78MOL0     H10497   2.787   6.282   7.537 -0.9381 -0.0306 -1.4178
   78MOL0     H10498   2.605   6.409   7.664 -1.0231 -0.5993 -0.7647
   78MOL0     H10499   2.537   6.254   7.717  2.3121 -6.8163 -1.8647
   78MOL0     H10500   2.689   6.354   7.899  0.1474  0.0822  1.0416
   78MOL0     H10501   2.830   6.343   7.779 -0.5531  1.1749  1.6109
   78MOL0     H10502   2.797   6.160   7.961  0.5823  0.2182 -0.8315
   78MOL0     H10503   2.824   6.118   7.782 -1.8382 -2.2628 -1.0736
   78MOL0     H10504   2.544   6.128   7.912 -0.4964 -2.4320  2.0007
   78MOL0     H10505   2.597   6.028   7.778 -1.1465 -1.3921  0.3473
   78MOL0     H10506   2.546   5.909   7.986  1.4401 -2.0874  1.6696
   78MOL0     H10507   2.671   5.990   8.071  1.7890  3.4001 -0.9473
   78MOL0     H10508   2.735   5.814   7.836 -1.0470 -3.7226  1.1863
   78MOL0     H10509   2.844   5.881   7.964 -0.7320  2.0926 -0.5218
   78MOL0     H10510   2.724   5.982   7.192  0.5965  0.3394 -0.9795
   78MOL0     H10511   2.602   5.915   6.968 -0.2776  1.6966 -2.3244
   78MOL0     H10512   2.207   5.992   6.723 -0.5205  0.4390 -1.4527
   78MOL0     H10513   2.048   5.902   6.563 -3.2321 -2.7322  0.6074
   78MOL0     H10514   1.890   6.657   5.996  1.3043 -0.6147 -0.2688
   78MOL0     H10515   1.969   6.880   6.113 -1.5498  1.4327  0.2450
   78MOL0     H10516   2.011   7.160   6.365 -0.6480 -0.5690 -0.8674
   78MOL0     H10517   2.091   7.377   6.466  1.6898  0.8683 -0.7130
   78MOL0     H10518   2.393   7.517   6.759 -2.2819  0.3073  3.1783
   78MOL0     H10519   2.464   7.362   6.730 -0.0377  0.4920  1.7420
   78MOL0     H10520   2.261   7.281   6.884  0.3074 -0.0691 -1.7164
   78MOL0     H10521   2.242   7.445   6.919 -1.2269  0.0998 -0.0102
   78MOL0     H10522   2.503   7.426   6.963 -0.4363  0.0436 -0.4285
   78MOL0     H10523   2.484   7.253   6.939 -2.2556 -0.4897 -2.4025
   78MOL0     H10524   2.354   7.432   7.151  1.4700  1.0839 -2.1943
   78MOL0     H10525   2.329   7.261   7.162 -0.9158 -0.2933 -1.9674
   78MOL0     H10526   2.716   7.272   7.311 -0.0883 -1.6322 -2.5100
   78MOL0     H10527   2.367   7.152   6.700  0.4712 -0.2541 -0.0013
   78MOL0     H10528   2.409   6.934   6.687  1.0290 -1.2409 -0.9995
   78MOL0     H10529   2.261   6.837   6.655  0.0847 -0.2991 -1.3361
   78MOL0     H10530   2.377   6.858   6.533 -0.9745 -0.8120  0.8968
   79MOL0     O10531   3.210   5.045   4.024  0.0963 -0.6455 -0.5522
   79MOL0     C10532   3.093   5.063   4.008 -0.5088  0.3316 -0.2867
   79MOL0     O10533   3.010   4.967   3.970  0.4966  0.0992 -0.0228
   79MOL0     C10534   3.047   4.839   3.996 -0.2587  0.4564 -0.4835
   79MOL0     C10535   2.984   4.758   4.098 -0.0564 -0.6505 -0.9541
   79MOL0     C10536   3.030   4.626   4.107 -0.2150  0.7597  0.1115
   79MOL0     C10537   3.117   4.567   4.016  0.2503  0.5177  0.3955
   79MOL0     O10538   3.144   4.431   4.012 -0.3205  0.4358 -0.3147
   79MOL0     C10539   3.132   4.345   4.122 -0.1366  0.5021 -0.2953
   79MOL0     C10540   3.210   4.208   4.106 -0.4436 -0.5065 -0.9533
   79MOL0     C10541   3.150   4.083   4.186 -0.2750 -0.4236  0.4024
   79MOL0     C10542   3.241   3.956   4.165 -0.3190 -0.5768  0.2154
   79MOL0     C10543   3.222   3.829   4.254  0.7898 -0.5350  0.5052
   79MOL0     C10544   3.243   3.836   4.402 -0.2134  0.5202  0.5239
   79MOL0     C10545   3.148   3.731   4.465 -0.5331 -0.6713  0.4284
   79MOL0     C10546   3.180   3.731   4.618 -0.3492  0.2076 -0.2453
   79MOL0     N10547   3.121   3.605   4.676 -0.2775 -0.0571  0.3795
   79MOL0     C10548   3.183   3.477   4.680  0.5766  0.0513  1.3060
   79MOL0     C10549   3.118   3.397   4.768 -0.5273 -0.0630 -0.4137
   79MOL0     C10550   3.135   3.257   4.799  0.2234 -0.0215 -0.4995
   79MOL0     C10551   3.051   3.151   4.708 -1.0017  0.7882  0.5889
   79MOL0     C10552   3.055   3.023   4.785  0.2263  0.4506 -0.0421
   79MOL0     C10553   2.960   2.919   4.733  0.6236 -0.0255  1.0401
   79MOL0     O10554   2.984   2.788   4.786 -0.2533  0.4975 -1.0250
   79MOL0     C10555   2.912   2.688   4.736  1.1142 -0.0337 -0.0060
   79MOL0     C10556   2.839   2.693   4.610  0.4505  0.3263 -0.2434
   79MOL0     C10557   2.758   2.584   4.569 -0.5934 -0.0365  0.4321
   79MOL0     C10558   2.740   2.474   4.645  1.4471  0.3264  1.2603
   79MOL0     C10559   2.634   2.375   4.605  0.8390  0.3066 -0.2562
   79MOL0     O10560   2.595   2.359   4.475 -0.7429 -0.2198 -1.0083
   79MOL0     C10561   2.494   2.280   4.441 -0.6158 -0.0892  0.3884
   79MOL0     C10562   2.379   2.253   4.515  0.3684  0.2383  0.3112
   79MOL0     C10563   2.292   2.152   4.476  0.5424 -0.2232  0.2750
   79MOL0     C10564   2.311   2.081   4.354  0.1531  0.6880 -0.2221
   79MOL0     O10565   2.239   1.972   4.322  0.1648 -0.7571 -0.2124
   79MOL0     C10566   2.137   1.987   4.224  0.2434  1.0285 -0.1345
   79MOL0     C10567   2.055   1.856   4.217  1.1876 -0.5744 -0.5102
   79MOL0     C10568   2.141   1.736   4.160 -0.4970 -1.3161  0.2175
   79MOL0     C10569   2.061   1.602   4.145 -0.3788  0.2024 -0.2458
   79MOL0     C10570   1.954   1.608   4.043  0.6316  0.7426 -0.7020
   79MOL0     C10571   1.867   1.478   4.050 -1.6316 -0.2951  0.7799
   79MOL0     C10572   1.770   1.451   3.932 -1.0504 -0.1927 -0.5532
   79MOL0     C10573   1.695   1.332   3.966 -0.3530 -0.2184  0.2498
   79MOL0    Cl10574   1.586   1.361   4.112  0.2452 -0.3502 -0.4012
   79MOL0     C10575   2.411   2.124   4.273 -0.6945 -0.2265  0.8508
   79MOL0     C10576   2.502   2.224   4.314  0.2565 -0.9782 -0.8869
   79MOL0     O10577   2.601   2.300   4.696  0.1196 -0.1139 -0.5828
   79MOL0     C10578   2.806   2.469   4.774 -0.2171 -0.1059  0.0346
   79MOL0     C10579   2.896   2.572   4.809 -0.2066 -0.1408 -0.1395
   79MOL0     N10580   3.003   3.476   4.812 -1.6932  0.5153  0.4944
   79MOL0     N10581   3.016   3.591   4.762 -0.3588  0.1842  0.5631
   79MOL0     C10582   3.166   4.646   3.909  0.6511  0.9218  0.4857
   79MOL0     C10583   3.137   4.778   3.903 -0.2941  0.5379 -0.1622
   79MOL0     C10584   3.048   5.212   4.003 -0.4519  0.5198  0.1963
   79MOL0     C10585   3.147   5.304   4.014 -1.1986  0.7181 -0.3455
   79MOL0     C10586   3.113   5.435   4.008 -0.0256  0.3569  0.3601
   79MOL0     C10587   2.981   5.478   3.994 -0.3192 -0.1456 -0.1368
   79MOL0     O10588   2.931   5.606   3.981  0.5178  0.9748 -0.1008
   79MOL0     C10589   2.938   5.685   4.103 -0.4498 -0.9922 -0.2150
   79MOL0     C10590   2.843   5.803   4.098 -0.3023 -0.2546 -0.1379
   79MOL0     C10591   2.906   5.934   4.054 -0.1480 -0.1083  1.1016
   79MOL0     C10592   2.813   6.047   4.023 -0.8427 -1.0180 -0.6149
   79MOL0     C10593   2.745   6.021   3.896 -0.4187  0.7978 -0.2966
   79MOL0     C10594   2.694   6.013   3.789  0.5268 -0.1182 -0.6031
   79MOL0     C10595   2.882   5.378   3.975  0.9248 -0.1842  0.5863
   79MOL0     C10596   2.915   5.249   3.982 -0.6975  0.5331 -1.4451
   79MOL0     C10597   2.796   5.156   3.962 -0.3181  0.0723  0.3594
   79MOL0     H10598   2.910   4.797   4.167  0.9879 -1.7228  0.8542
   79MOL0     H10599   2.990   4.551   4.175  0.6575  0.5372  0.3955
   79MOL0     H10600   3.148   4.398   4.216 -1.4846  1.5033 -0.5944
   79MOL0     H10601   3.033   4.305   4.145  0.1001  1.1859  2.2045
   79MOL0     H10602   3.316   4.217   4.133 -1.0029 -3.9703  3.4977
   79MOL0     H10603   3.207   4.170   4.004  1.3446 -0.4036 -1.0888
   79MOL0     H10604   3.048   4.055   4.158 -0.4824 -0.4481  1.1509
   79MOL0     H10605   3.139   4.103   4.293  0.2112  0.2120  0.3416
   79MOL0     H10606   3.219   3.905   4.071  0.3006 -3.2728  1.4333
   79MOL0     H10607   3.348   3.974   4.181 -0.4951  0.1961  0.5833
   79MOL0     H10608   3.129   3.780   4.224  0.8965  0.1983 -1.1601
   79MOL0     H10609   3.290   3.752   4.215 -0.3224 -0.6221 -1.4178
   79MOL0     H10610   3.346   3.800   4.414 -0.3761 -0.2604 -0.2883
   79MOL0     H10611   3.230   3.938   4.437 -0.0919  0.4860  0.6677
   79MOL0     H10612   3.162   3.633   4.419 -0.8950 -0.3245 -0.4387
   79MOL0     H10613   3.045   3.754   4.435 -0.3371  1.4890  1.1844
   79MOL0     H10614   3.288   3.728   4.630 -0.2708 -0.7577 -1.0417
   79MOL0     H10615   3.137   3.821   4.661 -0.8319  0.8231 -1.9090
   79MOL0     H10616   3.270   3.451   4.620  0.4696 -0.6789  1.4589
   79MOL0     H10617   3.242   3.236   4.803  0.1548 -0.1816  0.7880
   79MOL0     H10618   3.106   3.242   4.903 -0.0287  3.2933  0.0376
   79MOL0     H10619   2.946   3.180   4.707 -1.7442 -1.6681 -0.1378
   79MOL0     H10620   3.101   3.129   4.613  0.9502 -0.4915  1.8335
   79MOL0     H10621   3.044   3.030   4.894  0.8062  0.9885 -0.0048
   79MOL0     H10622   3.150   2.971   4.770 -0.0111  0.2678 -1.0110
   79MOL0     H10623   2.962   2.919   4.623 -2.9794  0.5585  0.8729
   79MOL0     H10624   2.862   2.961   4.754  0.6021  1.1440 -1.0538
   79MOL0     H10625   2.826   2.775   4.541 -4.1385 -0.7439 -1.0206
   79MOL0     H10626   2.715   2.613   4.474  1.8286  0.4719 -0.5815
   79MOL0     H10627   2.351   2.305   4.606  2.8623  2.8172 -0.2549
   79MOL0     H10628   2.208   2.133   4.541  2.9032 -2.5330  2.9181
   79MOL0     H10629   2.066   2.067   4.247 -0.0246  1.2873 -1.6957
   79MOL0     H10630   2.171   2.002   4.121 -0.3160 -1.2953 -0.7267
   79MOL0     H10631   2.023   1.834   4.320  1.6391  1.7722  0.1855
   79MOL0     H10632   1.969   1.880   4.154  0.7320  0.8664  0.6053
   79MOL0     H10633   2.176   1.766   4.061  1.6184 -1.3324  0.9129
   79MOL0     H10634   2.226   1.717   4.226  1.4045  2.4006 -0.9010
   79MOL0     H10635   2.013   1.595   4.242  2.3892 -1.7888  1.1157
   79MOL0     H10636   2.126   1.514   4.138  0.5549  0.6323  2.1376
   79MOL0     H10637   2.007   1.623   3.948  0.3951  2.0046 -0.6475
   79MOL0     H10638   1.884   1.691   4.040  0.7160  0.8495  0.1308
   79MOL0     H10639   1.945   1.401   4.053  0.1703  1.2982 -1.4776
   79MOL0     H10640   1.822   1.473   4.149  0.0161  2.4643  1.7853
   79MOL0     H10641   1.831   1.434   3.843 -0.2330  0.1302 -0.0668
   79MOL0     H10642   1.714   1.543   3.911  0.6015  1.8415  2.8787
   79MOL0     H10643   1.637   1.305   3.876 -0.0452  1.1699 -0.3855
   79MOL0     H10644   1.765   1.249   3.977  0.6245  0.4065 -0.9961
   79MOL0     H10645   2.445   2.064   4.189  0.1237  1.0979  0.1980
   79MOL0     H10646   2.581   2.259   4.248 -0.4020  2.2484 -0.1204
   79MOL0     H10647   2.779   2.390   4.843 -3.1110 -0.2401 -1.1060
   79MOL0     H10648   2.963   2.545   4.889 -1.3668 -0.3017  0.8084
   79MOL0     H10649   3.226   4.610   3.826  0.2841 -0.2641  0.7109
   79MOL0     H10650   3.178   4.850   3.833  2.5736  1.8414  2.6014
   79MOL0     H10651   3.249   5.276   4.036 -0.0887  3.1023 -2.0252
   79MOL0     H10652   3.201   5.499   4.001  1.3244 -1.4979 -0.7036
   79MOL0     H10653   3.036   5.730   4.124 -1.3174  0.0686  1.7773
   79MOL0     H10654   2.914   5.626   4.192  1.8353 -0.8381  0.5892
   79MOL0     H10655   2.787   5.801   4.191  0.0943 -1.7092  0.1016
   79MOL0     H10656   2.762   5.780   4.029 -0.9364 -1.1960  0.8893
   79MOL0     H10657   2.967   5.922   3.964 -1.0372  3.5036 -0.1443
   79MOL0     H10658   2.972   5.973   4.132  0.5627  0.8681  0.0455
   79MOL0     H10659   2.738   6.047   4.102 -1.5797  3.0653 -1.0703
   79MOL0     H10660   2.858   6.147   4.013  0.2196 -1.5352 -1.2321
   79MOL0     H10661   2.655   6.008   3.689  0.1932  1.4717 -0.5822
   79MOL0     H10662   2.779   5.407   3.956 -0.0849 -1.5389  3.4803
   79MOL0     H10663   2.699   5.206   3.954  0.4427  1.4114 -1.4032
   79MOL0     H10664   2.811   5.108   3.865  2.6222 -0.8484  1.1605
   79MOL0     H10665   2.797   5.074   4.034 -0.1889 -2.2604 -2.1496
   80MOL0     O10666   1.834   6.849  10.315  0.1127  0.4316 -0.3294
   80MOL0     C10667   1.824   6.806  10.200  0.6090 -1.2167  0.4067
   80MOL0     O10668   1.898   6.701  10.158 -0.0530 -0.4399 -0.3141
   80MOL0     C10669   1.986   6.644  10.238  0.7994  0.6579 -0.1857
   80MOL0     C10670   1.955   6.520  10.300 -0.3265  0.7675 -0.1004
   80MOL0     C10671   2.036   6.452  10.384  1.2041 -0.4741 -0.1149
   80MOL0     C10672   2.157   6.515  10.410  0.1757  0.2685 -1.5835
   80MOL0     O10673   2.248   6.467  10.501 -0.0288 -0.8439 -0.3505
   80MOL0     C10674   2.240   6.331  10.553  0.7435  0.0731  0.3381
   80MOL0     C10675   2.358   6.297  10.648  0.9118  0.1669  0.3626
   80MOL0     C10676   2.392   6.407  10.746  0.7384 -0.3526 -0.7408
   80MOL0     C10677   2.481   6.363  10.864 -2.0757  0.0964 -0.0037
   80MOL0     C10678   2.620   6.327  10.810 -0.4318 -0.0020  0.4859
   80MOL0     C10679   2.715   6.298  10.923 -0.1355 -0.5694  0.4020
   80MOL0     C10680   2.671   6.178  11.016 -0.7593 -0.4950  1.3389
   80MOL0     C10681   2.704   6.054  10.934  0.0826  0.0788  1.1936
   80MOL0     N10682   2.706   5.932  11.014  0.1757  0.8136 -0.8491
   80MOL0     C10683   2.778   5.910  11.128 -1.3259  0.7525 -0.2042
   80MOL0     C10684   2.768   5.772  11.150  0.4552  0.4828  0.2556
   80MOL0     C10685   2.845   5.715  11.265 -0.2615  0.0343  0.3735
   80MOL0     C10686   2.826   5.572  11.295  0.0619  1.0527 -0.0738
   80MOL0     C10687   2.933   5.527  11.396  0.3124  0.3186 -0.3497
   80MOL0     C10688   2.892   5.557  11.548  0.3605  0.4861 -0.3456
   80MOL0     O10689   2.999   5.567  11.642  0.2558 -0.1968  0.1114
   80MOL0     C10690   2.962   5.566  11.777 -0.0522 -0.8710  0.7639
   80MOL0     C10691   2.830   5.587  11.825 -0.1813 -0.0711 -0.0559
   80MOL0     C10692   2.801   5.579  11.966  0.0847 -0.5463 -0.2288
   80MOL0     C10693   2.904   5.545  12.055 -1.0679  0.2592 -0.2335
   80MOL0     C10694   2.868   5.519  12.195 -0.6811  0.4834  0.0962
   80MOL0     O10695   2.956   5.570  12.286 -0.2141  0.5749  0.1727
   80MOL0     C10696   2.919   5.558  12.419  0.2549 -0.4911  0.7552
   80MOL0     C10697   2.868   5.439  12.481  0.2963 -0.0187 -0.3207
   80MOL0     C10698   2.825   5.439  12.610  0.1833  0.6666  0.2028
   80MOL0     C10699   2.831   5.558  12.684 -0.0850 -0.6375  0.0824
   80MOL0     O10700   2.787   5.549  12.816 -0.1610  0.5406  0.0536
   80MOL0     C10701   2.708   5.658  12.863  0.1855 -0.0503  0.1368
   80MOL0     C10702   2.619   5.621  12.987  0.1750 -0.0198  0.0377
   80MOL0     C10703   2.496   5.727  12.976  0.4231  0.2443 -0.0515
   80MOL0     C10704   2.427   5.754  13.110  0.0323 -0.0067 -0.2823
   80MOL0     C10705   2.353   5.623  13.169 -0.0234  0.1158 -0.5513
   80MOL0     C10706   2.446   5.558  13.271 -0.2104 -0.3501  0.0673
   80MOL0     C10707   2.384   5.438  13.343 -1.0125 -0.7404 -0.5171
   80MOL0     C10708   2.489   5.342  13.398 -0.3324  0.1237  0.2883
   80MOL0    Cl10709   2.586   5.438  13.511  0.0836  0.3567  0.0380
   80MOL0     C10710   2.881   5.679  12.627  0.0907 -0.1804  0.1204
   80MOL0     C10711   2.922   5.683  12.494  0.2980  0.1888 -0.4785
   80MOL0     O10712   2.757   5.465  12.223 -0.3824  0.0802  0.1130
   80MOL0     C10713   3.034   5.532  12.014 -0.2385  0.1848 -0.4119
   80MOL0     C10714   3.059   5.551  11.874  0.1096  0.4347 -1.0856
   80MOL0     N10715   2.694   5.705  11.050  0.3675 -0.3660  0.3217
   80MOL0     N10716   2.672   5.808  10.962 -0.3273 -0.4741 -0.5449
   80MOL0     C10717   2.195   6.637  10.365  0.5225 -0.2685 -0.6973
   80MOL0     C10718   2.105   6.707  10.281  0.1377 -0.4772  0.8147
   80MOL0     C10719   1.709   6.853  10.119  0.2165 -0.2194 -0.9414
   80MOL0     C10720   1.695   6.796   9.992 -0.0752 -1.4450 -0.1207
   80MOL0     C10721   1.584   6.841   9.910  0.6920 -0.3475 -0.0655
   80MOL0     C10722   1.487   6.939   9.953  0.1399  0.7666 -0.2715
   80MOL0     O10723   1.393   7.001   9.880  0.5592  0.0004 -0.2834
   80MOL0     C10724   1.350   6.954   9.752 -0.0285  0.4188  0.1838
   80MOL0     C10725   1.293   6.803   9.739 -0.5156  0.2507 -0.3873
   80MOL0     C10726   1.145   6.792   9.706 -0.1895  0.0478  0.0974
   80MOL0     C10727   1.085   6.669   9.785  0.5402  0.3243  0.8623
   80MOL0     C10728   1.083   6.686   9.931 -0.6127 -0.2725  0.0923
   80MOL0     C10729   1.064   6.701  10.048 -0.1043 -0.0173 -0.2073
   80MOL0     C10730   1.506   6.988  10.078  0.6540  0.3379 -0.6376
   80MOL0     C10731   1.615   6.961  10.158  0.1459  0.2030  1.0427
   80MOL0     C10732   1.623   7.040  10.290 -0.6294  0.5783 -0.6683
   80MOL0     H10733   1.855   6.480  10.289 -0.1524  0.5501 -0.9806
   80MOL0     H10734   2.007   6.360  10.434 -0.5989 -0.3852 -0.9296
   80MOL0     H10735   2.143   6.317  10.601 -0.1639  1.4473 -0.9795
   80MOL0     H10736   2.240   6.257  10.472 -0.6304 -0.8172  1.1201
   80MOL0     H10737   2.442   6.273  10.582 -1.4172 -2.5364 -1.8949
   80MOL0     H10738   2.321   6.205  10.695 -3.1303  1.4568  0.1161
   80MOL0     H10739   2.301   6.439  10.797  2.9283  3.5067  1.2492
   80MOL0     H10740   2.416   6.502  10.696 -2.7800  1.3167  0.4210
   80MOL0     H10741   2.501   6.449  10.929 -3.3490 -0.0040  0.5622
   80MOL0     H10742   2.436   6.284  10.925  1.2750 -1.4819  0.6109
   80MOL0     H10743   2.616   6.252  10.731  0.0160 -0.0382  0.4976
   80MOL0     H10744   2.654   6.420  10.764 -0.1344 -1.4781 -2.5133
   80MOL0     H10745   2.823   6.289  10.912  0.0347  0.8704  0.7638
   80MOL0     H10746   2.716   6.388  10.985 -0.5628  0.8690 -1.5920
   80MOL0     H10747   2.572   6.193  11.060  0.1571 -1.9333  4.1469
   80MOL0     H10748   2.735   6.174  11.104 -2.4629 -0.1682  2.6540
   80MOL0     H10749   2.616   6.043  10.870  0.4608 -0.7976  0.8096
   80MOL0     H10750   2.791   6.058  10.867 -1.7117 -1.6932 -1.4285
   80MOL0     H10751   2.832   5.977  11.195  1.0165 -1.0863 -0.1181
   80MOL0     H10752   2.947   5.736  11.234 -0.4666  2.0585  0.8910
   80MOL0     H10753   2.826   5.775  11.355  1.4172 -0.9216  1.3982
   80MOL0     H10754   2.728   5.552  11.339 -0.1924  1.9376 -0.2233
   80MOL0     H10755   2.840   5.518  11.201 -2.3375  0.3648 -0.1024
   80MOL0     H10756   3.030   5.574  11.378 -0.1775  0.9566 -1.3505
   80MOL0     H10757   2.945   5.419  11.385  3.1961  0.7005 -1.8292
   80MOL0     H10758   2.818   5.484  11.581  1.0059 -0.0600 -0.1077
   80MOL0     H10759   2.836   5.651  11.535 -0.7483 -0.2047 -0.6712
   80MOL0     H10760   2.748   5.620  11.762  1.0981  2.8497 -0.3508
   80MOL0     H10761   2.700   5.586  12.005 -0.1353 -0.7480 -0.7524
   80MOL0     H10762   2.868   5.347  12.422  2.9546 -1.4822  1.7121
   80MOL0     H10763   2.773   5.352  12.648 -1.6369  1.0571 -1.2334
   80MOL0     H10764   2.777   5.728  12.912 -0.3303 -0.0577  0.8976
   80MOL0     H10765   2.641   5.707  12.792 -0.0853 -0.9613 -0.2392
   80MOL0     H10766   2.583   5.521  12.963  2.8212 -0.6727 -1.5801
   80MOL0     H10767   2.681   5.621  13.077  1.9707  0.5063 -1.1593
   80MOL0     H10768   2.525   5.819  12.924  1.3436 -1.0102 -1.8736
   80MOL0     H10769   2.436   5.678  12.899  1.3000  1.9911 -1.9447
   80MOL0     H10770   2.355   5.834  13.092 -1.2200 -1.1324 -0.4621
   80MOL0     H10771   2.496   5.786  13.189  0.5294 -0.4720 -0.5163
   80MOL0     H10772   2.316   5.547  13.100 -2.5281 -0.6524  1.4919
   80MOL0     H10773   2.268   5.666  13.222  1.3375  4.3529 -1.4149
   80MOL0     H10774   2.523   5.521  13.203  0.5486 -2.9169  2.1828
   80MOL0     H10775   2.494   5.622  13.346  0.1193 -2.6480  1.9028
   80MOL0     H10776   2.319   5.390  13.270 -1.7064  1.1237 -1.1921
   80MOL0     H10777   2.321   5.471  13.427 -1.6436 -1.1166 -0.8371
   80MOL0     H10778   2.439   5.259  13.448 -1.8278  1.6453  1.4623
   80MOL0     H10779   2.546   5.301  13.315 -1.4835  0.5939 -0.7707
   80MOL0     H10780   2.870   5.772  12.681  0.4151 -0.1769  0.1815
   80MOL0     H10781   2.973   5.769  12.451  0.6709 -0.4547 -1.3449
   80MOL0     H10782   3.119   5.490  12.066  0.0830  0.0596 -1.0286
   80MOL0     H10783   3.162   5.537  11.844 -0.3915 -0.6685 -2.3548
   80MOL0     H10784   2.291   6.682  10.387  0.5077 -1.0134  1.0764
   80MOL0     H10785   2.128   6.805  10.239  0.9649 -1.1378 -0.3374
   80MOL0     H10786   1.751   6.715   9.946 -3.0132 -4.1301  0.7604
   80MOL0     H10787   1.575   6.798   9.810  1.2501 -0.6039 -0.0123
   80MOL0     H10788   1.448   6.953   9.703  1.6244 -1.8167  3.1743
   80MOL0     H10789   1.292   7.028   9.696  2.6804 -0.8959 -4.9972
   80MOL0     H10790   1.326   6.756   9.832 -2.0800  1.4617  0.8361
   80MOL0     H10791   1.345   6.762   9.652  1.4541 -0.1839  0.9339
   80MOL0     H10792   1.122   6.775   9.601 -0.8434  3.5871 -0.4797
   80MOL0     H10793   1.094   6.889   9.713 -0.6736  0.4135 -5.0565
   80MOL0     H10794   0.983   6.660   9.747  1.7771  1.1614 -3.1172
   80MOL0     H10795   1.145   6.583   9.754  1.4238  1.0106  0.5932
   80MOL0     H10796   1.056   6.723  10.153  2.2814 -1.8566  0.4485
   80MOL0     H10797   1.432   7.058  10.116 -1.3870 -1.9426 -0.1300
   80MOL0     H10798   1.705   7.113  10.291  1.5476 -1.6980  0.5569
   80MOL0     H10799   1.531   7.088  10.322 -2.2418 -2.4877 -0.2809
   80MOL0     H10800   1.638   6.975  10.377  2.9823  4.2768  1.8705
   81MOL0     O10801   9.438   0.420  10.236 -0.5471  0.0200  0.6132
   81MOL0     C10802   9.343   0.342  10.217 -0.3536 -0.7609 -0.0129
   81MOL0     O10803   9.345   0.229  10.143  0.2711 -0.2271 -0.1810
   81MOL0     C10804   9.449   0.201  10.069  0.6563 -0.1458  1.4503
   81MOL0     C10805   9.455   0.257   9.940 -0.3573  0.5304 -0.1207
   81MOL0     C10806   9.568   0.246   9.866 -0.1844 -0.0416  1.2783
   81MOL0     C10807   9.676   0.175   9.919  1.1451 -0.3321 -0.8339
   81MOL0     O10808   9.787   0.166   9.844  0.0686 -0.1228  0.0513
   81MOL0     C10809   9.923   0.157   9.898  0.8419  0.3690 -0.4159
   81MOL0     C10810   9.983   0.294   9.918  1.1829 -0.0735  0.9093
   81MOL0     C10811  10.127   0.282   9.972 -1.1919  0.0818  0.4532
   81MOL0     C10812  10.133   0.232  10.121  1.1042 -0.7505 -0.2815
   81MOL0     C10813  10.270   0.194  10.179 -0.5682  0.1657  0.1882
   81MOL0     C10814  10.360   0.310  10.196  0.1359 -0.7400 -0.2593
   81MOL0     C10815  10.513   0.277  10.216  0.0654 -0.3818 -0.7746
   81MOL0     C10816  10.547   0.167  10.307 -0.2823 -0.6233  0.1344
   81MOL0     N10817  10.664   0.197  10.393  0.8845 -0.4872 -0.3143
   81MOL0     C10818  10.794   0.201  10.352 -0.1672 -0.7080  0.2825
   81MOL0     C10819  10.864   0.226  10.461  0.0083 -0.4620  0.1630
   81MOL0     C10820  11.013   0.242  10.457 -0.1367  0.1307 -0.2210
   81MOL0     C10821  11.034   0.389  10.432  0.2302  0.7453 -0.2228
   81MOL0     C10822  11.185   0.428  10.444  0.8706  0.3691  0.5434
   81MOL0     C10823  11.280   0.350  10.350 -0.1028 -0.3452  0.8450
   81MOL0     O10824  11.418   0.389  10.382 -0.0520 -0.0349  0.1860
   81MOL0     C10825  11.518   0.298  10.343  0.2400 -1.6552 -0.3613
   81MOL0     C10826  11.514   0.224  10.233 -1.3407 -0.8805  0.0655
   81MOL0     C10827  11.619   0.144  10.191  0.2642  0.2102  0.9357
   81MOL0     C10828  11.732   0.135  10.266  0.4340  0.4103  0.2401
   81MOL0     C10829  11.860   0.079  10.206  0.0801  0.0121 -0.7277
   81MOL0     O10830  11.982   0.115  10.273 -0.5169 -0.0256 -0.1982
   81MOL0     C10831  12.100   0.048  10.260  0.7241 -0.0505  0.6823
   81MOL0     C10832  12.217   0.131  10.254  0.7316  0.5155  1.1915
   81MOL0     C10833  12.348   0.079  10.239  1.3618  0.3283 -1.0758
   81MOL0     C10834  12.362  -0.052  10.204 -0.2679 -0.2141 -0.7189
   81MOL0     O10835  12.491  -0.091  10.197  0.4451  0.6378 -0.0149
   81MOL0     C10836  12.526  -0.226  10.145  0.1563 -0.2611  0.8229
   81MOL0     C10837  12.680  -0.242  10.114 -0.8997 -0.9896  0.0465
   81MOL0     C10838  12.763  -0.284  10.236 -0.3451 -0.0400  0.1387
   81MOL0     C10839  12.903  -0.336  10.193  0.1463  0.7611 -0.1976
   81MOL0     C10840  13.003  -0.224  10.162 -0.0611 -0.5250 -1.0466
   81MOL0     C10841  13.153  -0.258  10.167  1.4109  0.8084  1.5362
   81MOL0     C10842  13.236  -0.123  10.171  0.0922 -0.2002 -0.8865
   81MOL0     C10843  13.382  -0.162  10.161 -0.1043  1.1996 -0.3401
   81MOL0    Cl10844  13.446  -0.243  10.304 -0.3332 -0.0415  0.0662
   81MOL0     C10845  12.247  -0.138  10.224 -0.1774 -0.7015  0.6556
   81MOL0     C10846  12.121  -0.083  10.248  0.3657 -0.1882  1.3017
   81MOL0     O10847  11.845  -0.012  10.124 -0.3623  0.5500  0.1477
   81MOL0     C10848  11.733   0.201  10.393 -0.3755  0.4151  0.3824
   81MOL0     C10849  11.628   0.290  10.435  0.5019  1.6533 -0.0471
   81MOL0     N10850  10.778   0.217  10.570  0.0117 -0.4664 -0.1323
   81MOL0     N10851  10.655   0.206  10.526 -0.3701 -0.2616  0.2973
   81MOL0     C10852   9.665   0.101  10.041 -0.7491  0.1371  1.0503
   81MOL0     C10853   9.550   0.124  10.111  0.2372 -0.0386  0.1159
   81MOL0     C10854   9.215   0.387  10.274  0.5977  0.0704 -0.5383
   81MOL0     C10855   9.188   0.526  10.280  0.7484 -0.0943 -0.8043
   81MOL0     C10856   9.079   0.572  10.339  0.7524  0.5115 -0.7944
   81MOL0     C10857   8.974   0.485  10.377 -0.6753  0.2474 -0.6629
   81MOL0     O10858   8.878   0.546  10.442 -0.0194 -0.0599 -0.1836
   81MOL0     C10859   8.782   0.465  10.520 -0.2487 -0.7496 -0.0707
   81MOL0     C10860   8.694   0.566  10.600  0.3854 -0.8848 -0.3713
   81MOL0     C10861   8.770   0.658  10.705 -0.6433 -0.2999 -0.5365
   81MOL0     C10862   8.665   0.752  10.773  0.3794  0.0312 -0.5382
   81MOL0     C10863   8.625   0.864  10.698  0.4648  0.4856  0.2206
   81MOL0     C10864   8.576   0.959  10.642 -0.4905 -0.4785 -0.6574
   81MOL0     C10865   8.987   0.346  10.357 -0.8407  0.4425  0.1776
   81MOL0     C10866   9.109   0.296  10.304  0.3879  0.3780 -0.1774
   81MOL0     C10867   9.107   0.151  10.278  0.0982  0.6161  0.9176
   81MOL0     H10868   9.379   0.322   9.897  0.1924  0.7979 -0.6939
   81MOL0     H10869   9.578   0.287   9.766 -1.0211 -5.3876 -1.4077
   81MOL0     H10870   9.921   0.101   9.992  1.6484  0.0338 -0.5967
   81MOL0     H10871   9.983   0.100   9.827  2.5007  0.5586  0.7862
   81MOL0     H10872   9.917   0.337   9.994 -0.9173 -2.9649  0.8878
   81MOL0     H10873   9.975   0.351   9.824  2.3806  0.4933  1.1279
   81MOL0     H10874  10.196   0.365   9.953 -1.6523  0.1206 -1.2354
   81MOL0     H10875  10.172   0.197   9.920  0.4529  1.4315 -0.4214
   81MOL0     H10876  10.072   0.298  10.183  0.7039 -1.9618  0.6473
   81MOL0     H10877  10.068   0.145  10.133  0.0195 -0.0922 -1.1932
   81MOL0     H10878  10.252   0.130  10.266 -0.2103 -0.4837 -0.2086
   81MOL0     H10879  10.322   0.123  10.114 -0.6059 -0.0164  0.3567
   81MOL0     H10880  10.355   0.377  10.109  1.8080  0.3359  0.4246
   81MOL0     H10881  10.336   0.372  10.283  1.5340 -3.1518  1.9821
   81MOL0     H10882  10.568   0.370  10.234  1.2258 -1.2139  0.0380
   81MOL0     H10883  10.552   0.247  10.119  0.1341 -1.8001 -0.3344
   81MOL0     H10884  10.461   0.132  10.364  0.7092 -0.9640  1.4638
   81MOL0     H10885  10.569   0.080  10.244  1.5825 -0.0497 -0.0742
   81MOL0     H10886  10.828   0.196  10.249 -0.3382 -2.0983  0.2760
   81MOL0     H10887  11.059   0.215  10.552 -2.0651 -0.6482  0.5300
   81MOL0     H10888  11.060   0.181  10.379 -1.6381  1.8053 -2.5806
   81MOL0     H10889  10.994   0.421  10.335 -0.5971  5.2953  1.3735
   81MOL0     H10890  10.994   0.460  10.504  0.6352 -0.3080  1.0844
   81MOL0     H10891  11.222   0.402  10.543  0.6082 -0.5485  0.4152
   81MOL0     H10892  11.197   0.536  10.432 -2.1121  0.9029  1.5598
   81MOL0     H10893  11.249   0.369  10.247 -2.6269 -1.6963  1.2774
   81MOL0     H10894  11.271   0.241  10.361 -1.9577 -0.8089 -3.1696
   81MOL0     H10895  11.431   0.223  10.163 -0.4494 -2.3095 -1.0390
   81MOL0     H10896  11.620   0.091  10.096 -1.9052 -3.3229  2.6610
   81MOL0     H10897  12.214   0.239  10.248  3.7937  0.6774  0.5978
   81MOL0     H10898  12.437   0.139  10.255  0.9661  0.4243  0.9608
   81MOL0     H10899  12.476  -0.303  10.204 -0.7273  1.1848  2.0409
   81MOL0     H10900  12.473  -0.232  10.050 -0.2568  1.7291  0.8773
   81MOL0     H10901  12.704  -0.328  10.051 -0.1151 -1.7985  1.3961
   81MOL0     H10902  12.726  -0.150  10.077 -0.4950 -0.7301  1.1614
   81MOL0     H10903  12.789  -0.201  10.302  0.6751  1.5344 -2.0838
   81MOL0     H10904  12.707  -0.354  10.298  0.8069 -1.2087 -0.1053
   81MOL0     H10905  12.886  -0.406  10.111  0.5330  2.9473 -2.2748
   81MOL0     H10906  12.942  -0.393  10.277 -1.2382 -1.4307 -0.9580
   81MOL0     H10907  12.984  -0.152  10.242 -0.2952 -1.3569 -0.3359
   81MOL0     H10908  12.978  -0.180  10.065  3.6848  0.1856 -1.8566
   81MOL0     H10909  13.157  -0.311  10.262 -3.5015 -3.1313 -0.0066
   81MOL0     H10910  13.183  -0.331  10.090 -0.9440  0.7827  0.5483
   81MOL0     H10911  13.221  -0.083  10.271 -0.3982 -3.9207  0.6764
   81MOL0     H10912  13.210  -0.050  10.093  2.0235  2.4333  0.7763
   81MOL0     H10913  13.383  -0.236  10.081  0.2447  1.0358 -0.1863
   81MOL0     H10914  13.445  -0.079  10.126 -0.0098  1.1258 -0.3434
   81MOL0     H10915  12.259  -0.245  10.216 -0.4383 -0.5937 -2.3597
   81MOL0     H10916  12.040  -0.151  10.270  1.1319 -1.2332  0.9832
   81MOL0     H10917  11.817   0.206  10.461 -1.1512  2.0018  1.2891
   81MOL0     H10918  11.633   0.341  10.531 -0.6794 -2.0285  2.1802
   81MOL0     H10919   9.741   0.041  10.089 -0.2712  0.2797  0.4896
   81MOL0     H10920   9.539   0.076  10.208  1.3100  1.5100  1.0610
   81MOL0     H10921   9.254   0.606  10.249 -1.0870  0.5650 -3.2856
   81MOL0     H10922   9.066   0.679  10.348  0.5322  0.3735  1.0021
   81MOL0     H10923   8.833   0.406  10.596 -0.2055  0.1496  0.6083
   81MOL0     H10924   8.712   0.416  10.451  1.1834 -1.0667 -1.3637
   81MOL0     H10925   8.633   0.506  10.669 -1.7792  1.8757  0.2833
   81MOL0     H10926   8.621   0.624  10.543 -0.6757 -1.5556  0.2687
   81MOL0     H10927   8.853   0.712  10.658  2.0945 -2.7839  1.0969
   81MOL0     H10928   8.810   0.594  10.783 -2.4495  0.7222  1.3306
   81MOL0     H10929   8.575   0.695  10.797 -0.0251 -0.7017 -3.3866
   81MOL0     H10930   8.726   0.783  10.859  1.1017 -2.1946 -0.1672
   81MOL0     H10931   8.528   1.040  10.591  1.4900  2.2625  1.4953
   81MOL0     H10932   8.896   0.289  10.370  0.3118 -2.2881 -2.5062
   81MOL0     H10933   9.074   0.135  10.174  2.9819  2.4702 -0.3911
   81MOL0     H10934   9.204   0.104  10.297  0.7727  2.4401  2.2138
   81MOL0     H10935   9.027   0.099  10.332 -0.8530  0.8301 -0.2196
   82MOL0     O10936  10.109  10.104   5.330  0.2986 -0.3008  0.3321
   82MOL0     C10937  10.122  10.228   5.323 -0.2981 -0.4697  0.2295
   82MOL0     O10938  10.220  10.298   5.371 -1.0245 -0.7167  0.2147
   82MOL0     C10939  10.349  10.246   5.405  0.3895 -0.3770  0.0297
   82MOL0     C10940  10.454  10.338   5.385  0.2030  0.1225 -0.6294
   82MOL0     C10941  10.578  10.313   5.425 -0.1556 -0.2862  0.0412
   82MOL0     C10942  10.611  10.180   5.465 -0.0382  0.2096 -0.7146
   82MOL0     O10943  10.743  10.147   5.483  0.1854  0.3447  0.3167
   82MOL0     C10944  10.779  10.087   5.608 -0.1895  1.8781 -0.1525
   82MOL0     C10945  10.928  10.065   5.599  0.8891  0.2015  0.0186
   82MOL0     C10946  11.000  10.094   5.737 -0.1428 -0.6883 -0.2108
   82MOL0     C10947  10.947   9.994   5.846 -0.4548 -0.7679 -0.3374
   82MOL0     C10948  11.062  10.005   5.949  0.6934  0.5812  0.1662
   82MOL0     C10949  11.049   9.889   6.050  0.0065 -0.0119 -0.2202
   82MOL0     C10950  10.933   9.890   6.152  0.3598 -0.4024  0.2575
   82MOL0     C10951  10.911   9.762   6.226 -0.1566  0.1251  0.0877
   82MOL0     N10952  10.791   9.767   6.311 -0.4385  1.4918 -0.1074
   82MOL0     C10953  10.768   9.851   6.401  0.6582 -0.9874 -0.1827
   82MOL0     C10954  10.651   9.804   6.460  0.2951 -0.1402  0.3595
   82MOL0     C10955  10.601   9.852   6.590 -0.2292 -1.6045 -0.3290
   82MOL0     C10956  10.706   9.890   6.691  0.5956 -0.5428  0.5496
   82MOL0     C10957  10.651   9.909   6.822 -1.1908  0.4211 -0.8948
   82MOL0     C10958  10.590  10.047   6.855  0.2822 -1.2646  0.5084
   82MOL0     O10959  10.687  10.143   6.901 -0.6132 -0.0403  0.1502
   82MOL0     C10960  10.634  10.272   6.924 -0.8332  0.7017 -0.2811
   82MOL0     C10961  10.704  10.350   7.013 -0.1400 -0.0122 -0.6444
   82MOL0     C10962  10.662  10.472   7.066 -0.6633  0.6964  0.4374
   82MOL0     C10963  10.525  10.512   7.035 -0.3827  0.5484 -1.1288
   82MOL0     C10964  10.465  10.625   7.114 -0.4376  0.2150  0.3128
   82MOL0     O10965  10.328  10.623   7.112  0.2011  0.3015 -0.2303
   82MOL0     C10966  10.266  10.686   7.220 -0.9276 -0.0003  0.7976
   82MOL0     C10967  10.225  10.610   7.333 -0.0072 -0.2065  0.6931
   82MOL0     C10968  10.169  10.682   7.441 -0.0246 -0.2590 -0.8502
   82MOL0     C10969  10.150  10.825   7.440 -0.0512  0.6189  0.0921
   82MOL0     O10970  10.109  10.902   7.536  0.4874 -0.9913  0.2208
   82MOL0     C10971  10.066  10.845   7.661  0.4527  0.0519 -1.1090
   82MOL0     C10972  10.023  10.971   7.739 -0.1452  0.7753 -0.8704
   82MOL0     C10973   9.984  10.940   7.884 -0.6619 -0.3141 -0.6961
   82MOL0     C10974   9.955  11.064   7.964  0.6648 -0.0503  0.0163
   82MOL0     C10975   9.947  11.027   8.106  0.8338 -0.3493  0.1909
   82MOL0     C10976   9.868  11.125   8.194 -0.7928  0.5351 -0.5194
   82MOL0     C10977   9.874  11.069   8.335  0.0142 -0.7759  0.0232
   82MOL0     C10978   9.784  11.153   8.437  0.5357  0.9533  0.4411
   82MOL0    Cl10979   9.627  11.191   8.359  0.4985 -0.4378 -0.1335
   82MOL0     C10980  10.191  10.885   7.321  0.6465 -1.8011 -0.2004
   82MOL0     C10981  10.245  10.821   7.215  0.6897 -0.5060 -0.2166
   82MOL0     O10982  10.542  10.696   7.177  0.1653  0.0718 -0.8349
   82MOL0     C10983  10.464  10.445   6.929 -0.5269  0.0357 -0.4497
   82MOL0     C10984  10.509  10.321   6.884  0.4891  0.6361  0.0876
   82MOL0     N10985  10.615   9.688   6.396  0.3004  0.7589  1.2803
   82MOL0     N10986  10.705   9.667   6.301  0.7402  0.2641  0.6594
   82MOL0     C10987  10.508  10.086   5.480  0.4695 -0.1698 -0.3607
   82MOL0     C10988  10.374  10.122   5.455  0.1748  1.4183 -0.1295
   82MOL0     C10989  10.015  10.308   5.259 -0.1019  1.0359  0.8258
   82MOL0     C10990   9.957  10.415   5.327  0.1265 -0.4710 -0.3768
   82MOL0     C10991   9.854  10.498   5.275 -0.5643 -0.3702  0.3346
   82MOL0     C10992   9.815  10.473   5.144  0.3983  0.7481  0.0030
   82MOL0     O10993   9.730  10.571   5.084 -0.4321  0.4603 -0.5824
   82MOL0     C10994   9.639  10.531   4.990  0.2784  0.5677 -0.2455
   82MOL0     C10995   9.654  10.630   4.872  0.0004 -0.3754 -0.9839
   82MOL0     C10996   9.566  10.576   4.759 -0.4047  0.3589  0.0998
   82MOL0     C10997   9.415  10.591   4.785 -0.6087 -0.5031 -0.4407
   82MOL0     C10998   9.366  10.710   4.856 -0.0575  0.2568 -0.3565
   82MOL0     C10999   9.338  10.802   4.928  0.5801 -0.6362  0.8589
   82MOL0     C11000   9.886  10.375   5.076  0.3970 -0.8700  0.2337
   82MOL0     C11001   9.983  10.298   5.128 -0.8375  0.5626 -0.1147
   82MOL0     C11002  10.075  10.219   5.043  0.3186 -0.7508 -0.5246
   82MOL0     H11003  10.427  10.435   5.346  0.8662 -0.0420 -1.5416
   82MOL0     H11004  10.655  10.388   5.417  1.5848 -1.8529  1.1006
   82MOL0     H11005  10.743  10.141   5.696 -2.1322 -3.0469  2.5040
   82MOL0     H11006  10.739   9.985   5.609  2.8683  0.4228 -3.3711
   82MOL0     H11007  10.967  10.140   5.529 -0.2010  0.2369 -0.5691
   82MOL0     H11008  10.941   9.962   5.566  0.1292  0.4019 -0.9474
   82MOL0     H11009  10.980  10.197   5.768  2.9567 -0.6699  2.2050
   82MOL0     H11010  11.107  10.086   5.714 -0.6128  0.5442 -3.3725
   82MOL0     H11011  10.851  10.027   5.887 -0.6976 -1.1322 -0.6108
   82MOL0     H11012  10.958   9.892   5.808 -0.3062 -1.2488  0.9504
   82MOL0     H11013  11.156   9.993   5.893 -1.5681  3.5831 -4.9573
   82MOL0     H11014  11.064  10.100   6.002 -2.0755  0.4078  0.6844
   82MOL0     H11015  11.048   9.795   5.994 -0.6623 -0.1529  0.0241
   82MOL0     H11016  11.136   9.900   6.116 -1.4837  3.8756  1.3960
   82MOL0     H11017  10.835   9.909   6.107  1.0721  1.5270 -0.5889
   82MOL0     H11018  10.948   9.975   6.219  2.9711  0.4974 -1.3249
   82MOL0     H11019  10.898   9.676   6.159  1.4646 -0.1367  0.0679
   82MOL0     H11020  11.001   9.726   6.277 -1.7050 -0.6328  2.4646
   82MOL0     H11021  10.821   9.942   6.426 -0.6142  0.6082 -2.7730
   82MOL0     H11022  10.524   9.929   6.575 -0.2476 -1.3570  0.9379
   82MOL0     H11023  10.560   9.765   6.642 -0.2182 -1.7843 -0.6172
   82MOL0     H11024  10.780   9.810   6.691 -1.2296 -2.4321 -2.3938
   82MOL0     H11025  10.749   9.986   6.662  1.1567  0.4699  4.2925
   82MOL0     H11026  10.736   9.893   6.891 -1.4562 -0.3502 -0.7356
   82MOL0     H11027  10.575   9.834   6.842  0.5343 -1.6041 -1.5453
   82MOL0     H11028  10.510  10.022   6.925 -1.8607  0.0237 -1.3219
   82MOL0     H11029  10.539  10.077   6.763  1.6345 -1.7637 -0.4406
   82MOL0     H11030  10.793  10.316   7.063 -0.5897  2.2130  1.8911
   82MOL0     H11031  10.721  10.518   7.144  0.4470 -1.2377  0.8136
   82MOL0     H11032  10.229  10.502   7.338  0.9740 -0.2448 -0.3048
   82MOL0     H11033  10.141  10.629   7.531  1.9029 -0.8239 -0.5502
   82MOL0     H11034   9.992  10.767   7.642  1.5942 -1.3968  0.0982
   82MOL0     H11035  10.142  10.788   7.717 -4.1938 -5.1746  0.7676
   82MOL0     H11036  10.106  11.041   7.745  2.0788 -1.6810 -1.4236
   82MOL0     H11037   9.945  11.021   7.681  1.3827  3.0484 -1.0946
   82MOL0     H11038   9.907  10.863   7.894 -1.5450  0.6182 -0.0465
   82MOL0     H11039  10.074  10.898   7.929 -3.0053 -3.5589  1.4348
   82MOL0     H11040   9.860  11.098   7.922  0.5397 -0.6706 -0.2145
   82MOL0     H11041  10.031  11.141   7.947 -0.3007  1.0129  0.3986
   82MOL0     H11042  10.042  10.998   8.152 -0.3853 -4.0293  0.7690
   82MOL0     H11043   9.879  10.941   8.109 -0.5270  0.5943 -1.5791
   82MOL0     H11044   9.913  11.225   8.189 -1.3421  0.9712  1.8566
   82MOL0     H11045   9.763  11.126   8.165 -1.4475 -0.1199  1.5935
   82MOL0     H11046   9.981  11.078   8.356 -0.1972  0.5053  0.6807
   82MOL0     H11047   9.846  10.963   8.344 -2.6363 -0.1203  0.1709
   82MOL0     H11048   9.771  11.102   8.533  3.3279  1.4924  1.1938
   82MOL0     H11049   9.855  11.233   8.461  1.6586 -1.0031  4.3955
   82MOL0     H11050  10.162  10.989   7.310 -1.4928 -2.1848  1.0587
   82MOL0     H11051  10.280  10.881   7.132 -1.9796 -0.4322 -1.3953
   82MOL0     H11052  10.364  10.474   6.896 -0.3886  0.0294 -0.8832
   82MOL0     H11053  10.446  10.273   6.810  1.1473  2.2843 -1.6186
   82MOL0     H11054  10.529   9.988   5.522  0.2681 -0.1971 -0.3221
   82MOL0     H11055  10.290  10.053   5.452  0.9174  0.4813  0.2406
   82MOL0     H11056   9.980  10.417   5.433  1.0038 -3.0057 -0.4550
   82MOL0     H11057   9.807  10.579   5.329  2.7972 -0.0277  3.1200
   82MOL0     H11058   9.542  10.536   5.040  0.5284 -5.8685  1.7063
   82MOL0     H11059   9.648  10.426   4.962  0.0535 -0.0501  1.8586
   82MOL0     H11060   9.760  10.631   4.845 -0.4491 -1.6025 -3.0312
   82MOL0     H11061   9.627  10.731   4.904 -1.4691 -0.8637 -0.5923
   82MOL0     H11062   9.597  10.475   4.730 -2.2167  0.8767 -4.4789
   82MOL0     H11063   9.587  10.635   4.670  2.0839  0.3626  0.6023
   82MOL0     H11064   9.364  10.594   4.688 -0.5268 -5.2701 -0.8765
   82MOL0     H11065   9.376  10.504   4.839  0.8530 -1.7438 -1.3197
   82MOL0     H11066   9.319  10.881   4.998 -0.3071  2.4418 -2.5583
   82MOL0     H11067   9.866  10.370   4.970 -0.3309  1.2427  0.2116
   82MOL0     H11068  10.104  10.284   4.960  1.6615 -1.0637 -0.3244
   82MOL0     H11069  10.169  10.182   5.087  2.4753  5.0161  0.6828
   82MOL0     H11070  10.022  10.132   5.005 -1.0370  0.0069 -0.4441
   83MOL0     O11071  10.718   7.837   2.791 -0.5654 -0.1146  0.3162
   83MOL0     C11072  10.757   7.738   2.722  0.6053  0.7065 -0.4170
   83MOL0     O11073  10.744   7.602   2.756 -0.6649  0.1649 -0.0296
   83MOL0     C11074  10.693   7.574   2.879 -0.1431 -0.4864 -0.5582
   83MOL0     C11075  10.624   7.455   2.897  0.0342 -0.2950 -0.4590
   83MOL0     C11076  10.567   7.409   3.014 -1.4680 -0.1233  1.3215
   83MOL0     C11077  10.566   7.496   3.121  0.0624 -0.1567 -0.2491
   83MOL0     O11078  10.510   7.440   3.239 -0.4808 -0.1592  0.1497
   83MOL0     C11079  10.525   7.496   3.371  0.4792 -0.5992  0.1927
   83MOL0     C11080  10.423   7.422   3.456  0.0495  0.1120  0.1645
   83MOL0     C11081  10.456   7.277   3.490  0.6148 -0.5364 -0.0844
   83MOL0     C11082  10.572   7.276   3.588 -0.2464  1.4891  0.1501
   83MOL0     C11083  10.535   7.298   3.732 -0.3143 -0.5409 -0.4794
   83MOL0     C11084  10.645   7.247   3.837  0.0925  0.7048  0.2505
   83MOL0     C11085  10.624   7.331   3.959  0.5228  0.2535  0.3781
   83MOL0     C11086  10.489   7.292   4.011  0.5355 -0.4552 -0.7961
   83MOL0     N11087  10.484   7.336   4.154  0.6937 -0.7800  0.1081
   83MOL0     C11088  10.555   7.291   4.258  0.7674 -0.1148  0.3891
   83MOL0     C11089  10.515   7.359   4.368  0.2820  0.2373  0.9410
   83MOL0     C11090  10.565   7.352   4.508 -0.9719  0.3817  0.2724
   83MOL0     C11091  10.531   7.209   4.561  0.4517  0.4866 -0.5349
   83MOL0     C11092  10.576   7.197   4.704  0.0845  1.2002 -0.9528
   83MOL0     C11093  10.717   7.158   4.719 -0.1389  0.6642  0.0529
   83MOL0     O11094  10.735   7.020   4.707 -1.2269  0.6605 -0.4854
   83MOL0     C11095  10.863   6.969   4.727 -0.4587  0.2988 -0.0974
   83MOL0     C11096  10.979   7.047   4.748  0.5239  0.2487  0.5573
   83MOL0     C11097  11.111   6.989   4.756  0.0131  0.5464 -0.8432
   83MOL0     C11098  11.119   6.845   4.734  0.1573 -0.9796 -0.5041
   83MOL0     C11099  11.251   6.779   4.725  0.4184  0.3771  0.5024
   83MOL0     O11100  11.255   6.641   4.708  1.5573 -0.3098  0.5402
   83MOL0     C11101  11.367   6.573   4.707  0.5380  0.0509 -0.1168
   83MOL0     C11102  11.478   6.609   4.631 -0.7753  0.3471  0.6990
   83MOL0     C11103  11.591   6.530   4.627  0.8503 -0.6666 -0.1580
   83MOL0     C11104  11.593   6.413   4.693 -1.0092  0.2524  1.0047
   83MOL0     O11105  11.702   6.316   4.676  0.7276 -0.3979  0.1469
   83MOL0     C11106  11.823   6.356   4.602  0.8363 -0.2487  0.2654
   83MOL0     C11107  11.921   6.246   4.638  0.6234 -0.3322  0.5077
   83MOL0     C11108  11.983   6.261   4.785 -0.1047  0.9045  0.2649
   83MOL0     C11109  12.037   6.132   4.841 -0.3052  0.1074 -0.1078
   83MOL0     C11110  11.916   6.046   4.903  0.1197 -0.3910  0.3450
   83MOL0     C11111  11.962   5.913   4.957 -0.5709 -0.7831  0.3417
   83MOL0     C11112  11.854   5.825   5.024  0.2589 -0.4258  0.2888
   83MOL0     C11113  11.830   5.871   5.168 -0.5308 -0.5111  0.2376
   83MOL0    Cl11114  11.776   5.724   5.266 -0.1596 -0.2430 -0.3348
   83MOL0     C11115  11.482   6.373   4.769  0.2025  0.6104  0.2988
   83MOL0     C11116  11.375   6.461   4.786  0.0961  0.7306  0.6130
   83MOL0     O11117  11.349   6.855   4.713  0.2445 -0.2642  0.4276
   83MOL0     C11118  11.002   6.771   4.723  0.2127  0.1714 -0.6932
   83MOL0     C11119  10.876   6.832   4.719 -0.4831  0.3707  0.5484
   83MOL0     N11120  10.417   7.454   4.326  0.3866 -0.9319  0.2494
   83MOL0     N11121  10.401   7.436   4.202 -0.0166  0.3067  0.5199
   83MOL0     C11122  10.635   7.618   3.112 -0.6470 -1.0882  0.2150
   83MOL0     C11123  10.708   7.653   2.994 -1.7479 -0.6239  0.5698
   83MOL0     C11124  10.800   7.767   2.582 -0.1494  0.1329 -0.5060
   83MOL0     C11125  10.744   7.691   2.475 -0.8113  0.3033 -0.1712
   83MOL0     C11126  10.786   7.713   2.347 -0.2007 -0.4467  0.3250
   83MOL0     C11127  10.891   7.802   2.322 -0.3667 -0.8244  0.1455
   83MOL0     O11128  10.941   7.832   2.189  0.0588  0.5740  0.2331
   83MOL0     C11129  10.899   7.759   2.073 -0.1902  0.2402  0.5572
   83MOL0     C11130  10.766   7.811   2.026  0.1717  0.3842  0.3775
   83MOL0     C11131  10.729   7.752   1.888 -0.0287 -0.4837  0.3143
   83MOL0     C11132  10.636   7.630   1.908 -0.5285  0.3677 -0.0461
   83MOL0     C11133  10.710   7.501   1.900 -1.0243  0.5167  0.1291
   83MOL0     C11134  10.741   7.382   1.907  0.2955  0.7152 -1.3318
   83MOL0     C11135  10.935   7.887   2.421  0.0682 -0.6681  0.0367
   83MOL0     C11136  10.887   7.867   2.556 -0.8627 -0.2578  0.7251
   83MOL0     C11137  10.932   7.969   2.653 -0.3321  0.3125  0.0802
   83MOL0     H11138  10.611   7.392   2.809 -2.3954 -0.2257 -0.2116
   83MOL0     H11139  10.517   7.315   3.032 -4.8312  1.2944  0.1479
   83MOL0     H11140  10.625   7.482   3.413  0.5145 -2.6884 -0.4430
   83MOL0     H11141  10.486   7.597   3.387 -0.9923 -1.1351  0.1991
   83MOL0     H11142  10.319   7.432   3.424 -0.6612 -2.2308  1.5250
   83MOL0     H11143  10.428   7.468   3.555 -2.1578  1.1149 -0.1317
   83MOL0     H11144  10.473   7.231   3.392 -3.3783  0.3268 -1.3886
   83MOL0     H11145  10.374   7.223   3.536  1.0504 -0.6931  0.5184
   83MOL0     H11146  10.613   7.175   3.580 -0.5841  1.3968 -0.5111
   83MOL0     H11147  10.648   7.353   3.574 -0.6779  2.5973  3.1263
   83MOL0     H11148  10.525   7.405   3.748  2.9095  0.0338 -1.5733
   83MOL0     H11149  10.439   7.248   3.749 -0.2231 -1.8259 -3.2171
   83MOL0     H11150  10.619   7.143   3.860  0.7634  1.0027  2.7347
   83MOL0     H11151  10.746   7.262   3.797 -0.2085  0.6028 -0.5518
   83MOL0     H11152  10.622   7.437   3.935 -1.6631 -0.2145 -1.8377
   83MOL0     H11153  10.711   7.312   4.023  1.2760  0.0822 -0.6778
   83MOL0     H11154  10.413   7.344   3.951 -0.8655 -1.6028 -0.0993
   83MOL0     H11155  10.475   7.183   4.010  2.2598 -0.8388  2.6509
   83MOL0     H11156  10.630   7.213   4.255  0.2737 -0.5835 -0.0473
   83MOL0     H11157  10.671   7.374   4.492 -1.8230  3.9369 -1.6969
   83MOL0     H11158  10.517   7.433   4.563 -0.9066  2.2948 -2.2727
   83MOL0     H11159  10.425   7.190   4.544  0.6028  0.8513 -2.0404
   83MOL0     H11160  10.586   7.131   4.508 -1.4127 -1.1930 -0.0721
   83MOL0     H11161  10.518   7.116   4.749 -0.7953  1.8286 -0.9393
   83MOL0     H11162  10.556   7.293   4.751 -2.1192  0.4876 -0.3014
   83MOL0     H11163  10.730   7.194   4.821  2.0519 -0.6496  0.3032
   83MOL0     H11164  10.784   7.210   4.650  0.2502  0.7246  0.4713
   83MOL0     H11165  10.977   7.156   4.748 -3.3629  0.3227 -0.3845
   83MOL0     H11166  11.196   7.054   4.776 -0.2601  0.4998  0.5631
   83MOL0     H11167  11.475   6.703   4.576 -0.7605  1.1605  2.0349
   83MOL0     H11168  11.670   6.554   4.557  0.5275  0.7139 -0.0754
   83MOL0     H11169  11.808   6.360   4.493 -0.5994  2.0432  0.4785
   83MOL0     H11170  11.861   6.455   4.625  2.6086  0.3800 -4.2224
   83MOL0     H11171  11.875   6.148   4.622 -0.4148 -0.2664  2.7192
   83MOL0     H11172  12.009   6.255   4.574  1.2291  1.0909  1.4860
   83MOL0     H11173  12.065   6.333   4.776  1.9783 -1.3384  0.4116
   83MOL0     H11174  11.903   6.291   4.854  0.9394 -0.1777  2.0324
   83MOL0     H11175  12.108   6.144   4.924 -0.5235 -0.7503  0.2178
   83MOL0     H11176  12.093   6.079   4.764  0.4295  3.0797 -1.7751
   83MOL0     H11177  11.833   6.033   4.834 -1.6594  1.6087  1.9743
   83MOL0     H11178  11.875   6.110   4.982 -1.2613  1.9485 -2.1205
   83MOL0     H11179  12.010   5.859   4.875 -0.0474  2.1168 -1.3585
   83MOL0     H11180  12.046   5.935   5.024  0.4133  0.3983 -1.2183
   83MOL0     H11181  11.897   5.725   5.029  3.2776  0.2291 -5.1666
   83MOL0     H11182  11.759   5.823   4.969  1.0521 -1.1453 -1.1060
   83MOL0     H11183  11.924   5.914   5.204  2.4381 -2.7104 -4.0440
   83MOL0     H11184  11.752   5.948   5.161  2.0425  2.1695 -0.9187
   83MOL0     H11185  11.483   6.280   4.824  2.2641  0.5124  0.1488
   83MOL0     H11186  11.297   6.422   4.851  1.3687 -0.8160  1.2870
   83MOL0     H11187  10.994   6.664   4.714 -0.3761  0.1648 -0.1618
   83MOL0     H11188  10.784   6.791   4.678 -0.7172  1.6665 -0.2787
   83MOL0     H11189  10.637   7.692   3.191 -0.2776  2.4046 -2.7987
   83MOL0     H11190  10.767   7.744   2.996  0.0408 -1.6902 -0.5960
   83MOL0     H11191  10.682   7.606   2.502  0.5095 -0.0255  2.0176
   83MOL0     H11192  10.753   7.650   2.265  0.7234  0.2461 -0.5962
   83MOL0     H11193  10.904   7.651   2.092  2.3868  0.6204  2.5803
   83MOL0     H11194  10.982   7.766   2.001  0.5813  1.5087  1.5431
   83MOL0     H11195  10.797   7.914   2.005  0.7509 -0.3313 -2.7147
   83MOL0     H11196  10.683   7.810   2.098 -1.3461  0.3913 -1.2945
   83MOL0     H11197  10.826   7.732   1.842  0.0006  0.0298  0.1483
   83MOL0     H11198  10.671   7.812   1.818 -0.8490 -2.1972 -0.5317
   83MOL0     H11199  10.601   7.645   2.011 -2.9527 -1.7215 -0.4721
   83MOL0     H11200  10.548   7.631   1.844  0.0787 -1.8239 -0.9996
   83MOL0     H11201  10.758   7.277   1.918 -0.2693  0.5889 -1.6286
   83MOL0     H11202  11.019   7.954   2.407 -0.1861  0.1178  1.9886
   83MOL0     H11203  11.007   8.033   2.605 -2.6484 -0.0642 -4.5794
   83MOL0     H11204  10.839   8.023   2.673 -0.8133 -1.0651  1.9329
   83MOL0     H11205  10.959   7.918   2.747 -1.1454 -1.2263 -0.4884
   84MOL0     O11206   1.086   1.011   3.773  0.4899  0.4188 -0.6951
   84MOL0     C11207   1.101   1.084   3.870 -0.9832  0.5720  0.1173
   84MOL0     O11208   1.054   1.050   3.997  0.4143 -0.4521  0.2409
   84MOL0     C11209   0.991   0.935   4.019  0.2019  0.0770 -0.4929
   84MOL0     C11210   1.062   0.806   4.031  0.5706  0.4079 -0.4611
   84MOL0     C11211   1.002   0.701   4.100 -0.2288  0.2557  0.4858
   84MOL0     C11212   0.872   0.716   4.154  0.5253  0.0295 -1.0410
   84MOL0     O11213   0.815   0.620   4.233 -0.0486 -0.7981 -0.8960
   84MOL0     C11214   0.888   0.539   4.322  0.2189 -0.7064  1.0273
   84MOL0     C11215   0.795   0.451   4.397 -0.3567 -0.5751  0.7199
   84MOL0     C11216   0.714   0.532   4.495  0.5224  0.3065  0.3385
   84MOL0     C11217   0.638   0.442   4.600 -0.2473 -0.8722 -0.2835
   84MOL0     C11218   0.563   0.535   4.691  0.1971  0.0731  0.6766
   84MOL0     C11219   0.476   0.466   4.791 -0.0204 -0.0789  0.0974
   84MOL0     C11220   0.566   0.383   4.888 -0.4325 -0.2108  0.9260
   84MOL0     C11221   0.492   0.367   5.022 -0.2384 -0.6851  0.8542
   84MOL0     N11222   0.493   0.493   5.093  0.7860  0.1055 -0.0934
   84MOL0     C11223   0.382   0.584   5.100  0.1779 -0.7513  0.7231
   84MOL0     C11224   0.423   0.666   5.201 -0.5892 -0.6311 -0.1107
   84MOL0     C11225   0.323   0.761   5.258 -0.2027  0.4641  0.7452
   84MOL0     C11226   0.315   0.724   5.400  0.7537  0.2460 -0.1816
   84MOL0     C11227   0.234   0.838   5.470 -0.3959  0.2510 -0.7003
   84MOL0     C11228   0.207   0.813   5.625 -0.3444 -0.1956 -0.0502
   84MOL0     O11229   0.281   0.902   5.708  0.3125 -0.2818 -0.1322
   84MOL0     C11230   0.292   0.871   5.839  0.8655  0.2073 -0.5373
   84MOL0     C11231   0.411   0.832   5.893  0.1641  0.5663 -0.4293
   84MOL0     C11232   0.420   0.771   6.009 -0.3587 -0.0997 -0.0214
   84MOL0     C11233   0.305   0.749   6.086  0.6135 -0.0608 -0.4697
   84MOL0     C11234   0.319   0.688   6.223 -0.0995  0.2279 -0.1638
   84MOL0     O11235   0.216   0.643   6.298  0.1783  0.4291  0.0131
   84MOL0     C11236   0.238   0.597   6.428 -0.0815  0.2163  1.2469
   84MOL0     C11237   0.187   0.661   6.540  0.4587 -0.1399  0.6301
   84MOL0     C11238   0.207   0.618   6.667  0.4193 -0.9767 -0.0014
   84MOL0     C11239   0.277   0.502   6.693 -0.2206 -0.5240  0.0696
   84MOL0     O11240   0.298   0.467   6.822  0.0891 -0.3550 -0.7198
   84MOL0     C11241   0.417   0.395   6.851 -0.2983 -0.0932 -0.2264
   84MOL0     C11242   0.422   0.378   7.012 -0.7399 -0.0645 -1.9463
   84MOL0     C11243   0.450   0.509   7.090  0.8710 -0.5571 -0.4921
   84MOL0     C11244   0.549   0.610   7.015  0.5033  0.5064 -0.0161
   84MOL0     C11245   0.624   0.710   7.114  0.2447  0.2279  0.5277
   84MOL0     C11246   0.519   0.798   7.187 -0.1044  0.7817 -0.0963
   84MOL0     C11247   0.603   0.884   7.284  0.0444  0.6551 -0.5949
   84MOL0     C11248   0.746   0.940   7.236 -0.0052  0.3605 -0.2213
   84MOL0    Cl11249   0.729   1.047   7.085 -0.3008  1.0627 -0.5562
   84MOL0     C11250   0.320   0.420   6.586 -0.1015  1.1612  0.2098
   84MOL0     C11251   0.304   0.468   6.452 -0.9172 -0.4051  0.4482
   84MOL0     O11252   0.436   0.689   6.256  0.1998  0.9546 -0.0544
   84MOL0     C11253   0.179   0.789   6.041 -0.2973 -0.3975  0.9162
   84MOL0     C11254   0.177   0.865   5.918  0.4051  0.8619  0.9507
   84MOL0     N11255   0.550   0.629   5.242 -1.3402 -0.0602  0.4469
   84MOL0     N11256   0.590   0.523   5.172 -0.3958 -0.3300 -0.3295
   84MOL0     C11257   0.808   0.841   4.150  0.3529  0.1142  0.8138
   84MOL0     C11258   0.867   0.951   4.086 -0.6558  0.0431 -0.4866
   84MOL0     C11259   1.203   1.199   3.854  1.0465 -1.3189 -1.1214
   84MOL0     C11260   1.226   1.287   3.964 -0.6850 -0.1681  0.2836
   84MOL0     C11261   1.299   1.402   3.957 -0.4075  0.2405  0.2161
   84MOL0     C11262   1.361   1.435   3.839 -0.1256 -0.6193 -1.1667
   84MOL0     O11263   1.442   1.548   3.846  0.0275 -0.0626 -0.3748
   84MOL0     C11264   1.492   1.605   3.724  0.1991  0.3440 -0.0805
   84MOL0     C11265   1.527   1.748   3.734  0.7614 -0.1947  0.0280
   84MOL0     C11266   1.581   1.829   3.616  0.0007 -0.1857  0.0317
   84MOL0     C11267   1.726   1.787   3.587  0.2749  0.1145  0.1056
   84MOL0     C11268   1.771   1.864   3.469  0.2525 -0.4526 -0.3347
   84MOL0     C11269   1.801   1.933   3.373 -0.3000  0.4090 -0.0524
   84MOL0     C11270   1.344   1.347   3.732  0.1053  0.5907  0.9025
   84MOL0     C11271   1.279   1.229   3.736 -0.3576  0.3286 -0.1876
   84MOL0     C11272   1.274   1.137   3.623 -0.1633  0.1008 -0.4233
   84MOL0     H11273   1.166   0.792   4.004  0.8019 -2.6453  1.4941
   84MOL0     H11274   1.034   0.598   4.110 -1.8203 -0.4843 -1.5851
   84MOL0     H11275   0.954   0.476   4.261 -0.1429  0.7886 -1.0008
   84MOL0     H11276   0.963   0.594   4.379  0.6460  1.8973 -1.7941
   84MOL0     H11277   0.851   0.365   4.434  2.3714 -0.9482 -3.6009
   84MOL0     H11278   0.727   0.403   4.325 -0.3502  0.8353 -0.2824
   84MOL0     H11279   0.649   0.608   4.451 -1.0959 -0.8985  0.5124
   84MOL0     H11280   0.776   0.600   4.554  1.0329 -1.5227  2.0226
   84MOL0     H11281   0.561   0.385   4.548 -0.6351 -0.7917  0.1945
   84MOL0     H11282   0.703   0.370   4.651 -1.4170  0.5443  3.5463
   84MOL0     H11283   0.624   0.614   4.735  0.3333 -0.5592  1.6437
   84MOL0     H11284   0.490   0.581   4.624  0.2318 -2.3819 -1.2277
   84MOL0     H11285   0.424   0.543   4.849  3.6103  4.1323 -1.6179
   84MOL0     H11286   0.410   0.402   4.732  2.2913 -0.5970 -2.1094
   84MOL0     H11287   0.666   0.427   4.898 -0.0354 -0.4753 -1.3834
   84MOL0     H11288   0.579   0.291   4.831  3.0564  0.8389 -0.2158
   84MOL0     H11289   0.391   0.338   4.994  0.2260  0.3424 -2.2443
   84MOL0     H11290   0.533   0.283   5.079  0.9810 -0.2620  0.6227
   84MOL0     H11291   0.289   0.585   5.044  0.2320 -2.6156  0.5225
   84MOL0     H11292   0.370   0.860   5.251  1.8713 -0.3992  1.7133
   84MOL0     H11293   0.222   0.764   5.214 -1.9686 -2.2787  4.1571
   84MOL0     H11294   0.265   0.629   5.418  3.7670 -0.6526  5.7705
   84MOL0     H11295   0.407   0.698   5.452 -1.8528 -5.4379  2.5064
   84MOL0     H11296   0.134   0.849   5.428 -0.2311 -3.5453 -2.5340
   84MOL0     H11297   0.286   0.933   5.460 -0.6725  0.3786 -0.9298
   84MOL0     H11298   0.223   0.706   5.645  0.1089 -0.3468 -1.1338
   84MOL0     H11299   0.102   0.840   5.634 -0.3670 -0.1726 -0.3799
   84MOL0     H11300   0.492   0.839   5.822 -0.6755  1.2920 -1.3388
   84MOL0     H11301   0.520   0.746   6.044  0.0284  1.8399  0.3763
   84MOL0     H11302   0.142   0.760   6.540  0.9001  0.0864 -0.6557
   84MOL0     H11303   0.167   0.667   6.755 -2.4925 -3.0565 -0.0006
   84MOL0     H11304   0.409   0.294   6.809  1.6442 -0.5464  0.3609
   84MOL0     H11305   0.511   0.436   6.812 -1.1203  0.1936 -1.9918
   84MOL0     H11306   0.326   0.338   7.046 -0.6324  1.3962  0.3134
   84MOL0     H11307   0.512   0.320   7.033 -1.2987 -1.1865 -2.5577
   84MOL0     H11308   0.354   0.562   7.099  0.9507 -0.6558  1.3922
   84MOL0     H11309   0.490   0.492   7.191  3.2883  1.1941 -1.0606
   84MOL0     H11310   0.502   0.655   6.927 -0.6905 -2.5581 -1.0854
   84MOL0     H11311   0.629   0.553   6.967 -0.3884 -1.0378  0.2579
   84MOL0     H11312   0.673   0.772   7.038 -0.8048 -1.4710 -1.6356
   84MOL0     H11313   0.695   0.659   7.179  2.1501 -2.4943 -3.2967
   84MOL0     H11314   0.466   0.845   7.103  1.0500 -0.9259 -1.8679
   84MOL0     H11315   0.445   0.737   7.240  2.7846 -4.0093 -1.0995
   84MOL0     H11316   0.611   0.828   7.378  0.8575 -3.2336 -2.7657
   84MOL0     H11317   0.540   0.973   7.295  0.5287  0.8940  0.3267
   84MOL0     H11318   0.795   0.999   7.313 -3.5404 -0.3691  2.8953
   84MOL0     H11319   0.816   0.860   7.212  1.0140  0.9872  0.6160
   84MOL0     H11320   0.376   0.328   6.603  0.4816  1.3796 -0.4640
   84MOL0     H11321   0.346   0.404   6.374 -0.7073  0.5055 -0.2096
   84MOL0     H11322   0.093   0.760   6.101  0.4069  1.5588  3.0119
   84MOL0     H11323   0.075   0.896   5.902 -0.0059 -1.8015 -3.3602
   84MOL0     H11324   0.710   0.863   4.190 -0.9326 -1.7796 -1.0478
   84MOL0     H11325   0.809   1.043   4.084 -1.2868 -0.3068  0.6631
   84MOL0     H11326   1.182   1.244   4.053  2.5412 -2.8022  0.8242
   84MOL0     H11327   1.327   1.457   4.046  2.8427 -0.2266 -0.3871
   84MOL0     H11328   1.425   1.586   3.640  1.9908  1.3095 -1.7896
   84MOL0     H11329   1.588   1.553   3.716 -0.1538 -0.3122 -0.1579
   84MOL0     H11330   1.572   1.781   3.828  1.5660  0.2878 -0.5131
   84MOL0     H11331   1.423   1.783   3.735 -0.1252 -2.1765 -4.1452
   84MOL0     H11332   1.583   1.932   3.654  1.3499 -0.1889  0.0008
   84MOL0     H11333   1.518   1.834   3.527 -0.5617  3.2738  0.4689
   84MOL0     H11334   1.802   1.809   3.662  2.2429 -0.8523 -1.5182
   84MOL0     H11335   1.734   1.684   3.550  3.0435  0.1877  0.2866
   84MOL0     H11336   1.826   2.005   3.298  2.0385  0.2017  0.4428
   84MOL0     H11337   1.395   1.368   3.639 -0.7570  5.0664  1.2020
   84MOL0     H11338   1.301   1.035   3.652 -2.3565 -0.6896 -0.9640
   84MOL0     H11339   1.181   1.130   3.566 -1.1394  2.2268  0.7894
   84MOL0     H11340   1.354   1.173   3.558  2.6626  0.2688  2.8609
   85MOL0     O11341   7.364   1.604   8.499 -0.3830  0.6842  0.5138
   85MOL0     C11342   7.386   1.586   8.617 -0.5580 -0.2658 -0.4233
   85MOL0     O11343   7.454   1.476   8.664  0.4044 -0.1531 -0.3624
   85MOL0     C11344   7.478   1.360   8.596 -1.3855  0.8208  0.4396
   85MOL0     C11345   7.419   1.319   8.480  0.1432  0.0614  0.1139
   85MOL0     C11346   7.447   1.192   8.414  0.0728  0.0401  0.8653
   85MOL0     C11347   7.533   1.098   8.481  0.3503 -1.4725 -0.0802
   85MOL0     O11348   7.561   0.968   8.434  0.1575 -0.3353  0.1386
   85MOL0     C11349   7.621   0.970   8.305  0.3200 -0.6515  0.0692
   85MOL0     C11350   7.620   0.815   8.265  0.5550  0.1138 -1.0697
   85MOL0     C11351   7.718   0.747   8.378  0.2208 -0.0282 -0.2450
   85MOL0     C11352   7.788   0.623   8.333  0.4644  0.7715 -0.4376
   85MOL0     C11353   7.883   0.582   8.429  0.0695  0.1648  0.5012
   85MOL0     C11354   7.929   0.432   8.415 -0.7142 -0.1538  0.3992
   85MOL0     C11355   7.990   0.405   8.274 -1.2562 -0.7561  0.4345
   85MOL0     C11356   8.010   0.252   8.247 -0.3111  0.1335 -0.8043
   85MOL0     N11357   8.074   0.180   8.358  0.4435 -0.6325 -0.4339
   85MOL0     C11358   8.206   0.193   8.388  0.1516 -0.1998 -0.6029
   85MOL0     C11359   8.222   0.132   8.514 -0.4968 -0.5891 -0.5461
   85MOL0     C11360   8.349   0.102   8.576 -0.0788 -0.7963 -0.3588
   85MOL0     C11361   8.349   0.142   8.719  0.0786 -0.4767 -0.6838
   85MOL0     C11362   8.295   0.287   8.751  0.2875 -0.6415 -0.1973
   85MOL0     C11363   8.375   0.406   8.689  0.2678 -0.2397 -1.2266
   85MOL0     O11364   8.283   0.516   8.694  0.0556 -0.3232  0.0078
   85MOL0     C11365   8.297   0.617   8.790  1.2512 -1.2608  0.7742
   85MOL0     C11366   8.184   0.716   8.800 -0.0694  0.3156  0.1096
   85MOL0     C11367   8.191   0.826   8.884  0.9528  0.8182 -0.9670
   85MOL0     C11368   8.314   0.842   8.964 -0.5687  0.0871  0.4003
   85MOL0     C11369   8.359   0.963   9.023  0.0681  0.8276 -0.8116
   85MOL0     O11370   8.292   1.072   8.981 -0.4112 -0.5401 -0.1808
   85MOL0     C11371   8.359   1.192   8.997  0.0719  0.0973  0.0313
   85MOL0     C11372   8.479   1.225   8.929 -0.1654  0.5388 -1.1540
   85MOL0     C11373   8.539   1.354   8.934  0.3454  0.5434  0.5931
   85MOL0     C11374   8.469   1.455   9.002 -0.0589  0.6387  0.3676
   85MOL0     O11375   8.524   1.586   8.985  0.5558  0.5127 -0.2095
   85MOL0     C11376   8.580   1.634   9.110 -0.1421  0.7006 -0.1021
   85MOL0     C11377   8.662   1.752   9.089 -0.6505  0.2327 -0.4378
   85MOL0     C11378   8.590   1.884   9.041  0.9469  0.3433  0.5444
   85MOL0     C11379   8.689   2.006   9.010  0.4069  0.8521  0.4833
   85MOL0     C11380   8.621   2.147   9.020 -0.0493  0.8314  0.1134
   85MOL0     C11381   8.529   2.191   8.905 -0.5596 -0.3437  1.0118
   85MOL0     C11382   8.432   2.293   8.954  0.9379  0.2562 -0.4683
   85MOL0     C11383   8.321   2.331   8.853  0.2632  0.6505 -0.7082
   85MOL0    Cl11384   8.165   2.357   8.935 -0.4332 -0.6730  0.7495
   85MOL0     C11385   8.350   1.431   9.064  0.0248  0.4252 -1.5199
   85MOL0     C11386   8.305   1.302   9.059  0.1337  0.7179  0.7182
   85MOL0     O11387   8.442   0.961   9.117 -0.0580 -0.1370  0.0440
   85MOL0     C11388   8.414   0.735   8.963  0.3972 -0.0880 -0.5003
   85MOL0     C11389   8.409   0.634   8.871  0.3010 -0.2619 -1.1999
   85MOL0     N11390   8.099   0.083   8.546  0.5908  0.1654  0.2123
   85MOL0     N11391   8.008   0.118   8.460 -0.0980  0.1067 -0.0773
   85MOL0     C11392   7.588   1.141   8.602  0.5964  0.4911  0.0336
   85MOL0     C11393   7.579   1.265   8.656  0.1037  0.0456 -0.3101
   85MOL0     C11394   7.340   1.698   8.710  0.9908  0.5477 -0.2156
   85MOL0     C11395   7.252   1.789   8.648 -0.1655 -1.4408 -0.6174
   85MOL0     C11396   7.196   1.898   8.728 -0.3034 -0.1047  0.9070
   85MOL0     C11397   7.239   1.915   8.861  0.1869  0.4999 -0.1701
   85MOL0     O11398   7.172   2.009   8.939 -0.5794 -0.0092 -0.5209
   85MOL0     C11399   7.107   2.121   8.880  0.4616  0.2317  0.0611
   85MOL0     C11400   6.949   2.091   8.850 -0.9683 -0.2928 -0.2223
   85MOL0     C11401   6.874   2.132   8.972  0.5468  0.0954 -0.7891
   85MOL0     C11402   6.720   2.128   8.971  0.4460  0.0656 -0.8369
   85MOL0     C11403   6.681   1.986   8.983 -0.8115  0.1663  0.5188
   85MOL0     C11404   6.631   1.880   8.981 -0.3277  0.0219 -0.1149
   85MOL0     C11405   7.331   1.824   8.920 -1.1095  0.6584  0.2688
   85MOL0     C11406   7.380   1.708   8.848 -0.2900 -0.0070  0.4774
   85MOL0     C11407   7.490   1.637   8.906  0.0444  0.8128  0.0990
   85MOL0     H11408   7.346   1.390   8.442  1.7927  2.4437  1.1511
   85MOL0     H11409   7.396   1.169   8.322 -1.2519 -1.0402  1.8238
   85MOL0     H11410   7.558   1.023   8.233 -0.4227 -2.9552 -1.0654
   85MOL0     H11411   7.714   1.028   8.303 -0.1465  0.1635  1.0273
   85MOL0     H11412   7.662   0.787   8.168  3.8170 -0.3342  0.3296
   85MOL0     H11413   7.516   0.782   8.272  0.2229  1.4080  0.6343
   85MOL0     H11414   7.663   0.723   8.470  4.6758  2.5002  3.5429
   85MOL0     H11415   7.800   0.810   8.412  2.4946 -1.6950 -2.3589
   85MOL0     H11416   7.723   0.536   8.318 -0.1941  1.5959 -2.7404
   85MOL0     H11417   7.843   0.638   8.240 -0.5129 -0.2065 -1.2051
   85MOL0     H11418   7.967   0.651   8.410 -1.1003  1.7966  1.0207
   85MOL0     H11419   7.845   0.604   8.529 -1.6291 -1.2727  0.2113
   85MOL0     H11420   7.986   0.397   8.501 -1.4654 -3.0689 -0.1810
   85MOL0     H11421   7.846   0.362   8.427  1.7125 -3.1077  1.0734
   85MOL0     H11422   8.088   0.452   8.265 -0.6464 -1.8373  1.2244
   85MOL0     H11423   7.918   0.447   8.202  0.5154  0.1978 -0.8441
   85MOL0     H11424   7.906   0.217   8.249 -0.3519  0.2766 -0.3361
   85MOL0     H11425   8.062   0.226   8.154  1.2975 -0.3092  0.1980
   85MOL0     H11426   8.286   0.241   8.332  1.8540 -2.3619 -0.1791
   85MOL0     H11427   8.386  -0.000   8.562  2.9605  0.1285  0.2353
   85MOL0     H11428   8.428   0.163   8.532  0.3326 -1.8597 -1.1645
   85MOL0     H11429   8.277   0.080   8.773  2.0867  1.2688  4.7252
   85MOL0     H11430   8.447   0.117   8.762  0.5466 -1.5449 -2.2846
   85MOL0     H11431   8.283   0.310   8.857 -0.8583  3.9073 -1.0938
   85MOL0     H11432   8.197   0.297   8.703  0.8613 -0.3975 -1.3596
   85MOL0     H11433   8.387   0.394   8.581 -1.0547 -0.0598 -1.4095
   85MOL0     H11434   8.470   0.420   8.741 -0.7465 -1.2488  1.0728
   85MOL0     H11435   8.091   0.720   8.744 -0.0871  4.4611  0.0776
   85MOL0     H11436   8.121   0.909   8.876 -0.7984 -0.6715 -1.9133
   85MOL0     H11437   8.526   1.146   8.871 -0.3004 -1.8318  1.6891
   85MOL0     H11438   8.632   1.363   8.880 -0.8148  2.6330 -1.2261
   85MOL0     H11439   8.504   1.658   9.185 -3.7515 -1.1698 -2.8239
   85MOL0     H11440   8.658   1.566   9.146  0.4398  0.1241 -2.3441
   85MOL0     H11441   8.730   1.775   9.171 -0.6515 -0.6485 -0.1785
   85MOL0     H11442   8.740   1.735   9.014 -1.0697  1.3403 -1.1634
   85MOL0     H11443   8.529   1.863   8.953  0.9475 -0.2534  0.6761
   85MOL0     H11444   8.529   1.905   9.129  0.1725  0.4089  0.0069
   85MOL0     H11445   8.744   1.995   8.916 -1.6085  0.8610 -0.7528
   85MOL0     H11446   8.764   2.007   9.089  0.1695  2.4723  0.7318
   85MOL0     H11447   8.703   2.219   9.026  2.9544 -2.2507 -0.2064
   85MOL0     H11448   8.562   2.153   9.111  0.5950  1.9626  0.4735
   85MOL0     H11449   8.587   2.221   8.818 -2.4610  0.2176 -0.1352
   85MOL0     H11450   8.464   2.112   8.866  2.3289 -1.5295 -1.8003
   85MOL0     H11451   8.483   2.382   8.991 -1.7387  1.2043  1.2977
   85MOL0     H11452   8.385   2.253   9.045  0.8201  2.4804  0.5260
   85MOL0     H11453   8.350   2.425   8.806  1.2354  0.2925 -0.8525
   85MOL0     H11454   8.305   2.256   8.775 -0.8183  0.6600 -0.5032
   85MOL0     H11455   8.300   1.508   9.123  1.0674  0.7124 -0.9856
   85MOL0     H11456   8.210   1.284   9.108  0.1785 -0.2538  0.4594
   85MOL0     H11457   8.494   0.746   9.036 -0.3597 -0.7128  0.4432
   85MOL0     H11458   8.495   0.568   8.872 -0.6225 -1.5233  0.2460
   85MOL0     H11459   7.656   1.080   8.661  0.1156 -0.8468 -0.7641
   85MOL0     H11460   7.630   1.292   8.747 -0.7193  1.6276 -0.2766
   85MOL0     H11461   7.222   1.780   8.545 -1.4659  3.0011 -0.8139
   85MOL0     H11462   7.116   1.954   8.682 -0.1118  0.4179  1.2061
   85MOL0     H11463   7.168   2.152   8.795  0.2756 -1.9164 -0.9130
   85MOL0     H11464   7.107   2.207   8.948 -0.9284  0.1428  0.1998
   85MOL0     H11465   6.934   1.984   8.834 -0.3999 -0.4886  0.5047
   85MOL0     H11466   6.915   2.141   8.759  0.3954 -1.8526 -1.6813
   85MOL0     H11467   6.883   2.240   8.985 -2.3172  0.0854  2.7489
   85MOL0     H11468   6.923   2.091   9.061  5.5592 -0.5912 -3.4938
   85MOL0     H11469   6.670   2.166   9.061 -3.5045 -3.2352 -1.3321
   85MOL0     H11470   6.678   2.163   8.877 -1.8498 -2.1899 -0.7850
   85MOL0     H11471   6.585   1.784   8.971  1.4004 -0.6862 -1.6787
   85MOL0     H11472   7.361   1.832   9.024  0.5080  0.5134 -0.1683
   85MOL0     H11473   7.581   1.640   8.845 -0.6315 -4.2375 -1.6524
   85MOL0     H11474   7.512   1.669   9.008 -2.3361 -0.0609  0.9485
   85MOL0     H11475   7.463   1.531   8.911  0.0825  0.6829 -1.7169
   86MOL0     O11476   1.976   0.422   8.682 -0.1715 -0.5646 -0.4995
   86MOL0     C11477   2.029   0.394   8.570 -0.9073 -0.0948 -0.9215
   86MOL0     O11478   2.127   0.312   8.551 -0.8270  0.7167  1.1533
   86MOL0     C11479   2.216   0.290   8.653 -0.7973 -0.5030 -1.2286
   86MOL0     C11480   2.262   0.397   8.734  0.1703  0.1292  0.5422
   86MOL0     C11481   2.340   0.382   8.848  0.9808  0.7091  0.0534
   86MOL0     C11482   2.379   0.250   8.885  0.2972 -0.0731 -0.2602
   86MOL0     O11483   2.448   0.238   9.003  0.3983  0.2394  0.3550
   86MOL0     C11484   2.563   0.159   9.005 -0.7199  0.2597  0.1930
   86MOL0     C11485   2.633   0.159   9.135  0.5042 -0.3517  1.0679
   86MOL0     C11486   2.689   0.303   9.135 -0.7753 -0.6173  0.2095
   86MOL0     C11487   2.705   0.360   9.272 -0.3157  0.5838 -0.1076
   86MOL0     C11488   2.770   0.502   9.281  0.2548  0.9684 -0.2943
   86MOL0     C11489   2.784   0.556   9.423  0.1031  0.7337  0.9027
   86MOL0     C11490   2.901   0.654   9.431  0.6758 -0.8018 -0.5082
   86MOL0     C11491   3.038   0.575   9.455 -0.2297 -1.3999  0.4318
   86MOL0     N11492   3.128   0.578   9.334  0.3101  0.0803  0.4088
   86MOL0     C11493   3.199   0.691   9.286  0.1500 -0.0828 -0.1644
   86MOL0     C11494   3.235   0.663   9.162  0.0868 -0.2295  1.2013
   86MOL0     C11495   3.284   0.761   9.057 -0.1298  0.3785  0.9774
   86MOL0     C11496   3.353   0.882   9.101  0.4057 -0.3437  0.2165
   86MOL0     C11497   3.480   0.853   9.176 -0.3598 -0.3310  0.6296
   86MOL0     C11498   3.554   0.990   9.206  0.1800  0.3572 -0.1712
   86MOL0     O11499   3.637   1.026   9.090  0.0669 -0.1239 -0.1004
   86MOL0     C11500   3.776   1.026   9.112  0.4332 -0.0270 -0.2067
   86MOL0     C11501   3.842   0.962   9.211  0.0404  0.4653  0.9578
   86MOL0     C11502   3.972   0.987   9.232  0.2738  1.1965 -0.3670
   86MOL0     C11503   4.048   1.078   9.159  0.0699  0.2293  0.0232
   86MOL0     C11504   4.192   1.071   9.168 -0.8962  0.3827 -0.7093
   86MOL0     O11505   4.248   0.965   9.231  0.4939 -0.7676  0.5098
   86MOL0     C11506   4.374   0.973   9.279  0.4081  0.0484  0.4900
   86MOL0     C11507   4.398   0.889   9.387 -0.7021 -0.5123 -0.6384
   86MOL0     C11508   4.534   0.872   9.436  0.7736 -0.3600 -0.0103
   86MOL0     C11509   4.639   0.947   9.381  0.6817  0.5369 -0.2579
   86MOL0     O11510   4.764   0.921   9.439 -0.6514  0.2032  0.7096
   86MOL0     C11511   4.890   0.939   9.363  0.1664 -0.5794  0.1463
   86MOL0     C11512   5.001   0.965   9.469 -0.6481  0.2315 -1.2523
   86MOL0     C11513   4.957   1.085   9.561 -0.7488 -0.0930  0.2069
   86MOL0     C11514   4.989   1.060   9.705  0.2802  0.6294 -0.8237
   86MOL0     C11515   5.135   1.075   9.736  1.4652 -0.1336  0.6625
   86MOL0     C11516   5.175   1.225   9.745  0.0847  0.3761  0.0915
   86MOL0     C11517   5.321   1.252   9.710  0.2446 -0.5623 -0.0921
   86MOL0     C11518   5.413   1.199   9.814 -0.4397 -0.4650 -0.0130
   86MOL0    Cl11519   5.574   1.220   9.765 -0.2139 -0.2970  0.1502
   86MOL0     C11520   4.611   1.022   9.264  0.4364  0.1824 -0.1697
   86MOL0     C11521   4.480   1.034   9.211 -0.6261 -0.2103 -0.0496
   86MOL0     O11522   4.255   1.166   9.120  1.2254  0.1666  0.0884
   86MOL0     C11523   3.979   1.145   9.052  0.2558  0.9941  0.3118
   86MOL0     C11524   3.843   1.105   9.023 -0.0252  0.4889 -0.6629
   86MOL0     N11525   3.183   0.537   9.130 -0.4527 -1.1243 -0.2788
   86MOL0     N11526   3.138   0.490   9.239 -0.3372  0.2708 -0.3325
   86MOL0     C11527   2.354   0.147   8.792  0.0567 -0.0260  0.2514
   86MOL0     C11528   2.266   0.168   8.684 -0.1855  1.1067  0.3115
   86MOL0     C11529   1.955   0.428   8.452  0.3401  0.3725  0.3005
   86MOL0     C11530   1.931   0.311   8.370 -0.1053 -0.4123 -0.5281
   86MOL0     C11531   1.862   0.320   8.247  0.3934  0.1663  0.0879
   86MOL0     C11532   1.807   0.447   8.212  0.1692  0.2694 -0.2045
   86MOL0     O11533   1.710   0.444   8.115  0.2881 -0.5125 -0.0264
   86MOL0     C11534   1.712   0.533   8.005 -0.2589  0.6246  0.0853
   86MOL0     C11535   1.829   0.486   7.914  0.7953  0.5467  0.4165
   86MOL0     C11536   1.791   0.417   7.784 -0.4314  0.5182 -0.1679
   86MOL0     C11537   1.694   0.307   7.806  0.3525 -0.0403  0.1170
   86MOL0     C11538   1.744   0.191   7.872  0.5394 -0.5120 -0.7462
   86MOL0     C11539   1.781   0.096   7.938  0.2907  0.1246 -0.2636
   86MOL0     C11540   1.833   0.559   8.278  0.3458  0.1476  0.0480
   86MOL0     C11541   1.908   0.556   8.398 -0.0561 -0.1393  0.4746
   86MOL0     C11542   1.923   0.677   8.471  0.9372 -0.7488 -0.4867
   86MOL0     H11543   2.217   0.493   8.709 -0.3790 -0.8752 -2.8498
   86MOL0     H11544   2.375   0.470   8.901  0.5699  0.6187  0.4836
   86MOL0     H11545   2.540   0.054   8.984  0.0800 -0.7060  3.5836
   86MOL0     H11546   2.642   0.180   8.933  0.7142  2.2229  2.2151
   86MOL0     H11547   2.704   0.078   9.121  0.7692 -0.2288  1.6864
   86MOL0     H11548   2.555   0.132   9.207 -1.7204  2.6890  0.0394
   86MOL0     H11549   2.636   0.383   9.083 -2.5555 -1.4675  0.6548
   86MOL0     H11550   2.786   0.305   9.084 -1.6531  1.8638 -1.5186
   86MOL0     H11551   2.612   0.352   9.330 -1.1735 -0.6701 -1.5816
   86MOL0     H11552   2.770   0.285   9.318 -0.5260 -0.5830 -1.6250
   86MOL0     H11553   2.874   0.495   9.247 -0.0600 -2.8479 -0.9478
   86MOL0     H11554   2.728   0.572   9.208  0.1073  1.4447  0.2368
   86MOL0     H11555   2.695   0.616   9.443 -1.2371  0.1866 -2.7456
   86MOL0     H11556   2.805   0.478   9.496 -0.7298 -1.4031 -1.0214
   86MOL0     H11557   2.871   0.710   9.520  0.9493 -1.6241  0.1225
   86MOL0     H11558   2.912   0.719   9.344  1.7880  1.7957  1.4161
   86MOL0     H11559   3.084   0.634   9.534  0.2515 -1.9317  0.5569
   86MOL0     H11560   3.016   0.469   9.475  1.1662 -2.4800 -3.0383
   86MOL0     H11561   3.206   0.783   9.342 -2.4272 -0.1956  0.4373
   86MOL0     H11562   3.356   0.696   9.005  0.6256  1.1105  1.0913
   86MOL0     H11563   3.209   0.796   8.985  3.0357  3.8788 -0.9885
   86MOL0     H11564   3.359   0.937   9.007 -2.6222  0.1578  0.2134
   86MOL0     H11565   3.281   0.924   9.172 -0.2013  2.7131 -2.0188
   86MOL0     H11566   3.547   0.798   9.109  0.0495  1.3221 -0.3910
   86MOL0     H11567   3.455   0.806   9.271  0.8912  2.1020  2.2780
   86MOL0     H11568   3.615   0.985   9.296 -0.3860 -0.2885  0.1839
   86MOL0     H11569   3.479   1.068   9.224  0.0203  0.2128 -0.2059
   86MOL0     H11570   3.800   0.884   9.274  0.9379 -2.2566 -1.5155
   86MOL0     H11571   4.021   0.930   9.310 -2.3998 -0.2177  0.3951
   86MOL0     H11572   4.318   0.831   9.433 -1.4593 -0.5146 -1.8989
   86MOL0     H11573   4.548   0.814   9.527 -0.2919 -0.2989  0.1953
   86MOL0     H11574   4.923   0.857   9.300  0.4824 -1.3499  1.2805
   86MOL0     H11575   4.891   1.039   9.319  4.6932  0.8519  2.8133
   86MOL0     H11576   5.010   0.881   9.539  0.1457  3.0188  2.2683
   86MOL0     H11577   5.100   0.977   9.423 -0.1864 -0.7817 -0.5695
   86MOL0     H11578   4.998   1.181   9.528 -0.8347 -0.1445 -0.0561
   86MOL0     H11579   4.848   1.098   9.565 -0.4828  2.5631  0.3362
   86MOL0     H11580   4.947   0.966   9.741 -1.9624  1.8850  0.0752
   86MOL0     H11581   4.942   1.142   9.760  1.5834  2.2210 -1.9951
   86MOL0     H11582   5.208   1.029   9.669  2.1298 -0.0248  1.2888
   86MOL0     H11583   5.148   1.030   9.835  1.3704 -1.5684  0.0522
   86MOL0     H11584   5.112   1.274   9.670  0.5916 -0.8090 -1.1513
   86MOL0     H11585   5.153   1.281   9.837  0.9373  1.1227 -0.1475
   86MOL0     H11586   5.320   1.361   9.704 -4.7331 -0.3258  0.5862
   86MOL0     H11587   5.344   1.214   9.610  0.0941 -1.2707  0.1393
   86MOL0     H11588   5.407   1.257   9.906 -2.7129 -3.8629  2.2509
   86MOL0     H11589   5.395   1.092   9.828  1.3480 -0.8465 -0.2853
   86MOL0     H11590   4.695   1.072   9.218  0.1128 -0.9524 -2.1303
   86MOL0     H11591   4.461   1.082   9.116 -0.6737 -2.7197 -1.3933
   86MOL0     H11592   4.035   1.203   8.980  1.8437  1.3162  1.7466
   86MOL0     H11593   3.792   1.145   8.936 -3.6139 -1.1645  0.4991
   86MOL0     H11594   2.371   0.044   8.819 -0.7433 -0.0480  0.7066
   86MOL0     H11595   2.252   0.080   8.622  2.0675  2.0572 -1.7138
   86MOL0     H11596   1.951   0.212   8.409  0.6357  1.2302  3.8877
   86MOL0     H11597   1.830   0.238   8.184  0.0328  0.9169 -0.7221
   86MOL0     H11598   1.733   0.631   8.049  0.5818 -0.3554  2.0258
   86MOL0     H11599   1.616   0.539   7.953 -1.6476  1.6841  2.6041
   86MOL0     H11600   1.878   0.411   7.975  0.3753  1.0975  1.4538
   86MOL0     H11601   1.899   0.569   7.901  0.5383  0.8011  0.6343
   86MOL0     H11602   1.877   0.372   7.734 -0.5689  0.7117 -0.5856
   86MOL0     H11603   1.755   0.496   7.718  2.2381  1.5807 -0.4988
   86MOL0     H11604   1.611   0.343   7.868  0.1795 -1.0326  0.4788
   86MOL0     H11605   1.645   0.287   7.710 -2.9244  1.3935  1.3380
   86MOL0     H11606   1.827   0.007   7.976  3.7795  0.5057 -3.0480
   86MOL0     H11607   1.786   0.654   8.252 -0.1600 -0.0806  0.1233
   86MOL0     H11608   1.996   0.743   8.423  0.7639  0.7846  1.2710
   86MOL0     H11609   1.827   0.729   8.480  0.4167 -2.0013  1.7491
   86MOL0     H11610   1.950   0.647   8.572 -4.8958 -0.2361  1.5843
   87MOL0     O11611   0.608   4.754   1.511 -0.1755  0.1148 -0.6296
   87MOL0     C11612   0.611   4.861   1.575 -0.2181  0.3120  0.1888
   87MOL0     O11613   0.706   4.955   1.555 -0.2971 -0.7132 -0.2060
   87MOL0     C11614   0.797   4.930   1.454 -1.4906 -0.7694  0.0977
   87MOL0     C11615   0.761   4.930   1.316 -0.0838  2.1416  0.4897
   87MOL0     C11616   0.849   4.894   1.210 -0.1347 -0.3015  0.4970
   87MOL0     C11617   0.986   4.876   1.242  0.5465 -0.7729  0.4600
   87MOL0     O11618   1.088   4.820   1.166 -1.1092  0.3029 -0.1357
   87MOL0     C11619   1.047   4.753   1.038 -0.0263  1.0021 -0.1421
   87MOL0     C11620   1.175   4.744   0.955  1.5442 -0.7126 -0.2598
   87MOL0     C11621   1.288   4.657   1.017 -0.0670 -0.0105  0.9131
   87MOL0     C11622   1.408   4.676   0.918 -0.3515  0.5259 -0.6382
   87MOL0     C11623   1.543   4.636   0.994  0.3910 -0.7464 -0.4180
   87MOL0     C11624   1.670   4.640   0.913 -0.1201 -0.8364  0.1891
   87MOL0     C11625   1.791   4.594   0.989  0.6343 -0.0190 -0.4268
   87MOL0     C11626   1.937   4.619   0.931  0.3889 -0.4317 -0.2750
   87MOL0     N11627   1.960   4.527   0.819  0.2603 -0.2441  0.1978
   87MOL0     C11628   1.936   4.565   0.684  0.3962  0.2195 -0.3958
   87MOL0     C11629   2.010   4.489   0.607  0.0709  0.0765  0.4594
   87MOL0     C11630   2.017   4.496   0.459 -0.9346  0.9384  1.0987
   87MOL0     C11631   1.908   4.388   0.416  0.2229  0.3062 -0.4171
   87MOL0     C11632   1.921   4.341   0.270  0.3206 -0.4413  0.0190
   87MOL0     C11633   1.938   4.458   0.167  0.1334 -0.3001 -0.6849
   87MOL0     O11634   1.952   4.399   0.034 -0.0490  0.1545  0.3501
   87MOL0     C11635   1.930   4.484  -0.069  0.6827  0.7592  0.9480
   87MOL0     C11636   1.910   4.625  -0.075 -0.8630  0.0712 -0.8390
   87MOL0     C11637   1.893   4.698  -0.185  0.1983 -0.0639  1.3916
   87MOL0     C11638   1.895   4.626  -0.316  0.5954  1.1582 -0.2985
   87MOL0     C11639   1.867   4.694  -0.451  0.2202 -0.5762 -0.1161
   87MOL0     O11640   1.855   4.830  -0.453  0.2754  0.0774 -0.0790
   87MOL0     C11641   1.857   4.900  -0.576  0.4472 -0.4560 -1.4611
   87MOL0     C11642   1.912   4.872  -0.699 -0.4309 -0.1979 -0.6657
   87MOL0     C11643   1.909   4.959  -0.806 -0.5695 -0.9011  0.0066
   87MOL0     C11644   1.840   5.075  -0.794 -0.0490 -0.0155 -0.9268
   87MOL0     O11645   1.828   5.175  -0.890  0.0194 -0.4564  0.2464
   87MOL0     C11646   1.906   5.163  -1.009  0.5542  0.5052  0.6247
   87MOL0     C11647   1.849   5.252  -1.120  0.7757  0.3509  0.1553
   87MOL0     C11648   1.927   5.241  -1.246 -0.1335 -0.2975 -0.2765
   87MOL0     C11649   1.879   5.322  -1.362  0.6321  0.0401  0.8178
   87MOL0     C11650   1.903   5.471  -1.354 -0.5757 -0.5428 -0.6091
   87MOL0     C11651   1.796   5.548  -1.436 -0.5024 -0.1896 -0.3205
   87MOL0     C11652   1.806   5.694  -1.454 -0.4707  0.3838 -0.0528
   87MOL0     C11653   1.953   5.735  -1.504  0.0245 -0.6687 -0.8822
   87MOL0    Cl11654   2.003   5.630  -1.646  0.0580 -0.2169  0.0668
   87MOL0     C11655   1.783   5.112  -0.670  0.0539  0.1929 -0.0676
   87MOL0     C11656   1.786   5.025  -0.562 -0.0721  0.3315 -0.0396
   87MOL0     O11657   1.849   4.608  -0.541  0.4214 -1.1145 -0.4923
   87MOL0     C11658   1.917   4.487  -0.309  0.1246 -1.3461 -0.2467
   87MOL0     C11659   1.933   4.420  -0.188 -0.0325  0.0915 -1.2375
   87MOL0     N11660   2.092   4.412   0.694 -0.3953 -0.0838  0.1183
   87MOL0     N11661   2.063   4.437   0.812 -0.0635 -0.7296 -0.0267
   87MOL0     C11662   1.023   4.871   1.381 -0.1457  0.1291  0.3792
   87MOL0     C11663   0.937   4.896   1.484  0.3906 -1.0953 -0.5053
   87MOL0     C11664   0.505   4.880   1.684 -0.0134 -0.5765  0.9329
   87MOL0     C11665   0.444   4.760   1.725  0.0496 -0.3601 -0.2564
   87MOL0     C11666   0.353   4.761   1.833 -0.0423  0.3195  0.2248
   87MOL0     C11667   0.317   4.885   1.882  0.1077  0.1002 -0.1032
   87MOL0     O11668   0.221   4.888   1.984 -0.2794 -0.2828  0.2466
   87MOL0     C11669   0.129   4.995   1.995 -0.0524 -0.0731 -0.0665
   87MOL0     C11670   0.009   4.943   2.071 -0.0267  0.1136 -1.1013
   87MOL0     C11671  -0.127   4.921   2.019  0.2361 -0.2740  1.1788
   87MOL0     C11672  -0.177   5.052   1.956  0.9337  0.0861  0.3447
   87MOL0     C11673  -0.323   5.051   1.953  0.6807  0.4108  0.1698
   87MOL0     C11674  -0.435   5.026   1.927  0.5407  0.1358 -0.9354
   87MOL0     C11675   0.376   5.001   1.836  0.5329  0.5839 -0.7797
   87MOL0     C11676   0.468   5.007   1.733 -0.0833 -0.7274  0.7078
   87MOL0     C11677   0.514   5.143   1.693 -0.2226  0.2940 -0.1692
   87MOL0     H11678   0.657   4.936   1.286  0.3654 -0.0271 -1.8473
   87MOL0     H11679   0.813   4.898   1.108  3.3933  0.3874 -0.8782
   87MOL0     H11680   1.025   4.648   1.058  1.8382  0.3943 -1.0422
   87MOL0     H11681   0.966   4.812   0.993 -1.1676  1.7298  2.6255
   87MOL0     H11682   1.213   4.842   0.923  2.3743 -0.1564  2.2270
   87MOL0     H11683   1.131   4.692   0.869  0.5544 -0.1807 -0.0963
   87MOL0     H11684   1.250   4.555   1.005  1.2424 -0.2211 -2.8582
   87MOL0     H11685   1.311   4.682   1.121  4.1460  2.6311 -0.4322
   87MOL0     H11686   1.388   4.603   0.839  0.6217  1.7560 -2.0700
   87MOL0     H11687   1.413   4.777   0.878  0.6517 -0.5798 -3.6102
   87MOL0     H11688   1.552   4.717   1.067 -1.8458 -1.5987  0.8989
   87MOL0     H11689   1.520   4.546   1.052 -0.8012 -1.2793 -1.6681
   87MOL0     H11690   1.648   4.585   0.821 -2.6156  2.0614 -1.0936
   87MOL0     H11691   1.684   4.742   0.876 -1.8310  0.3433  2.5005
   87MOL0     H11692   1.781   4.486   0.983  0.4655  0.0534 -1.7191
   87MOL0     H11693   1.782   4.621   1.095  1.1779  1.0674 -0.6371
   87MOL0     H11694   1.954   4.720   0.892  3.0587 -0.4918  0.5319
   87MOL0     H11695   2.011   4.596   1.008 -2.3967 -1.4703  2.2851
   87MOL0     H11696   1.871   4.646   0.654  0.6321 -0.2362 -2.2405
   87MOL0     H11697   2.000   4.598   0.425 -3.5357  0.9522  2.2153
   87MOL0     H11698   2.118   4.470   0.424 -0.0624  2.6381  2.2655
   87MOL0     H11699   1.916   4.303   0.484  1.4053  0.5956 -0.1691
   87MOL0     H11700   1.807   4.429   0.425 -0.5778 -1.5246 -0.5170
   87MOL0     H11701   1.833   4.281   0.243 -1.3809  0.9553  2.0633
   87MOL0     H11702   2.002   4.269   0.257  0.9394  0.5555 -1.9930
   87MOL0     H11703   2.039   4.498   0.178 -0.5825  1.4108  0.0369
   87MOL0     H11704   1.866   4.539   0.163  1.3696  0.7854 -1.9911
   87MOL0     H11705   1.898   4.676   0.020 -2.4867 -1.0165 -0.4167
   87MOL0     H11706   1.862   4.801  -0.184 -2.9702 -0.8503 -0.9768
   87MOL0     H11707   1.963   4.777  -0.710 -1.2918 -0.5035 -2.3877
   87MOL0     H11708   1.964   4.940  -0.898 -3.8308 -0.6536 -2.1376
   87MOL0     H11709   2.009   5.195  -0.992  0.5714  0.6482  0.2519
   87MOL0     H11710   1.894   5.058  -1.037 -0.3429  0.4583  1.1226
   87MOL0     H11711   1.742   5.235  -1.130  0.8241  0.2035 -0.1222
   87MOL0     H11712   1.856   5.352  -1.077 -0.7830 -1.3026  5.0417
   87MOL0     H11713   2.027   5.280  -1.223 -1.3933  3.4912 -0.4652
   87MOL0     H11714   1.926   5.138  -1.281 -1.2982  0.4258 -2.6078
   87MOL0     H11715   1.775   5.289  -1.371 -0.2464  2.5714  1.0320
   87MOL0     H11716   1.935   5.294  -1.453 -0.6568 -0.6176  0.1987
   87MOL0     H11717   2.000   5.496  -1.398 -0.2845 -1.0542 -0.2565
   87MOL0     H11718   1.905   5.502  -1.249 -0.7624  4.4553 -1.8488
   87MOL0     H11719   1.791   5.506  -1.536 -1.1557 -2.8416  0.7520
   87MOL0     H11720   1.697   5.535  -1.391 -0.0454  0.5634  0.9873
   87MOL0     H11721   1.781   5.738  -1.357  0.8797  1.0893 -0.0021
   87MOL0     H11722   1.730   5.710  -1.532 -0.5515  0.0516 -0.0459
   87MOL0     H11723   1.946   5.842  -1.524 -1.7920 -0.3376  1.1558
   87MOL0     H11724   2.032   5.729  -1.429 -1.1144 -3.4523  0.2470
   87MOL0     H11725   1.742   5.210  -0.646 -4.1362 -1.0449 -1.2112
   87MOL0     H11726   1.746   5.062  -0.469  0.5492  3.1886 -0.8150
   87MOL0     H11727   1.922   4.437  -0.404  1.0756  3.4006 -3.0189
   87MOL0     H11728   1.955   4.314  -0.186  1.3386  0.3461  1.3330
   87MOL0     H11729   1.127   4.864   1.410  0.2955  2.7629 -0.3123
   87MOL0     H11730   0.957   4.874   1.588  0.9050 -2.4392 -0.8637
   87MOL0     H11731   0.464   4.664   1.679  0.0267 -0.5407  0.0988
   87MOL0     H11732   0.310   4.670   1.874  0.8446 -0.1823  0.0690
   87MOL0     H11733   0.108   5.037   1.897  4.1051  0.6440 -0.8090
   87MOL0     H11734   0.170   5.073   2.060 -3.4792  1.4729  0.4798
   87MOL0     H11735   0.002   5.012   2.156  5.8786 -0.2444  0.0997
   87MOL0     H11736   0.043   4.849   2.116 -2.2905 -1.0566 -1.6792
   87MOL0     H11737  -0.197   4.892   2.098 -1.6122  0.0145 -0.2592
   87MOL0     H11738  -0.112   4.849   1.938  1.9787  2.2825 -0.9262
   87MOL0     H11739  -0.139   5.140   2.008  0.3143  0.2848  0.4742
   87MOL0     H11740  -0.145   5.069   1.853  0.8550 -3.1223 -0.3261
   87MOL0     H11741  -0.535   5.009   1.892 -0.2020  0.4280  0.9409
   87MOL0     H11742   0.338   5.094   1.877  3.1612  2.1395 -1.6138
   87MOL0     H11743   0.481   5.162   1.590  1.2781  2.0789 -0.3680
   87MOL0     H11744   0.480   5.225   1.756  0.8797 -0.4008  1.3837
   87MOL0     H11745   0.623   5.135   1.695 -0.1848 -0.1707 -2.1803
   88MOL0     O11746   8.024   7.999   0.255  1.0928 -0.1861  0.3533
   88MOL0     C11747   7.960   7.986   0.149  0.3534 -0.4988 -0.0649
   88MOL0     O11748   7.899   8.091   0.080 -0.4483  0.0147 -0.4932
   88MOL0     C11749   7.818   8.195   0.133  0.4225 -0.2455 -0.3883
   88MOL0     C11750   7.831   8.227   0.270  0.0261 -0.1982 -0.1275
   88MOL0     C11751   7.732   8.307   0.328 -0.7392 -0.9466 -0.0862
   88MOL0     C11752   7.649   8.385   0.252  0.1636  0.3736 -0.2910
   88MOL0     O11753   7.556   8.454   0.326 -0.0268 -0.2395 -0.4815
   88MOL0     C11754   7.477   8.546   0.254  0.3092  0.5979  0.7785
   88MOL0     C11755   7.364   8.588   0.353 -0.7538  0.5938  0.6549
   88MOL0     C11756   7.426   8.659   0.477 -0.4585  0.5130  0.4129
   88MOL0     C11757   7.321   8.743   0.555  1.0368 -0.3081  0.1077
   88MOL0     C11758   7.391   8.782   0.688  0.2033 -0.3661 -0.3467
   88MOL0     C11759   7.321   8.890   0.765 -0.5705 -0.1691  0.7677
   88MOL0     C11760   7.402   8.938   0.884  0.4003  0.2752 -0.3904
   88MOL0     C11761   7.320   9.026   0.974 -0.4626  0.6994 -0.1107
   88MOL0     N11762   7.246   9.143   0.913  0.1863 -0.3431  0.3057
   88MOL0     C11763   7.309   9.258   0.868  0.0934 -1.2030  0.1858
   88MOL0     C11764   7.204   9.342   0.840  0.3748  0.2636  1.0430
   88MOL0     C11765   7.203   9.488   0.784  0.5177  0.0991  0.2357
   88MOL0     C11766   7.085   9.570   0.847  0.0765 -0.3429 -0.1327
   88MOL0     C11767   7.077   9.705   0.774  0.3394  0.3991 -0.8492
   88MOL0     C11768   6.945   9.772   0.822 -0.0911 -0.9772  0.2811
   88MOL0     O11769   6.974   9.831   0.953  0.2298  0.3422 -0.3976
   88MOL0     C11770   6.871   9.827   1.037  0.2420 -0.3848 -0.4448
   88MOL0     C11771   6.859   9.717   1.121  0.2902 -0.7240  0.3288
   88MOL0     C11772   6.749   9.714   1.212  0.2402  0.3050  0.3947
   88MOL0     C11773   6.654   9.820   1.212  0.2823 -0.2545  0.5477
   88MOL0     C11774   6.528   9.816   1.292  0.6208  0.2090  0.1221
   88MOL0     O11775   6.462   9.943   1.304 -0.1041 -0.0616  0.0416
   88MOL0     C11776   6.356   9.966   1.386 -0.0820 -0.5450 -0.6857
   88MOL0     C11777   6.347   9.899   1.515  0.3197 -0.2078 -0.3022
   88MOL0     C11778   6.233   9.931   1.594 -0.0626  0.1848 -0.5270
   88MOL0     C11779   6.142  10.035   1.567 -1.7846 -0.5069 -0.0947
   88MOL0     O11780   6.042  10.052   1.659  0.8609 -0.3470 -0.0419
   88MOL0     C11781   5.917  10.105   1.614  0.7039  0.0354 -0.3180
   88MOL0     C11782   5.829  10.114   1.741  0.5791 -0.2193 -0.6772
   88MOL0     C11783   5.883  10.207   1.846 -0.2413 -0.5374  0.5221
   88MOL0     C11784   5.834  10.197   1.988 -0.4872 -0.6865  0.2490
   88MOL0     C11785   5.680  10.209   1.989  0.1071  0.7690 -0.9106
   88MOL0     C11786   5.622  10.344   1.965 -1.0848 -0.2754  1.8266
   88MOL0     C11787   5.688  10.460   2.050  0.6106  0.3919  0.0848
   88MOL0     C11788   5.668  10.440   2.202  0.6282  1.2602  0.4607
   88MOL0    Cl11789   5.503  10.445   2.246  0.3915  0.2580  0.1311
   88MOL0     C11790   6.165  10.110   1.447 -0.3729 -0.1461 -0.0132
   88MOL0     C11791   6.272  10.069   1.359  0.0667 -0.4937 -0.1037
   88MOL0     O11792   6.490   9.709   1.333 -0.3940 -1.0023  0.2386
   88MOL0     C11793   6.662   9.922   1.114 -0.2347  0.9355 -0.6265
   88MOL0     C11794   6.774   9.926   1.030  0.4000 -0.5239 -0.3768
   88MOL0     N11795   7.083   9.268   0.852 -0.9542 -0.1395  0.8106
   88MOL0     N11796   7.112   9.152   0.903  0.2564  0.1733 -0.2202
   88MOL0     C11797   7.663   8.390   0.110 -0.2631  0.1080 -0.5725
   88MOL0     C11798   7.740   8.286   0.055  0.1693  0.2818 -0.0115
   88MOL0     C11799   7.947   7.847   0.086  0.1616 -0.5384 -1.0699
   88MOL0     C11800   8.030   7.750   0.129 -0.2728 -0.8899 -0.4802
   88MOL0     C11801   8.022   7.616   0.089 -0.6783 -0.5479  1.0098
   88MOL0     C11802   7.921   7.580  -0.008  0.2296 -0.6709 -0.7030
   88MOL0     O11803   7.887   7.450  -0.037 -0.1554  0.5372 -0.5645
   88MOL0     C11804   7.962   7.336   0.017 -0.0177 -0.2185 -0.3576
   88MOL0     C11805   7.935   7.205  -0.061  0.2160 -0.4570 -0.2313
   88MOL0     C11806   7.993   7.201  -0.203 -0.5524  0.1205 -0.2274
   88MOL0     C11807   7.924   7.283  -0.320  1.0265  0.9810  0.1259
   88MOL0     C11808   7.793   7.220  -0.355  0.0657 -0.3080  1.3421
   88MOL0     C11809   7.701   7.164  -0.408  0.0958 -0.7565 -0.2740
   88MOL0     C11810   7.835   7.678  -0.054 -0.6747  0.1490  0.6233
   88MOL0     C11811   7.849   7.811  -0.014  0.9000  0.2804  0.0654
   88MOL0     C11812   7.740   7.909  -0.072  0.3152 -0.1878  0.9585
   88MOL0     H11813   7.916   8.198   0.332  0.7178  2.1695  0.1195
   88MOL0     H11814   7.742   8.339   0.431  0.5765  0.3253 -0.5663
   88MOL0     H11815   7.534   8.635   0.228 -1.5706  1.5051 -0.4886
   88MOL0     H11816   7.439   8.504   0.160 -0.1124  1.8083  0.4005
   88MOL0     H11817   7.318   8.493   0.381  0.7785 -0.5638 -0.5736
   88MOL0     H11818   7.289   8.656   0.314 -0.7396  0.0891 -0.2681
   88MOL0     H11819   7.504   8.728   0.444  0.4679  1.0413  3.4065
   88MOL0     H11820   7.468   8.587   0.547 -1.6645 -0.2712  0.3664
   88MOL0     H11821   7.293   8.836   0.505 -0.6144 -0.0299  1.4714
   88MOL0     H11822   7.230   8.688   0.579 -2.0911  2.8018 -3.2504
   88MOL0     H11823   7.405   8.690   0.744 -3.9363  1.6760  4.8409
   88MOL0     H11824   7.489   8.826   0.664 -0.1501  2.7871  3.0523
   88MOL0     H11825   7.289   8.967   0.694 -3.1060 -0.9646  0.9317
   88MOL0     H11826   7.229   8.848   0.809 -2.5672  1.0839 -1.9040
   88MOL0     H11827   7.487   9.000   0.852 -1.0086  2.4923 -0.0353
   88MOL0     H11828   7.435   8.854   0.945  0.0264  1.0858  0.9705
   88MOL0     H11829   7.244   8.960   1.016 -0.5512  2.7541  3.3760
   88MOL0     H11830   7.375   9.063   1.061  0.7362 -1.2060  0.0112
   88MOL0     H11831   7.416   9.280   0.863 -0.4707  1.5664 -2.0231
   88MOL0     H11832   7.296   9.540   0.808 -1.0843  3.4965 -0.3971
   88MOL0     H11833   7.186   9.485   0.676  1.7715 -2.6781  0.0309
   88MOL0     H11834   6.992   9.511   0.850 -1.7376  2.3969  0.5394
   88MOL0     H11835   7.120   9.587   0.949 -3.8023  0.0360  1.3124
   88MOL0     H11836   7.088   9.686   0.667  0.6415 -0.9999 -0.5876
   88MOL0     H11837   7.163   9.763   0.808  1.7375 -2.6576  1.2526
   88MOL0     H11838   6.865   9.697   0.824  0.5015 -1.6231  0.3670
   88MOL0     H11839   6.922   9.844   0.743  3.6780 -2.0730 -2.0715
   88MOL0     H11840   6.916   9.624   1.123 -3.2153 -3.0946  0.6312
   88MOL0     H11841   6.743   9.639   1.291  0.1711  1.7608  1.8403
   88MOL0     H11842   6.409   9.811   1.529  2.2202  0.7551 -2.0324
   88MOL0     H11843   6.218   9.872   1.684  2.1506 -2.3738 -1.6976
   88MOL0     H11844   5.931  10.198   1.558 -0.1550 -1.1639 -2.6514
   88MOL0     H11845   5.874  10.027   1.551 -0.6865  0.9837 -0.5888
   88MOL0     H11846   5.730  10.155   1.719  0.6774 -0.0871 -0.8755
   88MOL0     H11847   5.814  10.015   1.785  4.6591 -0.2058  1.1593
   88MOL0     H11848   5.990  10.187   1.850 -0.2128 -1.1529 -1.9654
   88MOL0     H11849   5.876  10.307   1.802 -1.4554 -0.8808 -0.1052
   88MOL0     H11850   5.890  10.264   2.054 -0.4023  0.8462 -1.3269
   88MOL0     H11851   5.860  10.097   2.025 -1.1666 -0.9314  0.0829
   88MOL0     H11852   5.655  10.176   2.090 -1.0891 -0.7758 -1.6673
   88MOL0     H11853   5.635  10.149   1.909  2.9474  0.5289 -2.4608
   88MOL0     H11854   5.627  10.355   1.856 -1.0766 -2.1094  1.6252
   88MOL0     H11855   5.518  10.359   1.997 -1.0027 -0.7150  2.3139
   88MOL0     H11856   5.632  10.552   2.028  1.6072  0.7568 -1.0339
   88MOL0     H11857   5.794  10.471   2.028  1.1138  1.8381  2.8244
   88MOL0     H11858   5.696  10.339   2.232 -1.4276 -0.0156 -1.5797
   88MOL0     H11859   5.729  10.511   2.258 -0.4197  3.4437 -1.0129
   88MOL0     H11860   6.112  10.201   1.419  0.0858 -0.4079 -1.8455
   88MOL0     H11861   6.268  10.116   1.261  5.7236  1.3367  0.1900
   88MOL0     H11862   6.586  10.000   1.107 -0.2180  0.8215 -2.2999
   88MOL0     H11863   6.793  10.003   0.957  0.0725 -1.0832 -1.0604
   88MOL0     H11864   7.593   8.453   0.056  0.3310 -0.8355 -2.5296
   88MOL0     H11865   7.732   8.279  -0.053 -3.5686 -2.2281  0.2019
   88MOL0     H11866   8.097   7.770   0.212 -0.9623  0.5597 -0.2445
   88MOL0     H11867   8.090   7.546   0.135 -0.3810  0.3405  1.9606
   88MOL0     H11868   7.925   7.322   0.119  2.1453  0.5778  0.5961
   88MOL0     H11869   8.070   7.350   0.020 -0.0486 -0.1787  0.5749
   88MOL0     H11870   7.828   7.184  -0.072 -0.2402  1.7940 -0.7297
   88MOL0     H11871   7.970   7.122   0.000  4.2694  1.1234 -0.1455
   88MOL0     H11872   7.993   7.100  -0.247 -2.2377  1.1005 -2.6846
   88MOL0     H11873   8.100   7.221  -0.194  0.1935 -2.8913 -1.0374
   88MOL0     H11874   7.910   7.389  -0.297  1.0022  1.3702 -1.5285
   88MOL0     H11875   7.978   7.293  -0.415  0.0819  6.6283 -0.1178
   88MOL0     H11876   7.618   7.108  -0.447 -3.5910  2.9698  1.4186
   88MOL0     H11877   7.761   7.634  -0.120  1.5869 -1.1349 -1.2081
   88MOL0     H11878   7.680   7.959   0.005  0.3945  0.2595  0.7362
   88MOL0     H11879   7.773   7.990  -0.138  1.3399  0.0684  1.7597
   88MOL0     H11880   7.665   7.854  -0.129 -1.9424  3.1576  0.3971
   89MOL0     O11881  10.246   9.549   3.873  0.9270  0.2034 -0.4105
   89MOL0     C11882  10.160   9.487   3.812 -0.1193 -0.2470 -1.1328
   89MOL0     O11883  10.069   9.537   3.732 -0.0561 -0.9050 -0.3372
   89MOL0     C11884  10.087   9.665   3.683 -0.1815  1.0620 -0.1717
   89MOL0     C11885  10.104   9.683   3.545  0.1191 -0.1731  0.0047
   89MOL0     C11886  10.096   9.814   3.488 -0.4942  0.8665 -0.3729
   89MOL0     C11887  10.100   9.927   3.574  0.9066  0.1493  1.4490
   89MOL0     O11888  10.101  10.047   3.509 -0.0429  0.2843  0.3362
   89MOL0     C11889  10.045  10.163   3.578 -0.4827 -0.7491  0.2920
   89MOL0     C11890  10.020  10.278   3.474 -0.0442 -0.5218  0.3884
   89MOL0     C11891   9.908  10.252   3.366  0.3941 -0.0540 -0.2017
   89MOL0     C11892   9.942  10.158   3.250 -0.6814  0.9954 -0.4436
   89MOL0     C11893   9.819  10.081   3.188 -0.1313 -0.3720  0.3273
   89MOL0     C11894   9.715  10.177   3.123  0.5556  0.1939  0.4836
   89MOL0     C11895   9.598  10.090   3.070 -0.0855  0.5141 -1.3318
   89MOL0     C11896   9.464  10.123   3.146 -0.8855 -0.4986  0.2745
   89MOL0     N11897   9.394  10.229   3.076  0.4225 -0.0535 -0.2855
   89MOL0     C11898   9.315  10.241   2.969 -0.2048  0.2608 -0.6352
   89MOL0     C11899   9.276  10.368   2.971  0.7223 -0.8109 -0.0670
   89MOL0     C11900   9.184  10.434   2.880 -0.6403  0.5178 -0.5515
   89MOL0     C11901   9.236  10.554   2.802 -0.2802  0.8282  0.0690
   89MOL0     C11902   9.266  10.682   2.891 -0.4031 -0.4139 -0.0379
   89MOL0     C11903   9.322  10.800   2.827 -0.4126  0.5682  0.5326
   89MOL0     O11904   9.459  10.799   2.783 -0.0373  0.8677 -0.3233
   89MOL0     C11905   9.502  10.930   2.749  0.8974  0.8817  0.0367
   89MOL0     C11906   9.608  10.990   2.817 -0.4170 -0.0948  0.1164
   89MOL0     C11907   9.657  11.118   2.791 -0.8142  0.6591  0.1915
   89MOL0     C11908   9.605  11.201   2.688  0.1222 -0.0900 -0.6596
   89MOL0     C11909   9.657  11.328   2.656 -0.5437 -1.2143  0.4510
   89MOL0     O11910   9.758  11.365   2.738  0.0353 -0.2610  0.1684
   89MOL0     C11911   9.836  11.479   2.723 -0.5637  0.4265 -0.8907
   89MOL0     C11912   9.829  11.575   2.628 -1.8212 -0.6186 -0.5353
   89MOL0     C11913   9.889  11.705   2.644  0.9591 -0.1420  0.3016
   89MOL0     C11914   9.960  11.736   2.766  0.5746  0.4219  0.4901
   89MOL0     O11915  10.014  11.858   2.795  0.3356  0.3613  0.8508
   89MOL0     C11916  10.162  11.847   2.802  0.2831  0.4590  0.1373
   89MOL0     C11917  10.222  11.985   2.786  0.4787  0.8061  0.6817
   89MOL0     C11918  10.179  12.051   2.650  0.2486  0.4382 -0.2062
   89MOL0     C11919  10.225  11.974   2.531  0.2739 -0.0564  0.4990
   89MOL0     C11920  10.197  12.049   2.401 -0.6732  0.5700 -0.8200
   89MOL0     C11921  10.047  12.066   2.378  0.1205 -0.2769  0.0962
   89MOL0     C11922  10.024  12.135   2.244  0.1282 -0.3609  0.5792
   89MOL0     C11923   9.881  12.195   2.241  0.8935  0.2838 -0.1732
   89MOL0    Cl11924   9.857  12.271   2.092  0.0702 -0.6923  0.2213
   89MOL0     C11925   9.972  11.639   2.860  0.3626  0.0786  0.1373
   89MOL0     C11926   9.912  11.514   2.841  0.1338 -0.0795  0.6779
   89MOL0     O11927   9.604  11.394   2.568  0.6309 -0.4209  0.3075
   89MOL0     C11928   9.486  11.143   2.632  0.8233  0.5349  0.1093
   89MOL0     C11929   9.442  11.009   2.658  0.4601  0.0730  0.7932
   89MOL0     N11930   9.339  10.441   3.074 -0.4001 -0.0418  0.8917
   89MOL0     N11931   9.407  10.349   3.137 -0.0508  0.1950 -0.1581
   89MOL0     C11932  10.092   9.909   3.710 -0.7115  0.4119  0.4263
   89MOL0     C11933  10.091   9.780   3.769 -0.4019 -0.0277  0.9255
   89MOL0     C11934  10.167   9.334   3.826 -0.6072 -0.2405  0.2719
   89MOL0     C11935  10.051   9.272   3.787  0.0301 -0.2136  0.6708
   89MOL0     C11936  10.054   9.137   3.767 -0.4108  0.9679 -0.0918
   89MOL0     C11937  10.157   9.058   3.801  0.2462  0.4154  0.4533
   89MOL0     O11938  10.148   8.918   3.775  0.7185 -0.0871 -0.3948
   89MOL0     C11939  10.213   8.826   3.857 -0.1873  0.8612 -0.4538
   89MOL0     C11940  10.209   8.682   3.806  1.1849  0.7607 -0.2963
   89MOL0     C11941  10.305   8.664   3.680  0.1061 -0.0874 -1.2334
   89MOL0     C11942  10.321   8.519   3.623  0.2404  1.3545  0.6741
   89MOL0     C11943  10.360   8.416   3.717  0.2105 -0.5491 -1.0255
   89MOL0     C11944  10.370   8.338   3.799  0.5925  0.6118 -0.0596
   89MOL0     C11945  10.266   9.112   3.872  0.6438 -0.0192  0.2285
   89MOL0     C11946  10.276   9.256   3.880  0.0491 -0.0837  0.1071
   89MOL0     C11947  10.409   9.301   3.952  0.1867 -0.2531 -0.2707
   89MOL0     H11948  10.122   9.601   3.476 -0.8875  1.1241 -1.9209
   89MOL0     H11949  10.102   9.822   3.380  0.8682  0.3503 -0.3525
   89MOL0     H11950   9.947  10.148   3.625  0.0032 -0.5189  1.3815
   89MOL0     H11951  10.121  10.195   3.650 -1.3851  0.4863  0.7360
   89MOL0     H11952  10.121  10.297   3.435  0.2128 -0.4445  1.0765
   89MOL0     H11953   9.972  10.366   3.518  0.6274  0.3011 -0.4704
   89MOL0     H11954   9.865  10.339   3.317  0.8498  1.8843  2.5858
   89MOL0     H11955   9.826  10.202   3.419 -1.1168  2.0045 -0.4620
   89MOL0     H11956   9.984  10.224   3.173 -1.0090  0.4850 -1.0755
   89MOL0     H11957  10.027  10.094   3.275 -1.4896 -0.3742 -1.1151
   89MOL0     H11958   9.852  10.012   3.110  2.0860  1.8859 -0.8846
   89MOL0     H11959   9.772  10.028   3.271  1.1847  1.3901  2.3084
   89MOL0     H11960   9.681  10.260   3.187 -1.5581  0.6326 -1.0687
   89MOL0     H11961   9.755  10.228   3.035 -2.1082 -1.0614 -1.5958
   89MOL0     H11962   9.625   9.986   3.092 -1.7713 -0.0098 -1.6015
   89MOL0     H11963   9.593  10.102   2.961  0.7251  2.4958 -1.1956
   89MOL0     H11964   9.407  10.036   3.181  0.8254 -0.5449  3.3208
   89MOL0     H11965   9.486  10.170   3.242 -1.1077 -1.5693  0.8690
   89MOL0     H11966   9.276  10.166   2.901 -2.0060  1.3404 -0.8510
   89MOL0     H11967   9.132  10.362   2.816 -0.1202 -3.6640  3.2249
   89MOL0     H11968   9.108  10.467   2.952 -0.5906 -1.9364  0.7310
   89MOL0     H11969   9.331  10.525   2.756  0.2354 -1.0766  2.1031
   89MOL0     H11970   9.161  10.574   2.726  0.0527 -3.4410 -1.6749
   89MOL0     H11971   9.342  10.656   2.966 -1.3250  2.9815  2.3402
   89MOL0     H11972   9.171  10.707   2.940 -0.6395 -1.4452  0.0538
   89MOL0     H11973   9.318  10.885   2.897 -1.3349  0.4491  0.6395
   89MOL0     H11974   9.254  10.825   2.744  2.2657 -1.5610 -2.5182
   89MOL0     H11975   9.661  10.930   2.891  0.7573 -0.8157 -1.2581
   89MOL0     H11976   9.747  11.139   2.847 -0.8098 -1.9362  1.2847
   89MOL0     H11977   9.783  11.556   2.531 -0.7290 -1.0300 -0.9907
   89MOL0     H11978   9.885  11.779   2.565  1.2580 -1.4954 -1.0326
   89MOL0     H11979  10.193  11.806   2.898  2.1590  0.3032 -0.4924
   89MOL0     H11980  10.208  11.780   2.729 -0.0710 -0.1150  0.4367
   89MOL0     H11981  10.195  12.053   2.867  0.8247  1.1898  0.4771
   89MOL0     H11982  10.330  11.966   2.779  0.6255  2.2346 -3.4048
   89MOL0     H11983  10.072  12.070   2.637  0.5695  1.1403 -2.1625
   89MOL0     H11984  10.238  12.143   2.645  1.3175 -0.1844  0.6276
   89MOL0     H11985  10.172  11.880   2.513 -1.1508  0.7578  0.2639
   89MOL0     H11986  10.329  11.945   2.547  0.3179  0.4493  1.1374
   89MOL0     H11987  10.241  11.983   2.326  1.3949 -4.8984  4.4205
   89MOL0     H11988  10.243  12.148   2.407  2.3756 -0.7819  0.2286
   89MOL0     H11989   9.987  11.975   2.373  0.6983 -0.6082 -1.4100
   89MOL0     H11990  10.003  12.132   2.453  0.9786  0.7330 -0.2588
   89MOL0     H11991  10.031  12.069   2.157  0.6936 -0.9851  1.0885
   89MOL0     H11992  10.098  12.213   2.227 -1.3771  0.9414 -0.3185
   89MOL0     H11993   9.800  12.123   2.254  0.8922  0.4840  1.0724
   89MOL0     H11994   9.883  12.271   2.320  2.8282 -0.0692  0.1855
   89MOL0     H11995  10.029  11.666   2.949  1.4206  4.0189 -1.5108
   89MOL0     H11996   9.924  11.432   2.911  0.3235 -0.5815  0.0675
   89MOL0     H11997   9.435  11.199   2.555  0.6555  1.9309  1.1809
   89MOL0     H11998   9.356  10.966   2.608 -0.0765  3.6642 -1.7245
   89MOL0     H11999  10.090   9.997   3.774 -1.6178  3.5130 -3.4303
   89MOL0     H12000  10.091   9.777   3.877 -1.9720 -3.0891  0.9659
   89MOL0     H12001   9.957   9.314   3.752 -0.3111 -2.1333 -0.8994
   89MOL0     H12002   9.968   9.099   3.712  0.7617 -0.5067 -0.9749
   89MOL0     H12003  10.166   8.815   3.955  1.0748 -3.4762 -0.1500
   89MOL0     H12004  10.319   8.852   3.872  0.1689 -0.8106  0.1476
   89MOL0     H12005  10.101   8.668   3.794  0.9591  1.4330  0.8058
   89MOL0     H12006  10.232   8.613   3.888  0.2755 -0.7885 -1.2832
   89MOL0     H12007  10.396   8.723   3.697 -1.5748  3.7150 -3.9144
   89MOL0     H12008  10.267   8.720   3.594 -0.0455  1.4392 -0.2132
   89MOL0     H12009  10.235   8.482   3.567  4.0643 -0.1469 -4.9724
   89MOL0     H12010  10.405   8.523   3.554  0.2812  0.7063  0.6837
   89MOL0     H12011  10.384   8.253   3.863  1.7888  2.3523  2.1557
   89MOL0     H12012  10.354   9.063   3.913  0.8946 -1.1353 -1.5103
   89MOL0     H12013  10.405   9.265   4.055  0.5164  1.4847  0.3947
   89MOL0     H12014  10.502   9.268   3.904  1.1208 -1.6016  2.3290
   89MOL0     H12015  10.416   9.410   3.963 -1.2837 -0.0341 -1.1553
   90MOL0     O12016   3.321   6.761   0.947 -0.2617 -0.0537  0.2568
   90MOL0     C12017   3.238   6.683   0.990 -0.3973  0.1683 -0.6364
   90MOL0     O12018   3.170   6.596   0.912  0.3982  0.2356 -0.0901
   90MOL0     C12019   3.154   6.622   0.774  0.5973 -0.8888  0.0789
   90MOL0     C12020   3.082   6.527   0.708  0.2495  0.7663 -0.4476
   90MOL0     C12021   3.054   6.527   0.574  0.6811  0.0416  0.6433
   90MOL0     C12022   3.092   6.634   0.490 -0.7559 -1.1644 -0.1455
   90MOL0     O12023   3.044   6.635   0.358  1.0524 -0.3804 -0.3107
   90MOL0     C12024   3.090   6.735   0.265 -0.3817  1.2918  0.3284
   90MOL0     C12025   3.029   6.698   0.130 -0.3617  0.2120 -0.6729
   90MOL0     C12026   3.033   6.805   0.035 -0.0249 -0.1720 -0.3755
   90MOL0     C12027   3.025   6.768  -0.107 -0.7080 -0.0665  0.2742
   90MOL0     C12028   3.061   6.890  -0.205 -0.0059  0.2192  0.8884
   90MOL0     C12029   2.961   7.009  -0.212  0.3366  0.9180 -0.6457
   90MOL0     C12030   2.949   7.106  -0.333 -0.2761 -0.1862 -0.4164
   90MOL0     C12031   2.913   7.247  -0.289  0.0542 -0.4554 -0.1745
   90MOL0     N12032   2.896   7.337  -0.409  0.5431 -0.2697 -1.1871
   90MOL0     C12033   3.002   7.400  -0.472 -0.2635 -0.3069 -0.6830
   90MOL0     C12034   2.935   7.481  -0.557  0.5512  0.4249 -0.2364
   90MOL0     C12035   3.012   7.553  -0.665  0.1604  0.1286  0.3617
   90MOL0     C12036   2.931   7.667  -0.745  1.4384  0.5134 -0.0563
   90MOL0     C12037   2.868   7.774  -0.652 -0.3263  0.0288 -0.0483
   90MOL0     C12038   2.958   7.846  -0.553 -0.1907  0.3969  0.4165
   90MOL0     O12039   2.931   7.991  -0.545 -0.4169  0.3180 -0.3470
   90MOL0     C12040   2.829   8.047  -0.472 -0.0134  0.0964 -0.3875
   90MOL0     C12041   2.829   8.181  -0.459  0.4163  0.0707 -0.3370
   90MOL0     C12042   2.727   8.241  -0.381 -0.4886 -0.4010 -0.2795
   90MOL0     C12043   2.639   8.168  -0.301  0.2490 -0.5076  0.0330
   90MOL0     C12044   2.535   8.242  -0.219  0.0303  0.1225  0.0435
   90MOL0     O12045   2.433   8.160  -0.165  0.2395 -0.6765 -0.6416
   90MOL0     C12046   2.322   8.204  -0.104 -0.9738 -0.4479 -0.0955
   90MOL0     C12047   2.272   8.333  -0.093 -0.2854 -0.8814 -0.7591
   90MOL0     C12048   2.166   8.372  -0.012  0.3171 -1.2584 -0.5392
   90MOL0     C12049   2.108   8.275   0.070 -0.7434  0.0276 -1.0728
   90MOL0     O12050   2.018   8.318   0.172 -0.0000  0.9727  0.5519
   90MOL0     C12051   2.063   8.380   0.298 -0.1458 -1.6331 -0.7318
   90MOL0     C12052   2.072   8.534   0.280  1.1837 -0.2581  0.6056
   90MOL0     C12053   1.931   8.596   0.277  0.0352  0.0122 -0.5328
   90MOL0     C12054   1.941   8.754   0.265  0.8756 -0.2760  0.0643
   90MOL0     C12055   1.954   8.796   0.118  0.4348 -0.4620  0.7725
   90MOL0     C12056   1.826   8.775   0.045 -0.4229 -0.1030  0.5830
   90MOL0     C12057   1.817   8.864  -0.085 -0.5595  0.8402 -0.5594
   90MOL0     C12058   1.937   8.837  -0.181  0.3530 -0.0943 -0.4934
   90MOL0    Cl12059   1.952   8.662  -0.220  0.4015 -0.4971  0.1401
   90MOL0     C12060   2.152   8.145   0.062 -1.2787  0.2309 -0.3546
   90MOL0     C12061   2.262   8.106  -0.024  0.5151 -0.0696  0.4049
   90MOL0     O12062   2.551   8.362  -0.209 -0.4626 -0.3709  0.0991
   90MOL0     C12063   2.651   8.027  -0.304  0.6108 -0.5558 -0.2087
   90MOL0     C12064   2.742   7.968  -0.392  0.4906  1.0825  0.1332
   90MOL0     N12065   2.800   7.465  -0.541 -0.8046  0.2589  0.3184
   90MOL0     N12066   2.769   7.377  -0.452  0.0444  0.7361  0.6307
   90MOL0     C12067   3.149   6.745   0.558 -0.2288  0.6180  0.4034
   90MOL0     C12068   3.199   6.734   0.691  0.8491 -0.6616 -0.1745
   90MOL0     C12069   3.208   6.676   1.130 -0.0854  0.0943  0.1873
   90MOL0     C12070   3.085   6.609   1.169  0.7366  0.3530 -0.2359
   90MOL0     C12071   3.054   6.570   1.300  0.2406  0.2055  0.9450
   90MOL0     C12072   3.142   6.615   1.403  0.0359  0.4016 -0.1253
   90MOL0     O12073   3.107   6.605   1.540  0.2915  0.3944  1.7430
   90MOL0     C12074   3.063   6.723   1.597  0.5754 -0.2715 -0.0035
   90MOL0     C12075   3.114   6.739   1.742 -0.2795 -0.0255  0.5714
   90MOL0     C12076   3.269   6.761   1.758  0.5248  0.3029 -0.5005
   90MOL0     C12077   3.313   6.819   1.887  0.1506 -0.0627 -0.2623
   90MOL0     C12078   3.310   6.961   1.887  0.6811  0.4185  0.5617
   90MOL0     C12079   3.311   7.081   1.908 -0.2855 -0.0146 -0.0476
   90MOL0     C12080   3.261   6.683   1.367 -0.3628  0.3103 -0.9781
   90MOL0     C12081   3.299   6.701   1.240 -0.5280  1.0758 -0.8687
   90MOL0     C12082   3.446   6.738   1.212 -0.0291  1.3990 -0.0326
   90MOL0     H12083   3.046   6.455   0.780  1.6054  2.5867  2.2272
   90MOL0     H12084   2.998   6.449   0.524  0.0884  0.4552  0.6597
   90MOL0     H12085   3.063   6.837   0.294  3.0591  2.5165 -0.2646
   90MOL0     H12086   3.197   6.724   0.247 -0.7342 -2.5459 -0.1941
   90MOL0     H12087   2.928   6.660   0.147  0.2011 -0.6194  0.9643
   90MOL0     H12088   3.094   6.617   0.095  0.7023  0.5936  0.3722
   90MOL0     H12089   3.127   6.859   0.048 -1.1999  1.5010  1.8019
   90MOL0     H12090   2.955   6.879   0.050  0.5920  1.6194 -4.7179
   90MOL0     H12091   3.091   6.682  -0.122 -1.8733 -1.1390  1.1182
   90MOL0     H12092   2.929   6.724  -0.135 -0.7128  1.3175 -2.1520
   90MOL0     H12093   3.158   6.934  -0.178  1.5985 -3.8090  2.4603
   90MOL0     H12094   3.088   6.847  -0.301  2.8502  0.5535  1.4291
   90MOL0     H12095   2.861   6.963  -0.217  0.6316  0.3017 -1.0074
   90MOL0     H12096   2.983   7.074  -0.127  2.1718 -0.2048 -0.2214
   90MOL0     H12097   2.883   7.059  -0.407 -0.3236 -0.6134 -0.1058
   90MOL0     H12098   3.048   7.105  -0.378  0.3136 -2.9393  0.7419
   90MOL0     H12099   2.821   7.239  -0.230 -1.4893  3.9838 -1.5989
   90MOL0     H12100   2.992   7.296  -0.231  0.8648  5.2167 -5.1444
   90MOL0     H12101   3.110   7.384  -0.470  0.6991  4.0630 -3.4099
   90MOL0     H12102   3.093   7.608  -0.617  0.8145  0.8748 -1.4943
   90MOL0     H12103   3.060   7.482  -0.732  0.4917  1.5009 -0.9172
   90MOL0     H12104   3.000   7.715  -0.815  0.6991  0.1711 -1.0470
   90MOL0     H12105   2.850   7.611  -0.793  0.7701  0.7197  0.8127
   90MOL0     H12106   2.780   7.737  -0.599 -1.0100  1.5935 -0.0412
   90MOL0     H12107   2.842   7.855  -0.720  1.0690 -1.0977 -1.9963
   90MOL0     H12108   3.065   7.836  -0.574 -0.7713 -1.8464 -1.9960
   90MOL0     H12109   2.948   7.806  -0.452  1.5434 -1.3117 -0.0131
   90MOL0     H12110   2.913   8.231  -0.508  3.5387 -2.2912  2.1646
   90MOL0     H12111   2.733   8.348  -0.364  0.7341 -0.7573  1.7484
   90MOL0     H12112   2.319   8.411  -0.152  2.2560 -1.5714  0.2461
   90MOL0     H12113   2.133   8.475  -0.004  2.7389 -0.4656  0.3539
   90MOL0     H12114   1.997   8.374   0.385  1.5643  0.0274  0.7400
   90MOL0     H12115   2.164   8.352   0.328 -0.3605 -0.6360  1.0432
   90MOL0     H12116   2.119   8.571   0.372 -1.3271  2.0917  1.0549
   90MOL0     H12117   2.139   8.558   0.197  2.7526 -4.7345  0.2589
   90MOL0     H12118   1.877   8.560   0.189  0.2608  2.8392 -1.9284
   90MOL0     H12119   1.872   8.578   0.367 -1.8580 -0.2364 -1.7624
   90MOL0     H12120   2.032   8.773   0.322 -0.5358 -0.9651  2.7211
   90MOL0     H12121   1.859   8.789   0.328  1.0827 -0.2393  0.3151
   90MOL0     H12122   2.041   8.751   0.069  0.5224 -1.3146  1.6794
   90MOL0     H12123   1.989   8.900   0.127 -0.8141  0.2128 -1.3072
   90MOL0     H12124   1.818   8.671   0.013  0.3231 -0.2672  0.9018
   90MOL0     H12125   1.746   8.802   0.115 -1.0710 -1.0568  0.2353
   90MOL0     H12126   1.802   8.968  -0.055  0.8213  1.9481 -3.4039
   90MOL0     H12127   1.730   8.828  -0.141  1.0928 -0.8121 -2.1831
   90MOL0     H12128   1.908   8.894  -0.270 -2.6986 -0.1317  0.3682
   90MOL0     H12129   2.031   8.869  -0.135 -0.5873 -0.9889  2.2817
   90MOL0     H12130   2.121   8.077   0.141  4.1774 -2.8323 -0.2949
   90MOL0     H12131   2.289   8.001  -0.013 -0.1989 -0.2972  0.0958
   90MOL0     H12132   2.598   7.956  -0.241 -0.3609 -1.2244 -1.7400
   90MOL0     H12133   2.746   7.859  -0.395  1.4433  0.8905  3.6780
   90MOL0     H12134   3.173   6.827   0.491 -3.2678  0.8400 -0.5871
   90MOL0     H12135   3.257   6.815   0.734 -2.1363  0.3826  2.2713
   90MOL0     H12136   3.017   6.583   1.088  1.2938 -0.8732 -0.3282
   90MOL0     H12137   2.960   6.516   1.311  1.6759 -2.7980 -0.3705
   90MOL0     H12138   2.955   6.724   1.581  0.9629  0.1313 -3.1623
   90MOL0     H12139   3.108   6.805   1.541 -0.1104  1.2556  1.5734
   90MOL0     H12140   3.084   6.649   1.796  1.5634 -0.6278  0.6602
   90MOL0     H12141   3.057   6.826   1.776 -1.3102  1.5924 -4.4033
   90MOL0     H12142   3.320   6.810   1.675 -0.2382 -2.8222 -3.0464
   90MOL0     H12143   3.310   6.659   1.758  0.8781  0.4387 -1.2744
   90MOL0     H12144   3.247   6.801   1.972  0.1632  1.3717  0.0742
   90MOL0     H12145   3.415   6.782   1.904 -0.7147 -2.1617  0.7605
   90MOL0     H12146   3.304   7.186   1.929  1.2960  0.3102 -0.9592
   90MOL0     H12147   3.340   6.704   1.439  0.4226 -1.7860 -1.1596
   90MOL0     H12148   3.516   6.744   1.296  0.2099 -0.1424 -0.0969
   90MOL0     H12149   3.494   6.665   1.146  0.5192  1.3200  0.4401
   90MOL0     H12150   3.455   6.836   1.164 -1.2597  2.8369  2.4842
   91MOL0     O12151  10.751   9.619   1.917  1.1667 -0.2992 -0.1209
   91MOL0     C12152  10.721   9.513   1.977 -0.6923 -1.3499  0.2450
   91MOL0     O12153  10.635   9.418   1.921 -0.0500  0.4346 -0.0214
   91MOL0     C12154  10.614   9.428   1.787  0.2218  0.0351 -0.0532
   91MOL0     C12155  10.683   9.343   1.694 -0.9515 -0.7896 -0.0227
   91MOL0     C12156  10.657   9.361   1.559 -0.1616  0.0972 -0.5034
   91MOL0     C12157  10.572   9.454   1.505 -0.6620  0.3279  0.0224
   91MOL0     O12158  10.578   9.450   1.365  1.0292 -0.3867 -0.2399
   91MOL0     C12159  10.462   9.508   1.305  0.0629 -0.3343  0.8291
   91MOL0     C12160  10.447   9.472   1.155  0.0549  0.5984  0.3959
   91MOL0     C12161  10.308   9.470   1.101 -0.1584  0.9298  0.1586
   91MOL0     C12162  10.239   9.602   1.101 -1.2555  0.7797  0.6731
   91MOL0     C12163  10.084   9.590   1.062 -1.4383 -0.2057 -0.1578
   91MOL0     C12164  10.053   9.546   0.925 -0.0750 -0.2904  0.4106
   91MOL0     C12165  10.089   9.663   0.822  0.5018  0.1546  0.2223
   91MOL0     C12166  10.008   9.633   0.689 -0.3403 -0.9571  0.3723
   91MOL0     N12167  10.076   9.526   0.609 -0.8773 -0.6602  0.4844
   91MOL0     C12168  10.059   9.391   0.636 -0.5592  0.4511 -0.6048
   91MOL0     C12169  10.119   9.329   0.533  0.2249  0.1382  0.8099
   91MOL0     C12170  10.112   9.180   0.495 -0.0801 -0.2532 -0.4439
   91MOL0     C12171  10.244   9.123   0.435  0.3093  1.4274  0.3708
   91MOL0     C12172  10.359   9.147   0.535  0.3965  0.3428  0.1793
   91MOL0     C12173  10.496   9.097   0.486 -0.1268 -0.6870  0.4332
   91MOL0     O12174  10.530   9.131   0.354  0.0794  0.3068  0.0378
   91MOL0     C12175  10.661   9.108   0.317 -0.5065 -0.1082  0.9983
   91MOL0     C12176  10.701   9.163   0.191  0.4353  0.7222 -0.3468
   91MOL0     C12177  10.817   9.127   0.133 -0.0136 -0.4302  0.2128
   91MOL0     C12178  10.899   9.030   0.186 -0.7623  0.9423 -0.1550
   91MOL0     C12179  11.005   8.980   0.105  0.3050 -0.9626 -1.4096
   91MOL0     O12180  11.084   9.073   0.043 -0.4340 -0.0533 -0.1848
   91MOL0     C12181  11.178   9.027  -0.053  0.1723  0.2829 -0.9404
   91MOL0     C12182  11.128   8.990  -0.174 -0.6031  0.0381  0.4691
   91MOL0     C12183  11.222   8.969  -0.281  0.3094 -0.2501 -0.4668
   91MOL0     C12184  11.358   8.979  -0.259  0.1791 -0.1590 -0.2493
   91MOL0     O12185  11.433   8.963  -0.374 -0.2280  0.0749 -0.2830
   91MOL0     C12186  11.579   8.961  -0.369  0.7704  0.0722 -1.6661
   91MOL0     C12187  11.639   8.902  -0.493  0.1518 -1.2417  0.5509
   91MOL0     C12188  11.597   8.997  -0.602 -0.0220 -0.0691 -0.5028
   91MOL0     C12189  11.669   8.937  -0.733 -0.0516  0.6979 -0.3140
   91MOL0     C12190  11.611   8.986  -0.871 -0.8610 -0.0397  0.2489
   91MOL0     C12191  11.613   9.135  -0.884 -0.6326 -0.0338  0.6998
   91MOL0     C12192  11.573   9.182  -1.026  0.1537 -0.0049  0.3631
   91MOL0     C12193  11.625   9.316  -1.069 -0.0260 -0.3829 -0.5160
   91MOL0    Cl12194  11.515   9.452  -1.022 -0.0712 -0.1550  0.4330
   91MOL0     C12195  11.408   9.009  -0.130 -0.0341  0.2883 -0.4188
   91MOL0     C12196  11.319   9.030  -0.025 -0.6839  0.3494  0.1155
   91MOL0     O12197  11.022   8.859   0.099 -0.0643  0.0416  0.0922
   91MOL0     C12198  10.871   8.969   0.314 -1.1679 -0.4558 -0.8014
   91MOL0     C12199  10.758   9.017   0.387 -0.3174 -0.3508  0.1458
   91MOL0     N12200  10.165   9.418   0.445 -0.0886 -0.0775  0.2687
   91MOL0     N12201  10.136   9.536   0.483 -0.0487  0.4342 -0.0453
   91MOL0     C12202  10.506   9.542   1.587  0.5681  0.2223  0.2240
   91MOL0     C12203  10.529   9.529   1.724  0.7828 -0.3755 -0.8355
   91MOL0     C12204  10.757   9.526   2.122  0.3773  0.1665  0.1469
   91MOL0     C12205  10.658   9.502   2.219  0.1321  0.0332  1.0807
   91MOL0     C12206  10.677   9.543   2.346 -0.7890  0.3514 -0.2350
   91MOL0     C12207  10.805   9.580   2.402  0.9172  0.6063  1.4196
   91MOL0     O12208  10.805   9.602   2.535 -0.3538  0.0407 -0.2075
   91MOL0     C12209  10.929   9.577   2.600  0.4044  0.4898  0.0072
   91MOL0     C12210  10.890   9.552   2.747 -0.2474 -0.0431 -0.1333
   91MOL0     C12211  11.015   9.547   2.839  0.3981 -0.4108 -0.1367
   91MOL0     C12212  11.126   9.454   2.792 -0.4005  0.1142 -0.1478
   91MOL0     C12213  11.109   9.321   2.849 -0.1652  0.1503 -0.2032
   91MOL0     C12214  11.096   9.220   2.911  0.9736  0.6572 -0.2044
   91MOL0     C12215  10.907   9.589   2.309 -0.0458 -0.6610  0.0272
   91MOL0     C12216  10.886   9.559   2.174 -0.4861  0.5313  0.4184
   91MOL0     C12217  11.011   9.557   2.091  0.3191  0.4335  0.1154
   91MOL0     H12218  10.765   9.277   1.719 -2.3984 -2.5734  0.2173
   91MOL0     H12219  10.727   9.300   1.502 -0.8877 -1.2697  0.0341
   91MOL0     H12220  10.378   9.457   1.353  1.7466 -3.3297  0.8381
   91MOL0     H12221  10.467   9.615   1.329  1.8600 -0.1744 -0.1119
   91MOL0     H12222  10.494   9.374   1.145  1.1866  1.0963  0.6259
   91MOL0     H12223  10.509   9.535   1.090 -0.2509 -0.3367 -0.8225
   91MOL0     H12224  10.248   9.392   1.148  0.9651 -0.2991 -0.3928
   91MOL0     H12225  10.317   9.436   0.998  2.2037 -2.4560  1.3176
   91MOL0     H12226  10.250   9.644   1.201  5.8519 -1.4832  1.3466
   91MOL0     H12227  10.294   9.661   1.027 -2.1385  2.0720  1.0123
   91MOL0     H12228  10.040   9.508   1.120  2.4038 -2.3579  0.0260
   91MOL0     H12229  10.028   9.680   1.087  2.1334  1.5039  2.5916
   91MOL0     H12230  10.091   9.444   0.910  0.1518 -0.3869  1.5739
   91MOL0     H12231   9.946   9.530   0.938  0.2994 -1.1245  3.1424
   91MOL0     H12232  10.192   9.675   0.790  0.4890 -1.6712 -0.5923
   91MOL0     H12233  10.044   9.756   0.860 -2.5727 -1.5848  1.1720
   91MOL0     H12234   9.906   9.602   0.714  0.1196 -1.9349  1.1273
   91MOL0     H12235  10.001   9.720   0.623  2.9880  0.3775  1.5447
   91MOL0     H12236  10.017   9.345   0.725 -0.5324 -0.2617 -0.9549
   91MOL0     H12237  10.080   9.124   0.583  1.8230  1.6124  1.5649
   91MOL0     H12238  10.043   9.158   0.413  0.3388 -1.1150 -0.5749
   91MOL0     H12239  10.236   9.016   0.416 -0.4186  1.2471  1.5503
   91MOL0     H12240  10.262   9.174   0.340 -1.9473  0.3411 -0.7063
   91MOL0     H12241  10.339   9.085   0.623  0.8172 -0.7721 -0.4808
   91MOL0     H12242  10.356   9.254   0.553  0.4548  0.7269 -1.8382
   91MOL0     H12243  10.486   8.989   0.497 -0.2164 -0.5099  2.3996
   91MOL0     H12244  10.569   9.133   0.559 -1.4520  1.0490  0.9655
   91MOL0     H12245  10.637   9.241   0.150  1.9062  1.2890 -1.6766
   91MOL0     H12246  10.856   9.178   0.046  1.3047 -1.2868  0.2761
   91MOL0     H12247  11.021   8.998  -0.194 -1.0402 -1.7136  1.8468
   91MOL0     H12248  11.193   8.942  -0.382  0.8232  2.2314 -1.3523
   91MOL0     H12249  11.612   9.063  -0.349  1.2590 -0.1300 -1.4239
   91MOL0     H12250  11.626   8.898  -0.293 -1.6366  2.8367  2.5556
   91MOL0     H12251  11.747   8.901  -0.475  0.4186  0.9115 -0.6421
   91MOL0     H12252  11.604   8.800  -0.513 -0.5514 -1.1284  1.1739
   91MOL0     H12253  11.488   9.013  -0.604  0.1980  3.0606  2.7905
   91MOL0     H12254  11.647   9.089  -0.571  2.8043 -1.9413  0.8598
   91MOL0     H12255  11.663   8.827  -0.731 -1.5629  0.7491 -0.7490
   91MOL0     H12256  11.778   8.949  -0.729  0.1941 -1.0571 -0.7085
   91MOL0     H12257  11.509   8.949  -0.879 -0.5837 -0.9667  0.7951
   91MOL0     H12258  11.670   8.937  -0.949 -0.3067 -2.2311  1.9463
   91MOL0     H12259  11.558   9.187  -0.805 -1.3044 -0.5195  0.5584
   91MOL0     H12260  11.714   9.175  -0.868 -2.3603  3.6781  4.3267
   91MOL0     H12261  11.465   9.197  -1.030  0.6423  4.6256 -0.7956
   91MOL0     H12262  11.595   9.109  -1.105  1.3166  0.5377  0.1672
   91MOL0     H12263  11.719   9.348  -1.025 -1.8277  2.5018  1.6460
   91MOL0     H12264  11.641   9.294  -1.174  2.3407  2.1545 -0.7987
   91MOL0     H12265  11.517   9.008  -0.122  0.0179 -1.8988 -0.8385
   91MOL0     H12266  11.358   9.057   0.072 -0.0151 -1.2583  0.3262
   91MOL0     H12267  10.954   8.910   0.352  0.8974  1.6416 -1.7689
   91MOL0     H12268  10.723   8.954   0.468 -3.0584 -2.4511 -2.4336
   91MOL0     H12269  10.450   9.623   1.540  0.2674 -0.4645 -0.6436
   91MOL0     H12270  10.479   9.601   1.788 -1.6999 -1.5719 -1.3448
   91MOL0     H12271  10.555   9.484   2.193 -0.2106  2.5749  0.3716
   91MOL0     H12272  10.598   9.538   2.421 -0.4286 -0.9297  0.0870
   91MOL0     H12273  10.997   9.662   2.596 -0.0912  0.8851 -0.1809
   91MOL0     H12274  10.965   9.484   2.555 -0.1494  1.3750 -2.3939
   91MOL0     H12275  10.846   9.453   2.757  1.4211 -0.8895 -0.8237
   91MOL0     H12276  10.820   9.630   2.781  0.6844  1.5402 -1.6649
   91MOL0     H12277  10.998   9.519   2.943  3.5882 -1.1881  0.2726
   91MOL0     H12278  11.059   9.647   2.844  0.4417 -0.3702 -1.1212
   91MOL0     H12279  11.141   9.439   2.685  0.4077 -1.0232  0.0944
   91MOL0     H12280  11.221   9.495   2.827 -0.0617  0.9069 -1.9026
   91MOL0     H12281  11.064   9.127   2.955  0.4390 -0.3394 -2.5448
   91MOL0     H12282  11.003   9.619   2.348  0.2511 -0.5657 -0.7644
   91MOL0     H12283  11.078   9.479   2.129 -1.6845 -3.2274 -3.0303
   91MOL0     H12284  10.984   9.525   1.989 -3.1571  3.2523 -0.0452
   91MOL0     H12285  11.055   9.653   2.064  0.5749  1.4496  3.6501
   92MOL0     O12286  10.961   4.415   0.116 -0.5563 -0.1374  0.0536
   92MOL0     C12287  10.989   4.527   0.067 -0.6826  0.0840 -0.8878
   92MOL0     O12288  10.900   4.626   0.041 -0.3882 -0.1100 -0.1462
   92MOL0     C12289  10.766   4.589   0.078  0.2232  0.5504  0.8055
   92MOL0     C12290  10.719   4.579   0.213 -0.2376  0.6652  0.0138
   92MOL0     C12291  10.591   4.522   0.244  0.0989  1.0715 -0.4711
   92MOL0     C12292  10.515   4.467   0.138  0.9357 -0.3678  0.1912
   92MOL0     O12293  10.388   4.407   0.157 -0.5108 -0.8230  0.4156
   92MOL0     C12294  10.301   4.464   0.249 -0.4613 -0.1393  0.0507
   92MOL0     C12295  10.163   4.402   0.235 -0.0640 -0.6068 -0.1952
   92MOL0     C12296  10.040   4.508   0.274 -0.1907 -0.6161  0.8215
   92MOL0     C12297  10.050   4.563   0.411  0.7084 -1.0616  0.3425
   92MOL0     C12298   9.916   4.615   0.469 -0.2376  0.0074 -0.3801
   92MOL0     C12299   9.821   4.502   0.505 -0.7138 -0.6290 -0.2129
   92MOL0     C12300   9.689   4.550   0.561  0.0168 -0.5510 -0.4584
   92MOL0     C12301   9.617   4.656   0.472  0.2209  0.3678  0.3907
   92MOL0     N12302   9.594   4.596   0.341 -0.4302 -0.0978 -0.9477
   92MOL0     C12303   9.507   4.492   0.313 -0.3825  0.1349 -0.4819
   92MOL0     C12304   9.537   4.473   0.184  0.0493  1.0443  0.1948
   92MOL0     C12305   9.471   4.356   0.113  0.1808 -0.7540  0.2458
   92MOL0     C12306   9.354   4.403   0.030  0.0264 -0.4259  0.4543
   92MOL0     C12307   9.306   4.277  -0.038  0.5360 -0.4810 -0.3183
   92MOL0     C12308   9.173   4.299  -0.120  0.1839  0.4728 -0.4559
   92MOL0     O12309   9.214   4.400  -0.220 -0.1778 -0.2058 -0.3260
   92MOL0     C12310   9.115   4.430  -0.313  0.5165  0.3740  0.4410
   92MOL0     C12311   9.149   4.510  -0.430 -0.5745 -0.8978  0.8030
   92MOL0     C12312   9.057   4.532  -0.533 -0.1672  0.5065  0.6916
   92MOL0     C12313   8.929   4.479  -0.536  0.2311 -0.4460 -0.0386
   92MOL0     C12314   8.832   4.491  -0.649  1.1010  0.0165 -0.0360
   92MOL0     O12315   8.713   4.531  -0.622 -0.0817  0.1876  0.2370
   92MOL0     C12316   8.686   4.629  -0.526  0.2875 -0.0828 -0.0695
   92MOL0     C12317   8.548   4.639  -0.495 -1.2103  0.5146  0.8176
   92MOL0     C12318   8.498   4.728  -0.406  0.4680  0.2250 -0.5292
   92MOL0     C12319   8.580   4.829  -0.361  0.6917 -0.6018 -0.3774
   92MOL0     O12320   8.505   4.909  -0.281 -1.0915 -0.3105  0.1877
   92MOL0     C12321   8.574   5.021  -0.215  0.3442  0.7655  0.5436
   92MOL0     C12322   8.481   5.071  -0.104  0.1080 -0.0623  0.0719
   92MOL0     C12323   8.355   5.147  -0.158  0.6579  0.3558  0.2529
   92MOL0     C12324   8.389   5.254  -0.258  0.6168 -0.3486 -0.1382
   92MOL0     C12325   8.273   5.348  -0.289  0.1494  0.6437  0.2340
   92MOL0     C12326   8.307   5.440  -0.400  0.0974  0.1016 -0.2920
   92MOL0     C12327   8.202   5.549  -0.426  0.4703 -0.6588  0.1900
   92MOL0     C12328   8.176   5.577  -0.582 -0.3533  0.0131 -0.2267
   92MOL0    Cl12329   8.010   5.607  -0.634 -0.5913  0.3202  0.4272
   92MOL0     C12330   8.717   4.829  -0.389 -0.5313  0.0040 -0.8814
   92MOL0     C12331   8.765   4.725  -0.471 -1.3379 -0.6904 -1.4948
   92MOL0     O12332   8.873   4.463  -0.756  0.5490 -0.1401 -1.4959
   92MOL0     C12333   8.893   4.406  -0.423  0.6417  0.0781 -0.4482
   92MOL0     C12334   8.982   4.381  -0.316 -0.0883  0.2574 -0.3006
   92MOL0     N12335   9.645   4.554   0.135 -0.6059  0.8567 -0.4136
   92MOL0     N12336   9.677   4.630   0.233  0.7396  0.0721 -0.1275
   92MOL0     C12337  10.556   4.495   0.013  0.0357 -0.1256 -0.0334
   92MOL0     C12338  10.677   4.551  -0.023  0.2179  0.3229 -0.1638
   92MOL0     C12339  11.136   4.563   0.033  0.4329 -0.3167 -0.1881
   92MOL0     C12340  11.164   4.686  -0.040  0.3122  0.7545  0.4177
   92MOL0     C12341  11.296   4.729  -0.061 -0.9251  0.8387  0.4261
   92MOL0     C12342  11.404   4.636  -0.032  0.4315  0.2829  0.5583
   92MOL0     O12343  11.533   4.675  -0.056  0.4300 -0.8293 -0.3501
   92MOL0     C12344  11.645   4.589  -0.056 -0.2078  1.0015 -0.4297
   92MOL0     C12345  11.639   4.494  -0.178 -0.9841 -0.1312 -0.2567
   92MOL0     C12346  11.776   4.421  -0.198 -0.3535  0.3180 -0.4519
   92MOL0     C12347  11.763   4.273  -0.240  0.4974 -0.7028  1.1503
   92MOL0     C12348  11.683   4.271  -0.364 -0.4177  0.2681 -0.2999
   92MOL0     C12349  11.631   4.290  -0.468  1.1279  0.4627 -0.7418
   92MOL0     C12350  11.379   4.518   0.022  0.5378 -1.3065  0.0964
   92MOL0     C12351  11.246   4.474   0.054  0.1234  0.6979  0.1580
   92MOL0     C12352  11.241   4.332   0.112 -0.8376  0.3237 -0.0499
   92MOL0     H12353  10.783   4.596   0.299 -2.1941  1.6580  1.3593
   92MOL0     H12354  10.566   4.525   0.350 -2.9530  1.3532 -1.0858
   92MOL0     H12355  10.354   4.454   0.344 -1.8466 -1.7359  0.7047
   92MOL0     H12356  10.294   4.568   0.213  0.6408 -0.7397 -2.0617
   92MOL0     H12357  10.148   4.310   0.292  1.8423  1.8972  4.9562
   92MOL0     H12358  10.149   4.374   0.130 -1.1697  0.1531 -0.2582
   92MOL0     H12359   9.959   4.435   0.271  0.4569 -1.3413 -1.8642
   92MOL0     H12360  10.005   4.575   0.196  1.5137  1.5035  1.7742
   92MOL0     H12361  10.090   4.487   0.478 -1.4032  0.0686  3.0798
   92MOL0     H12362  10.126   4.642   0.415 -3.1489  3.0157  1.0649
   92MOL0     H12363   9.941   4.689   0.545  2.7974 -3.0487  1.8938
   92MOL0     H12364   9.872   4.681   0.394  0.3518  2.8182  1.6036
   92MOL0     H12365   9.804   4.441   0.416  1.4744 -0.5718 -0.7261
   92MOL0     H12366   9.862   4.437   0.582 -2.8305 -0.4086  1.1808
   92MOL0     H12367   9.720   4.591   0.658  0.4449 -0.9672 -0.4155
   92MOL0     H12368   9.619   4.469   0.581  1.3895 -1.4858  0.7639
   92MOL0     H12369   9.521   4.671   0.522  1.0359  2.0728  1.5415
   92MOL0     H12370   9.668   4.753   0.471  2.1903 -0.6032  0.7645
   92MOL0     H12371   9.464   4.423   0.385  3.2889 -2.0668 -0.1897
   92MOL0     H12372   9.544   4.314   0.043 -0.2702 -4.2115  1.6475
   92MOL0     H12373   9.445   4.284   0.191 -0.7003  0.1246  0.8001
   92MOL0     H12374   9.273   4.453   0.086 -1.0963 -1.5402 -0.1267
   92MOL0     H12375   9.397   4.468  -0.047  2.2668 -0.4034  1.6479
   92MOL0     H12376   9.297   4.194   0.032 -0.2978 -0.9419 -0.9628
   92MOL0     H12377   9.380   4.254  -0.114 -3.9076 -1.3230 -4.8802
   92MOL0     H12378   9.105   4.328  -0.039 -0.1907  1.3517 -1.0688
   92MOL0     H12379   9.146   4.205  -0.168  5.9542 -1.4711 -0.7019
   92MOL0     H12380   9.244   4.562  -0.434 -0.9839 -0.2182 -0.7937
   92MOL0     H12381   9.078   4.594  -0.620 -0.5188  0.7254  0.7589
   92MOL0     H12382   8.473   4.574  -0.538 -1.4676  2.3995 -1.7701
   92MOL0     H12383   8.390   4.733  -0.404  0.4848  0.5882 -0.1861
   92MOL0     H12384   8.672   4.996  -0.172  0.5915  2.8577  1.2897
   92MOL0     H12385   8.595   5.103  -0.284  2.8697  0.4808  0.8629
   92MOL0     H12386   8.447   4.998  -0.030 -2.6080  0.9587 -0.0484
   92MOL0     H12387   8.543   5.152  -0.063  0.9371  1.9915 -4.6096
   92MOL0     H12388   8.301   5.077  -0.222 -0.3715  2.9825 -1.9756
   92MOL0     H12389   8.291   5.178  -0.075  0.4236  0.6637 -0.0385
   92MOL0     H12390   8.422   5.200  -0.347 -2.5840 -1.8023 -0.6171
   92MOL0     H12391   8.473   5.320  -0.235  0.7273 -0.7705  0.7278
   92MOL0     H12392   8.223   5.411  -0.214  2.7849  3.2168  0.0539
   92MOL0     H12393   8.198   5.276  -0.322  0.9258 -0.5136  0.9103
   92MOL0     H12394   8.402   5.492  -0.391 -0.7518  1.7601 -0.4178
   92MOL0     H12395   8.320   5.390  -0.496  0.5807 -0.9660  0.3128
   92MOL0     H12396   8.240   5.635  -0.369  3.6666 -3.2797  2.3406
   92MOL0     H12397   8.108   5.517  -0.379 -0.4271  0.9576 -0.4151
   92MOL0     H12398   8.230   5.666  -0.615 -1.7730  1.9940  2.3890
   92MOL0     H12399   8.213   5.493  -0.641  1.4377  1.1014 -0.7228
   92MOL0     H12400   8.782   4.906  -0.348 -2.6655  1.0717  0.7044
   92MOL0     H12401   8.868   4.727  -0.506 -0.5464  0.3573  0.7313
   92MOL0     H12402   8.793   4.364  -0.431  0.7903 -0.4584  0.4075
   92MOL0     H12403   8.961   4.302  -0.244  1.7815  0.5057  0.5790
   92MOL0     H12404  10.493   4.471  -0.072 -0.3178  0.0115  0.1872
   92MOL0     H12405  10.707   4.567  -0.126 -1.0872 -0.2212 -0.6601
   92MOL0     H12406  11.085   4.758  -0.054  0.0842 -0.1125 -4.7672
   92MOL0     H12407  11.324   4.825  -0.103  1.0950 -0.7651 -2.1642
   92MOL0     H12408  11.656   4.524   0.032 -0.9125  0.3604 -0.7947
   92MOL0     H12409  11.730   4.657  -0.053 -0.5757  1.6069 -2.3012
   92MOL0     H12410  11.615   4.561  -0.260  1.1909  0.2606 -0.6478
   92MOL0     H12411  11.556   4.424  -0.169  0.1306 -1.2697  1.9312
   92MOL0     H12412  11.841   4.439  -0.112 -1.2869  1.2194  0.0939
   92MOL0     H12413  11.822   4.485  -0.274 -0.7836 -0.2746 -1.2289
   92MOL0     H12414  11.859   4.224  -0.261 -1.3590 -3.9082 -0.6333
   92MOL0     H12415  11.710   4.211  -0.167 -2.0804 -1.2785 -1.0858
   92MOL0     H12416  11.591   4.311  -0.565  4.1747  0.7221 -2.0508
   92MOL0     H12417  11.454   4.453   0.064 -1.0194 -3.6748 -0.5972
   92MOL0     H12418  11.331   4.275   0.089 -0.9092 -0.7877  2.1475
   92MOL0     H12419  11.241   4.339   0.221  1.5575 -1.6428  0.1617
   92MOL0     H12420  11.152   4.282   0.073 -2.5462  1.8206  1.6508
   93MOL0     O12421   5.683   5.737   5.957  0.3493  0.2728  0.1740
   93MOL0     C12422   5.732   5.851   5.957  0.0561  0.0932  0.0372
   93MOL0     O12423   5.667   5.963   5.930 -0.2858  0.2855  0.1318
   93MOL0     C12424   5.549   5.958   5.865  0.8966 -0.0534  0.2277
   93MOL0     C12425   5.446   5.871   5.905  0.8301  1.0371 -0.2247
   93MOL0     C12426   5.317   5.889   5.854 -0.5459 -0.4752 -0.5366
   93MOL0     C12427   5.288   5.989   5.760 -0.1838 -0.4325  0.9389
   93MOL0     O12428   5.159   6.008   5.732 -0.1314 -0.3928 -0.5632
   93MOL0     C12429   5.113   6.129   5.775  0.2411 -0.5929 -0.2657
   93MOL0     C12430   5.012   6.087   5.888 -0.3905  0.0511 -0.2699
   93MOL0     C12431   4.951   6.212   5.950 -0.2175 -0.4033  0.0104
   93MOL0     C12432   5.034   6.313   6.027  0.4356 -0.2512 -1.0697
   93MOL0     C12433   5.137   6.246   6.120  0.2529 -0.7578  0.0278
   93MOL0     C12434   5.277   6.231   6.050 -0.5488 -0.1231  0.5210
   93MOL0     C12435   5.401   6.246   6.137 -0.2796  0.0167  0.0010
   93MOL0     C12436   5.419   6.109   6.211  0.8201  0.4628  0.2284
   93MOL0     N12437   5.439   6.137   6.358  0.5261 -0.8460  0.4861
   93MOL0     C12438   5.562   6.180   6.401 -0.6650 -0.3886  0.2656
   93MOL0     C12439   5.552   6.182   6.534  0.9808 -0.1123  0.3036
   93MOL0     C12440   5.674   6.218   6.627 -0.5842  1.5104  0.0751
   93MOL0     C12441   5.626   6.289   6.752  0.0045 -0.4508 -0.0220
   93MOL0     C12442   5.737   6.353   6.831 -0.1225 -0.1401 -0.3067
   93MOL0     C12443   5.692   6.451   6.939  0.1671 -0.4058  0.8046
   93MOL0     O12444   5.816   6.516   6.987  0.5234 -0.8055  0.3505
   93MOL0     C12445   5.806   6.614   7.079  0.1701  0.7353 -0.7345
   93MOL0     C12446   5.924   6.688   7.103  0.2439 -1.0262 -0.3565
   93MOL0     C12447   5.926   6.779   7.211  0.1696 -0.4219  0.1841
   93MOL0     C12448   5.816   6.802   7.296  0.4817  0.8666  0.6230
   93MOL0     C12449   5.813   6.894   7.410 -0.5912  0.4144  0.2862
   93MOL0     O12450   5.687   6.902   7.455  0.0077 -0.7406  0.0022
   93MOL0     C12451   5.653   7.004   7.549 -0.1728  0.1091  0.9703
   93MOL0     C12452   5.687   7.136   7.519  1.0532 -0.0452  0.3615
   93MOL0     C12453   5.646   7.235   7.614 -0.2535 -0.2488 -0.2268
   93MOL0     C12454   5.576   7.202   7.732  0.3719  0.8128  1.3507
   93MOL0     O12455   5.533   7.296   7.827  0.1355  0.4636 -0.0061
   93MOL0     C12456   5.535   7.433   7.806  1.2984 -0.4805  1.5730
   93MOL0     C12457   5.423   7.476   7.697 -0.0433  0.0253 -0.1349
   93MOL0     C12458   5.445   7.620   7.653  0.0537  1.0905 -0.5054
   93MOL0     C12459   5.316   7.698   7.627 -1.2385 -0.0897  0.3106
   93MOL0     C12460   5.340   7.817   7.538 -0.3424 -0.2424  1.0568
   93MOL0     C12461   5.222   7.912   7.541 -0.1088 -0.1407  0.4540
   93MOL0     C12462   5.108   7.857   7.460  1.0128 -0.3934 -0.0055
   93MOL0     C12463   4.985   7.929   7.521 -0.5868 -0.1698  0.3287
   93MOL0    Cl12464   4.831   7.880   7.437 -0.5108 -0.1807  0.0773
   93MOL0     C12465   5.538   7.061   7.753  0.2057 -0.0969 -0.3805
   93MOL0     C12466   5.582   6.968   7.659  0.4626 -0.4638  0.1316
   93MOL0     O12467   5.919   6.941   7.462 -0.3955  0.2221 -0.5395
   93MOL0     C12468   5.698   6.711   7.269 -0.3790 -0.7413 -0.3395
   93MOL0     C12469   5.695   6.627   7.164 -0.4680 -1.2114  0.6147
   93MOL0     N12470   5.425   6.139   6.572  0.1386 -0.8187  0.4096
   93MOL0     N12471   5.363   6.102   6.461  1.1198 -0.6952 -0.6051
   93MOL0     C12472   5.397   6.073   5.718 -0.0851  0.0161 -0.2172
   93MOL0     C12473   5.520   6.054   5.770 -0.0514 -0.2041  0.0913
   93MOL0     C12474   5.857   5.856   6.038  0.4603 -1.0583  0.2932
   93MOL0     C12475   5.855   5.927   6.163 -0.2612 -0.4501  0.2808
   93MOL0     C12476   5.949   5.910   6.268 -0.6962 -0.0824 -0.2418
   93MOL0     C12477   6.059   5.832   6.243 -0.3650  0.9626 -0.2641
   93MOL0     O12478   6.153   5.808   6.333 -0.4955 -0.1215 -0.7184
   93MOL0     C12479   6.147   5.865   6.461  0.1242  0.4396  0.1029
   93MOL0     C12480   6.194   6.012   6.452 -0.1216 -0.0792 -0.9090
   93MOL0     C12481   6.342   6.023   6.472  0.1075  0.0966  0.3621
   93MOL0     C12482   6.425   5.954   6.355 -0.9354  0.4149 -0.4503
   93MOL0     C12483   6.554   5.914   6.404 -0.0240  0.6681  0.1483
   93MOL0     C12484   6.665   5.879   6.426 -0.4827  0.7940  0.1984
   93MOL0     C12485   6.073   5.773   6.119 -0.4675 -0.4407 -0.2630
   93MOL0     C12486   5.980   5.786   6.015  0.3382 -0.0410 -0.3249
   93MOL0     C12487   6.006   5.702   5.887  0.5369  0.1116 -0.2166
   93MOL0     H12488   5.448   5.789   5.977 -0.6244  0.3488 -0.9232
   93MOL0     H12489   5.233   5.834   5.895 -0.6640  2.2247  3.4098
   93MOL0     H12490   5.188   6.202   5.804 -0.9124  1.1365 -1.4470
   93MOL0     H12491   5.056   6.175   5.694  1.2358  2.3159  0.5791
   93MOL0     H12492   5.061   6.030   5.967  1.0201 -0.0056 -1.1534
   93MOL0     H12493   4.937   6.021   5.844 -3.4416  3.0037  0.0679
   93MOL0     H12494   4.879   6.170   6.021  0.4754 -0.5288  0.6549
   93MOL0     H12495   4.898   6.263   5.869  0.7289 -2.7994 -2.2388
   93MOL0     H12496   5.080   6.382   5.956 -1.2093  0.2934 -1.6606
   93MOL0     H12497   4.964   6.372   6.087 -0.6513 -0.5789 -1.9879
   93MOL0     H12498   5.164   6.321   6.195  0.2338 -0.0490 -0.6668
   93MOL0     H12499   5.109   6.151   6.167  0.8610 -2.1972 -2.3675
   93MOL0     H12500   5.278   6.136   5.996 -2.7337 -2.1122  3.6700
   93MOL0     H12501   5.290   6.306   5.972 -2.1345 -1.1823 -0.8368
   93MOL0     H12502   5.396   6.339   6.195  1.9279 -0.3452  0.8630
   93MOL0     H12503   5.483   6.271   6.069 -1.6877  4.0559 -0.5055
   93MOL0     H12504   5.328   6.050   6.209  1.5413 -0.8101  2.1562
   93MOL0     H12505   5.503   6.049   6.174 -0.2336  0.1447 -1.8210
   93MOL0     H12506   5.650   6.216   6.348  0.8739 -2.8051  1.0421
   93MOL0     H12507   5.720   6.122   6.652 -0.9284  1.1665 -0.5818
   93MOL0     H12508   5.752   6.275   6.576  2.2263 -1.8797  0.2311
   93MOL0     H12509   5.554   6.366   6.721 -1.1311 -1.6904 -0.5883
   93MOL0     H12510   5.571   6.218   6.815  1.1941 -1.8799 -0.5461
   93MOL0     H12511   5.807   6.412   6.772  0.2223  0.3949  0.6255
   93MOL0     H12512   5.804   6.283   6.881 -0.3705  0.8300  1.4819
   93MOL0     H12513   5.653   6.390   7.020  0.2474  0.6255  1.6399
   93MOL0     H12514   5.611   6.519   6.911  0.3257 -0.3211  0.5382
   93MOL0     H12515   6.002   6.672   7.029 -0.8375 -1.4720 -1.4352
   93MOL0     H12516   6.014   6.835   7.240 -0.1110 -0.1447  0.5010
   93MOL0     H12517   5.733   7.169   7.426 -0.7010  0.0509 -0.5216
   93MOL0     H12518   5.681   7.336   7.592 -0.4523 -0.1045  0.1094
   93MOL0     H12519   5.498   7.479   7.899 -2.6440 -0.2120  0.0525
   93MOL0     H12520   5.633   7.480   7.788  1.7848 -1.8134  0.5716
   93MOL0     H12521   5.415   7.412   7.610 -1.8818 -2.9932  2.0647
   93MOL0     H12522   5.326   7.473   7.747 -0.5334  0.9882 -0.9804
   93MOL0     H12523   5.492   7.682   7.730  1.3046  0.1606 -0.4838
   93MOL0     H12524   5.518   7.610   7.573 -0.2466  1.0304 -0.7731
   93MOL0     H12525   5.304   7.745   7.725  3.8910 -3.5608  3.0835
   93MOL0     H12526   5.240   7.631   7.586 -1.2200 -0.9250  1.5954
   93MOL0     H12527   5.353   7.786   7.434  1.3482 -2.0095  1.7217
   93MOL0     H12528   5.437   7.860   7.567  0.8479 -0.4448 -2.1402
   93MOL0     H12529   5.192   7.925   7.645 -0.9059  0.3795  0.1700
   93MOL0     H12530   5.255   8.008   7.500  0.2334 -1.3628 -2.3964
   93MOL0     H12531   5.098   7.749   7.475  1.0087 -0.0623  3.0335
   93MOL0     H12532   5.119   7.884   7.355  0.8458 -0.4166 -0.0286
   93MOL0     H12533   4.975   7.901   7.626 -1.3632 -0.0521  0.2919
   93MOL0     H12534   4.995   8.038   7.515 -0.8998  0.0333  2.5360
   93MOL0     H12535   5.478   7.026   7.836 -1.4081  3.2408  0.0286
   93MOL0     H12536   5.562   6.862   7.671  3.5850 -1.0392  1.2831
   93MOL0     H12537   5.620   6.729   7.342  2.2541  1.6997  2.1531
   93MOL0     H12538   5.602   6.573   7.158 -1.6190  0.7627 -0.5157
   93MOL0     H12539   5.382   6.160   5.655  1.3917 -0.2464 -0.9724
   93MOL0     H12540   5.603   6.120   5.746  0.2119  0.2084  1.9450
   93MOL0     H12541   5.763   5.979   6.185 -1.0980 -0.3742 -2.8893
   93MOL0     H12542   5.942   5.957   6.366  2.8769 -1.4448  0.8324
   93MOL0     H12543   6.208   5.808   6.531 -1.1875  1.2353  1.9750
   93MOL0     H12544   6.046   5.862   6.502 -0.0349 -0.8401 -0.3361
   93MOL0     H12545   6.141   6.076   6.523  3.0269  0.8881  0.7744
   93MOL0     H12546   6.174   6.057   6.354  1.0946 -0.9855 -1.6127
   93MOL0     H12547   6.373   5.970   6.562  2.1833 -3.1710 -2.0020
   93MOL0     H12548   6.370   6.127   6.487 -0.4004  0.3749 -0.4950
   93MOL0     H12549   6.375   5.866   6.313  2.8650 -2.2160  0.0902
   93MOL0     H12550   6.448   6.022   6.273  2.8269 -1.1685 -0.8900
   93MOL0     H12551   6.767   5.859   6.449 -0.1182  0.2180 -1.7171
   93MOL0     H12552   6.167   5.719   6.112 -0.0896 -0.3165  2.5704
   93MOL0     H12553   6.098   5.644   5.892  1.5198  1.7029  1.9020
   93MOL0     H12554   5.915   5.643   5.870  1.3379 -0.6662 -2.0836
   93MOL0     H12555   6.023   5.771   5.804 -1.3202 -1.6038 -2.1278
   94MOL0     O12556   3.523   0.087   3.235  0.8967  0.5201 -0.2095
   94MOL0     C12557   3.530  -0.011   3.160  0.5723 -0.2114 -1.0291
   94MOL0     O12558   3.423  -0.089   3.116  0.1640  1.1910 -0.1498
   94MOL0     C12559   3.300  -0.082   3.182 -0.3061 -0.2876  0.0781
   94MOL0     C12560   3.265  -0.050   3.320  0.0678 -0.0019  0.5436
   94MOL0     C12561   3.120  -0.037   3.354 -0.6496  0.3395 -0.3274
   94MOL0     C12562   3.024  -0.090   3.268 -0.4333  0.5403  0.2443
   94MOL0     O12563   2.894  -0.118   3.297 -0.4156  0.2870 -0.4702
   94MOL0     C12564   2.822  -0.055   3.402  0.5006  0.7061  0.0005
   94MOL0     C12565   2.668  -0.098   3.397 -0.5445  0.9020  0.5771
   94MOL0     C12566   2.667  -0.248   3.366  0.0583 -0.7724 -0.0940
   94MOL0     C12567   2.749  -0.341   3.465 -1.2389 -1.0784  0.3359
   94MOL0     C12568   2.699  -0.486   3.459 -0.0019 -0.2252  0.7207
   94MOL0     C12569   2.753  -0.575   3.581  0.1244 -0.5143  0.3974
   94MOL0     C12570   2.692  -0.725   3.580 -0.2689  0.1930 -0.8513
   94MOL0     C12571   2.735  -0.815   3.699 -0.0139 -0.7321  0.1430
   94MOL0     N12572   2.655  -0.935   3.700  0.6630 -0.4105 -0.6613
   94MOL0     C12573   2.618  -1.004   3.594  0.2803  0.2235  0.0154
   94MOL0     C12574   2.580  -1.129   3.644 -0.1945 -0.1247  0.8840
   94MOL0     C12575   2.535  -1.239   3.554 -0.1321 -0.6376  0.2205
   94MOL0     C12576   2.431  -1.321   3.623 -0.3165 -0.0720 -0.3427
   94MOL0     C12577   2.366  -1.405   3.515 -1.1577 -0.3542 -0.0725
   94MOL0     C12578   2.277  -1.511   3.578 -0.1357 -0.7237 -0.4573
   94MOL0     O12579   2.176  -1.466   3.674  1.0576  0.8012  1.3139
   94MOL0     C12580   2.085  -1.563   3.708  0.6585 -0.2792 -0.1527
   94MOL0     C12581   2.100  -1.700   3.701  0.0577 -1.4908 -0.0467
   94MOL0     C12582   1.997  -1.791   3.728 -0.1010  0.5488 -0.3286
   94MOL0     C12583   1.869  -1.747   3.759  0.6703 -0.1270 -1.0260
   94MOL0     C12584   1.747  -1.837   3.766  0.0710 -0.1797  0.7154
   94MOL0     O12585   1.754  -1.966   3.724 -0.2897  0.3333  0.7579
   94MOL0     C12586   1.640  -2.024   3.682 -0.0420  0.1629 -0.0322
   94MOL0     C12587   1.592  -2.003   3.556 -0.0607  0.2377 -0.6849
   94MOL0     C12588   1.472  -2.057   3.512  0.3645 -0.6163 -0.6732
   94MOL0     C12589   1.398  -2.137   3.594  0.9805 -0.6632 -0.1475
   94MOL0     O12590   1.277  -2.199   3.552  0.4612 -0.2891  0.5144
   94MOL0     C12591   1.276  -2.264   3.420 -0.2514  0.6262 -1.1277
   94MOL0     C12592   1.199  -2.399   3.417  0.3133  0.3166 -0.6693
   94MOL0     C12593   1.261  -2.501   3.515  0.8316 -0.1968  1.2685
   94MOL0     C12594   1.415  -2.496   3.514 -0.0055  0.3940 -0.1556
   94MOL0     C12595   1.468  -2.635   3.556 -1.6406  0.5405  0.2193
   94MOL0     C12596   1.614  -2.650   3.515  0.0503  0.7821  0.7866
   94MOL0     C12597   1.660  -2.603   3.373 -0.4093 -0.0763 -0.2910
   94MOL0     C12598   1.807  -2.638   3.350  0.0850 -0.9746  0.1063
   94MOL0    Cl12599   1.895  -2.493   3.275 -0.0630 -0.1986 -0.2026
   94MOL0     C12600   1.439  -2.145   3.718  0.3349  0.0227 -0.8511
   94MOL0     C12601   1.566  -2.107   3.768  0.1660 -0.3603 -0.4245
   94MOL0     O12602   1.644  -1.777   3.796 -0.5906 -0.0123  0.0523
   94MOL0     C12603   1.861  -1.618   3.796  0.2209 -0.8824 -0.7209
   94MOL0     C12604   1.967  -1.522   3.766  0.0339  0.5529 -0.7158
   94MOL0     N12605   2.595  -1.132   3.781 -0.1040  0.0794  0.1670
   94MOL0     N12606   2.645  -1.020   3.815  0.3282 -0.1470  0.0898
   94MOL0     C12607   3.068  -0.133   3.146  0.5922 -0.7220  0.2197
   94MOL0     C12608   3.199  -0.127   3.096 -0.3304  0.6961 -1.0211
   94MOL0     C12609   3.664  -0.044   3.121 -0.5556 -0.2967 -0.4839
   94MOL0     C12610   3.747   0.068   3.090 -0.2965  0.1210 -0.2227
   94MOL0     C12611   3.878   0.051   3.071  0.8077  0.6477  0.1110
   94MOL0     C12612   3.945  -0.069   3.068  0.1717  0.7871 -0.1745
   94MOL0     O12613   4.082  -0.062   3.054 -0.1059  0.0056  0.4306
   94MOL0     C12614   4.158  -0.184   3.055  0.8747 -0.2480 -0.1138
   94MOL0     C12615   4.140  -0.262   2.918 -0.7200 -0.7529  0.2667
   94MOL0     C12616   4.237  -0.380   2.915 -0.5853 -0.3436  0.3461
   94MOL0     C12617   4.389  -0.341   2.922  0.1848 -0.2351  0.5892
   94MOL0     C12618   4.442  -0.318   2.784 -0.2129  0.8862 -0.0165
   94MOL0     C12619   4.475  -0.285   2.674  0.2772 -1.2666 -0.7561
   94MOL0     C12620   3.858  -0.189   3.087 -0.2367 -0.6911 -0.0051
   94MOL0     C12621   3.720  -0.175   3.110 -0.8263 -0.0455  0.0624
   94MOL0     C12622   3.638  -0.301   3.134 -0.0691  0.9007  0.0334
   94MOL0     H12623   3.343  -0.021   3.390 -0.7798  0.1312  1.4499
   94MOL0     H12624   3.093   0.006   3.449 -0.4742 -1.4989  0.5958
   94MOL0     H12625   2.879  -0.090   3.489 -0.7806 -1.4621  0.0137
   94MOL0     H12626   2.827   0.055   3.406 -1.8210  0.8408  0.2690
   94MOL0     H12627   2.617  -0.046   3.316  0.1898  2.0325  0.8130
   94MOL0     H12628   2.619  -0.091   3.495  1.8603  0.6667  1.8879
   94MOL0     H12629   2.708  -0.254   3.265  0.7461 -0.5460  0.1635
   94MOL0     H12630   2.565  -0.286   3.362  0.7565 -2.7115 -0.7655
   94MOL0     H12631   2.856  -0.333   3.440 -1.2319  2.5241  0.9467
   94MOL0     H12632   2.745  -0.313   3.571 -3.8389 -3.4133  0.9624
   94MOL0     H12633   2.591  -0.499   3.459  0.2146 -2.7195  1.3335
   94MOL0     H12634   2.732  -0.539   3.369  0.2580  0.0237  0.6693
   94MOL0     H12635   2.863  -0.574   3.582  0.1764  0.6840 -1.4126
   94MOL0     H12636   2.730  -0.519   3.672  1.7159 -1.0562  1.1734
   94MOL0     H12637   2.720  -0.763   3.481  0.1063  0.5485 -0.8825
   94MOL0     H12638   2.583  -0.718   3.588 -0.1780  0.9910 -0.1619
   94MOL0     H12639   2.841  -0.842   3.703 -0.1503 -1.2781  3.9179
   94MOL0     H12640   2.713  -0.751   3.786  1.1749  2.6313 -1.8237
   94MOL0     H12641   2.609  -0.965   3.493 -0.1230  0.8882  0.3050
   94MOL0     H12642   2.501  -1.182   3.467  0.1565 -1.6504 -0.5702
   94MOL0     H12643   2.618  -1.305   3.529  1.9384  0.7851  2.8028
   94MOL0     H12644   2.478  -1.381   3.701  1.1932  0.8978 -0.4515
   94MOL0     H12645   2.362  -1.263   3.685  0.3322  0.2252  0.1164
   94MOL0     H12646   2.428  -1.444   3.433 -1.1094 -1.0254  0.2749
   94MOL0     H12647   2.309  -1.333   3.456 -1.2986 -1.6720 -1.6403
   94MOL0     H12648   2.338  -1.578   3.639  1.6634  1.4150  0.2027
   94MOL0     H12649   2.230  -1.563   3.494  0.6966 -1.4792 -0.4674
   94MOL0     H12650   2.187  -1.753   3.662  1.7928  0.5123  0.8809
   94MOL0     H12651   2.011  -1.898   3.713  0.0834  0.5054  0.1334
   94MOL0     H12652   1.641  -1.937   3.485 -0.0807  2.2303  1.0595
   94MOL0     H12653   1.450  -2.030   3.410  3.0882  2.7162 -0.5611
   94MOL0     H12654   1.214  -2.199   3.358 -3.7803  0.2301  1.6819
   94MOL0     H12655   1.381  -2.266   3.389  0.2882  1.6299  0.4827
   94MOL0     H12656   1.093  -2.378   3.435  0.3478  2.8292 -2.9021
   94MOL0     H12657   1.206  -2.442   3.317  0.4522  3.2799 -2.0339
   94MOL0     H12658   1.228  -2.469   3.614 -0.7116 -2.1424  1.4381
   94MOL0     H12659   1.217  -2.600   3.502 -0.3074  0.1014  2.5675
   94MOL0     H12660   1.446  -2.420   3.586 -1.8448 -1.6449  3.0548
   94MOL0     H12661   1.438  -2.468   3.411  1.6812  0.2211  0.1495
   94MOL0     H12662   1.409  -2.711   3.505  0.5205 -0.1317 -1.4003
   94MOL0     H12663   1.454  -2.655   3.663 -0.7742 -0.6592  0.1224
   94MOL0     H12664   1.669  -2.597   3.593 -1.0831 -0.6116  2.6231
   94MOL0     H12665   1.639  -2.757   3.521  0.0909  0.7803  0.5703
   94MOL0     H12666   1.643  -2.495   3.367 -2.5723 -0.3772 -0.3479
   94MOL0     H12667   1.597  -2.641   3.291 -3.6487  1.1332  1.4427
   94MOL0     H12668   1.854  -2.668   3.444 -0.6002 -0.5720  0.5781
   94MOL0     H12669   1.815  -2.721   3.279  2.3645 -1.2565  0.6153
   94MOL0     H12670   1.376  -2.196   3.790 -1.4009  2.5044 -0.4790
   94MOL0     H12671   1.606  -2.127   3.867  0.5956 -0.8654 -0.6950
   94MOL0     H12672   1.769  -1.587   3.844  1.2316 -0.0631  0.7704
   94MOL0     H12673   1.956  -1.418   3.794 -1.5927  0.3919 -0.6723
   94MOL0     H12674   2.991  -0.183   3.088  1.9423 -0.9549 -1.4605
   94MOL0     H12675   3.230  -0.181   3.007  0.5886  1.2836 -1.0658
   94MOL0     H12676   3.705   0.168   3.098 -1.5549 -0.1785 -2.2899
   94MOL0     H12677   3.952   0.130   3.066  1.1862  0.3350 -4.8901
   94MOL0     H12678   4.124  -0.246   3.139 -0.0624 -0.4680 -0.6432
   94MOL0     H12679   4.259  -0.153   3.083  1.3592 -2.7098  1.1549
   94MOL0     H12680   4.173  -0.188   2.845 -2.4223  3.3547  3.2364
   94MOL0     H12681   4.035  -0.289   2.898  0.1757 -3.2821 -1.6324
   94MOL0     H12682   4.232  -0.434   2.820  1.7202  1.3102 -0.8243
   94MOL0     H12683   4.203  -0.454   2.988 -0.1038  1.0907  2.0958
   94MOL0     H12684   4.415  -0.263   2.994  2.3788 -0.7296  0.3823
   94MOL0     H12685   4.433  -0.432   2.963  0.2693 -1.3707 -1.8327
   94MOL0     H12686   4.501  -0.236   2.583 -2.7310 -1.7007 -1.9771
   94MOL0     H12687   3.915  -0.282   3.089 -0.9069 -1.1511 -1.2773
   94MOL0     H12688   3.595  -0.326   3.036 -0.9055  1.0425  0.3558
   94MOL0     H12689   3.703  -0.374   3.181 -0.2006  1.3319  0.9142
   94MOL0     H12690   3.566  -0.275   3.213  2.0754 -0.5628  2.6168
   95MOL0     O12691   5.510   3.744  11.284 -0.3028 -0.3381 -0.1304
   95MOL0     C12692   5.506   3.711  11.169  0.1146 -0.1135 -0.6384
   95MOL0     O12693   5.488   3.807  11.071 -0.6463  0.3035  0.4941
   95MOL0     C12694   5.452   3.942  11.095  0.5542  1.6440  0.0452
   95MOL0     C12695   5.336   3.991  11.047 -0.7291  0.4601  1.1085
   95MOL0     C12696   5.313   4.128  11.050  0.2791  0.1081 -0.2961
   95MOL0     C12697   5.398   4.223  11.102 -0.9273  0.4495  0.4859
   95MOL0     O12698   5.357   4.349  11.093 -0.1801  0.1814 -0.3258
   95MOL0     C12699   5.456   4.460  11.101 -0.2096  0.1069  0.1753
   95MOL0     C12700   5.490   4.484  11.244 -0.0249  0.2998  0.5992
   95MOL0     C12701   5.377   4.575  11.301  0.1704 -0.0702 -0.0481
   95MOL0     C12702   5.445   4.657  11.418  0.0171 -0.4036  0.2233
   95MOL0     C12703   5.372   4.785  11.451 -0.5982  0.3292  0.3723
   95MOL0     C12704   5.242   4.754  11.516  0.1506 -0.7037 -0.5543
   95MOL0     C12705   5.160   4.887  11.530 -0.7119  0.6070 -0.0978
   95MOL0     C12706   5.013   4.842  11.583 -0.3898 -0.2754  0.0624
   95MOL0     N12707   4.910   4.946  11.564 -0.1690  0.2423 -0.5185
   95MOL0     C12708   4.923   5.082  11.590  0.3049  1.0473 -0.5447
   95MOL0     C12709   4.805   5.134  11.535  0.5940 -0.4002  0.3917
   95MOL0     C12710   4.772   5.278  11.522  0.1321 -0.2940  0.9389
   95MOL0     C12711   4.883   5.349  11.453  0.5061 -0.4654 -0.0564
   95MOL0     C12712   4.859   5.494  11.395 -0.5712  1.1650 -1.3563
   95MOL0     C12713   4.831   5.591  11.506 -0.2260 -0.3459 -0.2073
   95MOL0     O12714   4.938   5.586  11.596 -0.5360  0.2163  0.1255
   95MOL0     C12715   4.912   5.640  11.720  0.0240  0.3733  0.4455
   95MOL0     C12716   4.801   5.718  11.758 -0.7410  0.2136  0.1231
   95MOL0     C12717   4.782   5.757  11.896 -0.8590 -1.5844 -0.2916
   95MOL0     C12718   4.879   5.702  11.990 -0.4429  0.2581  0.2579
   95MOL0     C12719   4.863   5.716  12.137 -0.0542 -0.8272 -0.3737
   95MOL0     O12720   4.971   5.682  12.220  0.5220 -0.3631  0.3168
   95MOL0     C12721   4.952   5.704  12.352  0.5632 -0.3507 -0.6975
   95MOL0     C12722   4.871   5.620  12.436 -0.5063  0.1804  0.7998
   95MOL0     C12723   4.875   5.628  12.574 -0.9473  0.3840  0.5024
   95MOL0     C12724   4.938   5.736  12.634  0.4245 -0.5807  0.1530
   95MOL0     O12725   4.939   5.765  12.770 -0.2320  0.1071  0.2652
   95MOL0     C12726   4.977   5.660  12.861  0.5011  0.2035 -0.3110
   95MOL0     C12727   4.895   5.671  12.992 -0.5051 -0.2783  0.2271
   95MOL0     C12728   4.919   5.544  13.076  0.1930  0.0205  0.8225
   95MOL0     C12729   4.882   5.589  13.218 -0.7224 -0.3282 -0.6719
   95MOL0     C12730   5.000   5.651  13.299  0.1842 -0.1275 -0.2885
   95MOL0     C12731   4.950   5.695  13.439 -0.6813  0.2543  0.0742
   95MOL0     C12732   4.892   5.569  13.519  1.0627  0.0601 -0.9231
   95MOL0     C12733   4.865   5.613  13.661 -0.0577 -0.1342 -1.2215
   95MOL0    Cl12734   4.998   5.706  13.736  0.1200 -0.4206  0.2513
   95MOL0     C12735   5.007   5.828  12.554  0.7311 -0.9568 -0.0339
   95MOL0     C12736   5.015   5.813  12.409  0.4431  0.0474  0.1479
   95MOL0     O12737   4.766   5.789  12.173 -0.3982  0.3847  0.4876
   95MOL0     C12738   4.994   5.632  11.954  0.2694 -0.9653  0.0794
   95MOL0     C12739   5.007   5.600  11.818  0.5620  0.3364  0.2508
   95MOL0     N12740   4.726   5.022  11.503  0.8248  0.9241 -0.7380
   95MOL0     N12741   4.788   4.913  11.515 -0.0735  0.1741  0.0548
   95MOL0     C12742   5.529   4.169  11.129 -0.0150 -0.2550 -1.8714
   95MOL0     C12743   5.554   4.030  11.134 -0.7882  0.1996  0.1632
   95MOL0     C12744   5.532   3.571  11.136  0.0030  0.1994  0.5101
   95MOL0     C12745   5.568   3.480  11.232 -0.6291 -0.7919 -0.6353
   95MOL0     C12746   5.575   3.341  11.203  0.4874  0.0516  0.6318
   95MOL0     C12747   5.552   3.293  11.071 -0.2226 -0.5150  0.0222
   95MOL0     O12748   5.553   3.160  11.039 -0.8666 -0.5698  0.6569
   95MOL0     C12749   5.522   3.067  11.141 -1.0827  0.0774 -1.0796
   95MOL0     C12750   5.656   2.992  11.169 -0.3810  0.5592  0.6625
   95MOL0     C12751   5.717   2.922  11.044 -0.3880 -0.3736  0.8121
   95MOL0     C12752   5.840   2.988  10.977 -0.4390  0.7088 -0.1941
   95MOL0     C12753   5.945   3.024  11.070 -0.2115  0.0312 -0.2900
   95MOL0     C12754   6.043   3.034  11.138 -0.7989  0.4727 -0.4078
   95MOL0     C12755   5.521   3.394  10.967  0.4516  0.1436 -0.1409
   95MOL0     C12756   5.507   3.531  10.997 -0.7721  0.5589  0.3577
   95MOL0     C12757   5.477   3.613  10.873 -0.6000 -0.7189 -0.5126
   95MOL0     H12758   5.270   3.923  10.994  1.5658  0.0298 -1.4586
   95MOL0     H12759   5.222   4.160  11.000 -1.8478 -3.4394  0.8795
   95MOL0     H12760   5.543   4.443  11.036 -0.7452 -0.2335 -0.4792
   95MOL0     H12761   5.413   4.543  11.044  1.0321 -0.5533 -1.8360
   95MOL0     H12762   5.591   4.526  11.248 -0.7301  2.1133  0.3575
   95MOL0     H12763   5.501   4.394  11.305  0.0759 -2.2281 -2.8636
   95MOL0     H12764   5.285   4.523  11.331 -0.4144  0.9247 -0.0579
   95MOL0     H12765   5.341   4.649  11.228  0.6229  1.2074  0.9812
   95MOL0     H12766   5.463   4.587  11.501  4.9884  1.5684  1.1770
   95MOL0     H12767   5.546   4.690  11.390  0.5575 -1.8367  0.3711
   95MOL0     H12768   5.427   4.855  11.515  2.0590 -2.1406  1.0205
   95MOL0     H12769   5.368   4.828  11.350  4.1934  1.0327  0.2338
   95MOL0     H12770   5.185   4.686  11.452 -1.1004  0.2881 -0.5346
   95MOL0     H12771   5.254   4.708  11.615 -0.4940 -0.1846 -0.2306
   95MOL0     H12772   5.155   4.941  11.435 -1.6231  1.3932  0.3758
   95MOL0     H12773   5.206   4.957  11.601 -0.8702  0.3192  0.2939
   95MOL0     H12774   4.978   4.768  11.510 -0.7329 -0.7639  0.7208
   95MOL0     H12775   5.007   4.811  11.687 -1.8599  0.2902  0.1579
   95MOL0     H12776   5.003   5.148  11.621 -1.2485  4.1474 -2.5784
   95MOL0     H12777   4.685   5.307  11.463  2.2319 -0.4980 -2.5492
   95MOL0     H12778   4.762   5.320  11.623 -0.1317 -0.5554  1.0236
   95MOL0     H12779   4.974   5.350  11.513  0.4424  1.2048  0.0576
   95MOL0     H12780   4.904   5.287  11.366 -0.1292 -1.2972  0.3735
   95MOL0     H12781   4.772   5.486  11.330  0.0605  3.8656 -2.7163
   95MOL0     H12782   4.953   5.528  11.350  0.7901 -0.3964  0.1674
   95MOL0     H12783   4.734   5.561  11.546 -0.0689 -1.8637 -0.8901
   95MOL0     H12784   4.823   5.695  11.474  2.3839 -0.3136 -0.9843
   95MOL0     H12785   4.717   5.755  11.700  0.8371  4.0294  0.0161
   95MOL0     H12786   4.701   5.821  11.930 -1.6747 -2.4490 -0.5692
   95MOL0     H12787   4.832   5.530  12.388  2.8992  0.4913 -3.0983
   95MOL0     H12788   4.817   5.564  12.641  0.5910 -2.7180 -0.9046
   95MOL0     H12789   4.980   5.561  12.812  2.0871  0.0770 -0.0056
   95MOL0     H12790   5.081   5.669  12.892  1.1045 -2.6966 -1.1784
   95MOL0     H12791   4.924   5.762  13.045  1.5376 -0.0093 -1.2340
   95MOL0     H12792   4.788   5.677  12.970  0.0644  3.3701 -2.5204
   95MOL0     H12793   4.839   5.474  13.052 -0.4526  0.5431  1.3973
   95MOL0     H12794   5.020   5.503  13.064 -0.2442 -0.6871 -0.5714
   95MOL0     H12795   4.840   5.501  13.268 -0.7244 -0.3605 -0.7305
   95MOL0     H12796   4.808   5.669  13.212 -0.2990  0.2015  0.6983
   95MOL0     H12797   5.042   5.738  13.247  2.9331 -0.3481  1.3807
   95MOL0     H12798   5.082   5.579  13.308  0.0671 -0.2162  0.0636
   95MOL0     H12799   5.033   5.735  13.497 -0.7387 -2.6618  2.3400
   95MOL0     H12800   4.876   5.776  13.435 -0.9958 -0.0321  0.0501
   95MOL0     H12801   4.968   5.490  13.521  3.4425  2.0173  3.6893
   95MOL0     H12802   4.791   5.547  13.484  0.0196  1.7261  0.8289
   95MOL0     H12803   4.777   5.678  13.657  0.2719  0.4452  0.1689
   95MOL0     H12804   4.847   5.521  13.718 -0.6567 -1.7699 -3.8920
   95MOL0     H12805   5.032   5.922  12.603 -1.3884 -0.1715 -0.3415
   95MOL0     H12806   5.073   5.887  12.355  0.4227 -0.2046 -0.2224
   95MOL0     H12807   5.064   5.587  12.023 -0.0273 -4.6198 -1.8019
   95MOL0     H12808   5.089   5.531  11.797  0.9057  0.3320  1.5145
   95MOL0     H12809   5.606   4.244  11.145 -2.4732  1.9426  0.8907
   95MOL0     H12810   5.655   3.996  11.156 -0.0520  0.5915 -2.3198
   95MOL0     H12811   5.588   3.515  11.332  0.9496 -1.0489 -0.8379
   95MOL0     H12812   5.596   3.270  11.282 -1.2417 -1.8785 -0.5527
   95MOL0     H12813   5.452   2.992  11.103 -1.5583  0.5020 -1.0507
   95MOL0     H12814   5.483   3.116  11.230  1.4003  0.5904 -0.2102
   95MOL0     H12815   5.638   2.903  11.230 -1.6544 -0.1861 -0.7318
   95MOL0     H12816   5.717   3.061  11.228 -0.6769 -0.4040  2.1552
   95MOL0     H12817   5.650   2.924  10.958  1.5870  2.8633 -0.8642
   95MOL0     H12818   5.749   2.818  11.060  2.5432 -0.4428 -3.7080
   95MOL0     H12819   5.896   2.926  10.906 -0.7402 -0.1913  0.3358
   95MOL0     H12820   5.811   3.088  10.944 -0.0609  1.5416  1.7851
   95MOL0     H12821   6.128   3.063  11.195 -0.5972 -0.1568 -0.3790
   95MOL0     H12822   5.492   3.357  10.869  1.4926  0.8124 -0.7269
   95MOL0     H12823   5.558   3.685  10.860  1.5381 -3.1576 -1.6587
   95MOL0     H12824   5.481   3.568  10.773 -1.6491  2.5052 -2.1632
   95MOL0     H12825   5.375   3.652  10.879 -0.3490 -0.1134 -0.0837
   96MOL0     O12826   8.246   2.666   1.213 -0.6657 -0.3053 -0.0140
   96MOL0     C12827   8.322   2.570   1.222 -1.0719 -0.1508 -0.4722
   96MOL0     O12828   8.380   2.500   1.120  0.1300  0.2732  0.3517
   96MOL0     C12829   8.378   2.564   1.000  0.3859  0.3938  0.8893
   96MOL0     C12830   8.332   2.500   0.889  0.1934 -0.2493  0.1806
   96MOL0     C12831   8.316   2.574   0.772 -0.4476 -0.4779 -0.5295
   96MOL0     C12832   8.357   2.707   0.762  0.1029  0.6518  0.1931
   96MOL0     O12833   8.344   2.785   0.643  1.0601  0.2628 -0.5476
   96MOL0     C12834   8.295   2.720   0.529  0.2252 -0.9859  0.1638
   96MOL0     C12835   8.266   2.825   0.428  0.5113 -0.5756 -0.0716
   96MOL0     C12836   8.394   2.924   0.399  0.4423  0.0071  0.0127
   96MOL0     C12837   8.369   3.006   0.270 -0.4449 -0.6465 -0.4552
   96MOL0     C12838   8.499   3.073   0.235  0.4133 -0.5890 -0.4666
   96MOL0     C12839   8.579   3.007   0.122  0.7221 -0.5357  0.0512
   96MOL0     C12840   8.703   3.075   0.070  0.4934 -0.1759 -0.0429
   96MOL0     C12841   8.825   3.029   0.148  0.2495  0.7906 -0.2695
   96MOL0     N12842   8.927   3.116   0.100  0.8214 -0.1461  0.4466
   96MOL0     C12843   8.935   3.245   0.134 -0.4504  0.1928  0.5270
   96MOL0     C12844   9.030   3.301   0.063  0.8190  0.4049 -0.7880
   96MOL0     C12845   9.068   3.441   0.072 -0.7758  0.7429  0.3627
   96MOL0     C12846   8.976   3.528  -0.027 -0.1335  1.2050 -0.5811
   96MOL0     C12847   8.824   3.471  -0.038  0.3983  0.1032  0.2497
   96MOL0     C12848   8.738   3.563  -0.127 -0.9907  0.1484  0.5022
   96MOL0     O12849   8.601   3.529  -0.114  0.0014  0.1645  0.2399
   96MOL0     C12850   8.563   3.424  -0.200 -0.1806 -0.6955  0.4776
   96MOL0     C12851   8.523   3.454  -0.329  0.5534  0.3646 -0.1947
   96MOL0     C12852   8.479   3.350  -0.408 -0.6336  1.1895  0.3651
   96MOL0     C12853   8.486   3.211  -0.371 -0.0449 -1.0114  1.0255
   96MOL0     C12854   8.440   3.106  -0.471 -0.0510  0.5494 -0.1333
   96MOL0     O12855   8.397   2.992  -0.410  0.1292  0.5767  0.0490
   96MOL0     C12856   8.362   2.882  -0.483  0.6516  0.2382 -0.3825
   96MOL0     C12857   8.310   2.880  -0.616  0.1686 -0.2920  0.6464
   96MOL0     C12858   8.292   2.757  -0.669 -0.0898 -0.5851  0.1595
   96MOL0     C12859   8.295   2.632  -0.600 -0.9053 -0.4453 -0.4319
   96MOL0     O12860   8.245   2.514  -0.661 -0.1558 -0.3282  0.4379
   96MOL0     C12861   8.311   2.386  -0.621  1.0350 -0.1333 -0.4052
   96MOL0     C12862   8.250   2.284  -0.721  0.7821 -0.3493 -0.5630
   96MOL0     C12863   8.296   2.148  -0.663  0.6987  0.4543  0.2621
   96MOL0     C12864   8.257   2.050  -0.778 -0.1197 -0.2856  0.3840
   96MOL0     C12865   8.336   1.922  -0.770  0.0505 -0.0049  0.4512
   96MOL0     C12866   8.463   1.936  -0.846 -0.5482 -0.7476 -0.1489
   96MOL0     C12867   8.562   1.813  -0.835  0.7358  0.1539  0.0642
   96MOL0     C12868   8.621   1.806  -0.689  0.1842  0.2060  0.2648
   96MOL0    Cl12869   8.764   1.694  -0.686  0.1037 -0.1087 -0.5275
   96MOL0     C12870   8.365   2.638  -0.471  0.4841  0.4030 -0.3551
   96MOL0     C12871   8.384   2.763  -0.420 -0.7814  0.2135 -0.1010
   96MOL0     O12872   8.457   3.125  -0.590  0.9200 -1.1027  0.4711
   96MOL0     C12873   8.516   3.185  -0.236 -0.3379  0.0229 -1.0851
   96MOL0     C12874   8.548   3.293  -0.145 -0.2924 -0.1558 -0.0616
   96MOL0     N12875   9.088   3.201  -0.014 -0.0913 -0.9495  0.5074
   96MOL0     N12876   9.029   3.088   0.017  0.1248 -0.4845 -0.3398
   96MOL0     C12877   8.426   2.762   0.871  0.1810  0.1393  0.2796
   96MOL0     C12878   8.428   2.697   0.990  0.2644 -0.5657  0.1878
   96MOL0     C12879   8.331   2.496   1.350 -0.4912  0.2232 -0.2104
   96MOL0     C12880   8.225   2.436   1.412 -0.2220  0.6581  0.0938
   96MOL0     C12881   8.228   2.375   1.526 -0.0430 -0.4904 -0.8227
   96MOL0     C12882   8.348   2.356   1.588  0.5512  0.5752  0.6228
   96MOL0     O12883   8.362   2.272   1.703  0.0998 -0.6083  0.6602
   96MOL0     C12884   8.256   2.271   1.798  0.3214 -0.8728 -0.3461
   96MOL0     C12885   8.245   2.411   1.887  0.3966 -0.2036  0.7737
   96MOL0     C12886   8.378   2.462   1.953 -1.3838 -0.7469 -1.0232
   96MOL0     C12887   8.369   2.596   2.018 -0.7988  0.6955 -0.5809
   96MOL0     C12888   8.501   2.644   2.050 -0.4720 -0.2856  0.4435
   96MOL0     C12889   8.614   2.695   2.066  0.4016  0.4066  0.4871
   96MOL0     C12890   8.462   2.414   1.535 -0.4231  0.2144  0.9018
   96MOL0     C12891   8.459   2.486   1.413 -0.5056 -0.8949  1.1494
   96MOL0     C12892   8.596   2.547   1.361 -0.3743 -0.1582 -0.6625
   96MOL0     H12893   8.290   2.402   0.907  1.3902 -0.9152 -0.5548
   96MOL0     H12894   8.273   2.513   0.693  0.0779  2.8314 -3.6636
   96MOL0     H12895   8.374   2.653   0.494  3.7664  3.0643 -0.4164
   96MOL0     H12896   8.210   2.658   0.558  1.4927 -2.8475  0.0965
   96MOL0     H12897   8.176   2.878   0.462 -0.1736 -1.5112 -0.3792
   96MOL0     H12898   8.260   2.767   0.336 -1.8290 -0.5561 -0.0030
   96MOL0     H12899   8.489   2.871   0.391  1.2663  1.5571 -1.0682
   96MOL0     H12900   8.404   2.989   0.487  3.0644 -0.5760  0.2371
   96MOL0     H12901   8.348   2.939   0.187  0.4310  0.8425 -1.9360
   96MOL0     H12902   8.287   3.075   0.295 -0.8493 -1.9104  2.0388
   96MOL0     H12903   8.481   3.179   0.213 -2.6038 -1.0453 -0.6039
   96MOL0     H12904   8.561   3.074   0.324  1.4136  0.0481 -1.1515
   96MOL0     H12905   8.598   2.900   0.138  2.3291 -0.0221  1.9490
   96MOL0     H12906   8.507   3.014   0.040 -0.6483 -1.7450  1.0991
   96MOL0     H12907   8.690   3.184   0.078 -0.0360 -0.3381  1.7682
   96MOL0     H12908   8.713   3.062  -0.038 -1.4039 -0.6320 -0.2042
   96MOL0     H12909   8.809   3.051   0.254  2.9118  1.6763  0.0169
   96MOL0     H12910   8.839   2.921   0.147 -2.9382  0.1870  2.4672
   96MOL0     H12911   8.853   3.300   0.180 -0.9669  3.4369 -3.7070
   96MOL0     H12912   9.056   3.475   0.176  2.1045  1.4289  0.5626
   96MOL0     H12913   9.172   3.446   0.037 -0.4026 -0.8987  1.1375
   96MOL0     H12914   8.996   3.631   0.001  5.1248  0.5060 -0.7655
   96MOL0     H12915   9.023   3.518  -0.125 -0.3248  0.9082 -0.6449
   96MOL0     H12916   8.775   3.474   0.060 -2.9532 -1.9443 -1.2030
   96MOL0     H12917   8.827   3.368  -0.075 -1.6198 -0.7187  2.0923
   96MOL0     H12918   8.771   3.561  -0.231  5.1660  2.2005  1.9979
   96MOL0     H12919   8.739   3.665  -0.086 -2.1610  0.5349 -0.3982
   96MOL0     H12920   8.514   3.557  -0.363 -2.5126  0.5031  0.7182
   96MOL0     H12921   8.438   3.361  -0.507  0.6710  2.3535 -0.0725
   96MOL0     H12922   8.290   2.968  -0.676 -0.5141 -0.1912  1.0166
   96MOL0     H12923   8.252   2.760  -0.770  4.5963  1.8842 -1.9456
   96MOL0     H12924   8.418   2.408  -0.628  0.3330  5.3910  1.3437
   96MOL0     H12925   8.281   2.365  -0.518  0.0307  0.0504 -0.6591
   96MOL0     H12926   8.141   2.295  -0.724  0.6845  0.6372  3.0039
   96MOL0     H12927   8.288   2.296  -0.823  0.9149 -0.0600 -0.4808
   96MOL0     H12928   8.403   2.149  -0.644  0.8034 -1.6655  0.0108
   96MOL0     H12929   8.239   2.124  -0.572 -0.7149  0.7496 -0.5119
   96MOL0     H12930   8.279   2.100  -0.873  2.7575  0.4589  1.3392
   96MOL0     H12931   8.151   2.024  -0.775  0.1624 -2.0852 -2.1681
   96MOL0     H12932   8.273   1.847  -0.820 -0.4857 -1.9509  3.7942
   96MOL0     H12933   8.351   1.895  -0.666 -0.0502  3.6550  1.5747
   96MOL0     H12934   8.438   1.941  -0.953 -1.7213 -1.1524  0.0881
   96MOL0     H12935   8.509   2.034  -0.830 -3.0141  0.7547 -1.4987
   96MOL0     H12936   8.644   1.835  -0.903 -0.5652  0.1007 -1.5946
   96MOL0     H12937   8.515   1.717  -0.857  1.9234 -0.6047  0.7605
   96MOL0     H12938   8.646   1.907  -0.656  0.1397 -0.3881  2.2536
   96MOL0     H12939   8.539   1.771  -0.626 -1.2970 -0.8080 -2.0731
   96MOL0     H12940   8.390   2.547  -0.417  0.6027  1.7795  2.0361
   96MOL0     H12941   8.425   2.775  -0.321 -0.5539 -3.1001  0.3338
   96MOL0     H12942   8.508   3.081  -0.208  0.7128 -0.5545 -2.8040
   96MOL0     H12943   8.559   3.283  -0.037  3.6339  1.2065 -0.1618
   96MOL0     H12944   8.463   2.864   0.872 -1.2936  0.7706 -2.0871
   96MOL0     H12945   8.484   2.734   1.076 -0.1657 -0.0583  0.2511
   96MOL0     H12946   8.127   2.454   1.369 -0.9396  2.0991  2.1720
   96MOL0     H12947   8.136   2.344   1.575  1.6385 -0.9907  2.2833
   96MOL0     H12948   8.270   2.190   1.870  0.7863  0.4947  1.1710
   96MOL0     H12949   8.159   2.244   1.755  0.2512 -0.8445 -0.2085
   96MOL0     H12950   8.160   2.405   1.956 -0.1455 -0.3622  0.1057
   96MOL0     H12951   8.211   2.483   1.812  2.0571 -1.1262 -0.9621
   96MOL0     H12952   8.454   2.472   1.875  0.4977  1.8337  0.9625
   96MOL0     H12953   8.419   2.390   2.025 -0.8632  1.1737  0.6880
   96MOL0     H12954   8.322   2.675   1.958 -0.6242  0.9846 -0.3393
   96MOL0     H12955   8.315   2.571   2.110  0.2966 -1.5263 -0.4715
   96MOL0     H12956   8.703   2.755   2.073 -0.5825  2.2102 -1.3175
   96MOL0     H12957   8.557   2.402   1.585 -0.6690 -3.7105  0.6780
   96MOL0     H12958   8.583   2.642   1.310  5.3495  0.4442 -1.6879
   96MOL0     H12959   8.663   2.561   1.446 -2.8212  1.2038  1.1933
   96MOL0     H12960   8.624   2.472   1.287  0.6475 -0.4212 -0.0296
   97MOL0     O12961  10.446   3.621  10.971 -0.0962 -0.5286 -0.7689
   97MOL0     C12962  10.336   3.649  11.027 -0.4550 -0.0129  0.7876
   97MOL0     O12963  10.320   3.680  11.159 -0.5496 -0.8182 -0.5579
   97MOL0     C12964  10.444   3.682  11.228 -0.5499  0.2137 -0.5562
   97MOL0     C12965  10.486   3.572  11.296  0.3197 -0.1227 -0.5832
   97MOL0     C12966  10.619   3.555  11.338 -0.1228 -0.5509  0.8419
   97MOL0     C12967  10.709   3.659  11.319  0.4479 -0.0122  0.4804
   97MOL0     O12968  10.842   3.656  11.360  0.2344  0.8366  0.5464
   97MOL0     C12969  10.916   3.530  11.333  0.5808 -0.3985  1.4613
   97MOL0     C12970  11.051   3.549  11.396  0.2235  0.7850  0.3546
   97MOL0     C12971  11.046   3.511  11.552 -0.8299 -0.2565  0.5603
   97MOL0     C12972  11.178   3.505  11.623  0.3578  0.0375 -1.2087
   97MOL0     C12973  11.154   3.453  11.773  0.2815  0.3714  0.6580
   97MOL0     C12974  11.068   3.318  11.794 -0.3506  0.4475  0.8815
   97MOL0     C12975  11.138   3.199  11.722  0.1646 -0.2601 -0.7861
   97MOL0     C12976  11.096   3.075  11.790 -0.7862  0.3011 -0.1285
   97MOL0     N12977  11.190   2.962  11.765  0.6076 -0.1198 -0.4561
   97MOL0     C12978  11.269   2.902  11.855  0.6645  0.1744  0.5308
   97MOL0     C12979  11.325   2.795  11.791  0.2607 -0.7278 -1.0686
   97MOL0     C12980  11.453   2.730  11.847  0.1917  0.4163 -0.4834
   97MOL0     C12981  11.473   2.580  11.807 -0.6767  0.2478  0.2943
   97MOL0     C12982  11.564   2.511  11.913 -1.0386 -1.0054  0.1494
   97MOL0     C12983  11.526   2.360  11.923  0.5536 -0.7493 -0.9503
   97MOL0     O12984  11.617   2.289  12.008  0.1961  0.5992  0.7520
   97MOL0     C12985  11.578   2.167  12.072 -0.2607  0.3219  0.0469
   97MOL0     C12986  11.451   2.097  12.060  0.2893 -0.6533  0.3055
   97MOL0     C12987  11.423   1.982  12.140  0.0102  0.6348 -0.6102
   97MOL0     C12988  11.524   1.939  12.227  0.7407  0.2095  0.4479
   97MOL0     C12989  11.490   1.813  12.315  0.1012 -0.5249 -0.6744
   97MOL0     O12990  11.382   1.733  12.283  0.2739  0.1000  0.1116
   97MOL0     C12991  11.374   1.615  12.338 -1.0410  1.0644 -0.5750
   97MOL0     C12992  11.455   1.514  12.299 -0.4038  0.4929  0.1473
   97MOL0     C12993  11.452   1.396  12.370 -0.0743 -0.2769  0.2932
   97MOL0     C12994  11.360   1.368  12.471  0.4627 -0.1304  0.5796
   97MOL0     O12995  11.347   1.245  12.524  0.8358 -1.6389 -0.5438
   97MOL0     C12996  11.253   1.160  12.448  0.2944  0.6905 -0.1506
   97MOL0     C12997  11.330   1.030  12.414  0.3592 -0.6644  0.0648
   97MOL0     C12998  11.211   0.937  12.370  0.1931 -0.2599 -0.0187
   97MOL0     C12999  11.271   0.809  12.308  0.2682  0.5462 -0.1378
   97MOL0     C13000  11.149   0.710  12.287  0.1096  0.5747 -1.1298
   97MOL0     C13001  11.180   0.580  12.214 -0.5770 -0.8116  0.0220
   97MOL0     C13002  11.050   0.521  12.182  0.0738  0.7119 -0.2118
   97MOL0     C13003  11.062   0.385  12.130  0.5865 -0.2862 -0.6937
   97MOL0    Cl13004  11.118   0.254  12.246 -0.1078 -0.1313  0.0881
   97MOL0     C13005  11.274   1.473  12.512  0.3582  0.2856 -0.3481
   97MOL0     C13006  11.285   1.596  12.439 -0.8373  0.8393  0.1872
   97MOL0     O13007  11.582   1.787  12.396  0.1326  0.8091  0.4053
   97MOL0     C13008  11.647   1.999  12.241 -0.3078 -0.7679  0.4788
   97MOL0     C13009  11.670   2.121  12.171  0.3822  0.0540 -0.1843
   97MOL0     N13010  11.262   2.776  11.674 -0.6134  0.2839  0.1473
   97MOL0     N13011  11.168   2.866  11.660  0.3419 -0.0099  0.7442
   97MOL0     C13012  10.659   3.781  11.256 -0.9331  0.4374  0.0862
   97MOL0     C13013  10.537   3.788  11.203  0.3780 -0.1412 -0.1992
   97MOL0     C13014  10.221   3.660  10.935  0.7498  0.1860  0.4769
   97MOL0     C13015  10.098   3.611  10.979  1.3663  0.0400 -0.7379
   97MOL0     C13016   9.979   3.627  10.911 -0.4861 -1.1874 -0.2470
   97MOL0     C13017   9.984   3.690  10.783  1.2657 -0.4557  0.4721
   97MOL0     O13018   9.872   3.730  10.708  0.6996 -0.4080  0.4005
   97MOL0     C13019   9.746   3.715  10.763 -0.8711 -0.9290 -0.9775
   97MOL0     C13020   9.658   3.706  10.632  0.1103  0.4633 -0.2665
   97MOL0     C13021   9.512   3.732  10.664 -0.3225 -0.9467 -0.5998
   97MOL0     C13022   9.470   3.621  10.767  0.5528 -0.6120  0.5345
   97MOL0     C13023   9.486   3.497  10.706  0.4845  0.2640  0.4296
   97MOL0     C13024   9.489   3.390  10.653 -0.1816  0.1812 -0.6360
   97MOL0     C13025  10.108   3.719  10.723  0.0727 -0.5583 -1.3337
   97MOL0     C13026  10.223   3.697  10.802  0.4177 -0.1208 -0.3460
   97MOL0     C13027  10.358   3.752  10.739  0.0037 -0.4466  0.2264
   97MOL0     H13028  10.413   3.495  11.318  0.0595  0.4273  0.5846
   97MOL0     H13029  10.655   3.471  11.396 -1.8224 -1.1050  1.1482
   97MOL0     H13030  10.858   3.447  11.373 -2.2438 -0.9206 -2.9962
   97MOL0     H13031  10.924   3.501  11.227 -0.0787 -1.7456  1.7634
   97MOL0     H13032  11.098   3.646  11.377  1.5704  0.3270  1.2247
   97MOL0     H13033  11.120   3.473  11.358  1.1416 -0.4287  4.0351
   97MOL0     H13034  11.002   3.412  11.546  1.2336 -1.1711 -0.4499
   97MOL0     H13035  10.983   3.583  11.605 -0.6810 -0.5856  1.1901
   97MOL0     H13036  11.240   3.436  11.566  3.5008  1.4885  0.2281
   97MOL0     H13037  11.238   3.593  11.601 -0.4373  0.0773 -3.4979
   97MOL0     H13038  11.249   3.447  11.827  0.2405  2.7613  1.0997
   97MOL0     H13039  11.098   3.531  11.824  0.3655  1.0680 -0.2811
   97MOL0     H13040  11.071   3.295  11.901  1.1111 -1.0639  0.5665
   97MOL0     H13041  10.963   3.324  11.764  0.0987 -1.4338 -1.2821
   97MOL0     H13042  11.243   3.222  11.741 -0.5566  1.9192  0.9670
   97MOL0     H13043  11.123   3.201  11.614 -4.9916  0.4710 -0.3012
   97MOL0     H13044  11.096   3.078  11.899  2.3149 -1.8377  0.0520
   97MOL0     H13045  10.993   3.051  11.760 -1.6713  1.4674  1.7538
   97MOL0     H13046  11.300   2.949  11.948  3.1777  3.0540 -1.5687
   97MOL0     H13047  11.543   2.781  11.810  0.8686 -0.5075 -0.1469
   97MOL0     H13048  11.450   2.730  11.957  0.9557 -0.8132 -0.4429
   97MOL0     H13049  11.381   2.520  11.806 -1.8722  1.9398  1.9684
   97MOL0     H13050  11.530   2.579  11.714  2.0784  3.3663  1.7596
   97MOL0     H13051  11.570   2.571  12.005 -1.8317 -0.1805 -0.3181
   97MOL0     H13052  11.665   2.503  11.872 -0.7007  1.2137  0.4436
   97MOL0     H13053  11.526   2.330  11.818 -4.2715 -2.4737 -0.6900
   97MOL0     H13054  11.424   2.360  11.962  0.3323 -1.6442 -1.5103
   97MOL0     H13055  11.375   2.137  11.992  0.6222 -0.4363  0.0566
   97MOL0     H13056  11.335   1.918  12.139  2.7305 -3.4852 -2.1606
   97MOL0     H13057  11.532   1.533  12.224  0.0846 -1.7724 -0.0144
   97MOL0     H13058  11.528   1.320  12.355  1.1515  0.5807  1.8175
   97MOL0     H13059  11.179   1.130  12.522  1.3775  1.6708  1.4079
   97MOL0     H13060  11.225   1.205  12.353  2.5026  0.8355 -0.7993
   97MOL0     H13061  11.403   1.053  12.337  0.5306 -1.1575  0.0773
   97MOL0     H13062  11.378   0.994  12.506  1.5094  1.9026  0.5735
   97MOL0     H13063  11.151   0.922  12.460 -0.3823  1.4210 -0.0914
   97MOL0     H13064  11.149   0.988  12.296  1.0960  1.1470  0.1516
   97MOL0     H13065  11.333   0.762  12.384  0.1586 -1.5372 -1.2694
   97MOL0     H13066  11.327   0.825  12.215  2.7368  1.0196  1.3577
   97MOL0     H13067  11.063   0.758  12.239 -3.4647 -1.0430  3.0094
   97MOL0     H13068  11.118   0.673  12.385  1.2413  0.8592 -0.6615
   97MOL0     H13069  11.239   0.599  12.124 -2.6419  1.5983 -0.9821
   97MOL0     H13070  11.241   0.523  12.285 -0.9844  2.1683  3.0482
   97MOL0     H13071  10.997   0.584  12.111  0.5989  3.1696  1.4610
   97MOL0     H13072  11.000   0.525  12.278  1.8407  0.5035  0.7650
   97MOL0     H13073  10.962   0.347  12.107  0.7362  0.6708 -3.2109
   97MOL0     H13074  11.124   0.379  12.041 -0.9663 -2.5465 -1.7183
   97MOL0     H13075  11.192   1.460  12.583  0.2060 -1.1601 -0.7607
   97MOL0     H13076  11.226   1.684  12.463 -0.4211  1.2849 -0.4182
   97MOL0     H13077  11.708   1.964  12.324  0.1762 -1.5312 -0.1866
   97MOL0     H13078  11.763   2.173  12.187  1.7759 -2.8663  2.1957
   97MOL0     H13079  10.725   3.855  11.212 -1.3037  1.1637  0.7152
   97MOL0     H13080  10.502   3.856  11.127 -1.1509  0.3943  0.9220
   97MOL0     H13081  10.085   3.580  11.082  0.7147  0.1749 -0.7744
   97MOL0     H13082   9.882   3.594  10.948 -0.3361  0.3662  1.6824
   97MOL0     H13083   9.726   3.805  10.822  3.4237  1.5821 -2.9152
   97MOL0     H13084   9.730   3.621  10.818 -0.4034 -0.2958  0.2778
   97MOL0     H13085   9.667   3.610  10.581  0.1583  0.1818  0.2602
   97MOL0     H13086   9.695   3.784  10.565  2.0834 -3.0080 -3.6165
   97MOL0     H13087   9.453   3.737  10.572  0.6145 -2.1625 -1.2924
   97MOL0     H13088   9.524   3.832  10.705 -2.6860 -1.2258  0.9290
   97MOL0     H13089   9.514   3.628  10.867  0.1602  2.7068  0.5959
   97MOL0     H13090   9.364   3.641  10.785  0.7753  1.0297  0.2093
   97MOL0     H13091   9.475   3.295  10.605 -1.0442 -1.4814  2.6491
   97MOL0     H13092  10.104   3.764  10.624  2.3087  2.1534 -0.3228
   97MOL0     H13093  10.337   3.789  10.638  1.4952  3.2954  1.1235
   97MOL0     H13094  10.410   3.832  10.792 -0.4661  1.2697 -1.7725
   97MOL0     H13095  10.429   3.669  10.728  0.0849 -0.2442 -0.8393
   98MOL0     O13096   2.198   8.281   8.817 -0.5164  0.4229 -0.5461
   98MOL0     C13097   2.153   8.393   8.848 -0.7011  0.8746  0.8198
   98MOL0     O13098   2.179   8.513   8.786 -0.6762  0.1793 -0.1666
   98MOL0     C13099   2.257   8.504   8.672  0.0813 -0.8278  0.9173
   98MOL0     C13100   2.232   8.421   8.556  0.0038  0.4760  0.0149
   98MOL0     C13101   2.304   8.425   8.439 -0.0234  0.0732 -0.1885
   98MOL0     C13102   2.409   8.502   8.431 -0.3764 -0.2411  1.1351
   98MOL0     O13103   2.489   8.484   8.318  0.3011  0.3143  0.0652
   98MOL0     C13104   2.543   8.599   8.250  0.0188 -0.0144 -0.4852
   98MOL0     C13105   2.612   8.547   8.121 -0.1084 -0.9235 -0.7683
   98MOL0     C13106   2.585   8.652   8.004  0.4761 -0.1640 -1.1704
   98MOL0     C13107   2.619   8.572   7.868 -0.4695 -0.3268  0.4603
   98MOL0     C13108   2.491   8.501   7.825 -0.8074  0.1129 -0.4825
   98MOL0     C13109   2.506   8.424   7.697  0.1290 -0.3307  1.0103
   98MOL0     C13110   2.458   8.276   7.680  0.1916  0.5845  0.4723
   98MOL0     C13111   2.461   8.192   7.807  0.2784 -0.5375 -0.5749
   98MOL0     N13112   2.594   8.181   7.870  1.1783 -0.5343  0.5688
   98MOL0     C13113   2.684   8.101   7.810  0.0591  0.6454 -0.1050
   98MOL0     C13114   2.791   8.105   7.896 -1.3124  0.3098 -0.4903
   98MOL0     C13115   2.928   8.030   7.903 -0.9109 -0.1155 -0.8355
   98MOL0     C13116   2.923   7.915   8.002 -0.2983  0.0374  0.1576
   98MOL0     C13117   3.023   7.940   8.117 -0.7122  0.6654 -0.5189
   98MOL0     C13118   3.074   7.821   8.206 -0.0280 -0.4537  0.0551
   98MOL0     O13119   2.980   7.764   8.288  0.1984 -0.6348  0.4141
   98MOL0     C13120   2.986   7.646   8.348 -0.4544 -0.0761  0.9598
   98MOL0     C13121   2.880   7.593   8.413 -0.1502  0.7962  0.9264
   98MOL0     C13122   2.883   7.455   8.452  0.2423  0.7439 -0.0978
   98MOL0     C13123   2.991   7.371   8.429  0.2601  1.6747  0.1582
   98MOL0     C13124   3.002   7.229   8.491  0.1225 -0.7422  0.3717
   98MOL0     O13125   3.100   7.137   8.450  0.4977  0.7935  0.6127
   98MOL0     C13126   3.118   7.034   8.544  0.5206 -0.7767  0.1282
   98MOL0     C13127   3.038   6.921   8.543  0.6090 -0.6740  0.3431
   98MOL0     C13128   3.061   6.820   8.627  0.0197 -0.4283 -0.1586
   98MOL0     C13129   3.174   6.824   8.717  0.9305  0.8427  0.0919
   98MOL0     O13130   3.190   6.724   8.800  0.2011 -0.6097  0.1808
   98MOL0     C13131   3.164   6.767   8.937 -0.5389 -0.3419 -0.3797
   98MOL0     C13132   3.154   6.657   9.039  1.4243  0.6647  1.0948
   98MOL0     C13133   3.279   6.579   9.039 -0.0547  0.3474 -0.3402
   98MOL0     C13134   3.267   6.444   9.125  1.0345 -0.2137 -0.1052
   98MOL0     C13135   3.245   6.469   9.278  0.5267 -0.2081 -0.2830
   98MOL0     C13136   3.374   6.534   9.339  0.2739 -0.6897 -0.0570
   98MOL0     C13137   3.354   6.556   9.491 -0.5310  0.9575  0.4662
   98MOL0     C13138   3.345   6.705   9.524  0.4201  0.3478 -0.0035
   98MOL0    Cl13139   3.197   6.771   9.438  0.1651 -0.0159 -0.3227
   98MOL0     C13140   3.258   6.942   8.712  0.2920  0.4701  0.8218
   98MOL0     C13141   3.225   7.046   8.630  0.0986  1.0543 -0.6442
   98MOL0     O13142   2.925   7.215   8.581  0.1672  1.1950  0.3098
   98MOL0     C13143   3.095   7.429   8.363 -0.7850  0.3997 -1.0294
   98MOL0     C13144   3.088   7.563   8.322  0.4091 -0.3644 -0.0350
   98MOL0     N13145   2.761   8.193   8.000  0.2013 -0.3113 -0.3233
   98MOL0     N13146   2.639   8.235   7.988  0.3395  0.0879  0.3441
   98MOL0     C13147   2.443   8.592   8.538 -0.0186  0.6498 -1.1597
   98MOL0     C13148   2.358   8.594   8.649  0.6586 -0.1127 -0.8746
   98MOL0     C13149   2.052   8.405   8.955  0.2406  0.1043 -0.1233
   98MOL0     C13150   1.915   8.409   8.919 -0.1451  0.0645 -0.2007
   98MOL0     C13151   1.815   8.417   9.017 -0.4292 -0.3875 -0.8260
   98MOL0     C13152   1.843   8.416   9.154 -0.6876 -0.1218  0.3833
   98MOL0     O13153   1.726   8.432   9.237 -0.4987 -0.1877  0.0908
   98MOL0     C13154   1.746   8.439   9.381  0.0858  0.4108 -0.0333
   98MOL0     C13155   1.605   8.410   9.444  0.1660  0.3622  0.0315
   98MOL0     C13156   1.585   8.507   9.558  0.6597 -0.3598  0.2184
   98MOL0     C13157   1.436   8.482   9.608 -0.0687  0.4270 -0.0418
   98MOL0     C13158   1.429   8.570   9.731  1.2713  0.7201 -0.0863
   98MOL0     C13159   1.449   8.634   9.826  0.3570 -1.7143 -1.2154
   98MOL0     C13160   1.980   8.419   9.187  0.0752  0.3696  0.2817
   98MOL0     C13161   2.077   8.418   9.089 -0.7986  0.2724 -0.1223
   98MOL0     C13162   2.223   8.445   9.129 -0.2173 -0.3140 -0.0727
   98MOL0     H13163   2.146   8.355   8.558 -0.7889  1.4956  1.2626
   98MOL0     H13164   2.295   8.348   8.362  3.6529 -0.7845  0.0441
   98MOL0     H13165   2.473   8.683   8.248  0.8341  0.6713 -0.6934
   98MOL0     H13166   2.637   8.626   8.301 -0.0390 -3.6441  1.9222
   98MOL0     H13167   2.570   8.448   8.106  1.4016 -2.1065  1.9617
   98MOL0     H13168   2.720   8.539   8.137  0.3498  0.3819 -2.7979
   98MOL0     H13169   2.658   8.732   8.018  1.2140 -1.3117  3.1446
   98MOL0     H13170   2.482   8.687   8.013  0.0853 -1.4247 -0.3913
   98MOL0     H13171   2.635   8.650   7.793 -1.8463 -1.1040 -0.6721
   98MOL0     H13172   2.706   8.507   7.854 -0.9510 -0.4913 -2.2362
   98MOL0     H13173   2.446   8.439   7.903 -0.7329  0.0576 -0.4827
   98MOL0     H13174   2.405   8.567   7.816 -1.3497 -0.5535 -0.2914
   98MOL0     H13175   2.442   8.487   7.635  1.3493  0.0074  0.0428
   98MOL0     H13176   2.605   8.436   7.652  0.0508 -1.8827  0.3305
   98MOL0     H13177   2.518   8.214   7.613  0.0340 -0.9009  1.6532
   98MOL0     H13178   2.354   8.272   7.645 -0.1095 -4.0609  1.2753
   98MOL0     H13179   2.381   8.217   7.877  0.2871 -0.5930 -0.5441
   98MOL0     H13180   2.432   8.089   7.783  0.6000 -1.6817  3.2659
   98MOL0     H13181   2.674   8.025   7.733  0.9824 -1.7996  2.0203
   98MOL0     H13182   2.959   7.997   7.804 -1.8583 -3.9018 -0.0014
   98MOL0     H13183   3.009   8.098   7.931 -0.2787 -1.2539  0.1484
   98MOL0     H13184   2.821   7.890   8.031 -0.4435 -1.5304 -1.5154
   98MOL0     H13185   2.956   7.830   7.942  0.1351 -0.2802  0.8323
   98MOL0     H13186   2.989   8.020   8.183 -2.9782  1.2234 -2.2308
   98MOL0     H13187   3.116   7.972   8.071 -0.4512  0.9451  0.1952
   98MOL0     H13188   3.157   7.863   8.263 -1.5274  2.6054  0.1913
   98MOL0     H13189   3.107   7.741   8.139 -2.2226 -0.7306 -0.7641
   98MOL0     H13190   2.794   7.658   8.425 -2.7967 -2.2717 -0.1315
   98MOL0     H13191   2.799   7.408   8.503  2.1775  0.1516  2.7691
   98MOL0     H13192   2.953   6.914   8.475  2.2739 -2.9916 -1.6831
   98MOL0     H13193   3.009   6.727   8.607  0.9745 -1.1771  0.7211
   98MOL0     H13194   3.243   6.832   8.975  0.1977 -1.3082 -0.2254
   98MOL0     H13195   3.074   6.828   8.931 -1.4957 -1.7399 -0.7418
   98MOL0     H13196   3.121   6.704   9.132 -0.8719  1.4090 -0.0143
   98MOL0     H13197   3.072   6.593   9.006  0.8126  2.4083 -1.0666
   98MOL0     H13198   3.300   6.541   8.939  0.5156 -2.0650  0.6419
   98MOL0     H13199   3.371   6.634   9.060  0.5226 -0.1581 -1.4354
   98MOL0     H13200   3.360   6.390   9.106  1.5430  1.1090 -1.5704
   98MOL0     H13201   3.181   6.388   9.087  0.0940 -0.1831  1.8249
   98MOL0     H13202   3.224   6.370   9.318  1.0831 -1.1898 -2.2788
   98MOL0     H13203   3.154   6.523   9.306 -0.1326 -2.2093  1.6715
   98MOL0     H13204   3.453   6.462   9.317 -0.0640 -0.1578 -3.6157
   98MOL0     H13205   3.404   6.628   9.294  1.2578 -0.2806  1.3874
   98MOL0     H13206   3.441   6.511   9.538  0.7701  0.9023 -1.8420
   98MOL0     H13207   3.259   6.514   9.526 -0.7517  0.1999 -0.9687
   98MOL0     H13208   3.353   6.719   9.632 -1.0634 -0.5662  0.2574
   98MOL0     H13209   3.432   6.747   9.472 -1.3209  0.4800 -3.0542
   98MOL0     H13210   3.344   6.939   8.777 -0.5423 -0.5879  1.9219
   98MOL0     H13211   3.287   7.134   8.616  1.1946  0.4326  0.1622
   98MOL0     H13212   3.184   7.374   8.334 -0.5693  0.9866 -1.5024
   98MOL0     H13213   3.174   7.593   8.263 -0.0310  0.5755 -0.2087
   98MOL0     H13214   2.529   8.656   8.521 -0.7993  1.4612 -2.2035
   98MOL0     H13215   2.379   8.658   8.733  0.6671  0.3199 -1.2021
   98MOL0     H13216   1.899   8.397   8.812  2.2926  0.3643 -0.6499
   98MOL0     H13217   1.714   8.439   8.984 -0.4689  0.7944 -0.0027
   98MOL0     H13218   1.780   8.542   9.390 -0.9090  0.7536 -0.1470
   98MOL0     H13219   1.819   8.367   9.418  0.5473  0.8757 -0.0303
   98MOL0     H13220   1.608   8.303   9.468  1.9853  0.7852  2.0531
   98MOL0     H13221   1.539   8.440   9.363 -2.0329  0.6850  1.8663
   98MOL0     H13222   1.604   8.613   9.539  2.9418 -0.5199  1.2696
   98MOL0     H13223   1.662   8.476   9.629  1.0948 -0.0356 -0.1053
   98MOL0     H13224   1.365   8.514   9.531 -0.4972 -0.5814 -0.0749
   98MOL0     H13225   1.423   8.375   9.626 -0.1087  0.2702 -0.9635
   98MOL0     H13226   1.473   8.713   9.894 -1.7458 -1.3127 -0.8805
   98MOL0     H13227   2.018   8.427   9.289 -0.7823  2.2379  0.4996
   98MOL0     H13228   2.265   8.505   9.047  1.0653 -1.3858 -0.2278
   98MOL0     H13229   2.223   8.505   9.220 -1.6117 -1.2278  0.5593
   98MOL0     H13230   2.275   8.351   9.148 -1.9427 -1.2120  0.3647
   99MOL0     O13231   9.057   6.218   8.779 -0.1316 -0.4471 -0.1785
   99MOL0     C13232   9.152   6.248   8.707 -0.3602 -0.1767  0.4394
   99MOL0     O13233   9.206   6.156   8.619 -0.0246 -0.3341  0.0058
   99MOL0     C13234   9.129   6.059   8.554  0.2196 -0.4790 -0.5939
   99MOL0     C13235   8.989   6.050   8.551 -0.1617  0.6990  0.8949
   99MOL0     C13236   8.928   5.943   8.473  0.0995 -0.2865  0.5372
   99MOL0     C13237   9.013   5.853   8.400 -1.1240  0.0345 -0.7569
   99MOL0     O13238   8.965   5.750   8.312  0.5715  0.3213 -0.1227
   99MOL0     C13239   8.828   5.741   8.304  0.2344  0.2955  0.0287
   99MOL0     C13240   8.795   5.613   8.224 -0.0235  0.1425 -0.4578
   99MOL0     C13241   8.642   5.595   8.213  0.0964  0.1779  0.6090
   99MOL0     C13242   8.597   5.532   8.339  0.5913  0.1955 -0.3922
   99MOL0     C13243   8.445   5.513   8.325 -0.5827 -0.3432  0.2412
   99MOL0     C13244   8.386   5.504   8.469  0.0782  0.0076 -0.6212
   99MOL0     C13245   8.236   5.492   8.465 -0.1979  0.0999  0.3215
   99MOL0     C13246   8.162   5.632   8.464 -0.0516  0.2642 -0.2470
   99MOL0     N13247   8.028   5.607   8.409 -1.0700 -0.0644  0.5910
   99MOL0     C13248   8.025   5.608   8.274  0.6108 -0.2577  0.2146
   99MOL0     C13249   7.898   5.579   8.240 -0.3089 -0.0473 -0.6781
   99MOL0     C13250   7.861   5.535   8.105 -0.8449  0.2284 -0.3528
   99MOL0     C13251   7.949   5.409   8.059 -0.3436 -1.2945  0.9327
   99MOL0     C13252   7.939   5.393   7.909  0.5296 -0.2837  0.5290
   99MOL0     C13253   7.814   5.309   7.888 -0.0285 -0.3258  0.6653
   99MOL0     O13254   7.831   5.182   7.949 -1.1946 -0.6635  0.3153
   99MOL0     C13255   7.747   5.077   7.913  0.2827  0.9052 -0.1588
   99MOL0     C13256   7.637   5.094   7.817 -0.6048  0.1569 -0.3820
   99MOL0     C13257   7.560   4.976   7.785  1.0169 -0.0645  0.2290
   99MOL0     C13258   7.590   4.851   7.845 -0.1306 -0.0326  0.5652
   99MOL0     C13259   7.515   4.729   7.793  0.3318 -0.3945 -0.5779
   99MOL0     O13260   7.398   4.749   7.721  0.3917  0.1856 -0.1132
   99MOL0     C13261   7.351   4.651   7.632 -0.2128  0.7234 -0.6004
   99MOL0     C13262   7.213   4.617   7.620 -0.1219 -0.2046  0.7509
   99MOL0     C13263   7.175   4.513   7.534 -1.0363  0.4050  0.9220
   99MOL0     C13264   7.267   4.462   7.434  0.2818  0.2826  0.2149
   99MOL0     O13265   7.224   4.373   7.343  0.4692  0.3984  0.2520
   99MOL0     C13266   7.205   4.239   7.386 -0.6814 -0.5920 -0.4631
   99MOL0     C13267   7.141   4.145   7.285 -0.4566  0.4228  0.0903
   99MOL0     C13268   7.245   4.028   7.257 -0.1962 -0.7381 -0.0872
   99MOL0     C13269   7.170   3.910   7.202  1.0969 -0.3585 -0.1897
   99MOL0     C13270   7.248   3.790   7.155 -0.2259  0.1301 -0.0011
   99MOL0     C13271   7.188   3.662   7.173  0.6061  0.3723 -0.1882
   99MOL0     C13272   7.254   3.540   7.127  1.0885 -1.1610  1.3631
   99MOL0     C13273   7.187   3.410   7.169 -0.1775  0.8368  0.2494
   99MOL0    Cl13274   7.288   3.269   7.152  0.4044  0.4508  0.0691
   99MOL0     C13275   7.405   4.506   7.438  0.4731 -0.0710  0.4119
   99MOL0     C13276   7.443   4.603   7.533  0.3213 -0.6325 -0.9645
   99MOL0     O13277   7.567   4.620   7.811 -0.0981 -0.2913 -0.1149
   99MOL0     C13278   7.697   4.842   7.939 -0.9702  0.1472 -0.6677
   99MOL0     C13279   7.775   4.953   7.966 -0.1948 -0.5543 -0.0248
   99MOL0     N13280   7.826   5.573   8.358 -0.5058 -0.4930 -0.8620
   99MOL0     N13281   7.906   5.586   8.462  0.1702 -0.5529  0.6952
   99MOL0     C13282   9.146   5.859   8.424 -0.5574 -0.5654  0.7670
   99MOL0     C13283   9.200   5.958   8.497  0.1858  0.1899  0.0922
   99MOL0     C13284   9.206   6.388   8.713 -0.0104 -0.1728 -0.1232
   99MOL0     C13285   9.340   6.383   8.727  0.5969  0.8179  0.1131
   99MOL0     C13286   9.413   6.498   8.745  0.5179 -0.0440  0.3387
   99MOL0     C13287   9.356   6.622   8.733 -0.5644 -0.4377 -0.4023
   99MOL0     O13288   9.447   6.729   8.765  0.8296  0.6748  0.9905
   99MOL0     C13289   9.417   6.861   8.719 -1.1157 -0.3651 -0.7556
   99MOL0     C13290   9.327   6.945   8.819  0.0992  0.1568 -0.4941
   99MOL0     C13291   9.375   6.931   8.961 -0.8301 -0.2371  0.6531
   99MOL0     C13292   9.299   6.834   9.053  0.3558  0.9014 -0.1443
   99MOL0     C13293   9.161   6.887   9.077 -0.4936  0.2240  0.4610
   99MOL0     C13294   9.049   6.933   9.097  0.9765  0.3475  0.6959
   99MOL0     C13295   9.211   6.622   8.727 -0.4539  0.1361 -0.8066
   99MOL0     C13296   9.137   6.509   8.714 -0.7233  0.6942 -1.5376
   99MOL0     C13297   8.991   6.516   8.700 -0.5857 -0.2670  0.9283
   99MOL0     H13298   8.922   6.118   8.603  1.6497  1.8591  1.7939
   99MOL0     H13299   8.820   5.944   8.463  0.1241 -1.2096  0.1213
   99MOL0     H13300   8.774   5.744   8.399  2.3968  0.7332  1.3328
   99MOL0     H13301   8.803   5.829   8.245 -1.2174 -0.5155 -0.6218
   99MOL0     H13302   8.849   5.525   8.259 -0.6053 -0.0251  0.0506
   99MOL0     H13303   8.830   5.630   8.122 -0.7912  1.0972 -0.5833
   99MOL0     H13304   8.630   5.528   8.127  3.7365 -0.3231  0.3286
   99MOL0     H13305   8.598   5.692   8.190 -3.0598 -1.1658  0.4344
   99MOL0     H13306   8.645   5.437   8.364 -0.9515 -0.8058 -1.0454
   99MOL0     H13307   8.605   5.613   8.411  0.2203  0.6698 -0.8790
   99MOL0     H13308   8.394   5.591   8.267 -1.7633 -3.0568 -2.6636
   99MOL0     H13309   8.417   5.423   8.269  0.9817  1.8410 -4.6999
   99MOL0     H13310   8.421   5.408   8.510 -1.7371 -1.9645 -3.3387
   99MOL0     H13311   8.423   5.589   8.527  1.1016  2.5384 -4.6135
   99MOL0     H13312   8.208   5.431   8.552  0.0711 -1.5074 -0.6744
   99MOL0     H13313   8.211   5.432   8.377  2.8407 -0.7442 -0.1022
   99MOL0     H13314   8.149   5.671   8.565  0.7976  2.0282 -0.7720
   99MOL0     H13315   8.218   5.707   8.408  0.4482  0.0420 -0.0483
   99MOL0     H13316   8.108   5.605   8.204 -0.8423 -1.5388 -1.5331
   99MOL0     H13317   7.757   5.502   8.102 -0.2397 -1.7442 -1.6341
   99MOL0     H13318   7.884   5.626   8.049 -0.2672 -1.3101 -2.7507
   99MOL0     H13319   8.054   5.425   8.088 -0.3124 -4.1927  2.8799
   99MOL0     H13320   7.907   5.330   8.122 -3.5298 -0.4342  0.0289
   99MOL0     H13321   8.028   5.338   7.878  1.3979  2.1841 -1.6723
   99MOL0     H13322   7.940   5.490   7.859  3.3050 -1.3215 -1.6576
   99MOL0     H13323   7.811   5.289   7.781  2.5077  1.1611  0.2267
   99MOL0     H13324   7.723   5.358   7.923 -2.6996 -2.8818 -2.0945
   99MOL0     H13325   7.628   5.193   7.774  0.6732  0.3248 -0.2914
   99MOL0     H13326   7.487   4.996   7.706  0.9106  1.9393  0.7936
   99MOL0     H13327   7.138   4.656   7.688 -0.8403  0.1671 -0.2444
   99MOL0     H13328   7.072   4.480   7.543 -1.0001  0.1222  0.3498
   99MOL0     H13329   7.295   4.196   7.431 -2.6168 -1.2974  3.0454
   99MOL0     H13330   7.139   4.251   7.472  1.2502  2.5565  0.7485
   99MOL0     H13331   7.059   4.097   7.338 -0.2346 -0.5941 -0.4603
   99MOL0     H13332   7.095   4.193   7.198 -0.7866  1.4941  0.8378
   99MOL0     H13333   7.317   4.057   7.180 -0.1948 -0.7803 -0.1009
   99MOL0     H13334   7.296   4.007   7.352  2.8937  4.1211 -0.3073
   99MOL0     H13335   7.101   3.942   7.124  1.1912  1.3397  0.3821
   99MOL0     H13336   7.113   3.864   7.283  3.1377  1.2130  2.2909
   99MOL0     H13337   7.339   3.800   7.215 -1.3386  1.8023  1.5033
   99MOL0     H13338   7.283   3.803   7.052  0.5013 -0.9303  0.0843
   99MOL0     H13339   7.152   3.642   7.274  2.8851  1.8786  1.0079
   99MOL0     H13340   7.102   3.672   7.107  0.6708 -1.7892 -0.6818
   99MOL0     H13341   7.353   3.540   7.174  1.0629 -0.3292  1.4375
   99MOL0     H13342   7.270   3.533   7.019 -1.5538 -1.7446  0.9352
   99MOL0     H13343   7.153   3.408   7.273 -1.3172  0.5175 -0.1143
   99MOL0     H13344   7.103   3.398   7.101  0.7643  1.8593 -1.1654
   99MOL0     H13345   7.482   4.471   7.370  1.0424 -0.5993  1.3025
   99MOL0     H13346   7.544   4.641   7.532 -0.1490  0.6714 -1.0639
   99MOL0     H13347   7.705   4.748   7.992  2.2896  0.1721 -0.9151
   99MOL0     H13348   7.859   4.950   8.035 -0.0770  3.0923  0.1593
   99MOL0     H13349   9.198   5.776   8.379  1.3457  1.3507 -0.8088
   99MOL0     H13350   9.308   5.950   8.491  0.0599 -1.9028 -0.2023
   99MOL0     H13351   9.388   6.287   8.711  0.7218  1.2339 -2.3893
   99MOL0     H13352   9.518   6.477   8.764  0.4226 -0.0825  0.8300
   99MOL0     H13353   9.378   6.853   8.617 -0.0294  1.0950 -1.3127
   99MOL0     H13354   9.514   6.911   8.728 -0.8714 -0.8229 -0.7988
   99MOL0     H13355   9.223   6.915   8.831  0.3536  0.5754  4.9249
   99MOL0     H13356   9.325   7.052   8.796  1.2415  0.2129 -0.3617
   99MOL0     H13357   9.382   7.031   9.006 -0.5334 -0.5688  1.3616
   99MOL0     H13358   9.480   6.900   8.960 -0.2722  1.4555 -1.4637
   99MOL0     H13359   9.280   6.742   8.998 -2.5079  3.1283 -3.3196
   99MOL0     H13360   9.339   6.813   9.152 -2.4885  0.1139  0.9394
   99MOL0     H13361   8.947   6.959   9.113  0.5244 -1.2908  0.6006
   99MOL0     H13362   9.163   6.719   8.731  3.5393  2.3556 -1.8044
   99MOL0     H13363   8.951   6.549   8.796  1.4208  2.1395  1.0488
   99MOL0     H13364   8.981   6.599   8.629  1.4558 -3.0470 -3.0339
   99MOL0     H13365   8.938   6.429   8.661 -1.8791 -0.2735  2.5902
  100MOL0     O13366   8.411  10.493   7.916  0.2619 -0.2934 -0.4020
  100MOL0     C13367   8.523  10.511   7.863 -0.4297  0.1813  0.1190
  100MOL0     O13368   8.546  10.517   7.728 -0.0459 -0.4753 -0.5850
  100MOL0     C13369   8.427  10.527   7.652 -0.6216 -0.1290 -0.8945
  100MOL0     C13370   8.375  10.655   7.633  0.0704 -0.6841  0.0796
  100MOL0     C13371   8.247  10.666   7.580  0.5252 -0.1657 -0.5324
  100MOL0     C13372   8.185  10.553   7.529  0.1237 -0.6904  0.4937
  100MOL0     O13373   8.076  10.573   7.437 -0.2362 -0.5283  0.1219
  100MOL0     C13374   8.025  10.470   7.362  0.7951  0.1114 -0.2220
  100MOL0     C13375   7.911  10.398   7.449  0.0604 -0.6388 -0.1829
  100MOL0     C13376   7.768  10.447   7.421 -0.5113 -0.1415  0.5042
  100MOL0     C13377   7.658  10.374   7.505  1.3663 -0.9408 -0.8385
  100MOL0     C13378   7.603  10.459   7.620 -0.0276  0.3235 -0.5097
  100MOL0     C13379   7.508  10.376   7.712 -0.7602  0.0910  0.3286
  100MOL0     C13380   7.364  10.338   7.653 -0.4576 -0.0418 -0.1722
  100MOL0     C13381   7.270  10.251   7.739  0.5381 -0.9904  0.0794
  100MOL0     N13382   7.200  10.328   7.841 -0.2974  0.1289  0.6742
  100MOL0     C13383   7.229  10.393   7.962  0.0049  0.4445  1.5518
  100MOL0     C13384   7.119  10.451   8.004  0.2710  0.0113  0.0457
  100MOL0     C13385   7.098  10.539   8.126 -0.2973  0.3295 -0.1220
  100MOL0     C13386   7.184  10.666   8.097  0.6213  0.0272 -0.4303
  100MOL0     C13387   7.160  10.752   7.972 -0.2577  0.6897 -0.1871
  100MOL0     C13388   7.009  10.778   7.947 -0.4105  0.0847 -0.2138
  100MOL0     O13389   6.989  10.860   7.832  0.0501 -0.4831 -0.1088
  100MOL0     C13390   6.892  10.826   7.739 -0.2888 -0.3282 -1.5381
  100MOL0     C13391   6.844  10.926   7.656  0.5250 -0.1438 -0.5692
  100MOL0     C13392   6.758  10.908   7.548  0.3544  0.3193  0.3912
  100MOL0     C13393   6.705  10.780   7.531 -0.7536  0.6956  1.2327
  100MOL0     C13394   6.628  10.735   7.417  0.5638 -0.0178 -0.2238
  100MOL0     O13395   6.591  10.829   7.324 -0.0851 -0.6084  0.1977
  100MOL0     C13396   6.535  10.778   7.208  0.2023  0.7202  0.0722
  100MOL0     C13397   6.396  10.763   7.221 -1.3082  0.0120  0.0852
  100MOL0     C13398   6.325  10.715   7.107  0.7846  0.1177 -0.7554
  100MOL0     C13399   6.395  10.693   6.989 -0.3190  0.3744  0.1842
  100MOL0     O13400   6.328  10.676   6.865 -0.0060 -1.0187  0.2243
  100MOL0     C13401   6.183  10.711   6.845  0.8345 -0.3509 -0.5216
  100MOL0     C13402   6.136  10.619   6.734 -0.6565 -0.6383 -0.2053
  100MOL0     C13403   6.016  10.674   6.662  0.1749 -0.0228 -0.1126
  100MOL0     C13404   5.987  10.603   6.530 -0.0733  0.3242 -0.0080
  100MOL0     C13405   5.841  10.620   6.476 -0.0295 -0.1298 -0.5186
  100MOL0     C13406   5.819  10.566   6.330 -0.0560 -0.4427 -0.4657
  100MOL0     C13407   5.811  10.416   6.335  1.3725  0.5450  1.0321
  100MOL0     C13408   5.810  10.360   6.186 -0.3912  0.2575  0.6050
  100MOL0    Cl13409   5.975  10.376   6.118 -0.5793 -0.0726 -0.7939
  100MOL0     C13410   6.534  10.709   6.984  1.5095 -0.8533 -0.8316
  100MOL0     C13411   6.605  10.755   7.095  0.4111  0.5492 -0.5590
  100MOL0     O13412   6.602  10.618   7.421  0.4059  0.3718  0.2480
  100MOL0     C13413   6.738  10.682   7.629 -0.3542  0.2943  0.4976
  100MOL0     C13414   6.833  10.702   7.727  0.5156  0.2438 -0.2372
  100MOL0     N13415   7.019  10.428   7.915 -0.3341  0.0787 -0.4088
  100MOL0     N13416   7.070  10.358   7.820  0.4713  0.3464  0.5834
  100MOL0     C13417   8.235  10.434   7.568 -0.3759  0.0651  0.8867
  100MOL0     C13418   8.358  10.414   7.625 -0.6955  0.0210  0.0223
  100MOL0     C13419   8.637  10.533   7.962  0.0345  0.0889 -0.1077
  100MOL0     C13420   8.752  10.580   7.899 -0.4001 -0.0385 -0.2918
  100MOL0     C13421   8.867  10.604   7.976 -0.1675 -0.4174 -0.4206
  100MOL0     C13422   8.874  10.573   8.116  1.1464  0.5947  1.2518
  100MOL0     O13423   8.994  10.598   8.184 -0.2506 -0.2091  0.6806
  100MOL0     C13424   9.013  10.556   8.321  0.3572  0.0335 -0.2266
  100MOL0     C13425   9.007  10.674   8.416 -0.2336 -0.0822 -0.4233
  100MOL0     C13426   8.984  10.650   8.564 -0.4095 -0.9805 -0.0350
  100MOL0     C13427   9.114  10.614   8.632  0.1264  0.1385  0.3610
  100MOL0     C13428   9.166  10.476   8.593 -0.0725 -0.1192  1.1424
  100MOL0     C13429   9.212  10.367   8.560 -0.9031  0.6817  0.2930
  100MOL0     C13430   8.760  10.511   8.176  0.5070 -0.0965 -1.0783
  100MOL0     C13431   8.638  10.502   8.107  0.4451  0.2558  0.3715
  100MOL0     C13432   8.522  10.446   8.185  0.0177 -0.1133  0.6442
  100MOL0     H13433   8.435  10.743   7.655  0.2410 -0.0938 -2.3945
  100MOL0     H13434   8.212  10.763   7.546  0.1203 -0.2146 -0.2585
  100MOL0     H13435   7.986  10.501   7.264  0.2381  1.5091  0.4190
  100MOL0     H13436   8.109  10.401   7.352  2.0575  1.7388 -1.5838
  100MOL0     H13437   7.929  10.415   7.556  0.5678  2.0926 -0.6194
  100MOL0     H13438   7.919  10.292   7.427  0.9622 -0.3039 -1.5612
  100MOL0     H13439   7.749  10.422   7.316  1.0918 -1.4619  0.4824
  100MOL0     H13440   7.758  10.554   7.440 -5.4477  0.6108 -3.9888
  100MOL0     H13441   7.578  10.368   7.430  0.8703 -0.5098 -0.3490
  100MOL0     H13442   7.692  10.278   7.546 -1.2417 -1.7600 -0.3794
  100MOL0     H13443   7.695  10.499   7.663 -0.9056  3.4345 -1.2979
  100MOL0     H13444   7.550  10.551   7.595  1.0984  0.9898 -0.4658
  100MOL0     H13445   7.560  10.283   7.736  1.0122  1.6046  2.8412
  100MOL0     H13446   7.495  10.419   7.812  1.4812 -3.2168  2.2408
  100MOL0     H13447   7.379  10.279   7.562  0.2809  0.3658 -0.3279
  100MOL0     H13448   7.312  10.429   7.624  0.6149  0.5168 -0.4138
  100MOL0     H13449   7.194  10.195   7.685  0.0721 -2.4519  2.1193
  100MOL0     H13450   7.327  10.173   7.790  2.9956 -0.1702 -1.2500
  100MOL0     H13451   7.322  10.411   8.015  1.6112 -1.0109 -0.5674
  100MOL0     H13452   6.992  10.555   8.148 -0.6129  0.7008 -1.7961
  100MOL0     H13453   7.147  10.496   8.214 -2.2133 -3.6357 -0.7295
  100MOL0     H13454   7.171  10.736   8.180 -0.5065  0.0218 -0.5829
  100MOL0     H13455   7.289  10.636   8.090  0.4629 -0.1640 -3.2718
  100MOL0     H13456   7.203  10.690   7.893  0.1685 -0.6888  1.0666
  100MOL0     H13457   7.207  10.850   7.977 -1.0522  1.1325 -1.0833
  100MOL0     H13458   6.963  10.834   8.029 -0.5130  0.4980 -0.5512
  100MOL0     H13459   6.962  10.679   7.954  0.4210 -0.2572  1.0110
  100MOL0     H13460   6.889  11.024   7.670 -0.7967  0.6030 -1.2684
  100MOL0     H13461   6.741  10.987   7.476 -1.8441  0.6296  1.1567
  100MOL0     H13462   6.347  10.773   7.317 -0.2845 -0.7960  0.7072
  100MOL0     H13463   6.218  10.694   7.109 -0.0356  3.3619 -2.6645
  100MOL0     H13464   6.135  10.689   6.941  2.2756  0.8901  0.5430
  100MOL0     H13465   6.171  10.815   6.812  0.3227 -0.8302 -1.8962
  100MOL0     H13466   6.212  10.611   6.657 -0.6097 -2.2046 -0.0360
  100MOL0     H13467   6.102  10.522   6.772 -2.0422  0.0405  0.3617
  100MOL0     H13468   5.941  10.661   6.741  0.6319  1.2738  0.5652
  100MOL0     H13469   6.035  10.779   6.640 -1.3599  0.4539  0.6648
  100MOL0     H13470   5.998  10.496   6.551 -0.0887  0.0205 -1.4632
  100MOL0     H13471   6.054  10.628   6.446 -1.2606  0.8599 -0.8208
  100MOL0     H13472   5.830  10.727   6.460  0.3161  0.5500  3.0620
  100MOL0     H13473   5.771  10.578   6.549  1.8886 -0.6222  1.1529
  100MOL0     H13474   5.727  10.603   6.284 -0.6030 -0.5932  0.4680
  100MOL0     H13475   5.902  10.602   6.269 -0.1801 -0.1752 -0.4777
  100MOL0     H13476   5.718  10.373   6.373  0.0024 -2.1532 -4.4065
  100MOL0     H13477   5.894  10.372   6.391  1.0811 -0.3856  0.7448
  100MOL0     H13478   5.779  10.255   6.179  0.6144  0.0105 -0.4480
  100MOL0     H13479   5.741  10.403   6.113  1.2661  0.0134 -1.1784
  100MOL0     H13480   6.603  10.697   6.900  3.6404 -0.1233  0.7182
  100MOL0     H13481   6.707  10.790   7.107 -0.7951  3.7523  2.0916
  100MOL0     H13482   6.696  10.582   7.631 -0.8238  0.4926  0.5503
  100MOL0     H13483   6.865  10.619   7.788 -0.2185 -1.8563 -2.5177
  100MOL0     H13484   8.185  10.343   7.538  0.6677 -0.1225 -0.3894
  100MOL0     H13485   8.399  10.315   7.645 -1.0846 -0.0653  0.4028
  100MOL0     H13486   8.760  10.596   7.792  1.1853 -1.1769 -0.3842
  100MOL0     H13487   8.950  10.652   7.925 -0.3121 -2.1700 -2.4700
  100MOL0     H13488   9.109  10.505   8.332 -0.0114 -0.2762  2.1408
  100MOL0     H13489   8.932  10.489   8.351 -0.9094  1.4825 -0.2903
  100MOL0     H13490   8.925  10.743   8.390  0.6656  1.1267 -0.1298
  100MOL0     H13491   9.097  10.733   8.400 -2.2947  3.0900 -1.3899
  100MOL0     H13492   8.902  10.579   8.579 -0.0960 -1.0810  1.2914
  100MOL0     H13493   8.946  10.739   8.614 -0.8682 -0.6857 -0.8865
  100MOL0     H13494   9.195  10.681   8.601  1.8802 -2.0871 -0.0785
  100MOL0     H13495   9.095  10.626   8.739 -1.6523  0.1204  0.0766
  100MOL0     H13496   9.239  10.264   8.545 -0.6262  0.2269  3.4060
  100MOL0     H13497   8.748  10.470   8.276 -1.9666 -1.2608 -1.7772
  100MOL0     H13498   8.434  10.507   8.160 -0.3868 -1.8267 -2.6923
  100MOL0     H13499   8.495  10.343   8.160 -3.1685  0.3294  1.7808
  100MOL0     H13500   8.537  10.444   8.293 -1.5040 -0.7387  0.8744
  101MOL0     O13501   6.286   7.785   2.255  0.0854 -0.2935  0.3194
  101MOL0     C13502   6.194   7.868   2.246 -0.6041 -0.3607  0.6796
  101MOL0     O13503   6.215   8.001   2.213  0.4500 -0.2683  0.3937
  101MOL0     C13504   6.343   8.039   2.172 -0.6975 -0.6092 -0.3515
  101MOL0     C13505   6.460   8.037   2.257 -0.0696 -0.6371 -0.4006
  101MOL0     C13506   6.584   8.102   2.218  0.6569  0.1897  0.1916
  101MOL0     C13507   6.583   8.181   2.102  0.1805 -0.0867  1.1243
  101MOL0     O13508   6.701   8.249   2.061  0.0563 -0.2930  0.2869
  101MOL0     C13509   6.815   8.165   2.054 -0.0932  0.1097  0.0232
  101MOL0     C13510   6.933   8.238   2.126  0.5003 -0.6129  0.0374
  101MOL0     C13511   7.064   8.212   2.053 -0.1437 -0.0052  0.9777
  101MOL0     C13512   7.188   8.260   2.124 -1.1041  0.0721  0.0258
  101MOL0     C13513   7.323   8.216   2.043  1.1234 -0.2722 -1.2452
  101MOL0     C13514   7.438   8.244   2.138 -0.5239 -0.5108  0.2376
  101MOL0     C13515   7.557   8.170   2.070 -0.0248  0.5115  0.0455
  101MOL0     C13516   7.681   8.179   2.160  0.8294 -0.1980 -0.1850
  101MOL0     N13517   7.735   8.314   2.165 -0.3132 -0.5053  0.2067
  101MOL0     C13518   7.693   8.423   2.241 -0.0829  0.5236  0.3312
  101MOL0     C13519   7.779   8.520   2.202 -0.7878 -0.9292  0.1698
  101MOL0     C13520   7.760   8.669   2.233 -0.1016 -1.1112  0.0024
  101MOL0     C13521   7.674   8.737   2.126 -0.7880  0.0942  1.5773
  101MOL0     C13522   7.678   8.894   2.147 -0.6620  0.4871 -0.2917
  101MOL0     C13523   7.551   8.952   2.095  1.3452  0.6388  0.4701
  101MOL0     O13524   7.543   8.940   1.949 -0.1376 -0.5820 -0.2303
  101MOL0     C13525   7.421   8.939   1.894  0.3987 -0.2314 -0.2605
  101MOL0     C13526   7.384   8.836   1.806 -0.1121  0.1855 -0.4076
  101MOL0     C13527   7.244   8.827   1.758 -0.3126  0.5039 -0.1943
  101MOL0     C13528   7.149   8.920   1.798  0.4835  0.7173  0.4752
  101MOL0     C13529   7.013   8.909   1.765  0.7485  0.0289 -0.2732
  101MOL0     O13530   6.928   8.995   1.833  0.0559  0.2791  0.5348
  101MOL0     C13531   6.789   8.988   1.840 -0.2947  0.0299  0.3122
  101MOL0     C13532   6.727   9.106   1.844  0.1389  0.2573 -0.5307
  101MOL0     C13533   6.594   9.122   1.828  0.5632 -0.0990 -0.0379
  101MOL0     C13534   6.508   9.006   1.826 -0.2126  0.6410  0.4529
  101MOL0     O13535   6.375   8.996   1.826 -0.1068  0.3894  0.0370
  101MOL0     C13536   6.293   9.108   1.800  0.2477  1.4836 -0.7999
  101MOL0     C13537   6.146   9.073   1.846  0.4417 -0.4397 -0.7213
  101MOL0     C13538   6.075   8.962   1.762  0.2483 -0.5508  0.6323
  101MOL0     C13539   5.933   8.938   1.808  0.2578 -1.3364  0.7033
  101MOL0     C13540   5.854   8.852   1.709  0.2509  0.4176  0.1976
  101MOL0     C13541   5.721   8.803   1.777 -0.2058 -0.0444 -0.1099
  101MOL0     C13542   5.675   8.664   1.719 -0.4379 -0.6398  0.4391
  101MOL0     C13543   5.567   8.596   1.791  0.1007  1.0293  0.6171
  101MOL0    Cl13544   5.613   8.502   1.943 -0.1414  0.2819 -0.1567
  101MOL0     C13545   6.572   8.889   1.860  0.6382  1.5212  0.1796
  101MOL0     C13546   6.710   8.882   1.847  0.9261 -0.2470  0.3550
  101MOL0     O13547   6.975   8.841   1.669 -0.4167 -0.1586 -0.3911
  101MOL0     C13548   7.195   9.021   1.873  0.0934 -0.0282  0.2051
  101MOL0     C13549   7.327   9.037   1.934  0.0738 -0.2182  0.1330
  101MOL0     N13550   7.875   8.469   2.119 -0.1703 -0.0622 -0.6882
  101MOL0     N13551   7.841   8.343   2.098 -0.0349 -0.1380  0.3534
  101MOL0     C13552   6.469   8.187   2.021 -0.6856 -0.4473 -0.4580
  101MOL0     C13553   6.350   8.125   2.061 -0.2828 -0.1661  0.7606
  101MOL0     C13554   6.058   7.830   2.268  0.9192  0.1931 -0.0673
  101MOL0     C13555   5.959   7.928   2.245  0.6472  0.3274 -0.2762
  101MOL0     C13556   5.827   7.898   2.270  0.0470  0.1419  0.5198
  101MOL0     C13557   5.787   7.779   2.335  0.1455 -0.5607  0.4565
  101MOL0     O13558   5.658   7.741   2.370 -0.6235 -0.3076 -0.8452
  101MOL0     C13559   5.565   7.738   2.265 -0.9147  0.0506 -0.1163
  101MOL0     C13560   5.435   7.761   2.350 -0.1727 -0.4723  0.4729
  101MOL0     C13561   5.304   7.746   2.281  0.6208  0.1292  0.3193
  101MOL0     C13562   5.205   7.683   2.374  0.2898 -0.1736  0.1571
  101MOL0     C13563   5.176   7.756   2.497 -0.3410  0.2767 -0.3385
  101MOL0     C13564   5.158   7.832   2.586  0.1471 -0.2420 -0.7091
  101MOL0     C13565   5.883   7.681   2.363 -0.3554 -0.0509 -1.0356
  101MOL0     C13566   6.021   7.712   2.335 -0.3548  0.5152 -0.3219
  101MOL0     C13567   6.122   7.611   2.383  1.5698 -0.1643  0.1553
  101MOL0     H13568   6.457   7.974   2.345  1.8085  1.2614  1.1415
  101MOL0     H13569   6.671   8.084   2.280 -0.4354  0.3539  1.8546
  101MOL0     H13570   6.790   8.065   2.089  2.3217 -0.5803 -0.0695
  101MOL0     H13571   6.851   8.150   1.952 -0.1034 -0.5396  0.1133
  101MOL0     H13572   6.931   8.197   2.228 -1.7364  0.4833  0.5056
  101MOL0     H13573   6.916   8.346   2.131  1.2833 -0.4836 -0.0138
  101MOL0     H13574   7.060   8.274   1.963  1.7587  0.3914  1.1255
  101MOL0     H13575   7.078   8.107   2.027  0.6628 -0.3401  2.6725
  101MOL0     H13576   7.192   8.367   2.149  0.8306 -0.3419  1.8084
  101MOL0     H13577   7.189   8.205   2.219 -2.5293 -1.5804 -0.8764
  101MOL0     H13578   7.332   8.109   2.027  2.1208 -0.9972  2.9471
  101MOL0     H13579   7.320   8.269   1.947 -0.1521  1.1031 -0.5035
  101MOL0     H13580   7.450   8.353   2.136 -1.9696 -0.3278 -1.3903
  101MOL0     H13581   7.415   8.205   2.237 -2.2515 -1.5133 -0.5163
  101MOL0     H13582   7.566   8.195   1.964  0.7491  1.6723  0.3638
  101MOL0     H13583   7.534   8.063   2.064 -0.3899  0.4826  1.5637
  101MOL0     H13584   7.649   8.156   2.262 -2.6578  2.9705 -0.3318
  101MOL0     H13585   7.761   8.110   2.130  1.4180 -0.1665  1.2331
  101MOL0     H13586   7.607   8.429   2.307  0.7658 -0.6224  1.5838
  101MOL0     H13587   7.709   8.673   2.329 -2.0232  0.7937 -1.0228
  101MOL0     H13588   7.850   8.728   2.250 -0.0299 -0.3021 -2.6291
  101MOL0     H13589   7.718   8.704   2.032 -0.6369 -0.6502  1.8985
  101MOL0     H13590   7.571   8.700   2.121 -1.0286  0.9225 -1.3079
  101MOL0     H13591   7.767   8.927   2.092  0.4498 -1.6519  0.1066
  101MOL0     H13592   7.704   8.927   2.248 -1.6711 -1.2583  0.5784
  101MOL0     H13593   7.558   9.060   2.110 -0.3888  0.5678  2.1382
  101MOL0     H13594   7.463   8.906   2.140  0.2607 -0.4220 -2.5383
  101MOL0     H13595   7.454   8.758   1.778  1.7905  0.7539  2.3309
  101MOL0     H13596   7.223   8.749   1.686 -0.0704  0.6907 -0.4693
  101MOL0     H13597   6.786   9.198   1.837  3.4123 -1.4770  1.5824
  101MOL0     H13598   6.558   9.225   1.821  1.5937  0.9073  5.4077
  101MOL0     H13599   6.332   9.191   1.860  1.5713 -1.2625  2.4831
  101MOL0     H13600   6.303   9.127   1.693 -0.0778 -0.8357 -1.2877
  101MOL0     H13601   6.147   9.044   1.951 -0.5235  2.0856  0.0759
  101MOL0     H13602   6.087   9.165   1.837 -3.2960 -2.5931 -0.2989
  101MOL0     H13603   6.063   9.011   1.665  2.7462  2.2323  1.5666
  101MOL0     H13604   6.136   8.871   1.755  3.3820  1.1939  2.4413
  101MOL0     H13605   5.883   9.033   1.829 -0.0616 -1.8288  2.2375
  101MOL0     H13606   5.940   8.885   1.903  3.2758 -0.9285  0.8316
  101MOL0     H13607   5.918   8.765   1.688  0.7153  0.0740  2.7319
  101MOL0     H13608   5.829   8.903   1.615 -3.6863  0.5105  1.1287
  101MOL0     H13609   5.741   8.792   1.884  0.0466 -1.7986 -0.3022
  101MOL0     H13610   5.636   8.871   1.770  2.0075  2.7324 -2.8183
  101MOL0     H13611   5.760   8.594   1.716 -0.5114 -0.7480 -2.9012
  101MOL0     H13612   5.637   8.685   1.619 -3.7484 -3.1650  0.9686
  101MOL0     H13613   5.502   8.680   1.818 -1.2605 -0.0177  0.6897
  101MOL0     H13614   5.526   8.520   1.724  1.5861  2.4571 -2.0377
  101MOL0     H13615   6.514   8.798   1.873  2.6400  0.2727  0.6444
  101MOL0     H13616   6.763   8.788   1.836 -1.8769 -2.0221  1.0504
  101MOL0     H13617   7.128   9.105   1.892  0.9040  0.8181 -0.6011
  101MOL0     H13618   7.333   9.121   2.002 -4.5142 -0.4726  1.1393
  101MOL0     H13619   6.466   8.245   1.929 -2.1476  0.7002  0.2754
  101MOL0     H13620   6.265   8.135   1.994 -0.0602  0.4110  0.5566
  101MOL0     H13621   5.976   8.025   2.198 -2.4529 -0.6765 -3.9065
  101MOL0     H13622   5.750   7.966   2.236  1.8622  2.4801  0.7222
  101MOL0     H13623   5.570   7.637   2.224 -1.0067 -1.1483  2.5746
  101MOL0     H13624   5.575   7.814   2.187 -2.3873  0.4091  0.0037
  101MOL0     H13625   5.431   7.860   2.396  1.2845  1.3253 -2.8975
  101MOL0     H13626   5.443   7.688   2.432  0.0388 -0.0451  0.8373
  101MOL0     H13627   5.317   7.687   2.189  0.3945 -1.7593  1.4454
  101MOL0     H13628   5.260   7.836   2.239 -0.1142 -0.7057 -0.7647
  101MOL0     H13629   5.112   7.680   2.316  1.4686  2.2422 -2.0416
  101MOL0     H13630   5.236   7.580   2.396  0.6181  0.5536  3.7580
  101MOL0     H13631   5.133   7.905   2.660  0.5743  1.8294 -2.5098
  101MOL0     H13632   5.849   7.590   2.412  0.7290  0.1946  0.2330
  101MOL0     H13633   6.196   7.660   2.447  1.0072  1.3185 -0.2886
  101MOL0     H13634   6.071   7.538   2.446  0.5459  0.5540  0.1904
  101MOL0     H13635   6.173   7.562   2.299 -0.2818 -1.7907 -0.0850
  102MOL0     O13636   5.278   3.257   1.889 -0.2880 -1.2274 -0.6115
  102MOL0     C13637   5.234   3.143   1.917  0.1104 -0.1836  0.7205
  102MOL0     O13638   5.166   3.113   2.036 -0.4595 -0.2211 -0.3756
  102MOL0     C13639   5.124   3.212   2.121  0.0600  0.0609 -0.0959
  102MOL0     C13640   5.123   3.188   2.260 -0.1810 -0.4775  0.2455
  102MOL0     C13641   5.063   3.281   2.342  0.3112  1.6098  0.1299
  102MOL0     C13642   4.985   3.390   2.299 -1.6122  0.0553  0.5161
  102MOL0     O13643   4.921   3.462   2.394 -0.4451 -0.7063 -0.0552
  102MOL0     C13644   4.938   3.606   2.414 -0.0739 -0.5716 -0.8136
  102MOL0     C13645   4.872   3.661   2.548 -0.6306  0.5072  0.1358
  102MOL0     C13646   4.730   3.623   2.562  0.9234 -0.5926  0.8936
  102MOL0     C13647   4.671   3.713   2.679  0.9615  0.7136  0.9200
  102MOL0     C13648   4.637   3.857   2.621  0.0970 -0.7212  0.4946
  102MOL0     C13649   4.539   3.920   2.718  0.6075  0.2132  0.6852
  102MOL0     C13650   4.526   4.070   2.689  0.5385 -0.1359 -0.0244
  102MOL0     C13651   4.431   4.105   2.578  0.1984 -0.1727  0.1081
  102MOL0     N13652   4.454   4.244   2.539 -0.7955 -0.0349  0.3630
  102MOL0     C13653   4.419   4.354   2.606 -0.4376  0.0531  0.2542
  102MOL0     C13654   4.443   4.465   2.527  0.8642  0.6828  0.9588
  102MOL0     C13655   4.440   4.609   2.572 -1.0546 -0.1004 -0.4142
  102MOL0     C13656   4.302   4.679   2.559  0.9316  0.0326 -0.3094
  102MOL0     C13657   4.326   4.830   2.536 -0.0789  0.3827 -0.6009
  102MOL0     C13658   4.339   4.852   2.389 -0.2544  0.7145  0.0292
  102MOL0     O13659   4.215   4.894   2.326 -0.2061 -0.2450  0.4566
  102MOL0     C13660   4.211   4.954   2.203  0.6556  0.2470  0.1843
  102MOL0     C13661   4.325   4.970   2.119  0.7627  0.6396  1.0337
  102MOL0     C13662   4.315   5.037   1.994 -0.2746  0.0637  0.5499
  102MOL0     C13663   4.196   5.087   1.946 -0.3553 -0.6378  0.2972
  102MOL0     C13664   4.178   5.160   1.818 -0.4854  0.0653  0.0359
  102MOL0     O13665   4.049   5.175   1.770  0.1070  0.2657 -0.1603
  102MOL0     C13666   4.031   5.253   1.666  1.3916  0.0444 -0.0024
  102MOL0     C13667   3.986   5.386   1.696 -0.1939  1.6868  0.4651
  102MOL0     C13668   3.958   5.474   1.599  0.0110 -0.1288 -0.5985
  102MOL0     C13669   3.976   5.441   1.463 -0.2551 -0.1063 -0.5268
  102MOL0     O13670   3.963   5.531   1.358  0.4401  0.0905  0.7639
  102MOL0     C13671   3.910   5.659   1.373  0.3034 -0.0580 -0.3369
  102MOL0     C13672   3.857   5.715   1.234 -1.0642 -0.0907  1.0489
  102MOL0     C13673   3.793   5.619   1.130  0.0718  0.2392  0.6548
  102MOL0     C13674   3.767   5.698   0.995 -0.5082 -0.4104  0.2204
  102MOL0     C13675   3.751   5.619   0.871  1.0005 -0.1134 -0.0885
  102MOL0     C13676   3.871   5.532   0.834  0.6178  0.5848 -0.2324
  102MOL0     C13677   3.859   5.480   0.690 -0.0099 -0.2034  0.2530
  102MOL0     C13678   3.975   5.408   0.636  0.5169 -0.3382  0.1235
  102MOL0    Cl13679   4.132   5.493   0.662 -0.0927  0.0480  0.5055
  102MOL0     C13680   4.009   5.309   1.433 -1.0651 -0.8033  0.7194
  102MOL0     C13681   4.042   5.218   1.531 -0.3070 -0.2279  0.8267
  102MOL0     O13682   4.278   5.214   1.766 -1.4434 -0.1168  0.3187
  102MOL0     C13683   4.084   5.079   2.036  0.1302 -0.1365  0.4924
  102MOL0     C13684   4.089   5.002   2.157 -0.6178  1.2164 -0.2640
  102MOL0     N13685   4.491   4.421   2.407  0.2163  0.5920 -0.5758
  102MOL0     N13686   4.507   4.287   2.421  0.0414  0.2428  0.2424
  102MOL0     C13687   4.981   3.409   2.164  0.1643 -0.3102  0.5863
  102MOL0     C13688   5.047   3.322   2.074 -0.5404 -0.0125 -0.4157
  102MOL0     C13689   5.245   3.035   1.819  1.0102 -0.1887 -0.7423
  102MOL0     C13690   5.227   2.904   1.867 -0.9567 -0.6601 -0.5250
  102MOL0     C13691   5.240   2.792   1.789  0.6206 -0.0600 -0.1791
  102MOL0     C13692   5.254   2.807   1.649 -0.1339 -0.1617 -0.3267
  102MOL0     O13693   5.245   2.712   1.557  0.5808 -0.1917 -0.1371
  102MOL0     C13694   5.204   2.585   1.587 -0.1616 -0.6851  0.2036
  102MOL0     C13695   5.236   2.500   1.467  0.3899 -0.1144 -0.5803
  102MOL0     C13696   5.146   2.541   1.349  0.2156  0.7440  0.5847
  102MOL0     C13697   5.199   2.469   1.220 -0.5423  0.0731  0.0201
  102MOL0     C13698   5.209   2.322   1.232  0.5629 -0.0240 -0.5552
  102MOL0     C13699   5.215   2.206   1.247 -0.0261  0.4767  0.2181
  102MOL0     C13700   5.288   2.939   1.600 -0.1109  0.1193  0.2337
  102MOL0     C13701   5.283   3.055   1.684  0.8616  0.3416  0.2051
  102MOL0     C13702   5.301   3.192   1.612 -0.1664  0.3749 -0.1814
  102MOL0     H13703   5.185   3.111   2.304  1.4901  0.5983 -0.1419
  102MOL0     H13704   5.082   3.257   2.446 -0.3524 -2.2251 -0.4881
  102MOL0     H13705   5.046   3.621   2.426  0.2685 -2.6949 -0.9218
  102MOL0     H13706   4.908   3.667   2.328 -1.2609  0.0574  0.0005
  102MOL0     H13707   4.887   3.769   2.537 -2.3630  0.5212 -3.9669
  102MOL0     H13708   4.916   3.624   2.641 -3.2485  1.4345  1.8525
  102MOL0     H13709   4.729   3.517   2.587  1.7802 -1.2665 -1.6179
  102MOL0     H13710   4.675   3.626   2.467  2.1968 -3.5444 -0.0559
  102MOL0     H13711   4.572   3.673   2.702  0.7878  0.4815 -0.1877
  102MOL0     H13712   4.738   3.720   2.765  1.2898  3.8574  0.5320
  102MOL0     H13713   4.732   3.912   2.623 -0.0543 -0.3357 -1.3615
  102MOL0     H13714   4.602   3.855   2.517 -2.5862 -0.3881  1.3230
  102MOL0     H13715   4.437   3.882   2.708 -1.1528  4.0309  1.9495
  102MOL0     H13716   4.581   3.910   2.819  0.4851  1.2993  0.8587
  102MOL0     H13717   4.622   4.119   2.675  1.8439 -2.6270 -0.4384
  102MOL0     H13718   4.469   4.110   2.774 -1.7407  2.8363 -2.6863
  102MOL0     H13719   4.458   4.047   2.489 -0.1013 -0.0646 -0.0564
  102MOL0     H13720   4.327   4.088   2.607 -0.2887  1.7051 -0.3819
  102MOL0     H13721   4.364   4.357   2.699 -0.5612  1.0471  0.1608
  102MOL0     H13722   4.471   4.604   2.677  0.7501 -1.4065 -0.9598
  102MOL0     H13723   4.517   4.663   2.515  0.3087  3.6509  4.3149
  102MOL0     H13724   4.249   4.639   2.472 -0.2305 -1.7073  1.1140
  102MOL0     H13725   4.233   4.672   2.644 -2.1861  0.2200 -2.6326
  102MOL0     H13726   4.415   4.860   2.592 -0.7591 -1.0238  1.3611
  102MOL0     H13727   4.254   4.902   2.576  0.7558  0.7952  0.1847
  102MOL0     H13728   4.369   4.765   2.331 -2.4316  1.7714 -2.9559
  102MOL0     H13729   4.403   4.941   2.382  1.4917  0.3479  5.8207
  102MOL0     H13730   4.412   4.918   2.156 -1.6916 -2.3408  3.1627
  102MOL0     H13731   4.395   5.064   1.926  0.5292  0.8674  1.7743
  102MOL0     H13732   3.970   5.413   1.800 -0.1590  0.7684  0.7190
  102MOL0     H13733   3.937   5.578   1.620  3.9556  1.5801 -3.7369
  102MOL0     H13734   3.819   5.661   1.434 -1.3114 -0.6087 -2.6301
  102MOL0     H13735   3.989   5.720   1.418  1.6685 -1.3496 -0.9264
  102MOL0     H13736   3.789   5.801   1.238  1.5758  2.4015 -1.9795
  102MOL0     H13737   3.945   5.757   1.185 -1.5172  0.0984  0.3900
  102MOL0     H13738   3.872   5.546   1.112  1.1021  1.1685  1.3501
  102MOL0     H13739   3.704   5.581   1.181  0.7090  1.1943  2.5684
  102MOL0     H13740   3.850   5.768   0.978 -3.0368  2.9392  0.4948
  102MOL0     H13741   3.691   5.771   1.025  1.9549  1.7802  1.5574
  102MOL0     H13742   3.746   5.683   0.783  0.9940  0.1633  0.1136
  102MOL0     H13743   3.658   5.561   0.871  0.8163  0.1569  1.0703
  102MOL0     H13744   3.953   5.604   0.830 -0.4954  1.9344  0.4326
  102MOL0     H13745   3.891   5.457   0.911 -0.6961  0.0170 -0.4093
  102MOL0     H13746   3.840   5.562   0.620 -1.1930 -1.9693 -1.6086
  102MOL0     H13747   3.773   5.415   0.676  0.5560 -1.6886  2.9819
  102MOL0     H13748   3.992   5.313   0.687  1.9719  0.0605  0.4538
  102MOL0     H13749   3.970   5.401   0.527 -3.9566 -0.8372  0.1870
  102MOL0     H13750   4.007   5.266   1.333  0.3299  0.7486 -0.0172
  102MOL0     H13751   4.079   5.119   1.506 -2.4095 -0.4471 -1.9716
  102MOL0     H13752   3.991   5.125   2.005 -0.2480 -1.9837 -1.3199
  102MOL0     H13753   4.007   4.987   2.226  0.4545  2.2485  1.3071
  102MOL0     H13754   4.927   3.497   2.129  0.0055 -0.2458  0.9822
  102MOL0     H13755   5.049   3.348   1.969  0.7961  1.1059 -0.1380
  102MOL0     H13756   5.203   2.890   1.972  4.3585  0.3290  1.1148
  102MOL0     H13757   5.218   2.692   1.823 -0.7908  0.8691  1.8002
  102MOL0     H13758   5.096   2.582   1.604 -0.2443 -1.7146 -0.3844
  102MOL0     H13759   5.264   2.534   1.662  2.3962 -0.5279 -1.6000
  102MOL0     H13760   5.227   2.394   1.489  2.5057 -0.4469 -1.0962
  102MOL0     H13761   5.338   2.524   1.434  0.0940  1.1023 -0.6791
  102MOL0     H13762   5.150   2.647   1.322 -1.8012  0.2246 -2.2014
  102MOL0     H13763   5.042   2.511   1.365  0.5572 -1.4024 -0.8757
  102MOL0     H13764   5.131   2.484   1.136  0.6754  0.2981 -0.9585
  102MOL0     H13765   5.286   2.524   1.182 -0.4842  1.1516  1.5947
  102MOL0     H13766   5.225   2.100   1.241  1.3050  0.5606  0.6771
  102MOL0     H13767   5.310   2.962   1.496  1.6882  1.0874  0.7773
  102MOL0     H13768   5.372   3.257   1.665  1.5663 -1.3578 -0.2492
  102MOL0     H13769   5.359   3.174   1.521  2.6469 -0.0401  1.5586
  102MOL0     H13770   5.210   3.247   1.587  1.1205  1.8831 -1.7803
  103MOL0     O13771   9.011   3.066   7.949 -0.3378 -0.5896 -0.4912
  103MOL0     C13772   8.958   2.957   7.938 -0.7408  0.1581 -1.0999
  103MOL0     O13773   8.913   2.906   7.822  0.4766 -0.2769 -0.6430
  103MOL0     C13774   8.890   2.996   7.723  0.2819  0.4030 -0.0990
  103MOL0     C13775   8.777   3.088   7.734  1.7656 -0.2694 -0.0863
  103MOL0     C13776   8.727   3.144   7.617 -1.0722 -0.3270 -0.3737
  103MOL0     C13777   8.812   3.144   7.496  0.7348 -0.0552  0.2001
  103MOL0     O13778   8.767   3.233   7.408 -0.4374 -0.1146  0.3601
  103MOL0     C13779   8.860   3.284   7.312 -0.9717 -0.7343 -0.6639
  103MOL0     C13780   8.882   3.194   7.194 -0.1868  0.6548  0.2862
  103MOL0     C13781   8.907   3.267   7.064  1.0354  0.1090 -0.3041
  103MOL0     C13782   9.045   3.318   7.068 -0.2883 -0.4602 -0.0257
  103MOL0     C13783   9.064   3.464   7.103 -0.2927 -0.3188  0.1281
  103MOL0     C13784   9.042   3.558   6.989  0.0854 -0.2935 -0.4127
  103MOL0     C13785   9.086   3.702   7.012 -0.9604  0.8200 -0.4619
  103MOL0     C13786   9.038   3.778   6.885 -0.4135  0.1339 -0.6153
  103MOL0     N13787   9.065   3.930   6.898  0.2669  1.1329 -0.8074
  103MOL0     C13788   9.165   4.007   6.850  0.8954  0.4786  0.6114
  103MOL0     C13789   9.140   4.126   6.916  0.5398 -0.0190 -0.7906
  103MOL0     C13790   9.225   4.248   6.925 -0.8551 -0.5161 -0.1627
  103MOL0     C13791   9.304   4.237   7.062  0.4289  0.6358 -0.0984
  103MOL0     C13792   9.420   4.122   7.072 -0.4072 -0.3848  0.3824
  103MOL0     C13793   9.448   4.064   7.218  0.6852 -0.2800  0.4078
  103MOL0     O13794   9.529   4.147   7.295 -0.3358 -0.4166  0.1104
  103MOL0     C13795   9.548   4.114   7.432 -0.2828  0.1315 -0.6318
  103MOL0     C13796   9.610   4.207   7.521 -0.4196 -0.0663 -0.0149
  103MOL0     C13797   9.618   4.189   7.664  0.1212  0.3977  0.0429
  103MOL0     C13798   9.571   4.066   7.719 -0.1775 -0.6997  0.4335
  103MOL0     C13799   9.584   4.046   7.870  0.0011  0.5291 -0.1786
  103MOL0     O13800   9.669   4.130   7.941 -0.5963 -0.2987 -0.0448
  103MOL0     C13801   9.713   4.097   8.072 -0.0382  1.7408 -0.7766
  103MOL0     C13802   9.695   4.188   8.182 -0.5083  0.9429 -0.6010
  103MOL0     C13803   9.752   4.160   8.306 -0.2062  0.0381 -0.4859
  103MOL0     C13804   9.827   4.038   8.326 -0.0525 -0.3860 -0.0393
  103MOL0     O13805   9.901   4.022   8.438  0.2274 -0.4103 -0.2800
  103MOL0     C13806   9.848   4.077   8.563  0.3803  0.5880 -0.4303
  103MOL0     C13807   9.931   4.013   8.680 -0.2827 -0.4806 -0.5719
  103MOL0     C13808   9.878   4.056   8.820 -0.2274 -0.5541  0.2060
  103MOL0     C13809   9.936   3.964   8.931  0.4155 -0.2489  0.3459
  103MOL0     C13810   9.888   4.003   9.075 -0.0978 -0.5027  0.4865
  103MOL0     C13811   9.937   3.902   9.176 -0.9898 -0.6218  0.3278
  103MOL0     C13812   9.914   3.752   9.144 -0.5150  0.3701  0.6127
  103MOL0     C13813  10.037   3.672   9.089 -1.3281 -0.5343 -0.5721
  103MOL0    Cl13814   9.999   3.509   9.023 -0.0904  0.0738  0.5599
  103MOL0     C13815   9.841   3.947   8.216 -0.0661 -0.2646  0.0964
  103MOL0     C13816   9.784   3.975   8.097  0.3512 -0.2999 -0.5246
  103MOL0     O13817   9.502   3.973   7.924  0.6115 -0.0305  0.1738
  103MOL0     C13818   9.523   3.975   7.626  0.5628  0.3769 -0.1795
  103MOL0     C13819   9.504   4.005   7.488 -0.5100 -0.7559 -0.0911
  103MOL0     N13820   9.021   4.120   6.982  0.1033  0.2312  0.6262
  103MOL0     N13821   8.976   4.004   6.972 -0.1727  0.2580 -0.0197
  103MOL0     C13822   8.930   3.068   7.502  1.2645 -0.6570  0.8244
  103MOL0     C13823   8.966   2.992   7.608  0.4300  0.3733  0.1124
  103MOL0     C13824   8.986   2.854   8.052 -0.0111  0.6672  1.2813
  103MOL0     C13825   9.043   2.721   8.026 -0.3511  0.1411  0.9014
  103MOL0     C13826   9.102   2.657   8.139 -0.0560 -1.5044  0.0489
  103MOL0     C13827   9.076   2.697   8.269 -0.4729 -0.0067 -0.4342
  103MOL0     O13828   9.117   2.628   8.380  0.1373 -0.7490  0.7897
  103MOL0     C13829   9.132   2.485   8.378  0.8080  0.1548  0.1285
  103MOL0     C13830   9.277   2.445   8.347  0.2789  0.7538  0.6673
  103MOL0     C13831   9.366   2.475   8.472  0.3048 -0.1964  0.1262
  103MOL0     C13832   9.515   2.422   8.465  0.6109  0.5998 -0.7195
  103MOL0     C13833   9.515   2.281   8.422  0.4713 -0.5839  0.4967
  103MOL0     C13834   9.528   2.177   8.363  0.9955  0.1162 -0.4274
  103MOL0     C13835   9.015   2.824   8.289 -0.6142 -0.2997 -0.0204
  103MOL0     C13836   8.976   2.907   8.182  0.1308  0.9123 -0.6819
  103MOL0     C13837   8.923   3.043   8.222 -0.4204 -0.2645 -0.0860
  103MOL0     H13838   8.725   3.100   7.828  1.1226  2.2044 -0.6841
  103MOL0     H13839   8.628   3.187   7.629 -1.9791 -2.4757  0.4578
  103MOL0     H13840   8.825   3.376   7.266  1.9721 -0.4407 -2.6322
  103MOL0     H13841   8.958   3.307   7.354 -1.2985  0.8897 -0.7203
  103MOL0     H13842   8.798   3.126   7.177  1.1616 -0.5657 -1.9254
  103MOL0     H13843   8.952   3.111   7.210 -2.8466 -1.4512  1.9356
  103MOL0     H13844   8.840   3.352   7.053  2.4925  1.3886  0.3403
  103MOL0     H13845   8.878   3.203   6.980 -3.7303 -0.8166  1.7022
  103MOL0     H13846   9.092   3.269   7.154 -3.2205 -0.3111  1.7800
  103MOL0     H13847   9.086   3.292   6.970 -0.8599 -0.6437 -0.2212
  103MOL0     H13848   8.997   3.477   7.188 -0.4899 -1.5191  0.1771
  103MOL0     H13849   9.165   3.477   7.144 -0.7885  2.9395  0.5704
  103MOL0     H13850   9.099   3.513   6.907 -1.3499 -0.6690 -1.2443
  103MOL0     H13851   8.936   3.563   6.959 -0.3531  2.0965  1.2830
  103MOL0     H13852   9.195   3.698   7.016 -0.9462 -3.4069  2.5340
  103MOL0     H13853   9.053   3.753   7.103 -1.9623 -3.0079  1.5663
  103MOL0     H13854   9.082   3.745   6.791  1.1191 -0.6621  0.3189
  103MOL0     H13855   8.931   3.759   6.876 -0.2560 -0.4784 -1.2538
  103MOL0     H13856   9.248   3.980   6.785 -0.8371 -0.6357 -1.2817
  103MOL0     H13857   9.308   4.255   6.855 -1.2527  2.4783 -0.4813
  103MOL0     H13858   9.167   4.338   6.903  0.1592  0.2870  0.3721
  103MOL0     H13859   9.344   4.338   7.077  1.1977  0.1473  1.3361
  103MOL0     H13860   9.228   4.214   7.137  1.3265 -0.3348  0.5383
  103MOL0     H13861   9.517   4.148   7.027 -2.2612  3.9718 -1.7317
  103MOL0     H13862   9.384   4.040   7.009  1.5963 -1.3263  0.3852
  103MOL0     H13863   9.488   3.963   7.218 -1.7106 -1.3720  3.1729
  103MOL0     H13864   9.352   4.054   7.270 -0.2307  4.6577  0.1815
  103MOL0     H13865   9.651   4.301   7.485  3.9230 -1.8414 -0.2126
  103MOL0     H13866   9.657   4.268   7.728 -1.4444 -0.9301  2.8411
  103MOL0     H13867   9.645   4.283   8.165  0.4057  1.8441  1.4665
  103MOL0     H13868   9.753   4.239   8.381  0.6775 -1.5421  1.2796
  103MOL0     H13869   9.834   4.185   8.574 -0.2727  0.3471  1.5147
  103MOL0     H13870   9.741   4.061   8.574  0.8585 -1.6126  1.9083
  103MOL0     H13871   9.925   3.904   8.675 -1.8036 -0.4977  0.5746
  103MOL0     H13872  10.037   4.040   8.680 -0.8338  1.9929 -0.2881
  103MOL0     H13873   9.903   4.160   8.843  0.1053 -0.4324 -0.6811
  103MOL0     H13874   9.769   4.054   8.817 -0.3259  2.2615 -2.2914
  103MOL0     H13875  10.043   3.979   8.916  1.0753 -3.1799  1.3187
  103MOL0     H13876   9.912   3.860   8.908 -1.3928  0.2173 -0.0340
  103MOL0     H13877   9.779   4.003   9.077 -0.1771  1.6465 -0.8541
  103MOL0     H13878   9.921   4.102   9.107 -1.0937 -0.3105  0.9475
  103MOL0     H13879  10.046   3.909   9.187 -0.9441 -1.8328  0.7725
  103MOL0     H13880   9.891   3.927   9.272  1.1943  5.4917  0.2581
  103MOL0     H13881   9.826   3.749   9.079  0.4696  0.4805 -0.7699
  103MOL0     H13882   9.886   3.713   9.242 -0.7626  0.4176  0.5616
  103MOL0     H13883  10.081   3.733   9.009  0.6151 -1.6455 -0.4024
  103MOL0     H13884  10.116   3.666   9.164 -0.9529  0.2437 -0.8885
  103MOL0     H13885   9.882   3.848   8.232  1.4493  0.2277 -0.5849
  103MOL0     H13886   9.803   3.904   8.017  0.2795 -2.0555  0.9490
  103MOL0     H13887   9.489   3.880   7.666 -0.3533  0.3364 -0.9987
  103MOL0     H13888   9.430   3.942   7.440 -0.1984 -0.8529 -0.4503
  103MOL0     H13889   9.013   3.068   7.433 -0.4325  0.2467 -1.3074
  103MOL0     H13890   9.055   2.933   7.592  0.9561  0.4714  2.4117
  103MOL0     H13891   9.066   2.683   7.927  0.1832  0.2337  0.9858
  103MOL0     H13892   9.168   2.572   8.125  3.0195  0.5994  0.8473
  103MOL0     H13893   9.064   2.435   8.309 -0.8805  2.1332  0.2603
  103MOL0     H13894   9.100   2.452   8.477 -2.1280 -2.1623 -1.4363
  103MOL0     H13895   9.313   2.512   8.268  0.1704  0.1708  0.1128
  103MOL0     H13896   9.274   2.340   8.316 -0.8526  0.7620  0.7266
  103MOL0     H13897   9.328   2.452   8.573 -0.6666  0.7608 -0.0041
  103MOL0     H13898   9.373   2.584   8.464 -1.7679 -0.0584 -0.3664
  103MOL0     H13899   9.574   2.486   8.399 -0.5679  1.8406 -0.5934
  103MOL0     H13900   9.568   2.427   8.561 -1.0686 -3.0625  0.5972
  103MOL0     H13901   9.528   2.081   8.316 -1.9492  0.7358 -1.9184
  103MOL0     H13902   9.000   2.855   8.391  0.2045  0.1619 -0.0292
  103MOL0     H13903   8.884   3.053   8.323  0.7767  0.5892  0.3146
  103MOL0     H13904   8.998   3.122   8.213 -2.7806  2.0709 -0.5066
  103MOL0     H13905   8.837   3.070   8.159 -4.1138 -4.3584  2.6036
  104MOL0     O13906   1.940   2.110   8.927 -0.3611 -0.1898  0.1947
  104MOL0     C13907   2.021   2.134   8.837 -1.0833 -0.6760  0.0902
  104MOL0     O13908   2.028   2.083   8.710  0.1883 -0.0670  0.9586
  104MOL0     C13909   1.922   2.037   8.641 -0.0432  0.2873 -0.8340
  104MOL0     C13910   1.929   1.934   8.556 -0.5684 -0.0960  0.4043
  104MOL0     C13911   1.813   1.886   8.482 -0.7359 -0.7807  1.2550
  104MOL0     C13912   1.693   1.948   8.489  1.2198 -0.4404  0.8098
  104MOL0     O13913   1.587   1.910   8.412 -0.2532  0.1904 -0.2670
  104MOL0     C13914   1.617   1.863   8.278 -0.3200  0.1379  0.4607
  104MOL0     C13915   1.490   1.848   8.192 -1.5387  0.7531 -1.2784
  104MOL0     C13916   1.429   1.990   8.177 -1.2280  0.6905  0.5340
  104MOL0     C13917   1.330   1.979   8.066 -1.4574 -0.3127 -0.0175
  104MOL0     C13918   1.251   2.111   8.039  0.7988 -0.0763 -0.0338
  104MOL0     C13919   1.334   2.230   7.986  0.3176 -0.2063  0.5176
  104MOL0     C13920   1.236   2.347   7.948 -0.1331  0.0218 -0.9777
  104MOL0     C13921   1.280   2.435   7.838  0.0061  0.7491  0.9071
  104MOL0     N13922   1.220   2.567   7.823 -0.7388 -0.9664  0.0109
  104MOL0     C13923   1.245   2.679   7.907  0.4581  0.6749 -0.2584
  104MOL0     C13924   1.167   2.769   7.846 -0.5500 -0.3326 -0.5159
  104MOL0     C13925   1.157   2.923   7.881  0.0809  0.8792 -0.1345
  104MOL0     C13926   1.168   3.010   7.757  0.4594 -0.4689  0.3853
  104MOL0     C13927   1.076   3.131   7.756  1.1998  0.0987  0.1093
  104MOL0     C13928   1.136   3.256   7.821  0.7590 -0.1750  0.0532
  104MOL0     O13929   1.250   3.301   7.749  0.2672  0.1824  0.1437
  104MOL0     C13930   1.340   3.356   7.824  0.6671 -0.7728  0.7055
  104MOL0     C13931   1.443   3.291   7.887 -0.7935  0.0048  1.0404
  104MOL0     C13932   1.536   3.357   7.976 -0.0649 -0.0961  0.1162
  104MOL0     C13933   1.533   3.497   7.988  0.0745  0.5111  0.4885
  104MOL0     C13934   1.612   3.577   8.088 -0.9430 -0.7580  1.6705
  104MOL0     O13935   1.568   3.692   8.133  0.5072  0.4802 -0.1084
  104MOL0     C13936   1.644   3.750   8.227  0.1066  0.2547  0.0592
  104MOL0     C13937   1.772   3.806   8.204  0.3029 -0.8400 -0.0423
  104MOL0     C13938   1.846   3.841   8.318  1.1221 -0.0703 -0.2186
  104MOL0     C13939   1.798   3.840   8.446 -0.6242  0.4328 -0.0334
  104MOL0     O13940   1.865   3.896   8.552 -0.8384 -0.3472  0.1078
  104MOL0     C13941   1.806   4.009   8.622 -0.9463 -0.6561 -0.9904
  104MOL0     C13942   1.893   4.141   8.608 -0.0219  0.5853 -0.8808
  104MOL0     C13943   1.976   4.159   8.732  0.2437  0.1154 -0.2710
  104MOL0     C13944   2.073   4.266   8.726 -0.1204 -0.1623  0.0172
  104MOL0     C13945   2.018   4.405   8.731  0.0765  0.5118  0.0578
  104MOL0     C13946   2.137   4.513   8.737 -0.0886 -0.0872 -0.3475
  104MOL0     C13947   2.166   4.529   8.891  0.2261 -0.7714  0.4004
  104MOL0     C13948   2.290   4.611   8.912  0.3798  0.6287  0.7895
  104MOL0    Cl13949   2.282   4.760   8.818  0.2914  0.1071  0.5345
  104MOL0     C13950   1.671   3.798   8.462 -0.3225 -0.7298  0.3502
  104MOL0     C13951   1.595   3.751   8.357  0.0458 -0.7959 -1.2117
  104MOL0     O13952   1.715   3.527   8.117 -0.1903  0.2645  0.7994
  104MOL0     C13953   1.429   3.556   7.918 -0.4941  0.1094 -0.6588
  104MOL0     C13954   1.336   3.494   7.838 -0.4409  0.6380  0.3179
  104MOL0     N13955   1.079   2.709   7.753 -0.3258  1.3967 -0.8804
  104MOL0     N13956   1.114   2.590   7.739 -0.2040  0.8003  0.6426
  104MOL0     C13957   1.685   2.058   8.579  0.1235  1.4370  0.1565
  104MOL0     C13958   1.798   2.103   8.648  0.4399  0.3288  0.0050
  104MOL0     C13959   2.140   2.224   8.878 -0.1830  0.4846 -0.0581
  104MOL0     C13960   2.147   2.260   9.019 -0.1702 -0.8264  0.4247
  104MOL0     C13961   2.252   2.348   9.058  0.2287  0.3668 -0.5057
  104MOL0     C13962   2.359   2.372   8.981 -0.2768 -0.8386  0.2575
  104MOL0     O13963   2.468   2.427   9.042  0.4612  0.2716  0.2448
  104MOL0     C13964   2.582   2.475   8.959 -0.0837  0.3873 -0.6088
  104MOL0     C13965   2.661   2.576   9.052  0.2074  0.3864  0.3169
  104MOL0     C13966   2.599   2.716   9.044 -0.4508  0.0895  0.3000
  104MOL0     C13967   2.451   2.729   9.101 -0.2682 -0.4909 -0.1696
  104MOL0     C13968   2.430   2.880   9.091 -0.5388 -0.0242  0.3705
  104MOL0     C13969   2.408   3.004   9.096 -0.7863  0.1112 -0.0053
  104MOL0     C13970   2.350   2.332   8.849  0.1120  0.3449 -0.4744
  104MOL0     C13971   2.245   2.263   8.789  0.1931 -0.2947 -0.5063
  104MOL0     C13972   2.253   2.227   8.642  0.0903 -0.3463 -0.7110
  104MOL0     H13973   2.027   1.890   8.539 -1.5707 -2.5732  0.5080
  104MOL0     H13974   1.823   1.802   8.414  1.3455  0.5059 -0.1614
  104MOL0     H13975   1.684   1.935   8.232  0.9139 -0.2656  1.5736
  104MOL0     H13976   1.655   1.760   8.284 -1.2408 -0.2088  0.5879
  104MOL0     H13977   1.421   1.783   8.246 -0.2462  0.4356  0.0609
  104MOL0     H13978   1.507   1.791   8.100 -0.6356  2.0996 -1.9672
  104MOL0     H13979   1.504   2.066   8.154 -1.1936  0.4133 -0.2980
  104MOL0     H13980   1.372   2.014   8.267 -1.0304  1.4200  0.4713
  104MOL0     H13981   1.371   1.947   7.970 -0.8055 -1.1400  0.5292
  104MOL0     H13982   1.260   1.898   8.090  0.5692 -1.4123  2.6589
  104MOL0     H13983   1.175   2.077   7.969  0.9213  0.9671 -0.6907
  104MOL0     H13984   1.185   2.144   8.120  0.5545  1.4398 -0.8173
  104MOL0     H13985   1.391   2.268   8.071 -1.0819  0.0370  1.3762
  104MOL0     H13986   1.396   2.208   7.898  0.1899  0.5341  0.2373
  104MOL0     H13987   1.205   2.402   8.037 -0.9571 -1.4782 -0.2993
  104MOL0     H13988   1.140   2.302   7.924 -0.6598  1.3268 -1.4079
  104MOL0     H13989   1.388   2.431   7.850 -0.0367 -4.1059  1.6314
  104MOL0     H13990   1.241   2.372   7.757  1.1312 -1.4903  2.0390
  104MOL0     H13991   1.312   2.695   7.991 -0.0842  0.8926  0.1380
  104MOL0     H13992   1.064   2.948   7.932 -0.7568  1.2210 -1.7823
  104MOL0     H13993   1.230   2.954   7.957 -1.1314 -0.4525  1.6678
  104MOL0     H13994   1.272   3.044   7.752  0.4993 -0.7770 -2.7691
  104MOL0     H13995   1.147   2.955   7.665 -1.9910 -1.1580  1.2728
  104MOL0     H13996   0.989   3.117   7.821  0.5763 -2.6605 -1.1982
  104MOL0     H13997   1.037   3.148   7.655 -0.9804 -0.5725  0.7932
  104MOL0     H13998   1.149   3.236   7.927 -0.9043 -4.4905 -0.3551
  104MOL0     H13999   1.063   3.337   7.814  1.9624  0.8917 -0.7759
  104MOL0     H14000   1.448   3.183   7.877 -0.8751 -0.3889  4.2266
  104MOL0     H14001   1.605   3.298   8.036 -0.8557 -2.1911 -0.9420
  104MOL0     H14002   1.802   3.822   8.101 -0.4353 -2.9968 -0.6365
  104MOL0     H14003   1.941   3.893   8.311 -0.0630  2.9377  2.9527
  104MOL0     H14004   1.706   4.027   8.582 -0.9302 -2.5399 -2.0006
  104MOL0     H14005   1.802   3.977   8.727  2.0994 -2.2713 -1.2443
  104MOL0     H14006   1.950   4.127   8.515 -0.1407  0.4344 -0.9311
  104MOL0     H14007   1.834   4.232   8.596 -0.9422  0.5726  2.5553
  104MOL0     H14008   1.921   4.158   8.827 -2.3015 -0.6686 -1.6797
  104MOL0     H14009   2.045   4.075   8.742 -0.1854 -0.2036  0.0399
  104MOL0     H14010   2.118   4.271   8.626  2.2860  1.3568  1.0840
  104MOL0     H14011   2.140   4.241   8.808 -3.0445 -2.2806  1.9421
  104MOL0     H14012   1.967   4.415   8.827  2.9433  2.8730  1.4836
  104MOL0     H14013   1.945   4.426   8.651 -1.4280 -2.5513  0.4725
  104MOL0     H14014   2.226   4.479   8.683 -0.3341  0.7825 -1.3392
  104MOL0     H14015   2.109   4.612   8.701  2.2601  1.8780  2.6980
  104MOL0     H14016   2.187   4.433   8.938 -0.9240 -0.4987  1.5281
  104MOL0     H14017   2.078   4.576   8.937 -1.8140 -1.4669 -2.4608
  104MOL0     H14018   2.314   4.642   9.014  2.1469  2.5542 -0.1301
  104MOL0     H14019   2.369   4.542   8.879 -1.0332  0.4890 -2.7296
  104MOL0     H14020   1.634   3.803   8.564 -0.4017 -1.7196  0.3821
  104MOL0     H14021   1.495   3.711   8.366  0.1069 -0.5324  1.5592
  104MOL0     H14022   1.418   3.663   7.900  3.5589  0.4308 -2.2735
  104MOL0     H14023   1.267   3.565   7.794  0.2223  0.2172 -1.4632
  104MOL0     H14024   1.593   2.116   8.590  0.8249  2.5708  0.2065
  104MOL0     H14025   1.787   2.183   8.720 -0.8813 -0.5797  0.8348
  104MOL0     H14026   2.068   2.240   9.090 -1.2654  3.0400  0.5427
  104MOL0     H14027   2.268   2.374   9.162  1.7601  2.4180 -1.2065
  104MOL0     H14028   2.553   2.525   8.867  1.7057  1.0024 -0.8706
  104MOL0     H14029   2.647   2.391   8.932 -2.8223 -2.0908 -0.0933
  104MOL0     H14030   2.760   2.569   9.005 -1.0622 -1.8817 -2.3458
  104MOL0     H14031   2.663   2.554   9.159 -1.9649  3.3832  1.0879
  104MOL0     H14032   2.597   2.746   8.938  0.5933 -1.0422 -0.0648
  104MOL0     H14033   2.656   2.785   9.106 -1.1935 -0.2473  1.3711
  104MOL0     H14034   2.373   2.673   9.049 -1.7649 -1.5136  2.9465
  104MOL0     H14035   2.442   2.693   9.203  1.4081 -0.6587 -0.0583
  104MOL0     H14036   2.382   3.108   9.089 -3.1019 -0.2171  2.1977
  104MOL0     H14037   2.424   2.373   8.782 -1.0875  1.5252 -1.1398
  104MOL0     H14038   2.335   2.284   8.597 -0.0305 -1.2416 -2.1528
  104MOL0     H14039   2.277   2.120   8.642  2.2212  0.0193  2.4187
  104MOL0     H14040   2.152   2.249   8.605 -1.0073 -0.6309  1.8805
  105MOL0     O14041  11.345   5.850   1.108 -0.1138 -0.1703 -0.1521
  105MOL0     C14042  11.399   5.920   1.023  1.0598 -0.3039 -0.3323
  105MOL0     O14043  11.336   5.983   0.912 -0.4205  0.0675 -0.1787
  105MOL0     C14044  11.204   5.939   0.883 -0.9351 -0.3732  0.1034
  105MOL0     C14045  11.172   5.823   0.808  0.5747  0.3384 -0.4222
  105MOL0     C14046  11.046   5.780   0.783  1.1650  0.3136  0.6857
  105MOL0     C14047  10.941   5.865   0.822 -0.2582 -0.2823 -0.6861
  105MOL0     O14048  10.825   5.812   0.795  0.5349  0.7892 -0.8211
  105MOL0     C14049  10.736   5.893   0.730 -0.1728 -0.7265 -0.0837
  105MOL0     C14050  10.609   5.812   0.702  0.3249  0.3284  0.2013
  105MOL0     C14051  10.514   5.805   0.821 -0.6363  0.2125 -0.7219
  105MOL0     C14052  10.577   5.704   0.923  0.0795 -0.4009 -0.0385
  105MOL0     C14053  10.468   5.642   1.014  0.1854 -0.9196  0.5927
  105MOL0     C14054  10.547   5.568   1.124  0.5665 -0.2054 -0.1494
  105MOL0     C14055  10.453   5.509   1.228 -0.1941 -0.9156 -0.4169
  105MOL0     C14056  10.516   5.458   1.351  0.7361  0.0821  0.2846
  105MOL0     N14057  10.612   5.348   1.335 -0.2915  0.6686  0.4912
  105MOL0     C14058  10.566   5.224   1.311 -0.3894  0.7946  0.7457
  105MOL0     C14059  10.656   5.139   1.354  0.4358 -0.5676 -0.6322
  105MOL0     C14060  10.629   4.990   1.341 -0.2321 -0.8229 -1.0214
  105MOL0     C14061  10.746   4.899   1.326 -0.2194  0.6012  0.1275
  105MOL0     C14062  10.724   4.751   1.301 -0.2270  0.2159  0.1088
  105MOL0     C14063  10.858   4.670   1.314 -0.1779 -0.9947  0.0278
  105MOL0     O14064  10.916   4.670   1.184  0.4255  0.3515  0.0314
  105MOL0     C14065  11.035   4.596   1.158  0.0306  0.1734  0.4199
  105MOL0     C14066  11.135   4.577   1.259  0.2006 -0.2919  0.3336
  105MOL0     C14067  11.259   4.519   1.222 -0.8110 -0.6209  0.6430
  105MOL0     C14068  11.276   4.469   1.092 -0.2188  0.2828  0.3784
  105MOL0     C14069  11.404   4.395   1.055  0.4579 -0.2381  0.1463
  105MOL0     O14070  11.407   4.359   0.923 -0.1897 -0.0520  0.1287
  105MOL0     C14071  11.517   4.308   0.869  0.3228  0.4670  0.1410
  105MOL0     C14072  11.560   4.378   0.756 -0.4310 -0.2570  0.5532
  105MOL0     C14073  11.688   4.355   0.707 -0.6018  0.1094 -0.1249
  105MOL0     C14074  11.774   4.251   0.758  0.2403  0.3671  0.2511
  105MOL0     O14075  11.896   4.217   0.712  0.1483  0.1494 -0.1192
  105MOL0     C14076  11.947   4.298   0.607 -0.8917 -0.0117  0.6044
  105MOL0     C14077  12.008   4.423   0.662 -0.0464 -0.2645  0.1552
  105MOL0     C14078  12.019   4.537   0.553 -0.2774  0.5455 -0.0872
  105MOL0     C14079  12.110   4.657   0.582 -0.2832 -0.4860 -0.2315
  105MOL0     C14080  12.255   4.625   0.564 -0.4006 -0.1040  0.3645
  105MOL0     C14081  12.335   4.750   0.562 -0.2374 -0.7157 -0.0478
  105MOL0     C14082  12.310   4.842   0.675 -0.2672  0.2827  0.4424
  105MOL0     C14083  12.414   4.949   0.666 -0.1596 -0.1149  0.2550
  105MOL0    Cl14084  12.407   5.059   0.526  0.2745 -0.2096 -0.1881
  105MOL0     C14085  11.719   4.179   0.872  0.1693 -0.2149 -0.0476
  105MOL0     C14086  11.594   4.211   0.929 -0.5348  0.3622  0.5097
  105MOL0     O14087  11.492   4.379   1.138  0.1189  0.0654 -0.0593
  105MOL0     C14088  11.180   4.504   0.998  0.0599  0.2373 -0.3039
  105MOL0     C14089  11.061   4.559   1.031 -0.1717  0.1569 -0.4967
  105MOL0     N14090  10.769   5.212   1.394 -1.1130  0.8608  0.2460
  105MOL0     N14091  10.742   5.336   1.384 -0.3341 -0.3951 -0.6618
  105MOL0     C14092  10.971   5.986   0.893  0.3897 -0.0394  0.1972
  105MOL0     C14093  11.103   6.025   0.931  0.6543 -0.1693 -0.2158
  105MOL0     C14094  11.540   5.943   1.033 -0.6467 -0.2072  0.0715
  105MOL0     C14095  11.615   5.855   0.955  0.1966  0.7402  1.0107
  105MOL0     C14096  11.748   5.844   0.954 -0.9045  1.0339 -0.3100
  105MOL0     C14097  11.826   5.920   1.042  0.2558  0.0773 -0.1667
  105MOL0     O14098  11.963   5.917   1.050 -0.2625 -0.4685 -0.3916
  105MOL0     C14099  12.028   5.797   1.003 -0.8542  1.1843  0.8354
  105MOL0     C14100  12.154   5.766   1.083 -0.4126  0.0859 -0.5985
  105MOL0     C14101  12.252   5.885   1.073  0.2450  0.4449 -0.3875
  105MOL0     C14102  12.393   5.827   1.096  0.0693 -0.2777  0.4738
  105MOL0     C14103  12.499   5.929   1.073 -0.6045 -0.4251 -0.0654
  105MOL0     C14104  12.587   6.005   1.048 -0.0016 -0.3480 -0.1204
  105MOL0     C14105  11.755   6.014   1.123  0.2423  0.0668 -0.2908
  105MOL0     C14106  11.609   6.007   1.134 -0.0832 -0.2637  0.2937
  105MOL0     C14107  11.534   6.068   1.245 -0.9131  0.6715  0.2901
  105MOL0     H14108  11.248   5.757   0.768 -0.1735 -1.7971  1.4550
  105MOL0     H14109  11.027   5.682   0.739 -2.4281  0.6154  1.2567
  105MOL0     H14110  10.706   5.985   0.780  1.2264 -1.3724  2.0726
  105MOL0     H14111  10.786   5.922   0.637  0.6199  1.5110  0.9715
  105MOL0     H14112  10.638   5.713   0.665  1.6085 -0.2513  2.5359
  105MOL0     H14113  10.551   5.862   0.625  2.8056  3.4818  0.1965
  105MOL0     H14114  10.412   5.774   0.794 -1.1960 -0.4895  1.8988
  105MOL0     H14115  10.507   5.907   0.859  0.9333  0.5523 -1.2519
  105MOL0     H14116  10.633   5.619   0.883  3.8622  1.1095  1.5756
  105MOL0     H14117  10.654   5.759   0.977  0.3067 -1.4522  0.7318
  105MOL0     H14118  10.404   5.722   1.051  0.4406 -1.3801  2.0671
  105MOL0     H14119  10.396   5.578   0.962 -1.6596  0.1915  1.6833
  105MOL0     H14120  10.591   5.478   1.081 -4.0142 -0.8604 -4.3601
  105MOL0     H14121  10.626   5.625   1.175 -0.7876  1.8090 -0.1680
  105MOL0     H14122  10.388   5.428   1.193 -1.0472 -0.3327 -0.2238
  105MOL0     H14123  10.392   5.598   1.250  4.4987  2.0906  2.0731
  105MOL0     H14124  10.563   5.541   1.403  2.9136 -0.6429 -0.4320
  105MOL0     H14125  10.440   5.420   1.421  1.8787  1.2352  2.2316
  105MOL0     H14126  10.468   5.187   1.285  0.1541  1.4252 -2.7211
  105MOL0     H14127  10.580   4.971   1.437 -1.9874 -2.1365 -2.1219
  105MOL0     H14128  10.560   4.980   1.257  1.5146  0.7523 -2.7315
  105MOL0     H14129  10.794   4.922   1.230 -0.8028  3.2356  0.3731
  105MOL0     H14130  10.811   4.926   1.410 -0.2385  2.0198 -0.2727
  105MOL0     H14131  10.667   4.736   1.209  1.2102  1.2938 -1.0130
  105MOL0     H14132  10.663   4.723   1.387 -2.1047  0.3494 -1.1145
  105MOL0     H14133  10.850   4.566   1.346 -0.5355 -2.2063 -3.6102
  105MOL0     H14134  10.927   4.716   1.386 -1.0532  0.7921 -0.2004
  105MOL0     H14135  11.124   4.609   1.362 -0.8993 -2.2279  0.8859
  105MOL0     H14136  11.342   4.517   1.292 -1.1764 -2.4700  1.0863
  105MOL0     H14137  11.502   4.462   0.719  0.1231  1.8610  4.0479
  105MOL0     H14138  11.721   4.422   0.628 -0.6976  0.4586  0.1295
  105MOL0     H14139  12.038   4.250   0.571  0.9460  3.2884  0.4906
  105MOL0     H14140  11.871   4.297   0.528 -1.2798 -6.5023  0.5264
  105MOL0     H14141  11.945   4.480   0.732  1.3291 -1.5890  2.6385
  105MOL0     H14142  12.103   4.409   0.716 -0.5036  1.1606  1.4143
  105MOL0     H14143  12.056   4.483   0.465 -2.3824 -1.2394  0.0345
  105MOL0     H14144  11.922   4.581   0.530  0.1624  0.6377 -1.9460
  105MOL0     H14145  12.094   4.691   0.685  1.9795 -0.8431  0.2990
  105MOL0     H14146  12.076   4.747   0.531 -0.2356 -1.3826 -1.9063
  105MOL0     H14147  12.268   4.573   0.468 -0.8323 -0.5571  0.5522
  105MOL0     H14148  12.279   4.561   0.649  0.2991 -1.7149 -0.9705
  105MOL0     H14149  12.440   4.723   0.579 -0.6575 -0.5836  3.5184
  105MOL0     H14150  12.320   4.790   0.461 -1.8144 -0.0391  0.4353
  105MOL0     H14151  12.326   4.788   0.768 -0.6092 -0.1315  0.2644
  105MOL0     H14152  12.211   4.889   0.681 -0.1059  0.4678  2.1613
  105MOL0     H14153  12.408   5.010   0.757  0.0428 -1.7005  1.3657
  105MOL0     H14154  12.512   4.901   0.662  0.9292  1.9317  0.8317
  105MOL0     H14155  11.781   4.100   0.912  0.9717 -0.1099 -1.0164
  105MOL0     H14156  11.556   4.152   1.012 -2.9697  0.8805 -0.1510
  105MOL0     H14157  11.182   4.475   0.893  2.6186  0.5151 -0.4039
  105MOL0     H14158  10.998   4.584   0.946  0.8262 -0.5763 -1.4877
  105MOL0     H14159  10.901   6.058   0.933  3.4116  3.4672 -0.2978
  105MOL0     H14160  11.115   6.123   0.976 -1.7467  1.3951 -2.6790
  105MOL0     H14161  11.564   5.788   0.886  1.9411  0.4252 -0.0439
  105MOL0     H14162  11.787   5.776   0.879  0.8779  0.8132  0.7347
  105MOL0     H14163  12.056   5.812   0.898  1.6817  0.5091  1.3490
  105MOL0     H14164  11.978   5.702   1.019  2.7616 -0.5343  3.3465
  105MOL0     H14165  12.194   5.678   1.033 -4.5768 -2.5844  0.2960
  105MOL0     H14166  12.127   5.728   1.182 -0.5701 -1.0623 -1.0697
  105MOL0     H14167  12.212   5.961   1.140  1.3630  1.9233 -1.3436
  105MOL0     H14168  12.253   5.916   0.968  0.9460 -0.8254 -0.7761
  105MOL0     H14169  12.400   5.786   1.197 -0.7535  1.2373  1.1776
  105MOL0     H14170  12.411   5.738   1.034  0.3692 -1.0653  1.6514
  105MOL0     H14171  12.657   6.084   1.032  1.7598 -1.4232  1.7935
  105MOL0     H14172  11.804   6.089   1.183  1.5337  0.8316 -2.2027
  105MOL0     H14173  11.507   5.986   1.313 -0.9724 -0.9135 -1.5686
  105MOL0     H14174  11.593   6.143   1.298 -1.2512  1.6646 -0.7102
  105MOL0     H14175  11.443   6.120   1.211 -1.4910 -0.8486 -0.6021
  106MOL0     O14176   8.575   4.844   4.635 -0.1397 -0.1194 -0.3735
  106MOL0     C14177   8.484   4.800   4.708 -0.8402 -0.7113 -0.2306
  106MOL0     O14178   8.501   4.781   4.840  0.4229  0.5688 -0.5002
  106MOL0     C14179   8.617   4.730   4.897 -0.5177 -0.2678 -0.2522
  106MOL0     C14180   8.608   4.721   5.036 -0.8094  0.4576 -0.1995
  106MOL0     C14181   8.726   4.690   5.106 -0.0269 -0.2048 -0.3551
  106MOL0     C14182   8.845   4.676   5.035  0.1568 -0.3427 -0.0421
  106MOL0     O14183   8.959   4.663   5.101 -0.0183  0.2587 -0.5266
  106MOL0     C14184   8.970   4.569   5.209  0.9076  0.9716  0.8568
  106MOL0     C14185   9.115   4.536   5.224  0.8445  0.2991  0.1418
  106MOL0     C14186   9.184   4.458   5.114  0.3807 -1.1891  0.5700
  106MOL0     C14187   9.274   4.350   5.176  0.1898  0.8568 -0.0067
  106MOL0     C14188   9.325   4.261   5.052 -0.3235 -0.5694  0.3448
  106MOL0     C14189   9.410   4.142   5.099  1.7981  0.2970  0.0469
  106MOL0     C14190   9.539   4.168   5.177  0.5770 -0.3904 -0.0947
  106MOL0     C14191   9.639   4.050   5.184  0.0880 -0.6837  0.3945
  106MOL0     N14192   9.740   4.069   5.285 -0.0768 -0.2029 -0.0164
  106MOL0     C14193   9.713   4.103   5.407  0.0302 -0.0359 -0.5585
  106MOL0     C14194   9.836   4.091   5.471  0.3634  0.6188 -0.1799
  106MOL0     C14195   9.880   4.111   5.612  0.1022 -0.3427 -0.3272
  106MOL0     C14196   9.956   4.240   5.622 -0.0015 -0.1847  0.0230
  106MOL0     C14197  10.005   4.263   5.764  0.7775  0.2802  0.8616
  106MOL0     C14198  10.138   4.205   5.787 -0.3974  1.6764  0.9957
  106MOL0     O14199  10.185   4.273   5.903 -0.6255 -0.5168  0.8432
  106MOL0     C14200  10.311   4.245   5.938  0.5544  0.4469  0.3038
  106MOL0     C14201  10.350   4.301   6.061  0.2289 -0.3084  1.0937
  106MOL0     C14202  10.475   4.283   6.118 -0.0152 -0.2335 -0.0302
  106MOL0     C14203  10.573   4.230   6.031 -0.3803  0.7279  0.0087
  106MOL0     C14204  10.718   4.218   6.076 -0.6616 -0.3832  0.3793
  106MOL0     O14205  10.762   4.318   6.150 -0.6769  0.4941 -0.0055
  106MOL0     C14206  10.882   4.302   6.203 -0.0070 -0.3982 -1.0444
  106MOL0     C14207  11.007   4.334   6.132  0.4241 -0.1159 -0.5852
  106MOL0     C14208  11.130   4.299   6.193  0.6101  0.1868 -0.0361
  106MOL0     C14209  11.142   4.262   6.327  0.3264 -0.0296  0.2498
  106MOL0     O14210  11.262   4.258   6.392 -0.4294  0.4073  0.3052
  106MOL0     C14211  11.382   4.303   6.328 -0.0443 -0.0706 -0.2914
  106MOL0     C14212  11.495   4.304   6.425  0.6331  0.0092  0.0581
  106MOL0     C14213  11.571   4.173   6.432 -0.0954  0.1284  0.1191
  106MOL0     C14214  11.503   4.050   6.499  0.0875  0.3923 -1.2423
  106MOL0     C14215  11.602   3.930   6.480  1.1009  0.7339 -0.2425
  106MOL0     C14216  11.715   3.916   6.589  0.6288  0.3088  0.2661
  106MOL0     C14217  11.801   3.803   6.539 -0.4806  0.5391  0.0828
  106MOL0     C14218  11.938   3.807   6.603  0.1183 -0.3047 -0.3500
  106MOL0    Cl14219  12.020   3.649   6.586  0.0061  0.6097  0.4954
  106MOL0     C14220  11.023   4.234   6.395 -0.4627 -1.2101  0.0294
  106MOL0     C14221  10.893   4.259   6.337 -0.2617 -0.4544 -0.8391
  106MOL0     O14222  10.789   4.127   6.032 -0.2868  0.1940  0.4335
  106MOL0     C14223  10.532   4.167   5.910  0.2065 -0.5831 -0.4306
  106MOL0     C14224  10.409   4.176   5.861  0.9017 -0.0826 -0.1830
  106MOL0     N14225   9.927   4.033   5.385  0.5860 -0.0001 -0.5454
  106MOL0     N14226   9.870   4.023   5.266  0.4028  0.0029 -0.4646
  106MOL0     C14227   8.853   4.680   4.901  0.5164  0.2154  0.2549
  106MOL0     C14228   8.740   4.703   4.831  0.1474 -0.1748  0.4939
  106MOL0     C14229   8.345   4.786   4.649 -0.0806 -0.0017  0.0594
  106MOL0     C14230   8.258   4.707   4.721 -0.1066 -0.5660 -0.1437
  106MOL0     C14231   8.130   4.675   4.669  0.6228 -0.6290 -0.1067
  106MOL0     C14232   8.084   4.717   4.545 -0.1694 -0.2171  0.4071
  106MOL0     O14233   7.961   4.677   4.498 -0.8215 -0.4398  0.6412
  106MOL0     C14234   7.894   4.766   4.405  0.1456  0.5653  0.3046
  106MOL0     C14235   7.766   4.708   4.355  0.3923 -0.9515  0.0270
  106MOL0     C14236   7.741   4.727   4.205 -0.2000  0.2970 -0.5273
  106MOL0     C14237   7.738   4.879   4.165  0.3936  0.0195  0.0742
  106MOL0     C14238   7.689   4.885   4.036 -0.3093  0.2040  0.0113
  106MOL0     C14239   7.640   4.884   3.919  0.1243 -0.8577  0.3008
  106MOL0     C14240   8.169   4.800   4.482  1.1346 -0.2072 -0.1121
  106MOL0     C14241   8.307   4.827   4.519  1.3856  0.5038 -1.2264
  106MOL0     C14242   8.386   4.911   4.429 -0.0270  0.1253  0.4875
  106MOL0     H14243   8.512   4.721   5.087  0.1250 -0.5521  1.6609
  106MOL0     H14244   8.727   4.691   5.215  2.6425 -4.0208 -0.1569
  106MOL0     H14245   8.931   4.614   5.301 -0.3712 -1.9389  1.8463
  106MOL0     H14246   8.912   4.478   5.190  2.4062 -0.3442  2.2833
  106MOL0     H14247   9.121   4.483   5.320 -0.0427  0.5941  0.3651
  106MOL0     H14248   9.178   4.624   5.230  1.3427 -0.0767  0.5814
  106MOL0     H14249   9.254   4.520   5.057 -1.7463 -1.3731 -2.4769
  106MOL0     H14250   9.108   4.412   5.049  2.1230  0.7995 -3.2406
  106MOL0     H14251   9.357   4.384   5.239  1.1610 -0.5276 -0.4868
  106MOL0     H14252   9.206   4.295   5.242  0.2201  1.5895  0.6505
  106MOL0     H14253   9.230   4.231   5.005 -0.9080  0.4202  0.8739
  106MOL0     H14254   9.393   4.311   4.983 -1.2107 -1.3034 -1.1374
  106MOL0     H14255   9.351   4.080   5.167  1.3740  1.0931  0.4233
  106MOL0     H14256   9.441   4.087   5.010 -0.5904  0.8276 -1.1953
  106MOL0     H14257   9.512   4.202   5.278  1.0802  5.4414 -1.5302
  106MOL0     H14258   9.595   4.249   5.130  0.7649 -0.8245 -0.6199
  106MOL0     H14259   9.583   3.960   5.212  1.0311 -2.0465 -1.8402
  106MOL0     H14260   9.685   4.021   5.089  4.8559  1.3575  1.7327
  106MOL0     H14261   9.616   4.111   5.455 -0.0442 -3.1754  0.0509
  106MOL0     H14262   9.796   4.119   5.682 -0.6716  0.9905 -1.3413
  106MOL0     H14263   9.952   4.036   5.643 -1.8175 -0.6792  4.1303
  106MOL0     H14264  10.036   4.232   5.548 -1.6718 -0.9495 -1.7801
  106MOL0     H14265   9.887   4.319   5.592 -1.1871 -0.8327  0.9684
  106MOL0     H14266   9.934   4.217   5.833  0.3987  1.5146  1.3394
  106MOL0     H14267  10.005   4.369   5.792  2.3397  0.7969 -0.8973
  106MOL0     H14268  10.204   4.201   5.700 -0.9262 -1.1314  0.6263
  106MOL0     H14269  10.136   4.097   5.803  0.9480  1.4212 -0.3057
  106MOL0     H14270  10.276   4.347   6.125 -0.4204  0.3621 -0.1071
  106MOL0     H14271  10.487   4.336   6.212 -1.0823  1.1550 -0.6356
  106MOL0     H14272  11.012   4.355   6.025  1.4658  0.3750 -0.4472
  106MOL0     H14273  11.215   4.298   6.126  2.5401 -2.6867  2.2261
  106MOL0     H14274  11.403   4.239   6.242  3.0081  1.4867 -0.8546
  106MOL0     H14275  11.365   4.405   6.293 -0.4101 -0.1813 -0.4393
  106MOL0     H14276  11.568   4.378   6.390 -1.5523  2.2937  0.0849
  106MOL0     H14277  11.460   4.333   6.524 -1.3978  1.3936 -1.0000
  106MOL0     H14278  11.590   4.135   6.331  0.4664 -2.6225  1.1710
  106MOL0     H14279  11.665   4.193   6.484 -0.4355  2.2426  0.0025
  106MOL0     H14280  11.403   4.019   6.468 -0.8819 -0.1049  2.0031
  106MOL0     H14281  11.500   4.070   6.607  3.4789 -1.3596 -0.6872
  106MOL0     H14282  11.638   3.932   6.377 -4.9411  0.9032 -2.7302
  106MOL0     H14283  11.558   3.833   6.504  4.0236 -0.2866  1.4659
  106MOL0     H14284  11.779   4.005   6.590 -0.4551  1.0999  1.0311
  106MOL0     H14285  11.675   3.895   6.688  2.1439  0.9102  1.0481
  106MOL0     H14286  11.825   3.794   6.433  1.6051  0.3332  0.5361
  106MOL0     H14287  11.748   3.712   6.568  4.3411 -1.9819  1.9664
  106MOL0     H14288  12.000   3.891   6.569 -0.0962  0.6634  1.5394
  106MOL0     H14289  11.917   3.828   6.708 -1.8293 -1.5011 -0.4587
  106MOL0     H14290  11.039   4.201   6.497  0.2007 -2.1750 -0.3754
  106MOL0     H14291  10.803   4.244   6.396  0.1700  2.2446  0.6615
  106MOL0     H14292  10.614   4.133   5.847  1.3402  0.4942  0.4364
  106MOL0     H14293  10.390   4.137   5.762  1.3948  1.6618 -1.0102
  106MOL0     H14294   8.949   4.668   4.853  1.3983  1.9510  1.4745
  106MOL0     H14295   8.756   4.712   4.724  0.4722 -0.8345  0.4860
  106MOL0     H14296   8.287   4.664   4.817 -0.6925  0.2084  0.3944
  106MOL0     H14297   8.059   4.622   4.731 -0.3677 -0.0075 -0.6797
  106MOL0     H14298   7.948   4.775   4.311 -2.5046 -1.9247 -1.6499
  106MOL0     H14299   7.879   4.858   4.462  0.3165 -1.5079  3.9864
  106MOL0     H14300   7.686   4.759   4.410  1.5542 -0.4299  1.2975
  106MOL0     H14301   7.751   4.604   4.387 -2.4280 -0.3897  0.7811
  106MOL0     H14302   7.640   4.689   4.188 -0.0676 -0.5840  0.5538
  106MOL0     H14303   7.815   4.677   4.142  1.2703  0.4165  1.0084
  106MOL0     H14304   7.678   4.942   4.231  1.9198  2.0778 -0.4181
  106MOL0     H14305   7.837   4.926   4.167 -0.1723  1.9453 -4.6751
  106MOL0     H14306   7.604   4.893   3.819  2.8599  1.9067 -0.5900
  106MOL0     H14307   8.127   4.857   4.399  0.6563  0.7597  0.7736
  106MOL0     H14308   8.328   4.924   4.337 -2.9184  1.3295  2.3448
  106MOL0     H14309   8.383   5.007   4.481 -1.4187 -0.8358  2.2913
  106MOL0     H14310   8.490   4.881   4.412  0.4938  2.7062 -1.6857
  107MOL0     O14311   1.618   7.089   2.318  1.0357  1.2241 -1.2922
  107MOL0     C14312   1.587   7.190   2.382  0.5090 -0.3205 -0.3887
  107MOL0     O14313   1.454   7.222   2.400 -0.5520  0.7587  0.9114
  107MOL0     C14314   1.354   7.136   2.385  0.1469  0.7801 -1.0131
  107MOL0     C14315   1.377   7.002   2.427 -0.7623  0.6471 -0.3313
  107MOL0     C14316   1.272   6.914   2.402 -0.4325 -0.2210  0.2081
  107MOL0     C14317   1.157   6.956   2.336  1.2254 -0.0236 -0.7714
  107MOL0     O14318   1.065   6.872   2.291  0.3569  0.5743 -0.1117
  107MOL0     C14319   1.068   6.732   2.316  1.0767  0.5473 -0.6578
  107MOL0     C14320   0.962   6.663   2.218  0.7209 -0.2408 -0.4087
  107MOL0     C14321   0.814   6.700   2.249 -0.5922 -0.8322 -0.1791
  107MOL0     C14322   0.776   6.846   2.210  0.2111 -0.5264  1.4094
  107MOL0     C14323   0.623   6.867   2.217 -0.1321 -1.0133  0.1305
  107MOL0     C14324   0.605   7.020   2.181 -0.3410 -0.2643  0.4200
  107MOL0     C14325   0.463   7.030   2.109  0.7974 -0.2275 -0.0801
  107MOL0     C14326   0.346   7.032   2.200 -0.3909 -0.6238 -0.2176
  107MOL0     N14327   0.230   7.087   2.136 -0.3442  0.6454 -0.1872
  107MOL0     C14328   0.136   7.169   2.189 -0.5775  0.3960 -1.6343
  107MOL0     C14329   0.024   7.161   2.121  0.4900 -0.2545 -0.0903
  107MOL0     C14330  -0.109   7.223   2.163  0.0925  0.3003  0.6803
  107MOL0     C14331  -0.154   7.177   2.293 -0.5716  0.9257 -0.2623
  107MOL0     C14332  -0.177   7.027   2.289  0.2302  0.1689 -1.2424
  107MOL0     C14333  -0.240   6.991   2.425 -0.8152 -0.2357 -0.1192
  107MOL0     O14334  -0.167   7.050   2.534 -0.0448 -0.2959  0.7227
  107MOL0     C14335  -0.039   7.002   2.554  0.4218 -0.7890 -0.1508
  107MOL0     C14336   0.030   6.896   2.501  1.0848  0.4571 -0.1797
  107MOL0     C14337   0.167   6.875   2.512 -0.2947  0.6825 -0.4911
  107MOL0     C14338   0.249   6.959   2.593 -0.9945 -0.8231  0.1634
  107MOL0     C14339   0.393   6.921   2.623 -0.8824  0.7260 -0.5532
  107MOL0     O14340   0.457   6.814   2.565  0.0038  0.5489  0.3803
  107MOL0     C14341   0.593   6.793   2.585  0.0568 -0.2414  0.3619
  107MOL0     C14342   0.639   6.680   2.662  0.4346 -0.1148 -0.1780
  107MOL0     C14343   0.771   6.665   2.696  1.8604  0.3814  0.5112
  107MOL0     C14344   0.864   6.751   2.644  0.9972  0.5157  0.5530
  107MOL0     O14345   0.994   6.723   2.659 -0.8563  0.2954  0.0751
  107MOL0     C14346   1.071   6.831   2.711 -0.2025 -0.6528 -0.4439
  107MOL0     C14347   1.203   6.772   2.756 -0.2553  0.3214  0.0642
  107MOL0     C14348   1.194   6.678   2.879  0.1246 -0.1436 -0.1737
  107MOL0     C14349   1.335   6.606   2.876 -0.3692  1.1329 -0.2661
  107MOL0     C14350   1.347   6.467   2.814  0.7737  0.9579  0.5288
  107MOL0     C14351   1.486   6.402   2.837 -0.4192 -1.0515 -1.1349
  107MOL0     C14352   1.495   6.264   2.767 -0.0000 -0.3704 -0.1868
  107MOL0     C14353   1.622   6.183   2.801 -0.2483 -0.6623 -0.1684
  107MOL0    Cl14354   1.645   6.162   2.976 -0.5984 -0.1583 -0.5294
  107MOL0     C14355   0.816   6.866   2.581 -0.5410  0.3364 -0.1231
  107MOL0     C14356   0.684   6.893   2.560 -0.0659 -0.3936  1.1805
  107MOL0     O14357   0.447   6.995   2.704 -0.3406  0.6523  1.0248
  107MOL0     C14358   0.179   7.072   2.649 -0.3785 -0.2847 -0.1607
  107MOL0     C14359   0.039   7.095   2.627 -0.1709  0.9025 -0.4912
  107MOL0     N14360   0.057   7.073   2.018 -0.8119 -0.9198 -0.0410
  107MOL0     N14361   0.182   7.042   2.019 -0.3881  0.7023 -0.6022
  107MOL0     C14362   1.143   7.088   2.296  0.0765  0.2112 -0.5101
  107MOL0     C14363   1.236   7.177   2.322  0.3177 -0.7714 -0.7077
  107MOL0     C14364   1.677   7.277   2.459  0.0681  0.3961  0.3121
  107MOL0     C14365   1.653   7.414   2.458 -0.4502  0.3955  0.5388
  107MOL0     C14366   1.736   7.496   2.529 -0.4581  0.3360 -0.9331
  107MOL0     C14367   1.841   7.442   2.607 -0.4141 -0.9242 -0.4800
  107MOL0     O14368   1.926   7.533   2.668 -0.3902  0.0952 -0.8304
  107MOL0     C14369   2.049   7.566   2.595 -0.5763 -0.4534 -0.0935
  107MOL0     C14370   2.030   7.649   2.476  0.0004  0.7582  0.1090
  107MOL0     C14371   1.973   7.790   2.525  1.4963 -0.2684 -0.4419
  107MOL0     C14372   1.898   7.848   2.402  0.1291 -0.4071  0.4543
  107MOL0     C14373   1.997   7.877   2.286 -0.7913  1.2194 -1.0120
  107MOL0     C14374   2.070   7.910   2.192  0.4280  0.1755 -0.8251
  107MOL0     C14375   1.863   7.302   2.617  0.0552 -1.2521 -0.4892
  107MOL0     C14376   1.784   7.219   2.539 -0.3746  0.7549  0.5359
  107MOL0     C14377   1.806   7.073   2.541 -0.0015  0.2128 -0.9018
  107MOL0     H14378   1.473   6.981   2.473 -0.8800  2.4655  0.8607
  107MOL0     H14379   1.270   6.816   2.448  1.2151  0.4917  1.9729
  107MOL0     H14380   1.172   6.699   2.302  0.8907 -0.7005  0.6543
  107MOL0     H14381   1.050   6.732   2.424  1.2453  3.6958 -0.5422
  107MOL0     H14382   0.982   6.556   2.226 -1.6646 -0.6289  2.0359
  107MOL0     H14383   0.974   6.699   2.116 -2.4979  0.5964 -0.6260
  107MOL0     H14384   0.804   6.682   2.357  3.0778 -4.3630 -0.1552
  107MOL0     H14385   0.742   6.631   2.204  0.2812  0.3699 -3.6691
  107MOL0     H14386   0.822   6.925   2.271  0.2959 -1.1425  2.1600
  107MOL0     H14387   0.819   6.860   2.111 -0.3815  0.9002  1.3284
  107MOL0     H14388   0.578   6.788   2.156 -0.3691 -1.6824  1.1515
  107MOL0     H14389   0.589   6.854   2.320  0.1751 -3.7281 -0.0474
  107MOL0     H14390   0.595   7.091   2.264 -1.2100  2.0800 -1.5870
  107MOL0     H14391   0.682   7.058   2.113 -0.7182 -2.3124 -1.2555
  107MOL0     H14392   0.450   6.941   2.047 -4.3453 -0.6331  1.1109
  107MOL0     H14393   0.469   7.118   2.045  2.5926  1.1306  1.7950
  107MOL0     H14394   0.332   6.929   2.235  0.5748 -0.1365  1.7529
  107MOL0     H14395   0.359   7.091   2.291 -3.1457  0.2493 -0.3050
  107MOL0     H14396   0.151   7.213   2.287  0.5015 -3.0681 -0.0755
  107MOL0     H14397  -0.101   7.332   2.164  1.8734  0.2010  0.2859
  107MOL0     H14398  -0.184   7.188   2.092  0.4310 -2.1111  1.4278
  107MOL0     H14399  -0.078   7.203   2.367 -0.6843  1.0010 -0.1735
  107MOL0     H14400  -0.241   7.231   2.332 -0.0461  0.8706  1.0464
  107MOL0     H14401  -0.084   6.969   2.281  1.2881  1.3763  1.2205
  107MOL0     H14402  -0.249   7.008   2.209  0.6964  2.4300 -2.2840
  107MOL0     H14403  -0.274   6.888   2.436 -4.8075  1.1076  2.4783
  107MOL0     H14404  -0.336   7.045   2.421  0.1803  1.7032  0.7160
  107MOL0     H14405  -0.024   6.831   2.432 -2.2323  0.1644  2.4338
  107MOL0     H14406   0.208   6.791   2.456 -0.9362 -1.2238  1.7421
  107MOL0     H14407   0.556   6.610   2.668  0.8089 -0.8869 -2.6303
  107MOL0     H14408   0.800   6.577   2.753  1.6434  0.6545  1.0451
  107MOL0     H14409   1.094   6.918   2.649 -0.9615 -0.3549 -0.3088
  107MOL0     H14410   1.011   6.871   2.793 -1.0562  1.8841 -2.2092
  107MOL0     H14411   1.245   6.725   2.667 -0.2607  1.1302 -0.3709
  107MOL0     H14412   1.265   6.859   2.781  0.6466 -0.4350  0.5052
  107MOL0     H14413   1.172   6.731   2.973 -1.0149  1.2982 -1.2091
  107MOL0     H14414   1.120   6.600   2.859  0.1684 -0.6012  1.2716
  107MOL0     H14415   1.361   6.579   2.979 -1.7663 -1.5608 -0.5507
  107MOL0     H14416   1.413   6.675   2.841 -0.7758  0.9861 -1.5007
  107MOL0     H14417   1.332   6.484   2.707  0.5489 -4.7581 -0.6961
  107MOL0     H14418   1.266   6.398   2.841 -0.3751  0.6185 -3.2344
  107MOL0     H14419   1.556   6.478   2.798  1.7045 -1.5395  1.4495
  107MOL0     H14420   1.511   6.396   2.943 -2.2908  1.9563 -0.3861
  107MOL0     H14421   1.488   6.270   2.658 -3.4745  1.3583  0.0047
  107MOL0     H14422   1.409   6.206   2.799 -0.0888 -0.2705 -0.2431
  107MOL0     H14423   1.606   6.088   2.750 -1.8957  0.8149 -2.6706
  107MOL0     H14424   1.712   6.224   2.754  0.6403  1.8845  3.3295
  107MOL0     H14425   0.884   6.936   2.533  0.0974  1.3121  2.0623
  107MOL0     H14426   0.655   6.989   2.519 -0.8865 -0.7620  0.8548
  107MOL0     H14427   0.241   7.133   2.713 -0.2831  1.5514 -1.9108
  107MOL0     H14428  -0.001   7.188   2.668 -0.2197  1.0659 -0.8990
  107MOL0     H14429   1.053   7.118   2.243 -0.6764 -1.6773 -0.3597
  107MOL0     H14430   1.219   7.277   2.284 -3.1391 -0.8163  0.3830
  107MOL0     H14431   1.565   7.457   2.412 -0.3798 -0.6809 -0.6401
  107MOL0     H14432   1.709   7.599   2.553 -1.1528 -0.0673  0.0927
  107MOL0     H14433   2.100   7.472   2.568  0.1100  0.5335 -2.4776
  107MOL0     H14434   2.114   7.622   2.663 -0.6781 -0.9459  0.4203
  107MOL0     H14435   1.966   7.593   2.407 -0.5602  2.2084 -0.5852
  107MOL0     H14436   2.125   7.671   2.427 -1.3940 -0.6284 -3.5555
  107MOL0     H14437   2.045   7.867   2.554  0.0668 -0.1177  3.3121
  107MOL0     H14438   1.919   7.796   2.620  0.9295  1.1687 -0.8409
  107MOL0     H14439   1.825   7.778   2.360 -0.2046  1.6544 -2.8174
  107MOL0     H14440   1.856   7.946   2.426 -1.9889 -1.0972 -0.1525
  107MOL0     H14441   2.148   7.923   2.119  2.2679 -1.6976  0.6684
  107MOL0     H14442   1.942   7.262   2.679 -1.5740  1.5458  3.8817
  107MOL0     H14443   1.870   7.034   2.620 -0.8123 -0.9016 -0.7831
  107MOL0     H14444   1.716   7.016   2.564 -1.4662  1.4894 -3.0648
  107MOL0     H14445   1.844   7.033   2.446  2.4857 -0.6585  0.3635
  108MOL0     O14446  10.592   3.606   8.055 -0.1819  0.0073  0.3754
  108MOL0     C14447  10.590   3.652   7.939 -1.2255  0.3423  0.0025
  108MOL0     O14448  10.690   3.705   7.876 -0.0023  0.3838  0.0299
  108MOL0     C14449  10.821   3.684   7.907 -0.4687 -0.2873  0.7088
  108MOL0     C14450  10.878   3.566   7.963  0.6658  0.1027  1.0857
  108MOL0     C14451  11.013   3.549   7.984  0.0544  0.0735  0.7059
  108MOL0     C14452  11.098   3.659   7.933 -0.6381 -0.1550 -1.0027
  108MOL0     O14453  11.229   3.637   7.961 -1.1936 -0.8096  0.4460
  108MOL0     C14454  11.289   3.739   8.045  0.5936 -0.4309 -0.0874
  108MOL0     C14455  11.422   3.702   8.108  0.1954  0.1188  0.3901
  108MOL0     C14456  11.408   3.579   8.197  0.1816 -0.5396 -0.7710
  108MOL0     C14457  11.422   3.432   8.137 -0.3830 -0.0908  0.2416
  108MOL0     C14458  11.437   3.320   8.243  0.0468 -1.1042  0.1115
  108MOL0     C14459  11.566   3.341   8.320 -0.2224  0.4536 -1.2634
  108MOL0     C14460  11.610   3.223   8.405 -0.4184 -0.2705 -0.8894
  108MOL0     C14461  11.735   3.242   8.481  0.5547  0.0370 -0.4984
  108MOL0     N14462  11.801   3.139   8.542 -0.0021 -0.1650 -0.2394
  108MOL0     C14463  11.794   3.131   8.682 -0.8600  0.0791 -0.5448
  108MOL0     C14464  11.870   3.010   8.700  0.3101 -0.2718 -0.1074
  108MOL0     C14465  11.899   2.960   8.837 -0.7757  0.5769 -0.4677
  108MOL0     C14466  11.768   2.908   8.912 -0.3654 -0.3341  0.6353
  108MOL0     C14467  11.794   2.774   8.970 -0.7733 -0.0399 -1.2235
  108MOL0     C14468  11.672   2.719   9.036 -0.3298  0.8696  0.1396
  108MOL0     O14469  11.655   2.785   9.161 -0.3012 -0.2272  0.1763
  108MOL0     C14470  11.687   2.728   9.278  0.1848  0.3199 -0.1162
  108MOL0     C14471  11.630   2.785   9.396 -0.4304 -0.2488  0.1010
  108MOL0     C14472  11.636   2.705   9.514  0.8086 -0.2094 -0.3178
  108MOL0     C14473  11.699   2.577   9.528 -0.2138  0.0905  0.0155
  108MOL0     C14474  11.705   2.498   9.647 -0.5998  0.5931  0.2047
  108MOL0     O14475  11.728   2.555   9.761 -0.6975  0.1590 -0.8413
  108MOL0     C14476  11.755   2.485   9.871  0.1156  0.1560 -0.6143
  108MOL0     C14477  11.677   2.372   9.906 -0.7025 -0.7982 -0.7195
  108MOL0     C14478  11.712   2.294  10.016 -0.8979 -1.0766 -0.1801
  108MOL0     C14479  11.839   2.315  10.082  0.4773 -0.6301 -0.0903
  108MOL0     O14480  11.874   2.221  10.179  0.5379 -0.8279  0.8585
  108MOL0     C14481  11.933   2.103  10.129  0.6874  0.9412  0.4574
  108MOL0     C14482  12.013   2.050  10.250  0.0264  0.9306  0.6752
  108MOL0     C14483  12.090   1.923  10.214  0.2442 -0.5992 -0.1718
  108MOL0     C14484  12.008   1.806  10.160  0.4642 -1.1923 -0.3355
  108MOL0     C14485  12.091   1.692  10.100 -0.0374 -0.6331 -0.2539
  108MOL0     C14486  11.989   1.578  10.057 -0.3047  0.5335  0.8496
  108MOL0     C14487  12.050   1.433  10.065  0.3065  0.2661 -0.0808
  108MOL0     C14488  11.928   1.338  10.038 -0.1130 -0.2469 -0.0120
  108MOL0    Cl14489  11.795   1.349  10.151 -0.1541  0.1126 -0.0784
  108MOL0     C14490  11.922   2.414  10.039 -1.1230 -0.9958  0.0988
  108MOL0     C14491  11.877   2.504   9.936  0.2511 -0.0416  0.6165
  108MOL0     O14492  11.689   2.379   9.632  0.4311 -0.5040  0.5650
  108MOL0     C14493  11.759   2.542   9.406  0.0745 -0.9722 -0.7861
  108MOL0     C14494  11.757   2.608   9.283  0.0850 -0.6732 -0.0324
  108MOL0     N14495  11.920   2.969   8.576  0.2665  0.6438  0.2789
  108MOL0     N14496  11.869   3.040   8.480  0.1253 -0.1583  0.0192
  108MOL0     C14497  11.043   3.776   7.872 -0.2227 -0.3378 -0.8976
  108MOL0     C14498  10.909   3.789   7.855  0.2079  0.3819 -0.9675
  108MOL0     C14499  10.456   3.650   7.876  0.9645  0.8351 -0.2165
  108MOL0     C14500  10.415   3.758   7.801 -0.6140 -0.3260  1.0309
  108MOL0     C14501  10.296   3.764   7.729  0.1101  0.0076 -0.0573
  108MOL0     C14502  10.213   3.650   7.729  0.1557 -0.1912 -0.3829
  108MOL0     O14503  10.102   3.650   7.642  0.2996 -0.1339 -0.3485
  108MOL0     C14504  10.022   3.762   7.624 -0.4009 -0.3403  0.1416
  108MOL0     C14505   9.873   3.723   7.638 -0.1539 -0.1509  0.4842
  108MOL0     C14506   9.849   3.662   7.772  1.1647 -0.3395 -0.7192
  108MOL0     C14507   9.707   3.678   7.820  0.2129  0.6739 -0.2803
  108MOL0     C14508   9.606   3.620   7.725  0.5499  0.8148  0.3263
  108MOL0     C14509   9.537   3.571   7.634 -0.5457  0.0191  0.1789
  108MOL0     C14510  10.257   3.536   7.795 -0.0129 -0.4786  0.2734
  108MOL0     C14511  10.376   3.529   7.872 -0.6338 -1.5642  0.6243
  108MOL0     C14512  10.418   3.404   7.954  0.5437  0.1348 -0.3931
  108MOL0     H14513  10.813   3.488   8.002 -0.7575  1.1788  0.9152
  108MOL0     H14514  11.057   3.459   8.026  0.1529  0.0903  0.6385
  108MOL0     H14515  11.305   3.822   7.975 -0.7455 -3.5088 -4.4966
  108MOL0     H14516  11.216   3.762   8.122  1.5451 -2.8565  1.6608
  108MOL0     H14517  11.469   3.786   8.158  0.6335 -0.0199  0.2187
  108MOL0     H14518  11.498   3.672   8.035  0.2880  0.9893  0.1217
  108MOL0     H14519  11.316   3.589   8.255  1.8317 -1.2678  2.1144
  108MOL0     H14520  11.484   3.595   8.273  0.0734 -0.9360 -0.5780
  108MOL0     H14521  11.331   3.412   8.081  0.2505 -0.2717 -0.7487
  108MOL0     H14522  11.511   3.424   8.074  0.2403 -0.8038  1.1892
  108MOL0     H14523  11.360   3.334   8.320 -0.2781 -0.4335 -0.3201
  108MOL0     H14524  11.432   3.222   8.195 -0.3754 -0.7702 -0.5476
  108MOL0     H14525  11.649   3.360   8.251 -1.0199 -3.0250 -3.4356
  108MOL0     H14526  11.534   3.422   8.387  0.9074  0.8495 -1.1687
  108MOL0     H14527  11.610   3.137   8.337  0.0978 -0.7319 -0.3147
  108MOL0     H14528  11.540   3.194   8.484  2.2097 -3.4546  0.5231
  108MOL0     H14529  11.812   3.271   8.408  1.5568  1.1730  0.9466
  108MOL0     H14530  11.720   3.330   8.545 -0.9778  3.5644 -5.1180
  108MOL0     H14531  11.754   3.200   8.756 -0.3845 -0.3479  0.1287
  108MOL0     H14532  11.978   2.884   8.842  0.4044  1.8202  1.5824
  108MOL0     H14533  11.952   3.037   8.894 -4.7957  1.8963  1.9205
  108MOL0     H14534  11.732   2.979   8.987  0.8132  1.0642 -0.0782
  108MOL0     H14535  11.700   2.892   8.828 -0.6127  3.5616 -0.1039
  108MOL0     H14536  11.880   2.784   9.038 -0.1407 -0.9912 -1.8425
  108MOL0     H14537  11.838   2.701   8.901  2.7827 -3.3814  3.8281
  108MOL0     H14538  11.678   2.610   9.044 -0.0873  0.5422 -3.2111
  108MOL0     H14539  11.588   2.739   8.969  1.8426 -0.3934 -3.1741
  108MOL0     H14540  11.578   2.879   9.382  1.2608  0.7677  0.3234
  108MOL0     H14541  11.595   2.756   9.600  0.9861 -0.5372 -0.0347
  108MOL0     H14542  11.584   2.349   9.854  0.8708 -5.1727 -2.0623
  108MOL0     H14543  11.647   2.216  10.055 -2.3256  0.6994  1.2542
  108MOL0     H14544  11.865   2.034  10.078  0.9235  1.0060  0.0582
  108MOL0     H14545  12.007   2.125  10.053  0.7405  2.6958  0.9639
  108MOL0     H14546  12.083   2.131  10.274  3.3114 -0.1480 -3.9853
  108MOL0     H14547  11.950   2.041  10.339 -1.6690  0.3454 -0.5353
  108MOL0     H14548  12.168   1.950  10.142 -0.1145 -0.7706 -0.6308
  108MOL0     H14549  12.146   1.892  10.302 -0.4897  3.9282  2.2052
  108MOL0     H14550  11.944   1.844  10.079  3.5993  2.6353 -1.3203
  108MOL0     H14551  11.949   1.765  10.243 -2.6592  3.8194  0.3161
  108MOL0     H14552  12.165   1.639  10.161  4.5296  3.4280 -1.6051
  108MOL0     H14553  12.142   1.720  10.008  1.2180 -1.8378  0.0564
  108MOL0     H14554  11.894   1.587  10.110 -0.6270 -0.8818  0.5539
  108MOL0     H14555  11.974   1.590   9.949 -0.2373 -0.0902  0.7700
  108MOL0     H14556  12.085   1.413  10.167  1.2252 -2.0892 -0.7981
  108MOL0     H14557  12.140   1.424  10.004  0.9948  1.9756  0.6043
  108MOL0     H14558  11.879   1.357   9.942 -1.3202 -3.1026 -0.0463
  108MOL0     H14559  11.966   1.236  10.047  2.6767  0.7304  0.2798
  108MOL0     H14560  12.019   2.421  10.087 -0.2855 -0.8721 -1.5484
  108MOL0     H14561  11.930   2.586   9.888 -4.5376  1.1184 -3.5418
  108MOL0     H14562  11.804   2.444   9.418 -1.5275 -1.5590  0.9990
  108MOL0     H14563  11.813   2.577   9.196  0.9309 -0.5708  0.4628
  108MOL0     H14564  11.117   3.846   7.834  1.6285 -1.3352  0.6642
  108MOL0     H14565  10.868   3.872   7.798  2.9852 -0.4761 -4.6099
  108MOL0     H14566  10.479   3.846   7.801  1.6708 -1.8892  2.3169
  108MOL0     H14567  10.275   3.852   7.668  0.4946 -1.1487 -1.9183
  108MOL0     H14568  10.037   3.808   7.526  0.3031  4.2342  2.1428
  108MOL0     H14569  10.040   3.842   7.698  0.9342 -1.4415  1.0699
  108MOL0     H14570   9.852   3.654   7.557  0.5748  0.9630 -0.6944
  108MOL0     H14571   9.805   3.808   7.636 -0.0047 -0.0341 -1.8038
  108MOL0     H14572   9.912   3.704   7.850  1.3229 -1.0631 -0.4503
  108MOL0     H14573   9.874   3.555   7.773  2.2073 -0.1764 -2.9155
  108MOL0     H14574   9.692   3.641   7.922 -1.4575 -0.7737 -0.9973
  108MOL0     H14575   9.690   3.786   7.815 -2.1574  0.3485 -4.6333
  108MOL0     H14576   9.496   3.532   7.544 -0.9398  2.0325 -0.5730
  108MOL0     H14577  10.199   3.444   7.794 -0.5032 -0.1817 -0.6920
  108MOL0     H14578  10.518   3.370   7.925  0.1952 -3.5094  2.1089
  108MOL0     H14579  10.418   3.432   8.060 -4.2134 -2.7933  0.6483
  108MOL0     H14580  10.356   3.314   7.957  0.5743  0.1228 -0.0551
  109MOL0     O14581   8.826  11.294   9.571 -0.0214 -0.1043 -0.1627
  109MOL0     C14582   8.865  11.402   9.535 -0.2071 -1.1349 -0.8231
  109MOL0     O14583   8.963  11.476   9.606 -0.5973 -0.7318  0.0239
  109MOL0     C14584   9.006  11.446   9.735  1.4584 -0.2115  0.4455
  109MOL0     C14585   9.121  11.498   9.784 -0.6129 -0.2860  0.0398
  109MOL0     C14586   9.156  11.483   9.919 -0.3751 -0.6794  0.8321
  109MOL0     C14587   9.089  11.407  10.002 -0.3531 -0.0328 -1.5908
  109MOL0     O14588   9.140  11.395  10.122 -0.0879 -0.4593  0.3075
  109MOL0     C14589   9.136  11.276  10.199  0.0195  1.5818 -0.0176
  109MOL0     C14590   9.262  11.257  10.282 -1.0668 -0.3651 -0.5454
  109MOL0     C14591   9.384  11.237  10.194 -0.3488  0.5131 -0.6691
  109MOL0     C14592   9.519  11.268  10.260  0.1806 -0.2311 -0.6934
  109MOL0     C14593   9.629  11.173  10.202  0.5900 -0.0355 -0.6570
  109MOL0     C14594   9.685  11.224  10.070 -0.3002 -0.7521 -0.6787
  109MOL0     C14595   9.766  11.119   9.992 -1.1444  1.5125 -0.8319
  109MOL0     C14596   9.897  11.074  10.056 -0.0311 -0.7530 -0.7528
  109MOL0     N14597   9.991  11.181  10.060 -0.6847 -0.0477 -0.1982
  109MOL0     C14598  10.075  11.217   9.953 -1.0022  0.7457 -0.4806
  109MOL0     C14599  10.148  11.312  10.014  0.1571 -0.0885 -0.5548
  109MOL0     C14600  10.264  11.388   9.963 -0.3752 -0.0624 -0.1271
  109MOL0     C14601  10.400  11.322   9.987 -0.1160  0.0947 -0.4788
  109MOL0     C14602  10.454  11.341  10.135  0.6272 -0.2444  0.7594
  109MOL0     C14603  10.602  11.315  10.158  0.1851 -0.1424 -0.6128
  109MOL0     O14604  10.625  11.333  10.296 -0.5192  0.3000  0.0544
  109MOL0     C14605  10.751  11.362  10.343  0.7998 -0.5100  0.0555
  109MOL0     C14606  10.863  11.321  10.267  0.2858  0.9798 -0.8177
  109MOL0     C14607  10.979  11.330  10.329 -0.3284 -0.7143 -0.1246
  109MOL0     C14608  10.999  11.381  10.462 -0.2713 -0.6575 -1.0945
  109MOL0     C14609  11.134  11.412  10.517  0.3346  1.0900  0.0570
  109MOL0     O14610  11.229  11.393  10.422  0.2643  0.7068 -0.4996
  109MOL0     C14611  11.361  11.409  10.436 -0.9343  0.4262  0.6248
  109MOL0     C14612  11.432  11.477  10.541  0.0716  0.4779 -0.8867
  109MOL0     C14613  11.571  11.475  10.557 -0.4162 -0.5635 -0.1427
  109MOL0     C14614  11.644  11.421  10.450  0.6116 -0.2649  0.1956
  109MOL0     O14615  11.782  11.435  10.460  0.2575  1.2822  0.0881
  109MOL0     C14616  11.855  11.354  10.559 -0.5881 -0.2489 -0.4190
  109MOL0     C14617  11.847  11.211  10.527 -0.2600  0.4057 -0.2566
  109MOL0     C14618  11.973  11.123  10.562  0.3741 -0.9886 -0.5321
  109MOL0     C14619  12.003  11.128  10.720 -0.7026  0.4713 -0.6160
  109MOL0     C14620  12.116  11.036  10.746  0.2631  0.1506 -0.4447
  109MOL0     C14621  12.259  11.088  10.698  1.0627  0.1827  0.7837
  109MOL0     C14622  12.370  10.993  10.742  0.2738 -0.5992 -0.4948
  109MOL0     C14623  12.372  10.864  10.661  0.3186 -0.3449  0.0945
  109MOL0    Cl14624  12.421  10.898  10.488  0.3136 -0.5038  0.5997
  109MOL0     C14625  11.586  11.362  10.338  0.2956 -1.0192 -0.2609
  109MOL0     C14626  11.444  11.358  10.335 -0.0095 -0.6934  1.0090
  109MOL0     O14627  11.150  11.449  10.633  0.1094  0.4744  0.0760
  109MOL0     C14628  10.891  11.405  10.540  0.8020 -1.0055  0.2888
  109MOL0     C14629  10.766  11.387  10.485 -0.1143 -0.4341  0.0481
  109MOL0     N14630  10.110  11.336  10.143  0.4009  0.2852  0.9050
  109MOL0     N14631  10.020  11.246  10.172 -0.4760 -0.1523 -0.8353
  109MOL0     C14632   8.967  11.343   9.955  0.4521  0.3541  0.5436
  109MOL0     C14633   8.927  11.369   9.826  0.7476  0.3102  0.3661
  109MOL0     C14634   8.804  11.477   9.425 -0.2065 -0.4351  0.2564
  109MOL0     C14635   8.788  11.616   9.436 -0.7112 -1.6406 -0.2006
  109MOL0     C14636   8.733  11.700   9.342  0.6404  0.2662  1.2667
  109MOL0     C14637   8.681  11.645   9.220 -0.5194  0.7047  0.6438
  109MOL0     O14638   8.609  11.712   9.118 -0.5402  0.4629  1.0629
  109MOL0     C14639   8.571  11.848   9.136 -1.0963  0.2550  0.5512
  109MOL0     C14640   8.449  11.860   9.230  0.2364 -1.0527  0.6015
  109MOL0     C14641   8.429  12.012   9.266 -0.2911 -0.3616 -0.7715
  109MOL0     C14642   8.509  12.047   9.393 -0.0417 -0.2230  0.5256
  109MOL0     C14643   8.514  12.191   9.395 -0.7626 -0.3869 -0.4677
  109MOL0     C14644   8.546  12.309   9.381 -1.3912 -0.6990 -0.5998
  109MOL0     C14645   8.712  11.506   9.198  0.2575  0.5030 -0.1732
  109MOL0     C14646   8.764  11.417   9.304  0.3442  0.0980  0.0534
  109MOL0     C14647   8.771  11.265   9.276 -0.5306 -1.7325 -0.3466
  109MOL0     H14648   9.168  11.575   9.723  3.3253 -2.1669  0.3947
  109MOL0     H14649   9.243  11.532   9.962 -1.0230 -0.0010  1.3915
  109MOL0     H14650   9.043  11.253  10.253  1.1238 -2.3177  0.5257
  109MOL0     H14651   9.133  11.195  10.125  0.3865 -0.2491  1.8807
  109MOL0     H14652   9.257  11.169  10.347  0.3177 -1.4506 -1.8327
  109MOL0     H14653   9.262  11.343  10.350 -2.0256 -1.1692  0.5119
  109MOL0     H14654   9.380  11.307  10.110 -1.0768 -1.8705 -2.7393
  109MOL0     H14655   9.371  11.134  10.160 -1.6761  1.6621 -4.0206
  109MOL0     H14656   9.548  11.374  10.255  1.2679 -0.3568  1.6332
  109MOL0     H14657   9.513  11.249  10.367  1.6900  1.3151 -0.2831
  109MOL0     H14658   9.698  11.187  10.286  0.7994 -1.9296 -0.4769
  109MOL0     H14659   9.588  11.073  10.186 -1.7683  1.3699 -4.9529
  109MOL0     H14660   9.602  11.254  10.005 -1.2806 -2.5880 -0.3464
  109MOL0     H14661   9.745  11.312  10.094  0.2770 -1.3841  0.2704
  109MOL0     H14662   9.784  11.145   9.887 -0.8994  0.5460 -1.0427
  109MOL0     H14663   9.705  11.028   9.990  0.5342  0.2407  1.1006
  109MOL0     H14664   9.877  11.030  10.154  0.3668  0.3376 -0.1579
  109MOL0     H14665   9.950  11.006   9.988  3.1587  1.5007 -0.7722
  109MOL0     H14666  10.073  11.176   9.853  0.5571  0.2354 -0.3324
  109MOL0     H14667  10.252  11.404   9.855  2.8473 -2.4549 -0.9824
  109MOL0     H14668  10.277  11.479  10.023  3.0018 -1.2170  1.1013
  109MOL0     H14669  10.392  11.215   9.963 -0.4727 -0.1510  0.6484
  109MOL0     H14670  10.468  11.363   9.912  0.0577  1.4467  0.3858
  109MOL0     H14671  10.401  11.274  10.203 -0.3491 -0.1194  0.1510
  109MOL0     H14672  10.422  11.443  10.156  0.7852  0.9536 -3.7580
  109MOL0     H14673  10.670  11.379  10.101  3.0103 -0.6312  1.9050
  109MOL0     H14674  10.623  11.212  10.129  0.2242 -0.7831  1.5365
  109MOL0     H14675  10.846  11.286  10.165 -0.9758 -0.9348 -0.0119
  109MOL0     H14676  11.057  11.314  10.255  0.3472  0.7846  0.2326
  109MOL0     H14677  11.380  11.527  10.622  0.3869 -2.6162  1.4218
  109MOL0     H14678  11.610  11.518  10.649  1.7260 -0.5765 -0.9863
  109MOL0     H14679  11.955  11.396  10.545 -0.4780 -0.6384 -0.8080
  109MOL0     H14680  11.825  11.373  10.662 -2.1265  2.5127 -1.2769
  109MOL0     H14681  11.763  11.162  10.577 -1.8558  1.8647 -1.3583
  109MOL0     H14682  11.824  11.183  10.424  2.2003 -1.5334 -0.3716
  109MOL0     H14683  11.951  11.019  10.539 -1.3088 -0.8421  0.2632
  109MOL0     H14684  12.057  11.154  10.499 -1.2457  2.7595 -1.1013
  109MOL0     H14685  11.912  11.107  10.777 -1.1787  0.1860 -1.4725
  109MOL0     H14686  12.039  11.229  10.742 -0.9239  0.3183  0.5288
  109MOL0     H14687  12.093  10.936  10.706  0.4058 -0.2573  0.4734
  109MOL0     H14688  12.123  11.029  10.855  0.9947  0.0941 -0.4895
  109MOL0     H14689  12.264  11.111  10.591  2.7820  0.1675  0.8245
  109MOL0     H14690  12.257  11.190  10.739 -1.3687  0.6774 -0.4168
  109MOL0     H14691  12.351  10.972  10.847  1.7108 -0.5651 -0.2084
  109MOL0     H14692  12.468  11.039  10.729 -1.3813  3.0394 -1.4776
  109MOL0     H14693  12.451  10.810  10.715  0.2743  0.2181  0.7318
  109MOL0     H14694  12.284  10.800  10.672 -0.9301  1.5402  1.5542
  109MOL0     H14695  11.641  11.323  10.253  0.1698 -1.4479 -0.1519
  109MOL0     H14696  11.398  11.315  10.247  0.8977 -0.9098  0.6344
  109MOL0     H14697  10.914  11.433  10.642  0.0518  1.1902 -0.0960
  109MOL0     H14698  10.675  11.372  10.541 -0.9475 -2.6239 -1.7453
  109MOL0     H14699   8.903  11.293  10.027  1.3464  0.6443  1.5841
  109MOL0     H14700   8.843  11.308   9.795 -1.1409  2.1762  1.5408
  109MOL0     H14701   8.831  11.664   9.524 -1.9656  0.5890 -0.7290
  109MOL0     H14702   8.713  11.806   9.353 -0.4403  0.5038 -1.8631
  109MOL0     H14703   8.538  11.892   9.042  1.6810  0.3863 -0.4376
  109MOL0     H14704   8.651  11.911   9.177 -2.2376  0.6864  2.2220
  109MOL0     H14705   8.445  11.785   9.309 -0.0214 -3.3505 -1.4828
  109MOL0     H14706   8.368  11.828   9.164  2.2455 -1.0686 -2.0052
  109MOL0     H14707   8.325  12.038   9.285  0.3460  1.8153  0.0403
  109MOL0     H14708   8.463  12.075   9.183  0.3976 -0.2753 -0.4313
  109MOL0     H14709   8.459  11.996   9.476 -1.2649 -1.4456 -0.8932
  109MOL0     H14710   8.608  12.001   9.385 -0.4629 -1.2224  0.8684
  109MOL0     H14711   8.578  12.411   9.381 -1.1734 -0.7237 -3.0108
  109MOL0     H14712   8.669  11.457   9.112  1.7207  4.0937 -3.2637
  109MOL0     H14713   8.877  11.238   9.276 -0.2097 -0.6026 -1.5903
  109MOL0     H14714   8.710  11.210   9.347  2.7723 -2.3487  2.2690
  109MOL0     H14715   8.732  11.234   9.179 -1.0453  0.1907 -0.8101
  110MOL0     O14716   9.683   6.369   0.457 -0.3433  0.4479 -0.5731
  110MOL0     C14717   9.672   6.441   0.356  0.1872 -0.4450  0.3062
  110MOL0     O14718   9.598   6.409   0.254 -0.3170  0.1216 -0.6053
  110MOL0     C14719   9.537   6.286   0.247  0.4362 -0.4533  0.1727
  110MOL0     C14720   9.606   6.165   0.272 -0.5012  0.4153 -0.7544
  110MOL0     C14721   9.556   6.044   0.224  0.4937 -0.5939 -0.1090
  110MOL0     C14722   9.433   6.036   0.169 -0.1954  0.6992  0.0937
  110MOL0     O14723   9.372   5.918   0.133  0.1239 -0.8887 -0.2359
  110MOL0     C14724   9.410   5.803   0.207 -0.4027 -0.5657 -0.2199
  110MOL0     C14725   9.318   5.692   0.158  0.8107  0.0273 -0.0807
  110MOL0     C14726   9.164   5.716   0.182 -1.5527  0.0489  0.0304
  110MOL0     C14727   9.076   5.585   0.158 -0.6098  0.0162  0.2542
  110MOL0     C14728   9.034   5.563   0.012  0.2985 -0.5960  0.2697
  110MOL0     C14729   8.941   5.443   0.001 -0.3780  0.4941  0.1691
  110MOL0     C14730   9.018   5.314   0.022  0.5840  1.0904  0.4156
  110MOL0     C14731   8.930   5.203  -0.036  0.3803 -1.2502 -0.1223
  110MOL0     N14732   8.932   5.204  -0.182  0.1600  0.5140 -0.0152
  110MOL0     C14733   9.046   5.212  -0.254  0.4421 -0.4705  0.1994
  110MOL0     C14734   9.013   5.193  -0.380  0.9466  0.3248 -0.5405
  110MOL0     C14735   9.113   5.173  -0.494 -0.0509 -0.4280  0.1356
  110MOL0     C14736   9.174   5.028  -0.486 -0.0312  0.4093 -0.4195
  110MOL0     C14737   9.273   4.992  -0.599  1.5434 -0.1803 -0.3089
  110MOL0     C14738   9.202   4.919  -0.708  0.6157 -0.5289  0.5548
  110MOL0     O14739   9.082   4.991  -0.745 -0.2052 -0.2547 -0.2466
  110MOL0     C14740   8.966   4.919  -0.759  0.6176 -0.5011  0.3894
  110MOL0     C14741   8.969   4.803  -0.830  0.1211 -0.9186  0.9521
  110MOL0     C14742   8.846   4.749  -0.865  1.1907  0.5217 -0.2638
  110MOL0     C14743   8.723   4.795  -0.804  0.1728  0.8580 -0.1042
  110MOL0     C14744   8.593   4.714  -0.820  0.7330  1.3186  0.2441
  110MOL0     O14745   8.484   4.788  -0.778  0.3293  0.0429  0.2820
  110MOL0     C14746   8.368   4.768  -0.837 -0.2947 -0.1890 -0.1501
  110MOL0     C14747   8.305   4.644  -0.830  0.0035 -0.3872 -0.8135
  110MOL0     C14748   8.170   4.633  -0.867  0.5336 -0.4087  0.4512
  110MOL0     C14749   8.095   4.746  -0.919  0.6605  0.1796 -0.1112
  110MOL0     O14750   7.966   4.729  -0.950 -0.2609  1.0648 -0.4007
  110MOL0     C14751   7.891   4.850  -0.951  0.2666  0.6682  0.4714
  110MOL0     C14752   7.744   4.822  -0.984 -0.5504 -0.0915 -0.6669
  110MOL0     C14753   7.677   4.749  -0.870 -0.0389 -0.3946 -0.1418
  110MOL0     C14754   7.520   4.746  -0.882 -0.3361 -0.4505  0.4447
  110MOL0     C14755   7.442   4.666  -0.773 -0.7679 -0.9911  0.7136
  110MOL0     C14756   7.413   4.745  -0.641  1.1749 -0.2425  0.3939
  110MOL0     C14757   7.294   4.676  -0.554 -1.2078 -0.3375  0.0375
  110MOL0     C14758   7.283   4.772  -0.433  0.6335  0.1807 -0.8977
  110MOL0    Cl14759   7.413   4.753  -0.315  0.1864  0.1743 -0.2913
  110MOL0     C14760   8.173   4.874  -0.930 -0.0864  0.4912 -0.0492
  110MOL0     C14761   8.298   4.875  -0.874  0.1933 -0.0394  0.0084
  110MOL0     O14762   8.594   4.612  -0.886 -0.1744 -0.1279 -0.8647
  110MOL0     C14763   8.728   4.917  -0.738 -0.1096 -0.6069 -0.3460
  110MOL0     C14764   8.843   4.982  -0.719 -0.0508  0.0558  0.0020
  110MOL0     N14765   8.871   5.186  -0.388  0.2430  0.5211 -0.6352
  110MOL0     N14766   8.824   5.196  -0.264  1.0671 -0.7316  0.0038
  110MOL0     C14767   9.361   6.159   0.153 -0.4018  0.0448  0.6301
  110MOL0     C14768   9.418   6.288   0.183  0.6756  0.3716 -1.2743
  110MOL0     C14769   9.745   6.571   0.359 -1.4691 -0.5475  0.2068
  110MOL0     C14770   9.852   6.591   0.455  0.5732 -0.0585  0.8846
  110MOL0     C14771   9.921   6.707   0.462  0.0974  0.6619 -0.9737
  110MOL0     C14772   9.902   6.814   0.371  0.5029  0.7501 -0.5591
  110MOL0     O14773   9.984   6.925   0.389  0.1829  0.1282 -0.0123
  110MOL0     C14774  10.002   6.965   0.528 -0.1851  0.2482  0.5916
  110MOL0     C14775  10.038   7.112   0.543 -0.5766 -0.0940  0.8277
  110MOL0     C14776   9.933   7.211   0.492 -0.2359  0.3410  0.6608
  110MOL0     C14777   9.968   7.365   0.510 -0.8554  0.1994 -0.4579
  110MOL0     C14778   9.844   7.447   0.473  0.5026  0.4952  0.4662
  110MOL0     C14779   9.755   7.512   0.424 -0.3429 -0.3998 -0.2636
  110MOL0     C14780   9.809   6.796   0.263 -0.5451 -0.0805  0.0593
  110MOL0     C14781   9.727   6.680   0.263 -0.9055 -0.1852  0.7065
  110MOL0     C14782   9.611   6.686   0.174  0.1203 -0.2516 -0.0178
  110MOL0     H14783   9.709   6.186   0.298 -0.3444 -0.6193 -0.5196
  110MOL0     H14784   9.628   5.964   0.239  1.7983  1.0692  3.7771
  110MOL0     H14785   9.512   5.770   0.184 -0.6970 -2.8368  1.3721
  110MOL0     H14786   9.423   5.825   0.313  0.0499  3.1484 -0.9082
  110MOL0     H14787   9.347   5.601   0.211 -1.1404  0.1824  1.3315
  110MOL0     H14788   9.340   5.675   0.052 -0.6071 -2.4795 -0.0389
  110MOL0     H14789   9.134   5.794   0.112  0.0213  0.5858 -0.0887
  110MOL0     H14790   9.140   5.750   0.284  0.4834 -2.0740  1.3120
  110MOL0     H14791   9.141   5.508   0.200  1.9536  1.9708  0.1542
  110MOL0     H14792   8.977   5.594   0.205  0.5029 -2.3715  3.3885
  110MOL0     H14793   8.988   5.657  -0.021 -0.2764  0.5877  3.9555
  110MOL0     H14794   9.113   5.531  -0.056  0.2154 -0.9394  0.3337
  110MOL0     H14795   8.858   5.452   0.072 -0.6328  2.2983 -0.3185
  110MOL0     H14796   8.899   5.447  -0.100  3.7070  2.0507 -1.6808
  110MOL0     H14797   9.019   5.303   0.131  0.7514 -2.0068  0.2065
  110MOL0     H14798   9.121   5.306  -0.013 -0.2921 -0.1990 -2.1500
  110MOL0     H14799   8.959   5.108   0.010 -0.8893 -0.5378  2.2860
  110MOL0     H14800   8.826   5.214  -0.004  1.3001  0.9924  2.4489
  110MOL0     H14801   9.148   5.201  -0.220  0.1965 -2.1912  0.4937
  110MOL0     H14802   9.042   5.187  -0.576 -1.2221 -2.2136  0.7714
  110MOL0     H14803   9.190   5.250  -0.489  0.8884 -1.3037 -0.5815
  110MOL0     H14804   9.242   5.031  -0.400 -0.8565  2.1889  0.2176
  110MOL0     H14805   9.094   4.954  -0.475 -0.1865  0.8975  2.5897
  110MOL0     H14806   9.353   4.933  -0.555  1.0339 -2.6270 -2.4266
  110MOL0     H14807   9.308   5.086  -0.644 -2.1575  1.1205 -0.8639
  110MOL0     H14808   9.179   4.813  -0.692  1.1482 -0.4907  1.6189
  110MOL0     H14809   9.271   4.905  -0.792 -1.7508  0.3578 -1.6927
  110MOL0     H14810   9.059   4.770  -0.880 -0.2151  0.9349 -1.0533
  110MOL0     H14811   8.840   4.663  -0.930  2.4202 -1.1394  1.7132
  110MOL0     H14812   8.365   4.560  -0.796 -0.5836 -0.0073  1.3136
  110MOL0     H14813   8.113   4.540  -0.861  0.9719 -0.7105  0.0325
  110MOL0     H14814   7.884   4.906  -0.857  1.0349  1.1761  0.2405
  110MOL0     H14815   7.924   4.922  -1.027 -3.1954  1.4095 -0.5430
  110MOL0     H14816   7.703   4.921  -1.007 -2.1681 -0.4628  0.4561
  110MOL0     H14817   7.735   4.773  -1.081 -0.6711  2.0154 -1.7805
  110MOL0     H14818   7.709   4.646  -0.854 -0.5057 -0.6351 -0.7250
  110MOL0     H14819   7.688   4.800  -0.774 -1.8426  1.3232 -0.7615
  110MOL0     H14820   7.502   4.678  -0.966 -2.6321 -2.1182  2.1942
  110MOL0     H14821   7.484   4.849  -0.893  3.5360  1.0795  0.6090
  110MOL0     H14822   7.495   4.575  -0.745  0.1229  0.5895  4.7907
  110MOL0     H14823   7.347   4.632  -0.815 -2.1755  2.9513  0.2564
  110MOL0     H14824   7.511   4.746  -0.593  1.4405  0.3837 -0.1469
  110MOL0     H14825   7.380   4.848  -0.653  2.9279  0.8174  3.4476
  110MOL0     H14826   7.313   4.572  -0.524  0.4443 -0.6091 -1.7191
  110MOL0     H14827   7.208   4.676  -0.621 -2.4223 -1.1349  1.5373
  110MOL0     H14828   7.289   4.880  -0.446  1.5714 -0.2083 -5.2715
  110MOL0     H14829   7.187   4.752  -0.383  1.0037 -0.1128 -0.2918
  110MOL0     H14830   8.135   4.966  -0.974 -2.3451 -0.1628  0.3829
  110MOL0     H14831   8.350   4.969  -0.863 -0.5754  0.3614  0.3358
  110MOL0     H14832   8.634   4.962  -0.706  0.6586  2.3979 -1.9165
  110MOL0     H14833   8.831   5.080  -0.672  0.0094 -0.6682  1.6141
  110MOL0     H14834   9.268   6.161   0.097 -0.7174  2.7618  1.0866
  110MOL0     H14835   9.375   6.376   0.137 -3.5265 -1.9446 -2.2481
  110MOL0     H14836   9.877   6.512   0.526 -0.8993 -2.3417 -0.9637
  110MOL0     H14837   9.997   6.703   0.539  0.1636 -0.7266 -1.0969
  110MOL0     H14838  10.091   6.908   0.556  0.3260 -1.6719 -3.9884
  110MOL0     H14839   9.916   6.935   0.589 -3.4702  4.8249 -1.1765
  110MOL0     H14840  10.130   7.132   0.487 -0.5115 -0.5809  0.7560
  110MOL0     H14841  10.068   7.134   0.646  0.5145  3.9011 -0.1687
  110MOL0     H14842   9.836   7.196   0.540 -1.7476  1.1379 -1.8957
  110MOL0     H14843   9.927   7.198   0.383 -0.4116  4.9534 -0.0912
  110MOL0     H14844  10.004   7.380   0.612  0.0927  2.5600 -1.0799
  110MOL0     H14845  10.049   7.397   0.443 -1.9567  1.9592 -1.0323
  110MOL0     H14846   9.682   7.580   0.386  0.5480  0.4928 -0.4232
  110MOL0     H14847   9.799   6.889   0.206 -1.2574  0.1034  0.4662
  110MOL0     H14848   9.522   6.648   0.225  0.2060  0.2981  0.5521
  110MOL0     H14849   9.602   6.787   0.134 -0.6000  0.9512  2.9126
  110MOL0     H14850   9.637   6.616   0.094  3.5683  0.3777  0.3781
  111MOL0     O14851   4.243   0.850   2.295  0.4779 -0.2448  0.5663
  111MOL0     C14852   4.353   0.837   2.345 -0.7249  1.4796  0.0693
  111MOL0     O14853   4.473   0.824   2.279  0.4205  0.3549  0.7115
  111MOL0     C14854   4.468   0.841   2.149 -0.0932  0.4103 -0.5511
  111MOL0     C14855   4.399   0.945   2.086  0.6131  0.2965  0.6606
  111MOL0     C14856   4.414   0.966   1.955  0.0215 -0.6400  0.5691
  111MOL0     C14857   4.487   0.885   1.871  0.0079  0.1326 -0.2290
  111MOL0     O14858   4.516   0.893   1.736  0.3922  0.2477  0.1564
  111MOL0     C14859   4.451   0.996   1.670 -0.1164 -0.4014 -0.5503
  111MOL0     C14860   4.495   0.965   1.518  0.1686  0.5916 -0.0388
  111MOL0     C14861   4.424   1.044   1.414 -0.0559 -0.1751 -0.5708
  111MOL0     C14862   4.522   1.086   1.297  0.2338  0.3353  0.0071
  111MOL0     C14863   4.442   1.131   1.174 -0.0395 -0.0383  0.0851
  111MOL0     C14864   4.528   1.183   1.060  0.1863  1.1634 -0.0344
  111MOL0     C14865   4.461   1.218   0.925  0.4503 -0.3217  0.6256
  111MOL0     C14866   4.357   1.338   0.919  0.1907 -0.0784 -1.1648
  111MOL0     N14867   4.408   1.459   0.980  0.1273 -0.0400  0.2837
  111MOL0     C14868   4.417   1.484   1.117 -0.1752 -0.4538 -0.0582
  111MOL0     C14869   4.493   1.594   1.139 -0.4092  0.1851 -0.5280
  111MOL0     C14870   4.516   1.668   1.268  1.2660  0.8599 -0.0002
  111MOL0     C14871   4.647   1.679   1.324 -0.7733 -0.2548 -1.0776
  111MOL0     C14872   4.751   1.747   1.233 -0.2353 -0.5588  0.0720
  111MOL0     C14873   4.734   1.897   1.229 -0.3534  0.5437  1.2025
  111MOL0     O14874   4.824   1.961   1.132  1.1826  0.7101 -0.5579
  111MOL0     C14875   4.814   2.101   1.137 -0.5359  0.1473  0.5349
  111MOL0     C14876   4.799   2.152   1.010  0.7371 -0.4858 -0.5208
  111MOL0     C14877   4.809   2.287   0.994  0.1894  0.3944 -0.0762
  111MOL0     C14878   4.815   2.376   1.097  0.1126  0.6507 -0.7748
  111MOL0     C14879   4.827   2.523   1.080 -0.6956  0.7609  0.5155
  111MOL0     O14880   4.840   2.604   1.198 -0.6830  0.6198 -0.5421
  111MOL0     C14881   4.863   2.739   1.175 -0.4243 -0.0338 -0.7709
  111MOL0     C14882   4.981   2.777   1.118 -1.2043 -0.4644  0.8035
  111MOL0     C14883   5.016   2.914   1.097 -0.4076 -0.2569  1.0264
  111MOL0     C14884   4.922   3.009   1.134 -0.6166 -0.3928 -0.6666
  111MOL0     O14885   4.955   3.137   1.106 -0.0271 -0.1682 -0.7912
  111MOL0     C14886   4.861   3.239   1.107 -0.1228  0.8977 -0.1380
  111MOL0     C14887   4.931   3.361   1.050 -0.0869  0.0886  0.3614
  111MOL0     C14888   5.037   3.429   1.140 -0.1829 -0.2060 -1.0539
  111MOL0     C14889   5.032   3.585   1.120  0.2176  0.4583 -0.7051
  111MOL0     C14890   4.893   3.650   1.148  0.1130  0.2743  0.2721
  111MOL0     C14891   4.914   3.777   1.224  0.6320 -0.9213 -0.3115
  111MOL0     C14892   4.967   3.894   1.133 -0.3783 -0.1032 -0.6125
  111MOL0     C14893   5.112   3.906   1.116 -0.5986 -0.6205  0.2644
  111MOL0    Cl14894   5.196   3.914   1.278 -0.2658  0.4658  0.1759
  111MOL0     C14895   4.799   2.972   1.201  0.2148  0.8466  0.5049
  111MOL0     C14896   4.769   2.837   1.215 -0.6119 -0.3167 -0.4138
  111MOL0     O14897   4.822   2.569   0.962  0.2962 -0.2877  0.1930
  111MOL0     C14898   4.833   2.318   1.221 -0.5181  0.5166  0.1000
  111MOL0     C14899   4.837   2.179   1.245  0.0904 -0.2979  1.1174
  111MOL0     N14900   4.534   1.629   1.011  0.4901 -0.5874 -0.1121
  111MOL0     N14901   4.500   1.545   0.921 -0.2484  0.5311  0.6501
  111MOL0     C14902   4.560   0.777   1.933  0.2721 -0.8809  1.2153
  111MOL0     C14903   4.541   0.753   2.062  0.0474 -0.0197 -0.0867
  111MOL0     C14904   4.356   0.842   2.497  0.0784  0.4160  1.4041
  111MOL0     C14905   4.455   0.923   2.556  0.2430  0.2181 -0.4505
  111MOL0     C14906   4.479   0.910   2.691  0.2957  0.0671  0.2630
  111MOL0     C14907   4.393   0.837   2.772  0.0705  0.8224  0.5459
  111MOL0     O14908   4.422   0.831   2.909 -1.3287  0.1727 -0.1283
  111MOL0     C14909   4.344   0.751   3.003  0.4898  0.1477 -0.0116
  111MOL0     C14910   4.405   0.734   3.141 -0.1146 -0.5082 -0.7053
  111MOL0     C14911   4.535   0.663   3.135 -0.4676 -0.1854  0.4481
  111MOL0     C14912   4.649   0.733   3.213  0.5243  0.3434 -0.1086
  111MOL0     C14913   4.611   0.752   3.352 -0.2233  0.1253 -0.7503
  111MOL0     C14914   4.579   0.763   3.466 -0.0562  0.5895 -0.4752
  111MOL0     C14915   4.283   0.777   2.718 -0.5141  0.0735  0.1335
  111MOL0     C14916   4.258   0.776   2.579 -0.8166 -0.0648  0.0122
  111MOL0     C14917   4.140   0.704   2.523 -0.6650  0.4725  0.3088
  111MOL0     H14918   4.344   1.012   2.152  0.5677 -0.3584  1.3053
  111MOL0     H14919   4.352   1.042   1.908  0.3762 -0.6932  0.0017
  111MOL0     H14920   4.342   0.989   1.673 -0.1476  0.4805  1.4916
  111MOL0     H14921   4.491   1.094   1.697 -0.6641  0.4348 -2.5273
  111MOL0     H14922   4.470   0.859   1.508  1.0468  0.4769 -1.3103
  111MOL0     H14923   4.602   0.972   1.498 -0.1536  0.9970 -1.8000
  111MOL0     H14924   4.370   1.130   1.455  1.3630  0.9048 -0.9099
  111MOL0     H14925   4.355   0.975   1.365  1.2983 -1.7152 -0.3818
  111MOL0     H14926   4.584   1.174   1.317  0.7513  0.0983 -0.5486
  111MOL0     H14927   4.593   1.008   1.271 -1.6475 -1.6785  0.6058
  111MOL0     H14928   4.385   1.043   1.141  2.6203 -2.2407  0.9754
  111MOL0     H14929   4.375   1.213   1.201  1.6719  2.2238 -2.1087
  111MOL0     H14930   4.579   1.267   1.108  0.2912 -0.2620  2.5500
  111MOL0     H14931   4.602   1.109   1.029  0.6895  1.2823  0.8630
  111MOL0     H14932   4.401   1.137   0.882  1.0085 -0.6072  0.3714
  111MOL0     H14933   4.541   1.225   0.851  0.8974 -0.8235  1.0498
  111MOL0     H14934   4.342   1.372   0.816 -1.7696  3.3576  0.0739
  111MOL0     H14935   4.258   1.311   0.957  0.9286 -0.4016  0.6292
  111MOL0     H14936   4.378   1.424   1.199  1.2913  1.7778  2.4339
  111MOL0     H14937   4.465   1.765   1.272 -0.3827  0.0803 -0.7983
  111MOL0     H14938   4.449   1.613   1.335 -0.4817  0.2607 -2.0952
  111MOL0     H14939   4.651   1.723   1.424  2.5750 -0.8369 -0.8270
  111MOL0     H14940   4.682   1.575   1.332 -0.1601 -0.0559 -1.1468
  111MOL0     H14941   4.763   1.702   1.134  1.7146 -3.5049  1.4985
  111MOL0     H14942   4.848   1.720   1.275 -1.2642 -1.7396  1.7970
  111MOL0     H14943   4.743   1.929   1.333 -3.3422 -0.9278  2.0436
  111MOL0     H14944   4.631   1.925   1.203  0.6562  1.3370 -2.5591
  111MOL0     H14945   4.763   2.093   0.927  1.2030 -0.2686 -0.8828
  111MOL0     H14946   4.781   2.322   0.895 -0.6948  0.3683  0.1640
  111MOL0     H14947   5.043   2.695   1.086  2.8226  1.8114  2.0412
  111MOL0     H14948   5.114   2.940   1.059 -0.5593 -3.7704 -2.3642
  111MOL0     H14949   4.787   3.223   1.028  1.0215  0.0125 -1.0813
  111MOL0     H14950   4.812   3.260   1.202 -0.1493  3.9521 -0.7345
  111MOL0     H14951   4.974   3.350   0.950  0.9748  0.9200  0.7042
  111MOL0     H14952   4.848   3.429   1.027  0.8671  0.6160 -1.7585
  111MOL0     H14953   5.021   3.407   1.246 -0.9967 -0.1167 -1.1546
  111MOL0     H14954   5.133   3.391   1.104  0.6753  0.7108  0.1899
  111MOL0     H14955   5.060   3.607   1.016  0.6375  0.1165 -0.6650
  111MOL0     H14956   5.106   3.629   1.187 -0.9951 -2.2384  2.6771
  111MOL0     H14957   4.832   3.583   1.209  1.6936 -1.3421  0.1329
  111MOL0     H14958   4.846   3.656   1.049  3.2122  1.1280 -1.2816
  111MOL0     H14959   4.818   3.812   1.264  0.7670 -0.7713 -0.1193
  111MOL0     H14960   4.984   3.763   1.307  1.6835  1.6851 -0.6530
  111MOL0     H14961   4.927   3.983   1.181 -1.3834 -0.1635 -1.3110
  111MOL0     H14962   4.917   3.905   1.036 -0.5260  0.7772 -0.4371
  111MOL0     H14963   5.150   3.822   1.056  1.2348 -2.3661  3.5898
  111MOL0     H14964   5.141   3.995   1.060  2.5379  0.2515  2.9480
  111MOL0     H14965   4.729   3.040   1.249 -0.6007  1.8696 -2.0034
  111MOL0     H14966   4.675   2.804   1.259 -0.7950 -1.9671 -1.9193
  111MOL0     H14967   4.856   2.380   1.307  0.7137 -1.7558  1.4962
  111MOL0     H14968   4.843   2.139   1.346 -0.0801 -2.2706  0.3839
  111MOL0     H14969   4.634   0.712   1.887 -0.8508 -3.3583  2.7219
  111MOL0     H14970   4.583   0.663   2.106 -0.5487 -1.1048 -1.6426
  111MOL0     H14971   4.532   0.976   2.501 -1.4266  1.4093 -1.7782
  111MOL0     H14972   4.566   0.955   2.738  1.3484 -3.4100  1.9983
  111MOL0     H14973   4.323   0.648   2.973 -2.3615  0.8637 -0.7073
  111MOL0     H14974   4.251   0.809   3.007 -2.0461 -3.4427 -1.7528
  111MOL0     H14975   4.341   0.683   3.214 -0.4548  1.2864  0.3163
  111MOL0     H14976   4.423   0.837   3.175 -1.0084  0.2942 -2.5471
  111MOL0     H14977   4.558   0.644   3.029 -2.6442 -0.6508  0.0052
  111MOL0     H14978   4.520   0.571   3.191 -0.5076 -0.6306 -0.2765
  111MOL0     H14979   4.745   0.680   3.207  0.4731 -0.1649  2.4071
  111MOL0     H14980   4.663   0.833   3.169 -1.7207  2.1205  2.9011
  111MOL0     H14981   4.549   0.776   3.568 -0.2561 -2.6611 -0.0256
  111MOL0     H14982   4.220   0.723   2.787 -0.7579  0.3584  0.1319
  111MOL0     H14983   4.076   0.665   2.602  2.1791 -3.0596  1.1273
  111MOL0     H14984   4.073   0.771   2.467  0.0613  0.1833 -0.9509
  111MOL0     H14985   4.171   0.615   2.468 -1.1040 -0.5781  1.7108
  112MOL0     O14986   8.008   2.988   6.279 -0.5124 -0.0247 -0.0213
  112MOL0     C14987   7.911   2.958   6.337 -0.0719 -0.3369  0.3243
  112MOL0     O14988   7.792   2.912   6.275  1.3395  0.3896  0.2089
  112MOL0     C14989   7.781   2.842   6.155 -0.1167  0.5335  0.4202
  112MOL0     C14990   7.889   2.760   6.107 -0.5747  0.4718  0.0955
  112MOL0     C14991   7.867   2.688   5.981 -0.4903 -0.6891 -0.3347
  112MOL0     C14992   7.754   2.701   5.913  0.5963  0.9386  0.7441
  112MOL0     O14993   7.756   2.621   5.802  0.9655  0.7000  0.3646
  112MOL0     C14994   7.677   2.653   5.683 -0.5743  0.0722 -0.6920
  112MOL0     C14995   7.552   2.572   5.705 -0.0184  0.3636 -0.9743
  112MOL0     C14996   7.455   2.540   5.592 -0.2763 -0.3168  0.7321
  112MOL0     C14997   7.519   2.445   5.477 -0.0204 -0.2832  0.2108
  112MOL0     C14998   7.607   2.331   5.525  1.0508 -0.4248  0.8729
  112MOL0     C14999   7.676   2.265   5.408 -0.5497 -0.1403 -0.1347
  112MOL0     C15000   7.746   2.139   5.450  0.1683 -0.2823  0.8382
  112MOL0     C15001   7.881   2.163   5.517  0.0967 -0.2363 -1.2047
  112MOL0     N15002   7.945   2.037   5.560  0.8473  0.3328 -0.2551
  112MOL0     C15003   7.956   1.918   5.499  0.1892  0.1029  0.2649
  112MOL0     C15004   8.006   1.823   5.585  0.8629 -0.1680  1.1200
  112MOL0     C15005   8.041   1.679   5.559  1.1225 -0.9108 -0.3241
  112MOL0     C15006   7.924   1.590   5.615 -0.7915 -0.4950 -0.8973
  112MOL0     C15007   7.788   1.637   5.549 -1.2198  0.2498 -0.1865
  112MOL0     C15008   7.686   1.533   5.582  0.0623 -0.0546 -0.0535
  112MOL0     O15009   7.698   1.417   5.505 -0.8803  0.3966  0.2514
  112MOL0     C15010   7.604   1.320   5.517 -0.0118 -0.4370  0.0419
  112MOL0     C15011   7.530   1.305   5.637 -0.2928 -0.1691  0.0124
  112MOL0     C15012   7.457   1.190   5.656  0.5123  0.1812 -0.0484
  112MOL0     C15013   7.432   1.105   5.549 -0.5346  0.4893  0.0167
  112MOL0     C15014   7.357   0.979   5.569  0.1610  0.6829  0.3793
  112MOL0     O15015   7.302   0.912   5.460  0.8448 -0.2939  0.3263
  112MOL0     C15016   7.279   0.775   5.467 -0.3593 -1.0068 -0.0544
  112MOL0     C15017   7.141   0.730   5.447 -0.5647  0.3370  0.2876
  112MOL0     C15018   7.115   0.599   5.442 -0.3871 -0.3212  0.1598
  112MOL0     C15019   7.213   0.502   5.452  0.1101  1.0043 -0.8025
  112MOL0     O15020   7.181   0.365   5.455  0.0709 -0.2762  1.1565
  112MOL0     C15021   7.270   0.283   5.379  0.0319  0.4423  0.1081
  112MOL0     C15022   7.252   0.133   5.393  0.1437  0.2119  0.6534
  112MOL0     C15023   7.350   0.052   5.303 -0.2292 -0.8087 -0.4147
  112MOL0     C15024   7.314  -0.096   5.299  0.4013  0.4145  0.1474
  112MOL0     C15025   7.406  -0.166   5.201 -0.4710 -0.9644 -0.2406
  112MOL0     C15026   7.399  -0.313   5.220  0.2921  0.8040  0.5820
  112MOL0     C15027   7.279  -0.384   5.156 -0.5374  0.0361 -0.2169
  112MOL0     C15028   7.298  -0.535   5.164  0.1352 -0.9406 -0.3224
  112MOL0    Cl15029   7.137  -0.605   5.171  0.1259 -0.1555  0.5709
  112MOL0     C15030   7.346   0.554   5.486  0.5457  0.0058  0.4333
  112MOL0     C15031   7.379   0.687   5.485  0.0717 -0.9463  0.3084
  112MOL0     O15032   7.340   0.936   5.685 -0.1003 -0.8822 -0.0649
  112MOL0     C15033   7.494   1.130   5.427  0.4859  1.7164 -0.0484
  112MOL0     C15034   7.590   1.224   5.415 -0.2695  0.0409 -0.3533
  112MOL0     N15035   8.011   1.882   5.707 -0.7189  0.2605 -0.6320
  112MOL0     N15036   7.981   2.005   5.692 -0.0986  0.4580  0.1281
  112MOL0     C15037   7.652   2.796   5.951 -0.2557 -0.3185  0.4467
  112MOL0     C15038   7.668   2.853   6.070 -0.1249  0.4046  0.2286
  112MOL0     C15039   7.903   2.995   6.479 -0.3529  0.3437  0.3184
  112MOL0     C15040   7.796   2.947   6.551 -0.4873 -0.5362 -0.1511
  112MOL0     C15041   7.771   2.988   6.678 -0.7823  0.9150  0.1911
  112MOL0     C15042   7.856   3.077   6.748  0.1302 -0.0688  0.2711
  112MOL0     O15043   7.827   3.096   6.882  0.7322 -0.7398  0.4133
  112MOL0     C15044   7.940   3.110   6.969  0.2490 -0.1973 -1.0565
  112MOL0     C15045   7.975   3.257   6.985  0.0988 -0.0037  1.5258
  112MOL0     C15046   7.867   3.340   7.053 -0.4153  0.0257 -0.6995
  112MOL0     C15047   7.907   3.486   7.074  0.0009 -0.3515 -0.3809
  112MOL0     C15048   8.035   3.498   7.138 -0.3650 -0.0378 -0.5164
  112MOL0     C15049   8.143   3.506   7.196  0.4607  0.3172  0.0879
  112MOL0     C15050   7.966   3.121   6.675 -0.0680 -0.4926 -0.3944
  112MOL0     C15051   7.994   3.086   6.546 -0.0811  0.0365  0.2551
  112MOL0     C15052   8.120   3.151   6.479 -0.1994  0.7170  0.3581
  112MOL0     H15053   7.972   2.750   6.175 -0.9766  1.4623  0.7597
  112MOL0     H15054   7.940   2.616   5.945 -0.1595 -2.0328  2.6943
  112MOL0     H15055   7.662   2.761   5.671 -2.0702  0.0625  0.8050
  112MOL0     H15056   7.723   2.617   5.590 -1.7245  1.6696 -1.9481
  112MOL0     H15057   7.487   2.621   5.777 -1.7726 -3.6134  0.4796
  112MOL0     H15058   7.574   2.478   5.756  0.0044  2.1639  2.6324
  112MOL0     H15059   7.403   2.614   5.531 -1.6690 -1.6986  0.1718
  112MOL0     H15060   7.379   2.481   5.645 -0.7080  0.5116  1.0473
  112MOL0     H15061   7.439   2.394   5.423 -0.9601 -0.6387  1.8576
  112MOL0     H15062   7.576   2.515   5.415  2.4816 -1.2868  1.2532
  112MOL0     H15063   7.680   2.377   5.592 -1.7714  1.0157  3.1749
  112MOL0     H15064   7.558   2.251   5.582  1.7748 -1.2959  0.3070
  112MOL0     H15065   7.600   2.246   5.332 -0.8409  3.2055 -0.8434
  112MOL0     H15066   7.753   2.330   5.365  1.4625 -2.2855 -0.0032
  112MOL0     H15067   7.778   2.084   5.360 -0.4749 -1.5975  1.3807
  112MOL0     H15068   7.683   2.074   5.512 -0.7841  1.8690  2.2516
  112MOL0     H15069   7.948   2.231   5.465 -1.0280  0.7832 -1.3836
  112MOL0     H15070   7.856   2.200   5.617  1.2519  0.4779 -1.1679
  112MOL0     H15071   7.938   1.911   5.392  0.0176 -0.1804  0.3114
  112MOL0     H15072   8.057   1.653   5.454  0.0718  0.9943 -0.9906
  112MOL0     H15073   8.128   1.641   5.614  0.5836 -0.6002  0.7644
  112MOL0     H15074   7.956   1.491   5.584  3.5266  0.1513  0.7790
  112MOL0     H15075   7.917   1.596   5.724 -1.3085 -1.6337 -0.8605
  112MOL0     H15076   7.800   1.648   5.441  0.0577  0.7400 -0.0157
  112MOL0     H15077   7.753   1.726   5.601  0.2169  1.3932 -1.0903
  112MOL0     H15078   7.585   1.572   5.574 -0.7360 -1.0445  3.2847
  112MOL0     H15079   7.712   1.498   5.683  0.6786 -2.7656 -1.0575
  112MOL0     H15080   7.558   1.363   5.725  0.5132 -1.4966  0.6524
  112MOL0     H15081   7.403   1.175   5.748 -2.7094 -2.2946 -2.1334
  112MOL0     H15082   7.071   0.810   5.425  0.0222  0.3012 -1.8792
  112MOL0     H15083   7.015   0.568   5.412 -0.0481  0.5845 -2.0984
  112MOL0     H15084   7.265   0.311   5.274 -0.1246  0.6743  0.1771
  112MOL0     H15085   7.374   0.284   5.415  0.0642 -2.3404  0.3203
  112MOL0     H15086   7.284   0.116   5.496  1.8321  0.0521  0.1387
  112MOL0     H15087   7.151   0.092   5.379 -0.3262  1.8438 -1.1750
  112MOL0     H15088   7.350   0.095   5.202 -4.5183  0.5179 -0.0562
  112MOL0     H15089   7.451   0.077   5.338 -0.0211 -0.9003 -0.9317
  112MOL0     H15090   7.214  -0.111   5.258  0.6922 -3.2157  0.4889
  112MOL0     H15091   7.320  -0.143   5.397  1.4504 -0.6896 -0.4169
  112MOL0     H15092   7.510  -0.144   5.225 -0.6840 -2.3172  2.2177
  112MOL0     H15093   7.374  -0.136   5.101 -1.9003 -2.1787 -0.1873
  112MOL0     H15094   7.493  -0.356   5.186 -0.5489 -2.3637  1.8660
  112MOL0     H15095   7.402  -0.330   5.328 -2.3088  1.9118  0.9015
  112MOL0     H15096   7.267  -0.367   5.049  0.1232  0.2436 -0.2622
  112MOL0     H15097   7.185  -0.362   5.207 -1.0868 -3.5836  0.6066
  112MOL0     H15098   7.361  -0.572   5.083  1.2084  1.3126 -0.5786
  112MOL0     H15099   7.351  -0.556   5.258 -0.2022 -0.4821 -0.0279
  112MOL0     H15100   7.418   0.478   5.513 -0.7934 -1.8409 -1.0000
  112MOL0     H15101   7.480   0.722   5.503  0.7422 -1.6548 -1.7024
  112MOL0     H15102   7.471   1.065   5.343 -1.3829  2.3946 -0.1183
  112MOL0     H15103   7.637   1.233   5.318  1.0897  0.1632  0.2939
  112MOL0     H15104   7.565   2.820   5.891  0.7545 -0.1686 -1.0070
  112MOL0     H15105   7.579   2.905   6.101 -1.5312 -1.8068  0.1050
  112MOL0     H15106   7.735   2.866   6.512  0.3880 -1.4124  0.2530
  112MOL0     H15107   7.687   2.946   6.731 -1.1780 -0.4477 -1.4409
  112MOL0     H15108   8.023   3.049   6.931  1.8454 -1.9081  4.3296
  112MOL0     H15109   7.932   3.077   7.073  4.6284  5.7780  1.7455
  112MOL0     H15110   7.990   3.301   6.885 -1.0667 -1.4442  0.6694
  112MOL0     H15111   8.069   3.278   7.036  0.1366  2.0352  0.7403
  112MOL0     H15112   7.856   3.308   7.157 -0.0778  1.1792 -0.3005
  112MOL0     H15113   7.769   3.329   7.005 -1.5328  1.6006  1.1202
  112MOL0     H15114   7.907   3.528   6.973 -0.5725  1.6809  0.4021
  112MOL0     H15115   7.825   3.531   7.131 -0.3569  0.8114 -1.7546
  112MOL0     H15116   8.235   3.512   7.250  1.5825  1.0699 -1.8119
  112MOL0     H15117   8.034   3.191   6.723  1.8953 -1.1494 -2.0875
  112MOL0     H15118   8.075   3.224   6.411  1.2729 -0.3706 -1.8949
  112MOL0     H15119   8.196   3.196   6.543  0.8600  0.8354 -0.9528
  112MOL0     H15120   8.182   3.075   6.430  0.4740  1.8211 -0.5479
  113MOL0     O15121   7.646   1.071   7.794 -0.3168 -0.4031 -0.2060
  113MOL0     C15122   7.748   1.081   7.730  0.9153 -0.3909  0.4913
  113MOL0     O15123   7.810   1.200   7.702 -0.0944 -0.5406 -1.0545
  113MOL0     C15124   7.733   1.317   7.746  0.8673  0.2768 -0.6050
  113MOL0     C15125   7.757   1.383   7.867 -0.3526 -0.0350 -0.0484
  113MOL0     C15126   7.676   1.479   7.913  0.3193  0.4833 -0.0317
  113MOL0     C15127   7.569   1.530   7.831  0.4538  0.0018  0.1150
  113MOL0     O15128   7.475   1.630   7.878  0.1998  0.7855  0.0972
  113MOL0     C15129   7.480   1.751   7.815  0.8391 -1.2551  0.0365
  113MOL0     C15130   7.425   1.858   7.922  0.0484  0.0283 -0.2975
  113MOL0     C15131   7.286   1.821   7.974 -0.2514 -0.3279 -0.1165
  113MOL0     C15132   7.231   1.920   8.073  0.5790 -0.2890  0.3004
  113MOL0     C15133   7.107   1.872   8.140  1.3453 -0.7073 -0.3795
  113MOL0     C15134   7.072   1.962   8.254 -0.6640  0.4677 -0.2194
  113MOL0     C15135   6.935   1.935   8.304  0.0555 -0.7880  0.2905
  113MOL0     C15136   6.921   1.987   8.450 -0.0114 -0.1620 -1.0297
  113MOL0     N15137   6.787   2.052   8.479 -0.1924 -0.1439  0.6147
  113MOL0     C15138   6.664   2.001   8.510 -0.4989 -0.2614 -0.0106
  113MOL0     C15139   6.581   2.107   8.509  0.6226  0.2512 -0.3426
  113MOL0     C15140   6.437   2.113   8.551  0.2117 -0.9047  0.4827
  113MOL0     C15141   6.418   2.129   8.696  0.6883  0.2516 -1.0054
  113MOL0     C15142   6.281   2.182   8.722 -0.4993  1.6321  0.6997
  113MOL0     C15143   6.219   2.111   8.848 -0.6359  0.6862  0.9532
  113MOL0     O15144   6.313   2.094   8.959  0.2256 -0.3052  0.1891
  113MOL0     C15145   6.252   2.110   9.077  1.0784 -0.3357 -0.6128
  113MOL0     C15146   6.241   2.233   9.139 -0.6605  0.4549 -0.3424
  113MOL0     C15147   6.163   2.252   9.253  0.0148 -0.0265 -0.4424
  113MOL0     C15148   6.098   2.138   9.308  0.7460  1.2631  0.2364
  113MOL0     C15149   5.995   2.150   9.413  0.4412 -0.0794  0.4257
  113MOL0     O15150   5.911   2.042   9.438 -0.2521  0.1463 -0.7578
  113MOL0     C15151   5.819   2.073   9.545  0.4020 -0.3421  1.6035
  113MOL0     C15152   5.692   2.122   9.510  0.7531 -0.5582  0.5407
  113MOL0     C15153   5.593   2.142   9.615  0.4265  0.2056 -0.0338
  113MOL0     C15154   5.622   2.108   9.745 -0.2479 -0.0935  0.6448
  113MOL0     O15155   5.539   2.104   9.858 -0.8744  0.1824  0.0059
  113MOL0     C15156   5.399   2.114   9.849 -0.6823 -0.2852 -0.5800
  113MOL0     C15157   5.318   2.075   9.975 -0.1035 -0.7525 -0.9334
  113MOL0     C15158   5.374   2.146  10.100 -0.3739 -0.5079 -0.2499
  113MOL0     C15159   5.344   2.047  10.215 -0.0681  0.7115 -0.1964
  113MOL0     C15160   5.384   2.110  10.348  0.4944  0.1308 -0.3276
  113MOL0     C15161   5.372   2.009  10.454  0.7875  0.3030 -0.1139
  113MOL0     C15162   5.386   2.049  10.606 -1.1556 -0.4759  0.2802
  113MOL0     C15163   5.275   1.999  10.691 -0.4719 -0.8983 -1.0210
  113MOL0    Cl15164   5.238   1.827  10.685 -0.3361 -0.3548 -0.1782
  113MOL0     C15165   5.756   2.070   9.772  0.9248  0.0652  0.1565
  113MOL0     C15166   5.849   2.048   9.678 -0.1626  1.3619  0.3932
  113MOL0     O15167   5.983   2.262   9.464  1.1045  0.0307  0.0865
  113MOL0     C15168   6.096   2.016   9.236  0.3982  0.4514 -0.4640
  113MOL0     C15169   6.176   2.006   9.125 -0.0965  1.2740 -0.8464
  113MOL0     N15170   6.660   2.219   8.495  0.2992 -0.8609  0.8425
  113MOL0     N15171   6.779   2.191   8.482 -0.4648 -0.3515 -0.3147
  113MOL0     C15172   7.553   1.478   7.701 -0.1034  1.0615  0.3079
  113MOL0     C15173   7.632   1.367   7.667  0.2669 -1.3604  0.3718
  113MOL0     C15174   7.818   0.956   7.668  0.8980 -0.1895  0.2064
  113MOL0     C15175   7.912   0.967   7.563 -1.0792  0.0909 -0.0948
  113MOL0     C15176   7.984   0.858   7.522  0.1617 -0.4598  0.4300
  113MOL0     C15177   7.949   0.725   7.558  0.2071  0.9258 -0.4889
  113MOL0     O15178   8.012   0.615   7.491  1.0825  0.3978 -0.0186
  113MOL0     C15179   7.957   0.492   7.517  0.2884 -0.4164 -0.1970
  113MOL0     C15180   8.037   0.401   7.426  0.4048 -0.1803  0.7062
  113MOL0     C15181   7.985   0.408   7.285  0.1052 -0.2447 -0.2703
  113MOL0     C15182   7.874   0.301   7.250 -0.2188 -0.0908 -0.8901
  113MOL0     C15183   7.941   0.174   7.234 -1.2726  0.2915  0.1684
  113MOL0     C15184   7.989   0.062   7.218 -0.8170 -0.5333  0.2286
  113MOL0     C15185   7.853   0.713   7.658  0.2878  0.0067 -0.1229
  113MOL0     C15186   7.787   0.826   7.712 -0.0789  1.4402  0.1428
  113MOL0     C15187   7.718   0.800   7.848  0.3445  0.5478  0.7149
  113MOL0     H15188   7.832   1.335   7.928  0.7414 -0.3487 -1.6093
  113MOL0     H15189   7.692   1.513   8.015 -1.0272 -1.6695  0.9709
  113MOL0     H15190   7.581   1.781   7.783  0.3761 -0.2063 -0.5176
  113MOL0     H15191   7.418   1.752   7.725 -1.7087  1.2874  1.6240
  113MOL0     H15192   7.409   1.954   7.872 -2.3030 -1.4491 -2.6266
  113MOL0     H15193   7.493   1.860   8.009 -0.4220 -0.0012  0.0725
  113MOL0     H15194   7.292   1.730   8.034 -0.0857  1.0664  2.0960
  113MOL0     H15195   7.217   1.821   7.889  0.7626  1.4110 -1.0019
  113MOL0     H15196   7.303   1.952   8.149 -0.9663 -1.5153  2.3863
  113MOL0     H15197   7.202   2.006   8.012 -2.7014 -1.6777 -0.3326
  113MOL0     H15198   7.024   1.893   8.072  0.7350 -1.1037  0.2447
  113MOL0     H15199   7.111   1.768   8.172  1.8570 -0.1334  1.5746
  113MOL0     H15200   7.135   1.931   8.338  1.5995  4.0837 -0.3570
  113MOL0     H15201   7.086   2.068   8.231 -0.8528  0.6171  0.3243
  113MOL0     H15202   6.908   1.830   8.286 -3.1800  0.1530 -1.1367
  113MOL0     H15203   6.873   1.998   8.240  1.0109 -0.5252 -0.3978
  113MOL0     H15204   6.932   1.911   8.528 -0.2721  0.9911  0.1739
  113MOL0     H15205   6.993   2.067   8.472 -0.6601 -0.0203  0.8262
  113MOL0     H15206   6.633   1.898   8.523  0.5315 -0.5800 -0.0080
  113MOL0     H15207   6.397   2.192   8.487 -0.1374 -2.4703 -1.3378
  113MOL0     H15208   6.386   2.021   8.522 -1.7011 -1.0194  3.7743
  113MOL0     H15209   6.426   2.030   8.741 -1.2658 -0.3253 -1.8224
  113MOL0     H15210   6.497   2.196   8.733 -0.8951  0.6021  2.0903
  113MOL0     H15211   6.211   2.152   8.643 -1.8155 -0.9153  2.6705
  113MOL0     H15212   6.287   2.291   8.730 -0.8784  1.7511 -0.5436
  113MOL0     H15213   6.186   2.013   8.813  2.7444 -0.5129  0.7702
  113MOL0     H15214   6.138   2.181   8.872 -1.5769  0.0012 -0.1093
  113MOL0     H15215   6.294   2.318   9.096  0.5911 -0.8258 -1.4380
  113MOL0     H15216   6.154   2.353   9.290  1.8228  2.3953 -5.7065
  113MOL0     H15217   5.675   2.154   9.408 -2.0771  1.8824  1.6175
  113MOL0     H15218   5.493   2.173   9.586  0.1737 -1.4896 -1.1233
  113MOL0     H15219   5.369   2.218   9.832 -2.2604 -0.5014  0.6670
  113MOL0     H15220   5.354   2.048   9.776 -1.2032 -1.0255  0.3881
  113MOL0     H15221   5.219   2.117   9.958  0.6440  2.6940  1.8652
  113MOL0     H15222   5.309   1.967   9.990 -0.2686 -0.6382 -0.1117
  113MOL0     H15223   5.481   2.166  10.101 -0.6849  1.3658  1.3838
  113MOL0     H15224   5.322   2.240  10.119  1.5085 -0.0241  3.5066
  113MOL0     H15225   5.391   1.951  10.194 -1.4457 -0.2128  0.8263
  113MOL0     H15226   5.236   2.034  10.225 -0.0758  1.1717  0.3886
  113MOL0     H15227   5.314   2.193  10.363  0.4674  0.4067 -1.8142
  113MOL0     H15228   5.487   2.148  10.345  0.9407 -0.9307  0.6575
  113MOL0     H15229   5.279   1.951  10.444  1.0916 -0.1393 -0.3694
  113MOL0     H15230   5.452   1.938  10.434  1.2979 -0.1917  3.0805
  113MOL0     H15231   5.399   2.157  10.613 -4.2486 -0.1234  2.6655
  113MOL0     H15232   5.480   2.004  10.640 -1.0649  0.0754  0.7854
  113MOL0     H15233   5.294   2.033  10.793 -0.1866 -1.6061 -0.8286
  113MOL0     H15234   5.181   2.039  10.654 -0.4792  1.5329  1.3159
  113MOL0     H15235   5.770   2.035   9.874  0.2366 -0.3983  0.0980
  113MOL0     H15236   5.948   2.005   9.694 -0.1525  1.6059  1.0071
  113MOL0     H15237   6.044   1.929   9.275  3.3552 -0.4282  1.8788
  113MOL0     H15238   6.180   1.904   9.088 -2.1404  0.5325  0.7701
  113MOL0     H15239   7.468   1.503   7.639 -2.4115 -1.3575  2.2348
  113MOL0     H15240   7.615   1.329   7.567 -1.4269  1.4776 -0.5325
  113MOL0     H15241   7.935   1.061   7.514  1.4459 -0.8204 -0.8481
  113MOL0     H15242   8.062   0.874   7.448  0.9832 -3.9499  0.3650
  113MOL0     H15243   7.847   0.494   7.513  0.2794  0.6227  0.2958
  113MOL0     H15244   7.980   0.459   7.618 -0.8092 -2.2299 -0.4837
  113MOL0     H15245   8.033   0.297   7.460 -0.2905 -0.4015 -0.0287
  113MOL0     H15246   8.145   0.414   7.427  0.5211 -1.1276  0.8179
  113MOL0     H15247   8.057   0.405   7.202  0.7967 -1.6964  0.3363
  113MOL0     H15248   7.924   0.498   7.283  0.5134  0.0921  1.3510
  113MOL0     H15249   7.806   0.301   7.336  0.7152  1.1748 -0.1242
  113MOL0     H15250   7.817   0.337   7.163 -0.0340 -0.2915 -1.0957
  113MOL0     H15251   8.019  -0.040   7.201 -1.0584 -0.9661  2.1581
  113MOL0     H15252   7.843   0.612   7.696  1.2450  1.6399  5.2975
  113MOL0     H15253   7.611   0.824   7.841  0.4729  0.9112 -0.1869
  113MOL0     H15254   7.724   0.692   7.866  1.1619 -0.4542 -4.1331
  113MOL0     H15255   7.764   0.855   7.930 -0.2603  0.2413  1.2711
  114MOL0     O15256   9.531   0.290   6.142  0.1592  0.4461  1.1645
  114MOL0     C15257   9.653   0.274   6.116  1.8980 -0.2020  0.4774
  114MOL0     O15258   9.699   0.232   5.989  0.7502  0.3374  0.3815
  114MOL0     C15259   9.599   0.207   5.894 -0.0240 -0.0011 -0.0271
  114MOL0     C15260   9.568   0.082   5.846  0.2269 -0.5468  0.5724
  114MOL0     C15261   9.461   0.067   5.755  0.6474 -0.2543  0.3197
  114MOL0     C15262   9.386   0.186   5.717  0.3117 -0.4259  0.6448
  114MOL0     O15263   9.276   0.188   5.627  1.0324  0.2750  0.5653
  114MOL0     C15264   9.191   0.067   5.629  0.9449 -0.2448  0.6120
  114MOL0     C15265   9.083   0.110   5.540  0.8581 -0.0245  0.6755
  114MOL0     C15266   8.989  -0.006   5.533 -0.0394 -0.4869 -0.2681
  114MOL0     C15267   8.849   0.020   5.464 -0.3829 -0.0855  0.0493
  114MOL0     C15268   8.864   0.059   5.313  0.0048 -0.0815 -0.7083
  114MOL0     C15269   8.725   0.098   5.251 -0.0730 -0.1504 -0.1609
  114MOL0     C15270   8.679   0.238   5.273  0.0190  0.7851 -0.3400
  114MOL0     C15271   8.525   0.266   5.248 -0.3654  0.0978 -0.2597
  114MOL0     N15272   8.478   0.255   5.118 -0.1272  0.7185  0.4327
  114MOL0     C15273   8.387   0.163   5.064 -0.0234  1.2982 -0.2786
  114MOL0     C15274   8.374   0.210   4.939 -0.5282 -0.3087  0.6548
  114MOL0     C15275   8.275   0.188   4.838  0.4941 -0.5044 -0.9722
  114MOL0     C15276   8.311   0.123   4.711 -0.3154 -1.0737  0.1646
  114MOL0     C15277   8.401  -0.006   4.712  0.6036  0.0106  0.3491
  114MOL0     C15278   8.338  -0.124   4.797  0.6899 -0.3795  0.1538
  114MOL0     O15279   8.238  -0.187   4.712 -0.1778  0.7290 -0.9454
  114MOL0     C15280   8.208  -0.319   4.720 -0.3099 -0.5450  0.1167
  114MOL0     C15281   8.194  -0.381   4.595  0.0834  0.4809 -0.1912
  114MOL0     C15282   8.186  -0.521   4.587 -0.5045 -0.0674 -0.1948
  114MOL0     C15283   8.191  -0.599   4.705 -0.1519 -0.1273 -0.5905
  114MOL0     C15284   8.180  -0.743   4.711 -0.7252  1.1508  0.1582
  114MOL0     O15285   8.097  -0.800   4.811 -1.1581 -0.1262  0.0015
  114MOL0     C15286   8.087  -0.943   4.838 -0.9611 -0.3729 -0.1810
  114MOL0     C15287   8.201  -1.025   4.841  0.7449  0.5372 -0.4741
  114MOL0     C15288   8.196  -1.149   4.896 -0.2110  0.0801  1.0634
  114MOL0     C15289   8.076  -1.205   4.948  0.2226  0.1135 -0.0654
  114MOL0     O15290   8.046  -1.334   4.989 -0.3215 -0.1466 -0.4834
  114MOL0     C15291   8.159  -1.405   5.042 -0.0154  0.1651  0.1031
  114MOL0     C15292   8.100  -1.501   5.139  0.0796  0.1223 -0.0127
  114MOL0     C15293   8.082  -1.627   5.063  0.3301  1.0809  0.1474
  114MOL0     C15294   7.999  -1.733   5.145 -0.4857  0.1725 -0.7328
  114MOL0     C15295   8.032  -1.873   5.098 -0.0991 -0.2508 -0.1073
  114MOL0     C15296   7.991  -1.978   5.194 -0.5364  0.0882  0.5765
  114MOL0     C15297   8.026  -2.113   5.129  1.1670  0.4029 -0.5003
  114MOL0     C15298   8.009  -2.248   5.222  1.0894 -0.5625  0.1162
  114MOL0    Cl15299   7.841  -2.266   5.286 -0.1630 -0.1422  0.2033
  114MOL0     C15300   7.960  -1.125   4.938 -0.1805  0.9590 -1.0018
  114MOL0     C15301   7.970  -0.994   4.886 -0.3355 -0.0885 -0.0476
  114MOL0     O15302   8.251  -0.808   4.637 -0.0621  0.4457  0.0481
  114MOL0     C15303   8.210  -0.536   4.829  0.2872 -0.6434  0.4758
  114MOL0     C15304   8.223  -0.399   4.836  0.0853 -0.2949 -0.5006
  114MOL0     N15305   8.482   0.302   4.911 -0.4928  0.1789 -0.0784
  114MOL0     N15306   8.534   0.335   5.024 -0.1892  0.7068  0.0797
  114MOL0     C15307   9.429   0.315   5.768  0.2006  0.0112 -0.2236
  114MOL0     C15308   9.530   0.320   5.858  0.2550  0.8949 -0.6115
  114MOL0     C15309   9.755   0.310   6.215 -0.0659  0.9128  0.6469
  114MOL0     C15310   9.703   0.288   6.347 -2.0590 -0.1495 -0.3401
  114MOL0     C15311   9.783   0.320   6.453 -0.2724  0.4946  0.3790
  114MOL0     C15312   9.913   0.373   6.440 -0.1474  0.6809  1.2875
  114MOL0     O15313   9.990   0.409   6.544 -0.3374  0.0142 -0.5369
  114MOL0     C15314   9.925   0.432   6.676 -0.3355 -0.8339  0.3554
  114MOL0     C15315  10.023   0.466   6.794 -0.2071  0.8640  1.3434
  114MOL0     C15316  10.054   0.616   6.814  0.3491  0.8634  0.1907
  114MOL0     C15317   9.925   0.690   6.870 -0.0242 -0.3314 -0.0290
  114MOL0     C15318   9.878   0.626   6.997  0.1970  0.6802 -0.2049
  114MOL0     C15319   9.847   0.565   7.099  0.2769  0.1182  0.1953
  114MOL0     C15320   9.963   0.392   6.310  0.1358 -1.0695 -0.2853
  114MOL0     C15321   9.887   0.357   6.199  0.5072  0.0032  0.6170
  114MOL0     C15322   9.941   0.399   6.063  0.8791 -0.0211 -0.6510
  114MOL0     H15323   9.635   0.002   5.875 -0.0824 -0.6596  0.9691
  114MOL0     H15324   9.427  -0.033   5.734  3.0956 -1.6171  2.2809
  114MOL0     H15325   9.249  -0.015   5.584  1.7972  1.4399 -1.5644
  114MOL0     H15326   9.156   0.047   5.730 -0.5557  2.1643  0.6524
  114MOL0     H15327   9.125   0.143   5.445  2.6151  0.9035  1.7181
  114MOL0     H15328   9.030   0.201   5.570 -0.5928 -0.3804 -0.6845
  114MOL0     H15329   8.953  -0.041   5.630  0.7241 -2.2646 -0.5830
  114MOL0     H15330   9.040  -0.086   5.479  0.5383  0.6886 -1.5418
  114MOL0     H15331   8.786  -0.069   5.474  1.8975 -1.5781  2.6154
  114MOL0     H15332   8.784   0.098   5.506 -1.2730  0.3901 -2.0957
  114MOL0     H15333   8.941   0.135   5.300 -1.1016  0.7055 -3.1918
  114MOL0     H15334   8.888  -0.034   5.259 -1.5547 -2.7503  2.7968
  114MOL0     H15335   8.732   0.086   5.142 -0.7098  1.7321 -0.4582
  114MOL0     H15336   8.657   0.021   5.286  3.6772 -2.6413  2.3422
  114MOL0     H15337   8.738   0.303   5.208  1.6549 -0.5479 -0.2630
  114MOL0     H15338   8.701   0.260   5.378  3.4186  0.3726 -0.8515
  114MOL0     H15339   8.458   0.206   5.309 -0.9122  0.3375 -0.6131
  114MOL0     H15340   8.507   0.371   5.271  0.3872 -0.4244  3.1595
  114MOL0     H15341   8.321   0.097   5.119  2.3748 -1.9076 -0.9693
  114MOL0     H15342   8.184   0.145   4.881  1.7709  1.7601  4.9942
  114MOL0     H15343   8.245   0.288   4.802 -1.4516 -0.9206 -0.6271
  114MOL0     H15344   8.222   0.094   4.654  0.1389 -3.8021  0.6614
  114MOL0     H15345   8.364   0.191   4.644 -1.3817 -2.4979 -2.2846
  114MOL0     H15346   8.491   0.021   4.768  1.9571 -3.5534  0.1544
  114MOL0     H15347   8.421  -0.030   4.607 -0.5106  1.3580 -0.2044
  114MOL0     H15348   8.303  -0.083   4.892 -1.6774  0.0786 -0.8498
  114MOL0     H15349   8.418  -0.195   4.818  0.8088 -0.0812  0.7591
  114MOL0     H15350   8.197  -0.333   4.498 -1.0590 -0.9270 -0.9697
  114MOL0     H15351   8.184  -0.562   4.487  0.6636  3.8431 -2.0189
  114MOL0     H15352   8.296  -0.993   4.800  0.1944  0.1897 -2.1089
  114MOL0     H15353   8.284  -1.212   4.899  0.6745  1.2397  0.3416
  114MOL0     H15354   8.209  -1.454   4.958 -2.0452 -1.0326 -0.4717
  114MOL0     H15355   8.229  -1.343   5.099 -1.9378  0.3956  2.3893
  114MOL0     H15356   8.180  -1.512   5.213  1.5027 -4.3962 -1.8312
  114MOL0     H15357   8.005  -1.471   5.184  0.4451 -0.8581  1.5003
  114MOL0     H15358   8.035  -1.601   4.967  2.7134  1.8138 -0.8999
  114MOL0     H15359   8.181  -1.668   5.045 -0.2422  0.4016 -1.7870
  114MOL0     H15360   7.892  -1.714   5.132 -0.7227 -1.0827 -0.6561
  114MOL0     H15361   8.025  -1.703   5.247 -1.4949  3.1902 -1.2340
  114MOL0     H15362   8.136  -1.894   5.069  0.3650  1.3741  0.3058
  114MOL0     H15363   7.966  -1.879   5.011 -1.6809  2.1209  0.8333
  114MOL0     H15364   8.069  -1.965   5.269  0.5702 -2.1433 -0.1012
  114MOL0     H15365   7.888  -1.968   5.229 -1.2924 -2.0571 -0.8475
  114MOL0     H15366   8.133  -2.106   5.111  1.6875  0.4271  2.0976
  114MOL0     H15367   7.964  -2.122   5.040 -1.3608 -2.0604  1.3034
  114MOL0     H15368   8.032  -2.344   5.174 -0.4970 -0.4176 -1.0420
  114MOL0     H15369   8.087  -2.242   5.297  1.3354  0.4625 -0.2031
  114MOL0     H15370   7.864  -1.158   4.976 -0.6916  0.9837 -2.2198
  114MOL0     H15371   7.886  -0.925   4.886 -0.2359  0.0362  0.4981
  114MOL0     H15372   8.237  -0.599   4.914  1.3449 -1.1018 -0.1880
  114MOL0     H15373   8.255  -0.361   4.933  0.6638 -1.4093 -0.2318
  114MOL0     H15374   9.364   0.399   5.745 -0.3009 -0.1631  0.5053
  114MOL0     H15375   9.572   0.412   5.898 -0.4218  0.7976  0.3667
  114MOL0     H15376   9.610   0.238   6.368 -2.7802 -0.2601 -3.2730
  114MOL0     H15377   9.753   0.289   6.553  0.8311 -1.3670  0.1744
  114MOL0     H15378   9.866   0.344   6.702 -2.2420  0.3820  0.3543
  114MOL0     H15379   9.851   0.510   6.654 -1.0340 -1.4477  0.4788
  114MOL0     H15380  10.117   0.415   6.771 -0.6646  0.2546  0.7586
  114MOL0     H15381   9.988   0.419   6.887 -3.1712  2.6009  1.2050
  114MOL0     H15382  10.092   0.660   6.722  1.2880 -1.2411 -0.4887
  114MOL0     H15383  10.132   0.626   6.891  0.0342 -0.1234  0.6507
  114MOL0     H15384   9.949   0.793   6.896 -0.3835 -0.4140  0.6498
  114MOL0     H15385   9.841   0.690   6.800 -2.3290 -2.3592  2.4913
  114MOL0     H15386   9.818   0.521   7.193  2.4883 -1.3796  0.2445
  114MOL0     H15387  10.056   0.447   6.304 -1.1246  1.2875  0.6008
  114MOL0     H15388   9.984   0.312   6.012  0.1533 -2.0903  2.0119
  114MOL0     H15389   9.871   0.453   6.000  1.9870  1.3089 -0.7820
  114MOL0     H15390  10.029   0.461   6.084 -0.9006  1.4673  3.5798
  115MOL0     O15391  10.860   7.496   5.273  0.7998 -0.4296  0.3760
  115MOL0     C15392  10.962   7.553   5.232  0.5495  0.2648 -0.1123
  115MOL0     O15393  11.096   7.521   5.271  0.8254 -0.4541 -0.2190
  115MOL0     C15394  11.166   7.431   5.195  0.3944  0.1636 -0.6813
  115MOL0     C15395  11.105   7.355   5.093 -0.2094 -0.0242 -1.2447
  115MOL0     C15396  11.176   7.249   5.036 -0.3838  0.7350 -0.6094
  115MOL0     C15397  11.311   7.221   5.084  0.0665 -0.5063  0.2410
  115MOL0     O15398  11.367   7.114   5.018 -0.6640  0.7226  0.5553
  115MOL0     C15399  11.511   7.116   5.025  0.1699  0.5436 -0.6554
  115MOL0     C15400  11.566   7.027   4.912  0.8044 -0.4012  0.0652
  115MOL0     C15401  11.703   6.982   4.933  0.1824  0.0970  0.8593
  115MOL0     C15402  11.769   6.918   4.807  0.3824 -0.6749 -0.1102
  115MOL0     C15403  11.894   6.841   4.847 -0.3983  0.3195 -0.6165
  115MOL0     C15404  11.967   6.759   4.751 -0.2383 -0.3549  0.0975
  115MOL0     C15405  12.032   6.843   4.636  0.3513 -0.7900 -0.0455
  115MOL0     C15406  12.049   6.741   4.511  0.2929  0.0727  0.0584
  115MOL0     N15407  12.135   6.631   4.517 -0.8460 -0.5179 -0.9974
  115MOL0     C15408  12.132   6.517   4.444 -0.2769 -0.6476 -0.7552
  115MOL0     C15409  12.257   6.465   4.432 -0.3905 -0.6298 -0.0130
  115MOL0     C15410  12.285   6.345   4.341 -0.1779  0.2516 -0.6792
  115MOL0     C15411  12.208   6.217   4.382 -0.9901  0.6978  0.1036
  115MOL0     C15412  12.265   6.103   4.305 -0.3729  0.6077  0.6580
  115MOL0     C15413  12.195   5.966   4.347  0.5078 -0.3767  0.1379
  115MOL0     O15414  12.241   5.870   4.237  0.1602 -0.6498 -0.1634
  115MOL0     C15415  12.193   5.745   4.239  0.1286  0.0081  0.6540
  115MOL0     C15416  12.103   5.700   4.328 -0.4194 -0.6266 -0.1063
  115MOL0     C15417  12.067   5.564   4.339  0.0467 -0.2633  0.1084
  115MOL0     C15418  12.133   5.474   4.262 -0.6800  0.4989 -0.5762
  115MOL0     C15419  12.089   5.329   4.255 -0.1944  0.1313 -0.4992
  115MOL0     O15420  11.982   5.304   4.341 -0.3432 -0.4176 -0.4793
  115MOL0     C15421  11.929   5.175   4.348 -0.3652  0.7739 -0.6826
  115MOL0     C15422  11.839   5.162   4.457 -0.8600 -1.7065 -0.0444
  115MOL0     C15423  11.751   5.046   4.472  0.4962 -0.5337 -0.2922
  115MOL0     C15424  11.766   4.942   4.377  0.1531 -0.1195  0.4126
  115MOL0     O15425  11.682   4.840   4.396 -0.0732 -0.6068 -0.3395
  115MOL0     C15426  11.737   4.726   4.454  0.8301  0.2161  0.0706
  115MOL0     C15427  11.613   4.641   4.486 -0.6789 -0.1724 -0.0893
  115MOL0     C15428  11.639   4.495   4.504  0.6919 -0.1770  0.4304
  115MOL0     C15429  11.515   4.420   4.549  0.2426 -0.2853 -0.1520
  115MOL0     C15430  11.508   4.424   4.703  0.4857  0.8309  1.0948
  115MOL0     C15431  11.385   4.333   4.750  0.9057 -1.0972  0.2782
  115MOL0     C15432  11.356   4.374   4.895 -0.5372 -0.0449  0.7770
  115MOL0     C15433  11.297   4.259   4.957  0.0278  0.2570 -0.6180
  115MOL0    Cl15434  11.137   4.227   4.888  0.9000  0.4272 -0.0537
  115MOL0     C15435  11.865   4.941   4.277 -0.1005 -0.4517  0.2294
  115MOL0     C15436  11.944   5.060   4.262  0.5816  0.1778  1.2210
  115MOL0     O15437  12.138   5.255   4.172  0.1961 -0.5998  0.3549
  115MOL0     C15438  12.226   5.525   4.169  0.7270  0.4012  0.9015
  115MOL0     C15439  12.263   5.658   4.167  0.1262 -0.1731  0.6908
  115MOL0     N15440  12.340   6.559   4.491 -0.3339 -0.0986  0.4744
  115MOL0     N15441  12.269   6.654   4.543  0.4168 -0.0853  0.5191
  115MOL0     C15442  11.369   7.295   5.177 -0.4380 -0.3152  0.4413
  115MOL0     C15443  11.291   7.393   5.242  0.1536  0.8141  0.0094
  115MOL0     C15444  10.947   7.677   5.151 -0.3492  0.3682  0.3040
  115MOL0     C15445  11.070   7.740   5.102  1.2921  0.7418  0.0299
  115MOL0     C15446  11.078   7.852   5.020 -0.2684  0.1168 -0.0848
  115MOL0     C15447  10.959   7.909   4.975 -0.0341 -0.4585  0.0696
  115MOL0     O15448  10.979   8.024   4.906 -0.3185 -0.5187 -0.4927
  115MOL0     C15449  10.878   8.082   4.819  0.5601  0.1390  0.1411
  115MOL0     C15450  10.959   8.128   4.697  0.5783  0.4849 -0.7515
  115MOL0     C15451  10.880   8.213   4.596  0.4178 -0.3992 -0.0819
  115MOL0     C15452  10.777   8.135   4.511 -0.1875 -0.4628  0.0766
  115MOL0     C15453  10.840   8.019   4.449  0.0378  0.5522 -0.1202
  115MOL0     C15454  10.916   7.941   4.398  0.1472  0.5418 -0.2528
  115MOL0     C15455  10.832   7.845   5.007 -1.0400 -0.7911  0.1434
  115MOL0     C15456  10.820   7.739   5.106 -0.3161 -0.7015  0.5469
  115MOL0     C15457  10.681   7.697   5.139  1.0312  0.3771  0.1819
  115MOL0     H15458  11.006   7.384   5.057  0.0639  0.8517 -1.3203
  115MOL0     H15459  11.134   7.179   4.964  2.0938 -2.8882  1.2067
  115MOL0     H15460  11.552   7.217   5.016  2.7287 -0.1955  1.5157
  115MOL0     H15461  11.547   7.073   5.119  0.7606 -1.1274 -1.6018
  115MOL0     H15462  11.539   7.084   4.823 -1.5537  0.0538  1.0113
  115MOL0     H15463  11.495   6.945   4.898  0.9230 -0.1235 -2.5885
  115MOL0     H15464  11.701   6.916   5.021 -0.7378  1.0231  1.5568
  115MOL0     H15465  11.762   7.070   4.959  0.1680  0.8106 -1.3067
  115MOL0     H15466  11.707   6.842   4.757  2.2202 -2.0704 -0.3800
  115MOL0     H15467  11.778   6.991   4.727  1.2059 -1.0623 -0.3845
  115MOL0     H15468  11.957   6.913   4.900 -0.1574 -0.1880 -0.1995
  115MOL0     H15469  11.865   6.768   4.923  1.1134 -0.1968 -0.5086
  115MOL0     H15470  12.047   6.704   4.803  0.8399  1.7633  0.7914
  115MOL0     H15471  11.903   6.681   4.709 -0.3882 -1.3724  2.0877
  115MOL0     H15472  12.128   6.887   4.664 -0.2069  0.8472 -0.5546
  115MOL0     H15473  11.961   6.922   4.608  0.8342  0.1001  1.1236
  115MOL0     H15474  11.948   6.707   4.486  1.1067 -0.7697 -2.3869
  115MOL0     H15475  12.085   6.809   4.433 -1.8357 -0.2820 -1.3069
  115MOL0     H15476  12.042   6.468   4.408 -0.3894  0.6844 -2.4273
  115MOL0     H15477  12.262   6.368   4.236  0.2009 -3.8415 -1.8250
  115MOL0     H15478  12.391   6.319   4.351 -1.1082 -3.6601  0.6945
  115MOL0     H15479  12.231   6.200   4.488 -1.2155  4.4054  0.8781
  115MOL0     H15480  12.099   6.221   4.379 -1.2601 -1.9092  2.6163
  115MOL0     H15481  12.374   6.094   4.299 -0.5292 -0.5265 -1.4676
  115MOL0     H15482  12.233   6.118   4.201  0.0938  1.8295  0.6686
  115MOL0     H15483  12.087   5.983   4.347  0.9453  3.4795  2.4486
  115MOL0     H15484  12.238   5.940   4.445  1.6658  0.9326  0.0155
  115MOL0     H15485  12.045   5.765   4.394  3.2916  2.2972  0.5686
  115MOL0     H15486  11.977   5.538   4.394 -2.1680  3.0959 -1.5944
  115MOL0     H15487  11.848   5.247   4.524  1.0293 -1.2460 -0.7904
  115MOL0     H15488  11.677   5.029   4.549  0.0530 -2.3513 -1.0648
  115MOL0     H15489  11.784   4.653   4.387 -2.4971 -2.0813  0.0209
  115MOL0     H15490  11.787   4.739   4.550 -0.1057  0.0498  0.5827
  115MOL0     H15491  11.576   4.675   4.583 -0.7246 -0.2218 -0.0894
  115MOL0     H15492  11.532   4.659   4.414 -2.3575 -2.1558  1.1906
  115MOL0     H15493  11.683   4.459   4.411  0.6791 -0.4925  0.5459
  115MOL0     H15494  11.718   4.479   4.578 -1.2170 -1.8616  2.2162
  115MOL0     H15495  11.504   4.320   4.505  0.2678 -0.3575  0.0038
  115MOL0     H15496  11.433   4.473   4.500  2.9401  1.9350 -2.6017
  115MOL0     H15497  11.488   4.526   4.737 -2.3377  0.2651  1.4409
  115MOL0     H15498  11.597   4.390   4.757  0.0492  3.0649  3.4421
  115MOL0     H15499  11.292   4.360   4.699  1.0039  0.1325  0.7086
  115MOL0     H15500  11.404   4.226   4.737 -1.2030 -1.5208  0.3815
  115MOL0     H15501  11.295   4.464   4.903  0.1667  0.4092  1.1735
  115MOL0     H15502  11.451   4.395   4.946  0.5903 -2.1588 -0.3016
  115MOL0     H15503  11.356   4.168   4.940 -0.8579  0.0169 -2.8082
  115MOL0     H15504  11.298   4.271   5.065  0.0149 -2.4433 -0.2438
  115MOL0     H15505  11.870   4.858   4.207 -2.7443 -0.8584  0.4330
  115MOL0     H15506  12.006   5.062   4.173 -0.8605  1.6952  0.1925
  115MOL0     H15507  12.282   5.453   4.110 -0.1672 -0.0739  0.6144
  115MOL0     H15508  12.333   5.687   4.089  1.7518 -5.5424 -0.2763
  115MOL0     H15509  11.461   7.266   5.227  0.1520  3.7567  2.0994
  115MOL0     H15510  11.342   7.449   5.319  3.9222  1.6890 -2.8369
  115MOL0     H15511  11.164   7.693   5.126  0.6842 -0.8566 -0.5787
  115MOL0     H15512  11.174   7.889   4.985 -0.2601 -1.3281 -1.6925
  115MOL0     H15513  10.819   8.165   4.859 -0.0146 -0.6184  0.8919
  115MOL0     H15514  10.806   8.004   4.794  1.6336 -0.2404 -2.0457
  115MOL0     H15515  11.017   8.045   4.656  0.8797  0.1677  0.2905
  115MOL0     H15516  11.038   8.197   4.729  2.2090 -0.9681 -1.4716
  115MOL0     H15517  10.949   8.261   4.525 -2.9129  1.3194 -2.4637
  115MOL0     H15518  10.838   8.298   4.651 -0.8577 -1.7626  1.1334
  115MOL0     H15519  10.680   8.119   4.560 -0.7735 -0.2213 -0.9651
  115MOL0     H15520  10.767   8.216   4.438  1.6161  0.1212  0.4460
  115MOL0     H15521  10.989   7.874   4.358 -0.8511 -0.4311 -0.5026
  115MOL0     H15522  10.744   7.883   4.957  0.0112  0.3491 -0.9048
  115MOL0     H15523  10.681   7.661   5.242 -1.0948 -0.7353 -0.1416
  115MOL0     H15524  10.603   7.774   5.131  0.1998 -0.3752  0.8839
  115MOL0     H15525  10.650   7.618   5.069 -0.6941  1.0900  0.0744
  116MOL0     O15526   8.312   1.891   0.597 -0.6047 -0.0734 -0.0767
  116MOL0     C15527   8.415   1.901   0.525  0.4845 -0.1322 -0.8660
  116MOL0     O15528   8.464   1.805   0.439  0.0107  0.7142 -0.2878
  116MOL0     C15529   8.420   1.669   0.460  0.4995 -0.5005 -0.5040
  116MOL0     C15530   8.310   1.614   0.399 -0.5933 -0.3000 -0.3313
  116MOL0     C15531   8.278   1.474   0.411  1.0124 -0.0233  0.4863
  116MOL0     C15532   8.362   1.396   0.476  0.5332  0.2510 -0.4962
  116MOL0     O15533   8.355   1.259   0.462 -0.2831  0.0398 -0.6412
  116MOL0     C15534   8.427   1.165   0.557 -0.9280 -0.4507 -0.8277
  116MOL0     C15535   8.402   1.014   0.533  0.2324 -0.0347 -0.5052
  116MOL0     C15536   8.257   0.993   0.584  0.5300 -0.7548  0.3815
  116MOL0     C15537   8.216   0.835   0.560 -0.3637 -0.1071 -0.3592
  116MOL0     C15538   8.079   0.809   0.615  0.3853 -0.8917  0.4978
  116MOL0     C15539   8.030   0.662   0.606 -0.3955  0.2388  0.2801
  116MOL0     C15540   7.886   0.653   0.654  0.3705  0.7104  0.1444
  116MOL0     C15541   7.783   0.681   0.553 -0.5838  0.0575  0.2351
  116MOL0     N15542   7.740   0.565   0.468 -0.5767 -0.3694  0.9193
  116MOL0     C15543   7.761   0.544   0.333 -0.6306  0.2605 -0.2357
  116MOL0     C15544   7.692   0.433   0.306 -0.0540  0.0922 -1.4578
  116MOL0     C15545   7.678   0.366   0.168 -0.0606 -1.0164  0.4431
  116MOL0     C15546   7.563   0.272   0.154 -0.4349  0.1623  0.3295
  116MOL0     C15547   7.428   0.352   0.141 -0.7296 -0.2830  0.0191
  116MOL0     C15548   7.329   0.312   0.040 -0.1307 -0.0488 -0.5033
  116MOL0     O15549   7.397   0.309  -0.087  0.2208 -0.4492 -0.4149
  116MOL0     C15550   7.337   0.243  -0.188 -0.3950 -0.3850 -0.2830
  116MOL0     C15551   7.206   0.197  -0.192  0.2627  0.0286  0.1252
  116MOL0     C15552   7.154   0.127  -0.307 -0.7792  0.3822 -0.1108
  116MOL0     C15553   7.243   0.105  -0.422  0.3009  0.2312 -0.2433
  116MOL0     C15554   7.195   0.016  -0.539  0.0749  0.1030 -0.3687
  116MOL0     O15555   7.089  -0.063  -0.507 -0.6458 -0.2393  0.1328
  116MOL0     C15556   7.052  -0.150  -0.607 -0.3792 -0.3887 -0.4276
  116MOL0     C15557   6.939  -0.120  -0.681  0.0418 -0.2809 -0.4353
  116MOL0     C15558   6.884  -0.218  -0.765 -0.4360  0.0041 -1.1355
  116MOL0     C15559   6.959  -0.329  -0.797 -0.6241 -0.5499  0.2565
  116MOL0     O15560   6.926  -0.442  -0.882  0.2382 -0.6498  0.1817
  116MOL0     C15561   6.791  -0.475  -0.878 -0.5580 -0.3957  0.5853
  116MOL0     C15562   6.726  -0.530  -0.750  0.9472 -0.8700  0.3412
  116MOL0     C15563   6.576  -0.560  -0.786  0.2246  0.3161  0.0078
  116MOL0     C15564   6.491  -0.439  -0.805  0.4744  0.0878  0.5030
  116MOL0     C15565   6.347  -0.473  -0.833  0.4049  0.1492 -0.4341
  116MOL0     C15566   6.259  -0.346  -0.873  0.9031 -0.4617  0.1599
  116MOL0     C15567   6.294  -0.261  -1.000  0.3683  0.1766 -0.0909
  116MOL0     C15568   6.261  -0.329  -1.136  0.4763  0.5962  0.3047
  116MOL0    Cl15569   6.364  -0.471  -1.163 -0.2474 -0.2940  0.1522
  116MOL0     C15570   7.074  -0.355  -0.719  0.1410 -0.2003  0.0848
  116MOL0     C15571   7.130  -0.262  -0.632  0.2320  0.4564 -0.8640
  116MOL0     O15572   7.234   0.032  -0.653 -0.1938  0.1030  0.3240
  116MOL0     C15573   7.371   0.148  -0.412 -0.3394 -0.5802  0.8182
  116MOL0     C15574   7.416   0.217  -0.300  0.1467 -0.9266  0.2105
  116MOL0     N15575   7.648   0.389   0.430 -0.0918  0.7455  0.2772
  116MOL0     N15576   7.674   0.464   0.528  0.1525 -0.0474 -0.5109
  116MOL0     C15577   8.469   1.447   0.551 -1.0419 -0.5710 -0.2138
  116MOL0     C15578   8.489   1.585   0.541  0.3174 -0.2537 -1.1916
  116MOL0     C15579   8.473   2.036   0.515 -0.3731 -0.9871 -0.0234
  116MOL0     C15580   8.479   2.126   0.632 -0.5736 -0.8770 -0.1240
  116MOL0     C15581   8.524   2.263   0.620  1.0379  0.2267  0.0710
  116MOL0     C15582   8.561   2.319   0.497 -1.0527 -0.8248  0.3346
  116MOL0     O15583   8.609   2.444   0.491  0.5569 -1.3680 -0.5652
  116MOL0     C15584   8.678   2.493   0.374  0.8311  0.6877 -0.5335
  116MOL0     C15585   8.741   2.631   0.409  0.7716 -0.6474 -0.7082
  116MOL0     C15586   8.885   2.604   0.461  0.0556  0.6232 -0.2234
  116MOL0     C15587   8.980   2.579   0.349 -0.2626  0.2318  0.7453
  116MOL0     C15588   9.008   2.699   0.272  0.1350  0.2051 -0.6182
  116MOL0     C15589   9.039   2.795   0.208 -0.3506  0.7854  0.1976
  116MOL0     C15590   8.547   2.230   0.384 -0.4712 -0.8240  0.3257
  116MOL0     C15591   8.518   2.098   0.395  1.1513  1.3986 -0.4091
  116MOL0     C15592   8.512   2.026   0.260 -2.0725 -0.7366  0.1972
  116MOL0     H15593   8.254   1.691   0.346 -0.6011  3.7035  4.6659
  116MOL0     H15594   8.188   1.446   0.357  1.6382 -2.7438  0.7034
  116MOL0     H15595   8.533   1.191   0.546 -1.2500  1.3672  0.0822
  116MOL0     H15596   8.397   1.181   0.661 -0.3588 -0.6380 -0.6289
  116MOL0     H15597   8.461   0.947   0.595 -0.4071 -1.2522 -1.1666
  116MOL0     H15598   8.405   0.996   0.425  0.4207  2.5331 -0.9968
  116MOL0     H15599   8.198   1.057   0.519  0.0014 -2.5001 -0.9457
  116MOL0     H15600   8.252   1.017   0.690 -0.4766 -3.2229  0.9714
  116MOL0     H15601   8.211   0.809   0.454 -0.3331 -0.5559 -0.2498
  116MOL0     H15602   8.288   0.766   0.603 -0.0384  0.7185  0.4559
  116MOL0     H15603   8.071   0.855   0.714 -0.8860 -0.3233  0.1556
  116MOL0     H15604   8.012   0.875   0.559  2.6209  2.8634  1.8950
  116MOL0     H15605   8.025   0.623   0.504 -1.3844 -2.6189  1.3315
  116MOL0     H15606   8.104   0.602   0.661  1.7970  1.0136 -1.6484
  116MOL0     H15607   7.871   0.710   0.746 -0.1483  2.0044 -0.7164
  116MOL0     H15608   7.886   0.547   0.679 -3.6027 -0.0268 -2.2117
  116MOL0     H15609   7.696   0.699   0.616 -1.7729 -0.0516 -1.3056
  116MOL0     H15610   7.821   0.766   0.494  0.5519  0.1209  1.0361
  116MOL0     H15611   7.836   0.588   0.268 -0.7265  1.7753  0.6478
  116MOL0     H15612   7.666   0.443   0.091 -0.2823 -3.0220 -1.6630
  116MOL0     H15613   7.772   0.312   0.148  0.8754  0.3548  1.0103
  116MOL0     H15614   7.570   0.218   0.059 -4.2724 -1.0394  0.5430
  116MOL0     H15615   7.568   0.203   0.238 -1.5378 -0.0591  0.2353
  116MOL0     H15616   7.456   0.457   0.132  0.5907 -0.6598 -0.4605
  116MOL0     H15617   7.377   0.339   0.237 -0.3338 -3.9380 -0.1101
  116MOL0     H15618   7.253   0.391   0.042 -1.4605 -1.3098  0.3125
  116MOL0     H15619   7.290   0.212   0.060 -0.1185  0.6977  4.3044
  116MOL0     H15620   7.130   0.208  -0.114 -0.9825 -1.5212 -0.7939
  116MOL0     H15621   7.056   0.081  -0.308 -1.0559  0.9109 -2.4743
  116MOL0     H15622   6.877  -0.038  -0.646  1.1260  0.1790  0.5105
  116MOL0     H15623   6.789  -0.199  -0.812 -0.3437  0.6461 -1.0617
  116MOL0     H15624   6.737  -0.395  -0.930  1.2048 -1.1231 -2.6435
  116MOL0     H15625   6.787  -0.542  -0.964  0.1637  0.2106  0.0627
  116MOL0     H15626   6.778  -0.622  -0.721  0.2517 -1.5518 -0.4880
  116MOL0     H15627   6.734  -0.458  -0.669 -0.9727  0.9181 -0.9520
  116MOL0     H15628   6.571  -0.629  -0.870 -0.7577  3.9730 -3.2201
  116MOL0     H15629   6.534  -0.615  -0.701  1.1408 -2.4251 -1.1921
  116MOL0     H15630   6.523  -0.375  -0.888 -1.6362 -0.2049 -0.6077
  116MOL0     H15631   6.491  -0.385  -0.710 -0.3163 -2.4274  2.0233
  116MOL0     H15632   6.305  -0.511  -0.740  1.2330  1.0488  0.3258
  116MOL0     H15633   6.336  -0.548  -0.912  2.7853 -0.9260  0.1672
  116MOL0     H15634   6.157  -0.386  -0.866  1.4969 -1.6607  4.2365
  116MOL0     H15635   6.284  -0.284  -0.787 -1.5008 -0.1212  0.6742
  116MOL0     H15636   6.401  -0.243  -0.992  0.4403 -0.8445  2.0487
  116MOL0     H15637   6.236  -0.168  -1.000 -1.3446 -0.8508  0.0582
  116MOL0     H15638   6.156  -0.358  -1.134  0.4615  0.6859  0.9589
  116MOL0     H15639   6.276  -0.268  -1.226 -2.3704  0.4859 -0.3258
  116MOL0     H15640   7.133  -0.445  -0.734  0.4288 -0.2129  1.2150
  116MOL0     H15641   7.225  -0.291  -0.589 -0.2421 -2.3944 -1.5194
  116MOL0     H15642   7.435   0.107  -0.489  2.3671 -2.1944  3.6700
  116MOL0     H15643   7.523   0.233  -0.299  0.2681 -1.6540  1.5994
  116MOL0     H15644   8.538   1.388   0.611 -1.1030  2.0203  2.6366
  116MOL0     H15645   8.562   1.641   0.598 -1.9427  3.0363 -1.2668
  116MOL0     H15646   8.452   2.084   0.728  1.5660 -3.9871 -0.7165
  116MOL0     H15647   8.511   2.323   0.709  2.8374 -1.3749  1.5021
  116MOL0     H15648   8.601   2.498   0.297  1.7739 -0.4508 -1.5976
  116MOL0     H15649   8.757   2.423   0.343 -1.0580 -1.0543 -1.6752
  116MOL0     H15650   8.690   2.686   0.488  0.1955 -1.1363 -0.7292
  116MOL0     H15651   8.744   2.700   0.325 -1.1221 -0.9796 -1.0897
  116MOL0     H15652   8.889   2.517   0.527 -1.0686 -0.0226 -0.9717
  116MOL0     H15653   8.917   2.696   0.511 -1.0037  1.1461 -0.4813
  116MOL0     H15654   9.075   2.543   0.388  1.0920  0.4147 -2.1735
  116MOL0     H15655   8.954   2.502   0.276 -0.7055 -0.3829  1.5380
  116MOL0     H15656   9.081   2.875   0.151 -0.1359  2.9102  3.1623
  116MOL0     H15657   8.569   2.264   0.283  1.3719 -0.7768  0.6984
  116MOL0     H15658   8.513   2.092   0.173  0.6789 -0.1312  0.5840
  116MOL0     H15659   8.612   1.982   0.253 -1.8006 -0.0452 -0.3678
  116MOL0     H15660   8.431   1.952   0.263  0.5715 -3.8573  3.0935
  117MOL0     O15661   4.722   8.298   9.752  0.1919 -0.3276 -0.1919
  117MOL0     C15662   4.718   8.234   9.647 -0.1782 -0.3382 -0.0600
  117MOL0     O15663   4.816   8.243   9.551  0.2363 -0.1817 -0.0623
  117MOL0     C15664   4.941   8.269   9.586  0.9455  0.1265  0.1184
  117MOL0     C15665   4.993   8.202   9.695 -0.1792  0.5410 -0.5062
  117MOL0     C15666   5.122   8.225   9.741  0.0379 -0.8649  0.6079
  117MOL0     C15667   5.209   8.300   9.649  1.1226  0.5787 -1.4528
  117MOL0     O15668   5.343   8.324   9.665 -0.4666 -0.0132  0.5014
  117MOL0     C15669   5.427   8.221   9.711  0.4782 -0.4130 -0.6011
  117MOL0     C15670   5.572   8.237   9.653  0.5337 -1.8818  0.1476
  117MOL0     C15671   5.588   8.261   9.506  0.1911  0.5236  0.5438
  117MOL0     C15672   5.546   8.135   9.427  0.0350  0.4866 -0.1443
  117MOL0     C15673   5.568   8.143   9.269 -0.1875 -0.0225 -0.1844
  117MOL0     C15674   5.524   8.005   9.215  0.2788 -0.1272 -0.0418
  117MOL0     C15675   5.521   8.019   9.057  0.5679 -0.9058 -0.0082
  117MOL0     C15676   5.479   7.888   8.994  0.2353  0.0225  0.5182
  117MOL0     N15677   5.504   7.894   8.843 -0.2641 -0.0730  0.2865
  117MOL0     C15678   5.419   7.916   8.742  0.0554 -0.2266  0.2786
  117MOL0     C15679   5.473   7.872   8.626 -0.7903 -0.9484  0.5610
  117MOL0     C15680   5.422   7.888   8.490  0.6654  0.1279  0.1762
  117MOL0     C15681   5.490   7.788   8.395  0.4304 -0.3444 -0.6037
  117MOL0     C15682   5.425   7.792   8.266  0.1936 -0.7477  0.3068
  117MOL0     C15683   5.462   7.679   8.175  0.4629 -0.2048  0.6779
  117MOL0     O15684   5.367   7.646   8.074 -0.4864 -0.1040  0.1093
  117MOL0     C15685   5.236   7.609   8.097  1.5374  0.9464  0.9355
  117MOL0     C15686   5.138   7.626   8.008  1.0023  0.1057  0.9342
  117MOL0     C15687   5.003   7.600   8.038  0.5328  0.1712  1.3062
  117MOL0     C15688   4.969   7.531   8.157  0.2415 -0.1027 -0.2061
  117MOL0     C15689   4.832   7.485   8.197 -0.7522 -0.7134  0.1857
  117MOL0     O15690   4.732   7.518   8.116  0.5428  1.0328 -0.2930
  117MOL0     C15691   4.606   7.474   8.159 -0.6255  0.1427  0.4791
  117MOL0     C15692   4.517   7.575   8.198  0.7476  0.4109 -0.1581
  117MOL0     C15693   4.388   7.536   8.228  0.4408 -0.0927  0.6702
  117MOL0     C15694   4.342   7.404   8.234  0.1040  1.1514 -0.2943
  117MOL0     O15695   4.201   7.378   8.247 -0.1251  0.1948  0.1021
  117MOL0     C15696   4.167   7.252   8.307 -0.2756  0.4476  0.3434
  117MOL0     C15697   4.027   7.263   8.370 -0.0566 -0.2003  0.1028
  117MOL0     C15698   4.042   7.378   8.480  1.0865  0.1078  0.4312
  117MOL0     C15699   3.929   7.374   8.594  0.4377 -0.5875  0.2757
  117MOL0     C15700   3.958   7.476   8.711 -0.1072  0.2234 -0.2105
  117MOL0     C15701   4.018   7.389   8.829  0.7377 -1.0350 -0.0465
  117MOL0     C15702   4.057   7.484   8.943 -0.3622  0.2945  0.7034
  117MOL0     C15703   4.094   7.427   9.084 -0.0173  0.7803  0.4435
  117MOL0    Cl15704   4.242   7.337   9.094 -0.4285 -0.0958 -0.0506
  117MOL0     C15705   4.440   7.308   8.207 -0.4984 -0.4658 -0.4592
  117MOL0     C15706   4.571   7.341   8.169 -0.5006  0.4005  0.2369
  117MOL0     O15707   4.825   7.414   8.289  0.0971  0.3509 -0.5676
  117MOL0     C15708   5.070   7.503   8.249 -0.0258 -0.1863  0.1896
  117MOL0     C15709   5.195   7.552   8.214 -0.0710  0.7313 -1.1264
  117MOL0     N15710   5.593   7.800   8.662  0.5981 -0.0016 -0.0655
  117MOL0     N15711   5.609   7.824   8.790  0.7526 -0.0140  0.7863
  117MOL0     C15712   5.171   8.343   9.519 -0.8023  1.2166  0.6015
  117MOL0     C15713   5.029   8.330   9.491 -0.4188 -0.4656  0.2774
  117MOL0     C15714   4.587   8.160   9.610  0.2715 -0.6684 -0.8065
  117MOL0     C15715   4.499   8.131   9.715 -0.9356 -0.4615 -0.7369
  117MOL0     C15716   4.372   8.089   9.697  0.3662  0.2985  0.5934
  117MOL0     C15717   4.331   8.055   9.566 -1.0368 -0.0372 -0.1868
  117MOL0     O15718   4.208   8.011   9.542 -0.0820  0.9974  0.6840
  117MOL0     C15719   4.162   7.896   9.624 -0.1765  0.3145  0.0013
  117MOL0     C15720   4.182   7.783   9.534 -0.5200  0.8739 -0.1522
  117MOL0     C15721   4.158   7.651   9.609 -0.8179 -0.3525 -0.0437
  117MOL0     C15722   4.128   7.544   9.495  0.3143 -0.3714  0.4005
  117MOL0     C15723   4.044   7.432   9.555 -0.0872 -0.1103  0.5602
  117MOL0     C15724   3.956   7.360   9.598  0.2938  0.0978  0.6555
  117MOL0     C15725   4.410   8.080   9.451  0.2236 -0.6065 -0.0555
  117MOL0     C15726   4.541   8.126   9.475 -0.6729  0.8394  0.6567
  117MOL0     C15727   4.628   8.138   9.353 -0.3168  0.6653  0.4947
  117MOL0     H15728   4.933   8.162   9.776  0.7461  0.1793  0.0157
  117MOL0     H15729   5.162   8.165   9.822 -1.5062 -1.5677  0.8795
  117MOL0     H15730   5.437   8.230   9.820  1.1517  2.3116 -0.7985
  117MOL0     H15731   5.394   8.123   9.676 -0.8645 -1.2825  2.6698
  117MOL0     H15732   5.634   8.156   9.692  1.5872 -2.2634 -2.1604
  117MOL0     H15733   5.611   8.329   9.696 -1.6021 -1.1678  0.6708
  117MOL0     H15734   5.692   8.294   9.495 -0.2560  2.5081  1.7767
  117MOL0     H15735   5.524   8.346   9.483 -1.7143 -0.7086  1.0125
  117MOL0     H15736   5.597   8.045   9.463  0.4909  0.5270 -0.6724
  117MOL0     H15737   5.438   8.124   9.439 -0.0719 -2.4727 -2.4398
  117MOL0     H15738   5.501   8.223   9.237 -1.4103 -0.6649  0.6960
  117MOL0     H15739   5.675   8.154   9.250 -0.4590 -0.0460 -1.8923
  117MOL0     H15740   5.586   7.921   9.247 -1.6071 -0.7228  2.4397
  117MOL0     H15741   5.422   7.977   9.244  0.9229 -2.1526  0.3774
  117MOL0     H15742   5.617   8.041   9.010  1.4667 -0.3899  1.9533
  117MOL0     H15743   5.443   8.089   9.025 -1.0618 -3.2536 -1.4993
  117MOL0     H15744   5.531   7.804   9.041  0.2613  0.4301  1.2196
  117MOL0     H15745   5.371   7.873   9.009  0.7159 -4.1368  0.9948
  117MOL0     H15746   5.317   7.952   8.737  1.2411  3.4401 -1.5527
  117MOL0     H15747   5.316   7.858   8.496 -0.9765  4.7068 -1.5827
  117MOL0     H15748   5.421   7.994   8.467 -0.5629  0.5464  1.9323
  117MOL0     H15749   5.597   7.795   8.377 -0.2410  2.3853 -4.9194
  117MOL0     H15750   5.461   7.692   8.438 -1.7892  0.9888  1.1144
  117MOL0     H15751   5.443   7.892   8.225  1.3810 -0.8530  0.5279
  117MOL0     H15752   5.316   7.782   8.263 -0.4145  3.0697  2.5380
  117MOL0     H15753   5.496   7.600   8.242 -0.3526  0.6667  2.1785
  117MOL0     H15754   5.556   7.711   8.129 -1.0744  0.3581 -2.3608
  117MOL0     H15755   5.168   7.658   7.909  1.1811 -0.9771  0.6178
  117MOL0     H15756   4.924   7.614   7.965  0.7308 -2.3450  0.4794
  117MOL0     H15757   4.550   7.677   8.182  2.4043  0.0411  0.6552
  117MOL0     H15758   4.314   7.616   8.236 -0.2168 -0.5067 -0.8113
  117MOL0     H15759   4.171   7.172   8.231  4.4385 -0.1740  0.9199
  117MOL0     H15760   4.231   7.217   8.388 -0.8124  2.0716  1.5162
  117MOL0     H15761   3.956   7.293   8.292 -3.1312 -2.3979  1.8146
  117MOL0     H15762   4.007   7.165   8.414 -0.6683 -0.4270 -0.6389
  117MOL0     H15763   4.136   7.365   8.533  1.5894  2.5468  0.2301
  117MOL0     H15764   4.041   7.476   8.430  0.4502  0.1173  0.4534
  117MOL0     H15765   3.918   7.270   8.626  2.3104 -1.6404 -2.1382
  117MOL0     H15766   3.837   7.408   8.546  1.5059  0.7020 -0.9409
  117MOL0     H15767   3.870   7.536   8.735 -0.3866 -0.7470  1.3311
  117MOL0     H15768   4.029   7.557   8.689 -1.6909  1.5414 -0.6522
  117MOL0     H15769   3.944   7.315   8.861 -1.9415  1.4902  0.0235
  117MOL0     H15770   4.104   7.340   8.781 -0.0905 -1.1058 -1.5436
  117MOL0     H15771   3.968   7.546   8.958 -0.6224 -0.2260  1.3503
  117MOL0     H15772   4.140   7.547   8.910 -1.6083  1.3658 -0.5008
  117MOL0     H15773   4.097   7.510   9.155 -2.9754  1.8120 -0.4703
  117MOL0     H15774   4.007   7.366   9.110  0.2959  0.1733  0.1080
  117MOL0     H15775   4.404   7.206   8.201  0.2212 -0.7323 -0.2798
  117MOL0     H15776   4.645   7.264   8.146 -3.1352 -1.7389 -1.6479
  117MOL0     H15777   5.049   7.466   8.348 -0.0826 -0.7376 -0.0270
  117MOL0     H15778   5.266   7.547   8.295 -1.1841  1.1998 -0.0965
  117MOL0     H15779   5.241   8.387   9.449  1.6166 -1.9161  0.8661
  117MOL0     H15780   4.994   8.390   9.408 -0.0472  0.2802  0.6496
  117MOL0     H15781   4.521   8.144   9.820 -2.6864 -2.0822 -0.1069
  117MOL0     H15782   4.308   8.066   9.782  0.1332 -0.2809  0.2687
  117MOL0     H15783   4.054   7.903   9.644 -0.1903 -3.6682  2.6682
  117MOL0     H15784   4.209   7.885   9.722 -0.4378 -2.0353 -0.0823
  117MOL0     H15785   4.288   7.783   9.507 -1.5622  0.1231 -5.1698
  117MOL0     H15786   4.131   7.784   9.438 -0.0164 -0.2893 -0.4577
  117MOL0     H15787   4.076   7.655   9.681  1.5508 -0.4439  2.8778
  117MOL0     H15788   4.253   7.624   9.656  0.4501 -0.4458 -2.4927
  117MOL0     H15789   4.068   7.592   9.417  0.2129  1.2567  1.4352
  117MOL0     H15790   4.211   7.488   9.450 -3.0603 -3.8363 -2.1073
  117MOL0     H15791   3.897   7.286   9.647  1.7276 -0.8678  0.9824
  117MOL0     H15792   4.379   8.087   9.348 -0.3802  0.5604  0.1797
  117MOL0     H15793   4.705   8.060   9.356 -0.0100  0.9263 -0.3113
  117MOL0     H15794   4.583   8.115   9.256  2.0932 -0.9610 -0.3263
  117MOL0     H15795   4.690   8.228   9.357  1.5259 -0.5516  0.3481
  118MOL0     O15796  11.242   4.468   8.671  0.2047  0.6501  0.2146
  118MOL0     C15797  11.124   4.422   8.686 -0.7135 -0.5795 -0.1166
  118MOL0     O15798  11.061   4.386   8.802 -0.1968 -0.4143  0.2627
  118MOL0     C15799  11.130   4.309   8.897  0.0961 -0.5526  0.9714
  118MOL0     C15800  11.224   4.219   8.858 -0.2549 -0.5856  0.1932
  118MOL0     C15801  11.293   4.140   8.957 -0.3645  0.6429 -0.0321
  118MOL0     C15802  11.264   4.149   9.094  1.1609  0.0791  0.0968
  118MOL0     O15803  11.341   4.074   9.174 -0.1176 -0.0393 -0.4143
  118MOL0     C15804  11.387   4.127   9.303  0.3246 -0.4568 -0.3659
  118MOL0     C15805  11.472   4.014   9.366 -0.1777 -0.5261  0.1590
  118MOL0     C15806  11.548   4.088   9.485 -0.5014  0.5962  0.1675
  118MOL0     C15807  11.628   3.995   9.573  0.1611 -0.3346  0.0283
  118MOL0     C15808  11.663   4.060   9.701 -0.3813  0.1068 -0.1627
  118MOL0     C15809  11.755   4.184   9.674 -0.5128 -0.6038 -0.5279
  118MOL0     C15810  11.837   4.213   9.810  0.4645  0.3661 -0.8648
  118MOL0     C15811  11.920   4.341   9.799  0.1480 -0.3934 -0.5399
  118MOL0     N15812  11.844   4.469   9.797 -0.1761 -0.6706  0.3545
  118MOL0     C15813  11.893   4.604   9.796 -0.0815  1.4212 -0.0604
  118MOL0     C15814  11.780   4.674   9.816 -0.0168  0.4011  0.4886
  118MOL0     C15815  11.765   4.824   9.806  0.3152 -0.8396  0.0771
  118MOL0     C15816  11.790   4.877   9.660 -0.3182 -0.1013  0.1248
  118MOL0     C15817  11.670   4.845   9.561  0.3283  0.2411 -0.9232
  118MOL0     C15818  11.713   4.828   9.421 -0.1352 -0.8500  0.4244
  118MOL0     O15819  11.831   4.742   9.412  0.5153  0.1424  0.0326
  118MOL0     C15820  11.824   4.613   9.379  0.0156 -0.2909 -0.6280
  118MOL0     C15821  11.724   4.547   9.298 -0.3362  0.3346 -0.7678
  118MOL0     C15822  11.726   4.411   9.267  0.6341  0.4631  0.3375
  118MOL0     C15823  11.844   4.329   9.303  0.6917 -0.3791  1.6287
  118MOL0     C15824  11.853   4.177   9.266 -0.5776 -0.0385 -0.5174
  118MOL0     O15825  11.778   4.121   9.169  0.4875 -0.2433 -0.4472
  118MOL0     C15826  11.769   3.998   9.119  0.0982 -0.3297 -0.9975
  118MOL0     C15827  11.674   3.976   9.020 -0.3425 -0.4041  0.0335
  118MOL0     C15828  11.651   3.848   8.962 -0.8639  0.2168 -0.1954
  118MOL0     C15829  11.730   3.739   8.996 -0.4668 -0.2383 -0.2614
  118MOL0     O15830  11.726   3.621   8.939 -0.5865 -0.0580 -0.1550
  118MOL0     C15831  11.603   3.580   8.882  0.7627  0.0639  0.6239
  118MOL0     C15832  11.567   3.442   8.913 -0.2340  0.1835 -0.0356
  118MOL0     C15833  11.447   3.411   8.830 -0.2101  0.4295 -0.4087
  118MOL0     C15834  11.393   3.269   8.848 -0.8762  0.4644  0.2475
  118MOL0     C15835  11.333   3.247   8.982  0.2323 -0.2643 -0.8469
  118MOL0     C15836  11.268   3.109   8.986 -0.3401 -0.9343 -0.2873
  118MOL0     C15837  11.244   3.086   9.138 -0.2234 -0.5484 -0.3303
  118MOL0     C15838  11.159   2.958   9.162  0.6073  0.4227  0.6408
  118MOL0    Cl15839  11.269   2.824   9.143 -0.5759 -0.1373 -0.3989
  118MOL0     C15840  11.825   3.762   9.098 -0.3997  0.5112  0.6801
  118MOL0     C15841  11.849   3.887   9.161  0.0469 -0.5601  0.4802
  118MOL0     O15842  11.925   4.113   9.345 -0.8229 -0.3057  0.7748
  118MOL0     C15843  11.942   4.397   9.382 -0.0901  0.3898  0.2705
  118MOL0     C15844  11.929   4.538   9.419 -0.7652  0.4483  0.2335
  118MOL0     N15845  11.672   4.595   9.829 -0.8963  0.1322 -0.8901
  118MOL0     N15846  11.711   4.472   9.820  0.2486  0.0018  0.2150
  118MOL0     C15847  11.165   4.248   9.129 -1.3765 -0.6061  0.0885
  118MOL0     C15848  11.091   4.321   9.031  0.1604 -0.1745  0.2165
  118MOL0     C15849  11.025   4.439   8.574  0.4646 -0.2369 -0.0624
  118MOL0     C15850  10.889   4.448   8.598  0.9035 -0.7800  0.6374
  118MOL0     C15851  10.796   4.486   8.492  0.2435 -0.3657  0.0536
  118MOL0     C15852  10.843   4.501   8.362 -0.2632  0.7101  0.7433
  118MOL0     O15853  10.754   4.542   8.269  0.4876 -0.1764  0.5071
  118MOL0     C15854  10.655   4.446   8.232 -0.0070 -0.6781 -0.6759
  118MOL0     C15855  10.560   4.510   8.136  0.8311  1.0401  0.5090
  118MOL0     C15856  10.625   4.576   8.015 -0.1546 -0.4982  0.6937
  118MOL0     C15857  10.513   4.620   7.921 -0.7068  0.5274 -0.2119
  118MOL0     C15858  10.573   4.686   7.806 -0.6312  0.1424 -0.7953
  118MOL0     C15859  10.641   4.715   7.707  0.5428 -0.4905 -0.1086
  118MOL0     C15860  10.974   4.483   8.328  0.4716  0.7687 -0.5692
  118MOL0     C15861  11.059   4.458   8.432 -0.9180 -0.3582 -1.0291
  118MOL0     C15862  11.206   4.462   8.392 -0.4516 -0.3972  0.2541
  118MOL0     H15863  11.246   4.195   8.755  0.8965  1.3357 -0.0467
  118MOL0     H15864  11.364   4.063   8.925 -0.1703 -0.6572  3.1816
  118MOL0     H15865  11.450   4.215   9.291 -2.4161  1.4475 -1.7259
  118MOL0     H15866  11.300   4.140   9.368  0.3733 -4.0849  0.7097
  118MOL0     H15867  11.550   3.971   9.302  2.4381 -0.7053  3.2383
  118MOL0     H15868  11.413   3.931   9.406  0.7665 -1.6326 -0.6649
  118MOL0     H15869  11.474   4.135   9.550 -2.3639 -0.7900 -0.8307
  118MOL0     H15870  11.615   4.161   9.439  0.0584 -2.1632 -4.0069
  118MOL0     H15871  11.583   3.897   9.587 -1.2073  0.1172 -0.9471
  118MOL0     H15872  11.717   3.972   9.514 -1.9971 -2.7019 -2.6163
  118MOL0     H15873  11.583   4.086   9.771 -1.2297  1.2134 -1.4762
  118MOL0     H15874  11.729   3.996   9.760 -1.4779  0.6712  1.7626
  118MOL0     H15875  11.823   4.166   9.589 -0.5355 -0.1183 -0.6506
  118MOL0     H15876  11.688   4.266   9.648  1.3265  1.8089  1.8781
  118MOL0     H15877  11.904   4.128   9.824 -0.4857  0.1472  3.9509
  118MOL0     H15878  11.766   4.216   9.893 -0.6485 -1.0775 -1.7320
  118MOL0     H15879  11.987   4.351   9.885 -2.2518 -0.2954  1.4225
  118MOL0     H15880  11.981   4.339   9.708  2.1038 -0.3568  0.7233
  118MOL0     H15881  11.988   4.653   9.779 -1.0285  4.7184  2.9611
  118MOL0     H15882  11.668   4.848   9.850  0.4358 -0.1201 -0.0504
  118MOL0     H15883  11.826   4.873   9.883 -1.4540  0.5539  0.6405
  118MOL0     H15884  11.813   4.984   9.662  1.4191 -0.4344 -0.2815
  118MOL0     H15885  11.883   4.827   9.634  0.6836  2.2592 -1.1869
  118MOL0     H15886  11.594   4.921   9.580 -0.6616 -1.3661  2.4080
  118MOL0     H15887  11.624   4.747   9.579 -2.4876  1.7890  0.9686
  118MOL0     H15888  11.727   4.930   9.384 -2.4151 -0.4818  0.4508
  118MOL0     H15889  11.629   4.792   9.361  0.5559  1.0744 -1.8803
  118MOL0     H15890  11.661   4.622   9.252 -4.7920 -0.3784  3.3391
  118MOL0     H15891  11.645   4.362   9.213  1.5942  0.0157 -0.7441
  118MOL0     H15892  11.620   4.068   8.996  0.3546 -0.3386 -1.3209
  118MOL0     H15893  11.581   3.854   8.880  0.9292  2.2037 -1.6808
  118MOL0     H15894  11.519   3.634   8.927 -1.1706 -2.1633 -0.1105
  118MOL0     H15895  11.601   3.597   8.774 -0.0598 -2.1258  0.2418
  118MOL0     H15896  11.652   3.378   8.885 -0.0602  1.5384 -2.9808
  118MOL0     H15897  11.546   3.441   9.020  0.3034  0.4677  0.0751
  118MOL0     H15898  11.368   3.484   8.853 -1.4673 -0.5930 -1.3531
  118MOL0     H15899  11.462   3.426   8.723  2.9887 -0.3709 -0.1699
  118MOL0     H15900  11.471   3.195   8.831 -0.0621  1.5523 -0.9347
  118MOL0     H15901  11.315   3.254   8.774 -1.1864  0.4568  0.5761
  118MOL0     H15902  11.257   3.319   9.013 -0.0159  0.5101 -3.0264
  118MOL0     H15903  11.412   3.252   9.057  1.1372  2.7546 -1.8331
  118MOL0     H15904  11.173   3.105   8.932  0.7887  0.5719 -2.5145
  118MOL0     H15905  11.337   3.038   8.940  1.5653  0.1234  0.7928
  118MOL0     H15906  11.182   3.165   9.183  0.8226  1.0940 -1.6871
  118MOL0     H15907  11.337   3.066   9.192 -0.9033  0.4207  1.2663
  118MOL0     H15908  11.105   2.965   9.256 -2.7513 -4.2012 -0.5711
  118MOL0     H15909  11.078   2.953   9.088  0.7570  0.4471  0.4728
  118MOL0     H15910  11.890   3.679   9.124  0.8884  2.1018  3.0058
  118MOL0     H15911  11.931   3.899   9.231 -1.4067 -3.3417  2.8857
  118MOL0     H15912  12.029   4.339   9.412 -1.1544 -0.2319  2.3759
  118MOL0     H15913  12.013   4.594   9.460 -0.5366  0.0395  0.3343
  118MOL0     H15914  11.144   4.284   9.229  0.4190  3.3045 -0.7490
  118MOL0     H15915  11.022   4.394   9.071  0.0426  0.2377 -0.7089
  118MOL0     H15916  10.837   4.430   8.693 -4.1775 -0.7747 -1.7905
  118MOL0     H15917  10.690   4.477   8.511  0.3273  0.1962  0.8053
  118MOL0     H15918  10.590   4.425   8.318 -2.4085  0.2688 -2.1706
  118MOL0     H15919  10.693   4.354   8.185 -0.4498 -1.2726  0.0913
  118MOL0     H15920  10.517   4.597   8.187 -0.8902 -0.3450  1.5455
  118MOL0     H15921  10.478   4.443   8.111  0.8714  1.3844 -0.5698
  118MOL0     H15922  10.701   4.516   7.965  1.0150  0.8518  0.7979
  118MOL0     H15923  10.683   4.663   8.048  1.5550  0.3218 -3.8057
  118MOL0     H15924  10.451   4.534   7.892 -1.6614  1.1135  0.0299
  118MOL0     H15925  10.446   4.684   7.979  0.9279  0.3280  2.0207
  118MOL0     H15926  10.706   4.764   7.638 -0.2994 -1.7198 -1.8366
  118MOL0     H15927  11.019   4.498   8.230 -0.0169 -2.7515 -1.4866
  118MOL0     H15928  11.257   4.381   8.445  1.3848  0.7713  0.3714
  118MOL0     H15929  11.226   4.456   8.284 -0.7878 -1.2966  0.2326
  118MOL0     H15930  11.263   4.547   8.431  2.3604 -1.3579 -1.5072
  119MOL0     O15931   7.338   7.273  10.549 -0.4764  0.0926  0.2950
  119MOL0     C15932   7.228   7.273  10.502  0.5863  0.1742  0.4305
  119MOL0     O15933   7.186   7.345  10.396 -0.5377  0.2925 -0.0812
  119MOL0     C15934   7.286   7.428  10.346  0.3178  0.3467 -0.0185
  119MOL0     C15935   7.332   7.413  10.222 -1.1256  0.4850 -0.5387
  119MOL0     C15936   7.435   7.496  10.185  0.5100  0.3212 -0.0947
  119MOL0     C15937   7.469   7.603  10.256  0.3076  0.3798  0.0719
  119MOL0     O15938   7.575   7.679  10.204 -0.5881  0.1017  0.8370
  119MOL0     C15939   7.584   7.812  10.226 -0.8772 -0.2682  0.2998
  119MOL0     C15940   7.682   7.873  10.135  0.2214 -0.7727  1.5412
  119MOL0     C15941   7.715   8.020  10.159 -0.2254  0.4963 -0.2382
  119MOL0     C15942   7.610   8.113  10.088  0.1058  0.1083 -0.3433
  119MOL0     C15943   7.628   8.264  10.137  0.2059 -0.3159  0.1112
  119MOL0     C15944   7.538   8.352  10.067  0.2781  0.1379  0.0946
  119MOL0     C15945   7.497   8.488  10.150 -0.3204 -0.1530  0.3918
  119MOL0     C15946   7.607   8.581  10.190 -0.1316 -0.1703  0.6394
  119MOL0     N15947   7.691   8.618  10.073  0.5532 -0.7058  1.1120
  119MOL0     C15948   7.633   8.699   9.974  0.1669 -0.2988  0.0372
  119MOL0     C15949   7.714   8.695   9.872 -0.6750 -0.3608  0.3426
  119MOL0     C15950   7.715   8.775   9.749 -0.5056  0.2841  0.4432
  119MOL0     C15951   7.836   8.758   9.657 -1.0403  0.6393  0.6198
  119MOL0     C15952   7.818   8.820   9.513  0.7188  0.1121 -0.8460
  119MOL0     C15953   7.749   8.957   9.503 -0.5933  0.2423  0.0788
  119MOL0     O15954   7.833   9.062   9.561  0.4634 -0.3135 -0.3590
  119MOL0     C15955   7.771   9.187   9.584 -0.7548  0.1658  1.0475
  119MOL0     C15956   7.836   9.275   9.657 -0.7568 -0.9822 -0.6961
  119MOL0     C15957   7.802   9.410   9.670  0.0162  0.4940 -0.0449
  119MOL0     C15958   7.675   9.448   9.613  0.3511  0.1122 -0.4769
  119MOL0     C15959   7.628   9.582   9.621 -0.6365 -0.4562 -0.4246
  119MOL0     O15960   7.726   9.674   9.647  0.0436  0.3180  0.1095
  119MOL0     C15961   7.690   9.803   9.679 -1.1883  0.2180  0.3340
  119MOL0     C15962   7.636   9.880   9.582 -0.7499 -1.7941 -0.2081
  119MOL0     C15963   7.591  10.012   9.620 -0.1642 -0.1145  0.2263
  119MOL0     C15964   7.613  10.067   9.749  0.1103 -0.0540 -1.0903
  119MOL0     O15965   7.583  10.190   9.794  0.0924 -0.1474  0.0001
  119MOL0     C15966   7.559  10.294   9.698  0.3197  0.0499  0.8091
  119MOL0     C15967   7.415  10.307   9.641  0.2472  0.7420 -0.5104
  119MOL0     C15968   7.320  10.317   9.756 -0.2474  1.0864  0.3231
  119MOL0     C15969   7.185  10.314   9.694  0.5359  0.8627 -0.3116
  119MOL0     C15970   7.082  10.263   9.792 -0.4981 -1.1020 -0.2585
  119MOL0     C15971   6.944  10.274   9.747 -0.9270 -0.1572  0.1273
  119MOL0     C15972   6.846  10.252   9.861  0.8762  0.3577 -0.1043
  119MOL0     C15973   6.700  10.275   9.803 -0.0031  0.4111  0.3620
  119MOL0    Cl15974   6.596  10.215   9.941 -0.7435 -0.1057  0.0304
  119MOL0     C15975   7.676   9.981   9.844 -1.1572  0.3006  0.3850
  119MOL0     C15976   7.720   9.853   9.808 -0.1805 -0.1442  0.3045
  119MOL0     O15977   7.510   9.601   9.592 -0.9224  0.5566  0.1791
  119MOL0     C15978   7.605   9.354   9.543  0.6709 -0.1259  0.4760
  119MOL0     C15979   7.656   9.230   9.520 -0.5753 -0.7621 -0.3818
  119MOL0     N15980   7.810   8.608   9.900 -0.6524 -0.3427  0.5623
  119MOL0     N15981   7.799   8.567  10.019  0.2598  0.2502  0.1225
  119MOL0     C15982   7.403   7.636  10.375 -0.7238 -0.3491 -0.6912
  119MOL0     C15983   7.320   7.549  10.425  0.4534  0.7640  0.3780
  119MOL0     C15984   7.135   7.160  10.532  1.1078 -1.1309  0.5207
  119MOL0     C15985   7.005   7.165  10.473 -0.1377  0.4542  0.1473
  119MOL0     C15986   6.912   7.076  10.511 -0.1074  0.3095  0.5872
  119MOL0     C15987   6.955   6.962  10.590  1.0721  0.5604  0.4612
  119MOL0     O15988   6.861   6.858  10.604 -0.6326 -0.7808  0.1364
  119MOL0     C15989   6.881   6.738  10.682 -0.0271 -0.0218 -0.3809
  119MOL0     C15990   6.839   6.756  10.826 -0.1730 -0.3787  0.3505
  119MOL0     C15991   6.690   6.792  10.840  0.5567 -0.2030  0.2099
  119MOL0     C15992   6.580   6.720  10.934 -0.0645 -0.1189  0.1404
  119MOL0     C15993   6.634   6.704  11.070 -0.6378  0.0549  0.0010
  119MOL0     C15994   6.697   6.683  11.175  0.5584  0.3674  0.5561
  119MOL0     C15995   7.078   6.954  10.641 -0.2049 -0.3442  0.6193
  119MOL0     C15996   7.166   7.052  10.625  0.4502 -0.0516 -1.0391
  119MOL0     C15997   7.301   7.029  10.691 -0.4052 -0.0263  0.2300
  119MOL0     H15998   7.298   7.327  10.165 -3.4312  0.6396  0.4847
  119MOL0     H15999   7.475   7.496  10.084  1.8062 -1.2117  0.3822
  119MOL0     H16000   7.487   7.862  10.214  0.0990  1.9545  1.0822
  119MOL0     H16001   7.618   7.832  10.328 -1.6965 -0.2658  0.5753
  119MOL0     H16002   7.655   7.860  10.030  0.9691 -1.4378  1.4232
  119MOL0     H16003   7.779   7.824  10.149 -0.8643 -3.7897 -0.6352
  119MOL0     H16004   7.822   8.032  10.135 -0.6023  1.5374 -1.5251
  119MOL0     H16005   7.701   8.035  10.266 -1.4286  3.4808 -0.6976
  119MOL0     H16006   7.615   8.107   9.979  4.3867 -2.0426 -0.2504
  119MOL0     H16007   7.506   8.087  10.107  0.0637  0.2626 -0.3623
  119MOL0     H16008   7.598   8.262  10.242  0.4376  0.0500  0.1851
  119MOL0     H16009   7.732   8.296  10.134  0.2271 -0.3470  0.4715
  119MOL0     H16010   7.582   8.376   9.970 -1.9557 -0.5581 -1.1614
  119MOL0     H16011   7.441   8.308  10.041  1.0401 -1.3180 -0.4102
  119MOL0     H16012   7.436   8.450  10.233 -2.0001  0.0146 -0.7033
  119MOL0     H16013   7.429   8.532  10.076  0.3060 -1.1008 -0.7850
  119MOL0     H16014   7.562   8.667  10.240  1.5846  0.3612  1.3417
  119MOL0     H16015   7.669   8.522  10.259 -1.2128 -1.1159  0.8419
  119MOL0     H16016   7.540   8.755   9.979  0.3563  0.0125  0.0640
  119MOL0     H16017   7.637   8.744   9.680  0.3786  0.9387 -0.9014
  119MOL0     H16018   7.697   8.880   9.776 -2.4532  0.8729 -2.6185
  119MOL0     H16019   7.924   8.796   9.710  0.0151  3.9381 -2.9870
  119MOL0     H16020   7.844   8.651   9.636 -0.5653  1.1933 -2.6035
  119MOL0     H16021   7.766   8.742   9.457  0.8874 -2.0464  1.7597
  119MOL0     H16022   7.917   8.826   9.467  1.4541  0.0956  0.6525
  119MOL0     H16023   7.648   8.963   9.546 -0.7175  2.6180 -0.4247
  119MOL0     H16024   7.739   8.960   9.394 -1.4126  2.7238  0.1739
  119MOL0     H16025   7.909   9.233   9.725  1.4685  0.1247 -2.2733
  119MOL0     H16026   7.837   9.483   9.742 -4.4595 -0.6841  3.8351
  119MOL0     H16027   7.616   9.842   9.482  1.9836  2.9263 -2.9458
  119MOL0     H16028   7.539  10.062   9.539 -1.5043 -3.9989 -1.5413
  119MOL0     H16029   7.575  10.392   9.744 -1.7055  0.7546  0.1014
  119MOL0     H16030   7.632  10.281   9.618 -0.2443 -1.0617  0.4591
  119MOL0     H16031   7.411  10.394   9.576  0.8741  2.2905  1.4069
  119MOL0     H16032   7.406  10.212   9.587  5.1578 -0.9489  1.0474
  119MOL0     H16033   7.347  10.228   9.814  0.1986 -0.5078 -2.1876
  119MOL0     H16034   7.340  10.409   9.813 -0.2541  0.0977  1.9763
  119MOL0     H16035   7.173  10.243   9.612  1.0383 -0.9773  1.1480
  119MOL0     H16036   7.164  10.419   9.671  0.6394  1.5506  2.3627
  119MOL0     H16037   7.095  10.331   9.878  2.2673 -1.2203 -0.4840
  119MOL0     H16038   7.106  10.163   9.829  2.2611 -0.4361  0.0094
  119MOL0     H16039   6.937  10.365   9.687  2.9321  1.0069  1.1526
  119MOL0     H16040   6.926  10.199   9.669  1.6574  0.2089 -0.9522
  119MOL0     H16041   6.862  10.310   9.953 -1.1173 -0.9982  1.1836
  119MOL0     H16042   6.860  10.150   9.897  4.6621  0.6987 -0.1842
  119MOL0     H16043   6.688  10.382   9.784  0.7874  0.1042 -2.1307
  119MOL0     H16044   6.677  10.223   9.710  1.5249  2.4536 -1.2747
  119MOL0     H16045   7.693  10.014   9.946 -2.5814  4.4384 -0.4790
  119MOL0     H16046   7.753   9.785   9.886 -3.8529  1.0876  3.2817
  119MOL0     H16047   7.516   9.384   9.488  1.2275  2.1120  0.7009
  119MOL0     H16048   7.619   9.167   9.440  0.3486 -0.0997 -1.3632
  119MOL0     H16049   7.428   7.729  10.426  2.0706  0.2334 -2.8652
  119MOL0     H16050   7.269   7.557  10.520  0.6012  0.8472  0.4500
  119MOL0     H16051   6.965   7.243  10.409 -2.5997 -0.7896  0.0591
  119MOL0     H16052   6.809   7.084  10.479  0.3840 -1.9154 -1.9175
  119MOL0     H16053   6.984   6.701  10.680 -0.5899 -1.7059  0.2627
  119MOL0     H16054   6.837   6.650  10.636 -2.7197  0.6477  0.7478
  119MOL0     H16055   6.911   6.830  10.860  0.0272  0.9313 -2.6381
  119MOL0     H16056   6.853   6.662  10.880 -3.3631 -0.6591  0.8820
  119MOL0     H16057   6.652   6.775  10.738  0.6195 -1.0843  0.3210
  119MOL0     H16058   6.688   6.899  10.859  0.8851  0.0609 -1.1301
  119MOL0     H16059   6.498   6.793  10.927  0.5208  0.5897  0.5152
  119MOL0     H16060   6.542   6.628  10.889 -3.7055  1.0193  0.5305
  119MOL0     H16061   6.738   6.654  11.270  0.4324 -0.8069  0.2625
  119MOL0     H16062   7.101   6.866  10.700 -0.7172 -0.5281  0.5488
  119MOL0     H16063   7.334   7.126  10.732 -3.6004  0.2115  2.6447
  119MOL0     H16064   7.310   6.956  10.772  1.0301  0.1145  0.2183
  119MOL0     H16065   7.371   7.004  10.611  1.8146  2.1901  1.3445
  120MOL0     O16066   4.592   8.190   3.057 -0.4642  0.4536  0.2442
  120MOL0     C16067   4.713   8.149   3.055 -0.5708 -0.7618 -0.1888
  120MOL0     O16068   4.771   8.074   2.950 -0.7255 -0.2254 -0.0611
  120MOL0     C16069   4.720   8.061   2.824 -0.2640  0.1920 -0.0396
  120MOL0     C16070   4.813   8.066   2.713  0.6013  0.2265 -0.6426
  120MOL0     C16071   4.772   8.062   2.577  0.0410 -0.0204  0.3758
  120MOL0     C16072   4.629   8.049   2.556  0.7290  0.4887 -0.5786
  120MOL0     O16073   4.557   8.063   2.439  0.0034 -0.7139 -0.4406
  120MOL0     C16074   4.627   8.054   2.312 -0.0106  0.2684  0.6530
  120MOL0     C16075   4.553   7.974   2.212 -0.2171  0.6149  1.5156
  120MOL0     C16076   4.624   7.959   2.076 -0.1507  2.4315 -0.6589
  120MOL0     C16077   4.731   7.855   2.098  0.4219 -0.2167 -0.4748
  120MOL0     C16078   4.793   7.829   1.966  0.2729 -0.3642 -0.1338
  120MOL0     C16079   4.932   7.769   1.999 -0.6417  0.2291  0.0100
  120MOL0     C16080   5.003   7.730   1.864 -0.6011 -0.6298 -0.6429
  120MOL0     C16081   5.162   7.714   1.878  1.1120  0.5616  0.5152
  120MOL0     N16082   5.183   7.584   1.946  0.4927 -0.1468 -0.7598
  120MOL0     C16083   5.285   7.495   1.930  0.6742  1.2797  0.4643
  120MOL0     C16084   5.280   7.408   2.034  0.3279 -0.3780 -0.3414
  120MOL0     C16085   5.383   7.303   2.077  0.6022 -0.5723 -0.5221
  120MOL0     C16086   5.498   7.354   2.157  0.3860  0.9475 -0.5097
  120MOL0     C16087   5.601   7.238   2.206  0.0885 -0.1330 -0.0048
  120MOL0     C16088   5.692   7.312   2.312  0.4084  0.0614 -0.1659
  120MOL0     O16089   5.624   7.342   2.432 -0.0761 -0.6121  0.0225
  120MOL0     C16090   5.580   7.233   2.497 -0.5176  0.2636 -0.4717
  120MOL0     C16091   5.672   7.142   2.560  0.3344  0.4500 -0.8106
  120MOL0     C16092   5.620   7.044   2.633  0.0493  1.1979 -0.2294
  120MOL0     C16093   5.484   7.022   2.645 -0.4053  1.2820  0.2439
  120MOL0     C16094   5.438   6.899   2.711  0.0441  1.8215 -0.9594
  120MOL0     O16095   5.308   6.857   2.687  0.0104 -0.2961 -0.0203
  120MOL0     C16096   5.266   6.751   2.752  0.1768  0.1754  0.3482
  120MOL0     C16097   5.305   6.626   2.704  0.9256  1.0110 -1.1986
  120MOL0     C16098   5.225   6.516   2.733  0.0702  0.3778  0.7936
  120MOL0     C16099   5.112   6.527   2.816  0.5246  0.1739  0.1450
  120MOL0     O16100   5.019   6.426   2.846 -0.4555  0.0013  0.2349
  120MOL0     C16101   4.999   6.323   2.755  0.1234 -0.3586 -0.3056
  120MOL0     C16102   4.919   6.384   2.633  0.0175  0.2479 -0.1393
  120MOL0     C16103   4.769   6.423   2.668  0.8456  0.3429  0.7980
  120MOL0     C16104   4.693   6.502   2.564  0.2292  0.0329  0.8306
  120MOL0     C16105   4.608   6.413   2.473 -0.0871  0.2945 -1.3191
  120MOL0     C16106   4.533   6.508   2.377  0.2655  0.2129 -0.0327
  120MOL0     C16107   4.424   6.436   2.296  0.0090 -0.2021 -0.1768
  120MOL0     C16108   4.322   6.539   2.263 -0.2003  1.0506  0.7393
  120MOL0    Cl16109   4.198   6.445   2.170 -0.0570 -0.0310 -0.7338
  120MOL0     C16110   5.084   6.652   2.879 -0.3066 -0.1734  0.4521
  120MOL0     C16111   5.158   6.763   2.841 -0.9630  0.3059 -0.4903
  120MOL0     O16112   5.517   6.829   2.780  0.2303  0.2032 -0.0999
  120MOL0     C16113   5.394   7.111   2.588  0.6564  0.7548  0.5214
  120MOL0     C16114   5.437   7.206   2.500  1.0375  1.0237 -0.2358
  120MOL0     N16115   5.173   7.443   2.104  0.1398 -0.0426 -1.1273
  120MOL0     N16116   5.114   7.551   2.062 -0.4636 -0.2924 -0.0880
  120MOL0     C16117   4.541   8.033   2.661 -0.9811 -0.3107 -0.9723
  120MOL0     C16118   4.586   8.038   2.793 -0.8274  0.3012 -0.3874
  120MOL0     C16119   4.786   8.166   3.187  0.3340 -0.1242 -0.4643
  120MOL0     C16120   4.741   8.108   3.307 -0.5493 -0.2064 -0.7026
  120MOL0     C16121   4.822   8.100   3.422 -0.0721  0.1270  0.0579
  120MOL0     C16122   4.950   8.154   3.424  0.3492 -0.9457  0.0129
  120MOL0     O16123   5.020   8.150   3.546 -0.6258 -0.4926  0.1977
  120MOL0     C16124   5.167   8.135   3.546 -0.6808 -0.0578 -0.1509
  120MOL0     C16125   5.199   8.010   3.625  0.2128  0.6392  0.4526
  120MOL0     C16126   5.328   7.936   3.578 -0.1641  0.1842 -0.2575
  120MOL0     C16127   5.330   7.893   3.430  0.4372 -0.2018  0.0801
  120MOL0     C16128   5.228   7.788   3.399 -0.7963 -0.1204 -0.7666
  120MOL0     C16129   5.156   7.694   3.368 -0.6213 -0.3924  0.2003
  120MOL0     C16130   4.996   8.218   3.312  0.2592 -0.5150  0.1230
  120MOL0     C16131   4.918   8.217   3.192 -1.6195 -0.7873  0.3932
  120MOL0     C16132   4.987   8.275   3.061 -0.8990 -0.3357 -0.6311
  120MOL0     H16133   4.920   8.076   2.724  0.3348  0.2305  4.0234
  120MOL0     H16134   4.840   8.066   2.492 -2.7045 -3.9057 -2.4180
  120MOL0     H16135   4.638   8.154   2.270 -1.9942  0.4031  0.3805
  120MOL0     H16136   4.724   8.004   2.319 -0.0669 -0.5859 -2.8688
  120MOL0     H16137   4.462   8.023   2.176  0.7819 -1.1095 -4.5682
  120MOL0     H16138   4.514   7.879   2.251 -0.0023 -0.5873 -1.0043
  120MOL0     H16139   4.663   8.055   2.041 -0.3177  1.6320 -3.2341
  120MOL0     H16140   4.555   7.926   1.998 -1.4061  0.4741  1.1556
  120MOL0     H16141   4.792   7.889   2.182 -2.3900  2.3773  0.7112
  120MOL0     H16142   4.690   7.765   2.146 -0.7321  0.5202 -0.0227
  120MOL0     H16143   4.730   7.758   1.912 -0.2800  0.5021 -0.6533
  120MOL0     H16144   4.814   7.915   1.902  1.5732 -1.8265 -1.7560
  120MOL0     H16145   4.999   7.838   2.049  0.8559  0.1474 -1.7641
  120MOL0     H16146   4.920   7.685   2.068  0.0864  1.8663  2.2342
  120MOL0     H16147   5.000   7.822   1.805  1.5053 -0.4240 -0.4988
  120MOL0     H16148   4.961   7.641   1.817  1.1997 -1.1278 -1.3634
  120MOL0     H16149   5.213   7.708   1.781 -0.2230 -2.4646 -0.1172
  120MOL0     H16150   5.193   7.797   1.943  1.7637  2.0493 -1.5761
  120MOL0     H16151   5.355   7.488   1.848  0.2227  0.7843  0.1130
  120MOL0     H16152   5.326   7.221   2.121 -1.1256  0.3355 -0.9817
  120MOL0     H16153   5.433   7.272   1.985  0.9583 -1.2449 -0.1096
  120MOL0     H16154   5.549   7.435   2.105  1.2836 -1.0400 -2.9289
  120MOL0     H16155   5.464   7.397   2.251  0.9529 -1.9229  1.1235
  120MOL0     H16156   5.668   7.220   2.121  0.6465  3.2624 -0.4087
  120MOL0     H16157   5.545   7.153   2.244  0.5184 -0.6426 -0.4816
  120MOL0     H16158   5.706   7.412   2.268  0.0784  0.3629  0.3964
  120MOL0     H16159   5.787   7.264   2.335  1.8617  3.2695  1.1030
  120MOL0     H16160   5.780   7.148   2.557  0.4201 -0.5608 -0.2685
  120MOL0     H16161   5.680   6.972   2.688 -0.6214  1.1939  0.5102
  120MOL0     H16162   5.378   6.621   2.624  1.2670  0.5067 -0.8632
  120MOL0     H16163   5.247   6.418   2.692 -2.6476 -0.3118  0.7882
  120MOL0     H16164   5.097   6.287   2.724  2.1406  3.5472  0.8586
  120MOL0     H16165   4.942   6.238   2.794 -0.5547  0.1680 -0.1366
  120MOL0     H16166   4.970   6.478   2.609 -0.6117  0.7755  0.5524
  120MOL0     H16167   4.911   6.314   2.549 -1.4273 -1.9829  1.7316
  120MOL0     H16168   4.705   6.337   2.688  0.4023  0.5146  0.1312
  120MOL0     H16169   4.766   6.478   2.763  2.3196  0.2421  0.9365
  120MOL0     H16170   4.760   6.557   2.498 -1.5513 -1.0215 -2.0663
  120MOL0     H16171   4.627   6.574   2.613  0.1444  1.4774 -1.2423
  120MOL0     H16172   4.549   6.348   2.539  3.7362 -2.9035 -0.6956
  120MOL0     H16173   4.686   6.353   2.427  2.5707  2.3230  0.2481
  120MOL0     H16174   4.495   6.592   2.435  1.4563  0.2647  0.6991
  120MOL0     H16175   4.597   6.564   2.309 -0.9365 -0.3710 -1.7316
  120MOL0     H16176   4.369   6.360   2.352 -1.4123 -0.2912 -1.6255
  120MOL0     H16177   4.468   6.397   2.204 -2.0502 -3.6253  0.1454
  120MOL0     H16178   4.289   6.590   2.354  1.2144  0.1025  1.8344
  120MOL0     H16179   4.362   6.623   2.207  1.2117  1.1747  1.8745
  120MOL0     H16180   5.001   6.662   2.949  0.9763 -0.2380  2.0353
  120MOL0     H16181   5.143   6.855   2.897  3.1349  1.1646 -0.5309
  120MOL0     H16182   5.294   7.067   2.581  1.4947 -1.5053  1.6978
  120MOL0     H16183   5.377   7.278   2.445 -0.7764  0.8898  1.4492
  120MOL0     H16184   4.436   8.022   2.636 -1.1749 -3.5408  0.6925
  120MOL0     H16185   4.515   8.031   2.875 -1.1751  0.3105 -0.6870
  120MOL0     H16186   4.640   8.072   3.325 -0.1282 -1.6284 -1.0462
  120MOL0     H16187   4.794   8.041   3.508  0.6691  0.4417  0.5202
  120MOL0     H16188   5.215   8.217   3.601  0.6256 -1.1476  0.4009
  120MOL0     H16189   5.225   8.136   3.453 -0.0682  1.3248  0.2267
  120MOL0     H16190   5.117   7.939   3.613  1.0577 -0.3069  0.1670
  120MOL0     H16191   5.203   8.033   3.732 -2.0750  0.8753  0.5402
  120MOL0     H16192   5.338   7.851   3.646  1.5288 -1.3602 -2.3083
  120MOL0     H16193   5.411   8.003   3.605  1.7375 -0.6694 -3.4831
  120MOL0     H16194   5.309   7.973   3.358 -1.9971  0.8560  1.8432
  120MOL0     H16195   5.429   7.851   3.411 -0.1149 -2.2322  1.4133
  120MOL0     H16196   5.107   7.603   3.341 -2.8712  0.4294  1.3142
  120MOL0     H16197   5.093   8.265   3.307  0.1548 -0.2051  0.9522
  120MOL0     H16198   5.042   8.198   3.007 -1.9158 -0.8280 -1.0057
  120MOL0     H16199   4.901   8.288   2.994 -2.2207 -0.2109  1.0098
  120MOL0     H16200   5.037   8.371   3.067  0.6489 -1.0486 -1.6070
  121MOL0     O16201   1.921   7.715   9.350 -1.2268  1.0538 -0.0757
  121MOL0     C16202   1.906   7.725   9.466 -1.2448  0.8366  0.0466
  121MOL0     O16203   1.789   7.714   9.530  0.2381 -0.1854 -0.5741
  121MOL0     C16204   1.682   7.658   9.459 -0.0956  0.7685  0.5354
  121MOL0     C16205   1.556   7.724   9.476 -0.2346 -0.0804  0.5420
  121MOL0     C16206   1.438   7.687   9.411 -0.1438 -0.4868 -0.5355
  121MOL0     C16207   1.435   7.572   9.327 -0.4041 -0.3171  0.2395
  121MOL0     O16208   1.330   7.522   9.256  0.1203 -0.4186  0.2432
  121MOL0     C16209   1.202   7.586   9.280  0.5607 -0.6508  0.2399
  121MOL0     C16210   1.089   7.508   9.211 -0.1750 -0.1959  0.1268
  121MOL0     C16211   0.950   7.567   9.223 -0.0886  0.9627  0.0324
  121MOL0     C16212   0.843   7.482   9.148 -0.4555 -0.8424  0.7722
  121MOL0     C16213   0.704   7.527   9.185 -0.2513  0.6958  0.1865
  121MOL0     C16214   0.601   7.433   9.119  0.3881 -0.5711 -0.7811
  121MOL0     C16215   0.446   7.470   9.140 -0.7379 -0.0478  0.5695
  121MOL0     C16216   0.379   7.405   9.257  0.6965  0.1655 -0.2115
  121MOL0     N16217   0.231   7.402   9.222 -0.3044 -0.5125 -0.2334
  121MOL0     C16218   0.123   7.485   9.264  0.0825  0.1408  0.5221
  121MOL0     C16219   0.009   7.425   9.229 -0.3142 -0.2087 -0.5894
  121MOL0     C16220  -0.137   7.473   9.242  0.0665 -0.5342  0.9113
  121MOL0     C16221  -0.151   7.618   9.179 -0.7183  0.2405  0.4577
  121MOL0     C16222  -0.290   7.686   9.215  0.0685 -0.0480  0.4496
  121MOL0     C16223  -0.418   7.630   9.163  0.5699 -0.7909  0.5283
  121MOL0     O16224  -0.461   7.517   9.253 -0.5146  0.3511 -0.2509
  121MOL0     C16225  -0.561   7.437   9.205 -0.8178 -0.1795 -0.9600
  121MOL0     C16226  -0.633   7.356   9.300  0.3781  0.3683  0.3705
  121MOL0     C16227  -0.739   7.278   9.254  0.0810 -0.6438  0.9303
  121MOL0     C16228  -0.767   7.278   9.116 -0.4266 -0.0595 -0.4732
  121MOL0     C16229  -0.873   7.191   9.071 -0.7037 -0.3287  0.4545
  121MOL0     O16230  -0.868   7.070   9.129  0.3481  0.1365 -0.3858
  121MOL0     C16231  -0.933   6.960   9.081  0.2900 -0.1319 -0.3308
  121MOL0     C16232  -0.856   6.849   9.037 -0.5797  1.5897 -0.1093
  121MOL0     C16233  -0.909   6.717   9.022 -0.4946 -0.1711  0.2261
  121MOL0     C16234  -1.043   6.694   9.045  0.3493  0.6135  0.2710
  121MOL0     O16235  -1.103   6.569   9.037  0.1121  0.2426 -0.1179
  121MOL0     C16236  -1.012   6.458   9.059 -0.0495 -0.2300  0.0018
  121MOL0     C16237  -1.094   6.334   9.065  1.4040 -0.1069 -0.0344
  121MOL0     C16238  -1.007   6.210   9.076 -0.3108  0.0516 -0.4395
  121MOL0     C16239  -1.092   6.085   9.105 -0.8590 -0.0868 -0.7948
  121MOL0     C16240  -1.195   6.058   8.989  0.8138  0.3152  0.5240
  121MOL0     C16241  -1.225   5.912   8.983 -0.8785  0.4248 -0.0835
  121MOL0     C16242  -1.363   5.903   8.906  0.3444 -0.2673  0.3483
  121MOL0     C16243  -1.420   5.762   8.924 -0.6000 -0.2889 -0.3169
  121MOL0    Cl16244  -1.310   5.643   8.855 -0.0564 -0.6780  0.1126
  121MOL0     C16245  -1.127   6.811   9.061 -0.6740 -0.5026  1.4398
  121MOL0     C16246  -1.073   6.940   9.081  0.1130 -0.4080  1.5704
  121MOL0     O16247  -0.936   7.206   8.968  0.2333 -0.2194 -0.0252
  121MOL0     C16248  -0.683   7.340   9.026 -0.6714 -0.3232  0.9909
  121MOL0     C16249  -0.584   7.419   9.078  0.8916  0.1923 -0.6277
  121MOL0     N16250   0.044   7.314   9.152 -0.3791 -0.1550  0.1096
  121MOL0     N16251   0.177   7.295   9.161 -0.1642  0.0847 -0.6321
  121MOL0     C16252   1.555   7.502   9.310  0.2177  0.0709  0.0130
  121MOL0     C16253   1.678   7.543   9.379  1.5135 -0.4884 -0.2610
  121MOL0     C16254   2.025   7.777   9.547  0.8219  0.4510 -0.4821
  121MOL0     C16255   2.142   7.779   9.475 -0.8025  0.2218 -0.2951
  121MOL0     C16256   2.262   7.826   9.525  0.6158 -0.1405 -0.2383
  121MOL0     C16257   2.265   7.882   9.655  0.0203 -0.1469  0.1259
  121MOL0     O16258   2.378   7.942   9.707 -0.1418 -0.3888  0.0359
  121MOL0     C16259   2.364   8.080   9.738 -0.4684 -0.3868  0.6329
  121MOL0     C16260   2.462   8.099   9.854  1.2907 -0.4971  0.1330
  121MOL0     C16261   2.612   8.087   9.817  0.0725  0.0003 -0.0644
  121MOL0     C16262   2.700   8.157   9.919 -0.2566 -0.3289  0.4010
  121MOL0     C16263   2.698   8.094  10.051 -0.6626 -0.9958 -0.5884
  121MOL0     C16264   2.695   8.033  10.156 -0.3260 -0.0380 -0.2803
  121MOL0     C16265   2.147   7.877   9.731 -0.4960 -0.2604 -1.1895
  121MOL0     C16266   2.023   7.826   9.680  0.4502 -0.3662 -0.3557
  121MOL0     C16267   1.901   7.826   9.776 -0.1294 -0.0289 -0.1744
  121MOL0     H16268   1.539   7.806   9.545 -4.8051 -0.0857 -0.3078
  121MOL0     H16269   1.346   7.743   9.424  0.2192  0.1971 -0.8463
  121MOL0     H16270   1.198   7.582   9.389 -2.0110 -0.5198  0.2198
  121MOL0     H16271   1.195   7.690   9.249 -0.0993 -0.5656  0.6573
  121MOL0     H16272   1.094   7.406   9.249 -0.2986 -0.3593 -0.2874
  121MOL0     H16273   1.116   7.514   9.105 -0.1621  1.1944  0.1894
  121MOL0     H16274   0.962   7.663   9.173 -0.4377 -0.7543 -3.6507
  121MOL0     H16275   0.919   7.570   9.328 -0.1091  0.9276  0.0284
  121MOL0     H16276   0.851   7.492   9.040  1.6249 -3.1303  0.6236
  121MOL0     H16277   0.869   7.377   9.162  0.6034 -0.8754 -1.1260
  121MOL0     H16278   0.696   7.518   9.293 -0.1905 -0.6300  0.0982
  121MOL0     H16279   0.678   7.630   9.160  0.3247  1.0541  0.9994
  121MOL0     H16280   0.617   7.420   9.012 -0.6112 -5.2411 -0.5987
  121MOL0     H16281   0.618   7.336   9.167  1.2933 -0.2299 -0.3828
  121MOL0     H16282   0.406   7.449   9.041 -1.0708  0.2659  0.6319
  121MOL0     H16283   0.437   7.578   9.156 -1.9927 -0.0905  0.2047
  121MOL0     H16284   0.412   7.306   9.289 -0.2528  0.8507  3.2804
  121MOL0     H16285   0.397   7.467   9.345 -0.7045  1.1551 -0.5886
  121MOL0     H16286   0.130   7.588   9.298  0.7508  0.1807  0.2952
  121MOL0     H16287  -0.212   7.426   9.177 -0.6127 -0.9919  1.9980
  121MOL0     H16288  -0.176   7.479   9.344 -2.3474 -0.2095  0.0500
  121MOL0     H16289  -0.069   7.677   9.220 -1.6388  2.0705 -0.2189
  121MOL0     H16290  -0.135   7.612   9.070  1.7033 -4.2517  0.8341
  121MOL0     H16291  -0.292   7.792   9.188 -0.1589 -0.7112 -2.3974
  121MOL0     H16292  -0.300   7.694   9.324 -0.8893 -0.3946  0.3892
  121MOL0     H16293  -0.401   7.587   9.064  2.6140 -0.8840  0.8750
  121MOL0     H16294  -0.497   7.706   9.156 -0.0299 -1.5505 -2.0642
  121MOL0     H16295  -0.608   7.371   9.404  3.3398 -1.2507  0.0328
  121MOL0     H16296  -0.799   7.212   9.315  0.4341 -1.2454  0.6386
  121MOL0     H16297  -0.748   6.856   9.032 -0.5888  2.8053  0.8922
  121MOL0     H16298  -0.841   6.641   8.985 -3.1283 -2.7255  0.3267
  121MOL0     H16299  -0.930   6.451   8.987  0.8604  0.8234  0.9069
  121MOL0     H16300  -0.961   6.474   9.154 -1.8315 -1.0594  1.1664
  121MOL0     H16301  -1.142   6.336   9.163 -1.3551 -1.4123 -1.2511
  121MOL0     H16302  -1.174   6.329   8.990 -0.1369 -1.8744  1.6395
  121MOL0     H16303  -0.957   6.205   8.979 -1.1003  3.8127 -1.2208
  121MOL0     H16304  -0.930   6.215   9.154  0.2631 -1.7653 -0.8502
  121MOL0     H16305  -1.143   6.081   9.201  4.2033  3.0375  2.4622
  121MOL0     H16306  -1.018   6.004   9.103  0.9858  1.5288 -1.2960
  121MOL0     H16307  -1.148   6.087   8.895  3.2494 -1.7728  1.0009
  121MOL0     H16308  -1.290   6.109   9.010 -1.6933 -3.2584 -1.1155
  121MOL0     H16309  -1.141   5.872   8.925 -0.5915 -0.1825  0.7322
  121MOL0     H16310  -1.223   5.872   9.085  3.1970  2.8649  1.0444
  121MOL0     H16311  -1.348   5.937   8.803 -1.1845  1.1520  0.5449
  121MOL0     H16312  -1.435   5.971   8.953  3.9234  2.8912  1.8033
  121MOL0     H16313  -1.431   5.744   9.032  1.5454 -0.9779 -0.1553
  121MOL0     H16314  -1.515   5.751   8.872 -0.2475 -0.5660 -0.9149
  121MOL0     H16315  -1.235   6.802   9.069 -0.5948 -0.6264  2.5379
  121MOL0     H16316  -1.134   7.029   9.090  2.5544  1.5330  0.2071
  121MOL0     H16317  -0.700   7.321   8.920 -0.7983  2.9931  0.3173
  121MOL0     H16318  -0.515   7.444   8.998  1.6854  0.0723 -0.0009
  121MOL0     H16319   1.552   7.422   9.236  3.5189 -0.6927  0.5744
  121MOL0     H16320   1.774   7.498   9.358  0.7809 -1.3039 -2.0503
  121MOL0     H16321   2.161   7.738   9.377 -0.8156  0.4370 -0.3879
  121MOL0     H16322   2.354   7.821   9.468  1.0953  0.4840  0.4681
  121MOL0     H16323   2.263   8.097   9.778  0.1369 -3.0949  3.6894
  121MOL0     H16324   2.378   8.141   9.649  0.8614 -2.3693 -0.5972
  121MOL0     H16325   2.434   8.033   9.936  3.7043  1.4642  2.7567
  121MOL0     H16326   2.443   8.198   9.896  1.6048 -1.7730  3.5734
  121MOL0     H16327   2.636   8.130   9.719  0.9892 -1.4644 -0.5289
  121MOL0     H16328   2.639   7.982   9.800  1.5609  0.1575  1.1350
  121MOL0     H16329   2.800   8.160   9.874 -1.5299  0.1481 -2.5980
  121MOL0     H16330   2.670   8.262   9.929  2.9648  0.6301  1.2042
  121MOL0     H16331   2.695   7.976  10.246 -4.5719 -0.5727 -0.3843
  121MOL0     H16332   2.150   7.909   9.835 -3.5740 -2.2902 -0.3526
  121MOL0     H16333   1.907   7.896   9.860 -1.9300 -2.1320  1.8559
  121MOL0     H16334   1.822   7.853   9.706 -0.1125 -1.1332 -0.6406
  121MOL0     H16335   1.887   7.720   9.802  3.7951 -0.9931 -1.2420
  122MOL0     O16336   6.826   4.098   1.912 -0.1721 -0.1777  0.7360
  122MOL0     C16337   6.724   4.146   1.863  0.1589  0.2537 -0.1826
  122MOL0     O16338   6.656   4.089   1.759 -0.0694  0.0672 -0.5605
  122MOL0     C16339   6.668   3.946   1.754  0.9403 -0.5159  0.0141
  122MOL0     C16340   6.647   3.886   1.628  0.3018  0.6218  0.0841
  122MOL0     C16341   6.685   3.751   1.610  0.4167 -0.3353 -1.2838
  122MOL0     C16342   6.696   3.667   1.721  0.9334 -0.2823  0.8982
  122MOL0     O16343   6.707   3.528   1.717  0.3033  0.1478  0.7941
  122MOL0     C16344   6.791   3.474   1.611  0.2391 -0.2995  0.4912
  122MOL0     C16345   6.817   3.343   1.665  0.7446  0.5463  0.1691
  122MOL0     C16346   6.859   3.234   1.570 -0.0133 -0.1141 -0.6963
  122MOL0     C16347   7.003   3.253   1.503 -0.5382 -0.7721 -0.2010
  122MOL0     C16348   7.017   3.193   1.370 -0.4334 -0.5827  0.1508
  122MOL0     C16349   7.166   3.208   1.325 -0.8622 -0.5165 -0.3102
  122MOL0     C16350   7.200   3.139   1.183 -0.3619  0.4180 -0.0042
  122MOL0     C16351   7.169   2.989   1.195  0.1742  0.6920  0.5506
  122MOL0     N16352   7.234   2.922   1.305  0.0452  0.3173  0.0659
  122MOL0     C16353   7.371   2.915   1.326  0.7517  0.1086 -0.1436
  122MOL0     C16354   7.382   2.864   1.449 -0.0070  0.6109 -0.5651
  122MOL0     C16355   7.510   2.822   1.525  0.0108 -0.4612 -0.0274
  122MOL0     C16356   7.499   2.669   1.554  0.0134 -0.2916 -0.4917
  122MOL0     C16357   7.455   2.583   1.435  0.1739  0.4174 -0.2502
  122MOL0     C16358   7.482   2.435   1.442  0.6934 -0.3205  0.5946
  122MOL0     O16359   7.464   2.382   1.577  0.0455  0.1728  0.0999
  122MOL0     C16360   7.338   2.379   1.634  0.7414  0.0094 -0.1320
  122MOL0     C16361   7.334   2.418   1.767 -0.5379  0.2935  0.0030
  122MOL0     C16362   7.212   2.443   1.831 -0.2511  0.0961  0.2026
  122MOL0     C16363   7.095   2.398   1.767  0.4069  0.7020 -0.1896
  122MOL0     C16364   6.966   2.415   1.839  0.9622 -0.3098 -0.1185
  122MOL0     O16365   6.972   2.460   1.971 -0.1771 -0.5848 -0.0479
  122MOL0     C16366   6.857   2.494   2.045  0.1014 -0.6948  0.2994
  122MOL0     C16367   6.844   2.446   2.178 -0.4704  0.6772 -0.1224
  122MOL0     C16368   6.741   2.482   2.258 -0.1526 -0.4110 -0.3157
  122MOL0     C16369   6.648   2.578   2.216  0.7066 -0.6937 -0.6047
  122MOL0     O16370   6.551   2.622   2.298  0.3330 -0.0515 -0.0622
  122MOL0     C16371   6.543   2.575   2.432 -0.3288 -0.2434 -0.5847
  122MOL0     C16372   6.626   2.666   2.530 -1.0262 -0.1544  0.4882
  122MOL0     C16373   6.576   2.801   2.552  0.0781  0.0270  0.1428
  122MOL0     C16374   6.668   2.904   2.616 -0.0300  0.4264  0.6224
  122MOL0     C16375   6.584   3.024   2.677 -0.5714  0.7950  0.7218
  122MOL0     C16376   6.515   3.005   2.818 -0.3529 -0.2122  0.0681
  122MOL0     C16377   6.416   3.117   2.861  0.1318 -0.2580  0.7869
  122MOL0     C16378   6.331   3.074   2.979 -0.5311 -0.3370  0.1023
  122MOL0    Cl16379   6.206   2.952   2.918 -0.6452  0.2156  0.2530
  122MOL0     C16380   6.650   2.628   2.090 -0.4888  0.1310  0.1002
  122MOL0     C16381   6.754   2.580   2.003 -0.4906  0.1383  0.8729
  122MOL0     O16382   6.859   2.381   1.779 -0.4026  0.3252  0.3403
  122MOL0     C16383   7.102   2.346   1.632  0.4211 -0.3864  0.1618
  122MOL0     C16384   7.217   2.353   1.564  0.4693  0.2776 -0.2133
  122MOL0     N16385   7.254   2.842   1.498 -0.5097  0.8175 -0.6186
  122MOL0     N16386   7.164   2.887   1.421 -1.0416 -0.3552  0.1318
  122MOL0     C16387   6.692   3.722   1.848  0.4000  1.0930  0.5808
  122MOL0     C16388   6.684   3.861   1.864  0.4159 -0.2997 -0.3866
  122MOL0     C16389   6.687   4.280   1.916 -0.0884  0.6462  0.3872
  122MOL0     C16390   6.618   4.366   1.822  1.1616  0.0047 -0.3970
  122MOL0     C16391   6.587   4.493   1.860 -0.3549  0.5013 -0.8823
  122MOL0     C16392   6.612   4.538   1.989 -0.1638  0.3328  0.2272
  122MOL0     O16393   6.592   4.665   1.999  0.2250  0.0864 -0.3571
  122MOL0     C16394   6.699   4.746   2.048  0.6670  0.6210 -0.6720
  122MOL0     C16395   6.685   4.886   1.992 -1.2115  0.0078  0.2697
  122MOL0     C16396   6.574   4.965   2.055 -0.6305 -0.0233 -0.0086
  122MOL0     C16397   6.556   5.111   2.001  0.1042 -0.5120 -0.3879
  122MOL0     C16398   6.664   5.211   2.031 -0.1395  0.1084  0.5654
  122MOL0     C16399   6.726   5.310   2.063  0.4142  0.2473 -0.0623
  122MOL0     C16400   6.665   4.459   2.090  0.5612 -0.9617  0.3849
  122MOL0     C16401   6.711   4.332   2.048  0.5566 -0.8404 -0.2096
  122MOL0     C16402   6.797   4.257   2.152 -0.3143 -0.0074 -0.5659
  122MOL0     H16403   6.621   3.945   1.540 -0.0627 -1.3325 -1.1826
  122MOL0     H16404   6.708   3.712   1.512  0.0638  0.3927 -1.6632
  122MOL0     H16405   6.726   3.475   1.523 -0.5276 -0.1238  1.0507
  122MOL0     H16406   6.876   3.540   1.588  0.6442 -1.6348 -2.1890
  122MOL0     H16407   6.734   3.310   1.728  1.0982 -0.0294  0.3544
  122MOL0     H16408   6.898   3.354   1.739  1.2011  4.3289 -0.7051
  122MOL0     H16409   6.776   3.227   1.499 -2.5360  0.6839  1.9504
  122MOL0     H16410   6.862   3.139   1.624 -1.6552 -1.4905 -2.8734
  122MOL0     H16411   7.027   3.360   1.497  2.2850 -1.2923  0.1570
  122MOL0     H16412   7.062   3.196   1.575 -1.2583  1.0304  1.9273
  122MOL0     H16413   6.988   3.088   1.376  1.0516 -1.0305 -0.2287
  122MOL0     H16414   6.953   3.248   1.301  2.7274  2.1061 -0.8977
  122MOL0     H16415   7.204   3.310   1.324 -0.5477 -0.6303 -0.8755
  122MOL0     H16416   7.235   3.179   1.405 -1.0078  0.7460  0.2835
  122MOL0     H16417   7.303   3.156   1.151  0.1415  2.0654  2.2714
  122MOL0     H16418   7.127   3.169   1.107 -1.4254 -0.5342  0.6116
  122MOL0     H16419   7.062   2.969   1.193  0.6900 -3.0133 -2.1968
  122MOL0     H16420   7.207   2.940   1.104 -3.2034 -2.3985  0.5629
  122MOL0     H16421   7.444   2.946   1.251  3.2607 -4.5778  0.0199
  122MOL0     H16422   7.598   2.840   1.463  0.3710 -1.1739  0.2724
  122MOL0     H16423   7.523   2.869   1.623 -3.3442  1.1961 -0.2029
  122MOL0     H16424   7.600   2.642   1.587  0.2645 -0.1654 -1.1524
  122MOL0     H16425   7.427   2.645   1.633  1.5710 -0.0132  1.0909
  122MOL0     H16426   7.487   2.632   1.343  0.8212  1.7346  0.6360
  122MOL0     H16427   7.346   2.579   1.432  0.0938  2.5204 -2.1207
  122MOL0     H16428   7.585   2.423   1.407  0.2444 -3.9501  0.1587
  122MOL0     H16429   7.416   2.372   1.382  1.9688  0.9295 -2.3026
  122MOL0     H16430   7.423   2.449   1.821  2.0693  0.6370 -4.0941
  122MOL0     H16431   7.200   2.491   1.928 -2.1495  1.3536 -0.5843
  122MOL0     H16432   6.929   2.386   2.208  0.8407  2.0107 -1.0009
  122MOL0     H16433   6.740   2.434   2.355 -1.9815 -1.6834 -0.9016
  122MOL0     H16434   6.438   2.587   2.460 -0.5240  0.5703 -1.5966
  122MOL0     H16435   6.571   2.471   2.447  1.5217  0.5005  1.7897
  122MOL0     H16436   6.605   2.623   2.628 -0.6185  1.1836  1.1799
  122MOL0     H16437   6.734   2.670   2.519 -0.7821 -2.0492  1.7469
  122MOL0     H16438   6.536   2.843   2.459  2.3207 -1.3910 -1.5823
  122MOL0     H16439   6.478   2.795   2.599 -1.2757  1.3200 -2.3111
  122MOL0     H16440   6.737   2.943   2.541  1.5016  1.9284  2.7222
  122MOL0     H16441   6.737   2.858   2.688 -1.0511 -2.1452  0.0849
  122MOL0     H16442   6.502   3.051   2.610  0.6056 -0.5945 -1.4138
  122MOL0     H16443   6.655   3.107   2.683  0.5389 -0.2153  3.2136
  122MOL0     H16444   6.474   2.904   2.812  1.0768 -0.7318 -3.4874
  122MOL0     H16445   6.600   3.001   2.887  2.0950  0.4615 -2.6738
  122MOL0     H16446   6.344   3.136   2.780 -0.8133 -1.4652  1.3042
  122MOL0     H16447   6.470   3.208   2.888  0.0452 -0.2114  0.8056
  122MOL0     H16448   6.384   3.023   3.059 -1.3409 -0.3539  0.6321
  122MOL0     H16449   6.282   3.154   3.034  2.0943  1.2777  0.2686
  122MOL0     H16450   6.575   2.699   2.058 -1.6430 -0.2650  1.7977
  122MOL0     H16451   6.755   2.613   1.900  0.3979 -1.4354  0.3415
  122MOL0     H16452   7.012   2.311   1.583  0.3949  1.5715 -1.3000
  122MOL0     H16453   7.216   2.348   1.455  1.4384  1.6813 -0.3096
  122MOL0     H16454   6.713   3.673   1.942  1.6053  2.9686  1.3570
  122MOL0     H16455   6.695   3.899   1.966 -2.3261  2.7061 -1.0290
  122MOL0     H16456   6.593   4.335   1.722 -0.9290 -0.3834  0.2037
  122MOL0     H16457   6.538   4.558   1.787  0.3502 -1.0843 -2.8702
  122MOL0     H16458   6.799   4.702   2.040  0.4800 -1.2804  4.0446
  122MOL0     H16459   6.690   4.749   2.157  2.3837  0.8472 -0.5105
  122MOL0     H16460   6.676   4.880   1.883 -1.0693 -0.6771  0.2873
  122MOL0     H16461   6.781   4.936   2.009 -0.1033 -1.1738 -2.0658
  122MOL0     H16462   6.596   4.982   2.161  0.0832 -0.5292 -0.0680
  122MOL0     H16463   6.487   4.901   2.037  1.0450 -1.5977 -3.4973
  122MOL0     H16464   6.539   5.109   1.892 -0.4344  4.8420 -0.6491
  122MOL0     H16465   6.454   5.146   2.017 -0.6033 -0.9348 -3.3283
  122MOL0     H16466   6.773   5.405   2.074  2.9143 -0.8706 -0.5311
  122MOL0     H16467   6.710   4.505   2.176 -1.8097  2.9681 -0.2310
  122MOL0     H16468   6.775   4.150   2.157  1.8171 -0.5837 -2.1478
  122MOL0     H16469   6.895   4.277   2.108 -0.6001  0.3263 -1.0678
  122MOL0     H16470   6.792   4.306   2.249  3.1385 -3.4205  1.6100
  123MOL0     O16471   3.963   3.455  10.704 -0.7655 -0.5080 -0.0016
  123MOL0     C16472   3.941   3.424  10.590  0.3290 -0.1732 -0.1652
  123MOL0     O16473   3.857   3.326  10.549  0.6533  0.7578 -0.0467
  123MOL0     C16474   3.824   3.222  10.627 -0.0473 -0.8592 -0.8988
  123MOL0     C16475   3.910   3.110  10.631 -0.1476 -1.5040  0.5909
  123MOL0     C16476   3.874   3.014  10.708 -1.0076  0.5836  0.5572
  123MOL0     C16477   3.771   3.019  10.797  1.2454 -0.0183  0.2933
  123MOL0     O16478   3.741   2.909  10.870  0.5468  0.6357 -0.2402
  123MOL0     C16479   3.822   2.887  10.984 -0.1479 -0.4098 -0.6061
  123MOL0     C16480   3.839   2.748  10.996  0.5800  0.4791 -0.1678
  123MOL0     C16481   3.955   2.692  11.075 -0.2837 -0.1062  0.2298
  123MOL0     C16482   4.088   2.751  11.040 -1.0585 -1.1202 -0.4089
  123MOL0     C16483   4.207   2.686  11.118 -0.0786  0.0893 -0.3394
  123MOL0     C16484   4.248   2.549  11.078 -0.3103  0.6295  0.2807
  123MOL0     C16485   4.359   2.496  11.183 -0.5716 -0.0876  0.5001
  123MOL0     C16486   4.389   2.340  11.160  0.1652 -0.2472 -0.7356
  123MOL0     N16487   4.530   2.311  11.174 -0.5128 -1.3991  0.3344
  123MOL0     C16488   4.628   2.365  11.258  0.3700 -0.2117  1.4720
  123MOL0     C16489   4.730   2.276  11.275 -0.2258  1.4307 -0.1873
  123MOL0     C16490   4.850   2.310  11.352 -0.6996  0.6055  0.3459
  123MOL0     C16491   4.955   2.199  11.356 -0.4317  0.6661  0.5775
  123MOL0     C16492   5.037   2.217  11.481  0.0812  0.4984 -0.6102
  123MOL0     C16493   4.998   2.119  11.598 -0.1246  0.6411 -0.5791
  123MOL0     O16494   5.049   1.988  11.580 -0.9199 -0.1153 -0.1192
  123MOL0     C16495   5.104   1.914  11.678 -0.1930 -0.5115 -0.0002
  123MOL0     C16496   5.154   1.796  11.639  0.3372  1.3674 -1.2575
  123MOL0     C16497   5.217   1.707  11.735  0.4251 -0.0511 -0.2430
  123MOL0     C16498   5.222   1.734  11.874 -0.1926 -0.2600  0.3667
  123MOL0     C16499   5.295   1.646  11.964 -0.8227  0.1510 -1.2784
  123MOL0     O16500   5.292   1.678  12.097  0.8465 -0.1981  0.2359
  123MOL0     C16501   5.404   1.635  12.168 -0.4457 -0.4432  0.4157
  123MOL0     C16502   5.533   1.661  12.128  0.6238 -0.7340  0.0138
  123MOL0     C16503   5.639   1.649  12.217 -0.2360  0.3147 -0.1127
  123MOL0     C16504   5.619   1.593  12.348 -0.5136 -0.2783  0.6619
  123MOL0     O16505   5.717   1.596  12.446 -0.2331  0.3317  0.5644
  123MOL0     C16506   5.855   1.619  12.407 -1.3343  0.0062 -0.5112
  123MOL0     C16507   5.911   1.514  12.321 -0.9819  1.6279 -0.4604
  123MOL0     C16508   5.916   1.368  12.388  0.0573  0.1791  0.2401
  123MOL0     C16509   5.976   1.264  12.296 -0.8387  1.2489 -0.6630
  123MOL0     C16510   5.955   1.126  12.356  0.6940  0.3398 -0.1919
  123MOL0     C16511   6.031   1.015  12.280 -0.3321 -0.5685  0.0816
  123MOL0     C16512   5.973   0.872  12.284 -0.8750 -0.2607  1.3030
  123MOL0     C16513   6.071   0.770  12.229 -0.0656  0.4314 -0.1131
  123MOL0    Cl16514   6.116   0.793  12.055 -0.4193 -0.1376 -0.0390
  123MOL0     C16515   5.486   1.568  12.383 -0.8699 -0.0500  0.4685
  123MOL0     C16516   5.373   1.586  12.301 -0.0410 -0.4285  0.6156
  123MOL0     O16517   5.351   1.543  11.923 -0.2527 -0.1446 -0.1557
  123MOL0     C16518   5.181   1.863  11.912 -0.9857 -0.0371  0.0813
  123MOL0     C16519   5.125   1.956  11.818  0.6319  0.3005  0.2505
  123MOL0     N16520   4.690   2.162  11.201  0.0225 -0.5474  0.9713
  123MOL0     N16521   4.583   2.194  11.132  0.6939 -0.4893  0.0366
  123MOL0     C16522   3.678   3.126  10.790 -0.2220  0.4443  0.0407
  123MOL0     C16523   3.704   3.220  10.697 -0.9179 -0.6664 -0.6535
  123MOL0     C16524   3.973   3.533  10.484 -0.2160  0.5972  0.5293
  123MOL0     C16525   3.887   3.534  10.369 -0.1059  0.0706 -0.9718
  123MOL0     C16526   3.913   3.626  10.262  0.9822 -0.4687 -0.3074
  123MOL0     C16527   4.019   3.711  10.274  0.2178 -0.9005 -0.4717
  123MOL0     O16528   4.054   3.801  10.180 -0.8308  0.7599  0.3364
  123MOL0     C16529   3.964   3.827  10.070 -0.8823  1.2385 -0.2237
  123MOL0     C16530   4.017   3.933   9.975  0.0814 -0.0831 -0.0201
  123MOL0     C16531   4.032   4.074  10.036 -0.5261  0.3701  0.6174
  123MOL0     C16532   3.897   4.150  10.040 -0.1365 -0.3168  0.1552
  123MOL0     C16533   3.841   4.171   9.912 -0.0105 -1.3479  0.2294
  123MOL0     C16534   3.796   4.222   9.818  0.1319  0.2179  0.3550
  123MOL0     C16535   4.113   3.700  10.380  0.1128 -0.8985  0.5727
  123MOL0     C16536   4.095   3.617  10.484  0.4555 -0.0310  0.6636
  123MOL0     C16537   4.195   3.611  10.589 -1.4983  0.2439 -1.1586
  123MOL0     H16538   3.985   3.115  10.552 -2.3057 -0.7897 -1.5397
  123MOL0     H16539   3.946   2.933  10.710  1.7831  2.9214  1.5277
  123MOL0     H16540   3.916   2.941  10.983  1.8396 -3.6270 -0.7851
  123MOL0     H16541   3.773   2.929  11.073 -1.0052  0.9206 -1.6636
  123MOL0     H16542   3.840   2.711  10.893 -2.6450 -2.2956  0.5958
  123MOL0     H16543   3.745   2.713  11.040  1.1498  0.8126  1.3734
  123MOL0     H16544   3.962   2.587  11.043 -0.5753  0.2871 -1.1988
  123MOL0     H16545   3.934   2.708  11.181 -1.7333 -0.3706  0.0102
  123MOL0     H16546   4.100   2.741  10.931 -2.8410 -3.4735 -0.4627
  123MOL0     H16547   4.095   2.857  11.065  1.7158 -1.1751 -0.6368
  123MOL0     H16548   4.288   2.755  11.091 -3.1277  3.9012 -0.5718
  123MOL0     H16549   4.176   2.688  11.223 -0.7202  1.6722 -0.5385
  123MOL0     H16550   4.164   2.479  11.092  0.6593 -0.7739 -0.6354
  123MOL0     H16551   4.281   2.544  10.974 -0.7568 -1.6192  0.1886
  123MOL0     H16552   4.322   2.510  11.285 -2.1791 -1.6816  0.2041
  123MOL0     H16553   4.448   2.557  11.166 -1.1743  0.2427 -1.7400
  123MOL0     H16554   4.326   2.272  11.218 -1.5150  0.5210 -1.6228
  123MOL0     H16555   4.364   2.334  11.054  1.6886  1.2601 -1.2246
  123MOL0     H16556   4.614   2.448  11.326 -0.9353  0.6562  0.2133
  123MOL0     H16557   4.892   2.398  11.303  1.4480  0.6779  2.1230
  123MOL0     H16558   4.814   2.346  11.449 -1.2106 -1.2493  0.8988
  123MOL0     H16559   4.901   2.104  11.369 -1.6474  1.1711 -0.5587
  123MOL0     H16560   5.010   2.175  11.265  0.5596 -0.0389  1.3385
  123MOL0     H16561   5.034   2.320  11.515 -1.7038  0.5370 -0.7864
  123MOL0     H16562   5.142   2.190  11.464  0.6264  3.3744 -2.5813
  123MOL0     H16563   4.889   2.115  11.596 -0.0836 -2.1371 -1.6061
  123MOL0     H16564   5.036   2.171  11.687  0.5497  1.2396 -1.2114
  123MOL0     H16565   5.147   1.763  11.536 -4.1939  0.8465 -0.9915
  123MOL0     H16566   5.272   1.626  11.686 -0.7436 -0.7610 -0.4138
  123MOL0     H16567   5.530   1.726  12.041  0.2050  0.0232  0.5768
  123MOL0     H16568   5.728   1.704  12.187 -0.4156  1.4865  1.3741
  123MOL0     H16569   5.872   1.715  12.358  1.6648 -0.8596 -1.3789
  123MOL0     H16570   5.924   1.631  12.491  1.2134 -0.0454 -2.4545
  123MOL0     H16571   5.853   1.504  12.228 -5.1959 -3.4762  2.1714
  123MOL0     H16572   6.014   1.539  12.295 -0.4693 -1.5410 -2.0114
  123MOL0     H16573   5.975   1.369  12.480  1.6692 -0.3012 -0.7370
  123MOL0     H16574   5.818   1.353  12.434 -0.0199  0.7701  0.2796
  123MOL0     H16575   6.083   1.288  12.290 -0.1532 -0.8259  1.6145
  123MOL0     H16576   5.926   1.286  12.202  0.3104  1.8638 -1.1524
  123MOL0     H16577   5.848   1.107  12.346  0.4725  0.8946  0.9647
  123MOL0     H16578   5.989   1.117  12.459 -1.6685  1.4842  0.7454
  123MOL0     H16579   6.034   1.046  12.175 -0.3377  0.6751  0.4355
  123MOL0     H16580   6.133   1.018  12.321 -1.1165 -2.9205  2.4374
  123MOL0     H16581   5.882   0.869  12.223 -0.8483 -3.5556  1.2585
  123MOL0     H16582   5.934   0.850  12.384 -2.2205  1.3201  1.1802
  123MOL0     H16583   6.163   0.769  12.289 -0.7824 -0.8472  0.9994
  123MOL0     H16584   6.016   0.676  12.237 -0.2166  0.5812  0.7236
  123MOL0     H16585   5.472   1.546  12.489 -4.4480  0.1856  0.1637
  123MOL0     H16586   5.274   1.569  12.342  0.2826 -0.3240  1.4649
  123MOL0     H16587   5.196   1.894  12.015 -0.9135  1.7014 -0.4133
  123MOL0     H16588   5.078   2.052  11.834  0.3952  1.3075 -4.8699
  123MOL0     H16589   3.588   3.131  10.851 -0.7479 -2.3718 -0.3602
  123MOL0     H16590   3.636   3.302  10.677 -1.9837 -1.9446 -2.5246
  123MOL0     H16591   3.799   3.474  10.350 -0.2717  1.3707 -5.5799
  123MOL0     H16592   3.838   3.620  10.184  0.9158 -2.9994 -0.1583
  123MOL0     H16593   3.863   3.850  10.105 -0.6504  1.1909  0.4912
  123MOL0     H16594   3.934   3.737  10.015 -0.0564  1.8219 -1.6585
  123MOL0     H16595   3.952   3.919   9.889 -0.8580  0.7000  0.5333
  123MOL0     H16596   4.119   3.903   9.950 -0.9447 -1.7905 -2.5216
  123MOL0     H16597   4.099   4.130   9.970 -1.1262  0.5322  0.1374
  123MOL0     H16598   4.085   4.061  10.131  0.8857  0.5668 -0.1186
  123MOL0     H16599   3.830   4.083  10.095  0.2768 -0.9226 -0.0608
  123MOL0     H16600   3.910   4.251  10.080 -2.2409  0.3151 -0.6264
  123MOL0     H16601   3.748   4.274   9.738 -2.3445 -0.3635  1.3796
  123MOL0     H16602   4.202   3.760  10.368 -0.2383 -0.4604  0.1294
  123MOL0     H16603   4.155   3.662  10.678  2.0006 -0.0652  0.7528
  123MOL0     H16604   4.217   3.507  10.615  2.1151  0.6706 -1.9876
  123MOL0     H16605   4.289   3.664  10.571  0.2021 -2.5315 -0.9061
  124MOL0     O16606   6.200   6.469   3.487 -0.6802  0.8001  0.3742
  124MOL0     C16607   6.276   6.459   3.589  0.1875 -0.0940 -0.5997
  124MOL0     O16608   6.402   6.406   3.585 -1.3031  0.4476  1.2353
  124MOL0     C16609   6.440   6.374   3.449  0.1385 -0.4495  0.2606
  124MOL0     C16610   6.519   6.467   3.379 -0.0638 -0.8403 -0.5721
  124MOL0     C16611   6.557   6.447   3.246 -0.5161  0.2202  0.5258
  124MOL0     C16612   6.495   6.341   3.173 -0.0040  0.3523 -0.1662
  124MOL0     O16613   6.506   6.323   3.041 -0.5957  0.4174  0.0291
  124MOL0     C16614   6.625   6.366   2.963 -0.7096 -0.2790 -0.9081
  124MOL0     C16615   6.589   6.356   2.815  0.0251 -0.9984  0.3084
  124MOL0     C16616   6.532   6.217   2.777  0.2311 -0.4283 -0.4278
  124MOL0     C16617   6.614   6.096   2.802 -0.4231  0.7997 -0.9328
  124MOL0     C16618   6.548   5.985   2.716  0.4845 -0.1417 -0.3698
  124MOL0     C16619   6.651   5.870   2.694  0.8342 -0.5423 -0.5722
  124MOL0     C16620   6.581   5.748   2.653  0.6757  1.1682  0.1695
  124MOL0     C16621   6.652   5.619   2.696 -0.0766  0.1633 -0.0729
  124MOL0     N16622   6.583   5.504   2.639  0.5143  0.2793 -0.6255
  124MOL0     C16623   6.609   5.439   2.521 -0.7595 -0.0869  0.3284
  124MOL0     C16624   6.495   5.378   2.493  0.4555 -0.2297  0.4215
  124MOL0     C16625   6.463   5.285   2.374  0.3803  0.5275  0.8562
  124MOL0     C16626   6.455   5.136   2.420  0.7073 -0.5808 -0.0941
  124MOL0     C16627   6.324   5.090   2.471 -0.5446  0.1771 -0.4247
  124MOL0     C16628   6.317   4.932   2.493  0.0199 -0.5742 -0.0734
  124MOL0     O16629   6.324   4.861   2.363  0.6459 -0.7371 -0.0877
  124MOL0     C16630   6.323   4.720   2.368  0.0040 -0.3738 -0.4678
  124MOL0     C16631   6.353   4.659   2.248  0.6724 -0.1809  0.4046
  124MOL0     C16632   6.369   4.528   2.228 -0.7294 -0.3485 -0.8242
  124MOL0     C16633   6.375   4.443   2.342 -0.0429  0.6573  0.4758
  124MOL0     C16634   6.394   4.295   2.335 -0.6672 -0.1215 -0.5446
  124MOL0     O16635   6.429   4.235   2.215 -0.0949 -0.6195 -0.0202
  124MOL0     C16636   6.441   4.094   2.206 -0.2748 -0.3454  0.5433
  124MOL0     C16637   6.398   4.047   2.077  0.5844  0.1317  0.1239
  124MOL0     C16638   6.409   3.914   2.048  0.5784  0.2858 -0.4342
  124MOL0     C16639   6.464   3.820   2.146 -0.2031 -0.8577  0.1690
  124MOL0     O16640   6.449   3.685   2.135 -0.4490 -0.6085  0.0586
  124MOL0     C16641   6.404   3.638   2.013 -0.3729 -0.3130 -0.1189
  124MOL0     C16642   6.415   3.481   2.016 -0.5169  0.3453 -0.8692
  124MOL0     C16643   6.349   3.408   1.895  0.0974 -0.1502 -0.1007
  124MOL0     C16644   6.407   3.265   1.886 -0.9321 -0.8518  0.4243
  124MOL0     C16645   6.364   3.176   1.758 -0.7790 -0.8608  0.2760
  124MOL0     C16646   6.216   3.143   1.728 -0.2278 -0.4668  0.9065
  124MOL0     C16647   6.163   3.066   1.857 -0.3781 -0.1368 -0.3829
  124MOL0     C16648   6.016   3.051   1.849 -0.3950 -0.5327 -0.3278
  124MOL0    Cl16649   5.953   3.042   2.012  0.6259  0.2914 -0.0514
  124MOL0     C16650   6.522   3.874   2.259 -0.5577 -0.9435 -0.8473
  124MOL0     C16651   6.502   4.011   2.293 -0.1159  0.7740 -0.3038
  124MOL0     O16652   6.374   4.238   2.440  0.0025 -0.0341  0.3635
  124MOL0     C16653   6.352   4.500   2.475 -0.0205 -0.0738 -0.1085
  124MOL0     C16654   6.327   4.640   2.481  0.2458  0.9718  0.1409
  124MOL0     N16655   6.392   5.406   2.582 -0.6420  0.3801  0.2295
  124MOL0     N16656   6.448   5.488   2.662  0.3182 -0.2191 -0.0793
  124MOL0     C16657   6.409   6.255   3.246  0.2503  0.1095 -0.4447
  124MOL0     C16658   6.389   6.264   3.390  0.1778  0.5917  0.3027
  124MOL0     C16659   6.222   6.514   3.725 -0.4218  0.8969 -0.6478
  124MOL0     C16660   6.308   6.522   3.833  0.3080  1.1977  0.4759
  124MOL0     C16661   6.270   6.552   3.966 -0.7549  0.9335 -0.4844
  124MOL0     C16662   6.137   6.587   3.989  0.0279 -0.2973 -0.4184
  124MOL0     O16663   6.099   6.651   4.107  0.0870  0.7152 -0.1910
  124MOL0     C16664   6.100   6.563   4.217  0.1136 -1.0439 -0.8377
  124MOL0     C16665   6.196   6.616   4.327  0.8091  0.8412  0.3012
  124MOL0     C16666   6.201   6.761   4.339  0.0197  0.0158 -0.1641
  124MOL0     C16667   6.254   6.817   4.473 -0.5728  0.3338 -0.0099
  124MOL0     C16668   6.165   6.824   4.585 -0.0596 -0.3387  0.4338
  124MOL0     C16669   6.070   6.825   4.661  0.4081 -0.0377  0.1585
  124MOL0     C16670   6.045   6.596   3.882 -0.2890 -0.0655  0.5323
  124MOL0     C16671   6.089   6.549   3.752 -0.4744  0.3881 -0.4041
  124MOL0     C16672   5.982   6.570   3.642 -0.2398  0.2464 -0.0896
  124MOL0     H16673   6.562   6.556   3.425  0.7471 -1.2446 -0.5317
  124MOL0     H16674   6.627   6.514   3.197  1.4265 -0.6715  1.9853
  124MOL0     H16675   6.646   6.471   2.985  0.0737  0.0570 -3.0867
  124MOL0     H16676   6.720   6.323   2.997 -0.8264 -1.1562 -1.6703
  124MOL0     H16677   6.674   6.373   2.750 -0.8322 -0.4149 -0.6927
  124MOL0     H16678   6.522   6.440   2.795 -1.6358 -1.9313  1.6761
  124MOL0     H16679   6.496   6.228   2.674 -0.5567  1.9682  0.0311
  124MOL0     H16680   6.440   6.198   2.834 -0.8526 -0.5975 -2.1727
  124MOL0     H16681   6.712   6.112   2.756  1.1849  0.3984  2.1271
  124MOL0     H16682   6.631   6.067   2.906 -1.6577 -2.5912 -1.5647
  124MOL0     H16683   6.465   5.939   2.770  0.5873  0.2760  0.1577
  124MOL0     H16684   6.517   6.025   2.619 -3.2219 -1.8459 -0.0418
  124MOL0     H16685   6.722   5.890   2.614 -1.8011  0.6564 -2.7814
  124MOL0     H16686   6.707   5.846   2.785 -2.0956  2.5996  2.3757
  124MOL0     H16687   6.563   5.750   2.545 -0.3109 -1.0725  0.2322
  124MOL0     H16688   6.486   5.752   2.707 -0.1245  1.9831 -1.2352
  124MOL0     H16689   6.757   5.636   2.671 -0.2029  1.4495  0.1730
  124MOL0     H16690   6.650   5.602   2.804  1.1727  0.3529 -0.0076
  124MOL0     H16691   6.700   5.442   2.461 -1.1158  0.7969 -0.1798
  124MOL0     H16692   6.368   5.320   2.334  0.0504 -1.2257  0.0420
  124MOL0     H16693   6.540   5.299   2.297 -0.8498  2.9561 -0.0124
  124MOL0     H16694   6.481   5.085   2.328 -1.2879  2.6151 -2.6833
  124MOL0     H16695   6.532   5.109   2.492 -0.8625 -1.8704  1.1703
  124MOL0     H16696   6.238   5.118   2.410 -0.5863 -1.1283 -1.0048
  124MOL0     H16697   6.319   5.127   2.574 -1.5117 -3.9342  1.2041
  124MOL0     H16698   6.231   4.898   2.552  2.7279 -3.9399  2.4120
  124MOL0     H16699   6.395   4.913   2.567 -1.0603 -3.2860  0.5174
  124MOL0     H16700   6.359   4.730   2.167 -0.6121  0.6339  0.9887
  124MOL0     H16701   6.378   4.492   2.126 -1.1350  0.9110 -1.3307
  124MOL0     H16702   6.343   4.102   2.001 -3.7272 -1.1190  2.0719
  124MOL0     H16703   6.370   3.877   1.954 -4.9643 -2.8402  2.6020
  124MOL0     H16704   6.298   3.651   1.988 -0.4919 -0.4140  0.3267
  124MOL0     H16705   6.463   3.668   1.926  1.5316 -1.4928  0.6924
  124MOL0     H16706   6.523   3.468   2.023 -0.3404  0.3199 -3.1836
  124MOL0     H16707   6.372   3.445   2.110  0.0138 -1.6490 -1.3453
  124MOL0     H16708   6.243   3.390   1.913 -0.1894  1.5549  0.1014
  124MOL0     H16709   6.361   3.460   1.799 -0.0043  0.3548  0.1579
  124MOL0     H16710   6.391   3.202   1.974  0.3189 -1.6810  0.0801
  124MOL0     H16711   6.515   3.277   1.880 -1.0722  1.1969  1.2369
  124MOL0     H16712   6.416   3.080   1.762  2.5726  0.7809  0.0688
  124MOL0     H16713   6.404   3.214   1.663 -1.2067 -1.9084 -0.3436
  124MOL0     H16714   6.152   3.230   1.715 -0.1821 -0.8425 -2.9219
  124MOL0     H16715   6.202   3.080   1.640  1.4560  0.1984  0.1299
  124MOL0     H16716   6.187   3.095   1.960 -2.3390  1.0811 -0.2078
  124MOL0     H16717   6.212   2.968   1.854  2.7431  1.3080 -0.6575
  124MOL0     H16718   5.974   3.143   1.806 -0.5203  1.4827  3.6479
  124MOL0     H16719   5.985   2.958   1.800 -1.8549 -1.7370  2.5995
  124MOL0     H16720   6.569   3.816   2.338 -0.9356 -0.5403 -0.3190
  124MOL0     H16721   6.534   4.058   2.386 -0.3037 -0.0884  0.2096
  124MOL0     H16722   6.359   4.443   2.567  3.8404  1.7810  0.9406
  124MOL0     H16723   6.314   4.682   2.580  1.2921 -2.0019  1.6528
  124MOL0     H16724   6.379   6.167   3.191  1.1923 -0.4768 -0.0484
  124MOL0     H16725   6.326   6.201   3.452 -0.7289  1.6673  0.4848
  124MOL0     H16726   6.413   6.496   3.833  0.4619  1.7163 -1.0864
  124MOL0     H16727   6.344   6.563   4.045 -2.1608 -1.7230  1.3715
  124MOL0     H16728   6.126   6.460   4.187  0.5505 -1.2926  0.3248
  124MOL0     H16729   5.997   6.564   4.252 -0.7890  1.3537 -3.2457
  124MOL0     H16730   6.298   6.589   4.301 -0.0660 -1.4931 -1.0143
  124MOL0     H16731   6.177   6.575   4.426  1.2183  0.3893  0.1921
  124MOL0     H16732   6.102   6.806   4.326  0.5319  0.9569 -0.9044
  124MOL0     H16733   6.273   6.807   4.271  2.2457  1.5544  2.9704
  124MOL0     H16734   6.344   6.762   4.500 -0.3971 -1.2545 -3.2698
  124MOL0     H16735   6.282   6.922   4.467  1.7065  0.1010  3.5968
  124MOL0     H16736   5.987   6.826   4.729  0.6532  2.2937  0.4851
  124MOL0     H16737   5.944   6.632   3.897  0.5471  1.5839  2.6695
  124MOL0     H16738   5.881   6.555   3.683 -0.7268  4.9503  1.0805
  124MOL0     H16739   5.984   6.670   3.597 -2.3092  0.6688  0.6225
  124MOL0     H16740   5.995   6.500   3.559 -1.6415  1.2079 -1.1679
  125MOL0     O16741   2.607   8.083   2.898  0.0984 -0.2141  0.0689
  125MOL0     C16742   2.628   8.055   3.016  0.6548 -0.2208 -0.6393
  125MOL0     O16743   2.711   7.962   3.072 -0.0543  0.4355  0.3369
  125MOL0     C16744   2.792   7.886   2.993  0.1436 -0.0055 -0.5012
  125MOL0     C16745   2.907   7.942   2.925  0.2535 -0.4232 -0.4668
  125MOL0     C16746   2.988   7.860   2.841 -0.5061 -0.8080  0.5413
  125MOL0     C16747   2.954   7.721   2.824  0.2529 -0.0440  0.0307
  125MOL0     O16748   3.038   7.636   2.755  0.0396  0.4938  0.3627
  125MOL0     C16749   3.103   7.547   2.849 -0.5938 -0.8773  0.7465
  125MOL0     C16750   3.115   7.402   2.809 -0.8118 -0.1929  1.2485
  125MOL0     C16751   3.230   7.330   2.877 -0.1012 -0.3530  0.1457
  125MOL0     C16752   3.212   7.186   2.918 -0.0230  0.0051  0.0893
  125MOL0     C16753   3.102   7.169   3.023 -0.0686  0.7185 -0.1265
  125MOL0     C16754   3.091   7.019   3.071  0.2926  0.4287 -0.1004
  125MOL0     C16755   2.952   6.992   3.141  0.1438 -0.3199  0.4743
  125MOL0     C16756   2.933   6.843   3.156  0.4043 -0.4338  0.2167
  125MOL0     N16757   2.828   6.814   3.255  0.3063  0.8968  0.4152
  125MOL0     C16758   2.694   6.807   3.232 -0.2465 -0.3927 -0.7325
  125MOL0     C16759   2.647   6.762   3.352  0.1631 -0.4598 -0.6558
  125MOL0     C16760   2.510   6.721   3.378  0.7181  0.0932  0.0797
  125MOL0     C16761   2.484   6.589   3.300  0.6679  0.9615 -0.3864
  125MOL0     C16762   2.337   6.536   3.315 -0.1869 -0.5139  1.1081
  125MOL0     C16763   2.300   6.435   3.207 -0.6392 -0.7585  0.2603
  125MOL0     O16764   2.248   6.506   3.094 -0.5957  0.4107 -0.2294
  125MOL0     C16765   2.204   6.429   2.988  0.4929 -0.7473  0.2685
  125MOL0     C16766   2.219   6.285   2.956 -0.2905 -0.3086  0.4987
  125MOL0     C16767   2.162   6.231   2.842  0.5258  0.8813 -0.5479
  125MOL0     C16768   2.077   6.299   2.754  0.3020  0.5295 -0.2436
  125MOL0     C16769   2.008   6.236   2.649 -1.1617 -0.0809  0.2184
  125MOL0     O16770   1.941   6.306   2.559  0.4856  0.1832  0.0196
  125MOL0     C16771   1.904   6.239   2.438  0.2029  0.4547  0.0493
  125MOL0     C16772   1.774   6.242   2.385 -0.2183 -0.5049  0.2754
  125MOL0     C16773   1.745   6.178   2.259  0.3644  0.3228 -0.6175
  125MOL0     C16774   1.839   6.108   2.185  0.0511  0.0858 -0.0707
  125MOL0     O16775   1.815   6.061   2.059  0.1079  0.1417  0.4338
  125MOL0     C16776   1.925   6.008   1.984 -0.4697  0.0463 -0.3565
  125MOL0     C16777   1.879   5.961   1.848  0.4724  1.5301 -0.6285
  125MOL0     C16778   1.977   5.865   1.792  0.2741 -0.4565 -0.4205
  125MOL0     C16779   2.079   5.927   1.705  0.5991 -0.0977 -0.2650
  125MOL0     C16780   2.173   6.027   1.761  0.3257 -0.2838  0.1513
  125MOL0     C16781   2.269   5.972   1.867  0.0221 -0.2427 -0.1177
  125MOL0     C16782   2.391   6.048   1.891 -1.0164  0.2920 -0.9698
  125MOL0     C16783   2.366   6.196   1.940 -0.5870 -0.3559  0.1696
  125MOL0    Cl16784   2.294   6.188   2.117 -0.4294 -0.0425 -0.1320
  125MOL0     C16785   1.973   6.111   2.238  0.4377  0.3487  0.1299
  125MOL0     C16786   1.997   6.178   2.362 -0.1313 -0.4953  0.4248
  125MOL0     O16787   2.016   6.115   2.651  0.1867  0.1367 -0.4385
  125MOL0     C16788   2.064   6.443   2.778  0.4274  1.2293  0.0881
  125MOL0     C16789   2.134   6.505   2.887  0.2388 -0.4943  0.2739
  125MOL0     N16790   2.748   6.759   3.449 -0.3124  0.3209 -0.3757
  125MOL0     N16791   2.854   6.795   3.385  0.4149  0.1558  0.1277
  125MOL0     C16792   2.848   7.668   2.892  0.7695  0.7806  0.1637
  125MOL0     C16793   2.777   7.747   2.981 -0.0749 -0.6039  0.2664
  125MOL0     C16794   2.567   8.146   3.119 -0.9024 -0.0003  0.5961
  125MOL0     C16795   2.623   8.135   3.248  0.0951  0.3373 -0.0628
  125MOL0     C16796   2.578   8.219   3.345 -0.3476 -0.4398 -0.7201
  125MOL0     C16797   2.477   8.314   3.329 -0.5566 -0.9113  1.3546
  125MOL0     O16798   2.434   8.394   3.431 -0.2763  0.5071  0.2425
  125MOL0     C16799   2.540   8.460   3.513  0.6809 -0.2765 -0.4319
  125MOL0     C16800   2.581   8.599   3.464  0.0651 -0.5823  1.0352
  125MOL0     C16801   2.470   8.700   3.502  1.2309  0.0481 -0.9985
  125MOL0     C16802   2.341   8.717   3.419 -0.2283  0.7540 -0.3436
  125MOL0     C16803   2.253   8.798   3.500 -0.1951 -0.1176 -0.4058
  125MOL0     C16804   2.186   8.888   3.555  0.0283  0.3770 -1.0714
  125MOL0     C16805   2.414   8.326   3.203  0.5399  0.3668  0.7839
  125MOL0     C16806   2.457   8.234   3.105  0.1217 -0.7195  0.5944
  125MOL0     C16807   2.385   8.254   2.964 -0.6548 -0.3349 -0.3675
  125MOL0     H16808   2.938   8.044   2.942  2.1374 -1.0600  0.2896
  125MOL0     H16809   3.076   7.883   2.781 -0.1365 -0.9075  1.0325
  125MOL0     H16810   3.208   7.576   2.865  0.0403 -2.2167 -0.7194
  125MOL0     H16811   3.063   7.555   2.950  0.8953  0.9879  1.2614
  125MOL0     H16812   3.137   7.385   2.703 -0.5280  1.6824  0.9836
  125MOL0     H16813   3.018   7.350   2.814 -1.7965  1.6140  1.9456
  125MOL0     H16814   3.231   7.372   2.978  0.9031  0.9999 -0.4080
  125MOL0     H16815   3.321   7.343   2.818 -0.1544 -1.7440 -0.2802
  125MOL0     H16816   3.188   7.128   2.829 -0.3748 -0.7583  0.6682
  125MOL0     H16817   3.309   7.156   2.959  0.3387  0.6064 -0.3240
  125MOL0     H16818   3.113   7.235   3.109 -0.2959  0.7867 -0.1473
  125MOL0     H16819   3.001   7.184   2.982 -0.4240  1.0626  0.8482
  125MOL0     H16820   3.111   6.955   2.985 -2.0705 -2.5857  1.3592
  125MOL0     H16821   3.175   6.995   3.138  0.7618  4.3617  0.9706
  125MOL0     H16822   2.874   7.036   3.078  1.0909 -0.9606 -1.1867
  125MOL0     H16823   2.954   7.041   3.239 -1.2039 -0.8700  0.8024
  125MOL0     H16824   2.907   6.804   3.057  2.4102 -1.3976  0.0177
  125MOL0     H16825   3.029   6.797   3.180  0.9073  1.0655  1.2266
  125MOL0     H16826   2.636   6.821   3.142 -2.8119  2.0667  1.1434
  125MOL0     H16827   2.498   6.700   3.485 -0.2855  0.7203  0.1060
  125MOL0     H16828   2.430   6.793   3.359  0.5417 -0.4403 -1.3270
  125MOL0     H16829   2.493   6.598   3.191  0.2534 -0.6841 -0.5919
  125MOL0     H16830   2.556   6.514   3.333  0.6043  1.9222  2.1553
  125MOL0     H16831   2.269   6.620   3.330  1.6341  1.1132  0.5376
  125MOL0     H16832   2.338   6.479   3.409 -3.9940 -4.0912 -0.6710
  125MOL0     H16833   2.217   6.388   3.262  1.0741 -2.3926  1.5758
  125MOL0     H16834   2.379   6.361   3.193  1.9710  2.1048 -1.3428
  125MOL0     H16835   2.279   6.218   3.015 -1.1713  0.4864  2.3939
  125MOL0     H16836   2.185   6.126   2.826 -0.0395  0.5478  0.7122
  125MOL0     H16837   1.700   6.306   2.433  0.7792 -1.2669  3.0096
  125MOL0     H16838   1.644   6.183   2.220  0.0104 -1.5874 -0.0552
  125MOL0     H16839   2.003   6.083   1.966  0.2153 -1.1345 -2.7410
  125MOL0     H16840   1.969   5.923   2.036 -1.0970  0.6018  1.1394
  125MOL0     H16841   1.788   5.903   1.866  0.7086  1.5285  0.6195
  125MOL0     H16842   1.841   6.032   1.773  3.1090  2.2402 -1.4133
  125MOL0     H16843   2.014   5.808   1.878 -2.0154  3.6137  3.7376
  125MOL0     H16844   1.910   5.798   1.739 -1.1388  0.7308 -0.2179
  125MOL0     H16845   2.031   5.983   1.624  2.6054 -0.8202 -2.0501
  125MOL0     H16846   2.123   5.839   1.658 -2.5722 -2.8015  1.3777
  125MOL0     H16847   2.114   6.117   1.783 -1.9067 -1.6052 -0.1590
  125MOL0     H16848   2.236   6.051   1.675  0.1411  0.3601  0.1855
  125MOL0     H16849   2.207   5.972   1.958 -2.6117 -0.7941 -1.8061
  125MOL0     H16850   2.280   5.864   1.862  0.9469 -0.1647  0.0294
  125MOL0     H16851   2.438   6.057   1.793  0.2460  0.2290 -0.3815
  125MOL0     H16852   2.453   5.999   1.967  1.5858 -0.1772 -3.2269
  125MOL0     H16853   2.453   6.261   1.934 -0.3082 -0.8711 -2.9158
  125MOL0     H16854   2.293   6.240   1.872  1.2593  1.3893 -0.7839
  125MOL0     H16855   2.061   6.071   2.188 -0.1447  1.4413 -1.8878
  125MOL0     H16856   2.101   6.179   2.395 -0.7579  0.8967  2.5770
  125MOL0     H16857   2.001   6.504   2.713 -2.5782 -0.6044  1.0660
  125MOL0     H16858   2.111   6.610   2.899  0.4197 -0.3871 -0.3106
  125MOL0     H16859   2.816   7.565   2.884 -1.9207  1.4947  0.8557
  125MOL0     H16860   2.681   7.710   3.015 -1.6694  1.5432 -1.6111
  125MOL0     H16861   2.714   8.083   3.275 -0.5757 -0.2400  1.1129
  125MOL0     H16862   2.628   8.193   3.438  1.3154  2.5549 -0.6483
  125MOL0     H16863   2.619   8.387   3.531  0.0039 -1.0304 -0.4292
  125MOL0     H16864   2.495   8.490   3.608  1.2206  0.5258 -0.4247
  125MOL0     H16865   2.611   8.600   3.358 -1.1057 -2.2665  0.6456
  125MOL0     H16866   2.670   8.638   3.513  1.4442 -0.9331 -1.0616
  125MOL0     H16867   2.518   8.798   3.507  0.1033  0.6095  4.7072
  125MOL0     H16868   2.448   8.686   3.608  0.2458 -0.1123 -1.2126
  125MOL0     H16869   2.366   8.777   3.331 -1.2727  2.3777  0.4133
  125MOL0     H16870   2.299   8.619   3.398 -0.7591  0.7717  0.5776
  125MOL0     H16871   2.140   8.973   3.602 -1.0452  0.4656 -2.2292
  125MOL0     H16872   2.323   8.386   3.202  0.8046  1.2232  5.5573
  125MOL0     H16873   2.371   8.155   2.920  1.1689 -0.1087 -1.5812
  125MOL0     H16874   2.295   8.312   2.983  0.5305  1.1156  1.1629
  125MOL0     H16875   2.457   8.309   2.902 -2.0872  1.5435 -0.4443
  126MOL0     O16876  10.185   5.337   2.000 -0.1767 -0.3446 -0.0486
  126MOL0     C16877  10.077   5.286   1.966  0.6063 -0.3645  0.8374
  126MOL0     O16878  10.006   5.332   1.853 -0.5159  0.4947  0.1911
  126MOL0     C16879  10.032   5.454   1.788 -0.0292 -0.4590  0.3447
  126MOL0     C16880  10.116   5.461   1.674  0.1574 -0.0047  0.2522
  126MOL0     C16881  10.156   5.588   1.628  0.9282  0.0679 -0.0428
  126MOL0     C16882  10.092   5.701   1.676 -0.6004  0.3143 -0.6934
  126MOL0     O16883  10.127   5.831   1.637 -0.7957  0.1603  0.6166
  126MOL0     C16884  10.208   5.855   1.518 -0.3602  0.1947 -0.5245
  126MOL0     C16885  10.153   5.982   1.458  0.3540 -0.1389  0.1938
  126MOL0     C16886  10.233   6.010   1.316  0.4634  0.9423 -0.1868
  126MOL0     C16887  10.223   6.155   1.276 -0.1908  0.5746  0.0130
  126MOL0     C16888  10.235   6.169   1.126 -0.1818 -0.6592 -0.1983
  126MOL0     C16889  10.104   6.136   1.053  0.9281 -0.5502 -0.6022
  126MOL0     C16890  10.120   6.158   0.894  0.0225  0.7050  0.6261
  126MOL0     C16891  10.027   6.061   0.821  0.1447 -0.0373 -0.0977
  126MOL0     N16892   9.889   6.072   0.861  1.1323 -0.1098 -0.0580
  126MOL0     C16893   9.810   6.183   0.842 -0.2231  0.2330 -0.4385
  126MOL0     C16894   9.688   6.154   0.879  0.5738  0.5431 -0.6113
  126MOL0     C16895   9.560   6.231   0.877 -0.4325 -0.1642  0.2850
  126MOL0     C16896   9.558   6.349   0.782  0.5249 -1.0480  0.8443
  126MOL0     C16897   9.421   6.388   0.732  0.4156 -0.0003 -0.2479
  126MOL0     C16898   9.317   6.420   0.847 -0.0991  0.8823 -0.4078
  126MOL0     O16899   9.332   6.553   0.893 -1.0588  0.0454 -0.8745
  126MOL0     C16900   9.278   6.580   1.020  0.0794  0.9222  0.6759
  126MOL0     C16901   9.160   6.522   1.076 -0.3635  0.4201  0.1627
  126MOL0     C16902   9.126   6.560   1.205  0.9488 -0.2610 -0.6934
  126MOL0     C16903   9.189   6.668   1.274 -0.3522 -0.3286 -0.2237
  126MOL0     C16904   9.150   6.715   1.409 -0.0312  0.0148 -0.4142
  126MOL0     O16905   9.211   6.822   1.460 -0.6159  0.2152 -0.3084
  126MOL0     C16906   9.173   6.899   1.565 -0.1303 -0.0657 -0.5297
  126MOL0     C16907   9.044   6.927   1.600  0.1780 -0.1947 -0.0629
  126MOL0     C16908   9.018   7.005   1.710  1.0563 -0.2752  0.5173
  126MOL0     C16909   9.114   7.038   1.795 -0.2103  0.0118 -1.2544
  126MOL0     O16910   9.084   7.090   1.922  0.1484  0.5374  0.1396
  126MOL0     C16911   8.964   7.160   1.955  0.7498  0.4359 -0.0680
  126MOL0     C16912   8.971   7.297   1.884 -0.2303  0.1079 -0.1912
  126MOL0     C16913   8.847   7.379   1.932  0.0223  0.3039 -0.2405
  126MOL0     C16914   8.795   7.487   1.833 -0.1821 -0.1396 -0.4297
  126MOL0     C16915   8.761   7.457   1.688 -0.7197 -0.1622  0.8183
  126MOL0     C16916   8.691   7.571   1.620 -0.5320  0.2818 -0.1728
  126MOL0     C16917   8.670   7.551   1.466 -0.8809  0.5788 -0.4952
  126MOL0     C16918   8.586   7.447   1.408  0.5241  0.5387 -0.5070
  126MOL0    Cl16919   8.422   7.439   1.485  0.3183 -0.1215 -0.0364
  126MOL0     C16920   9.242   7.021   1.762 -1.3450  0.2845 -0.3110
  126MOL0     C16921   9.278   6.957   1.644 -0.0727  0.5222 -0.6634
  126MOL0     O16922   9.045   6.672   1.458 -0.4115 -0.0912 -0.0997
  126MOL0     C16923   9.295   6.732   1.207  0.2994 -0.0382 -0.6938
  126MOL0     C16924   9.338   6.694   1.086 -0.6685 -0.5942  0.4319
  126MOL0     N16925   9.697   6.025   0.940 -0.2924 -0.3252  1.0587
  126MOL0     N16926   9.818   5.974   0.922 -0.5185 -0.5908 -0.1428
  126MOL0     C16927  10.005   5.692   1.782  1.0969  0.6501 -0.3322
  126MOL0     C16928   9.979   5.568   1.834  0.5859  0.0998  0.1128
  126MOL0     C16929  10.032   5.165   2.034 -1.0784 -0.0966  0.9931
  126MOL0     C16930   9.924   5.097   1.965 -0.2215  0.2877 -0.2475
  126MOL0     C16931   9.872   4.985   2.029 -0.0338 -0.1807  0.4122
  126MOL0     C16932   9.896   4.952   2.152  0.2980  0.1199 -0.3705
  126MOL0     O16933   9.813   4.874   2.226 -0.1361 -0.8746  0.3708
  126MOL0     C16934   9.669   4.860   2.190 -0.2193 -0.3678  0.4330
  126MOL0     C16935   9.645   4.730   2.111 -0.3964  1.1599 -0.8300
  126MOL0     C16936   9.507   4.703   2.056 -0.3569  0.5635  0.5555
  126MOL0     C16937   9.407   4.647   2.162  0.7818  0.1196 -0.2365
  126MOL0     C16938   9.267   4.655   2.113  0.5911  0.5465 -0.2274
  126MOL0     C16939   9.151   4.668   2.084 -0.4507 -0.9949  0.5204
  126MOL0     C16940  10.003   5.013   2.221 -0.1466  0.6981 -0.1195
  126MOL0     C16941  10.075   5.114   2.162  0.2832 -0.1209  1.1193
  126MOL0     C16942  10.182   5.183   2.235 -0.7222  0.6862 -0.4791
  126MOL0     H16943  10.173   5.372   1.648 -4.1746 -2.3050 -2.5373
  126MOL0     H16944  10.237   5.582   1.556 -0.3898  1.9663 -1.8013
  126MOL0     H16945  10.309   5.864   1.561 -0.0336  1.2616 -1.4763
  126MOL0     H16946  10.200   5.779   1.441 -1.3303  0.2881 -0.5244
  126MOL0     H16947  10.174   6.071   1.518  0.6543 -0.3486  0.4003
  126MOL0     H16948  10.048   5.980   1.430 -0.0713 -2.1042  1.7802
  126MOL0     H16949  10.177   5.950   1.245  1.5254  3.7925 -3.7187
  126MOL0     H16950  10.335   5.970   1.308 -0.1564 -0.3844 -2.3105
  126MOL0     H16951  10.126   6.194   1.309 -0.9365 -1.3811  0.2905
  126MOL0     H16952  10.303   6.211   1.326  0.8962 -1.3808  0.5756
  126MOL0     H16953  10.246   6.275   1.100 -1.1147  0.1346  2.3533
  126MOL0     H16954  10.317   6.110   1.085 -0.4227 -0.0811 -1.5857
  126MOL0     H16955  10.072   6.035   1.078  0.3384  0.1897  1.8603
  126MOL0     H16956  10.022   6.198   1.092 -1.2719 -2.2062 -2.3229
  126MOL0     H16957  10.219   6.125   0.861 -0.7788 -0.6307 -0.5557
  126MOL0     H16958  10.102   6.260   0.859  0.4442  1.3884  2.2831
  126MOL0     H16959  10.030   6.090   0.715 -0.0642 -1.1141 -0.4056
  126MOL0     H16960  10.066   5.960   0.816  2.1005  0.7210 -1.1142
  126MOL0     H16961   9.840   6.277   0.797 -1.8515  0.2211 -1.6559
  126MOL0     H16962   9.505   6.142   0.845 -0.5114 -0.3828  1.0141
  126MOL0     H16963   9.543   6.256   0.981  3.0067  0.7552  0.7464
  126MOL0     H16964   9.616   6.435   0.817  0.9270 -0.8962 -0.1761
  126MOL0     H16965   9.605   6.312   0.691  0.3775  0.5437  0.0881
  126MOL0     H16966   9.388   6.302   0.672 -1.0868  1.9364 -2.3898
  126MOL0     H16967   9.431   6.469   0.659  3.4926 -0.0877 -0.0717
  126MOL0     H16968   9.327   6.353   0.933 -2.8674  2.4874  1.3013
  126MOL0     H16969   9.216   6.410   0.806 -0.2854 -1.2233  0.4388
  126MOL0     H16970   9.101   6.457   1.012 -0.8805 -0.2867  1.3184
  126MOL0     H16971   9.045   6.513   1.260  2.9673  0.1214  2.8863
  126MOL0     H16972   8.966   6.869   1.553 -1.7534  2.9484 -1.0546
  126MOL0     H16973   8.916   7.032   1.734  1.4178  1.9448 -0.2986
  126MOL0     H16974   8.871   7.102   1.952  2.8166 -3.5781  2.7265
  126MOL0     H16975   8.976   7.188   2.060 -0.6150  2.8622 -0.4964
  126MOL0     H16976   9.063   7.353   1.907 -0.3201  1.3277 -2.4286
  126MOL0     H16977   8.965   7.285   1.775  0.9946  1.3336 -0.4399
  126MOL0     H16978   8.766   7.308   1.952 -0.7833  1.1443 -0.4534
  126MOL0     H16979   8.868   7.430   2.027 -3.4150  1.0833  0.2276
  126MOL0     H16980   8.861   7.574   1.841 -2.3786  1.7042 -1.3178
  126MOL0     H16981   8.701   7.522   1.876  0.5027  0.2977  0.7535
  126MOL0     H16982   8.699   7.367   1.689  2.7740 -2.7507  2.0848
  126MOL0     H16983   8.844   7.432   1.621 -2.8067  3.2473 -3.6186
  126MOL0     H16984   8.589   7.575   1.660 -1.1209 -0.3920 -1.5437
  126MOL0     H16985   8.745   7.665   1.634 -0.5729  0.2259  0.4034
  126MOL0     H16986   8.766   7.554   1.415 -0.1298 -0.0591  0.8341
  126MOL0     H16987   8.626   7.646   1.434 -2.1771  0.6576  1.2990
  126MOL0     H16988   8.583   7.475   1.302 -2.7645  0.9615 -0.3840
  126MOL0     H16989   8.645   7.356   1.427  0.4471  0.9594  2.0537
  126MOL0     H16990   9.317   7.078   1.816 -1.7151  2.4089 -1.8814
  126MOL0     H16991   9.379   6.943   1.606 -0.1815 -0.4672 -0.6270
  126MOL0     H16992   9.369   6.797   1.251  3.4731 -2.8479 -1.4866
  126MOL0     H16993   9.425   6.738   1.037 -0.8888  0.8513  1.2856
  126MOL0     H16994   9.979   5.787   1.827  2.9764  0.7989  0.5329
  126MOL0     H16995   9.923   5.547   1.925  2.3870 -1.7842  0.8877
  126MOL0     H16996   9.884   5.124   1.868  0.7637  1.5820 -0.3142
  126MOL0     H16997   9.807   4.929   1.963  1.3300 -1.0522 -0.2321
  126MOL0     H16998   9.632   4.937   2.121 -0.1224  0.5909  1.4177
  126MOL0     H16999   9.597   4.866   2.273 -1.1856 -2.1885 -0.2207
  126MOL0     H17000   9.662   4.651   2.185 -1.0028  0.7344 -1.1341
  126MOL0     H17001   9.722   4.716   2.034 -0.0275 -3.5925  0.0598
  126MOL0     H17002   9.530   4.626   1.981 -1.0492  1.5569 -0.7049
  126MOL0     H17003   9.470   4.791   2.003  3.2999  1.1404 -1.4029
  126MOL0     H17004   9.426   4.549   2.207  1.9148  0.2174 -0.4647
  126MOL0     H17005   9.409   4.718   2.245  0.7364  1.0209 -0.9943
  126MOL0     H17006   9.051   4.667   2.047 -0.1991  1.2153 -0.4218
  126MOL0     H17007  10.026   4.976   2.320  1.9340  0.2997 -0.7098
  126MOL0     H17008  10.271   5.169   2.174  0.8728 -2.2228  2.2209
  126MOL0     H17009  10.152   5.288   2.243  0.0630  0.7916  1.5912
  126MOL0     H17010  10.200   5.139   2.333 -2.8511 -2.4597 -1.3305
  127MOL0     O17011   0.901   1.277   6.534  0.4436  0.1439  0.2463
  127MOL0     C17012   0.969   1.191   6.590 -0.4582 -0.2441 -0.7930
  127MOL0     O17013   1.013   1.209   6.727 -0.7508  0.4621  0.1224
  127MOL0     C17014   0.968   1.318   6.790  0.9453  0.4503 -0.5383
  127MOL0     C17015   1.031   1.435   6.776  0.3184 -1.1295  0.2974
  127MOL0     C17016   0.987   1.552   6.841  0.3159 -0.1063  0.3817
  127MOL0     C17017   0.868   1.549   6.903  0.0570  0.8711  0.1533
  127MOL0     O17018   0.830   1.670   6.960 -0.3779 -0.3577  0.3173
  127MOL0     C17019   0.701   1.697   7.007 -0.8357  0.3566  0.4258
  127MOL0     C17020   0.666   1.841   7.026 -1.3539  0.8171 -0.1950
  127MOL0     C17021   0.740   1.947   6.938 -1.0756 -0.7118  0.1604
  127MOL0     C17022   0.687   2.087   6.936 -0.1710 -0.3616  0.1283
  127MOL0     C17023   0.784   2.185   7.007 -0.0335 -0.6437 -0.1913
  127MOL0     C17024   0.894   2.252   6.911  0.8785 -0.3140 -0.4539
  127MOL0     C17025   0.961   2.358   6.995 -0.0212 -0.4435 -0.2936
  127MOL0     C17026   1.095   2.403   6.931  0.3335 -0.3527 -1.8346
  127MOL0     N17027   1.189   2.287   6.942  0.3151  0.1750  0.3825
  127MOL0     C17028   1.242   2.242   7.064  0.1145  0.5111  0.3164
  127MOL0     C17029   1.293   2.127   7.041 -0.6472 -0.5505 -0.4521
  127MOL0     C17030   1.368   2.042   7.148  0.0460  0.0323  0.2402
  127MOL0     C17031   1.275   1.954   7.228 -0.3921  1.4947  0.2427
  127MOL0     C17032   1.190   1.867   7.120 -0.4206  0.4790  0.6682
  127MOL0     C17033   1.136   1.734   7.168 -0.6111 -0.6855 -0.3654
  127MOL0     O17034   1.018   1.756   7.252 -0.8111 -0.1978 -0.6677
  127MOL0     C17035   0.939   1.647   7.292  0.0791  0.6794 -0.1191
  127MOL0     C17036   0.817   1.671   7.351  0.6464  0.2819  0.6174
  127MOL0     C17037   0.752   1.571   7.425 -0.1473 -0.7202  0.8010
  127MOL0     C17038   0.798   1.436   7.439  0.3211  0.0636  0.5633
  127MOL0     C17039   0.721   1.337   7.526  0.0441  0.0216 -0.3136
  127MOL0     O17040   0.747   1.202   7.514 -0.0016 -0.2563  0.1169
  127MOL0     C17041   0.647   1.128   7.571 -0.0681 -0.2934  0.7619
  127MOL0     C17042   0.693   1.042   7.670  0.4828 -0.6706  0.4933
  127MOL0     C17043   0.591   0.963   7.739 -1.0704  0.5984  0.0984
  127MOL0     C17044   0.464   0.955   7.684  0.9327  0.8065  1.1023
  127MOL0     O17045   0.371   0.869   7.735  0.0404  0.7775 -0.3435
  127MOL0     C17046   0.298   0.912   7.850 -0.1006 -0.6694  0.0540
  127MOL0     C17047   0.316   0.826   7.969 -0.1747  0.9947 -0.2987
  127MOL0     C17048   0.251   0.903   8.093 -0.5497  0.0193 -0.0307
  127MOL0     C17049   0.185   0.814   8.199  0.0876  0.7239  0.7008
  127MOL0     C17050   0.084   0.881   8.288  0.0868 -0.9317 -0.1346
  127MOL0     C17051   0.018   0.781   8.377 -0.4384 -0.2215  0.0202
  127MOL0     C17052   0.113   0.700   8.472 -0.3523 -0.9277 -0.4357
  127MOL0     C17053   0.063   0.577   8.527 -0.5392  0.0730  0.0683
  127MOL0    Cl17054   0.193   0.506   8.620 -0.3885  0.0188 -0.1053
  127MOL0     C17055   0.419   1.045   7.585 -0.4963  0.6825 -0.0076
  127MOL0     C17056   0.512   1.139   7.531  0.3359 -0.2140 -0.1831
  127MOL0     O17057   0.634   1.384   7.596 -0.0021 -0.9455 -0.4923
  127MOL0     C17058   0.913   1.410   7.365 -0.5382 -0.1428  0.5944
  127MOL0     C17059   0.985   1.519   7.303  0.4743 -0.2480 -0.5020
  127MOL0     N17060   1.285   2.104   6.905 -0.3193 -0.1390 -0.2688
  127MOL0     N17061   1.225   2.208   6.842 -0.4034  0.5558  0.2912
  127MOL0     C17062   0.803   1.420   6.923 -1.0388 -1.1485 -0.7601
  127MOL0     C17063   0.862   1.305   6.877  0.5622 -0.1408 -0.3858
  127MOL0     C17064   1.012   1.070   6.507  0.4318  1.0121  0.5917
  127MOL0     C17065   1.109   0.988   6.569  0.4057 -0.2068 -0.3741
  127MOL0     C17066   1.159   0.872   6.513  0.4200  0.4928 -0.5370
  127MOL0     C17067   1.100   0.830   6.387 -0.9608 -0.0678  0.9096
  127MOL0     O17068   1.142   0.726   6.302 -0.4407  0.6791 -0.0658
  127MOL0     C17069   1.228   0.626   6.359  0.7051 -0.5207 -0.2339
  127MOL0     C17070   1.295   0.536   6.264 -1.4047  0.8696  0.2510
  127MOL0     C17071   1.198   0.437   6.194  0.2696 -0.3510  0.6287
  127MOL0     C17072   1.279   0.360   6.087  0.7092 -0.4890  0.3155
  127MOL0     C17073   1.346   0.256   6.162  0.2802 -0.1829 -0.2507
  127MOL0     C17074   1.393   0.161   6.221 -0.3229  0.0008  1.1665
  127MOL0     C17075   1.000   0.907   6.324  0.6982  0.0730  0.2090
  127MOL0     C17076   0.949   1.021   6.389  1.0993 -0.0892 -0.1939
  127MOL0     C17077   0.834   1.093   6.314 -0.0715  0.3963 -1.2198
  127MOL0     H17078   1.106   1.432   6.697  0.2027  2.1948 -0.1108
  127MOL0     H17079   1.049   1.640   6.828  0.7301 -0.5093 -0.4797
  127MOL0     H17080   0.629   1.646   6.943 -1.1549  0.9649  0.2945
  127MOL0     H17081   0.707   1.642   7.101 -0.2512  0.2598  0.3391
  127MOL0     H17082   0.707   1.855   7.127  0.7153 -2.3063 -0.4823
  127MOL0     H17083   0.559   1.862   7.018 -1.6649 -1.4067 -4.5976
  127MOL0     H17084   0.711   1.906   6.840  1.1030 -1.5489 -0.1919
  127MOL0     H17085   0.848   1.940   6.949 -1.2628 -2.0808  1.4011
  127MOL0     H17086   0.671   2.132   6.838 -1.1494 -1.5722 -0.2904
  127MOL0     H17087   0.593   2.076   6.991 -0.0877 -3.7154 -0.2003
  127MOL0     H17088   0.733   2.264   7.063  0.4204 -3.8263  5.3541
  127MOL0     H17089   0.835   2.129   7.085 -1.1121  0.1730  1.1386
  127MOL0     H17090   0.962   2.172   6.881 -0.1331 -1.6582  0.7014
  127MOL0     H17091   0.834   2.295   6.831  0.3118 -0.0443  0.1048
  127MOL0     H17092   0.963   2.329   7.100 -1.1188  3.5172  1.0091
  127MOL0     H17093   0.894   2.445   6.990 -1.2572 -1.4051 -1.8410
  127MOL0     H17094   1.074   2.424   6.826 -4.2236 -0.0512 -1.0673
  127MOL0     H17095   1.130   2.490   6.988 -2.6739  0.9307 -1.7592
  127MOL0     H17096   1.221   2.291   7.158 -3.3235 -1.6553  0.8600
  127MOL0     H17097   1.457   1.989   7.111  0.3068  1.2250 -0.9307
  127MOL0     H17098   1.407   2.116   7.218 -0.4509 -0.3428  0.9216
  127MOL0     H17099   1.347   1.899   7.288 -0.2596  2.4271  0.9549
  127MOL0     H17100   1.208   2.006   7.297 -0.8622  1.8975 -0.4876
  127MOL0     H17101   1.234   1.835   7.025 -2.4412 -1.7494  0.3809
  127MOL0     H17102   1.111   1.927   7.073 -0.2025 -1.4742 -2.4847
  127MOL0     H17103   1.203   1.671   7.228 -3.4493 -1.7916  1.9543
  127MOL0     H17104   1.118   1.665   7.085 -2.4529 -2.5155  1.3951
  127MOL0     H17105   0.792   1.777   7.353  3.4628  1.0074  1.3349
  127MOL0     H17106   0.665   1.613   7.476  0.9117  1.3646  0.9943
  127MOL0     H17107   0.796   1.039   7.705  0.6411  1.7064  0.4138
  127MOL0     H17108   0.625   0.899   7.820 -1.1579 -2.5395 -2.1808
  127MOL0     H17109   0.333   1.010   7.882 -1.8508 -0.3561  1.1571
  127MOL0     H17110   0.192   0.926   7.824  0.1044 -1.2543 -1.1973
  127MOL0     H17111   0.268   0.730   7.951  1.0799  0.5456 -1.4378
  127MOL0     H17112   0.423   0.810   7.986 -0.4138 -1.7983 -0.9691
  127MOL0     H17113   0.331   0.964   8.135  0.9704 -1.1864 -1.1052
  127MOL0     H17114   0.180   0.978   8.055  0.1237  0.5760 -0.1957
  127MOL0     H17115   0.263   0.757   8.249  0.2448 -0.0257 -0.3704
  127MOL0     H17116   0.127   0.748   8.133  0.8877  2.4052 -1.8394
  127MOL0     H17117   0.006   0.932   8.230 -2.2450 -2.6950  1.2590
  127MOL0     H17118   0.125   0.964   8.346  0.0736 -1.9237  1.3615
  127MOL0     H17119  -0.050   0.831   8.446 -1.1837 -3.2130  1.6077
  127MOL0     H17120  -0.028   0.705   8.313  1.2946 -1.7149  0.4873
  127MOL0     H17121   0.147   0.762   8.556 -0.5366  1.2418 -1.8878
  127MOL0     H17122   0.210   0.689   8.424 -0.6009  0.1748 -1.2089
  127MOL0     H17123  -0.032   0.601   8.576 -0.3700  4.3815 -1.2959
  127MOL0     H17124   0.033   0.519   8.438  1.2344 -0.9355  0.0919
  127MOL0     H17125   0.314   1.047   7.556 -0.9009 -1.2820  1.1895
  127MOL0     H17126   0.472   1.217   7.467 -0.2110 -1.6636 -1.6892
  127MOL0     H17127   0.950   1.309   7.375 -1.6975 -0.4455  2.2649
  127MOL0     H17128   1.079   1.500   7.252  1.4048  2.2287  0.1255
  127MOL0     H17129   0.711   1.416   6.981  0.2523 -0.4513  1.4722
  127MOL0     H17130   0.809   1.214   6.903 -0.2295 -0.2142 -2.1611
  127MOL0     H17131   1.144   1.014   6.669 -1.7236 -2.9083  1.2130
  127MOL0     H17132   1.239   0.823   6.567  1.1266  2.9798  0.8631
  127MOL0     H17133   1.153   0.569   6.415 -1.8528  0.9641 -1.9268
  127MOL0     H17134   1.300   0.684   6.418  0.7532  2.0679 -2.6424
  127MOL0     H17135   1.368   0.471   6.313  1.0530 -0.3087 -4.3593
  127MOL0     H17136   1.342   0.586   6.179 -2.4332  0.5385 -0.5393
  127MOL0     H17137   1.116   0.493   6.148  0.2385 -1.1774 -0.3485
  127MOL0     H17138   1.147   0.368   6.263 -0.5753  2.3283  2.9046
  127MOL0     H17139   1.214   0.303   6.021 -0.4987 -0.9450  1.8374
  127MOL0     H17140   1.339   0.434   6.032 -0.2612  1.7636  2.0823
  127MOL0     H17141   1.437   0.074   6.265 -0.1478 -0.1962  0.6073
  127MOL0     H17142   0.958   0.882   6.227  3.0888 -0.5925 -0.7379
  127MOL0     H17143   0.765   1.142   6.384  0.9573 -1.3258  1.1681
  127MOL0     H17144   0.860   1.178   6.250  0.9568  0.8570 -0.2301
  127MOL0     H17145   0.770   1.023   6.260  0.4279  0.6068 -2.1073
  128MOL0     O17146  11.196   1.964   6.321 -0.4493 -0.4456 -0.5659
  128MOL0     C17147  11.269   2.057   6.272  0.9236 -0.2199 -0.7025
  128MOL0     O17148  11.220   2.151   6.189  0.3658 -0.0782 -0.3044
  128MOL0     C17149  11.088   2.180   6.192  0.0362 -0.8325  0.1830
  128MOL0     C17150  11.023   2.187   6.069 -0.2651  0.1118  0.2445
  128MOL0     C17151  10.892   2.230   6.070  0.1405 -0.6488  0.4993
  128MOL0     C17152  10.834   2.284   6.186 -0.5311 -0.8680 -0.0823
  128MOL0     O17153  10.714   2.332   6.168  0.3641  0.1098 -0.2384
  128MOL0     C17154  10.686   2.471   6.198  0.0457  0.4843  0.6314
  128MOL0     C17155  10.614   2.534   6.076 -0.9373 -0.3059  0.3003
  128MOL0     C17156  10.470   2.471   6.044 -0.5285 -0.4966 -1.1510
  128MOL0     C17157  10.358   2.514   6.147  0.0114 -0.1286 -0.6454
  128MOL0     C17158  10.300   2.647   6.109  0.5643  0.2143 -0.4324
  128MOL0     C17159  10.211   2.717   6.224 -0.0686 -0.8586  0.7706
  128MOL0     C17160  10.061   2.676   6.245  0.1509  0.4870  0.5127
  128MOL0     C17161   9.969   2.777   6.309 -0.1583 -0.7107  0.5184
  128MOL0     N17162   9.997   2.821   6.445  0.1099  0.2550 -0.0415
  128MOL0     C17163  10.063   2.749   6.537  0.3446 -0.2285  0.8067
  128MOL0     C17164  10.094   2.839   6.636  0.1953  0.0899  0.1033
  128MOL0     C17165  10.159   2.801   6.768  0.6444 -0.8050  0.1385
  128MOL0     C17166  10.308   2.773   6.743 -0.3599 -0.6853 -0.4029
  128MOL0     C17167  10.376   2.712   6.850 -0.5324 -0.7944 -0.1088
  128MOL0     C17168  10.527   2.703   6.818  0.2501 -0.5003 -0.0585
  128MOL0     O17169  10.586   2.834   6.774  0.2455 -1.3655  0.4160
  128MOL0     C17170  10.723   2.847   6.784  0.8053  0.4595  0.5869
  128MOL0     C17171  10.809   2.739   6.802 -0.1017  0.8213 -0.1509
  128MOL0     C17172  10.944   2.750   6.828  0.7277  0.0964  0.3473
  128MOL0     C17173  11.002   2.881   6.842  0.4631 -0.3071 -0.4325
  128MOL0     C17174  11.143   2.891   6.857  0.5676  0.2132 -0.4780
  128MOL0     O17175  11.216   2.769   6.868 -0.3396 -0.2243  0.2030
  128MOL0     C17176  11.355   2.780   6.852  0.1462  0.5757 -0.1231
  128MOL0     C17177  11.425   2.817   6.731  0.8130 -0.6673 -1.1131
  128MOL0     C17178  11.565   2.819   6.716 -1.5682  0.0516  0.2989
  128MOL0     C17179  11.646   2.784   6.825 -1.0363  0.4838  0.1604
  128MOL0     O17180  11.786   2.795   6.831 -0.0158 -0.3879  0.7246
  128MOL0     C17181  11.829   2.926   6.795 -0.3381 -0.0594  0.0573
  128MOL0     C17182  11.959   2.969   6.854  0.0327 -0.2492 -0.4782
  128MOL0     C17183  12.085   2.880   6.812  0.1154  0.0125 -0.2068
  128MOL0     C17184  12.222   2.915   6.878 -0.0248 -0.5757  0.7390
  128MOL0     C17185  12.331   2.807   6.868  0.4814 -0.4410 -0.3151
  128MOL0     C17186  12.463   2.879   6.913 -0.2373  0.0875 -1.1462
  128MOL0     C17187  12.514   2.979   6.807 -0.8829 -0.1012 -0.0125
  128MOL0     C17188  12.670   2.999   6.814 -0.4115  0.0245  0.0956
  128MOL0    Cl17189  12.717   3.107   6.683 -0.3476  0.1002  0.3632
  128MOL0     C17190  11.580   2.731   6.937 -0.1570  0.2675  0.5403
  128MOL0     C17191  11.440   2.723   6.950 -0.1883  0.1618  0.6991
  128MOL0     O17192  11.189   3.002   6.868 -0.0396  0.8316 -0.1425
  128MOL0     C17193  10.914   2.997   6.818  0.3576  0.6997  0.6296
  128MOL0     C17194  10.773   2.978   6.790  0.7605  0.3302  0.4549
  128MOL0     N17195  10.037   2.963   6.602  0.2811  0.4400 -0.4377
  128MOL0     N17196   9.976   2.951   6.488 -0.6407 -0.0275  0.0029
  128MOL0     C17197  10.900   2.290   6.294 -0.4502 -0.5125 -0.0025
  128MOL0     C17198  11.032   2.246   6.308  0.5194  0.3709  0.1101
  128MOL0     C17199  11.417   2.048   6.299  0.9025  0.5170  1.9204
  128MOL0     C17200  11.498   2.138   6.223  0.1548  0.4163  0.0557
  128MOL0     C17201  11.633   2.136   6.234 -0.5290 -0.2789  0.4439
  128MOL0     C17202  11.705   2.049   6.302  0.1694  0.0393 -0.7267
  128MOL0     O17203  11.838   2.081   6.313 -0.3180  0.1146  0.5269
  128MOL0     C17204  11.927   1.990   6.363  0.7632 -1.4373  0.3022
  128MOL0     C17205  12.067   2.043   6.341 -0.0609  0.4757  0.8803
  128MOL0     C17206  12.114   2.149   6.429  0.3640  0.3066 -1.0873
  128MOL0     C17207  12.250   2.187   6.405  0.4701  0.0102  0.0033
  128MOL0     C17208  12.314   2.282   6.497  0.1118  0.5027  0.2433
  128MOL0     C17209  12.366   2.364   6.565  1.1958  1.0964 -1.1510
  128MOL0     C17210  11.636   1.947   6.369 -0.4606  0.6491 -0.3956
  128MOL0     C17211  11.495   1.945   6.366  0.0373 -0.8928 -0.1935
  128MOL0     C17212  11.424   1.840   6.444 -0.5130  0.2863 -0.3430
  128MOL0     H17213  11.076   2.143   5.986 -0.9990  0.0408 -0.1867
  128MOL0     H17214  10.833   2.217   5.979 -0.3638  0.6497  0.6076
  128MOL0     H17215  10.611   2.469   6.278 -0.8861 -1.4129 -0.2343
  128MOL0     H17216  10.772   2.536   6.220  0.7465 -0.1958 -0.0685
  128MOL0     H17217  10.676   2.519   5.988 -0.0059  1.6717  0.5596
  128MOL0     H17218  10.608   2.642   6.093 -0.8237  0.6653 -4.5198
  128MOL0     H17219  10.485   2.363   6.032  0.8257 -0.6164  1.0735
  128MOL0     H17220  10.439   2.513   5.947  2.7397  1.6803 -1.4199
  128MOL0     H17221  10.278   2.440   6.158  0.8588 -1.6996 -3.6327
  128MOL0     H17222  10.405   2.510   6.246 -0.1097 -1.0248 -0.6142
  128MOL0     H17223  10.378   2.716   6.077  0.1031  0.1771 -1.7013
  128MOL0     H17224  10.242   2.628   6.018  1.6842  0.7416 -1.2775
  128MOL0     H17225  10.267   2.705   6.317  3.3846 -3.4136 -1.3770
  128MOL0     H17226  10.208   2.821   6.188 -2.2284 -0.3314  2.3095
  128MOL0     H17227  10.058   2.577   6.293  0.9220 -0.4175 -1.2167
  128MOL0     H17228  10.005   2.663   6.152 -2.0743 -3.1666  2.1319
  128MOL0     H17229   9.951   2.863   6.244  1.9663  1.1185  2.1812
  128MOL0     H17230   9.876   2.724   6.329 -0.0700 -1.8998 -1.8872
  128MOL0     H17231  10.081   2.642   6.530 -0.9656 -0.3967 -0.8105
  128MOL0     H17232  10.146   2.881   6.841  4.3134 -0.9380  1.1361
  128MOL0     H17233  10.116   2.707   6.803  1.6669 -1.0326  0.8049
  128MOL0     H17234  10.328   2.728   6.646  1.1821  1.3225 -1.0912
  128MOL0     H17235  10.359   2.869   6.729 -1.0482 -0.2600 -0.0802
  128MOL0     H17236  10.331   2.615   6.872  2.4418 -2.1161  0.6289
  128MOL0     H17237  10.370   2.773   6.940 -3.8550 -2.7449  1.1927
  128MOL0     H17238  10.539   2.636   6.732  2.4375 -1.6546  1.0542
  128MOL0     H17239  10.580   2.649   6.897  1.3212 -0.7824 -0.9456
  128MOL0     H17240  10.767   2.639   6.790  1.2381  0.1360  0.5724
  128MOL0     H17241  10.998   2.657   6.839 -1.5842 -1.1570  1.9531
  128MOL0     H17242  11.353   2.839   6.653 -3.6369  0.8830  2.9992
  128MOL0     H17243  11.615   2.866   6.633  0.9544 -1.0376  1.1159
  128MOL0     H17244  11.843   2.939   6.688 -0.3548  1.5259  0.2286
  128MOL0     H17245  11.748   2.982   6.842  0.0874  0.3241  0.3407
  128MOL0     H17246  11.989   3.070   6.824 -4.3920  1.5994  0.5355
  128MOL0     H17247  11.953   2.981   6.962  1.7517  2.3306 -0.5886
  128MOL0     H17248  12.054   2.779   6.842  3.9947 -0.9793  1.0088
  128MOL0     H17249  12.095   2.897   6.704 -1.1733  2.9538  0.0478
  128MOL0     H17250  12.190   2.925   6.982 -1.3284  0.5566  0.2618
  128MOL0     H17251  12.252   3.009   6.830 -0.4014  1.3446  3.9276
  128MOL0     H17252  12.334   2.770   6.765 -2.0086  1.8774 -1.3569
  128MOL0     H17253  12.302   2.726   6.935  0.3357 -0.0431  0.1061
  128MOL0     H17254  12.438   2.940   7.000  2.6306  0.1414 -0.2556
  128MOL0     H17255  12.530   2.803   6.955 -4.7484 -3.3151  0.6336
  128MOL0     H17256  12.462   3.073   6.824  3.0344  1.7988  3.0764
  128MOL0     H17257  12.493   2.929   6.711  0.3960  0.1492 -0.4361
  128MOL0     H17258  12.695   3.040   6.913 -3.3923  0.7931  0.6276
  128MOL0     H17259  12.715   2.900   6.802 -2.3666 -0.6948 -1.8167
  128MOL0     H17260  11.636   2.692   7.021 -2.9972  0.0300  2.4884
  128MOL0     H17261  11.388   2.689   7.039 -3.3554 -1.2656 -1.5120
  128MOL0     H17262  10.965   3.093   6.810 -1.5933  1.8968  1.5101
  128MOL0     H17263  10.699   3.057   6.787 -1.5546 -1.7211  0.6830
  128MOL0     H17264  10.853   2.349   6.371 -0.4349 -1.7314  0.9750
  128MOL0     H17265  11.082   2.271   6.402  1.7200  0.1757 -0.4635
  128MOL0     H17266  11.459   2.218   6.161  2.4133  1.4470 -0.1384
  128MOL0     H17267  11.678   2.213   6.172 -1.7565  0.9532  1.0365
  128MOL0     H17268  11.939   1.901   6.301  0.9551 -1.0440 -0.2272
  128MOL0     H17269  11.896   1.949   6.460  1.2736 -1.9869  0.2391
  128MOL0     H17270  12.056   2.089   6.243 -0.0164  0.6108  0.9388
  128MOL0     H17271  12.146   1.968   6.345 -0.9883 -0.6886 -1.0485
  128MOL0     H17272  12.111   2.106   6.530  4.6355  3.1312  0.5397
  128MOL0     H17273  12.055   2.241   6.420  0.6133  0.3562 -2.4651
  128MOL0     H17274  12.308   2.094   6.401  0.2234 -0.1006 -1.1628
  128MOL0     H17275  12.250   2.226   6.303 -2.9981 -1.1472 -0.5602
  128MOL0     H17276  12.391   2.431   6.645 -1.6467  0.6138  0.2797
  128MOL0     H17277  11.690   1.884   6.439  0.7900  0.6312 -1.3325
  128MOL0     H17278  11.377   1.765   6.380 -0.0455 -1.6243  1.4305
  128MOL0     H17279  11.500   1.792   6.507 -0.2390  2.0227  0.6874
  128MOL0     H17280  11.353   1.884   6.514  0.4384  3.8762 -1.4485
  129MOL0     O17281   8.892  10.957   3.251  0.1559 -0.6707 -0.3687
  129MOL0     C17282   8.775  10.979   3.212  0.7385  1.1539 -0.7915
  129MOL0     O17283   8.685  11.070   3.274  0.0939 -0.6013 -0.2618
  129MOL0     C17284   8.748  11.165   3.337 -0.1625  0.2736 -0.1904
  129MOL0     C17285   8.745  11.290   3.284  0.4482 -0.1322  1.2823
  129MOL0     C17286   8.806  11.395   3.344  0.2687 -0.5860 -0.4530
  129MOL0     C17287   8.855  11.388   3.478  1.2935 -0.0674  0.0153
  129MOL0     O17288   8.904  11.500   3.530 -0.2299 -0.4697 -0.4945
  129MOL0     C17289   9.000  11.495   3.643 -0.4571  0.0459  0.4028
  129MOL0     C17290   9.033  11.632   3.700  0.3211  0.1348 -1.8228
  129MOL0     C17291   9.100  11.724   3.596  0.2003  0.3690 -0.0793
  129MOL0     C17292   9.255  11.741   3.606 -0.4465 -0.5437  0.7169
  129MOL0     C17293   9.347  11.642   3.522 -0.4041 -0.2401  0.0245
  129MOL0     C17294   9.487  11.673   3.566  0.5712  0.5337 -0.4777
  129MOL0     C17295   9.544  11.813   3.521  0.2452 -0.4875 -0.4935
  129MOL0     C17296   9.693  11.828   3.549  0.1825  1.1728  0.2294
  129MOL0     N17297   9.711  11.871   3.692 -0.3922  0.4500 -0.9980
  129MOL0     C17298   9.734  12.001   3.734 -0.2860 -0.6376 -0.3812
  129MOL0     C17299   9.768  11.992   3.865 -0.0563 -0.3074  0.3708
  129MOL0     C17300   9.824  12.111   3.955  0.6844 -0.6082  0.1314
  129MOL0     C17301   9.806  12.259   3.907 -0.2615  0.2764  0.0361
  129MOL0     C17302   9.759  12.360   4.019  0.4170  0.5605  0.1208
  129MOL0     C17303   9.861  12.384   4.128 -0.5848  0.3665 -0.6744
  129MOL0     O17304   9.879  12.268   4.218 -0.2634 -0.8040 -0.5382
  129MOL0     C17305   9.965  12.264   4.330 -0.1619 -0.3753 -0.4024
  129MOL0     C17306   9.964  12.148   4.409 -0.7917  0.6111  0.4571
  129MOL0     C17307  10.052  12.142   4.518  0.1184 -0.2776 -0.3666
  129MOL0     C17308  10.115  12.259   4.564  0.6185  0.1653 -0.3034
  129MOL0     C17309  10.165  12.264   4.708  0.1707  1.0822 -0.2404
  129MOL0     O17310  10.222  12.383   4.751  0.9148  0.1384  0.2795
  129MOL0     C17311  10.316  12.389   4.850  0.9082  0.7426 -0.3494
  129MOL0     C17312  10.328  12.501   4.930  0.2980 -1.5259  0.2899
  129MOL0     C17313  10.411  12.507   5.043  0.2957  1.2552  0.0661
  129MOL0     C17314  10.500  12.404   5.068 -0.1184  0.2360 -0.0660
  129MOL0     O17315  10.586  12.425   5.171 -1.1191 -0.0473 -0.1258
  129MOL0     C17316  10.608  12.308   5.259  0.2954 -0.0076 -0.3784
  129MOL0     C17317  10.669  12.348   5.392 -0.2615  0.2839  0.7273
  129MOL0     C17318  10.826  12.376   5.379  0.4803  0.5855  0.4658
  129MOL0     C17319  10.913  12.251   5.413  0.9611 -0.3994  0.0311
  129MOL0     C17320  10.882  12.166   5.535 -0.0238  0.9650 -0.7470
  129MOL0     C17321  10.912  12.234   5.669 -0.2494  0.0523  0.2194
  129MOL0     C17322  10.874  12.140   5.779  0.9099  0.4486 -0.6411
  129MOL0     C17323  10.899  12.180   5.926  0.4702 -0.2987 -0.2755
  129MOL0    Cl17324  10.833  12.342   5.955 -0.5137 -0.0413  0.1854
  129MOL0     C17325  10.490  12.286   4.987  0.1103  0.7816  0.9269
  129MOL0     C17326  10.400  12.284   4.875 -0.7353  0.6680  0.0616
  129MOL0     O17327  10.140  12.175   4.790  0.1112  0.7124  0.2790
  129MOL0     C17328  10.110  12.375   4.485 -0.2069 -0.0839  0.4359
  129MOL0     C17329  10.040  12.372   4.366 -0.0258 -0.3536 -0.9672
  129MOL0     N17330   9.770  11.863   3.894 -0.3970  0.1293 -1.1169
  129MOL0     N17331   9.736  11.794   3.799  0.3414 -0.2628  0.1888
  129MOL0     C17332   8.845  11.262   3.544  0.7431  0.4547  1.0293
  129MOL0     C17333   8.792  11.148   3.471 -1.1223  0.4088  0.7081
  129MOL0     C17334   8.718  10.890   3.112 -0.2234  0.1430 -0.7643
  129MOL0     C17335   8.581  10.855   3.128  0.3147 -0.3698 -0.0803
  129MOL0     C17336   8.515  10.764   3.043 -0.9974  0.0693  0.7416
  129MOL0     C17337   8.582  10.716   2.929  0.3679  0.2669 -0.8210
  129MOL0     O17338   8.500  10.630   2.855 -0.0528 -0.2599  0.7000
  129MOL0     C17339   8.555  10.556   2.745  0.7181 -0.0519  0.2887
  129MOL0     C17340   8.439  10.522   2.653 -0.0435  0.0514  0.4805
  129MOL0     C17341   8.490  10.441   2.532  0.4774 -0.1375 -0.7536
  129MOL0     C17342   8.505  10.292   2.565 -0.5086 -0.7215  0.3471
  129MOL0     C17343   8.379  10.247   2.610 -0.1601  0.5592 -0.0495
  129MOL0     C17344   8.285  10.190   2.669  0.3352  0.3709 -0.5014
  129MOL0     C17345   8.722  10.744   2.917  0.5989  1.2195 -0.5778
  129MOL0     C17346   8.787  10.831   3.007  0.3120  0.5267 -0.5752
  129MOL0     C17347   8.934  10.849   2.976  0.4941 -0.2744 -0.6476
  129MOL0     H17348   8.708  11.294   3.182  1.3861  0.1478  0.9499
  129MOL0     H17349   8.815  11.481   3.279 -1.2017 -0.5895 -0.7005
  129MOL0     H17350   8.940  11.448   3.722 -2.2686 -0.8183 -1.3861
  129MOL0     H17351   9.088  11.433   3.624 -1.1288 -1.6774  2.4957
  129MOL0     H17352   9.090  11.627   3.792 -2.8293  0.3914  0.3021
  129MOL0     H17353   8.938  11.665   3.742  2.1116 -1.4992  4.5156
  129MOL0     H17354   9.063  11.826   3.610  1.8566  0.8228  1.3476
  129MOL0     H17355   9.080  11.696   3.492 -1.7018 -1.1977  0.6363
  129MOL0     H17356   9.261  11.845   3.571 -1.5597 -0.5903  0.3501
  129MOL0     H17357   9.301  11.753   3.705  0.0984  0.0456  0.4018
  129MOL0     H17358   9.330  11.535   3.530 -0.3308 -0.2432  0.1405
  129MOL0     H17359   9.337  11.671   3.417  0.1390  1.0201  0.2916
  129MOL0     H17360   9.485  11.655   3.674 -1.9359  0.8560 -0.4226
  129MOL0     H17361   9.549  11.598   3.517  1.3729  1.2291 -0.5474
  129MOL0     H17362   9.498  11.893   3.580  3.2496  1.0058  0.0772
  129MOL0     H17363   9.526  11.834   3.415 -3.4514  0.6534  0.2257
  129MOL0     H17364   9.739  11.731   3.531 -1.5135  0.8265 -2.7622
  129MOL0     H17365   9.727  11.910   3.487  0.1404 -0.1141 -1.5584
  129MOL0     H17366   9.726  12.094   3.678  2.4324  0.2839  0.6098
  129MOL0     H17367   9.769  12.101   4.049 -2.9722  2.4887 -1.4247
  129MOL0     H17368   9.931  12.093   3.971  1.9933  1.5441 -4.4021
  129MOL0     H17369   9.904  12.277   3.863 -0.1906  0.5192  0.2908
  129MOL0     H17370   9.733  12.279   3.829 -1.4552  1.1273  1.3176
  129MOL0     H17371   9.662  12.334   4.063 -1.7362  0.8600 -3.9371
  129MOL0     H17372   9.754  12.461   3.977 -0.9060  1.1967  1.6852
  129MOL0     H17373   9.823  12.457   4.201  1.2763  0.1913  0.5292
  129MOL0     H17374   9.953  12.420   4.083 -0.5038 -1.3669 -2.0165
  129MOL0     H17375   9.903  12.061   4.384  1.9913 -1.2560 -0.3731
  129MOL0     H17376  10.055  12.045   4.566 -1.6706 -1.5891 -2.6722
  129MOL0     H17377  10.263  12.586   4.911 -2.6468 -3.4655  1.0114
  129MOL0     H17378  10.408  12.590   5.113 -0.3786  0.1906  1.3547
  129MOL0     H17379  10.513  12.266   5.294 -1.0861  1.3865 -2.2192
  129MOL0     H17380  10.676  12.232   5.217  0.2438 -0.1906 -0.1349
  129MOL0     H17381  10.615  12.439   5.419  0.6262  0.4602  1.9771
  129MOL0     H17382  10.650  12.279   5.474 -3.1554  0.8739  0.6558
  129MOL0     H17383  10.841  12.406   5.275  1.4393  3.6921  1.3706
  129MOL0     H17384  10.855  12.461   5.442 -0.2068  0.9271  0.3341
  129MOL0     H17385  11.012  12.287   5.440  1.9039 -4.1587  2.3074
  129MOL0     H17386  10.920  12.190   5.323  0.6907 -1.3339  0.6205
  129MOL0     H17387  10.958  12.087   5.532  0.0391  1.0471 -2.3069
  129MOL0     H17388  10.777  12.135   5.534 -0.0578  0.6595  2.3882
  129MOL0     H17389  11.017  12.255   5.691 -1.2691  1.9084  4.1408
  129MOL0     H17390  10.851  12.324   5.667 -1.3841 -0.6564  1.4084
  129MOL0     H17391  10.915  12.042   5.751  0.0487  0.3136 -1.4975
  129MOL0     H17392  10.765  12.129   5.772  1.1088 -1.9662 -0.7198
  129MOL0     H17393  10.855  12.113   6.000  0.3848 -1.3002 -1.2108
  129MOL0     H17394  11.007  12.172   5.942  0.0291 -1.8087  2.4271
  129MOL0     H17395  10.547  12.193   4.991 -1.8557 -0.5938 -1.0497
  129MOL0     H17396  10.394  12.204   4.802  0.9993 -1.1312  1.7822
  129MOL0     H17397  10.153  12.467   4.522  0.7830 -0.3646 -0.0004
  129MOL0     H17398  10.036  12.468   4.316  1.5528  0.6623  0.7292
  129MOL0     H17399   8.866  11.254   3.651  3.4887  1.2278  0.6332
  129MOL0     H17400   8.778  11.059   3.533  1.4249 -0.8495 -0.3424
  129MOL0     H17401   8.516  10.898   3.203 -0.0574  1.6637 -1.4871
  129MOL0     H17402   8.413  10.739   3.069 -1.5883  3.0153  1.6469
  129MOL0     H17403   8.607  10.467   2.782  0.2377 -0.3989  0.1365
  129MOL0     H17404   8.629  10.619   2.695 -0.0529  1.2528  0.7632
  129MOL0     H17405   8.406  10.619   2.615  2.7751  1.1364  0.5586
  129MOL0     H17406   8.370  10.467   2.717 -1.8871  1.8930  0.1688
  129MOL0     H17407   8.585  10.479   2.494  0.1697  0.7755 -0.6343
  129MOL0     H17408   8.417  10.445   2.450 -0.1783 -0.2015 -0.1792
  129MOL0     H17409   8.535  10.229   2.481 -0.3283 -0.9598  0.5850
  129MOL0     H17410   8.583  10.269   2.639 -1.7346 -1.7359  1.3597
  129MOL0     H17411   8.205  10.140   2.718  1.1259 -2.9649 -2.2879
  129MOL0     H17412   8.762  10.694   2.829 -1.8568  2.1747 -2.3619
  129MOL0     H17413   8.956  10.814   2.874  1.7286 -1.9601  0.1508
  129MOL0     H17414   8.964  10.954   2.981 -0.0248  0.0257 -2.8091
  129MOL0     H17415   8.992  10.783   3.040 -0.2025 -0.5004 -0.2368
  130MOL0     O17416   7.778   9.937   1.749 -0.8401  0.1939 -0.1481
  130MOL0     C17417   7.682   9.892   1.811 -0.9262  0.1771  1.0533
  130MOL0     O17418   7.683   9.791   1.902 -0.0260  0.3862  0.6289
  130MOL0     C17419   7.803   9.759   1.946 -0.9852  0.0624  0.8380
  130MOL0     C17420   7.892   9.837   2.026 -0.3291  0.5784 -0.6252
  130MOL0     C17421   8.010   9.783   2.069 -0.4480  0.5818  0.6667
  130MOL0     C17422   8.068   9.666   2.013 -0.4444  0.3975 -0.4767
  130MOL0     O17423   8.190   9.619   2.073  0.0868 -0.4310 -0.2731
  130MOL0     C17424   8.170   9.496   2.143  0.1400  0.3553  0.8003
  130MOL0     C17425   8.299   9.471   2.216 -0.1838 -0.2142 -0.0351
  130MOL0     C17426   8.302   9.535   2.358 -0.6392  0.1096 -0.1860
  130MOL0     C17427   8.445   9.537   2.412  0.3560 -0.3741 -0.4716
  130MOL0     C17428   8.454   9.578   2.555  0.0608 -0.2619 -0.0609
  130MOL0     C17429   8.601   9.570   2.593 -0.6789  0.2376 -0.4060
  130MOL0     C17430   8.631   9.598   2.742  0.2360  0.1176 -0.7973
  130MOL0     C17431   8.780   9.582   2.768  0.0374 -0.0094  0.0530
  130MOL0     N17432   8.809   9.524   2.898  0.3660 -0.1506  0.3913
  130MOL0     C17433   8.778   9.390   2.930  0.5004 -0.3034  1.2915
  130MOL0     C17434   8.812   9.376   3.063  0.1620  0.1598  0.1250
  130MOL0     C17435   8.783   9.271   3.165  0.7122  0.6947 -0.8944
  130MOL0     C17436   8.741   9.323   3.299  0.4545  0.5052 -0.1116
  130MOL0     C17437   8.597   9.392   3.315 -0.5016 -0.1557  0.0357
  130MOL0     C17438   8.598   9.455   3.457 -0.1276 -0.4876  0.2491
  130MOL0     O17439   8.463   9.475   3.478 -0.0369  0.6428 -0.5722
  130MOL0     C17440   8.411   9.449   3.604 -0.5071 -0.6764 -0.2279
  130MOL0     C17441   8.465   9.377   3.720 -0.6946 -0.2695  0.1581
  130MOL0     C17442   8.379   9.352   3.836  0.1778 -0.2590  0.7724
  130MOL0     C17443   8.243   9.397   3.825  0.0603  0.4574 -0.9101
  130MOL0     C17444   8.151   9.357   3.935  0.9735  0.0299 -0.3720
  130MOL0     O17445   8.207   9.340   4.060 -0.3011 -0.4141  0.4567
  130MOL0     C17446   8.145   9.280   4.169  0.0101 -0.3208  0.2586
  130MOL0     C17447   8.209   9.165   4.225  0.0788 -0.4275 -0.4125
  130MOL0     C17448   8.148   9.101   4.329 -0.0743  1.4791 -0.7598
  130MOL0     C17449   8.039   9.146   4.391  0.8941 -0.1534 -0.0223
  130MOL0     O17450   8.002   9.081   4.502  0.5027  0.0677  0.6817
  130MOL0     C17451   7.868   9.114   4.556  1.1411 -0.4505 -0.1850
  130MOL0     C17452   7.761   9.053   4.466  0.1598  0.1811  0.4347
  130MOL0     C17453   7.774   8.900   4.437 -0.7081  0.4854 -0.7794
  130MOL0     C17454   7.663   8.840   4.345  0.9831 -0.1108  0.1478
  130MOL0     C17455   7.698   8.698   4.307 -1.3395  0.0879  0.0846
  130MOL0     C17456   7.593   8.629   4.226  0.0685  0.0747  0.1632
  130MOL0     C17457   7.636   8.482   4.191  0.5538 -0.7063  0.0431
  130MOL0     C17458   7.531   8.424   4.094 -0.2028  0.8101  0.1036
  130MOL0    Cl17459   7.360   8.467   4.131 -0.7551 -0.4229 -0.0140
  130MOL0     C17460   7.977   9.261   4.330 -0.6959  1.0894 -0.1852
  130MOL0     C17461   8.024   9.327   4.219  0.3403  0.5119 -0.5600
  130MOL0     O17462   8.035   9.338   3.900  0.4083  0.2197 -0.1207
  130MOL0     C17463   8.195   9.462   3.714 -0.3254 -0.8214  0.0771
  130MOL0     C17464   8.277   9.488   3.610 -0.6837  0.0209 -0.4887
  130MOL0     N17465   8.887   9.488   3.103  0.0331  0.8050  0.5843
  130MOL0     N17466   8.883   9.576   3.003 -1.2842 -0.0869  0.4302
  130MOL0     C17467   7.985   9.596   1.931 -0.4164  0.0791 -0.2254
  130MOL0     C17468   7.856   9.642   1.907  0.3082  1.0533  0.8655
  130MOL0     C17469   7.547   9.932   1.756  0.6080 -0.4587 -0.5418
  130MOL0     C17470   7.526   9.928   1.618 -0.7766 -0.2366  0.6973
  130MOL0     C17471   7.414   9.969   1.555  0.2337  0.5975  0.1759
  130MOL0     C17472   7.291   9.995   1.625 -0.1128  0.1725  0.8783
  130MOL0     O17473   7.169  10.026   1.562 -0.0379 -0.0184  0.6545
  130MOL0     C17474   7.162  10.032   1.420 -0.9075  0.8727  0.1722
  130MOL0     C17475   7.035  10.121   1.385  0.3262  1.2585 -1.2175
  130MOL0     C17476   7.037  10.152   1.231 -0.3126  0.1551  0.8575
  130MOL0     C17477   6.909  10.227   1.191 -0.5618 -0.1878 -0.9575
  130MOL0     C17478   6.945  10.326   1.093 -0.2867  0.4249 -0.1584
  130MOL0     C17479   6.984  10.411   1.017  0.5935 -0.4282  0.0548
  130MOL0     C17480   7.306   9.984   1.765  0.4434 -0.1208  0.4760
  130MOL0     C17481   7.428   9.954   1.832 -0.3503  0.1975  0.3410
  130MOL0     C17482   7.421   9.920   1.979 -1.0030  0.0775  0.4647
  130MOL0     H17483   7.861   9.935   2.060 -1.7658  0.1750 -0.7310
  130MOL0     H17484   8.061   9.839   2.147 -2.0981 -0.8502  2.9035
  130MOL0     H17485   8.086   9.505   2.213  2.4982 -1.6288  4.1754
  130MOL0     H17486   8.152   9.410   2.078  1.6038  0.1370  0.6513
  130MOL0     H17487   8.380   9.510   2.154  1.5977  0.6456  2.6774
  130MOL0     H17488   8.308   9.363   2.230  0.8360 -0.1546 -0.1558
  130MOL0     H17489   8.245   9.478   2.431 -2.2071  1.8767  0.0631
  130MOL0     H17490   8.258   9.634   2.343 -1.3334 -0.2015 -0.2376
  130MOL0     H17491   8.495   9.439   2.409  0.4894 -0.4103  1.8507
  130MOL0     H17492   8.500   9.600   2.342  1.6651 -2.6461 -1.6350
  130MOL0     H17493   8.413   9.679   2.570 -0.1069 -0.6503  2.6629
  130MOL0     H17494   8.400   9.505   2.616 -0.0490 -1.6174 -1.6927
  130MOL0     H17495   8.640   9.472   2.566 -1.1719  0.0902 -0.5814
  130MOL0     H17496   8.664   9.642   2.540 -0.8116  0.2447 -0.5557
  130MOL0     H17497   8.579   9.518   2.795 -0.3858  2.0632  1.6968
  130MOL0     H17498   8.601   9.694   2.784  2.2866 -0.1716  1.5889
  130MOL0     H17499   8.821   9.503   2.704  0.1447  0.5665 -0.6096
  130MOL0     H17500   8.833   9.674   2.742 -1.5195  1.4576  1.8287
  130MOL0     H17501   8.704   9.322   2.889 -1.8541  2.4994  0.5270
  130MOL0     H17502   8.704   9.202   3.134  2.4541 -0.4537 -3.0359
  130MOL0     H17503   8.876   9.224   3.200 -0.6733 -0.8146  0.9921
  130MOL0     H17504   8.756   9.231   3.357  0.5835  0.3137 -0.4442
  130MOL0     H17505   8.825   9.384   3.334  0.4356  1.8924 -2.3403
  130MOL0     H17506   8.515   9.320   3.312  0.0326 -0.7792  0.1193
  130MOL0     H17507   8.582   9.467   3.237  1.8331  1.1327  0.7232
  130MOL0     H17508   8.649   9.551   3.463  0.4646 -0.6296 -1.7911
  130MOL0     H17509   8.645   9.387   3.529  1.3493  1.6618  1.3951
  130MOL0     H17510   8.567   9.340   3.727 -0.6183 -0.4905 -1.6002
  130MOL0     H17511   8.419   9.303   3.925  3.3767  2.3860  0.9932
  130MOL0     H17512   8.307   9.130   4.196  0.5989 -0.2092  1.0354
  130MOL0     H17513   8.198   9.012   4.365 -1.9568 -0.5744 -2.9059
  130MOL0     H17514   7.851   9.068   4.653  0.1909  1.8171  0.7812
  130MOL0     H17515   7.861   9.220   4.581  0.0825 -0.9485  1.8298
  130MOL0     H17516   7.668   9.077   4.520  0.1604  0.4874  0.3024
  130MOL0     H17517   7.754   9.107   4.371 -0.2326  0.0395  0.3781
  130MOL0     H17518   7.868   8.886   4.384 -0.5983 -0.1816 -0.4198
  130MOL0     H17519   7.772   8.867   4.541 -0.6509  0.5609 -0.7537
  130MOL0     H17520   7.652   8.902   4.256  0.9762 -0.1552  0.1175
  130MOL0     H17521   7.571   8.837   4.402  1.7335 -2.5907  1.3427
  130MOL0     H17522   7.721   8.639   4.396 -0.2448  0.4552  0.0670
  130MOL0     H17523   7.789   8.698   4.247 -1.1261 -0.8324  0.3955
  130MOL0     H17524   7.500   8.618   4.281 -0.0696  1.1280  0.1615
  130MOL0     H17525   7.583   8.693   4.138 -0.8685  0.4064  0.5018
  130MOL0     H17526   7.644   8.413   4.276  1.7651  0.4557  0.9049
  130MOL0     H17527   7.734   8.484   4.142  0.5729 -2.4779 -0.0810
  130MOL0     H17528   7.555   8.456   3.992 -1.2197  0.5287 -0.2282
  130MOL0     H17529   7.545   8.316   4.085 -2.8752  0.4724 -0.8361
  130MOL0     H17530   7.883   9.303   4.365 -2.0002  0.9455 -3.2310
  130MOL0     H17531   7.973   9.405   4.162  0.4965 -0.1466 -1.6273
  130MOL0     H17532   8.091   9.492   3.705 -0.3960 -1.3263 -1.0067
  130MOL0     H17533   8.239   9.543   3.525 -2.6039 -0.9629 -0.3238
  130MOL0     H17534   8.010   9.498   1.891  1.3641  0.3025  0.2772
  130MOL0     H17535   7.801   9.585   1.835 -0.7709  1.4381  1.3666
  130MOL0     H17536   7.619   9.918   1.562 -0.8061 -0.1540  0.6323
  130MOL0     H17537   7.410   9.964   1.446 -2.3512  0.3795  0.2132
  130MOL0     H17538   7.152   9.932   1.376  3.4682 -1.4317  3.5608
  130MOL0     H17539   7.250  10.087   1.386 -0.1595  1.8344  3.3574
  130MOL0     H17540   7.020  10.213   1.442 -1.0199  0.6370 -0.5307
  130MOL0     H17541   6.946  10.064   1.413  1.8387 -1.1992 -1.0907
  130MOL0     H17542   7.034  10.054   1.183  1.9549  0.3776  0.1401
  130MOL0     H17543   7.133  10.195   1.203  0.5861 -1.7552  0.8051
  130MOL0     H17544   6.851  10.149   1.140  1.5789 -1.3981 -1.6902
  130MOL0     H17545   6.858  10.274   1.276  0.2427  0.0600 -0.6068
  130MOL0     H17546   7.022  10.478   0.943  1.8129 -1.6517 -0.4759
  130MOL0     H17547   7.213  10.004   1.818  0.9060 -0.2876  1.3534
  130MOL0     H17548   7.337   9.970   2.028 -1.0361 -0.5652  1.0742
  130MOL0     H17549   7.408   9.812   1.970  0.9165 -0.3165  1.7711
  130MOL0     H17550   7.510   9.947   2.037 -1.5491 -0.9888  1.8545
  131MOL0     O17551   9.613   8.791   5.888 -0.3143  0.4320  1.0580
  131MOL0     C17552   9.536   8.722   5.958 -0.0507 -0.0240  0.0058
  131MOL0     O17553   9.424   8.778   6.029 -0.6630 -0.1898  0.4382
  131MOL0     C17554   9.426   8.919   6.046 -0.2432  0.6293 -0.1441
  131MOL0     C17555   9.307   8.990   6.018 -0.2878  0.3104 -1.0059
  131MOL0     C17556   9.315   9.126   6.029 -0.6702  0.7757  0.5322
  131MOL0     C17557   9.414   9.201   6.099  0.6215  0.5602  0.5430
  131MOL0     O17558   9.400   9.338   6.109  0.6018  0.7002  0.0474
  131MOL0     C17559   9.412   9.382   6.241 -0.1536  0.2194 -0.1227
  131MOL0     C17560   9.335   9.515   6.269 -0.0769 -0.2722 -0.4264
  131MOL0     C17561   9.296   9.557   6.413  0.5130  1.0501 -0.7870
  131MOL0     C17562   9.418   9.581   6.500  0.0019  0.5777  0.5924
  131MOL0     C17563   9.372   9.603   6.642  0.2094 -0.6523 -0.0192
  131MOL0     C17564   9.316   9.476   6.722  0.3611 -0.8016 -0.1639
  131MOL0     C17565   9.404   9.353   6.702  0.7079 -0.6929 -1.4213
  131MOL0     C17566   9.342   9.242   6.771 -1.2329  0.9150  0.2250
  131MOL0     N17567   9.432   9.122   6.767  0.4930 -0.8274  0.0652
  131MOL0     C17568   9.486   9.069   6.882  0.9421 -0.1182 -0.5616
  131MOL0     C17569   9.529   8.951   6.836  0.1749 -1.4345 -0.9473
  131MOL0     C17570   9.579   8.844   6.933 -0.3549 -0.2003  0.4041
  131MOL0     C17571   9.683   8.762   6.865  0.4264  0.4662 -0.3230
  131MOL0     C17572   9.736   8.653   6.967  0.0340 -0.5926  0.2279
  131MOL0     C17573   9.655   8.522   6.962  0.8372 -0.5607 -0.3110
  131MOL0     O17574   9.521   8.556   7.011 -0.0387  0.1147  0.5145
  131MOL0     C17575   9.425   8.456   7.008  0.6894 -0.8074 -0.9471
  131MOL0     C17576   9.295   8.484   7.065 -0.4201  0.0605 -0.0100
  131MOL0     C17577   9.188   8.395   7.054  0.5167  0.4140 -0.2818
  131MOL0     C17578   9.200   8.262   6.997  0.0745 -1.2655 -0.2920
  131MOL0     C17579   9.085   8.175   6.984  0.3776 -0.2047  0.3488
  131MOL0     O17580   9.099   8.065   6.905 -0.3917  0.4808 -0.5823
  131MOL0     C17581   9.006   7.965   6.910 -0.2161 -0.3743  0.1542
  131MOL0     C17582   8.983   7.893   7.027 -0.8961 -0.0118  0.3196
  131MOL0     C17583   8.888   7.799   7.031  0.4620  0.0009 -0.9703
  131MOL0     C17584   8.802   7.782   6.913 -0.6379  0.7062 -1.0737
  131MOL0     O17585   8.712   7.674   6.922 -0.1265  0.0740 -0.4267
  131MOL0     C17586   8.676   7.614   6.794 -0.5295  1.1996 -0.5147
  131MOL0     C17587   8.576   7.491   6.810 -0.5398 -0.7279 -0.0719
  131MOL0     C17588   8.575   7.419   6.950 -0.5559 -0.0297  0.1890
  131MOL0     C17589   8.555   7.268   6.923 -0.0248  0.0017 -0.2128
  131MOL0     C17590   8.574   7.186   7.056 -0.4321 -0.4105  0.7408
  131MOL0     C17591   8.532   7.047   7.031  0.1204  0.1563 -0.6857
  131MOL0     C17592   8.570   6.967   7.156 -0.1644 -0.9253  0.0647
  131MOL0     C17593   8.528   6.825   7.158  1.1169 -0.2151 -0.1394
  131MOL0    Cl17594   8.356   6.796   7.121 -0.1482 -0.2036 -0.1105
  131MOL0     C17595   8.824   7.852   6.791  0.9936 -0.6979  0.3229
  131MOL0     C17596   8.935   7.941   6.790  0.9097 -0.2549 -0.4508
  131MOL0     O17597   8.983   8.211   7.046  0.3923  0.2391 -0.2350
  131MOL0     C17598   9.331   8.223   6.942  0.1448 -0.2841 -1.2013
  131MOL0     C17599   9.430   8.318   6.943 -1.0903 -0.5207  0.1790
  131MOL0     N17600   9.515   8.945   6.692 -0.0498 -0.3961  0.6674
  131MOL0     N17601   9.451   9.046   6.655 -0.3062 -0.0412 -0.7576
  131MOL0     C17602   9.520   9.124   6.136  1.5327  0.8116  0.4214
  131MOL0     C17603   9.536   8.986   6.106 -0.3140  0.1428  0.4321
  131MOL0     C17604   9.553   8.575   5.964  0.1564  0.1558  0.4861
  131MOL0     C17605   9.432   8.504   5.996  0.4516  0.2395  1.2546
  131MOL0     C17606   9.422   8.368   5.998  0.1037  0.0318  0.1569
  131MOL0     C17607   9.537   8.287   5.974  1.0175 -0.0519 -0.7242
  131MOL0     O17608   9.530   8.157   5.987 -0.4145 -0.8985 -0.1644
  131MOL0     C17609   9.401   8.084   5.976 -0.2593  1.1001  0.9267
  131MOL0     C17610   9.325   8.103   5.847 -0.5825  0.2362 -0.3611
  131MOL0     C17611   9.395   8.070   5.722 -0.7676  0.6042 -0.1985
  131MOL0     C17612   9.293   8.067   5.596 -0.3836 -0.4181 -0.7736
  131MOL0     C17613   9.294   7.937   5.526 -0.4350  0.7647  0.3307
  131MOL0     C17614   9.298   7.843   5.452  0.1090 -0.5190 -0.5967
  131MOL0     C17615   9.656   8.357   5.945  0.0152 -0.0543 -0.8293
  131MOL0     C17616   9.669   8.504   5.936  0.0686  0.4920  0.7972
  131MOL0     C17617   9.802   8.568   5.881  0.6394 -0.2424 -0.1205
  131MOL0     H17618   9.222   8.931   5.986 -2.3672  1.4837  1.9550
  131MOL0     H17619   9.216   9.168   6.014 -0.8964  1.3164  2.9746
  131MOL0     H17620   9.368   9.302   6.302 -1.8587  2.0322  1.1574
  131MOL0     H17621   9.518   9.393   6.265 -0.9553 -0.4970  4.9573
  131MOL0     H17622   9.244   9.530   6.210  0.3596 -0.6271 -1.2053
  131MOL0     H17623   9.400   9.591   6.226  2.3174 -2.6058 -1.2520
  131MOL0     H17624   9.235   9.476   6.454  0.0850  0.4302 -2.5250
  131MOL0     H17625   9.239   9.650   6.405 -0.6844  0.3802 -0.3603
  131MOL0     H17626   9.493   9.502   6.493  1.7635  1.9862  2.3029
  131MOL0     H17627   9.452   9.681   6.471  1.5171  0.8510  3.0723
  131MOL0     H17628   9.461   9.645   6.688  0.2229  0.2997 -0.8706
  131MOL0     H17629   9.296   9.681   6.648  1.7544  0.8368  4.9987
  131MOL0     H17630   9.313   9.497   6.829  0.6809 -3.4383  0.4509
  131MOL0     H17631   9.212   9.449   6.698  0.3805  2.1804 -4.6812
  131MOL0     H17632   9.503   9.372   6.744  1.5472 -2.7245 -2.3677
  131MOL0     H17633   9.381   9.332   6.597 -3.4733  0.3570 -0.9069
  131MOL0     H17634   9.320   9.265   6.876 -0.9560  2.8217 -0.1098
  131MOL0     H17635   9.248   9.211   6.724 -0.1262 -0.3178 -1.2615
  131MOL0     H17636   9.501   9.114   6.980  0.4421  1.2998 -1.1222
  131MOL0     H17637   9.622   8.895   7.019  0.1390  0.7687 -0.3943
  131MOL0     H17638   9.499   8.785   6.979 -1.4035  3.0214  3.0997
  131MOL0     H17639   9.659   8.726   6.765  0.2921  2.0730 -0.9058
  131MOL0     H17640   9.760   8.832   6.832  0.3392  1.0192  0.5949
  131MOL0     H17641   9.723   8.693   7.068 -0.9635  2.3797 -0.9593
  131MOL0     H17642   9.844   8.641   6.948 -0.1384 -0.3912 -0.9647
  131MOL0     H17643   9.686   8.459   7.046 -0.4702  0.5197  1.0277
  131MOL0     H17644   9.654   8.469   6.867  0.7640 -2.4252  0.6769
  131MOL0     H17645   9.297   8.580   7.116  0.8689 -0.3498  0.7726
  131MOL0     H17646   9.093   8.434   7.090  0.3559 -0.4258  0.2141
  131MOL0     H17647   9.037   7.916   7.118 -2.1962  1.0278  0.8604
  131MOL0     H17648   8.875   7.734   7.118  1.0894 -1.6730 -2.0714
  131MOL0     H17649   8.640   7.685   6.720 -1.0777 -0.1420 -1.5660
  131MOL0     H17650   8.765   7.577   6.744 -1.3321 -3.2713  0.9282
  131MOL0     H17651   8.470   7.506   6.789 -0.2753  1.1723 -0.2435
  131MOL0     H17652   8.604   7.429   6.725  3.5705  0.7436 -0.0284
  131MOL0     H17653   8.673   7.426   6.998 -1.5668  0.5108  2.2867
  131MOL0     H17654   8.496   7.445   7.021  0.2934  0.7877  0.8634
  131MOL0     H17655   8.624   7.237   6.845  0.2779 -0.0979  0.0897
  131MOL0     H17656   8.455   7.257   6.881 -0.5314  1.4830  0.5201
  131MOL0     H17657   8.505   7.238   7.124  0.1506  0.2571  0.8273
  131MOL0     H17658   8.674   7.186   7.101 -0.2218 -0.8807  0.2792
  131MOL0     H17659   8.423   7.041   7.021  0.0260 -1.1300  0.7306
  131MOL0     H17660   8.584   7.005   6.944  2.7598 -0.2806  0.9853
  131MOL0     H17661   8.523   7.020   7.240  2.3327  1.3967  0.1271
  131MOL0     H17662   8.676   6.977   7.182 -0.1385 -1.1409  0.0406
  131MOL0     H17663   8.590   6.761   7.096 -1.3743 -3.0585  0.0714
  131MOL0     H17664   8.544   6.788   7.260  2.1616  3.4095  1.1753
  131MOL0     H17665   8.772   7.830   6.698  3.7570  1.6648 -1.9831
  131MOL0     H17666   8.974   7.970   6.692 -0.3332 -1.0877 -1.2272
  131MOL0     H17667   9.356   8.126   6.901  3.6554  0.1555 -0.3698
  131MOL0     H17668   9.531   8.296   6.909 -1.3556 -0.8707 -0.3987
  131MOL0     H17669   9.612   9.166   6.174  1.9118 -2.1400  3.1799
  131MOL0     H17670   9.628   8.945   6.148 -0.2347  1.4680  1.6327
  131MOL0     H17671   9.340   8.549   6.032 -1.8816 -3.3620  0.3854
  131MOL0     H17672   9.322   8.335   6.024 -0.0482  0.1807 -0.2399
  131MOL0     H17673   9.347   8.126   6.062  0.4510  0.5621  1.6525
  131MOL0     H17674   9.420   7.977   5.988 -0.7200  1.0467  1.2021
  131MOL0     H17675   9.284   8.205   5.844 -0.2791  0.3573 -3.8003
  131MOL0     H17676   9.237   8.040   5.861 -0.6450  0.6860  1.6295
  131MOL0     H17677   9.442   7.972   5.740 -0.2506  1.0369  0.8854
  131MOL0     H17678   9.483   8.132   5.703  2.8487 -3.2392  2.1325
  131MOL0     H17679   9.191   8.091   5.628 -1.9340 -0.5926 -4.9056
  131MOL0     H17680   9.315   8.154   5.533 -0.4140  0.3465  0.2398
  131MOL0     H17681   9.313   7.764   5.382  0.0430 -1.3100  0.2491
  131MOL0     H17682   9.747   8.306   5.917  0.2679  1.7953 -3.8311
  131MOL0     H17683   9.831   8.657   5.939  1.4642  1.1638 -2.5691
  131MOL0     H17684   9.884   8.496   5.873  2.3564  1.8865 -3.7282
  131MOL0     H17685   9.789   8.600   5.778  1.1454 -0.5752 -0.2845
  132MOL0     O17686   9.838   6.566   8.001  0.3621  0.2499 -0.5950
  132MOL0     C17687   9.853   6.680   8.036  0.1979 -0.0987 -0.2874
  132MOL0     O17688   9.919   6.727   8.143 -0.5579 -0.4555 -0.5922
  132MOL0     C17689   9.991   6.646   8.230  0.0173 -0.5293  0.8574
  132MOL0     C17690  10.124   6.685   8.259  0.3738  0.4297 -0.2822
  132MOL0     C17691  10.195   6.622   8.362  0.9751 -0.6612  0.0787
  132MOL0     C17692  10.153   6.510   8.433 -0.4655 -0.2072 -0.7639
  132MOL0     O17693  10.206   6.454   8.552  0.1431 -0.1414  0.1328
  132MOL0     C17694  10.325   6.374   8.517  0.5267 -1.1015 -1.2072
  132MOL0     C17695  10.398   6.341   8.647 -0.8842  0.0300 -0.4160
  132MOL0     C17696  10.494   6.217   8.635  0.2652 -0.2364 -0.0383
  132MOL0     C17697  10.611   6.243   8.549  0.2076 -0.2322 -0.2762
  132MOL0     C17698  10.717   6.139   8.556 -0.0017  0.0159  1.1276
  132MOL0     C17699  10.828   6.160   8.662 -0.0665 -0.2596 -0.3862
  132MOL0     C17700  10.920   6.036   8.672 -0.5234  0.2103 -0.4388
  132MOL0     C17701  11.058   6.059   8.730  0.2175  0.4852  0.2326
  132MOL0     N17702  11.047   6.111   8.864 -0.0633  0.6358  0.2243
  132MOL0     C17703  11.022   6.241   8.902  0.6144 -0.0983 -0.0307
  132MOL0     C17704  11.031   6.234   9.034 -0.1424 -0.2587 -0.3662
  132MOL0     C17705  11.020   6.361   9.114  1.3404 -0.7716  0.5932
  132MOL0     C17706  10.879   6.413   9.134 -0.5741 -0.8361  0.6394
  132MOL0     C17707  10.855   6.536   9.224  0.0496  0.6269 -0.4948
  132MOL0     C17708  10.888   6.507   9.371  0.7732  0.3167 -0.6365
  132MOL0     O17709  10.814   6.399   9.420 -0.5999  0.5102  0.5174
  132MOL0     C17710  10.679   6.409   9.449  0.1635  0.6156 -0.3157
  132MOL0     C17711  10.602   6.288   9.453 -0.2913 -0.0662 -0.0329
  132MOL0     C17712  10.461   6.293   9.458 -0.2842  0.8098 -0.3647
  132MOL0     C17713  10.392   6.409   9.452  0.1435 -0.1769  0.1030
  132MOL0     C17714  10.246   6.419   9.442 -0.3373  0.6031  0.1459
  132MOL0     O17715  10.180   6.294   9.416 -0.4223 -0.7942  0.1913
  132MOL0     C17716  10.058   6.282   9.355 -0.6025  1.4277  0.2642
  132MOL0     C17717   9.997   6.153   9.363 -0.7302  0.5612 -0.0543
  132MOL0     C17718   9.867   6.127   9.313 -0.2274  0.1402  0.0009
  132MOL0     C17719   9.801   6.226   9.243  0.5097 -0.1518  0.4588
  132MOL0     O17720   9.686   6.204   9.180 -0.4331  0.0651 -0.8589
  132MOL0     C17721   9.577   6.284   9.212  0.1803  0.4035  1.4468
  132MOL0     C17722   9.448   6.221   9.137 -0.2171 -0.1332 -0.4243
  132MOL0     C17723   9.330   6.312   9.184  0.6756 -0.5829 -0.1027
  132MOL0     C17724   9.181   6.253   9.178  0.8598 -1.2936 -0.1432
  132MOL0     C17725   9.083   6.370   9.210 -0.0452  0.2656 -1.6207
  132MOL0     C17726   9.053   6.460   9.091  0.1745 -1.3411  1.0931
  132MOL0     C17727   8.969   6.592   9.113  0.1544  0.3572  0.6332
  132MOL0     C17728   8.811   6.572   9.125 -0.1366 -0.8943 -0.4679
  132MOL0    Cl17729   8.732   6.739   9.129 -0.0137  0.1236 -0.2098
  132MOL0     C17730   9.856   6.358   9.230 -0.2159 -0.4041 -1.1422
  132MOL0     C17731   9.990   6.380   9.290  0.5461  1.3348 -0.5509
  132MOL0     O17732  10.193   6.529   9.438  0.1548  0.4176 -0.4794
  132MOL0     C17733  10.469   6.531   9.448  0.5534  0.3833  0.7049
  132MOL0     C17734  10.606   6.521   9.428  0.2845 -0.5233 -0.0130
  132MOL0     N17735  11.065   6.112   9.077  0.0139 -0.5100 -1.0456
  132MOL0     N17736  11.051   6.030   8.976 -0.1122 -1.3228  0.0988
  132MOL0     C17737  10.022   6.463   8.392 -0.3727 -0.7187 -0.1475
  132MOL0     C17738   9.945   6.528   8.292  0.0163 -0.4159  0.3455
  132MOL0     C17739   9.803   6.768   7.939  0.3090 -0.4534  0.0275
  132MOL0     C17740   9.895   6.838   7.862  0.1320 -0.0588 -0.9032
  132MOL0     C17741   9.870   6.899   7.741 -0.5530  0.0159 -0.0302
  132MOL0     C17742   9.738   6.907   7.703 -0.2314 -0.4396  0.0553
  132MOL0     O17743   9.711   6.955   7.575 -0.0746  0.1645 -0.0106
  132MOL0     C17744   9.639   6.853   7.493 -0.2390  0.3208 -0.1791
  132MOL0     C17745   9.745   6.743   7.461  0.4067  0.1237  0.4798
  132MOL0     C17746   9.689   6.654   7.343  0.1405 -0.1542  0.4408
  132MOL0     C17747   9.552   6.595   7.383 -0.0554  0.3404  0.6234
  132MOL0     C17748   9.521   6.484   7.291 -0.0508  0.1685 -0.1814
  132MOL0     C17749   9.465   6.400   7.223  0.4307  0.0446  0.2408
  132MOL0     C17750   9.636   6.874   7.795 -0.2483  0.3246 -0.3709
  132MOL0     C17751   9.667   6.796   7.913  0.0789 -0.7319  0.8849
  132MOL0     C17752   9.548   6.740   8.002 -0.5049  0.7143 -0.4088
  132MOL0     H17753  10.165   6.776   8.217  0.1129  0.7770  0.1950
  132MOL0     H17754  10.284   6.667   8.407 -0.6788  1.2663  1.5948
  132MOL0     H17755  10.305   6.281   8.463  0.9527 -1.5941 -0.5433
  132MOL0     H17756  10.397   6.430   8.458  0.1107 -1.6823 -2.2813
  132MOL0     H17757  10.334   6.313   8.731  0.4987  0.3911  0.7873
  132MOL0     H17758  10.453   6.425   8.690 -2.0054  0.6109 -0.0756
  132MOL0     H17759  10.439   6.129   8.600 -1.4260  0.7316  0.0809
  132MOL0     H17760  10.538   6.196   8.733  1.9628 -0.4938 -0.8104
  132MOL0     H17761  10.590   6.272   8.446  1.5458 -0.6657 -0.6946
  132MOL0     H17762  10.661   6.327   8.598  0.2557 -1.8674  2.7363
  132MOL0     H17763  10.682   6.036   8.565  2.1628 -0.7808  0.9457
  132MOL0     H17764  10.770   6.137   8.460  1.0182 -0.7133  1.6941
  132MOL0     H17765  10.887   6.246   8.632  0.0495  0.4904  1.8046
  132MOL0     H17766  10.782   6.188   8.758  2.4524 -0.0763  0.8399
  132MOL0     H17767  10.925   5.994   8.571 -1.1369 -1.7500  0.2936
  132MOL0     H17768  10.882   5.962   8.744  0.6309 -0.0663 -0.0856
  132MOL0     H17769  11.118   5.968   8.725 -2.6941 -1.6052  1.2438
  132MOL0     H17770  11.112   6.140   8.680  1.3492  0.2604  1.0490
  132MOL0     H17771  11.009   6.333   8.846 -0.6632  1.1820  2.2350
  132MOL0     H17772  11.066   6.350   9.213  3.6127  1.5386 -0.0999
  132MOL0     H17773  11.075   6.447   9.074 -0.4238  0.6447  1.0664
  132MOL0     H17774  10.848   6.447   9.034 -2.7241 -0.1420  1.4756
  132MOL0     H17775  10.808   6.337   9.166 -1.9268 -1.0144 -2.4358
  132MOL0     H17776  10.755   6.576   9.210 -0.0233  0.5664 -0.1657
  132MOL0     H17777  10.917   6.614   9.180  0.6873  0.0354 -0.6609
  132MOL0     H17778  10.855   6.590   9.434  1.7319 -1.1935  2.0032
  132MOL0     H17779  10.994   6.486   9.391  1.5341  3.4942 -0.8438
  132MOL0     H17780  10.636   6.186   9.437  0.0543  0.2123 -1.2444
  132MOL0     H17781  10.405   6.201   9.448 -0.9591  1.3312 -1.8120
  132MOL0     H17782  10.037   6.073   9.425  1.1054  0.3755 -1.3891
  132MOL0     H17783   9.810   6.036   9.326 -0.4436 -0.4866 -4.1817
  132MOL0     H17784   9.580   6.286   9.321  2.9231  1.7421  1.4489
  132MOL0     H17785   9.584   6.384   9.166 -1.2900 -0.5843 -1.1747
  132MOL0     H17786   9.458   6.226   9.028  0.1305 -1.6129 -0.4672
  132MOL0     H17787   9.429   6.121   9.174  0.5488 -0.7568 -1.6417
  132MOL0     H17788   9.359   6.337   9.286  0.4684  2.8355 -0.7865
  132MOL0     H17789   9.346   6.408   9.134 -0.4539 -0.2452  0.1631
  132MOL0     H17790   9.166   6.163   9.239  2.3365 -2.1692 -1.0164
  132MOL0     H17791   9.161   6.230   9.074  0.6892 -2.0346  0.0510
  132MOL0     H17792   9.132   6.430   9.286  0.3224  0.7507 -2.2300
  132MOL0     H17793   8.989   6.346   9.259  1.7177 -1.9768  0.9701
  132MOL0     H17794   9.147   6.489   9.043 -0.6871 -2.4217 -1.4045
  132MOL0     H17795   9.002   6.414   9.007  0.7167 -3.8184  2.0469
  132MOL0     H17796   8.991   6.669   9.038 -1.9805 -0.5444 -1.0300
  132MOL0     H17797   9.004   6.631   9.209  1.2217 -0.1258  0.4442
  132MOL0     H17798   8.774   6.515   9.039  0.4260 -1.1792 -0.5243
  132MOL0     H17799   8.791   6.529   9.223  2.8397  1.3404  1.3148
  132MOL0     H17800   9.797   6.435   9.181 -2.3050 -0.3197  1.3110
  132MOL0     H17801  10.030   6.480   9.278  1.0280  1.2457  0.2863
  132MOL0     H17802  10.428   6.632   9.443 -0.5765 -0.0878 -0.0284
  132MOL0     H17803  10.652   6.618   9.411  0.2482 -0.5118 -0.0426
  132MOL0     H17804   9.989   6.368   8.433 -0.2505 -1.9167 -2.6412
  132MOL0     H17805   9.849   6.490   8.259 -0.6575  0.3433  1.3541
  132MOL0     H17806  10.000   6.831   7.889  0.4385  2.9832 -1.0256
  132MOL0     H17807   9.942   6.927   7.665 -2.2600 -3.6223 -3.3337
  132MOL0     H17808   9.605   6.891   7.396  0.9371  2.6558  0.2548
  132MOL0     H17809   9.548   6.808   7.535  0.5155 -0.9732  0.1047
  132MOL0     H17810   9.760   6.677   7.547  0.7510  0.1318  0.4269
  132MOL0     H17811   9.842   6.782   7.430  0.7480  0.0232  1.3717
  132MOL0     H17812   9.763   6.583   7.306  1.6151  1.4056  0.2748
  132MOL0     H17813   9.661   6.725   7.264 -1.1173  0.0468  1.0436
  132MOL0     H17814   9.559   6.561   7.487  2.7256 -0.3120  0.2966
  132MOL0     H17815   9.468   6.666   7.381 -2.2592 -1.9562  3.1583
  132MOL0     H17816   9.405   6.336   7.161 -3.6653  1.4805  2.3152
  132MOL0     H17817   9.530   6.892   7.779 -0.7523 -1.8326  0.1600
  132MOL0     H17818   9.573   6.650   8.060 -1.6963  1.4134  1.3037
  132MOL0     H17819   9.511   6.819   8.069  1.4444  2.4740 -1.3076
  132MOL0     H17820   9.478   6.702   7.928  0.0289 -0.3152 -0.4072
  133MOL0     O17821   7.100   2.607   2.465 -0.2008  1.4613  0.1306
  133MOL0     C17822   7.133   2.497   2.414 -0.7809 -0.2640 -0.1391
  133MOL0     O17823   7.104   2.369   2.460  0.8425 -1.0167 -0.4618
  133MOL0     C17824   6.991   2.355   2.540 -0.6560  0.0628 -0.5666
  133MOL0     C17825   6.918   2.242   2.511  0.4483  0.0327  0.5313
  133MOL0     C17826   6.806   2.197   2.583 -0.5900 -0.2733  0.5819
  133MOL0     C17827   6.773   2.275   2.697 -0.9670 -0.9093 -0.0781
  133MOL0     O17828   6.657   2.237   2.778 -0.3681  0.3629  0.3863
  133MOL0     C17829   6.624   2.101   2.753  0.2664 -0.4850  0.3640
  133MOL0     C17830   6.533   2.069   2.870  1.0527 -0.8543  0.5822
  133MOL0     C17831   6.458   1.935   2.854  0.0156  1.0007  0.7346
  133MOL0     C17832   6.327   1.938   2.936  0.3347 -0.5492 -1.2043
  133MOL0     C17833   6.223   1.848   2.884  1.0941  0.0695  0.3260
  133MOL0     C17834   6.103   1.852   2.975 -0.3179  0.5892 -1.3580
  133MOL0     C17835   5.985   1.776   2.910 -0.0587 -0.0239  0.2760
  133MOL0     C17836   5.878   1.760   3.015 -0.1658  0.0126 -0.2133
  133MOL0     N17837   5.787   1.645   2.992 -0.5145 -0.3492  0.0149
  133MOL0     C17838   5.820   1.514   3.021 -0.2112 -0.1113  0.7560
  133MOL0     C17839   5.715   1.439   2.971  0.1539  0.0485 -0.0247
  133MOL0     C17840   5.704   1.294   2.970 -0.8487  1.0322  0.8220
  133MOL0     C17841   5.700   1.232   2.830 -0.4823 -0.4563  0.0770
  133MOL0     C17842   5.622   1.301   2.726  0.0823 -0.5382 -0.0836
  133MOL0     C17843   5.701   1.384   2.636 -0.6667 -0.1792  0.4181
  133MOL0     O17844   5.637   1.452   2.525  1.2278  0.4548  0.0142
  133MOL0     C17845   5.661   1.582   2.509 -0.2074 -0.3530  0.1848
  133MOL0     C17846   5.789   1.637   2.531  0.2427  0.7192  0.2902
  133MOL0     C17847   5.807   1.780   2.524  0.7556  0.0773 -0.4896
  133MOL0     C17848   5.700   1.862   2.470 -1.3123 -0.0234 -1.1467
  133MOL0     C17849   5.735   2.004   2.464 -1.1010 -1.2344  0.6221
  133MOL0     O17850   5.866   2.049   2.477  0.2287  0.6796  0.2794
  133MOL0     C17851   5.891   2.184   2.460  0.9736  0.7415 -0.0050
  133MOL0     C17852   5.861   2.276   2.553 -0.3820  0.5743 -0.1261
  133MOL0     C17853   5.873   2.410   2.528  0.4021  1.8985 -0.1313
  133MOL0     C17854   5.944   2.450   2.427 -0.2469  0.2078  0.1259
  133MOL0     O17855   5.957   2.589   2.411  0.3539 -0.4356  0.2665
  133MOL0     C17856   6.088   2.624   2.437  0.2508 -0.8288  0.1869
  133MOL0     C17857   6.078   2.779   2.414 -0.9792  0.6318  0.1780
  133MOL0     C17858   6.227   2.838   2.424  0.3021 -1.1735 -0.8226
  133MOL0     C17859   6.232   2.988   2.380 -0.5668 -0.0477  0.0979
  133MOL0     C17860   6.141   3.069   2.464 -0.3739  0.1731  0.0560
  133MOL0     C17861   6.148   3.221   2.436 -0.1363  0.2958 -0.4434
  133MOL0     C17862   6.074   3.257   2.305  0.1880 -0.0493 -0.6180
  133MOL0     C17863   6.063   3.406   2.294 -0.5296  0.0519  0.0069
  133MOL0    Cl17864   5.957   3.483   2.411 -0.5545  0.1015 -0.2251
  133MOL0     C17865   5.972   2.361   2.319 -0.2796  0.4436 -1.1203
  133MOL0     C17866   5.947   2.225   2.339  0.4663  0.6997  0.3426
  133MOL0     O17867   5.632   2.074   2.470 -0.0603  0.0120 -0.2315
  133MOL0     C17868   5.582   1.805   2.442  0.7186 -0.5983 -0.2782
  133MOL0     C17869   5.563   1.668   2.454  0.0757  0.9988  0.4124
  133MOL0     N17870   5.612   1.528   2.944 -0.0678  0.2745 -0.2311
  133MOL0     N17871   5.666   1.644   2.943 -0.6486 -0.5486 -0.2256
  133MOL0     C17872   6.844   2.385   2.739  0.1929 -1.1215 -0.9827
  133MOL0     C17873   6.956   2.429   2.655  0.7770  0.4594  0.0139
  133MOL0     C17874   7.231   2.516   2.296 -0.1595 -0.8398  0.3373
  133MOL0     C17875   7.283   2.645   2.273  0.4309 -0.5438  0.6288
  133MOL0     C17876   7.374   2.675   2.168  0.3949 -0.5633 -0.0640
  133MOL0     C17877   7.434   2.567   2.099 -1.7428 -0.5560 -0.1924
  133MOL0     O17878   7.527   2.565   1.997 -0.1215 -0.0915  0.0443
  133MOL0     C17879   7.585   2.691   1.939  0.1465 -0.7639  0.9592
  133MOL0     C17880   7.703   2.736   2.016  0.4927 -0.5958  0.3441
  133MOL0     C17881   7.819   2.642   2.020 -0.5269 -0.3228  0.3928
  133MOL0     C17882   7.802   2.528   2.121 -0.6995 -0.1440 -0.2954
  133MOL0     C17883   7.941   2.494   2.161 -0.1716 -0.2345  0.3735
  133MOL0     C17884   8.053   2.451   2.187  0.1216 -0.0252  0.5052
  133MOL0     C17885   7.384   2.438   2.131  0.4478  0.1229  0.8134
  133MOL0     C17886   7.285   2.408   2.219  0.2579 -0.9701 -0.9148
  133MOL0     C17887   7.245   2.258   2.232 -0.8707  0.1035 -1.2142
  133MOL0     H17888   6.959   2.179   2.433  0.2495  1.9366 -1.2032
  133MOL0     H17889   6.759   2.104   2.551 -0.1744  0.6185 -3.0216
  133MOL0     H17890   6.564   2.084   2.663  0.1734  0.2571  0.2733
  133MOL0     H17891   6.713   2.038   2.756  1.1538  0.7151  0.2433
  133MOL0     H17892   6.460   2.151   2.867 -0.9765 -2.5800 -2.1812
  133MOL0     H17893   6.587   2.075   2.965  0.0289 -0.8055  1.1779
  133MOL0     H17894   6.521   1.851   2.885 -0.9886 -1.2634 -2.7355
  133MOL0     H17895   6.440   1.916   2.748  0.6891 -0.3405  0.8316
  133MOL0     H17896   6.363   1.888   3.026  1.7183  0.2664 -1.2810
  133MOL0     H17897   6.297   2.039   2.963 -0.3212 -0.4991 -2.0604
  133MOL0     H17898   6.191   1.870   2.782  0.8357 -1.2560  0.0980
  133MOL0     H17899   6.279   1.754   2.880  0.5981 -0.2263  0.2527
  133MOL0     H17900   6.137   1.816   3.072 -0.8302 -3.1775 -2.4128
  133MOL0     H17901   6.073   1.953   3.007  3.3404  0.9563  1.5922
  133MOL0     H17902   6.005   1.672   2.883 -1.1335 -0.3685  0.7256
  133MOL0     H17903   5.947   1.842   2.832 -0.2607  0.5440  0.8401
  133MOL0     H17904   5.908   1.761   3.120 -1.1669  0.7974  0.0816
  133MOL0     H17905   5.813   1.847   3.003  0.4438  0.6580  1.0114
  133MOL0     H17906   5.915   1.479   3.060 -0.1164 -2.3577 -1.2393
  133MOL0     H17907   5.786   1.242   3.020  3.0469  2.5376 -3.2965
  133MOL0     H17908   5.613   1.267   3.024 -0.7198 -0.3314  0.3985
  133MOL0     H17909   5.807   1.233   2.807 -0.1017 -1.2486  1.6341
  133MOL0     H17910   5.664   1.130   2.843  0.7068 -1.1891 -2.0458
  133MOL0     H17911   5.537   1.353   2.771 -1.7375 -2.7131 -0.8356
  133MOL0     H17912   5.578   1.219   2.669 -2.3226  0.2393  0.5109
  133MOL0     H17913   5.796   1.340   2.603  1.4693  2.3301  2.7406
  133MOL0     H17914   5.729   1.464   2.706  0.1096  0.3168 -0.4429
  133MOL0     H17915   5.869   1.584   2.581  0.7886  0.7353 -0.5367
  133MOL0     H17916   5.897   1.828   2.560 -0.7023  2.1789  0.5689
  133MOL0     H17917   5.824   2.230   2.644  1.0299 -1.4198 -0.4864
  133MOL0     H17918   5.818   2.485   2.585 -2.1375  1.8043 -2.2358
  133MOL0     H17919   6.107   2.607   2.543 -1.5515  0.4208  0.7659
  133MOL0     H17920   6.167   2.568   2.385  3.3038 -0.8565  4.3342
  133MOL0     H17921   6.041   2.800   2.313 -0.4053  0.1948 -0.1263
  133MOL0     H17922   6.005   2.817   2.486 -1.0854 -0.5394  0.7118
  133MOL0     H17923   6.275   2.826   2.521 -0.2895 -2.4728 -0.6648
  133MOL0     H17924   6.301   2.795   2.356  4.0790 -1.4374  3.1089
  133MOL0     H17925   6.184   2.987   2.281  0.3718 -2.5268 -0.4101
  133MOL0     H17926   6.339   3.012   2.381  0.7113 -4.7442 -0.5993
  133MOL0     H17927   6.185   3.062   2.563 -0.9069  4.5221  0.8032
  133MOL0     H17928   6.036   3.039   2.453 -0.5581  0.6558  0.4614
  133MOL0     H17929   6.096   3.268   2.520 -0.0339 -2.8708  1.5748
  133MOL0     H17930   6.255   3.241   2.436 -0.1228  1.0278  3.5899
  133MOL0     H17931   5.975   3.214   2.287  0.0678  0.4749 -1.2661
  133MOL0     H17932   6.137   3.224   2.223  2.3195 -1.8508  1.6018
  133MOL0     H17933   6.156   3.460   2.314 -2.4376  3.4319  0.6533
  133MOL0     H17934   6.036   3.418   2.188  0.9655  4.3641 -0.0697
  133MOL0     H17935   6.018   2.408   2.233 -1.8378  0.1689 -2.1461
  133MOL0     H17936   5.974   2.145   2.272  2.6595  1.6372 -0.0007
  133MOL0     H17937   5.500   1.868   2.410 -0.1839 -1.0040  1.1598
  133MOL0     H17938   5.470   1.620   2.425  1.3328 -2.0395  1.0244
  133MOL0     H17939   6.817   2.432   2.833 -1.3119 -0.2161 -1.8228
  133MOL0     H17940   7.005   2.519   2.691  2.2947 -0.0826 -0.5772
  133MOL0     H17941   7.241   2.726   2.332 -0.8933 -1.4960  1.0367
  133MOL0     H17942   7.402   2.776   2.138 -2.0783 -0.1475 -1.2591
  133MOL0     H17943   7.507   2.768   1.941 -0.2569 -1.1252  3.5680
  133MOL0     H17944   7.594   2.650   1.838 -3.2761 -1.3997  0.7975
  133MOL0     H17945   7.669   2.746   2.120  2.2376  0.7238  0.8412
  133MOL0     H17946   7.729   2.832   1.971 -1.6679 -1.2162 -2.4939
  133MOL0     H17947   7.901   2.708   2.050 -0.1555  0.0153 -1.2876
  133MOL0     H17948   7.854   2.593   1.929 -1.4028 -6.1164  2.6717
  133MOL0     H17949   7.747   2.557   2.211  2.1924 -0.8538  1.8787
  133MOL0     H17950   7.751   2.442   2.075  1.1928 -1.4655 -0.0651
  133MOL0     H17951   8.145   2.414   2.228 -0.1454  0.9505  2.0879
  133MOL0     H17952   7.424   2.351   2.078  0.6544  1.0318 -0.5841
  133MOL0     H17953   7.298   2.226   2.322 -1.0764  3.8110  0.4110
  133MOL0     H17954   7.140   2.233   2.251 -1.0484  2.9052  3.0132
  133MOL0     H17955   7.284   2.190   2.156 -0.7312 -2.4584  1.0042
  134MOL0     O17956   1.685  10.724   6.885  0.1264 -0.0827  0.4927
  134MOL0     C17957   1.785  10.658   6.850 -0.2062  0.5787  1.0017
  134MOL0     O17958   1.835  10.642   6.723  0.0331 -0.1538 -0.0886
  134MOL0     C17959   1.813  10.733   6.630 -0.0799 -0.7037 -1.5609
  134MOL0     C17960   1.834  10.867   6.648  0.2885 -1.0269 -0.1523
  134MOL0     C17961   1.817  10.958   6.536  0.1643  0.2817 -0.8717
  134MOL0     C17962   1.754  10.910   6.420  0.3982  0.3927  0.0035
  134MOL0     O17963   1.761  10.969   6.297  0.0508 -0.7696 -0.3685
  134MOL0     C17964   1.756  11.113   6.300 -0.5787 -0.5662  0.1555
  134MOL0     C17965   1.677  11.167   6.184  0.1598 -0.3047 -0.5585
  134MOL0     C17966   1.718  11.313   6.144  0.6421 -0.1118  0.1075
  134MOL0     C17967   1.615  11.384   6.057  0.3762 -0.1870 -0.9989
  134MOL0     C17968   1.670  11.522   6.015  0.1409 -0.5068  0.2522
  134MOL0     C17969   1.571  11.604   5.926 -0.8675  0.5594  0.0232
  134MOL0     C17970   1.630  11.747   5.917  0.1691 -0.2156 -0.7336
  134MOL0     C17971   1.567  11.836   5.813  0.1098 -0.4487  0.0928
  134MOL0     N17972   1.633  11.859   5.681  0.3864 -0.7775 -0.0801
  134MOL0     C17973   1.762  11.910   5.670  0.7558  0.0186  0.2113
  134MOL0     C17974   1.798  11.882   5.545 -0.2840  0.0079 -0.4395
  134MOL0     C17975   1.928  11.921   5.483  0.0588  0.4742 -0.5588
  134MOL0     C17976   2.049  11.818   5.506  0.2093 -0.5362  0.4049
  134MOL0     C17977   2.023  11.680   5.465 -0.8758 -0.4902  0.9664
  134MOL0     C17978   1.977  11.664   5.322 -0.0930  0.6300  0.2240
  134MOL0     O17979   2.043  11.560   5.254 -0.1310 -0.5890 -0.2062
  134MOL0     C17980   2.005  11.512   5.132  0.4357  0.7475  0.1907
  134MOL0     C17981   2.101  11.428   5.070  0.3201 -0.6168 -0.0459
  134MOL0     C17982   2.072  11.381   4.940 -0.6549  0.1937  0.1591
  134MOL0     C17983   1.952  11.403   4.880 -0.4743  0.2279 -0.7768
  134MOL0     C17984   1.924  11.346   4.744  0.7201  0.3615  0.1303
  134MOL0     O17985   1.957  11.213   4.720  0.0692 -0.6778  0.3678
  134MOL0     C17986   1.964  11.159   4.592 -0.5524  0.1813 -0.1678
  134MOL0     C17987   2.007  11.022   4.605 -0.1149  0.4139 -0.0510
  134MOL0     C17988   2.007  10.941   4.492 -0.9982  0.6763 -0.6265
  134MOL0     C17989   1.977  10.986   4.359  0.3494 -0.7347 -0.3067
  134MOL0     O17990   1.955  10.913   4.250  0.7896 -0.1530 -0.0627
  134MOL0     C17991   1.981  10.768   4.241  1.8691 -1.3118 -0.4550
  134MOL0     C17992   2.128  10.740   4.213  0.2219  0.7982  0.3312
  134MOL0     C17993   2.239  10.809   4.288  0.2323 -0.0689  0.7955
  134MOL0     C17994   2.373  10.724   4.279 -0.8713  0.5788  0.8798
  134MOL0     C17995   2.493  10.789   4.339 -0.0179  0.6084 -0.4964
  134MOL0     C17996   2.621  10.741   4.278 -0.3612 -0.0949  0.8414
  134MOL0     C17997   2.753  10.796   4.337 -0.5363 -0.2135  1.0166
  134MOL0     C17998   2.734  10.952   4.350  0.3479 -0.7415  0.1417
  134MOL0    Cl17999   2.899  11.012   4.382  0.2803 -0.3347  0.1356
  134MOL0     C18000   1.925  11.116   4.344 -0.8074  0.5496  0.0160
  134MOL0     C18001   1.924  11.204   4.460  0.5891  0.7690 -0.4134
  134MOL0     O18002   1.861  11.422   4.673 -0.7395 -0.5209  0.0877
  134MOL0     C18003   1.866  11.492   4.939 -0.8305 -0.1317  0.4637
  134MOL0     C18004   1.887  11.542   5.064 -0.5632  0.3764 -1.0570
  134MOL0     N18005   1.703  11.801   5.479 -0.0050  0.3123 -0.4866
  134MOL0     N18006   1.602  11.803   5.562  0.4684 -0.4076 -0.6056
  134MOL0     C18007   1.724  10.775   6.409 -0.4799 -0.4546 -0.2123
  134MOL0     C18008   1.760  10.681   6.507 -0.0409 -0.5600  0.1645
  134MOL0     C18009   1.847  10.573   6.953  0.7597  0.1734 -0.9868
  134MOL0     C18010   1.892  10.448   6.911 -0.9606  1.0050 -0.7269
  134MOL0     C18011   1.956  10.354   7.008  0.0108 -0.2995  0.4834
  134MOL0     C18012   1.965  10.379   7.150 -0.0116  0.1646  0.1464
  134MOL0     O18013   2.025  10.302   7.244 -0.5225  0.1403 -0.7061
  134MOL0     C18014   2.023  10.165   7.212 -0.6223 -0.2518 -0.0129
  134MOL0     C18015   2.059  10.081   7.337  0.6740 -0.3979  0.0724
  134MOL0     C18016   2.190  10.130   7.412 -0.5987 -0.8383  0.7388
  134MOL0     C18017   2.225  10.040   7.535  1.8058  0.6357 -0.5829
  134MOL0     C18018   2.367  10.013   7.549 -0.2463  0.0346 -0.6344
  134MOL0     C18019   2.485   9.983   7.558 -0.1433  0.3526 -0.0438
  134MOL0     C18020   1.926  10.517   7.179  0.3613  0.7346  0.3143
  134MOL0     C18021   1.858  10.607   7.094  0.3506  1.4996  0.3500
  134MOL0     C18022   1.797  10.729   7.153 -0.2117 -0.8139  0.9240
  134MOL0     H18023   1.872  10.909   6.740 -2.5247  0.7616  0.3026
  134MOL0     H18024   1.853  11.060   6.537 -0.5692  0.5465 -0.9333
  134MOL0     H18025   1.712  11.162   6.388  1.0400  1.8114 -0.2553
  134MOL0     H18026   1.860  11.142   6.281  0.1251 -2.8791  0.2028
  134MOL0     H18027   1.576  11.186   6.221  0.9865 -0.2224  1.8488
  134MOL0     H18028   1.669  11.107   6.092 -2.9032  0.3598 -0.8349
  134MOL0     H18029   1.820  11.318   6.107  1.2062  2.9265  1.7794
  134MOL0     H18030   1.730  11.374   6.234  1.5769 -1.4011  0.9026
  134MOL0     H18031   1.605  11.327   5.964 -1.9912  1.8926 -2.1148
  134MOL0     H18032   1.515  11.387   6.100 -0.3027 -1.5437 -2.3679
  134MOL0     H18033   1.695  11.584   6.101  0.0820  0.4327 -0.3954
  134MOL0     H18034   1.769  11.509   5.971  1.5113 -1.1529  3.2385
  134MOL0     H18035   1.556  11.553   5.831  0.7049  0.2488 -0.0980
  134MOL0     H18036   1.471  11.611   5.969 -0.3443  0.3067  1.3428
  134MOL0     H18037   1.736  11.749   5.889 -0.3920 -0.1573 -3.1343
  134MOL0     H18038   1.619  11.799   6.012 -2.4720  2.0495 -2.1357
  134MOL0     H18039   1.471  11.790   5.786  0.8217 -2.2540  0.4584
  134MOL0     H18040   1.551  11.938   5.849 -1.4100  2.6239 -7.4359
  134MOL0     H18041   1.821  11.968   5.740  1.3199  1.3261 -1.2738
  134MOL0     H18042   1.917  11.934   5.375  1.6505  0.1444 -0.7846
  134MOL0     H18043   1.954  12.018   5.525  1.9012 -1.7762  4.1810
  134MOL0     H18044   2.141  11.838   5.450  0.1872 -0.5697  0.3574
  134MOL0     H18045   2.065  11.824   5.614 -2.4665  0.9668  0.8103
  134MOL0     H18046   1.950  11.621   5.522 -0.9228  2.8365  4.7863
  134MOL0     H18047   2.116  11.626   5.483 -0.2957 -1.5355 -3.9686
  134MOL0     H18048   1.998  11.755   5.265  2.6093 -0.5980 -0.9180
  134MOL0     H18049   1.871  11.636   5.320 -0.1774  0.9719 -1.2389
  134MOL0     H18050   2.191  11.407   5.128  0.3839 -1.1957 -0.3540
  134MOL0     H18051   2.135  11.314   4.883  1.2989  2.7427 -0.9172
  134MOL0     H18052   2.018  10.980   4.705 -2.1030  1.3018  0.5838
  134MOL0     H18053   2.025  10.835   4.508  1.6163  0.2461 -4.8806
  134MOL0     H18054   1.948  10.720   4.333 -1.4119 -0.3738 -1.0270
  134MOL0     H18055   1.921  10.723   4.162 -1.7906 -0.5417  1.6718
  134MOL0     H18056   2.152  10.634   4.203 -0.4198  0.8426 -2.6826
  134MOL0     H18057   2.150  10.759   4.108  1.8671 -2.3834 -0.0058
  134MOL0     H18058   2.243  10.908   4.241 -2.0911  0.2154  1.1103
  134MOL0     H18059   2.213  10.824   4.393 -0.3503 -2.6702  1.0805
  134MOL0     H18060   2.381  10.704   4.171 -2.2915  0.3826  0.7905
  134MOL0     H18061   2.366  10.620   4.313 -2.3477  0.1882 -0.4402
  134MOL0     H18062   2.501  10.752   4.441 -0.5434 -1.7536 -1.2291
  134MOL0     H18063   2.481  10.897   4.334 -1.2809  0.7094  2.5435
  134MOL0     H18064   2.618  10.635   4.304 -1.1804 -0.5270 -0.8366
  134MOL0     H18065   2.628  10.753   4.169  2.1917  1.5844  1.1181
  134MOL0     H18066   2.838  10.769   4.273 -1.7092  0.4152 -0.9004
  134MOL0     H18067   2.787  10.774   4.439  1.5278  3.0626  1.1845
  134MOL0     H18068   2.676  10.999   4.270 -0.7297 -1.1899  0.6492
  134MOL0     H18069   2.673  10.968   4.439  0.2245 -2.4824  0.4056
  134MOL0     H18070   1.906  11.159   4.246  0.1111 -0.2107 -0.5103
  134MOL0     H18071   1.895  11.308   4.446  1.7700  1.1714  0.0131
  134MOL0     H18072   1.769  11.511   4.896 -0.5321 -0.0267 -0.1689
  134MOL0     H18073   1.812  11.603   5.113  0.0571  0.6371 -0.4314
  134MOL0     H18074   1.680  10.734   6.319  1.0108 -1.9163 -0.3246
  134MOL0     H18075   1.735  10.578   6.483 -0.8193 -0.1624 -0.7722
  134MOL0     H18076   1.888  10.416   6.807  1.0052 -2.3699  0.0797
  134MOL0     H18077   2.001  10.266   6.963 -0.5207  1.1956 -3.3375
  134MOL0     H18078   2.104  10.144   7.141 -1.5215 -2.4788 -0.4620
  134MOL0     H18079   1.927  10.134   7.170 -0.4256  2.5325 -2.8982
  134MOL0     H18080   2.071   9.977   7.305 -1.0484 -1.9943  3.8947
  134MOL0     H18081   1.980  10.076   7.413  1.0208  0.2245  0.4798
  134MOL0     H18082   2.196  10.234   7.446 -1.4857  1.3662 -4.7900
  134MOL0     H18083   2.275  10.131   7.343 -1.0279 -0.0282  0.2068
  134MOL0     H18084   2.179  10.079   7.626 -2.0102 -0.7135 -1.7327
  134MOL0     H18085   2.167   9.947   7.531  0.2250  1.3656  2.5954
  134MOL0     H18086   2.591   9.987   7.565 -0.0879  1.0217 -1.0532
  134MOL0     H18087   1.936  10.549   7.282  1.1571  2.2612 -0.2025
  134MOL0     H18088   1.820  10.810   7.083  0.1166 -2.3143 -0.7711
  134MOL0     H18089   1.690  10.715   7.171 -0.1652 -2.0690  0.3021
  134MOL0     H18090   1.858  10.744   7.243  3.7621 -0.9862 -1.5216
  135MOL0     O18091   8.760   4.561   7.791 -0.4083 -0.2998 -0.4797
  135MOL0     C18092   8.716   4.471   7.718 -1.1420  0.2443  0.0336
  135MOL0     O18093   8.646   4.493   7.605  0.0435 -0.2328  0.5575
  135MOL0     C18094   8.606   4.628   7.582 -0.4764 -0.9121  0.2033
  135MOL0     C18095   8.487   4.692   7.612 -0.6052  0.4215  0.8800
  135MOL0     C18096   8.458   4.823   7.578 -0.4735  0.3605 -0.5977
  135MOL0     C18097   8.543   4.882   7.488 -0.8351  0.1331 -0.0864
  135MOL0     O18098   8.525   5.003   7.429  0.4642 -0.0725  1.5847
  135MOL0     C18099   8.457   5.097   7.516  0.3443  0.0023 -0.0212
  135MOL0     C18100   8.512   5.229   7.467  0.3903  0.1707  0.4718
  135MOL0     C18101   8.472   5.341   7.565 -0.4386 -0.3791  0.4638
  135MOL0     C18102   8.534   5.330   7.704 -0.3137 -0.0164 -0.1381
  135MOL0     C18103   8.520   5.470   7.779  0.2051  0.3369  0.4951
  135MOL0     C18104   8.377   5.524   7.811 -0.2426  0.5834  0.1251
  135MOL0     C18105   8.378   5.656   7.881  0.7530 -0.6293  0.0537
  135MOL0     C18106   8.235   5.728   7.911  0.2064  0.8685  0.0823
  135MOL0     N18107   8.255   5.825   8.025 -0.4416  0.3935 -0.2364
  135MOL0     C18108   8.290   5.955   8.004  0.2525 -0.2453 -0.8351
  135MOL0     C18109   8.290   6.009   8.132 -0.1574 -0.2385  0.0906
  135MOL0     C18110   8.335   6.150   8.157  0.3057 -1.1780  0.1300
  135MOL0     C18111   8.488   6.190   8.172  0.2759  0.4765  0.5729
  135MOL0     C18112   8.563   6.135   8.296  1.5426 -0.5857 -1.3228
  135MOL0     C18113   8.683   6.210   8.345 -0.7244 -0.5662 -0.7428
  135MOL0     O18114   8.794   6.173   8.273 -0.0741 -0.4882 -0.2030
  135MOL0     C18115   8.904   6.253   8.277  0.5975  0.6057  0.3418
  135MOL0     C18116   8.921   6.372   8.341  0.1248 -0.5395  0.3904
  135MOL0     C18117   9.050   6.434   8.332 -0.2305  0.8195 -0.1629
  135MOL0     C18118   9.149   6.383   8.246 -0.3429 -0.0476  0.4759
  135MOL0     C18119   9.281   6.453   8.243 -0.4366  0.8519  0.1253
  135MOL0     O18120   9.303   6.541   8.344  0.0524 -0.0825  0.0562
  135MOL0     C18121   9.421   6.610   8.359  0.4250 -0.9731  0.6936
  135MOL0     C18122   9.518   6.535   8.400  0.6764 -0.1420  0.3377
  135MOL0     C18123   9.635   6.585   8.445 -1.0246 -0.1189 -0.7684
  135MOL0     C18124   9.662   6.721   8.421  0.9979  0.0265  0.2488
  135MOL0     O18125   9.773   6.786   8.462  0.1933  1.1030  0.8110
  135MOL0     C18126   9.846   6.735   8.572 -0.0255 -0.4563  0.5879
  135MOL0     C18127   9.769   6.729   8.697 -0.4064 -1.4810  0.0673
  135MOL0     C18128   9.848   6.685   8.823  0.7033  0.2558 -0.5097
  135MOL0     C18129   9.926   6.553   8.797  0.0009  0.8284 -0.0143
  135MOL0     C18130   9.970   6.487   8.925  0.7796  0.2510  0.0153
  135MOL0     C18131  10.078   6.374   8.899  0.1378 -0.9236  0.4013
  135MOL0     C18132  10.027   6.257   8.802 -0.6211  0.1163 -0.1654
  135MOL0     C18133   9.892   6.201   8.832  0.4899 -0.4793 -0.1177
  135MOL0    Cl18134   9.872   6.031   8.746  0.2809  0.9302 -0.0153
  135MOL0     C18135   9.569   6.797   8.354 -0.1165 -0.3664  0.9004
  135MOL0     C18136   9.441   6.739   8.330 -0.1955  0.6146  0.6606
  135MOL0     O18137   9.357   6.432   8.149  0.2602 -0.5225  0.0934
  135MOL0     C18138   9.117   6.261   8.172  0.5353  1.0825  0.6870
  135MOL0     C18139   8.998   6.202   8.187  0.7522  1.0252 -0.7697
  135MOL0     N18140   8.254   5.903   8.216 -0.1204 -0.6077  0.6301
  135MOL0     N18141   8.235   5.799   8.150 -0.2367  0.0950 -0.3500
  135MOL0     C18142   8.668   4.823   7.452 -0.5621  0.5317  0.1956
  135MOL0     C18143   8.696   4.694   7.507 -0.1530 -0.1229  0.4667
  135MOL0     C18144   8.782   4.330   7.736 -0.2259 -1.3266  0.7252
  135MOL0     C18145   8.830   4.251   7.625 -0.7625  1.0764  0.2003
  135MOL0     C18146   8.881   4.125   7.648  0.1816  0.1868  0.8051
  135MOL0     C18147   8.889   4.071   7.776  0.3366 -0.4124 -0.3553
  135MOL0     O18148   8.961   3.955   7.791 -0.5906 -0.1965  0.2403
  135MOL0     C18149   8.960   3.879   7.916 -0.0724 -0.2402 -1.9572
  135MOL0     C18150   9.076   3.927   8.013  0.3514  0.4235  0.0208
  135MOL0     C18151   9.214   3.912   7.950 -0.8314 -0.1324  0.3135
  135MOL0     C18152   9.256   3.773   7.894 -0.2509  0.1100  0.2975
  135MOL0     C18153   9.213   3.661   7.980 -0.7299  0.7449  0.6358
  135MOL0     C18154   9.187   3.569   8.046 -0.3845 -0.2530  0.0943
  135MOL0     C18155   8.836   4.144   7.880  0.7855 -1.0246  0.4851
  135MOL0     C18156   8.791   4.274   7.863 -0.4250  0.9215  0.1338
  135MOL0     C18157   8.741   4.339   7.996 -0.0937  0.0955  0.2431
  135MOL0     H18158   8.413   4.637   7.669  0.2222 -2.1260 -0.3404
  135MOL0     H18159   8.363   4.869   7.605 -0.6507 -0.2981 -0.0867
  135MOL0     H18160   8.349   5.090   7.499  0.1978 -1.7082  1.2909
  135MOL0     H18161   8.476   5.084   7.623  1.5795  1.6862 -0.0068
  135MOL0     H18162   8.450   5.251   7.380  0.1777 -3.2589 -0.3979
  135MOL0     H18163   8.615   5.247   7.435  0.0020  2.9472  0.5619
  135MOL0     H18164   8.362   5.341   7.570 -0.4256 -0.2270  0.7715
  135MOL0     H18165   8.509   5.433   7.520 -1.6781 -0.0174  0.1441
  135MOL0     H18166   8.475   5.266   7.771  0.3384  0.8790  1.3607
  135MOL0     H18167   8.640   5.304   7.700  0.8890  3.7704  1.7136
  135MOL0     H18168   8.566   5.466   7.878 -1.1508  0.6919  1.1560
  135MOL0     H18169   8.590   5.536   7.726  1.3925 -1.7913 -0.7629
  135MOL0     H18170   8.319   5.529   7.719  0.2077  1.5243 -0.1169
  135MOL0     H18171   8.336   5.443   7.873  3.0172 -1.2864  0.0475
  135MOL0     H18172   8.445   5.730   7.835 -0.8750  1.0193  0.2181
  135MOL0     H18173   8.416   5.629   7.980  1.0998  1.0629  0.4116
  135MOL0     H18174   8.201   5.783   7.823 -0.9325 -1.3916 -0.9679
  135MOL0     H18175   8.162   5.648   7.923  0.3606 -0.7672 -6.1775
  135MOL0     H18176   8.305   6.006   7.910  1.4077  0.6143 -0.2035
  135MOL0     H18177   8.296   6.215   8.078  1.8954 -2.3803 -1.7371
  135MOL0     H18178   8.285   6.181   8.249  0.8545 -2.5214  0.9088
  135MOL0     H18179   8.550   6.154   8.089  0.0442 -2.8674  1.6739
  135MOL0     H18180   8.499   6.298   8.167  1.9044  0.3335  0.3200
  135MOL0     H18181   8.582   6.028   8.284  0.0021 -0.9329 -0.8868
  135MOL0     H18182   8.487   6.135   8.375  1.9996 -0.8342 -0.8787
  135MOL0     H18183   8.690   6.176   8.449 -1.8868 -0.6864 -0.6836
  135MOL0     H18184   8.661   6.317   8.347  1.5232 -0.0646  0.9362
  135MOL0     H18185   8.849   6.416   8.409  1.9970  3.6486 -0.0398
  135MOL0     H18186   9.072   6.522   8.392  2.7411 -0.6552  1.0805
  135MOL0     H18187   9.498   6.430   8.420 -1.0139 -0.4097 -2.3436
  135MOL0     H18188   9.712   6.518   8.482  0.8699  3.0967  1.6419
  135MOL0     H18189   9.883   6.638   8.538 -3.5084 -1.0605 -2.1330
  135MOL0     H18190   9.935   6.796   8.590 -0.5900  0.3352  0.7831
  135MOL0     H18191   9.722   6.827   8.712  0.6160 -1.4601  4.2563
  135MOL0     H18192   9.693   6.652   8.679 -2.1662  0.0655  0.5995
  135MOL0     H18193   9.916   6.760   8.865 -0.3759  0.4475  0.9641
  135MOL0     H18194   9.783   6.671   8.910  0.3506 -0.6665 -0.9142
  135MOL0     H18195  10.016   6.582   8.744  0.1071  1.7328  0.6376
  135MOL0     H18196   9.869   6.482   8.736  2.7613 -1.3893 -0.1956
  135MOL0     H18197   9.891   6.434   8.980  0.8696 -2.1529 -2.0226
  135MOL0     H18198  10.006   6.563   8.995  1.6296  0.6765 -0.8681
  135MOL0     H18199  10.159   6.419   8.841  0.6381 -2.0650  0.1961
  135MOL0     H18200  10.130   6.341   8.990  0.0066  1.1458  1.2932
  135MOL0     H18201  10.105   6.181   8.809 -0.1846  0.7132  3.7182
  135MOL0     H18202  10.034   6.282   8.696  3.5746 -1.7537 -0.5091
  135MOL0     H18203   9.888   6.199   8.941  1.8249  1.3401  0.0203
  135MOL0     H18204   9.817   6.270   8.793 -1.2962 -2.5372 -0.5092
  135MOL0     H18205   9.578   6.903   8.331 -0.9084 -0.0865  1.8330
  135MOL0     H18206   9.365   6.800   8.283  1.4655  2.3974  0.1772
  135MOL0     H18207   9.185   6.221   8.097  1.3157  3.4149  0.0593
  135MOL0     H18208   8.975   6.109   8.136 -0.1976 -0.2493  1.7632
  135MOL0     H18209   8.729   4.871   7.376 -0.2749 -1.3742 -0.8311
  135MOL0     H18210   8.781   4.637   7.473 -0.3941  0.1022 -0.5570
  135MOL0     H18211   8.840   4.304   7.531  0.6489 -2.5880 -1.9350
  135MOL0     H18212   8.944   4.070   7.578 -1.0097 -0.3755  0.1343
  135MOL0     H18213   8.980   3.771   7.908  4.4810  0.2149  0.0745
  135MOL0     H18214   8.860   3.887   7.958  0.1515 -0.8525 -1.2748
  135MOL0     H18215   9.079   3.863   8.102 -1.9196 -0.5587 -0.5487
  135MOL0     H18216   9.057   4.026   8.056  1.6152  0.1462  1.2986
  135MOL0     H18217   9.287   3.963   8.013 -0.9782  0.7126 -0.1913
  135MOL0     H18218   9.207   3.981   7.866 -3.7427 -0.3456  0.2860
  135MOL0     H18219   9.222   3.753   7.792  2.5284  2.7727 -1.3236
  135MOL0     H18220   9.365   3.768   7.901  0.1488  0.6143 -3.5547
  135MOL0     H18221   9.163   3.489   8.112 -0.4699 -0.8757 -0.6836
  135MOL0     H18222   8.839   4.105   7.981 -0.0961 -1.2239  0.4422
  135MOL0     H18223   8.719   4.255   8.062  0.8541 -1.0692 -0.8741
  135MOL0     H18224   8.817   4.402   8.044  0.4287 -1.3779  1.4139
  135MOL0     H18225   8.653   4.398   7.968  0.6387  0.6331 -1.0105
  136MOL0     O18226   8.380   9.625   0.657  0.3485 -0.3467  0.4005
  136MOL0     C18227   8.266   9.614   0.602  0.5678  0.0956  0.6677
  136MOL0     O18228   8.213   9.697   0.509  0.0683 -0.2023  0.4468
  136MOL0     C18229   8.250   9.833   0.499  0.1539 -0.0954 -0.5278
  136MOL0     C18230   8.218   9.908   0.388  1.0908 -1.0491 -0.3571
  136MOL0     C18231   8.261  10.041   0.375 -0.3625 -0.6517 -0.9388
  136MOL0     C18232   8.350  10.104   0.469 -0.1713 -0.6176 -0.7341
  136MOL0     O18233   8.412  10.219   0.474  0.4974 -0.2527 -0.1292
  136MOL0     C18234   8.389  10.318   0.374  0.4070  0.0213 -0.0926
  136MOL0     C18235   8.262  10.402   0.404  0.2572 -0.5471  0.7182
  136MOL0     C18236   8.244  10.464   0.540  0.9203 -0.5199  0.5577
  136MOL0     C18237   8.170  10.600   0.519 -0.2748  0.3608  0.4625
  136MOL0     C18238   8.274  10.715   0.517 -0.7226  1.0388  1.4865
  136MOL0     C18239   8.233  10.856   0.474 -0.9923  0.2144  0.0820
  136MOL0     C18240   8.351  10.946   0.521 -0.9276 -0.1315 -1.2451
  136MOL0     C18241   8.306  11.090   0.508  0.2762  0.0335 -0.1011
  136MOL0     N18242   8.388  11.181   0.582 -0.4525 -0.2131  0.3757
  136MOL0     C18243   8.516  11.216   0.549 -0.3412 -0.1044  0.6319
  136MOL0     C18244   8.557  11.283   0.664 -0.9515  0.7748 -0.1227
  136MOL0     C18245   8.691  11.345   0.698 -0.7887  0.0400 -0.3841
  136MOL0     C18246   8.715  11.474   0.621 -0.1095 -0.1574  0.1204
  136MOL0     C18247   8.638  11.591   0.685  0.5961 -0.1508 -0.1229
  136MOL0     C18248   8.698  11.724   0.637  0.0861  0.2659 -0.5596
  136MOL0     O18249   8.711  11.724   0.494  0.2922  0.3003 -0.5889
  136MOL0     C18250   8.726  11.842   0.436  0.3774 -0.1611 -0.2402
  136MOL0     C18251   8.790  11.952   0.486  0.1401 -0.6596  0.1174
  136MOL0     C18252   8.804  12.069   0.410 -0.3151 -0.0222 -0.0863
  136MOL0     C18253   8.729  12.086   0.285  0.5806  0.4307 -0.5398
  136MOL0     C18254   8.720  12.203   0.209 -0.0211  0.4640  0.1953
  136MOL0     O18255   8.643  12.205   0.088  0.4214  0.3552  0.2182
  136MOL0     C18256   8.700  12.287  -0.004  0.7954  0.0903 -0.5910
  136MOL0     C18257   8.762  12.220  -0.106  0.1799 -1.0192 -0.6440
  136MOL0     C18258   8.824  12.299  -0.201  0.8987 -0.5470 -0.2932
  136MOL0     C18259   8.806  12.439  -0.213  0.1285  1.1234  0.8321
  136MOL0     O18260   8.868  12.514  -0.307 -0.4727 -0.4507  1.3169
  136MOL0     C18261   8.804  12.507  -0.438 -0.5112  0.2376  0.3532
  136MOL0     C18262   8.819  12.632  -0.523  0.7666 -0.2337  0.3828
  136MOL0     C18263   8.756  12.766  -0.478 -0.6246  0.1170 -0.0482
  136MOL0     C18264   8.614  12.743  -0.425  0.6648 -0.9370  0.9384
  136MOL0     C18265   8.551  12.874  -0.376 -0.5395 -0.6508 -0.4908
  136MOL0     C18266   8.492  12.967  -0.480  0.1353  0.8784 -0.9035
  136MOL0     C18267   8.363  12.905  -0.542 -0.2931  0.8069 -0.0805
  136MOL0     C18268   8.301  12.984  -0.661  0.0646 -0.6773 -0.1221
  136MOL0    Cl18269   8.217  13.130  -0.603  0.6979  0.1281 -0.0160
  136MOL0     C18270   8.747  12.508  -0.107 -0.5696  0.4575 -0.5925
  136MOL0     C18271   8.694  12.431  -0.002 -0.6762 -0.1596 -0.0788
  136MOL0     O18272   8.782  12.300   0.257 -0.2035  0.0646 -0.1923
  136MOL0     C18273   8.655  11.967   0.240 -0.8705 -0.5590  0.1631
  136MOL0     C18274   8.661  11.855   0.316 -0.4107  0.3678 -0.2707
  136MOL0     N18275   8.461  11.261   0.761  0.0598  0.4892  0.4933
  136MOL0     N18276   8.364  11.203   0.708 -0.6512 -0.0511 -0.1303
  136MOL0     C18277   8.383  10.028   0.582 -0.3503 -1.5198  0.0586
  136MOL0     C18278   8.328   9.908   0.602  0.4673 -0.7180 -0.1683
  136MOL0     C18279   8.192   9.483   0.618  0.7994  0.1784 -1.1932
  136MOL0     C18280   8.259   9.377   0.684 -0.5877  1.2082 -1.3309
  136MOL0     C18281   8.192   9.260   0.711  1.5547  0.3600  0.8349
  136MOL0     C18282   8.054   9.235   0.667  0.6672  0.2728  1.2357
  136MOL0     O18283   7.978   9.116   0.687  0.7655  0.0545  0.5061
  136MOL0     C18284   8.039   8.992   0.712  0.8856 -0.8426  0.5207
  136MOL0     C18285   7.918   8.892   0.757 -0.1309 -0.7413  0.9866
  136MOL0     C18286   7.975   8.741   0.778  0.9107  0.3106  0.4106
  136MOL0     C18287   8.072   8.686   0.677 -0.1796  0.3443 -0.4328
  136MOL0     C18288   7.989   8.655   0.560  0.1885 -0.2831 -0.6616
  136MOL0     C18289   7.915   8.645   0.467  0.7069 -0.2340  0.2994
  136MOL0     C18290   7.993   9.338   0.596  0.0710  0.5312 -0.5001
  136MOL0     C18291   8.051   9.458   0.585  0.0826 -0.4930 -0.6741
  136MOL0     C18292   7.950   9.564   0.530  0.2192  0.0660 -0.2300
  136MOL0     H18293   8.159   9.865   0.307  1.9824 -4.5323  0.6667
  136MOL0     H18294   8.228  10.098   0.288  0.9897 -0.4376 -1.3285
  136MOL0     H18295   8.469  10.391   0.361 -1.5877  2.3726  0.1242
  136MOL0     H18296   8.383  10.271   0.276 -2.9930  1.7601 -0.8600
  136MOL0     H18297   8.183  10.328   0.389  1.9446 -2.8954  2.5647
  136MOL0     H18298   8.255  10.475   0.323 -0.9354  2.2163  3.1323
  136MOL0     H18299   8.341  10.486   0.586  0.9243 -2.6709  1.7371
  136MOL0     H18300   8.185  10.405   0.611  0.0578  2.3260  2.3612
  136MOL0     H18301   8.125  10.611   0.420  1.0921  2.8636  0.0378
  136MOL0     H18302   8.092  10.607   0.596 -0.7905 -2.2965  0.2713
  136MOL0     H18303   8.298  10.726   0.624  3.6539 -1.5104  1.0012
  136MOL0     H18304   8.365  10.677   0.471 -0.7076  1.3577  1.2505
  136MOL0     H18305   8.218  10.856   0.365  2.1677 -4.0011 -0.6200
  136MOL0     H18306   8.137  10.877   0.522 -2.1357 -3.5526 -0.2037
  136MOL0     H18307   8.440  10.927   0.459 -0.0059 -3.3944  0.8469
  136MOL0     H18308   8.385  10.920   0.622 -2.8388  0.1838 -0.4890
  136MOL0     H18309   8.300  11.130   0.407 -1.3769 -1.8736 -0.8381
  136MOL0     H18310   8.206  11.102   0.553  0.9451  2.2067  0.9238
  136MOL0     H18311   8.573  11.201   0.458 -0.8497  1.3547  0.0448
  136MOL0     H18312   8.692  11.357   0.806 -4.5393 -0.0426 -0.2205
  136MOL0     H18313   8.775  11.277   0.682  0.6109  1.1128  1.8290
  136MOL0     H18314   8.821  11.500   0.625 -0.0178 -0.5011 -0.0958
  136MOL0     H18315   8.708  11.458   0.513 -1.3913 -0.2368  0.2004
  136MOL0     H18316   8.637  11.577   0.794 -0.6396  1.1656  0.0661
  136MOL0     H18317   8.532  11.594   0.658  0.2468  0.5313  1.1979
  136MOL0     H18318   8.795  11.723   0.687 -0.0571 -0.8302 -0.2776
  136MOL0     H18319   8.643  11.809   0.679 -1.1614 -1.7433  2.2023
  136MOL0     H18320   8.843  11.941   0.580  1.5413  0.3047 -0.5159
  136MOL0     H18321   8.869  12.147   0.451 -2.0211  1.1101  0.5910
  136MOL0     H18322   8.761  12.111  -0.104 -0.1761 -1.0263 -1.0150
  136MOL0     H18323   8.883  12.249  -0.278 -0.7398 -3.6033  0.2737
  136MOL0     H18324   8.848  12.420  -0.489 -0.2392  0.3098  0.4630
  136MOL0     H18325   8.697  12.487  -0.437 -0.9942  2.5880  1.5224
  136MOL0     H18326   8.925  12.657  -0.535  0.5676  1.9045  2.4318
  136MOL0     H18327   8.773  12.618  -0.621 -1.1333 -0.1255  1.2153
  136MOL0     H18328   8.823  12.798  -0.398  1.6964 -2.2795 -0.8916
  136MOL0     H18329   8.760  12.836  -0.562 -2.3282  0.1254 -0.1519
  136MOL0     H18330   8.615  12.664  -0.350 -2.7329 -1.9838  0.0664
  136MOL0     H18331   8.563  12.697  -0.510 -0.0097 -3.0675  2.4297
  136MOL0     H18332   8.636  12.930  -0.335  1.1696  1.0320 -5.4997
  136MOL0     H18333   8.465  12.852  -0.313 -1.2341  1.6880 -0.4966
  136MOL0     H18334   8.469  13.064  -0.435  1.8985 -0.0894  2.4410
  136MOL0     H18335   8.555  12.976  -0.568  0.1134 -0.1713 -1.0378
  136MOL0     H18336   8.286  12.872  -0.471  0.3571  0.5783  0.5328
  136MOL0     H18337   8.400  12.817  -0.595 -1.3138  0.7417 -0.7134
  136MOL0     H18338   8.383  13.007  -0.730  1.9861 -1.7439  1.6915
  136MOL0     H18339   8.229  12.912  -0.703 -1.8501  1.4086 -0.6188
  136MOL0     H18340   8.752  12.615  -0.090  0.6105  0.3090  0.0628
  136MOL0     H18341   8.651  12.466   0.091 -2.7375 -3.7830  0.4998
  136MOL0     H18342   8.586  11.966   0.156 -0.7127  4.6661 -0.3779
  136MOL0     H18343   8.624  11.763   0.271  2.3336 -0.9460  0.0047
  136MOL0     H18344   8.458  10.074   0.645  0.6121 -2.2531 -0.5185
  136MOL0     H18345   8.362   9.858   0.693  1.7422  2.0637  1.0058
  136MOL0     H18346   8.360   9.384   0.721 -0.5026  3.5315 -1.8570
  136MOL0     H18347   8.240   9.175   0.759 -0.8311  0.0127  2.8337
  136MOL0     H18348   8.107   9.005   0.797  1.3583  2.5017 -0.2598
  136MOL0     H18349   8.091   8.949   0.626  1.3421  0.7214 -0.0053
  136MOL0     H18350   7.833   8.884   0.687  0.5203 -0.2365  0.1127
  136MOL0     H18351   7.876   8.926   0.852 -0.2021 -2.7387  1.7123
  136MOL0     H18352   7.888   8.678   0.800  0.3719  0.9558  0.1402
  136MOL0     H18353   8.031   8.745   0.872 -3.3539  1.4238  3.2087
  136MOL0     H18354   8.159   8.751   0.663 -1.3239  2.6141  2.1250
  136MOL0     H18355   8.099   8.588   0.717  0.0063  0.0924 -1.1623
  136MOL0     H18356   7.862   8.622   0.377  0.0760 -0.3267  0.6920
  136MOL0     H18357   7.895   9.318   0.555  0.7585  1.6387 -2.8414
  136MOL0     H18358   7.950   9.651   0.595  0.0043 -0.4815  0.5117
  136MOL0     H18359   7.978   9.598   0.429  1.0111 -0.0213 -0.0475
  136MOL0     H18360   7.849   9.525   0.517 -0.9258  2.3899  1.1532
  137MOL0     O18361   6.402   8.606  10.306 -0.1297  0.1791 -0.2219
  137MOL0     C18362   6.401   8.727  10.301 -0.0960  0.3608  0.1300
  137MOL0     O18363   6.464   8.805  10.208  0.1793  0.2383  0.5080
  137MOL0     C18364   6.495   8.758  10.081  0.5245  0.4391  0.3427
  137MOL0     C18365   6.431   8.804   9.964  0.0377 -0.0902 -0.5212
  137MOL0     C18366   6.473   8.761   9.841  0.9059  0.4239  0.4413
  137MOL0     C18367   6.568   8.666   9.824  0.6503  0.5331 -0.7267
  137MOL0     O18368   6.603   8.596   9.709 -0.0452 -0.2813 -0.4605
  137MOL0     C18369   6.528   8.624   9.593 -1.0288 -0.1202  0.6182
  137MOL0     C18370   6.553   8.517   9.490  0.0003 -0.1580  0.2139
  137MOL0     C18371   6.481   8.533   9.354  0.4029 -1.5988  0.7355
  137MOL0     C18372   6.539   8.437   9.248 -0.2737  0.3239  1.1948
  137MOL0     C18373   6.469   8.449   9.108  0.1542 -0.9153  0.0516
  137MOL0     C18374   6.485   8.586   9.035 -0.2439 -1.0869 -0.5328
  137MOL0     C18375   6.630   8.643   9.029  0.6399  0.1430  0.3130
  137MOL0     C18376   6.645   8.753   8.931  0.0279  1.1097  0.9270
  137MOL0     N18377   6.606   8.726   8.794 -0.0298 -0.2624  0.1342
  137MOL0     C18378   6.649   8.626   8.711 -0.1637  0.1093  0.3054
  137MOL0     C18379   6.587   8.640   8.590  0.1000 -0.0129 -0.5307
  137MOL0     C18380   6.610   8.558   8.462  0.6442 -0.7789  0.1656
  137MOL0     C18381   6.666   8.643   8.352  0.0851  0.9200  1.1667
  137MOL0     C18382   6.665   8.568   8.220  0.4216 -0.7407 -0.0558
  137MOL0     C18383   6.691   8.417   8.227 -0.2168  1.0473  0.1781
  137MOL0     O18384   6.582   8.332   8.272 -1.1699 -0.4483  0.1688
  137MOL0     C18385   6.604   8.192   8.274  0.5542 -0.5457 -0.6407
  137MOL0     C18386   6.720   8.132   8.229  0.7745 -1.1345 -0.2459
  137MOL0     C18387   6.721   7.990   8.223 -0.7530  0.7281  0.2612
  137MOL0     C18388   6.605   7.912   8.250  0.0030  0.0673  0.3216
  137MOL0     C18389   6.600   7.772   8.234  0.3430  0.1024  0.6615
  137MOL0     O18390   6.479   7.707   8.260 -0.2338 -0.0226 -0.1320
  137MOL0     C18391   6.473   7.569   8.275 -0.3002 -0.8547  0.3255
  137MOL0     C18392   6.415   7.504   8.383  0.2792  0.7589  0.1058
  137MOL0     C18393   6.407   7.363   8.382 -0.5590 -0.9001  0.3216
  137MOL0     C18394   6.451   7.281   8.272  0.4632 -0.2516 -0.4244
  137MOL0     O18395   6.444   7.150   8.279 -0.0257  0.5729 -0.6851
  137MOL0     C18396   6.431   7.087   8.147  0.6989 -0.1425 -0.4359
  137MOL0     C18397   6.400   6.940   8.157 -0.0276 -0.3574  0.0920
  137MOL0     C18398   6.370   6.879   8.019 -0.2925  0.3523 -0.3374
  137MOL0     C18399   6.501   6.819   7.963 -0.3348  0.2772 -0.0880
  137MOL0     C18400   6.468   6.691   7.879  0.0233 -0.4765  0.1502
  137MOL0     C18401   6.354   6.714   7.776  0.2353 -0.8768 -0.1533
  137MOL0     C18402   6.376   6.802   7.649 -0.0204  0.9789 -0.1539
  137MOL0     C18403   6.476   6.735   7.552 -0.1893  0.0165 -0.2260
  137MOL0    Cl18404   6.383   6.622   7.457 -0.0663  0.1136 -0.0836
  137MOL0     C18405   6.506   7.356   8.174  0.4675  0.1007  0.0301
  137MOL0     C18406   6.519   7.494   8.168  0.3250  0.1947  0.2915
  137MOL0     O18407   6.703   7.722   8.197 -0.4877  0.2633  0.3652
  137MOL0     C18408   6.491   7.972   8.311 -0.4839 -0.3117  0.6793
  137MOL0     C18409   6.490   8.114   8.315 -0.6026 -0.1590  0.1839
  137MOL0     N18410   6.516   8.760   8.603  0.1456  0.2632 -0.1914
  137MOL0     N18411   6.513   8.803   8.729 -0.5441 -0.4558  0.4740
  137MOL0     C18412   6.634   8.612   9.941 -0.1384  0.3485  0.1795
  137MOL0     C18413   6.601   8.656  10.062  0.2601  0.2129 -0.1517
  137MOL0     C18414   6.356   8.801  10.420  0.4457  0.8363  0.0020
  137MOL0     C18415   6.360   8.942  10.413  0.2036  0.3107 -0.3156
  137MOL0     C18416   6.286   9.022  10.498 -0.1133 -0.6796 -0.5378
  137MOL0     C18417   6.217   8.969  10.612 -0.2454  0.1905  0.8526
  137MOL0     O18418   6.148   9.039  10.704 -0.5844 -0.7322 -0.4456
  137MOL0     C18419   6.137   9.186  10.690  0.7620  0.1857  0.2043
  137MOL0     C18420   6.044   9.230  10.582  0.3837 -0.9985  0.2102
  137MOL0     C18421   5.903   9.216  10.626 -0.1791  0.3455 -0.1892
  137MOL0     C18422   5.804   9.302  10.539  0.2158  0.5467 -0.0329
  137MOL0     C18423   5.797   9.243  10.409 -0.2524 -0.2738  0.3781
  137MOL0     C18424   5.792   9.195  10.296  0.4028 -0.9745 -0.9188
  137MOL0     C18425   6.224   8.832  10.635  0.2133  0.2663  0.3964
  137MOL0     C18426   6.284   8.743  10.533 -1.0489 -0.6739 -0.4658
  137MOL0     C18427   6.294   8.604  10.569  0.0560  0.6288 -0.2852
  137MOL0     H18428   6.353   8.880   9.965 -1.2248 -1.3471 -0.1034
  137MOL0     H18429   6.430   8.809   9.754  0.8409 -2.5747 -1.3280
  137MOL0     H18430   6.423   8.644   9.617 -1.2166  0.9363 -0.9658
  137MOL0     H18431   6.591   8.707   9.562 -0.3708 -0.9668 -0.4155
  137MOL0     H18432   6.526   8.418   9.528  3.0400 -1.1033  0.1449
  137MOL0     H18433   6.662   8.514   9.484  0.0171  1.6395 -1.3118
  137MOL0     H18434   6.474   8.638   9.326 -1.4161 -1.1156  2.7534
  137MOL0     H18435   6.378   8.499   9.366  0.7200 -2.5795  0.7363
  137MOL0     H18436   6.643   8.466   9.234 -0.5084  0.9955  0.7969
  137MOL0     H18437   6.527   8.336   9.287 -0.7616 -0.0856  0.0242
  137MOL0     H18438   6.505   8.382   9.030 -0.4782 -3.1893  1.6249
  137MOL0     H18439   6.365   8.425   9.129  0.2174 -0.6273  0.7358
  137MOL0     H18440   6.449   8.577   8.932  2.2817 -1.3698 -1.4784
  137MOL0     H18441   6.438   8.662   9.097 -0.3256 -1.2085 -0.4440
  137MOL0     H18442   6.700   8.567   8.991 -1.8482 -1.6019 -1.1068
  137MOL0     H18443   6.660   8.684   9.126 -0.8567  2.8439 -0.2685
  137MOL0     H18444   6.587   8.839   8.964 -0.5887  0.1947  2.3567
  137MOL0     H18445   6.748   8.788   8.916 -0.1548  1.1769 -0.2427
  137MOL0     H18446   6.715   8.541   8.727 -1.1598 -1.2499 -2.1758
  137MOL0     H18447   6.679   8.478   8.491  0.3150 -0.4285  2.0086
  137MOL0     H18448   6.514   8.516   8.431 -0.2915  1.2670  0.1201
  137MOL0     H18449   6.606   8.734   8.347  0.0194  0.8844  1.2962
  137MOL0     H18450   6.767   8.677   8.380  0.7255 -0.0702  0.1449
  137MOL0     H18451   6.738   8.614   8.153 -0.3049  1.6903  0.7140
  137MOL0     H18452   6.568   8.578   8.171 -0.4980  0.1059  1.8312
  137MOL0     H18453   6.771   8.392   8.297 -0.1136 -0.4447 -0.4416
  137MOL0     H18454   6.720   8.389   8.125 -0.2984 -0.1557  0.4779
  137MOL0     H18455   6.809   8.190   8.207  1.0641  0.0647  3.3539
  137MOL0     H18456   6.809   7.940   8.185 -1.2045  0.4990 -0.4984
  137MOL0     H18457   6.405   7.567   8.471 -0.4701 -1.1533  1.4488
  137MOL0     H18458   6.371   7.307   8.468  0.7197 -0.7080  1.0077
  137MOL0     H18459   6.347   7.136   8.098  1.5555 -0.1732 -2.0164
  137MOL0     H18460   6.523   7.099   8.089  0.9918  0.2221  0.0985
  137MOL0     H18461   6.490   6.889   8.194 -0.3632  0.4604  2.1090
  137MOL0     H18462   6.315   6.923   8.223 -0.3544  0.9695  0.0424
  137MOL0     H18463   6.287   6.808   8.028 -0.0992  0.1703  0.0537
  137MOL0     H18464   6.340   6.951   7.943  0.8776 -0.2115 -1.3788
  137MOL0     H18465   6.575   6.795   8.040  2.6967  2.4570 -2.0769
  137MOL0     H18466   6.545   6.901   7.905 -1.1713  1.6306  1.1335
  137MOL0     H18467   6.431   6.622   7.956 -2.1606  0.6256  0.1793
  137MOL0     H18468   6.562   6.649   7.843  0.7822  0.4221  1.0385
  137MOL0     H18469   6.321   6.613   7.750 -1.5785 -0.2224 -0.5277
  137MOL0     H18470   6.268   6.764   7.821  3.1608  3.2067  1.5387
  137MOL0     H18471   6.418   6.899   7.675 -0.3819  0.6912  1.6347
  137MOL0     H18472   6.279   6.815   7.601 -1.2242 -2.3195  1.0499
  137MOL0     H18473   6.518   6.819   7.496 -3.3279  0.7781 -1.6184
  137MOL0     H18474   6.559   6.681   7.599  0.6440  1.8976  0.5533
  137MOL0     H18475   6.546   7.303   8.088 -1.7694 -0.2152 -0.8923
  137MOL0     H18476   6.564   7.543   8.082  2.4995 -0.7047  0.8373
  137MOL0     H18477   6.398   7.926   8.343 -2.9051  3.4845 -0.1053
  137MOL0     H18478   6.407   8.180   8.337 -2.1397  0.0529 -5.0078
  137MOL0     H18479   6.712   8.539   9.922 -0.2392  0.9278 -2.9821
  137MOL0     H18480   6.645   8.608  10.149  3.3024 -1.9625 -2.6527
  137MOL0     H18481   6.414   9.003  10.341  0.1668 -0.3468 -0.9002
  137MOL0     H18482   6.294   9.129  10.484 -0.7477 -0.6224 -0.5150
  137MOL0     H18483   6.235   9.233  10.683  1.4007 -1.0506  0.6655
  137MOL0     H18484   6.098   9.232  10.782  0.5086  2.2831 -0.8968
  137MOL0     H18485   6.050   9.182  10.484 -1.7574  2.1849 -1.6744
  137MOL0     H18486   6.064   9.336  10.567  1.9750 -1.1077  1.3377
  137MOL0     H18487   5.888   9.263  10.724  3.2008  1.3832 -0.0416
  137MOL0     H18488   5.866   9.113  10.627  0.4609  0.0782  2.1086
  137MOL0     H18489   5.707   9.295  10.589 -0.4556  1.4236 -1.1705
  137MOL0     H18490   5.833   9.406  10.526  2.5489  0.1280  1.1404
  137MOL0     H18491   5.805   9.151  10.199 -0.6233 -0.6026 -1.2400
  137MOL0     H18492   6.187   8.793  10.730  1.5897  2.8183  2.1142
  137MOL0     H18493   6.229   8.536  10.512 -0.6974 -1.2874  2.6369
  137MOL0     H18494   6.396   8.566  10.575 -0.3763 -0.3634  1.6436
  137MOL0     H18495   6.260   8.595  10.672 -1.5222  2.2616 -0.6151
  138MOL0     O18496   6.653   0.016  10.600 -0.9892  0.4468  0.2319
  138MOL0     C18497   6.639   0.089  10.502 -0.7014  0.6685 -1.3235
  138MOL0     O18498   6.669   0.218  10.505 -0.5037 -0.0246  0.5008
  138MOL0     C18499   6.709   0.278  10.628 -0.8408  0.4484  0.5892
  138MOL0     C18500   6.838   0.266  10.670  0.3353 -0.1720  0.2223
  138MOL0     C18501   6.878   0.330  10.789  0.7764 -0.2830  0.6956
  138MOL0     C18502   6.779   0.400  10.866  0.4928  0.1336  0.0081
  138MOL0     O18503   6.808   0.470  10.979  0.4855 -0.3329 -0.4788
  138MOL0     C18504   6.921   0.553  10.996  0.9994 -0.9291  0.9342
  138MOL0     C18505   7.023   0.487  11.087  0.2720  0.5554  0.5205
  138MOL0     C18506   7.134   0.593  11.124  0.5277 -0.1408  0.3248
  138MOL0     C18507   7.195   0.576  11.265 -0.5689 -1.0519  0.5604
  138MOL0     C18508   7.284   0.698  11.294  0.8306  1.0811  0.1287
  138MOL0     C18509   7.328   0.675  11.443  0.2258  0.7665  0.5813
  138MOL0     C18510   7.422   0.787  11.487 -0.2679 -0.7853 -0.4859
  138MOL0     C18511   7.556   0.774  11.429  0.3921 -0.1451 -0.2702
  138MOL0     N18512   7.664   0.827  11.513  0.3683 -0.9192  0.1883
  138MOL0     C18513   7.712   0.952  11.523 -0.1718 -0.0176  0.1046
  138MOL0     C18514   7.783   0.966  11.643  1.1499 -0.0686  0.4697
  138MOL0     C18515   7.850   1.085  11.706  0.2271 -0.1412  0.5335
  138MOL0     C18516   7.852   1.079  11.868  0.5546  0.3365 -0.4977
  138MOL0     C18517   7.922   1.194  11.928 -0.0190  0.6043 -0.4622
  138MOL0     C18518   7.907   1.205  12.082  0.6905  0.2591 -0.0538
  138MOL0     O18519   7.973   1.331  12.104 -0.6583  0.0959  0.1487
  138MOL0     C18520   7.973   1.383  12.225 -0.3475  0.3571  1.1337
  138MOL0     C18521   7.912   1.327  12.336 -0.1578 -0.2880  0.0780
  138MOL0     C18522   7.936   1.386  12.460  0.7747 -0.2283  0.1982
  138MOL0     C18523   8.023   1.492  12.486  0.8682  0.5824  0.0494
  138MOL0     C18524   8.045   1.544  12.620  0.1527  0.1671  0.1881
  138MOL0     O18525   7.970   1.485  12.718 -0.9074  0.1346 -0.5804
  138MOL0     C18526   7.951   1.546  12.836  0.3885  0.2684 -0.1588
  138MOL0     C18527   7.939   1.468  12.960 -0.5206 -0.5797 -0.0297
  138MOL0     C18528   7.910   1.522  13.080  0.0114  0.1822  0.2641
  138MOL0     C18529   7.904   1.664  13.100 -0.3561  0.3728 -0.4817
  138MOL0     O18530   7.884   1.721  13.219  0.0767  0.3594 -0.3306
  138MOL0     C18531   7.907   1.647  13.336  0.2879  0.1406 -0.0127
  138MOL0     C18532   7.912   1.748  13.447 -0.3683 -0.0833  0.5738
  138MOL0     C18533   7.968   1.677  13.573  0.0294  0.4058  0.0999
  138MOL0     C18534   8.112   1.619  13.551 -0.7405  0.5764 -0.2431
  138MOL0     C18535   8.146   1.535  13.673 -0.6100 -0.1096  0.5256
  138MOL0     C18536   8.296   1.525  13.708  0.6277 -0.3373  0.2654
  138MOL0     C18537   8.325   1.429  13.821 -0.3351  0.6299  0.2038
  138MOL0     C18538   8.473   1.380  13.826 -0.6159 -0.8506 -1.5565
  138MOL0    Cl18539   8.507   1.266  13.691  0.2057 -0.6935  0.1065
  138MOL0     C18540   7.905   1.733  12.977 -0.1514  0.2871 -0.9067
  138MOL0     C18541   7.921   1.683  12.851 -0.0670 -0.2372  0.1768
  138MOL0     O18542   8.109   1.645  12.636 -0.6480  0.0817 -0.0128
  138MOL0     C18543   8.093   1.532  12.378  0.1351 -0.0452  1.0753
  138MOL0     C18544   8.068   1.480  12.246  1.1414 -0.0808  0.7436
  138MOL0     N18545   7.783   0.844  11.697 -0.1920  0.3047  0.0728
  138MOL0     N18546   7.708   0.763  11.627  0.0102 -0.4969  0.4450
  138MOL0     C18547   6.645   0.399  10.826 -0.4603  0.1185  0.1361
  138MOL0     C18548   6.614   0.342  10.704  0.4125  0.0499 -0.0709
  138MOL0     C18549   6.558   0.037  10.389 -1.0594 -0.6022  0.7112
  138MOL0     C18550   6.472   0.129  10.334  0.9981  0.0232  0.7707
  138MOL0     C18551   6.385   0.090  10.234  0.1459  0.0254 -0.4356
  138MOL0     C18552   6.403  -0.037  10.173 -0.2164 -0.1581 -0.0037
  138MOL0     O18553   6.332  -0.082  10.059 -0.2709 -0.5866 -0.2676
  138MOL0     C18554   6.189  -0.069  10.073  0.6492  0.3423 -0.1853
  138MOL0     C18555   6.108  -0.157   9.965 -0.1518 -0.5452  0.3732
  138MOL0     C18556   6.147  -0.294   9.962  0.1072  0.6226 -0.5985
  138MOL0     C18557   6.074  -0.387  10.072 -0.3768 -0.7333 -0.3041
  138MOL0     C18558   6.047  -0.516  10.016 -0.8272  0.0666  0.3948
  138MOL0     C18559   6.023  -0.630   9.979 -0.7005  0.6831  0.4228
  138MOL0     C18560   6.494  -0.130  10.217  0.0064  0.2828  0.3025
  138MOL0     C18561   6.572  -0.092  10.331  0.3033  0.1392 -0.3145
  138MOL0     C18562   6.681  -0.207  10.379  0.9452 -0.9992  0.8406
  138MOL0     H18563   6.916   0.220  10.610 -0.1692 -1.8225  0.7745
  138MOL0     H18564   6.981   0.316  10.819  1.6838  1.0890 -1.6170
  138MOL0     H18565   6.951   0.582  10.895 -2.7182  1.1066  0.2330
  138MOL0     H18566   6.900   0.650  11.042  2.5600 -1.3146  2.5934
  138MOL0     H18567   7.057   0.387  11.060  0.2265  0.3778  1.1061
  138MOL0     H18568   6.974   0.464  11.182  1.6825 -1.6825  0.7785
  138MOL0     H18569   7.092   0.694  11.115 -0.9578 -0.5973  1.5587
  138MOL0     H18570   7.210   0.586  11.046  0.2740 -1.2832  0.1706
  138MOL0     H18571   7.121   0.577  11.346  0.3000 -2.4716  1.4250
  138MOL0     H18572   7.262   0.490  11.270  1.6063  0.6253  3.0947
  138MOL0     H18573   7.361   0.684  11.218  0.2961  2.1079 -0.6293
  138MOL0     H18574   7.242   0.799  11.284 -2.9565 -0.2486  0.8364
  138MOL0     H18575   7.238   0.679  11.504 -0.4473 -1.5542 -0.1799
  138MOL0     H18576   7.378   0.579  11.461  0.3703  0.4974 -1.1003
  138MOL0     H18577   7.434   0.785  11.596  3.2531 -1.9354 -0.7860
  138MOL0     H18578   7.371   0.880  11.459  0.0501 -0.3737  0.2607
  138MOL0     H18579   7.582   0.669  11.414  0.1771 -0.1406 -0.6853
  138MOL0     H18580   7.552   0.817  11.329 -3.1824 -3.1404 -1.6758
  138MOL0     H18581   7.681   1.026  11.450  0.2830 -0.6058 -0.7075
  138MOL0     H18582   7.954   1.075  11.673  0.2225 -0.8139  0.7150
  138MOL0     H18583   7.807   1.183  11.682 -1.6762 -0.4952  2.2291
  138MOL0     H18584   7.745   1.087  11.887  1.1507 -0.3505  4.3343
  138MOL0     H18585   7.896   0.986  11.904 -2.1472 -2.3068 -3.4094
  138MOL0     H18586   7.883   1.288  11.888 -3.4190  0.3393  1.8163
  138MOL0     H18587   8.027   1.175  11.905 -0.0666 -0.2278 -0.0108
  138MOL0     H18588   7.964   1.131  12.140 -1.7918 -0.7575  1.2083
  138MOL0     H18589   7.806   1.188  12.120  0.6149 -2.1906 -1.1582
  138MOL0     H18590   7.852   1.237  12.328  2.2334 -2.0189  0.3899
  138MOL0     H18591   7.890   1.327  12.539  2.1893 -0.9593  0.5054
  138MOL0     H18592   7.960   1.362  12.954  1.9515 -0.0833 -1.8928
  138MOL0     H18593   7.888   1.447  13.155  3.1939 -2.1882 -0.9582
  138MOL0     H18594   7.831   1.571  13.357  0.5287  0.0911  0.7241
  138MOL0     H18595   8.001   1.592  13.326  0.2885  0.2669 -0.7373
  138MOL0     H18596   7.971   1.830  13.406 -0.5880 -0.4828 -0.5830
  138MOL0     H18597   7.806   1.769  13.466 -0.7986 -1.5086 -0.0950
  138MOL0     H18598   7.979   1.749  13.655  2.0257 -0.1297  0.3651
  138MOL0     H18599   7.896   1.603  13.611  0.5260  0.2850  0.8295
  138MOL0     H18600   8.182   1.703  13.549 -1.8788  1.5429 -2.1080
  138MOL0     H18601   8.129   1.557  13.462 -1.4323  1.5730 -1.0956
  138MOL0     H18602   8.096   1.438  13.661 -1.4025  0.4874 -1.3227
  138MOL0     H18603   8.094   1.589  13.754  2.0606  0.8165  1.7323
  138MOL0     H18604   8.362   1.504  13.624 -0.5566 -1.8199 -0.3378
  138MOL0     H18605   8.328   1.621  13.751 -0.8433 -1.5325  4.5056
  138MOL0     H18606   8.260   1.341  13.816  1.1545 -0.7851  3.1295
  138MOL0     H18607   8.294   1.487  13.909  1.3428  0.6721  0.7979
  138MOL0     H18608   8.545   1.462  13.819 -1.4405  0.2138  1.1846
  138MOL0     H18609   8.501   1.341  13.924 -1.8109  0.4860 -0.6408
  138MOL0     H18610   7.900   1.842  12.980 -0.9953  0.2343  0.0999
  138MOL0     H18611   7.931   1.758  12.773 -1.1140 -0.3684 -0.1064
  138MOL0     H18612   8.171   1.606  12.370 -1.6308  1.6841 -3.7442
  138MOL0     H18613   8.109   1.531  12.160 -2.8032  0.3860 -1.0902
  138MOL0     H18614   6.566   0.444  10.885  0.6869  0.1865  1.6801
  138MOL0     H18615   6.511   0.345  10.669  0.2860  1.8254  0.3167
  138MOL0     H18616   6.453   0.230  10.371  0.0966  0.2539 -0.2653
  138MOL0     H18617   6.304   0.155  10.201 -0.3358  3.6473  6.1772
  138MOL0     H18618   6.166   0.038  10.076 -1.3990  0.0032 -1.4630
  138MOL0     H18619   6.172  -0.111  10.172 -1.5173  1.8457  0.1450
  138MOL0     H18620   6.130  -0.121   9.864  1.9462  2.9245  1.9004
  138MOL0     H18621   6.000  -0.163   9.980 -0.5281 -1.3932 -2.1791
  138MOL0     H18622   6.252  -0.312   9.984  0.1714  1.5689 -0.0972
  138MOL0     H18623   6.138  -0.336   9.861  1.2450  3.3630 -1.9270
  138MOL0     H18624   6.139  -0.399  10.159 -0.3872 -0.3487 -0.2408
  138MOL0     H18625   5.983  -0.339  10.110  1.4077  0.3360  2.9282
  138MOL0     H18626   5.988  -0.723   9.938 -2.1578  1.0468  0.7663
  138MOL0     H18627   6.503  -0.219  10.155  4.1380  0.7285 -0.0289
  138MOL0     H18628   6.787  -0.178  10.380  1.4561 -2.7366  1.1800
  138MOL0     H18629   6.653  -0.227  10.482 -1.8360  2.6246  1.0077
  138MOL0     H18630   6.686  -0.296  10.316  2.4304 -1.5922  1.7407
  139MOL0     O18631   2.607   3.808   6.622  0.7722 -0.7362 -0.7607
  139MOL0     C18632   2.563   3.857   6.518  0.1992  0.0983 -0.3167
  139MOL0     O18633   2.539   3.995   6.490 -0.0045  0.3733 -0.1138
  139MOL0     C18634   2.586   4.077   6.584 -0.1352 -0.1658 -0.4703
  139MOL0     C18635   2.514   4.161   6.669 -0.5523  0.8617 -0.7570
  139MOL0     C18636   2.576   4.253   6.760 -0.7528  0.5481  0.0877
  139MOL0     C18637   2.711   4.278   6.741  0.2832 -0.4219  0.4151
  139MOL0     O18638   2.771   4.358   6.829 -0.0278 -0.0591  0.3877
  139MOL0     C18639   2.863   4.290   6.913  0.3780 -0.2131 -0.0323
  139MOL0     C18640   2.941   4.387   7.004 -0.1285  1.1711 -0.1784
  139MOL0     C18641   3.006   4.515   6.945 -1.5464 -0.7490 -0.0583
  139MOL0     C18642   3.160   4.516   6.963 -0.2322  0.8570  0.2343
  139MOL0     C18643   3.240   4.644   6.946  0.0052  0.4142 -0.5564
  139MOL0     C18644   3.220   4.737   7.070 -0.3984 -0.1582 -0.1321
  139MOL0     C18645   3.339   4.831   7.066  0.0372  1.0967  0.4504
  139MOL0     C18646   3.330   4.936   7.177  0.5534 -0.3124  0.8824
  139MOL0     N18647   3.458   5.004   7.197  0.2670 -0.1632  1.0135
  139MOL0     C18648   3.512   5.105   7.119 -0.4547  1.4570 -0.9163
  139MOL0     C18649   3.647   5.099   7.151  0.5760  0.1820  0.7487
  139MOL0     C18650   3.751   5.193   7.094 -0.7085 -0.0206  0.5441
  139MOL0     C18651   3.738   5.332   7.160 -0.5991 -0.6036 -0.0907
  139MOL0     C18652   3.741   5.355   7.309 -0.4875  0.9863 -0.1687
  139MOL0     C18653   3.679   5.495   7.350  0.8187 -0.1799  0.2800
  139MOL0     O18654   3.552   5.515   7.279  0.0556  0.1349 -0.0814
  139MOL0     C18655   3.445   5.428   7.303 -0.3334 -0.2182 -0.0262
  139MOL0     C18656   3.344   5.410   7.205 -0.7115 -0.5597 -1.0435
  139MOL0     C18657   3.239   5.316   7.231  0.4065 -0.8305 -0.2824
  139MOL0     C18658   3.235   5.241   7.354 -0.2167  0.3652 -0.4748
  139MOL0     C18659   3.126   5.135   7.383 -0.0433  0.2939  0.3663
  139MOL0     O18660   3.042   5.107   7.279  0.1376  0.1842 -0.8908
  139MOL0     C18661   2.924   5.037   7.312 -0.4357 -0.6915 -0.3803
  139MOL0     C18662   2.798   5.084   7.272 -0.7366  0.0913  0.1084
  139MOL0     C18663   2.683   5.020   7.315  0.6266 -0.8235 -0.2258
  139MOL0     C18664   2.691   4.908   7.398 -0.3452  0.3400  0.0312
  139MOL0     O18665   2.584   4.835   7.445  1.0952 -0.1853 -0.1799
  139MOL0     C18666   2.450   4.872   7.398 -0.3553  0.5246 -0.5290
  139MOL0     C18667   2.357   4.766   7.473  0.1741 -0.0582  0.8842
  139MOL0     C18668   2.207   4.777   7.435  0.1675  0.4157  0.3563
  139MOL0     C18669   2.126   4.647   7.436 -0.5665  0.5900 -0.0954
  139MOL0     C18670   1.997   4.665   7.356  0.6494  0.1214  0.5223
  139MOL0     C18671   1.929   4.523   7.357 -0.5784 -0.0861  0.2163
  139MOL0     C18672   1.991   4.407   7.278 -0.7379 -1.1832  0.0299
  139MOL0     C18673   1.894   4.378   7.165  0.7995  0.6446 -0.3259
  139MOL0    Cl18674   1.962   4.244   7.067  0.3280  0.3344  0.3299
  139MOL0     C18675   2.818   4.835   7.403  0.7590 -0.1146 -0.3176
  139MOL0     C18676   2.934   4.908   7.369  0.4368 -0.1616 -0.8631
  139MOL0     O18677   3.124   5.100   7.496 -0.7614 -0.6686 -1.1039
  139MOL0     C18678   3.340   5.262   7.447 -1.1528 -1.0522 -0.3289
  139MOL0     C18679   3.442   5.356   7.423  0.7031 -0.2258 -0.3553
  139MOL0     N18680   3.666   5.009   7.256  1.2323 -0.2487  0.7293
  139MOL0     N18681   3.552   4.951   7.283  0.5837 -0.3540 -0.4036
  139MOL0     C18682   2.781   4.222   6.639 -0.1378  0.2043  0.1467
  139MOL0     C18683   2.722   4.118   6.570 -0.6490  0.2188  0.3999
  139MOL0     C18684   2.520   3.763   6.411  0.6159 -0.3019 -0.2850
  139MOL0     C18685   2.576   3.792   6.283 -0.7230 -0.1541 -0.7072
  139MOL0     C18686   2.556   3.698   6.181 -0.7801  0.1629  0.4274
  139MOL0     C18687   2.467   3.599   6.200 -0.1811  0.7233  0.0181
  139MOL0     O18688   2.434   3.509   6.094  0.2894 -0.3207  0.2339
  139MOL0     C18689   2.311   3.555   6.019 -0.2735  0.2086 -0.9255
  139MOL0     C18690   2.332   3.682   5.939  0.7111 -0.5294  0.2353
  139MOL0     C18691   2.449   3.655   5.838  0.7285  0.0763  0.4404
  139MOL0     C18692   2.515   3.779   5.784 -0.0438 -0.3089  0.4064
  139MOL0     C18693   2.405   3.844   5.710  0.8112 -0.1232 -0.3942
  139MOL0     C18694   2.304   3.895   5.653  0.7312  1.1718  0.4962
  139MOL0     C18695   2.415   3.570   6.324 -0.0316  1.0849  0.4939
  139MOL0     C18696   2.436   3.651   6.432 -0.0447  0.3158 -0.4540
  139MOL0     C18697   2.365   3.629   6.559  0.0227  0.0012  0.0331
  139MOL0     H18698   2.407   4.147   6.686 -0.5249 -1.1306 -1.9177
  139MOL0     H18699   2.519   4.295   6.842 -1.8477 -1.6588  0.5170
  139MOL0     H18700   2.814   4.208   6.967 -2.0786  1.0811 -0.1741
  139MOL0     H18701   2.943   4.247   6.851 -1.7761 -2.3330 -1.5209
  139MOL0     H18702   3.013   4.321   7.055 -1.5067  0.1860  0.5652
  139MOL0     H18703   2.866   4.422   7.076 -0.4039  2.2887 -0.9822
  139MOL0     H18704   2.977   4.609   6.993  2.5220  0.2680  0.7418
  139MOL0     H18705   2.969   4.527   6.842  0.0781  0.1323 -0.5798
  139MOL0     H18706   3.187   4.472   7.059  0.2061 -0.1593 -0.3345
  139MOL0     H18707   3.185   4.444   6.884 -5.9995 -0.1794 -1.1408
  139MOL0     H18708   3.344   4.615   6.931  0.4591  0.4228  2.0838
  139MOL0     H18709   3.213   4.696   6.854 -1.7377  1.8194  0.6717
  139MOL0     H18710   3.131   4.799   7.054  0.4594  1.2037  0.2122
  139MOL0     H18711   3.214   4.677   7.162 -1.5617  2.0720  1.3384
  139MOL0     H18712   3.355   4.882   6.971  1.9850 -3.1559 -1.7934
  139MOL0     H18713   3.433   4.777   7.077 -1.1833 -1.9560 -2.4701
  139MOL0     H18714   3.252   5.004   7.143 -0.3087 -1.0851  1.2744
  139MOL0     H18715   3.300   4.885   7.269 -0.9839 -1.7956 -0.3741
  139MOL0     H18716   3.465   5.172   7.049 -1.1162 -1.5257 -3.5520
  139MOL0     H18717   3.847   5.152   7.129  0.1942  2.5073  1.1860
  139MOL0     H18718   3.754   5.200   6.985  0.2396  3.5594  0.6805
  139MOL0     H18719   3.811   5.398   7.113  1.3887 -4.0641 -2.3599
  139MOL0     H18720   3.641   5.371   7.131  0.8063  2.9974 -0.4238
  139MOL0     H18721   3.846   5.349   7.338 -0.5441  1.9639  0.2669
  139MOL0     H18722   3.686   5.275   7.360  2.2692  0.3583  2.0869
  139MOL0     H18723   3.746   5.577   7.322 -0.5415  0.7650 -0.3329
  139MOL0     H18724   3.678   5.489   7.459  0.2069 -0.6111  0.2555
  139MOL0     H18725   3.353   5.467   7.113  1.7210  1.6681  0.4293
  139MOL0     H18726   3.162   5.301   7.156 -2.6454  3.2954  1.6223
  139MOL0     H18727   2.790   5.180   7.222 -2.8481 -0.6192 -1.0231
  139MOL0     H18728   2.591   5.070   7.286  0.1663  0.2917  2.7912
  139MOL0     H18729   2.423   4.978   7.410 -1.4357  0.3829 -1.5475
  139MOL0     H18730   2.432   4.848   7.293 -0.1337 -1.1370 -0.2129
  139MOL0     H18731   2.388   4.663   7.454  4.4316  1.3345 -0.8355
  139MOL0     H18732   2.356   4.770   7.583 -1.9415  0.3599  0.8910
  139MOL0     H18733   2.164   4.851   7.502 -2.6034 -2.1650  1.6367
  139MOL0     H18734   2.191   4.810   7.332  0.3802 -0.5405 -0.0051
  139MOL0     H18735   2.109   4.632   7.543  0.2186  1.4933  0.1734
  139MOL0     H18736   2.195   4.568   7.403  0.6842 -0.5978  4.5772
  139MOL0     H18737   2.027   4.697   7.255  0.9909 -4.9781 -1.2612
  139MOL0     H18738   1.933   4.744   7.395  0.3869  0.6704 -0.9650
  139MOL0     H18739   1.908   4.489   7.459 -1.3639 -0.3361 -0.0211
  139MOL0     H18740   1.829   4.543   7.318 -0.7588  0.0199  0.7237
  139MOL0     H18741   2.018   4.324   7.344  0.8649 -3.5384 -3.3024
  139MOL0     H18742   2.085   4.431   7.228  0.3389  2.5957  3.2998
  139MOL0     H18743   1.803   4.347   7.218 -0.1596  0.9099 -1.7556
  139MOL0     H18744   1.858   4.463   7.106 -0.9560  0.5452  0.5589
  139MOL0     H18745   2.824   4.733   7.442  2.6486 -0.4527 -1.3811
  139MOL0     H18746   3.017   4.851   7.409 -2.5600 -3.0336  1.8169
  139MOL0     H18747   3.358   5.187   7.524 -0.1103 -2.9078 -2.2756
  139MOL0     H18748   3.528   5.360   7.488  0.6122  0.4092 -0.2709
  139MOL0     H18749   2.883   4.249   6.617 -0.5663  3.2390  1.4050
  139MOL0     H18750   2.791   4.072   6.500 -0.8220 -1.6768  1.4220
  139MOL0     H18751   2.648   3.873   6.281 -3.1899  2.1866 -0.7901
  139MOL0     H18752   2.618   3.702   6.092  0.3871 -0.1266  1.2080
  139MOL0     H18753   2.224   3.571   6.083 -2.5326 -3.4674 -2.7383
  139MOL0     H18754   2.284   3.479   5.945  2.2304 -1.9186  0.1791
  139MOL0     H18755   2.355   3.769   6.000 -3.0178 -1.0901  2.7727
  139MOL0     H18756   2.248   3.709   5.875  0.1027  1.7054  1.8708
  139MOL0     H18757   2.415   3.596   5.752 -0.6181  4.0885 -2.0371
  139MOL0     H18758   2.524   3.596   5.891  2.3967  0.8605 -0.9455
  139MOL0     H18759   2.554   3.846   5.861 -2.5358 -0.4509  1.8720
  139MOL0     H18760   2.595   3.748   5.716 -0.2418  0.2519 -0.1022
  139MOL0     H18761   2.224   3.944   5.600  0.0023  0.3445  0.7953
  139MOL0     H18762   2.368   3.479   6.360  3.1015 -0.7349  0.3362
  139MOL0     H18763   2.302   3.712   6.593 -1.2154 -0.5090 -0.9435
  139MOL0     H18764   2.297   3.544   6.558 -0.2934  0.1819  2.3348
  139MOL0     H18765   2.438   3.610   6.638  0.3092 -1.7888 -0.6110
  140MOL0     O18766   8.515   5.629  10.970  0.1973 -0.2522 -0.7310
  140MOL0     C18767   8.623   5.595  10.923 -0.0313  0.2162  0.6718
  140MOL0     O18768   8.647   5.507  10.814 -0.8989  0.1611 -0.1848
  140MOL0     C18769   8.542   5.447  10.761  0.0543 -0.6498 -0.5455
  140MOL0     C18770   8.503   5.467  10.633 -0.4418  0.0915 -0.6445
  140MOL0     C18771   8.394   5.396  10.586  0.2372 -0.2345 -0.8520
  140MOL0     C18772   8.328   5.299  10.659 -0.1778  0.6530 -1.1392
  140MOL0     O18773   8.214   5.230  10.632  0.1817 -0.4350 -0.8879
  140MOL0     C18774   8.104   5.307  10.572 -0.4415  0.0373  0.0927
  140MOL0     C18775   7.977   5.227  10.570  0.1642  0.2043 -0.2191
  140MOL0     C18776   7.886   5.217  10.697 -0.2989  0.3337  0.8712
  140MOL0     C18777   7.738   5.214  10.671  0.0218  1.1028  0.0436
  140MOL0     C18778   7.656   5.144  10.784 -0.6350 -0.1723 -0.0197
  140MOL0     C18779   7.662   5.216  10.920  0.5892 -0.7815  0.3080
  140MOL0     C18780   7.590   5.132  11.029 -1.3205  0.0386  0.5605
  140MOL0     C18781   7.471   5.204  11.090  0.4292  0.7390  0.4154
  140MOL0     N18782   7.505   5.329  11.177 -0.0198 -0.0828  0.0209
  140MOL0     C18783   7.410   5.393  11.256 -0.0472  0.3430 -0.5513
  140MOL0     C18784   7.469   5.496  11.320  0.5887  1.0190  0.3511
  140MOL0     C18785   7.400   5.604  11.375  0.8060 -0.5092 -0.2497
  140MOL0     C18786   7.425   5.749  11.310 -0.3942 -0.6918 -0.1466
  140MOL0     C18787   7.301   5.854  11.327 -0.3754  0.1641 -0.6466
  140MOL0     C18788   7.222   5.844  11.209 -0.0437 -0.2955  0.8411
  140MOL0     O18789   7.100   5.924  11.217  0.5415 -0.5233  0.3516
  140MOL0     C18790   7.010   5.922  11.110 -0.0877  0.1233 -0.0629
  140MOL0     C18791   6.882   5.972  11.132  0.0964 -0.6403 -0.2509
  140MOL0     C18792   6.784   5.939  11.039  0.0491 -0.0905 -0.5941
  140MOL0     C18793   6.815   5.877  10.914  0.9421 -0.5971 -0.7010
  140MOL0     C18794   6.714   5.852  10.816  0.7696  0.6334 -0.5699
  140MOL0     O18795   6.755   5.803  10.692  0.3514  1.1035 -0.0703
  140MOL0     C18796   6.679   5.726  10.606  0.0480 -0.3903  0.3522
  140MOL0     C18797   6.550   5.666  10.639 -0.4222 -0.5595  0.6522
  140MOL0     C18798   6.468   5.629  10.533  0.0067 -0.4686 -0.1339
  140MOL0     C18799   6.506   5.642  10.402  0.2725  0.5918 -0.1826
  140MOL0     O18800   6.440   5.593  10.294 -0.2678  0.0873  0.1270
  140MOL0     C18801   6.306   5.641  10.283  0.8882  1.1957 -0.9025
  140MOL0     C18802   6.226   5.587  10.167 -0.0115 -0.1466  0.5737
  140MOL0     C18803   6.080   5.623  10.185 -0.2929  1.3091 -1.1322
  140MOL0     C18804   5.999   5.570  10.074  0.0420  0.5866 -0.1440
  140MOL0     C18805   5.849   5.607  10.079 -0.0067 -0.2898 -0.1563
  140MOL0     C18806   5.773   5.549   9.963  0.9187  0.7063 -1.0756
  140MOL0     C18807   5.766   5.402   9.955 -0.6742  0.3420  0.2597
  140MOL0     C18808   5.659   5.348   9.868 -0.0567  0.1038  0.7212
  140MOL0    Cl18809   5.499   5.410   9.899 -0.0333  0.5279 -0.1665
  140MOL0     C18810   6.634   5.698  10.372 -0.2999  0.1682  0.4324
  140MOL0     C18811   6.723   5.732  10.469  0.4181  0.6061 -0.1785
  140MOL0     O18812   6.596   5.885  10.840 -0.7286  0.7082  0.1416
  140MOL0     C18813   6.948   5.850  10.889 -0.0048  0.0365  1.3436
  140MOL0     C18814   7.040   5.857  10.991  0.1069 -0.1237  0.2323
  140MOL0     N18815   7.599   5.489  11.286  0.1792 -0.4451  0.1848
  140MOL0     N18816   7.620   5.399  11.192 -0.6760 -0.2808 -0.2190
  140MOL0     C18817   8.381   5.264  10.782 -0.0543  0.8704  0.3134
  140MOL0     C18818   8.488   5.334  10.829  0.0003 -0.7425  0.0120
  140MOL0     C18819   8.749   5.635  10.981 -0.4388  0.4280 -0.5902
  140MOL0     C18820   8.853   5.684  10.897 -0.4478 -0.9537  0.0433
  140MOL0     C18821   8.977   5.716  10.952 -0.1981  0.6703  1.8081
  140MOL0     C18822   9.009   5.697  11.088  0.2147 -1.4167 -0.3444
  140MOL0     O18823   9.144   5.708  11.122 -0.0858  0.1925  0.6057
  140MOL0     C18824   9.247   5.781  11.048  0.2124 -0.1132 -0.3423
  140MOL0     C18825   9.284   5.920  11.110 -0.3004  0.3645  0.1522
  140MOL0     C18826   9.363   5.920  11.238 -0.3932  0.7026  0.0148
  140MOL0     C18827   9.290   5.843  11.349  0.8483 -0.5682 -0.3948
  140MOL0     C18828   9.168   5.925  11.401  0.9353  0.6011 -0.4088
  140MOL0     C18829   9.072   5.999  11.418  0.4364  0.1024 -0.1304
  140MOL0     C18830   8.912   5.642  11.163 -0.2825 -0.6428 -0.3697
  140MOL0     C18831   8.776   5.612  11.116  0.6662  0.2159 -0.7214
  140MOL0     C18832   8.693   5.545  11.222  1.0285 -0.0264  0.0403
  140MOL0     H18833   8.544   5.555  10.586 -2.9969  1.7997  0.1381
  140MOL0     H18834   8.361   5.417  10.485  0.5869  3.5957 -0.3335
  140MOL0     H18835   8.094   5.395  10.636 -0.7146 -1.0866  1.6792
  140MOL0     H18836   8.135   5.333  10.471  1.2320 -1.1816  0.2521
  140MOL0     H18837   7.996   5.122  10.542  0.6765 -0.0735  1.1198
  140MOL0     H18838   7.923   5.270  10.485 -0.5523  1.2634  0.7560
  140MOL0     H18839   7.910   5.298  10.767  4.1964  0.8359 -0.9073
  140MOL0     H18840   7.907   5.125  10.753  3.2418  0.1363 -0.5316
  140MOL0     H18841   7.699   5.316  10.672 -0.5858  0.9462  3.1812
  140MOL0     H18842   7.722   5.165  10.575 -0.7049 -3.0463  2.0653
  140MOL0     H18843   7.553   5.148  10.748 -0.1504  2.4612 -1.3491
  140MOL0     H18844   7.667   5.036  10.794  1.0218 -0.2163 -1.8029
  140MOL0     H18845   7.761   5.238  10.960 -0.0790  1.3931  0.9388
  140MOL0     H18846   7.604   5.307  10.903 -1.3072 -2.2324 -1.4808
  140MOL0     H18847   7.670   5.107  11.100  0.6754 -1.0590 -1.8989
  140MOL0     H18848   7.552   5.037  10.992 -2.7068  1.9417 -3.4638
  140MOL0     H18849   7.407   5.233  11.006 -0.5967 -0.8872  0.5948
  140MOL0     H18850   7.421   5.126  11.148  0.3457 -0.8193 -1.6676
  140MOL0     H18851   7.310   5.352  11.263  0.7788 -1.8356 -0.6792
  140MOL0     H18852   7.291   5.591  11.369  0.3812  2.1098  0.5967
  140MOL0     H18853   7.424   5.602  11.482 -0.3685 -2.2811  0.0317
  140MOL0     H18854   7.515   5.788  11.359 -1.5464  1.1306  0.5963
  140MOL0     H18855   7.456   5.745  11.205  1.1311 -0.2993  0.2537
  140MOL0     H18856   7.330   5.957  11.349  0.0460 -0.5672  2.6693
  140MOL0     H18857   7.248   5.812  11.413  1.5864 -3.3634 -0.9710
  140MOL0     H18858   7.202   5.741  11.177 -0.1753  0.4762 -1.8270
  140MOL0     H18859   7.276   5.886  11.124  2.1950 -0.6957  1.9871
  140MOL0     H18860   6.857   6.035  11.217 -0.6958  1.0693 -1.6513
  140MOL0     H18861   6.681   5.959  11.067  0.4499 -1.9159  2.8848
  140MOL0     H18862   6.495   5.661  10.733 -0.9012  0.5256  0.4479
  140MOL0     H18863   6.371   5.586  10.557  0.0534  0.9968  3.2412
  140MOL0     H18864   6.251   5.615  10.374 -1.0391  2.7703 -1.5438
  140MOL0     H18865   6.311   5.750  10.282  3.3630  1.2260  2.0564
  140MOL0     H18866   6.278   5.628  10.080  0.7240  1.2992  1.6419
  140MOL0     H18867   6.237   5.478  10.173  0.0337 -0.2668 -1.2265
  140MOL0     H18868   6.046   5.597  10.286 -3.0184  2.2902 -1.7085
  140MOL0     H18869   6.071   5.732  10.192 -2.2925  1.0801  1.7163
  140MOL0     H18870   6.012   5.461  10.078  1.0468  0.6859  3.4852
  140MOL0     H18871   6.041   5.607   9.980 -1.6448 -0.1131 -1.2297
  140MOL0     H18872   5.843   5.713  10.054 -0.8457 -0.8466 -2.6085
  140MOL0     H18873   5.796   5.600  10.175 -1.7821  2.1907 -0.8389
  140MOL0     H18874   5.678   5.602   9.964  2.2072  3.1406 -0.4431
  140MOL0     H18875   5.838   5.587   9.884 -0.7435  2.5333 -1.6410
  140MOL0     H18876   5.738   5.359  10.052  0.7331 -1.8448 -0.2184
  140MOL0     H18877   5.858   5.346   9.936 -1.1214 -0.2934 -0.0821
  140MOL0     H18878   5.684   5.352   9.762  2.8006 -0.7605  1.2802
  140MOL0     H18879   5.651   5.241   9.890 -1.8386 -0.9550 -4.0277
  140MOL0     H18880   6.661   5.701  10.267 -0.6245  0.9447  0.3619
  140MOL0     H18881   6.818   5.776  10.439  0.4910 -0.8356 -2.2176
  140MOL0     H18882   6.988   5.796  10.804 -0.3410 -0.2294  1.3485
  140MOL0     H18883   7.139   5.815  10.977  0.9368  1.2523  1.7257
  140MOL0     H18884   8.335   5.185  10.840  0.9799 -0.6905 -0.9183
  140MOL0     H18885   8.529   5.309  10.927  0.2199  1.5905  0.5788
  140MOL0     H18886   8.845   5.694  10.789  1.5615  2.1307  0.0629
  140MOL0     H18887   9.046   5.759  10.879 -0.0614 -0.3703  1.3110
  140MOL0     H18888   9.235   5.790  10.939  2.3286  0.2903 -0.5903
  140MOL0     H18889   9.333   5.713  11.045  0.6714  0.4437 -0.0335
  140MOL0     H18890   9.189   5.969  11.133 -1.5584 -1.3772 -1.0699
  140MOL0     H18891   9.338   5.984  11.040 -1.4503  0.8236 -0.3453
  140MOL0     H18892   9.387   6.019  11.278 -2.9913  2.2665 -1.9880
  140MOL0     H18893   9.461   5.873  11.223 -1.0014 -1.3443  2.0437
  140MOL0     H18894   9.268   5.737  11.330 -2.2980 -0.2952  1.0725
  140MOL0     H18895   9.366   5.837  11.428 -0.5466  3.8839  1.6113
  140MOL0     H18896   8.997   6.074  11.427  2.7363  2.4230  1.1462
  140MOL0     H18897   8.940   5.630  11.267 -0.1172  1.1728 -0.1822
  140MOL0     H18898   8.749   5.532  11.315  0.6267 -2.4665 -0.0039
  140MOL0     H18899   8.610   5.613  11.243  1.8926  0.9683  0.3058
  140MOL0     H18900   8.672   5.442  11.192  1.9833 -0.1510 -0.2210
  141MOL0     O18901   8.506   2.991   7.168  0.3324 -0.4623  0.1538
  141MOL0     C18902   8.425   3.016   7.255  0.7506 -0.1561  0.2863
  141MOL0     O18903   8.361   3.126   7.260  0.5554  0.1116 -0.4776
  141MOL0     C18904   8.417   3.228   7.193  0.3118 -0.2537  0.6235
  141MOL0     C18905   8.392   3.251   7.056  0.2599 -0.5853 -0.4721
  141MOL0     C18906   8.431   3.376   6.993 -0.7480 -0.1149  0.2362
  141MOL0     C18907   8.508   3.465   7.068  0.2208 -0.9144 -0.1360
  141MOL0     O18908   8.537   3.594   7.029 -1.0676  0.3131 -0.3114
  141MOL0     C18909   8.429   3.690   7.047 -0.9069 -0.1878 -0.1670
  141MOL0     C18910   8.417   3.755   6.913 -0.6767  0.0262 -0.7821
  141MOL0     C18911   8.524   3.859   6.887  0.0937 -0.1995  0.1285
  141MOL0     C18912   8.477   3.941   6.766 -0.4711 -0.4350  0.9456
  141MOL0     C18913   8.564   4.068   6.731  1.1033  0.1275  0.3441
  141MOL0     C18914   8.617   4.150   6.847 -0.0742 -0.1605 -0.4153
  141MOL0     C18915   8.671   4.291   6.814 -0.1333  0.3632 -0.2815
  141MOL0     C18916   8.805   4.269   6.739 -1.0243 -0.0070  0.2515
  141MOL0     N18917   8.836   4.389   6.659 -0.0316  0.1496 -0.4456
  141MOL0     C18918   8.758   4.458   6.570  0.5290  1.8219 -0.7639
  141MOL0     C18919   8.849   4.541   6.506 -0.1870 -0.8056  0.1859
  141MOL0     C18920   8.835   4.639   6.389 -0.7405  0.1452  0.6279
  141MOL0     C18921   8.722   4.600   6.286 -0.0784 -0.2990 -0.1228
  141MOL0     C18922   8.770   4.505   6.173 -0.1065  0.5324  0.4551
  141MOL0     C18923   8.826   4.373   6.230  0.5771  0.7365  1.0771
  141MOL0     O18924   8.867   4.282   6.123 -0.3536  0.1262 -0.9993
  141MOL0     C18925   8.985   4.318   6.067  0.7236 -0.6459 -0.1441
  141MOL0     C18926   9.090   4.372   6.143 -0.2185  0.3470  0.2587
  141MOL0     C18927   9.211   4.407   6.080 -0.5700  0.5799  0.4004
  141MOL0     C18928   9.224   4.403   5.933  0.5105  0.1642  0.3936
  141MOL0     C18929   9.348   4.449   5.869  0.2554 -0.6873 -0.1084
  141MOL0     O18930   9.455   4.461   5.943  0.5434  0.0253 -0.0089
  141MOL0     C18931   9.577   4.509   5.908  0.6663  0.0241 -0.7637
  141MOL0     C18932   9.632   4.542   5.784 -0.1712 -0.0564 -0.3648
  141MOL0     C18933   9.763   4.594   5.773  0.9296  0.0623  0.0268
  141MOL0     C18934   9.840   4.614   5.892  0.1630 -0.1745 -0.0181
  141MOL0     O18935   9.974   4.656   5.877 -0.4332 -0.5355  0.0550
  141MOL0     C18936  10.049   4.691   5.989  0.0497  0.3823 -1.0152
  141MOL0     C18937  10.184   4.739   5.939  0.0335 -0.3869  0.2262
  141MOL0     C18938  10.201   4.872   5.862 -0.9587  0.0125 -0.5839
  141MOL0     C18939  10.341   4.915   5.858 -1.1635 -1.1032  0.2226
  141MOL0     C18940  10.351   5.059   5.804  0.2297 -0.1292 -0.0866
  141MOL0     C18941  10.489   5.111   5.785 -0.4404 -0.0810  1.1748
  141MOL0     C18942  10.491   5.257   5.735  1.1411 -0.7248  0.8435
  141MOL0     C18943  10.645   5.285   5.710 -0.4299 -0.1402  0.8122
  141MOL0    Cl18944  10.746   5.255   5.859 -0.3280 -0.6155  0.5503
  141MOL0     C18945   9.779   4.595   6.018  0.4682 -0.6724  0.3402
  141MOL0     C18946   9.651   4.536   6.021  0.7538 -0.4022 -0.8259
  141MOL0     O18947   9.342   4.472   5.746  0.2120 -0.2200  0.0015
  141MOL0     C18948   9.115   4.342   5.864  0.0634 -0.4899 -0.1291
  141MOL0     C18949   8.991   4.303   5.930 -0.3612 -1.1190 -0.3822
  141MOL0     N18950   8.965   4.526   6.577  0.4373  0.7762 -0.1956
  141MOL0     N18951   8.959   4.438   6.672  0.8234  0.0933  1.1210
  141MOL0     C18952   8.537   3.441   7.203  0.2375  0.4293  0.1949
  141MOL0     C18953   8.487   3.322   7.263 -0.6764  0.2907 -0.5484
  141MOL0     C18954   8.362   2.907   7.330  1.8519  1.6200 -0.4347
  141MOL0     C18955   8.219   2.916   7.345 -0.2375  0.8910 -0.0135
  141MOL0     C18956   8.147   2.822   7.424 -0.1822  0.5411  1.4867
  141MOL0     C18957   8.211   2.722   7.490  0.6049 -0.0536 -0.2097
  141MOL0     O18958   8.153   2.652   7.589  0.7826  0.0490 -0.0315
  141MOL0     C18959   8.050   2.562   7.539 -0.5761 -0.0663 -0.8802
  141MOL0     C18960   8.129   2.449   7.465 -0.2550 -0.0003  0.2065
  141MOL0     C18961   8.037   2.330   7.455 -0.3209  0.1388 -0.6870
  141MOL0     C18962   7.888   2.365   7.426 -1.3911  0.2821  0.0080
  141MOL0     C18963   7.838   2.255   7.343  0.1605 -0.5311 -0.5195
  141MOL0     C18964   7.777   2.167   7.285 -0.5919  0.3042 -0.4557
  141MOL0     C18965   8.352   2.718   7.471 -0.8739  0.0319 -0.1730
  141MOL0     C18966   8.432   2.807   7.404  0.5636  0.4573  0.3595
  141MOL0     C18967   8.575   2.795   7.397  0.3028  0.2502  0.1047
  141MOL0     H18968   8.339   3.171   7.004 -0.6322 -1.0700  1.1137
  141MOL0     H18969   8.403   3.391   6.889  1.7782 -1.1969 -0.6689
  141MOL0     H18970   8.339   3.640   7.085 -2.2193  2.5980  0.6367
  141MOL0     H18971   8.453   3.769   7.119  1.8144  0.1892 -1.3637
  141MOL0     H18972   8.319   3.801   6.894  0.3966  1.9861 -1.9832
  141MOL0     H18973   8.431   3.679   6.836  1.3194 -0.8689  0.3737
  141MOL0     H18974   8.624   3.817   6.876 -1.1321 -2.9828 -1.4045
  141MOL0     H18975   8.535   3.913   6.982  3.0400 -2.3615  1.1416
  141MOL0     H18976   8.466   3.885   6.673  2.0102 -0.0359  0.3400
  141MOL0     H18977   8.381   3.984   6.796 -1.0567  1.7613 -3.3218
  141MOL0     H18978   8.651   4.035   6.673  1.3531  1.4555 -0.0674
  141MOL0     H18979   8.519   4.130   6.653 -0.2472 -0.4271  0.6521
  141MOL0     H18980   8.529   4.161   6.911  0.1792  0.9866 -0.2517
  141MOL0     H18981   8.691   4.085   6.894 -0.3106 -0.2988 -0.2282
  141MOL0     H18982   8.681   4.345   6.908  0.7938 -0.3999  0.0867
  141MOL0     H18983   8.593   4.339   6.755 -1.7807 -0.9467  0.7379
  141MOL0     H18984   8.897   4.257   6.798 -1.4498  6.3882  3.0926
  141MOL0     H18985   8.792   4.195   6.659 -0.3617  0.5193 -0.3572
  141MOL0     H18986   8.658   4.435   6.536  0.3676 -2.5181  1.8388
  141MOL0     H18987   8.808   4.742   6.416  0.8436  1.3186 -1.8593
  141MOL0     H18988   8.927   4.649   6.331 -1.9184 -1.8029 -1.7669
  141MOL0     H18989   8.633   4.567   6.340  0.3590  2.7468  2.8126
  141MOL0     H18990   8.693   4.695   6.241  1.9955 -0.2390 -1.4837
  141MOL0     H18991   8.852   4.544   6.111 -0.2620 -3.0229 -2.2845
  141MOL0     H18992   8.688   4.495   6.102 -1.6513  1.6253  1.9752
  141MOL0     H18993   8.744   4.319   6.279  1.0809 -1.2258 -0.1193
  141MOL0     H18994   8.897   4.395   6.310  1.7671 -1.0436  0.5756
  141MOL0     H18995   9.091   4.386   6.251  2.8682 -2.1500  0.6905
  141MOL0     H18996   9.297   4.447   6.132  0.3131 -1.4162  0.5541
  141MOL0     H18997   9.577   4.535   5.691  2.0700 -2.3777 -1.6101
  141MOL0     H18998   9.802   4.634   5.679  1.2140  1.3597  0.6797
  141MOL0     H18999  10.009   4.775   6.048  2.4082 -0.4182  1.9691
  141MOL0     H19000  10.074   4.616   6.064  1.7969  1.3232 -0.5887
  141MOL0     H19001  10.237   4.764   6.032  1.7676  0.2438 -0.8834
  141MOL0     H19002  10.232   4.654   5.890  0.2527 -1.1100  1.6346
  141MOL0     H19003  10.168   4.864   5.758  0.8160  2.0760 -1.3842
  141MOL0     H19004  10.145   4.948   5.918 -0.6528 -1.0565  1.2364
  141MOL0     H19005  10.414   4.849   5.808  3.5373  2.1145  2.1648
  141MOL0     H19006  10.373   4.934   5.960 -0.1606 -2.8206  0.2656
  141MOL0     H19007  10.292   5.135   5.855 -0.4705 -0.2555 -0.6975
  141MOL0     H19008  10.294   5.058   5.711 -1.2375 -5.3003  0.5684
  141MOL0     H19009  10.554   5.077   5.866 -1.3827  1.1407  2.4739
  141MOL0     H19010  10.522   5.056   5.696 -1.4352  0.6765  0.3076
  141MOL0     H19011  10.454   5.321   5.815  2.7009 -2.4535  3.0994
  141MOL0     H19012  10.426   5.250   5.647  1.3600 -2.0358  0.7590
  141MOL0     H19013  10.673   5.244   5.613  2.3731  3.4416 -0.1200
  141MOL0     H19014  10.647   5.392   5.688 -0.9935 -0.4074 -0.6350
  141MOL0     H19015   9.814   4.622   6.118 -1.0847  0.4495  0.6195
  141MOL0     H19016   9.608   4.527   6.120  3.4883  1.5575  0.6692
  141MOL0     H19017   9.112   4.326   5.757 -1.4431 -0.0540 -0.1768
  141MOL0     H19018   8.903   4.275   5.873 -0.6054  4.3772 -3.4350
  141MOL0     H19019   8.597   3.503   7.269  1.8216 -1.1306  0.2914
  141MOL0     H19020   8.496   3.306   7.370 -3.5765 -0.1561 -0.3051
  141MOL0     H19021   8.168   2.999   7.296 -1.4321 -0.6972 -1.5594
  141MOL0     H19022   8.041   2.833   7.444 -0.3432 -1.0322  1.5917
  141MOL0     H19023   7.981   2.614   7.473  0.0314  3.7527  1.1729
  141MOL0     H19024   8.002   2.516   7.625 -0.1315 -0.4437 -0.8294
  141MOL0     H19025   8.218   2.412   7.515  0.4372  1.2992 -0.0356
  141MOL0     H19026   8.163   2.486   7.368 -1.9697 -1.4845 -1.0370
  141MOL0     H19027   8.038   2.267   7.544 -1.4213  0.0323 -0.7373
  141MOL0     H19028   8.072   2.272   7.369  1.4355  0.5735 -0.3126
  141MOL0     H19029   7.832   2.369   7.520  0.4862 -1.9407  1.3127
  141MOL0     H19030   7.883   2.457   7.367  1.7418  1.1823  0.9409
  141MOL0     H19031   7.737   2.080   7.237 -0.0745 -0.7460  0.9518
  141MOL0     H19032   8.420   2.644   7.512  1.6232  2.1802 -0.1779
  141MOL0     H19033   8.619   2.896   7.401  1.3205 -0.2102  3.6731
  141MOL0     H19034   8.597   2.748   7.493  1.9493  3.1545  1.2757
  141MOL0     H19035   8.603   2.728   7.316 -0.1336 -0.8971  0.8862
  142MOL0     O19036   0.929   8.389   8.314 -0.3511  0.3994  0.6439
  142MOL0     C19037   1.020   8.385   8.398  0.1341  0.5772 -0.3442
  142MOL0     O19038   1.126   8.310   8.380 -0.5699 -0.3282 -0.3603
  142MOL0     C19039   1.145   8.260   8.255 -0.1191  0.7510  1.0587
  142MOL0     C19040   1.148   8.126   8.237  0.2394 -0.8983  0.0117
  142MOL0     C19041   1.200   8.080   8.111 -0.8102 -0.3488  0.3186
  142MOL0     C19042   1.227   8.156   8.000 -0.2705 -0.7520 -0.0217
  142MOL0     O19043   1.258   8.094   7.886  0.2922  0.4085  0.6803
  142MOL0     C19044   1.310   8.172   7.777  0.1530  0.6068  0.0128
  142MOL0     C19045   1.356   8.090   7.658  1.0339  0.1212 -0.3208
  142MOL0     C19046   1.454   7.976   7.699 -0.2336 -0.0546  1.0736
  142MOL0     C19047   1.507   7.921   7.566  0.3808 -0.4866  1.1780
  142MOL0     C19048   1.641   7.858   7.585  0.1638  0.4224  0.8007
  142MOL0     C19049   1.686   7.792   7.455 -0.2645 -0.0397  0.8038
  142MOL0     C19050   1.835   7.766   7.463 -0.0113 -0.6645  0.4891
  142MOL0     C19051   1.925   7.892   7.470 -0.2222 -0.0749  0.2725
  142MOL0     N19052   2.062   7.878   7.507 -0.2366  0.4289 -0.0428
  142MOL0     C19053   2.160   7.821   7.431 -0.9908  0.5229 -0.1876
  142MOL0     C19054   2.272   7.839   7.516  1.0530 -0.6197 -0.5533
  142MOL0     C19055   2.418   7.799   7.503  0.5156  0.5029 -0.7486
  142MOL0     C19056   2.440   7.683   7.603  0.0163 -0.2342  0.4804
  142MOL0     C19057   2.577   7.680   7.668 -0.2905 -1.2430  0.6730
  142MOL0     C19058   2.609   7.557   7.757  0.1372  0.1790  1.2038
  142MOL0     O19059   2.624   7.437   7.667  0.4045 -0.3985  0.4411
  142MOL0     C19060   2.625   7.314   7.723  0.2559 -0.4008 -0.3933
  142MOL0     C19061   2.591   7.288   7.862  0.3272 -0.5929  1.2135
  142MOL0     C19062   2.580   7.160   7.915 -0.4885 -0.7507 -0.1439
  142MOL0     C19063   2.599   7.047   7.827  0.4435  0.1984 -0.4686
  142MOL0     C19064   2.582   6.905   7.879  0.0439  0.4207  0.1324
  142MOL0     O19065   2.577   6.897   8.021  0.2336 -0.1799  1.1427
  142MOL0     C19066   2.611   6.779   8.079 -0.1315  0.8567 -1.0680
  142MOL0     C19067   2.547   6.657   8.056 -0.1163  0.0124 -0.3333
  142MOL0     C19068   2.604   6.539   8.105 -0.4590 -0.4718  0.4994
  142MOL0     C19069   2.709   6.543   8.208  0.3699  0.0047  1.5483
  142MOL0     O19070   2.752   6.428   8.264  0.8066  0.1224 -0.3748
  142MOL0     C19071   2.892   6.401   8.285 -0.3494  1.0998 -0.2667
  142MOL0     C19072   2.913   6.256   8.340  0.6978 -0.9945  0.8835
  142MOL0     C19073   2.918   6.247   8.493 -0.3576  0.8274  0.0587
  142MOL0     C19074   3.055   6.287   8.551  0.2813 -1.0121  0.1315
  142MOL0     C19075   3.072   6.279   8.706  0.1008  0.9546  0.1757
  142MOL0     C19076   2.958   6.295   8.800  1.1170 -0.2186  0.0739
  142MOL0     C19077   2.915   6.440   8.795  0.1297 -1.2757 -0.8175
  142MOL0     C19078   2.804   6.478   8.889 -0.7153 -0.4772 -0.2097
  142MOL0    Cl19079   2.652   6.397   8.828  0.3672 -0.0178  0.2805
  142MOL0     C19080   2.768   6.662   8.228 -1.3006 -0.3257  0.7505
  142MOL0     C19081   2.717   6.780   8.167  0.7197 -0.6945 -0.0548
  142MOL0     O19082   2.573   6.810   7.798  0.0749 -0.6010 -0.3327
  142MOL0     C19083   2.634   7.074   7.697 -0.9966 -0.5821 -0.6760
  142MOL0     C19084   2.647   7.202   7.646 -0.5164 -0.0028  0.8350
  142MOL0     N19085   2.237   7.913   7.622 -0.1091 -0.2271  0.2476
  142MOL0     N19086   2.112   7.923   7.626  0.6326  0.2908  0.9842
  142MOL0     C19087   1.240   8.287   8.033 -0.3997 -1.1226 -0.8074
  142MOL0     C19088   1.191   8.340   8.157  0.5313  0.5082  0.2895
  142MOL0     C19089   0.993   8.447   8.530 -0.2153  0.3681 -0.0463
  142MOL0     C19090   0.859   8.460   8.559  0.0821 -0.1336  0.7683
  142MOL0     C19091   0.815   8.526   8.675 -0.1027  0.9963 -0.5119
  142MOL0     C19092   0.905   8.606   8.752 -0.4273  0.4595 -0.4976
  142MOL0     O19093   0.852   8.678   8.858  0.1939 -0.1162  0.2438
  142MOL0     C19094   0.940   8.765   8.927 -0.6602  0.0585 -0.1688
  142MOL0     C19095   0.875   8.820   9.052 -0.4597 -0.1923  0.6274
  142MOL0     C19096   0.819   8.709   9.137  0.6085 -0.0991  1.0757
  142MOL0     C19097   0.818   8.754   9.289  0.8718 -0.7771  0.0236
  142MOL0     C19098   0.760   8.893   9.307 -0.0537  0.4502  0.1726
  142MOL0     C19099   0.713   9.006   9.333  0.3682 -0.5380 -0.4822
  142MOL0     C19100   1.042   8.584   8.721  0.5919 -0.4655 -0.3512
  142MOL0     C19101   1.085   8.509   8.613 -0.8811 -0.5133  0.5589
  142MOL0     C19102   1.233   8.510   8.577 -0.9213 -0.4265  0.9248
  142MOL0     H19103   1.124   8.058   8.319 -0.2526 -3.5066 -2.1263
  142MOL0     H19104   1.213   7.974   8.092  1.3646  0.0844 -1.0669
  142MOL0     H19105   1.226   8.231   7.739  1.2257  2.0307 -0.2367
  142MOL0     H19106   1.391   8.237   7.812 -0.1309  1.2698 -0.5326
  142MOL0     H19107   1.391   8.154   7.576  1.5307  0.1925 -0.0619
  142MOL0     H19108   1.268   8.038   7.621 -0.1567  2.2691 -0.6770
  142MOL0     H19109   1.403   7.900   7.759  0.8006 -3.5921 -2.0542
  142MOL0     H19110   1.546   8.008   7.749  1.1039 -1.1332 -0.5566
  142MOL0     H19111   1.442   7.843   7.525  1.8456 -1.0250 -0.2408
  142MOL0     H19112   1.520   7.993   7.484 -0.2178 -1.7820 -0.1048
  142MOL0     H19113   1.711   7.934   7.619  3.9721 -2.1735 -0.5661
  142MOL0     H19114   1.623   7.778   7.657  1.0527 -2.6913 -2.1489
  142MOL0     H19115   1.639   7.693   7.448  0.3906 -0.3260  0.3000
  142MOL0     H19116   1.649   7.846   7.367 -2.3072 -2.6449 -0.0650
  142MOL0     H19117   1.874   7.710   7.378  0.2586  2.8617 -1.9096
  142MOL0     H19118   1.855   7.704   7.551  1.4836 -0.6226  0.2031
  142MOL0     H19119   1.921   7.939   7.372  0.9065 -0.0352  0.2389
  142MOL0     H19120   1.886   7.967   7.540  2.3936  2.3389 -0.6746
  142MOL0     H19121   2.163   7.780   7.330  3.5937 -1.3021  0.4894
  142MOL0     H19122   2.443   7.763   7.403  1.9932 -2.6426  0.5946
  142MOL0     H19123   2.478   7.884   7.538 -4.4368  3.2920  2.1542
  142MOL0     H19124   2.364   7.696   7.681 -0.6717 -1.0685 -0.0300
  142MOL0     H19125   2.418   7.586   7.557 -0.9659  0.2417 -0.1082
  142MOL0     H19126   2.598   7.769   7.727 -0.7667 -1.3136  0.9535
  142MOL0     H19127   2.659   7.692   7.597 -1.1687  0.8462 -0.0627
  142MOL0     H19128   2.526   7.528   7.822  0.3445 -2.0745  0.5517
  142MOL0     H19129   2.704   7.572   7.809  1.4003  2.0311 -1.4029
  142MOL0     H19130   2.569   7.357   7.943 -3.0368 -2.3520  1.9968
  142MOL0     H19131   2.555   7.142   8.019 -1.1225 -2.1943 -0.5170
  142MOL0     H19132   2.465   6.654   7.985 -0.4293 -4.3214 -0.0863
  142MOL0     H19133   2.569   6.437   8.095 -1.0772 -0.2428  0.2764
  142MOL0     H19134   2.952   6.385   8.195  3.4198  0.9595  2.0451
  142MOL0     H19135   2.949   6.467   8.351 -0.9498 -0.6025  2.0571
  142MOL0     H19136   2.824   6.202   8.305  0.3120  1.0280 -1.6336
  142MOL0     H19137   2.997   6.202   8.296 -0.5393 -1.8598 -0.5190
  142MOL0     H19138   2.832   6.302   8.532 -2.0393 -1.6755  0.1479
  142MOL0     H19139   2.909   6.140   8.517  1.8890  0.3975 -0.7397
  142MOL0     H19140   3.080   6.381   8.502 -4.9211 -0.3872 -1.9616
  142MOL0     H19141   3.125   6.213   8.511  1.0924 -0.2469  0.1273
  142MOL0     H19142   3.150   6.350   8.736  2.7499 -1.1797 -1.1166
  142MOL0     H19143   3.132   6.190   8.729  1.9563  1.6137 -1.7711
  142MOL0     H19144   2.887   6.221   8.762  0.6551 -0.0966  0.6786
  142MOL0     H19145   2.969   6.277   8.907 -1.8323 -1.5974  0.2630
  142MOL0     H19146   2.871   6.482   8.704  1.8488  0.5231 -0.8948
  142MOL0     H19147   3.001   6.504   8.820 -0.5495 -1.2968  2.0035
  142MOL0     H19148   2.824   6.448   8.992  3.3633  0.7505 -0.4433
  142MOL0     H19149   2.802   6.588   8.894  0.1030 -0.4354 -0.6051
  142MOL0     H19150   2.860   6.659   8.286  0.7372 -0.7094 -2.3097
  142MOL0     H19151   2.763   6.876   8.186 -2.9327  0.7633  2.5581
  142MOL0     H19152   2.657   6.995   7.627  1.0283 -1.7200  1.1658
  142MOL0     H19153   2.673   7.213   7.542  3.4239 -0.4375  1.5977
  142MOL0     H19154   1.287   8.348   7.956  1.5234 -1.0617  0.3508
  142MOL0     H19155   1.194   8.448   8.165  3.4005  0.6632 -1.4960
  142MOL0     H19156   0.780   8.434   8.489  1.2907  0.5658 -0.9308
  142MOL0     H19157   0.711   8.535   8.705 -0.8121 -2.1155 -1.6843
  142MOL0     H19158   0.958   8.847   8.856  1.8691 -1.0213 -0.8920
  142MOL0     H19159   1.038   8.733   8.964 -1.8057  0.5887  3.6708
  142MOL0     H19160   0.804   8.894   9.014  1.9081  2.2776  0.6457
  142MOL0     H19161   0.960   8.872   9.098 -0.1694  0.0860 -0.2081
  142MOL0     H19162   0.872   8.615   9.118 -3.2318 -3.2382  3.8684
  142MOL0     H19163   0.715   8.697   9.105 -0.1988  2.9739  2.2224
  142MOL0     H19164   0.760   8.688   9.354 -0.4086  2.1204  2.0365
  142MOL0     H19165   0.921   8.757   9.325  0.1676 -0.5066  2.1818
  142MOL0     H19166   0.664   9.099   9.353 -3.6602 -2.4150 -0.7035
  142MOL0     H19167   1.118   8.644   8.770  1.8615  1.4800 -4.2746
  142MOL0     H19168   1.258   8.406   8.558 -0.2441 -0.2372  0.7625
  142MOL0     H19169   1.262   8.566   8.487  2.5439 -1.2701  1.4099
  142MOL0     H19170   1.297   8.540   8.660 -2.2268 -0.6961  2.0650
  143MOL0     O19171   0.349   1.581   5.160 -0.5560  0.8011 -0.6510
  143MOL0     C19172   0.396   1.691   5.178  0.2450 -0.1005 -0.1895
  143MOL0     O19173   0.336   1.798   5.234  0.5400 -0.3470 -0.1307
  143MOL0     C19174   0.210   1.794   5.295 -0.4074 -0.1252 -0.1135
  143MOL0     C19175   0.113   1.893   5.274 -0.1831 -0.0780  0.5251
  143MOL0     C19176  -0.013   1.900   5.333 -0.1611 -0.2948 -0.0158
  143MOL0     C19177  -0.054   1.780   5.414  0.1759 -0.8202 -0.6010
  143MOL0     O19178  -0.174   1.768   5.474  0.1135  1.0449 -0.3778
  143MOL0     C19179  -0.285   1.791   5.379  0.1364  0.2036 -0.1792
  143MOL0     C19180  -0.394   1.874   5.457  0.0272 -0.2251  0.4499
  143MOL0     C19181  -0.339   2.004   5.514 -0.3639 -0.0386 -0.4845
  143MOL0     C19182  -0.441   2.065   5.613  0.7046  0.5357  0.0221
  143MOL0     C19183  -0.387   2.194   5.675 -0.1460  0.4598 -1.0840
  143MOL0     C19184  -0.405   2.314   5.570  0.3418  0.1017  0.1454
  143MOL0     C19185  -0.357   2.451   5.608 -0.6545  0.4707 -0.1645
  143MOL0     C19186  -0.442   2.533   5.712 -0.3846  0.2944  0.3435
  143MOL0     N19187  -0.559   2.584   5.659 -0.2324  0.0351  0.1891
  143MOL0     C19188  -0.684   2.519   5.678  0.4479  0.4696 -0.8461
  143MOL0     C19189  -0.770   2.603   5.619  0.4568  1.6603  0.2295
  143MOL0     C19190  -0.918   2.584   5.596  0.2014 -0.1929 -0.7132
  143MOL0     C19191  -0.956   2.436   5.570  0.0829  0.5827  0.7287
  143MOL0     C19192  -1.084   2.429   5.486  0.2769 -0.1993  0.5009
  143MOL0     C19193  -1.200   2.487   5.559 -0.0348 -0.0728  0.3383
  143MOL0     O19194  -1.254   2.396   5.653  0.1093  0.4093 -0.4561
  143MOL0     C19195  -1.366   2.433   5.723 -0.5945 -0.9448  0.0363
  143MOL0     C19196  -1.428   2.562   5.718  0.5573  0.3139  0.4141
  143MOL0     C19197  -1.541   2.592   5.804 -0.1383 -0.0883 -0.1413
  143MOL0     C19198  -1.590   2.498   5.900  0.4107  0.3181  0.4870
  143MOL0     C19199  -1.712   2.531   5.980 -0.6708 -0.4840 -0.4480
  143MOL0     O19200  -1.775   2.650   5.956 -1.0919 -0.3562  0.3657
  143MOL0     C19201  -1.883   2.668   6.031 -0.6494 -0.4649 -0.1537
  143MOL0     C19202  -1.992   2.585   6.026  0.6961  0.3243  0.3952
  143MOL0     C19203  -2.099   2.610   6.111  0.2840 -0.2825  0.1355
  143MOL0     C19204  -2.107   2.738   6.178  0.2662  0.4113 -0.4863
  143MOL0     O19205  -2.216   2.780   6.257 -0.5977  0.6471  0.9052
  143MOL0     C19206  -2.329   2.690   6.284  0.7980 -0.5173 -0.1641
  143MOL0     C19207  -2.466   2.722   6.228  1.0832  0.2954  0.7660
  143MOL0     C19208  -2.555   2.601   6.227 -0.1809 -1.2409  0.2820
  143MOL0     C19209  -2.594   2.552   6.366 -0.5566 -0.0478 -0.6950
  143MOL0     C19210  -2.666   2.420   6.369  0.0158 -0.8928 -0.3133
  143MOL0     C19211  -2.817   2.418   6.363 -0.3671 -0.3311 -0.1462
  143MOL0     C19212  -2.863   2.266   6.341 -0.4378  0.0505  0.6256
  143MOL0     C19213  -2.993   2.251   6.257 -0.1085 -0.6323 -0.2159
  143MOL0    Cl19214  -2.952   2.230   6.080  0.5308  0.1310 -0.2083
  143MOL0     C19215  -2.000   2.827   6.181 -0.6063  0.4745  0.3355
  143MOL0     C19216  -1.887   2.788   6.113 -0.1788 -0.0714 -0.5938
  143MOL0     O19217  -1.728   2.466   6.085  0.2698  0.6297 -0.2375
  143MOL0     C19218  -1.522   2.374   5.908 -0.4502  0.1941  0.2452
  143MOL0     C19219  -1.410   2.352   5.829  0.2518 -0.2075  0.2305
  143MOL0     N19220  -0.710   2.723   5.576  0.4678  0.4485 -0.8311
  143MOL0     N19221  -0.586   2.707   5.611  0.5189 -0.4621 -0.5166
  143MOL0     C19222   0.040   1.676   5.434 -0.1986  0.1268 -0.7212
  143MOL0     C19223   0.167   1.683   5.370 -0.0066  0.3179 -1.5129
  143MOL0     C19224   0.541   1.695   5.126 -0.0772  0.7649  0.2724
  143MOL0     C19225   0.623   1.575   5.131  0.3815 -0.0902  0.3061
  143MOL0     C19226   0.750   1.555   5.073  1.0828 -0.9781 -0.0707
  143MOL0     C19227   0.810   1.674   5.022  0.4869 -0.2611 -0.2398
  143MOL0     O19228   0.939   1.661   4.975  1.1286 -0.6227 -0.0448
  143MOL0     C19229   1.026   1.751   5.034 -0.7403 -0.7537 -0.2105
  143MOL0     C19230   1.158   1.674   5.080 -0.4107  0.5618  0.3220
  143MOL0     C19231   1.254   1.636   4.962 -0.7057  0.2610  0.4418
  143MOL0     C19232   1.391   1.628   5.011  0.6276 -0.1621 -0.4147
  143MOL0     C19233   1.495   1.600   4.920  0.1739 -0.0185 -0.8929
  143MOL0     C19234   1.595   1.573   4.853  0.4263 -0.3471  0.9307
  143MOL0     C19235   0.740   1.798   5.026  0.1727 -0.2178 -0.4380
  143MOL0     C19236   0.607   1.808   5.074 -0.2073 -0.7616  0.8206
  143MOL0     C19237   0.539   1.941   5.075 -0.4462  0.4309  0.7916
  143MOL0     H19238   0.156   1.975   5.217  2.0775 -1.6022 -0.1119
  143MOL0     H19239  -0.087   1.979   5.324 -0.5019 -0.5157  0.7586
  143MOL0     H19240  -0.249   1.837   5.287  2.0610 -2.1513 -0.7296
  143MOL0     H19241  -0.333   1.698   5.347  0.4540 -1.1821  3.0271
  143MOL0     H19242  -0.439   1.807   5.530 -1.0268 -2.3470 -2.0054
  143MOL0     H19243  -0.473   1.897   5.385 -0.9963 -0.2108  1.5461
  143MOL0     H19244  -0.322   2.073   5.431 -0.0284  0.3295 -0.1132
  143MOL0     H19245  -0.248   1.985   5.572 -1.5506 -0.2628  1.4123
  143MOL0     H19246  -0.534   2.095   5.564  0.8182 -1.4282 -1.5145
  143MOL0     H19247  -0.447   1.995   5.696  2.2944  0.0201 -0.2680
  143MOL0     H19248  -0.454   2.205   5.761  2.6060 -2.6615  1.7584
  143MOL0     H19249  -0.285   2.201   5.714  1.0529 -0.8604 -3.7254
  143MOL0     H19250  -0.358   2.290   5.474 -3.1014  1.4086 -2.0204
  143MOL0     H19251  -0.509   2.310   5.537  0.6975  1.8785 -1.3040
  143MOL0     H19252  -0.354   2.509   5.516 -0.6707  2.7316  1.1718
  143MOL0     H19253  -0.253   2.432   5.637 -0.5722 -1.9586 -1.7402
  143MOL0     H19254  -0.457   2.472   5.802 -1.6008  0.9617  0.6165
  143MOL0     H19255  -0.381   2.617   5.745  0.1009 -0.6518  1.9638
  143MOL0     H19256  -0.714   2.438   5.743  1.3099  2.4175  2.1917
  143MOL0     H19257  -0.961   2.613   5.692 -1.0507 -0.0283 -1.2943
  143MOL0     H19258  -0.959   2.655   5.524 -2.8778 -2.5817 -1.5693
  143MOL0     H19259  -0.881   2.387   5.507 -0.0843  0.2843  0.7609
  143MOL0     H19260  -0.962   2.380   5.664 -0.2199 -2.2508 -0.8619
  143MOL0     H19261  -1.112   2.326   5.463  0.1437 -0.6194  2.3864
  143MOL0     H19262  -1.079   2.482   5.390 -2.0341  2.1794  1.5681
  143MOL0     H19263  -1.278   2.501   5.484  1.9828 -0.5919 -1.9862
  143MOL0     H19264  -1.177   2.587   5.598  0.9999  1.0993 -2.9710
  143MOL0     H19265  -1.395   2.633   5.643 -3.1469  0.8045 -0.9689
  143MOL0     H19266  -1.605   2.672   5.770  0.4828 -0.4087 -2.1730
  143MOL0     H19267  -1.993   2.496   5.964 -0.8772  2.6339 -3.2123
  143MOL0     H19268  -2.191   2.554   6.119  0.3743 -0.5667 -0.7217
  143MOL0     H19269  -2.314   2.582   6.295  0.0594 -0.3725  3.3304
  143MOL0     H19270  -2.340   2.705   6.392 -1.8083  2.7809 -0.7246
  143MOL0     H19271  -2.506   2.803   6.290 -0.3879 -0.8926  1.4398
  143MOL0     H19272  -2.461   2.767   6.128 -1.1074  0.6227  0.7506
  143MOL0     H19273  -2.645   2.629   6.172 -0.8321 -0.8864  1.4978
  143MOL0     H19274  -2.498   2.532   6.164  1.6778  1.3546 -1.0875
  143MOL0     H19275  -2.651   2.626   6.422 -3.0923  0.0302 -3.1594
  143MOL0     H19276  -2.516   2.525   6.438 -0.5324 -1.4693 -1.2307
  143MOL0     H19277  -2.635   2.354   6.450  0.6752 -0.7311 -0.4304
  143MOL0     H19278  -2.635   2.377   6.273  0.4657  3.0266 -2.1682
  143MOL0     H19279  -2.865   2.459   6.452  1.4133 -0.9133  1.1567
  143MOL0     H19280  -2.841   2.481   6.277  1.6689  0.5445 -0.1289
  143MOL0     H19281  -2.874   2.225   6.442 -1.5337  1.4797  1.1208
  143MOL0     H19282  -2.794   2.200   6.288 -0.8654  0.4330 -0.4351
  143MOL0     H19283  -3.042   2.160   6.293  1.3581 -1.7991 -1.0625
  143MOL0     H19284  -3.061   2.335   6.275  0.3995 -0.6900  2.2321
  143MOL0     H19285  -2.002   2.917   6.243 -2.6377  0.3227  0.5674
  143MOL0     H19286  -1.813   2.867   6.113 -1.9269  1.6611  0.5906
  143MOL0     H19287  -1.556   2.311   5.990 -0.9563 -2.1898 -1.6700
  143MOL0     H19288  -1.358   2.258   5.843  0.4580 -0.1005  0.1899
  143MOL0     H19289   0.023   1.581   5.484 -1.2802 -0.2935 -1.8485
  143MOL0     H19290   0.220   1.592   5.395  0.2351  1.4345  2.8772
  143MOL0     H19291   0.578   1.481   5.162  0.2358 -0.3208 -0.5819
  143MOL0     H19292   0.794   1.456   5.077  3.3005 -0.0475  0.3973
  143MOL0     H19293   0.989   1.803   5.123  1.6886  3.0750 -1.1928
  143MOL0     H19294   1.050   1.821   4.954 -2.5515 -0.4370 -0.5163
  143MOL0     H19295   1.127   1.587   5.139 -0.0581  0.2443  0.0412
  143MOL0     H19296   1.211   1.741   5.147 -0.1968  1.1297 -0.4086
  143MOL0     H19297   1.246   1.708   4.881 -3.4161  0.6390  0.9447
  143MOL0     H19298   1.236   1.537   4.919  1.6035  0.4266 -1.0775
  143MOL0     H19299   1.413   1.722   5.064 -0.1828 -0.6441  0.8418
  143MOL0     H19300   1.389   1.540   5.076 -2.4411 -0.4222 -0.7311
  143MOL0     H19301   1.670   1.535   4.787 -1.0966 -3.8826  1.0211
  143MOL0     H19302   0.805   1.879   4.993  2.2679 -0.5826  2.4046
  143MOL0     H19303   0.444   1.935   5.022 -0.0417 -1.9613  0.1800
  143MOL0     H19304   0.522   1.959   5.181 -3.1621 -1.3672  0.7689
  143MOL0     H19305   0.607   2.013   5.029  0.3129 -0.4154  0.5367
  144MOL0     O19306   4.243   3.088   7.712  0.1658  0.2179 -0.8617
  144MOL0     C19307   4.175   3.183   7.668 -0.3242 -1.2059  0.3836
  144MOL0     O19308   4.218   3.304   7.643 -0.3123 -0.4488  0.4357
  144MOL0     C19309   4.317   3.356   7.711 -0.0850 -0.1075 -1.1351
  144MOL0     C19310   4.449   3.347   7.669 -0.5564 -0.2065  0.0642
  144MOL0     C19311   4.556   3.385   7.747  0.9824 -0.4143  0.3144
  144MOL0     C19312   4.530   3.479   7.853 -0.4935  0.2050  0.1443
  144MOL0     O19313   4.624   3.526   7.935  0.2724  0.1778  0.0936
  144MOL0     C19314   4.736   3.605   7.889  0.5009  0.1004  0.4072
  144MOL0     C19315   4.862   3.557   7.945 -0.3622  0.5936  0.7337
  144MOL0     C19316   4.898   3.607   8.088 -0.6628 -0.0324 -0.6334
  144MOL0     C19317   5.008   3.533   8.172 -0.7929  0.5238 -0.1842
  144MOL0     C19318   5.005   3.565   8.325  0.2897 -0.3584  0.0928
  144MOL0     C19319   5.093   3.464   8.402 -0.4147  0.7961 -1.7754
  144MOL0     C19320   5.076   3.474   8.548 -0.6572  0.1580 -1.0102
  144MOL0     C19321   5.128   3.599   8.615  0.3153  0.4460 -0.1770
  144MOL0     N19322   5.145   3.585   8.754 -0.7595  0.6430  0.6546
  144MOL0     C19323   5.260   3.631   8.807 -0.1226 -1.1747 -0.3605
  144MOL0     C19324   5.258   3.571   8.930  0.2184 -0.0943  0.9722
  144MOL0     C19325   5.354   3.581   9.051 -0.0313  0.2275 -0.8337
  144MOL0     C19326   5.454   3.462   9.039 -0.3206  0.0949  0.7652
  144MOL0     C19327   5.401   3.322   9.077 -0.5238 -0.1229 -0.2055
  144MOL0     C19328   5.500   3.201   9.076 -0.6044  0.1529 -0.1229
  144MOL0     O19329   5.561   3.202   8.941  0.4299 -0.1601  0.3250
  144MOL0     C19330   5.655   3.116   8.900  0.2667  0.4577  0.5320
  144MOL0     C19331   5.657   3.087   8.770  0.4220  0.3120 -0.1198
  144MOL0     C19332   5.761   3.009   8.708 -0.1750 -0.2356  0.0147
  144MOL0     C19333   5.868   2.966   8.792  0.2661 -0.8844  0.2886
  144MOL0     C19334   5.976   2.875   8.749  0.0799  0.5531  0.0898
  144MOL0     O19335   5.999   2.890   8.619 -0.1284 -0.3659 -0.3184
  144MOL0     C19336   6.113   2.815   8.566  0.6977 -0.0454  0.3295
  144MOL0     C19337   6.223   2.878   8.522 -0.2321 -0.3398  0.2584
  144MOL0     C19338   6.325   2.803   8.461 -0.5084 -0.2108  0.4547
  144MOL0     C19339   6.316   2.665   8.445 -0.0797 -0.2603  0.6913
  144MOL0     O19340   6.407   2.589   8.385  0.3097 -0.2959 -0.3421
  144MOL0     C19341   6.451   2.644   8.260  0.2238  0.1856  0.6408
  144MOL0     C19342   6.506   2.541   8.166 -0.1605  0.4683  0.0774
  144MOL0     C19343   6.629   2.454   8.205 -0.2137 -0.4194 -0.2491
  144MOL0     C19344   6.684   2.380   8.083  0.9976  0.3151  1.3564
  144MOL0     C19345   6.618   2.244   8.079  0.4450 -0.6207  1.1071
  144MOL0     C19346   6.682   2.152   7.979  0.6981  0.4465 -0.4210
  144MOL0     C19347   6.672   2.187   7.831 -0.7242 -0.1563 -0.7383
  144MOL0     C19348   6.651   2.072   7.736  0.7968 -0.7492  0.1625
  144MOL0    Cl19349   6.679   2.124   7.563  0.1794 -0.3927 -0.6398
  144MOL0     C19350   6.208   2.600   8.502  0.3340 -0.4736  1.0912
  144MOL0     C19351   6.098   2.673   8.549 -0.1963  0.3598  0.4157
  144MOL0     O19352   6.034   2.796   8.831 -0.0311 -0.2510  0.1302
  144MOL0     C19353   5.863   3.008   8.930 -0.6014  0.0689  0.4794
  144MOL0     C19354   5.754   3.072   8.984  1.0873  0.0252  0.3113
  144MOL0     N19355   5.142   3.500   8.937  0.0739 -0.1499  0.1273
  144MOL0     N19356   5.062   3.518   8.839 -0.4930  0.3585 -0.4663
  144MOL0     C19357   4.397   3.486   7.902  0.2259 -0.6908  0.5666
  144MOL0     C19358   4.298   3.416   7.836  0.0800 -0.1772 -0.5498
  144MOL0     C19359   4.051   3.140   7.586 -0.4053  0.4362  0.1202
  144MOL0     C19360   3.978   3.232   7.516  1.3390 -0.6575  1.0376
  144MOL0     C19361   3.854   3.202   7.447 -1.0323  1.3845 -0.0571
  144MOL0     C19362   3.816   3.068   7.438  0.0162 -0.0785  0.1709
  144MOL0     O19363   3.719   3.004   7.357  0.3242  0.2058  0.0435
  144MOL0     C19364   3.638   3.080   7.265  0.1465  0.6587 -0.4813
  144MOL0     C19365   3.705   3.111   7.137 -0.3445 -1.4613  1.0504
  144MOL0     C19366   3.758   2.992   7.064 -0.2916  1.5889 -0.0848
  144MOL0     C19367   3.788   3.010   6.916 -0.2951  0.0284 -0.1037
  144MOL0     C19368   3.827   2.888   6.853  0.1503 -0.2952  0.4651
  144MOL0     C19369   3.839   2.786   6.788  0.1121  0.4767  0.3149
  144MOL0     C19370   3.896   2.974   7.496 -0.2714 -0.3159 -0.9573
  144MOL0     C19371   4.009   3.006   7.574 -0.0289  0.4089 -0.2714
  144MOL0     C19372   4.061   2.879   7.645 -0.2766 -0.5356  0.1310
  144MOL0     H19373   4.472   3.285   7.582  1.1417 -0.5184  0.7002
  144MOL0     H19374   4.658   3.368   7.714 -0.0647 -1.7404 -2.5700
  144MOL0     H19375   4.731   3.594   7.780 -1.4529  0.6617  0.4057
  144MOL0     H19376   4.713   3.712   7.892 -1.3073 -0.0862 -2.7873
  144MOL0     H19377   4.935   3.584   7.868  0.6276 -1.4238  0.8692
  144MOL0     H19378   4.864   3.447   7.948  1.6318  0.4225 -2.2560
  144MOL0     H19379   4.807   3.609   8.149  1.3725  0.2668  2.6925
  144MOL0     H19380   4.914   3.715   8.088  1.6304 -0.3207 -0.6331
  144MOL0     H19381   5.001   3.424   8.166 -1.5337  0.5849 -0.5301
  144MOL0     H19382   5.105   3.563   8.133 -1.3654 -0.9144 -2.9339
  144MOL0     H19383   5.024   3.666   8.364 -2.6405 -0.5723  2.3796
  144MOL0     H19384   4.902   3.546   8.356 -0.8537  2.8342 -1.2959
  144MOL0     H19385   5.074   3.361   8.369 -0.8780  0.1558  0.3071
  144MOL0     H19386   5.200   3.484   8.398 -0.5052  1.5077 -0.8819
  144MOL0     H19387   5.142   3.403   8.600  1.3511  1.9094 -1.0298
  144MOL0     H19388   4.972   3.450   8.571 -1.2515  0.9804 -2.7018
  144MOL0     H19389   5.227   3.621   8.576 -0.2501  0.7162 -1.5108
  144MOL0     H19390   5.072   3.691   8.599 -1.8800 -0.4648  1.6199
  144MOL0     H19391   5.328   3.708   8.773  0.7829 -1.4329  0.8114
  144MOL0     H19392   5.406   3.676   9.066 -0.5763  0.3333  0.5619
  144MOL0     H19393   5.305   3.556   9.146  0.1074 -1.0165 -1.0684
  144MOL0     H19394   5.492   3.457   8.937 -0.7716  0.1872  0.5871
  144MOL0     H19395   5.536   3.486   9.107  0.6241  1.0728 -0.6811
  144MOL0     H19396   5.326   3.308   8.999  0.5683 -0.1760 -1.2721
  144MOL0     H19397   5.361   3.325   9.179  0.7638 -0.9201  0.3534
  144MOL0     H19398   5.449   3.103   9.076  0.4844 -0.5536  3.7630
  144MOL0     H19399   5.574   3.216   9.155  2.4504  0.4458 -2.8442
  144MOL0     H19400   5.572   3.133   8.719  2.0869  1.4799 -2.0100
  144MOL0     H19401   5.750   2.978   8.605 -2.3396 -0.1541  0.1805
  144MOL0     H19402   6.233   2.986   8.518 -0.2409 -0.3718 -0.7287
  144MOL0     H19403   6.422   2.836   8.424 -0.0521  0.1583  1.9253
  144MOL0     H19404   6.372   2.697   8.206 -0.5042 -2.5810 -1.1962
  144MOL0     H19405   6.524   2.724   8.273 -0.8043  1.3276 -0.3287
  144MOL0     H19406   6.425   2.472   8.139  1.4841 -2.0208  1.1288
  144MOL0     H19407   6.525   2.596   8.074  0.0096  2.3672  1.1854
  144MOL0     H19408   6.710   2.521   8.235 -0.1060 -1.1436  1.2212
  144MOL0     H19409   6.616   2.380   8.285  2.9338 -0.5287  0.3207
  144MOL0     H19410   6.792   2.364   8.088  1.1788 -0.3450 -1.9874
  144MOL0     H19411   6.668   2.449   8.000  1.0300  4.8755  4.7711
  144MOL0     H19412   6.512   2.262   8.057  0.3182  0.9341  2.7517
  144MOL0     H19413   6.619   2.192   8.175  0.2883  0.8482  1.9325
  144MOL0     H19414   6.789   2.145   8.003  1.5507  0.6083 -3.6424
  144MOL0     H19415   6.633   2.054   7.982 -0.5077  1.0564  2.5531
  144MOL0     H19416   6.754   2.256   7.811 -0.0039 -0.7791 -0.0038
  144MOL0     H19417   6.577   2.240   7.823 -0.8489  0.5901  3.4005
  144MOL0     H19418   6.720   1.989   7.755 -1.1423 -2.6162 -0.5589
  144MOL0     H19419   6.551   2.030   7.746 -0.1246  1.2595 -0.2106
  144MOL0     H19420   6.187   2.494   8.493 -0.6150 -0.1577 -0.8208
  144MOL0     H19421   6.010   2.622   8.587 -2.5553  3.9780  0.3649
  144MOL0     H19422   5.945   2.982   8.996 -0.7815  0.4587  0.8586
  144MOL0     H19423   5.755   3.083   9.092 -1.8737  4.6094  0.1357
  144MOL0     H19424   4.368   3.546   7.987 -0.3068  0.8127 -0.6475
  144MOL0     H19425   4.195   3.412   7.872 -0.7671  5.6489 -1.2478
  144MOL0     H19426   4.013   3.335   7.520  3.5958 -1.3329  0.2730
  144MOL0     H19427   3.810   3.273   7.377  0.9613  2.9484  0.2157
  144MOL0     H19428   3.611   3.177   7.306  0.6999  1.8665 -2.7878
  144MOL0     H19429   3.548   3.020   7.250 -0.7127  1.6990  0.4083
  144MOL0     H19430   3.790   3.178   7.154 -0.0274 -1.3670 -0.7279
  144MOL0     H19431   3.620   3.146   7.078 -1.3125 -1.0421  2.6185
  144MOL0     H19432   3.691   2.907   7.076  2.2274 -0.3074  1.8121
  144MOL0     H19433   3.848   2.963   7.119 -2.3881 -2.5586  1.5823
  144MOL0     H19434   3.705   3.063   6.869 -0.6256  0.8408  1.3346
  144MOL0     H19435   3.884   3.062   6.921  2.1701 -3.6831 -3.0420
  144MOL0     H19436   3.838   2.704   6.719 -1.1842  0.7826 -0.0579
  144MOL0     H19437   3.860   2.871   7.497  1.0793 -0.8140  0.0154
  144MOL0     H19438   4.008   2.881   7.740 -0.4207  0.3214  0.0441
  144MOL0     H19439   4.039   2.787   7.590 -0.3292  0.7988 -2.2354
  144MOL0     H19440   4.170   2.868   7.648  0.0886 -0.3483 -4.5148
  145MOL0     O19441   9.368   1.757   8.136 -0.1102  0.8364 -0.3101
  145MOL0     C19442   9.373   1.871   8.099  0.4713 -0.0173 -0.4665
  145MOL0     O19443   9.492   1.930   8.063 -0.8029 -0.2093 -0.2918
  145MOL0     C19444   9.597   1.841   8.045 -0.7825  0.2832  0.3792
  145MOL0     C19445   9.594   1.741   7.950  0.3913  0.1065  0.5236
  145MOL0     C19446   9.702   1.657   7.940  1.3005 -0.0747 -0.5739
  145MOL0     C19447   9.811   1.667   8.021 -0.3498  0.1538 -0.0781
  145MOL0     O19448   9.913   1.568   8.002 -0.1322  0.3763  0.5210
  145MOL0     C19449  10.037   1.569   8.079 -0.3786 -0.3630 -0.1051
  145MOL0     C19450  10.106   1.433   8.083  0.1030 -0.3530 -0.6697
  145MOL0     C19451  10.089   1.356   7.953 -0.2024 -0.5028  0.6757
  145MOL0     C19452  10.204   1.247   7.928  0.3601 -0.4611 -0.4749
  145MOL0     C19453  10.284   1.286   7.812 -0.1669  0.7968 -0.0657
  145MOL0     C19454  10.388   1.398   7.817 -0.2954  0.6328 -0.2333
  145MOL0     C19455  10.434   1.434   7.672 -0.1783  0.9875  0.6313
  145MOL0     C19456  10.319   1.490   7.586  0.9743 -0.4167 -0.2203
  145MOL0     N19457  10.263   1.611   7.653  0.8297  0.1098 -0.8420
  145MOL0     C19458  10.328   1.735   7.665  0.4724 -0.6032  0.8470
  145MOL0     C19459  10.252   1.797   7.762  0.0237  0.5393 -0.3727
  145MOL0     C19460  10.267   1.941   7.806  0.2340 -0.2241 -0.2428
  145MOL0     C19461  10.195   1.970   7.947 -0.2690  0.3080  0.8250
  145MOL0     C19462  10.195   2.125   7.974 -0.8119 -0.7733  0.5314
  145MOL0     C19463  10.098   2.165   8.084 -0.3484  0.5068  0.1594
  145MOL0     O19464   9.959   2.131   8.056  0.9009  0.3274 -0.3782
  145MOL0     C19465   9.863   2.227   8.069 -0.1221  0.0304  0.1315
  145MOL0     C19466   9.867   2.334   8.153 -0.1517  0.1510 -0.8541
  145MOL0     C19467   9.762   2.428   8.170  0.0048 -0.3009  1.2248
  145MOL0     C19468   9.647   2.413   8.098  0.1324  1.1789  0.7026
  145MOL0     C19469   9.548   2.526   8.095  0.1765  0.1729 -0.2867
  145MOL0     O19470   9.575   2.640   8.167 -0.6273  0.0920 -0.0552
  145MOL0     C19471   9.525   2.757   8.116 -0.1558 -0.1946 -0.0486
  145MOL0     C19472   9.624   2.833   8.045 -0.6316  0.4485  0.1335
  145MOL0     C19473   9.581   2.947   7.973 -0.7186 -0.2027  0.0436
  145MOL0     C19474   9.453   3.000   7.990  0.5296 -0.3704  0.2053
  145MOL0     O19475   9.426   3.112   7.922 -0.1944 -0.0628  0.3480
  145MOL0     C19476   9.428   3.103   7.783  0.6420  0.4417  0.1011
  145MOL0     C19477   9.279   3.107   7.732 -0.8170 -0.2966 -0.3432
  145MOL0     C19478   9.220   3.243   7.738  0.3695  0.2250  0.1466
  145MOL0     C19479   9.222   3.312   7.596  0.9648  0.6213 -0.0076
  145MOL0     C19480   9.147   3.450   7.608 -0.6939  0.3971  1.3808
  145MOL0     C19481   9.168   3.528   7.471  0.5590 -0.2375 -0.8408
  145MOL0     C19482   9.099   3.664   7.465 -0.4432  0.7359 -0.1301
  145MOL0     C19483   9.194   3.775   7.455 -0.8798 -0.6345  0.2698
  145MOL0    Cl19484   9.296   3.766   7.302 -0.1409  0.0138 -0.7978
  145MOL0     C19485   9.370   2.943   8.083 -0.5612  0.4601 -0.9771
  145MOL0     C19486   9.402   2.817   8.141 -0.5862  0.8488  0.0258
  145MOL0     O19487   9.443   2.503   8.030  0.0779 -0.0326 -0.5622
  145MOL0     C19488   9.642   2.302   8.014 -0.1461 -0.7349  0.3403
  145MOL0     C19489   9.745   2.207   8.003  0.6537 -0.3607 -0.4967
  145MOL0     N19490  10.136   1.716   7.784 -0.5358 -0.4170 -0.1115
  145MOL0     N19491  10.144   1.613   7.713 -0.4640 -0.7746 -0.1932
  145MOL0     C19492   9.819   1.769   8.106  0.2620  0.1147 -1.0058
  145MOL0     C19493   9.716   1.859   8.110 -0.0068  0.4725 -0.2833
  145MOL0     C19494   9.248   1.959   8.102 -0.9815 -0.0722  0.0014
  145MOL0     C19495   9.265   2.090   8.042 -0.1576 -0.0982  0.1402
  145MOL0     C19496   9.167   2.189   8.058 -0.0515  0.3436  1.0341
  145MOL0     C19497   9.050   2.160   8.114  0.4423 -0.2808 -0.3966
  145MOL0     O19498   8.959   2.266   8.115 -0.3240 -0.3889  0.3930
  145MOL0     C19499   8.816   2.245   8.110 -1.1648 -1.3964 -0.1861
  145MOL0     C19500   8.760   2.260   7.965 -0.4676 -0.4189  0.4052
  145MOL0     C19501   8.786   2.404   7.913 -0.1686 -0.0818  0.4152
  145MOL0     C19502   8.683   2.437   7.802 -0.5656  0.2390 -0.4376
  145MOL0     C19503   8.726   2.556   7.734  0.7281  0.4443 -0.9922
  145MOL0     C19504   8.756   2.651   7.670  0.0284 -0.2895 -0.1493
  145MOL0     C19505   9.020   2.030   8.172  0.8451 -0.8090 -0.2943
  145MOL0     C19506   9.126   1.937   8.161  0.3481 -0.3024 -0.6497
  145MOL0     C19507   9.093   1.819   8.241  0.4781  0.0108 -0.6680
  145MOL0     H19508   9.508   1.753   7.884 -1.3456  0.9564  2.7797
  145MOL0     H19509   9.713   1.588   7.857  0.4520 -1.3101  0.3093
  145MOL0     H19510  10.116   1.631   8.034  0.7749 -0.6085  1.5207
  145MOL0     H19511  10.024   1.610   8.179  1.0602  0.4575 -0.2138
  145MOL0     H19512  10.068   1.388   8.175  3.4375  1.1489  1.6449
  145MOL0     H19513  10.212   1.458   8.093 -0.1441  0.4200  0.1228
  145MOL0     H19514  10.090   1.431   7.874  1.3093 -0.7365  0.4463
  145MOL0     H19515   9.992   1.305   7.947 -0.1205 -0.4749 -1.6453
  145MOL0     H19516  10.277   1.263   8.008 -0.0351  2.0913 -0.5343
  145MOL0     H19517  10.172   1.144   7.910  4.0275 -1.4208 -2.5283
  145MOL0     H19518  10.347   1.201   7.783  0.2728  1.9075 -2.6448
  145MOL0     H19519  10.205   1.306   7.740 -0.8414  0.0655  0.4578
  145MOL0     H19520  10.349   1.490   7.860 -3.4937 -0.3665 -0.7059
  145MOL0     H19521  10.477   1.373   7.876 -1.5156 -0.5269  1.1874
  145MOL0     H19522  10.471   1.345   7.621 -2.1462 -0.4392  1.5989
  145MOL0     H19523  10.507   1.516   7.672 -1.2462  2.2671 -4.1559
  145MOL0     H19524  10.365   1.521   7.491 -0.0863 -1.5312 -1.1357
  145MOL0     H19525  10.243   1.416   7.557 -0.1929 -0.0195  1.6753
  145MOL0     H19526  10.419   1.758   7.610 -0.3952 -3.8478 -2.3081
  145MOL0     H19527  10.372   1.970   7.812  0.0822  0.2213  0.5710
  145MOL0     H19528  10.214   2.000   7.731  1.0092  3.1343  1.6231
  145MOL0     H19529  10.092   1.939   7.929  0.1222 -0.8545  0.4593
  145MOL0     H19530  10.250   1.913   8.023  1.5435 -2.8198 -2.5089
  145MOL0     H19531  10.179   2.183   7.882 -4.2692 -1.5960  0.4579
  145MOL0     H19532  10.300   2.145   7.995 -0.4027 -1.1169 -1.0241
  145MOL0     H19533  10.115   2.271   8.107  0.5928 -0.0327  2.1265
  145MOL0     H19534  10.132   2.108   8.171  0.3899  0.0241 -0.4388
  145MOL0     H19535   9.954   2.350   8.216  0.0814 -2.8320 -0.2622
  145MOL0     H19536   9.764   2.504   8.248 -1.7166  1.0112  0.0698
  145MOL0     H19537   9.726   2.796   8.044 -0.8822 -0.3211  1.2981
  145MOL0     H19538   9.650   2.987   7.899  2.0624 -2.5713  1.1716
  145MOL0     H19539   9.489   3.179   7.733  1.0941 -0.3592 -0.5936
  145MOL0     H19540   9.464   3.004   7.752  0.8065 -0.1674  2.0916
  145MOL0     H19541   9.286   3.077   7.627 -1.1937  2.0193 -1.0870
  145MOL0     H19542   9.214   3.043   7.792 -1.4952  1.2507  0.6566
  145MOL0     H19543   9.116   3.221   7.763  0.4306  0.9884  1.1449
  145MOL0     H19544   9.262   3.304   7.818 -1.5102  0.3558  1.0908
  145MOL0     H19545   9.175   3.250   7.519  2.2942  1.9465 -1.9918
  145MOL0     H19546   9.326   3.312   7.561  0.7072 -0.3955 -0.8138
  145MOL0     H19547   9.195   3.503   7.691  0.6214 -0.3892  1.1606
  145MOL0     H19548   9.046   3.423   7.640 -1.0504  1.1301  0.8829
  145MOL0     H19549   9.271   3.536   7.436  1.1729  1.8737  1.1832
  145MOL0     H19550   9.123   3.464   7.395 -1.3866 -0.8524  0.7369
  145MOL0     H19551   9.034   3.676   7.552  0.1571  1.3973  0.2376
  145MOL0     H19552   9.029   3.675   7.381 -0.7124 -0.2711 -0.0442
  145MOL0     H19553   9.153   3.876   7.454 -0.8488 -0.6234  0.0354
  145MOL0     H19554   9.267   3.762   7.536  0.7668  1.8013 -0.6965
  145MOL0     H19555   9.284   2.998   8.117  0.8906  3.0535 -1.2293
  145MOL0     H19556   9.320   2.773   8.198 -0.2455 -1.9464 -1.4846
  145MOL0     H19557   9.570   2.284   7.934 -2.2996 -2.8315  2.5868
  145MOL0     H19558   9.742   2.115   7.945 -0.8955 -0.5135 -0.2275
  145MOL0     H19559   9.905   1.796   8.168  0.3165  0.2321 -1.1325
  145MOL0     H19560   9.721   1.930   8.192  0.5938 -2.2214  2.1890
  145MOL0     H19561   9.359   2.131   8.007 -0.3284 -0.5921 -0.9352
  145MOL0     H19562   9.189   2.284   8.010  3.4431  0.9323  3.4028
  145MOL0     H19563   8.780   2.324   8.177  0.7887 -0.9560  0.4029
  145MOL0     H19564   8.788   2.146   8.147 -2.6640 -1.4909 -1.4544
  145MOL0     H19565   8.652   2.242   7.968 -0.7218  1.1238  3.0253
  145MOL0     H19566   8.810   2.180   7.909 -0.8145 -0.1604 -0.2797
  145MOL0     H19567   8.891   2.397   7.884  0.4634 -0.9055  2.7138
  145MOL0     H19568   8.782   2.475   7.996 -0.8157 -1.2149  1.3726
  145MOL0     H19569   8.669   2.353   7.734 -0.9327 -3.1137  3.3555
  145MOL0     H19570   8.584   2.457   7.846 -0.0758  3.3900 -0.5503
  145MOL0     H19571   8.776   2.738   7.611 -0.2888  0.6657  1.1078
  145MOL0     H19572   8.929   2.000   8.223 -1.1082 -0.1065 -3.1142
  145MOL0     H19573   9.142   1.726   8.211 -0.2023 -0.9035  0.9428
  145MOL0     H19574   9.104   1.831   8.350 -1.4882  0.0747 -0.4369
  145MOL0     H19575   8.989   1.785   8.240 -0.0279  1.2443  1.7000
  146MOL0     O19576  10.633   1.638   3.906  0.5153 -0.3083 -0.7651
  146MOL0     C19577  10.607   1.534   3.970  1.1982  0.2601 -0.4276
  146MOL0     O19578  10.680   1.420   3.971  0.1279 -0.1148 -0.3449
  146MOL0     C19579  10.797   1.404   3.904  0.7909  1.0639  0.2815
  146MOL0     C19580  10.801   1.321   3.786  0.5094 -0.1170 -0.8962
  146MOL0     C19581  10.914   1.306   3.720  0.0075 -0.7325 -0.1443
  146MOL0     C19582  11.031   1.373   3.763  0.6149  0.1008  0.2806
  146MOL0     O19583  11.133   1.371   3.670  1.0553  0.4186 -0.5169
  146MOL0     C19584  11.164   1.499   3.611  0.1012  0.6240 -0.5015
  146MOL0     C19585  11.310   1.480   3.567 -0.6614  0.1117  0.5019
  146MOL0     C19586  11.378   1.620   3.535  0.0700  0.0767 -1.0833
  146MOL0     C19587  11.484   1.603   3.432  0.4117  0.3755 -0.0232
  146MOL0     C19588  11.554   1.740   3.405  1.2189  0.3786  0.6902
  146MOL0     C19589  11.676   1.725   3.324  0.1962  0.0162 -0.2243
  146MOL0     C19590  11.740   1.866   3.290  0.4051 -0.6113  1.2120
  146MOL0     C19591  11.889   1.854   3.294  0.4725  0.7561  0.0787
  146MOL0     N19592  11.958   1.986   3.251  0.6088 -0.2132  0.5250
  146MOL0     C19593  11.944   2.111   3.312 -0.1707 -0.1348 -1.0337
  146MOL0     C19594  12.053   2.184   3.268 -0.1506  0.5922  0.1450
  146MOL0     C19595  12.070   2.328   3.293  0.2328  0.6019  0.0720
  146MOL0     C19596  12.019   2.416   3.171 -0.6645 -0.0918  0.0119
  146MOL0     C19597  12.001   2.559   3.202 -0.1544  0.6379 -0.0612
  146MOL0     C19598  12.131   2.639   3.208  0.8520  0.3881 -0.6865
  146MOL0     O19599  12.250   2.570   3.262  0.5361  0.3123  0.5942
  146MOL0     C19600  12.354   2.589   3.178 -0.1257 -0.4274 -0.7869
  146MOL0     C19601  12.390   2.503   3.072  0.9461 -0.2037  0.0459
  146MOL0     C19602  12.489   2.531   2.980  0.4589 -0.3764 -0.4460
  146MOL0     C19603  12.577   2.641   2.990  0.6064 -0.5395 -0.9266
  146MOL0     C19604  12.695   2.663   2.906  0.0860  0.2077 -0.4438
  146MOL0     O19605  12.750   2.789   2.939  0.8712  0.2751 -0.2019
  146MOL0     C19606  12.849   2.858   2.879  0.0185 -0.4098  0.1721
  146MOL0     C19607  12.911   2.960   2.958  0.2679  0.6187 -0.0509
  146MOL0     C19608  13.016   3.023   2.904 -0.0122  0.6348  0.1068
  146MOL0     C19609  13.085   2.978   2.786  0.6839  0.3203  1.0356
  146MOL0     O19610  13.200   3.044   2.751 -0.6479 -0.0659  0.2171
  146MOL0     C19611  13.283   3.110   2.842 -0.1703 -0.3731 -0.5494
  146MOL0     C19612  13.392   3.193   2.765  0.0567 -0.2961 -0.6517
  146MOL0     C19613  13.476   3.275   2.857 -0.5112 -0.1420  0.6844
  146MOL0     C19614  13.554   3.176   2.961  1.1259  0.5535  0.1917
  146MOL0     C19615  13.639   3.254   3.050 -0.6028  0.4167 -1.4673
  146MOL0     C19616  13.769   3.304   2.978 -1.1993  0.5212 -0.8154
  146MOL0     C19617  13.847   3.409   3.063  0.5239  0.5683  0.0410
  146MOL0     C19618  13.932   3.372   3.183 -0.6798 -0.1059 -0.7933
  146MOL0    Cl19619  14.060   3.258   3.135  0.2956  0.1909  0.1939
  146MOL0     C19620  13.017   2.883   2.707  0.0133 -0.0598  0.5198
  146MOL0     C19621  12.904   2.815   2.756  0.0838 -0.2486 -0.7901
  146MOL0     O19622  12.731   2.585   2.817  0.3149  0.4493 -1.1073
  146MOL0     C19623  12.541   2.724   3.099 -0.2789  0.5943  0.4064
  146MOL0     C19624  12.437   2.695   3.184 -0.2145 -0.0249  0.3867
  146MOL0     N19625  12.133   2.103   3.194  0.7783 -0.1989 -0.4520
  146MOL0     N19626  12.075   1.991   3.180  1.0688  0.1664 -0.0521
  146MOL0     C19627  11.030   1.457   3.866 -0.6798 -1.2408 -0.5010
  146MOL0     C19628  10.917   1.463   3.947  0.3742 -1.1476 -0.4469
  146MOL0     C19629  10.493   1.540   4.051 -0.7661 -0.0249 -0.5150
  146MOL0     C19630  10.367   1.589   4.000 -0.2772 -0.1870  0.5614
  146MOL0     C19631  10.247   1.574   4.059  0.4314 -0.6031  0.1075
  146MOL0     C19632  10.246   1.518   4.188 -0.3211 -0.1982  0.2217
  146MOL0     O19633  10.131   1.511   4.269 -0.3293 -0.9943  0.5263
  146MOL0     C19634   9.997   1.541   4.214  0.2247  0.8887 -0.2408
  146MOL0     C19635   9.943   1.439   4.112  0.1220  0.6840 -0.1991
  146MOL0     C19636   9.963   1.285   4.153 -0.5478 -0.2518 -0.2455
  146MOL0     C19637   9.896   1.231   4.290  0.6098  0.2946  0.8733
  146MOL0     C19638   9.937   1.292   4.413 -0.1490 -0.5064  0.2174
  146MOL0     C19639   9.971   1.331   4.525  0.4723 -0.5991 -0.4357
  146MOL0     C19640  10.367   1.488   4.247 -0.4633 -0.0039  0.2314
  146MOL0     C19641  10.496   1.487   4.180 -0.4393 -0.3916  0.5383
  146MOL0     C19642  10.616   1.438   4.267  0.5742 -0.5347 -0.4841
  146MOL0     H19643  10.714   1.265   3.755  0.7695 -0.2839 -1.3232
  146MOL0     H19644  10.907   1.251   3.627 -0.9971  0.2169 -0.6554
  146MOL0     H19645  11.101   1.524   3.525 -1.9854 -1.9755  0.1416
  146MOL0     H19646  11.169   1.582   3.682 -3.1262  0.9157 -0.4632
  146MOL0     H19647  11.327   1.415   3.480 -1.4992 -0.0010  0.4152
  146MOL0     H19648  11.363   1.435   3.651 -0.6286  4.2052  2.9280
  146MOL0     H19649  11.400   1.659   3.635 -5.9013 -2.6472  1.8066
  146MOL0     H19650  11.305   1.688   3.490  3.2889  3.1933 -2.0675
  146MOL0     H19651  11.555   1.526   3.464 -0.9551  0.5628  4.0694
  146MOL0     H19652  11.435   1.571   3.340 -1.4087  1.7394  0.4120
  146MOL0     H19653  11.483   1.800   3.348  2.7166 -1.1560 -3.0717
  146MOL0     H19654  11.570   1.795   3.499 -3.3901  2.4883  0.4915
  146MOL0     H19655  11.752   1.666   3.377  0.3493  2.3029  2.3057
  146MOL0     H19656  11.653   1.673   3.231 -1.4993 -0.9070  0.6618
  146MOL0     H19657  11.700   1.941   3.359 -5.0208 -1.3493 -0.6715
  146MOL0     H19658  11.709   1.903   3.192  1.9462  1.1049  1.3212
  146MOL0     H19659  11.933   1.818   3.387  2.4009  0.8297 -0.7588
  146MOL0     H19660  11.921   1.789   3.212 -0.4501  2.0121 -1.3354
  146MOL0     H19661  11.862   2.144   3.375  0.1080 -0.9857 -0.1888
  146MOL0     H19662  12.006   2.344   3.380  0.5926 -1.2016  0.7101
  146MOL0     H19663  12.172   2.350   3.326 -0.7817  0.6220  3.6711
  146MOL0     H19664  12.090   2.397   3.090 -0.4627  0.8927 -0.0603
  146MOL0     H19665  11.923   2.380   3.132 -1.5213  2.2261 -0.1682
  146MOL0     H19666  11.945   2.572   3.294 -1.4959  1.3889 -0.9565
  146MOL0     H19667  11.937   2.602   3.125 -1.9889  2.5733  2.3907
  146MOL0     H19668  12.117   2.732   3.264 -0.6019 -0.8856  1.1546
  146MOL0     H19669  12.150   2.672   3.105  1.3367 -0.7223 -0.9619
  146MOL0     H19670  12.341   2.406   3.076 -3.0237  1.6150  1.1407
  146MOL0     H19671  12.511   2.451   2.911  4.0599 -1.2018  1.4017
  146MOL0     H19672  12.872   2.986   3.056 -3.4111  0.6915 -1.3684
  146MOL0     H19673  13.049   3.098   2.976 -0.6530 -0.7444  1.9144
  146MOL0     H19674  13.233   3.181   2.909  1.9479  0.9495 -0.2826
  146MOL0     H19675  13.314   3.038   2.917 -0.4866  1.5710  1.5587
  146MOL0     H19676  13.451   3.124   2.704  0.8893 -0.8899  0.7699
  146MOL0     H19677  13.331   3.256   2.699 -0.3100  1.8436  1.5985
  146MOL0     H19678  13.549   3.333   2.800 -1.0685 -1.1537 -1.1210
  146MOL0     H19679  13.424   3.352   2.916  1.4591  2.1191 -0.3757
  146MOL0     H19680  13.603   3.086   2.922 -1.6946 -1.7068  1.4590
  146MOL0     H19681  13.472   3.132   3.019 -0.7005  0.2908 -2.3956
  146MOL0     H19682  13.668   3.185   3.130 -3.3218  0.2665 -0.4977
  146MOL0     H19683  13.584   3.332   3.102  0.0909 -1.1838  1.9638
  146MOL0     H19684  13.822   3.211   2.957 -1.1404  0.6012 -1.0184
  146MOL0     H19685  13.734   3.360   2.891 -1.0381  1.5954 -0.2122
  146MOL0     H19686  13.781   3.489   3.099 -0.6257  0.1912 -1.1767
  146MOL0     H19687  13.923   3.457   3.000  1.6879 -1.2127  0.0318
  146MOL0     H19688  13.962   3.470   3.222 -1.6571 -0.3080  0.5442
  146MOL0     H19689  13.873   3.332   3.265 -1.6654 -2.3740 -2.5160
  146MOL0     H19690  13.071   2.848   2.619  0.7805 -1.2405  1.4269
  146MOL0     H19691  12.865   2.738   2.690  0.8026  0.2758 -1.8564
  146MOL0     H19692  12.597   2.811   3.130  0.9650  0.6340 -1.6997
  146MOL0     H19693  12.427   2.760   3.271  0.5798 -0.1974  0.6151
  146MOL0     H19694  11.119   1.506   3.903 -1.7265  1.1120 -0.8924
  146MOL0     H19695  10.926   1.526   4.035  5.1710  0.0194 -1.5035
  146MOL0     H19696  10.372   1.628   3.898 -2.0904 -0.9555  0.1334
  146MOL0     H19697  10.154   1.597   4.009 -0.0321 -0.1875  1.1283
  146MOL0     H19698   9.984   1.642   4.174  1.0432  1.3102  0.5320
  146MOL0     H19699   9.939   1.529   4.306  2.9116 -0.2439  1.4464
  146MOL0     H19700  10.007   1.463   4.026  1.6378  1.8081  1.1701
  146MOL0     H19701   9.842   1.463   4.079 -0.6974  2.2648  3.0690
  146MOL0     H19702  10.070   1.275   4.171 -0.3005  1.5384 -0.4904
  146MOL0     H19703   9.928   1.229   4.067 -1.2713  2.1168 -1.5906
  146MOL0     H19704   9.787   1.236   4.290  0.5514  0.4925 -1.6852
  146MOL0     H19705   9.921   1.125   4.303  2.9562  0.2802 -2.5550
  146MOL0     H19706   9.992   1.364   4.624  0.5047 -1.8669  0.0030
  146MOL0     H19707  10.360   1.464   4.353  0.8269  0.1930  0.3784
  146MOL0     H19708  10.628   1.334   4.234  0.8158 -1.5369  2.4574
  146MOL0     H19709  10.708   1.494   4.249  0.0204  0.4303 -0.3968
  146MOL0     H19710  10.591   1.428   4.373 -1.2897  2.2563 -0.5468
  147MOL0     O19711   8.115  11.231  10.550 -0.3331 -0.5329  0.1800
  147MOL0     C19712   8.023  11.252  10.620  0.2265 -1.1805  0.0544
  147MOL0     O19713   8.031  11.297  10.745  0.5189 -0.3340 -1.3725
  147MOL0     C19714   8.149  11.300  10.820  0.2341 -0.0326  0.1720
  147MOL0     C19715   8.134  11.319  10.957  0.6880 -0.1463  0.7555
  147MOL0     C19716   8.235  11.337  11.043 -1.0734  0.4625  0.0932
  147MOL0     C19717   8.367  11.335  10.995  0.0062 -0.1368  0.9745
  147MOL0     O19718   8.479  11.350  11.079  0.0392  0.3242 -0.7092
  147MOL0     C19719   8.607  11.355  11.028 -0.5395  0.0868  0.9567
  147MOL0     C19720   8.725  11.365  11.122 -1.0005  0.4055 -0.2811
  147MOL0     C19721   8.868  11.333  11.059  1.4160 -0.5079 -0.3397
  147MOL0     C19722   8.888  11.199  10.982 -0.3272 -0.1324 -0.7044
  147MOL0     C19723   9.013  11.200  10.904 -0.0272  0.7959 -0.4438
  147MOL0     C19724   9.067  11.077  10.825 -0.6448  0.1072  0.6787
  147MOL0     C19725   8.983  11.069  10.692 -0.1291 -0.0647 -0.2913
  147MOL0     C19726   9.018  10.946  10.619  1.0864  0.4186  0.3614
  147MOL0     N19727   8.962  10.970  10.481  0.3880  0.2927 -0.4814
  147MOL0     C19728   8.836  10.984  10.435 -0.0016 -0.3211  0.0506
  147MOL0     C19729   8.852  10.984  10.298  0.7723  0.1599  0.0218
  147MOL0     C19730   8.737  10.991  10.198 -0.6285  0.1637  0.0320
  147MOL0     C19731   8.734  10.869  10.105 -0.2693 -0.5416 -0.6175
  147MOL0     C19732   8.808  10.879   9.966  1.2801 -0.0148  0.6414
  147MOL0     C19733   8.950  10.920   9.974 -1.2054  0.4456  0.5435
  147MOL0     O19734   8.986  10.930   9.834  0.4379  0.3702 -0.3342
  147MOL0     C19735   9.092  11.003   9.805  0.0584 -0.4807 -0.0513
  147MOL0     C19736   9.096  11.068   9.685  0.2041  0.4237 -0.1840
  147MOL0     C19737   9.205  11.153   9.653  0.4827  0.3972 -0.6893
  147MOL0     C19738   9.312  11.175   9.740  0.7791  0.1072 -0.1415
  147MOL0     C19739   9.417  11.277   9.717 -0.4637  1.1035 -0.0845
  147MOL0     O19740   9.386  11.357   9.606  0.6045  0.3655 -0.4291
  147MOL0     C19741   9.488  11.435   9.551 -0.4357 -0.1903  0.1023
  147MOL0     C19742   9.501  11.437   9.413  0.2090  0.2281  0.0016
  147MOL0     C19743   9.584  11.524   9.351  0.4579 -0.9564  0.4024
  147MOL0     C19744   9.668  11.611   9.412  0.4720  0.4626 -0.5505
  147MOL0     O19745   9.752  11.690   9.337 -0.0781  0.4978 -0.1019
  147MOL0     C19746   9.800  11.811   9.399 -0.0654  0.0979 -0.7870
  147MOL0     C19747   9.824  11.904   9.287  0.5079  0.4209 -0.8349
  147MOL0     C19748   9.903  12.036   9.313 -0.0353 -0.1975 -1.3064
  147MOL0     C19749   9.847  12.120   9.427 -0.2447  0.0548  0.3878
  147MOL0     C19750   9.913  12.263   9.449 -0.2334  0.2997  0.4654
  147MOL0     C19751   9.863  12.371   9.363  0.1694 -1.0194 -0.3225
  147MOL0     C19752   9.909  12.510   9.399  0.6303 -0.5900  0.3117
  147MOL0     C19753   9.825  12.623   9.341 -0.6270  0.8154  0.5592
  147MOL0    Cl19754   9.666  12.641   9.409  0.1200  0.2967 -0.3129
  147MOL0     C19755   9.662  11.607   9.552  0.6392 -1.0484  1.4336
  147MOL0     C19756   9.576  11.521   9.625 -0.5144 -0.4473 -0.0160
  147MOL0     O19757   9.520  11.273   9.778  0.0968  0.7541 -1.0621
  147MOL0     C19758   9.310  11.106   9.859 -1.6646 -0.8963  0.0431
  147MOL0     C19759   9.207  11.025   9.892  0.0673  0.4314  0.0348
  147MOL0     N19760   8.987  10.964  10.271  0.3197 -0.4432 -0.7478
  147MOL0     N19761   9.048  10.954  10.380  0.4756 -0.4143 -0.0106
  147MOL0     C19762   8.392  11.312  10.856 -0.3722  0.8329  1.3158
  147MOL0     C19763   8.283  11.290  10.765 -0.4338  0.1872 -0.2329
  147MOL0     C19764   7.883  11.250  10.548  0.1351  0.3864  0.3713
  147MOL0     C19765   7.781  11.246  10.632  0.2038 -0.7276  0.1246
  147MOL0     C19766   7.648  11.258  10.594  0.3035 -0.6866  0.1633
  147MOL0     C19767   7.621  11.266  10.452 -0.0683 -0.5169 -0.0663
  147MOL0     O19768   7.488  11.286  10.408  0.3597  0.2698  0.3315
  147MOL0     C19769   7.380  11.208  10.478  0.7888 -0.4960  0.4416
  147MOL0     C19770   7.316  11.130  10.364  0.4176  0.2221  0.2360
  147MOL0     C19771   7.228  11.206  10.268  0.6762  0.1365 -0.2827
  147MOL0     C19772   7.157  11.109  10.177  0.3196  0.3626  0.3426
  147MOL0     C19773   7.040  11.045  10.243 -0.1030 -0.3002  0.0945
  147MOL0     C19774   6.941  10.993  10.302 -0.8333  0.0169 -0.2751
  147MOL0     C19775   7.730  11.284  10.362  0.0567  0.6032 -0.3241
  147MOL0     C19776   7.864  11.267  10.408  0.0777 -0.4416 -0.1504
  147MOL0     C19777   7.976  11.309  10.304 -0.7093  0.0344  0.2756
  147MOL0     H19778   8.036  11.351  10.990 -0.6623  1.5725 -4.0660
  147MOL0     H19779   8.231  11.348  11.150  2.0452 -1.6859  0.5781
  147MOL0     H19780   8.622  11.253  10.990 -0.9177  0.3675  0.0196
  147MOL0     H19781   8.615  11.425  10.944 -1.7524 -0.4652  0.3579
  147MOL0     H19782   8.716  11.296  11.206  2.5297 -1.4292 -1.2085
  147MOL0     H19783   8.736  11.469  11.154 -2.5053  1.0212 -1.5876
  147MOL0     H19784   8.948  11.349  11.132  1.1024  1.5129 -0.3892
  147MOL0     H19785   8.871  11.416  10.988 -2.2596 -0.3764 -0.5478
  147MOL0     H19786   8.888  11.122  11.059 -3.2043  0.8488  0.4282
  147MOL0     H19787   8.804  11.168  10.919 -2.5730 -3.4815  3.3973
  147MOL0     H19788   8.991  11.285  10.839 -2.1843  0.9673  0.4222
  147MOL0     H19789   9.088  11.238  10.974 -1.5730  0.8179  1.2733
  147MOL0     H19790   9.170  11.110  10.811 -0.2860 -0.9284  0.7636
  147MOL0     H19791   9.058  10.986  10.886 -4.2979  2.0787  3.4246
  147MOL0     H19792   9.013  11.151  10.627 -1.5586  1.1408  0.5285
  147MOL0     H19793   8.875  11.068  10.706 -0.6590 -0.3223 -3.5430
  147MOL0     H19794   9.123  10.926  10.596  1.6044  3.8399 -0.8033
  147MOL0     H19795   8.977  10.859  10.672  1.8478  0.4156  0.9652
  147MOL0     H19796   8.737  10.998  10.477  0.5570 -0.2480  1.4142
  147MOL0     H19797   8.649  10.988  10.263 -0.8153 -0.9619 -0.2494
  147MOL0     H19798   8.744  11.082  10.137 -3.3162 -0.0368 -0.6884
  147MOL0     H19799   8.778  10.786  10.161 -0.2885  0.1419  0.4310
  147MOL0     H19800   8.634  10.839  10.072 -0.8798  3.0557 -2.6367
  147MOL0     H19801   8.744  10.947   9.909  0.0595 -0.5306  1.3493
  147MOL0     H19802   8.790  10.779   9.925 -1.3113  0.2086  1.0649
  147MOL0     H19803   9.009  10.850  10.034 -2.0820  0.2457  1.1818
  147MOL0     H19804   8.952  11.019  10.020  0.4259  0.5872  0.2299
  147MOL0     H19805   9.007  11.061   9.623 -0.8288  1.6205  1.0792
  147MOL0     H19806   9.201  11.202   9.556  0.6708  0.4616 -0.6642
  147MOL0     H19807   9.428  11.378   9.359 -0.4359  2.5752 -1.8424
  147MOL0     H19808   9.588  11.516   9.243 -1.9798 -0.1547  0.1800
  147MOL0     H19809   9.730  11.852   9.472  0.0809 -2.3085  0.8323
  147MOL0     H19810   9.889  11.772   9.449 -0.0093  0.3887 -0.6610
  147MOL0     H19811   9.872  11.853   9.203  1.4237  2.0504 -1.3404
  147MOL0     H19812   9.722  11.930   9.260 -0.4722  1.6708  3.3158
  147MOL0     H19813  10.009  12.020   9.335 -0.5789 -2.1272  0.2945
  147MOL0     H19814   9.896  12.094   9.220  4.8807  0.9347 -1.2530
  147MOL0     H19815   9.878  12.052   9.506  4.5331  0.1783 -1.0154
  147MOL0     H19816   9.740  12.140   9.424 -0.4305 -0.9360  0.0398
  147MOL0     H19817  10.022  12.256   9.443 -0.3190 -2.4113  0.4992
  147MOL0     H19818   9.888  12.288   9.552 -0.9305 -1.1443  0.6771
  147MOL0     H19819   9.885  12.358   9.257  0.5267  2.4696 -0.7943
  147MOL0     H19820   9.755  12.370   9.375  0.0349 -1.7520 -1.5254
  147MOL0     H19821  10.010  12.507   9.356  0.3129 -2.0687 -0.3998
  147MOL0     H19822   9.914  12.545   9.502  2.2838  1.5152 -0.3930
  147MOL0     H19823   9.882  12.714   9.365  0.5406  0.3553 -0.3500
  147MOL0     H19824   9.817  12.607   9.233  0.6982 -1.7066  0.7563
  147MOL0     H19825   9.721  11.679   9.608 -0.4183  0.3695  0.7595
  147MOL0     H19826   9.563  11.525   9.733 -0.8147 -2.4884  0.0599
  147MOL0     H19827   9.397  11.107   9.923 -0.5668  1.2748 -1.3550
  147MOL0     H19828   9.196  10.971   9.986 -0.8319 -0.5069 -0.5761
  147MOL0     H19829   8.492  11.300  10.814 -1.3486 -2.2877 -0.4221
  147MOL0     H19830   8.299  11.260  10.662 -1.5216 -0.5181 -0.2191
  147MOL0     H19831   7.796  11.247  10.739  1.2601  0.4370  0.0022
  147MOL0     H19832   7.566  11.256  10.664 -0.0295 -3.5229 -0.1626
  147MOL0     H19833   7.313  11.279  10.526 -1.4445  0.7101 -3.9112
  147MOL0     H19834   7.422  11.134  10.547  1.3691  0.7961  1.5135
  147MOL0     H19835   7.258  11.049  10.409  0.6796 -1.2914 -1.9847
  147MOL0     H19836   7.387  11.075  10.302 -0.6218  0.8109 -1.5256
  147MOL0     H19837   7.298  11.249  10.195 -0.8722  1.9974 -0.7662
  147MOL0     H19838   7.166  11.278  10.322 -0.7081 -0.9757 -0.3415
  147MOL0     H19839   7.115  11.171  10.097 -0.6628  2.7958  2.5802
  147MOL0     H19840   7.227  11.038  10.134  0.3138  1.3973 -1.4664
  147MOL0     H19841   6.860  10.940  10.348 -2.1754  1.4362 -0.8866
  147MOL0     H19842   7.707  11.310  10.259 -1.1858 -1.3844 -0.6111
  147MOL0     H19843   8.070  11.254  10.313  0.3889  0.9227 -3.8312
  147MOL0     H19844   7.934  11.309  10.203 -3.5178 -0.9036  1.3319
  147MOL0     H19845   7.995  11.416  10.320 -0.0629  0.8481 -4.5544
  148MOL0     O19846  11.449   8.777  10.027 -0.4941 -0.0675 -0.3735
  148MOL0     C19847  11.371   8.817  10.118  0.6013  0.3946 -0.4859
  148MOL0     O19848  11.415   8.886  10.233  0.7138 -0.2340  0.5159
  148MOL0     C19849  11.551   8.877  10.251  0.3093  0.1653 -0.2593
  148MOL0     C19850  11.634   8.967  10.175 -0.4109 -0.2879 -0.0115
  148MOL0     C19851  11.770   8.956  10.196 -0.0153  0.4306  0.4948
  148MOL0     C19852  11.824   8.856  10.284 -0.2268  0.5844 -0.9079
  148MOL0     O19853  11.956   8.831  10.291  0.1122  0.2933  0.5395
  148MOL0     C19854  12.014   8.770  10.405 -0.5694 -0.2291 -0.2348
  148MOL0     C19855  12.162   8.744  10.397  0.1695 -0.5521  0.5011
  148MOL0     C19856  12.191   8.668  10.265 -0.1210  0.1490 -0.9567
  148MOL0     C19857  12.341   8.618  10.244  0.1603  0.5409 -0.3637
  148MOL0     C19858  12.363   8.525  10.127 -1.0742  1.0245 -0.3914
  148MOL0     C19859  12.308   8.379  10.143  0.2449 -0.7462 -0.2651
  148MOL0     C19860  12.369   8.292  10.031 -0.8549  0.6880  0.6890
  148MOL0     C19861  12.501   8.236  10.080  1.1074  0.2797  0.4465
  148MOL0     N19862  12.546   8.107  10.015 -0.6322 -0.1360 -0.2619
  148MOL0     C19863  12.571   8.091   9.882  0.7211 -0.0001 -0.6080
  148MOL0     C19864  12.583   7.955   9.867  0.4984  0.9551  0.7877
  148MOL0     C19865  12.603   7.880   9.744  0.3698  0.5968 -0.3078
  148MOL0     C19866  12.466   7.823   9.685  1.4052  0.5313 -0.1415
  148MOL0     C19867  12.440   7.883   9.546  1.1023  0.1913 -0.0164
  148MOL0     C19868  12.294   7.853   9.497  0.4832  0.2381 -0.7199
  148MOL0     O19869  12.192   7.909   9.582 -0.5684 -0.5962 -0.0849
  148MOL0     C19870  12.055   7.882   9.551 -0.4155  0.2212  0.6605
  148MOL0     C19871  12.002   7.796   9.454 -0.2724 -0.2051 -0.4335
  148MOL0     C19872  11.865   7.794   9.434 -0.3749  0.3894  0.8985
  148MOL0     C19873  11.777   7.889   9.497  0.5763  0.2914 -0.0331
  148MOL0     C19874  11.627   7.911   9.468 -0.9411 -0.1063 -0.9206
  148MOL0     O19875  11.550   7.962   9.556  0.0948  0.1244 -0.6637
  148MOL0     C19876  11.407   7.969   9.547 -0.8506 -0.4169  0.7257
  148MOL0     C19877  11.340   8.037   9.448 -0.2071  0.0383  0.1479
  148MOL0     C19878  11.205   8.041   9.445  0.6728 -0.1248 -0.5523
  148MOL0     C19879  11.127   7.975   9.548  0.7356 -1.0090 -0.0583
  148MOL0     O19880  10.995   7.959   9.528 -0.2509 -0.0514  0.3316
  148MOL0     C19881  10.948   7.948   9.388 -0.3075 -0.1218 -0.1620
  148MOL0     C19882  10.849   7.836   9.376 -0.1963 -0.1199 -0.5139
  148MOL0     C19883  10.775   7.838   9.237  0.0574  0.3639 -0.2271
  148MOL0     C19884  10.677   7.722   9.237  0.0474  0.0468  0.1176
  148MOL0     C19885  10.616   7.717   9.098 -0.7154 -0.3491  0.2267
  148MOL0     C19886  10.508   7.610   9.086  0.1440  0.3219 -0.2443
  148MOL0     C19887  10.508   7.549   8.944 -0.0104  0.0238  0.0359
  148MOL0     C19888  10.477   7.644   8.841 -0.1153 -0.3159  0.1691
  148MOL0    Cl19889  10.445   7.568   8.684  0.3347  0.2130 -0.2781
  148MOL0     C19890  11.197   7.924   9.654  0.6478  1.0314 -0.1941
  148MOL0     C19891  11.340   7.916   9.655 -0.1826 -0.0249 -0.3866
  148MOL0     O19892  11.595   7.835   9.377  0.1401  0.7385 -0.0325
  148MOL0     C19893  11.836   7.963   9.597 -0.3019 -0.7218 -0.3845
  148MOL0     C19894  11.968   7.958   9.626  0.0642 -0.2757  0.4120
  148MOL0     N19895  12.549   7.903   9.988  0.3832 -1.0594 -0.1721
  148MOL0     N19896  12.522   7.989  10.077 -0.3054  0.0528  0.6456
  148MOL0     C19897  11.739   8.760  10.356  0.0592  0.4931  0.8663
  148MOL0     C19898  11.605   8.786  10.341  0.2205  0.0447  0.3045
  148MOL0     C19899  11.222   8.788  10.095  0.2393  0.1690 -0.5236
  148MOL0     C19900  11.134   8.845  10.195  0.0352  1.1870 -0.3566
  148MOL0     C19901  10.991   8.828  10.191 -1.1076  0.7662 -0.1919
  148MOL0     C19902  10.934   8.761  10.088 -0.1169  0.8663 -0.0646
  148MOL0     O19903  10.798   8.743  10.096 -0.7770  0.0682  0.2599
  148MOL0     C19904  10.727   8.708   9.981  1.0391  0.1572  0.2073
  148MOL0     C19905  10.579   8.703  10.007 -0.4343  0.1333  0.0211
  148MOL0     C19906  10.529   8.650   9.879  0.3560  0.5673 -0.5730
  148MOL0     C19907  10.387   8.581   9.894 -0.1849  0.5212 -0.0943
  148MOL0     C19908  10.287   8.663   9.939  0.0225 -0.1452  0.6632
  148MOL0     C19909  10.210   8.736   9.992  0.2429  0.6713  0.0141
  148MOL0     C19910  11.015   8.706   9.988  0.6016  0.9973  0.6377
  148MOL0     C19911  11.158   8.707   9.995  0.2564 -1.5223 -0.3127
  148MOL0     C19912  11.239   8.639   9.887  0.9720  0.6752 -0.0378
  148MOL0     H19913  11.594   9.043  10.108  1.0295 -0.4128 -1.0481
  148MOL0     H19914  11.850   9.010  10.149  0.0806  2.7700  3.0691
  148MOL0     H19915  12.009   8.827  10.498  0.9054  0.9187 -0.8222
  148MOL0     H19916  11.967   8.671  10.413  0.5015 -0.6288  1.7769
  148MOL0     H19917  12.215   8.689  10.475 -1.9341 -1.6093  1.2697
  148MOL0     H19918  12.200   8.846  10.394 -0.7540 -0.2132 -0.6541
  148MOL0     H19919  12.157   8.730  10.181 -4.8679  0.0344  0.5635
  148MOL0     H19920  12.125   8.581  10.259  0.1697 -0.0038 -2.2011
  148MOL0     H19921  12.400   8.707  10.220  0.7866  0.5212  1.0048
  148MOL0     H19922  12.380   8.558  10.326  1.0201 -0.7342 -1.6488
  148MOL0     H19923  12.305   8.563  10.042 -2.9400  0.8713  0.7612
  148MOL0     H19924  12.471   8.520  10.114 -1.0696 -0.0355 -0.0551
  148MOL0     H19925  12.347   8.350  10.240  1.4399 -0.7246 -0.7205
  148MOL0     H19926  12.198   8.375  10.140  0.2000 -0.1787  0.3482
  148MOL0     H19927  12.379   8.356   9.943 -2.9201  1.2909  0.8301
  148MOL0     H19928  12.297   8.216  10.000 -1.8919  2.9926 -3.2933
  148MOL0     H19929  12.577   8.311  10.055 -0.2446  1.9814  1.2620
  148MOL0     H19930  12.486   8.214  10.186  1.0492 -2.4962 -0.0487
  148MOL0     H19931  12.582   8.164   9.802 -0.1191  0.7341 -0.0870
  148MOL0     H19932  12.659   7.941   9.674  1.1612  0.3951  0.1380
  148MOL0     H19933  12.660   7.791   9.772  2.8608  2.1267 -0.2130
  148MOL0     H19934  12.458   7.714   9.679  0.7574  0.6425 -1.8492
  148MOL0     H19935  12.387   7.865   9.749  2.6020 -1.0589  2.5466
  148MOL0     H19936  12.509   7.843   9.471  1.7921  3.0503 -1.0470
  148MOL0     H19937  12.459   7.990   9.554  0.6320  0.1982  1.2738
  148MOL0     H19938  12.285   7.745   9.478  1.0599  0.3853 -1.8927
  148MOL0     H19939  12.295   7.897   9.397  2.8729  1.5181 -0.1942
  148MOL0     H19940  12.079   7.741   9.402 -2.2709 -2.1429 -1.4933
  148MOL0     H19941  11.831   7.715   9.368  3.0015 -0.0634 -0.5013
  148MOL0     H19942  11.406   8.102   9.392 -0.1520  0.2397  0.4468
  148MOL0     H19943  11.158   8.104   9.370 -1.2226  1.4138  1.7995
  148MOL0     H19944  10.894   8.041   9.373 -0.5838 -0.1162  0.8026
  148MOL0     H19945  11.032   7.919   9.323  0.8900  0.7902  0.9219
  148MOL0     H19946  10.909   7.745   9.386 -0.6594 -0.5081 -1.1513
  148MOL0     H19947  10.783   7.828   9.463 -0.3274 -1.8085 -0.7393
  148MOL0     H19948  10.727   7.936   9.234  0.9690  0.9533  2.1648
  148MOL0     H19949  10.845   7.824   9.155 -0.6768 -0.9059 -0.6569
  148MOL0     H19950  10.593   7.751   9.302  0.8489  4.0559 -0.4283
  148MOL0     H19951  10.734   7.632   9.264  3.3023  1.4711 -1.4921
  148MOL0     H19952  10.701   7.714   9.028  0.7836 -0.2562  1.9598
  148MOL0     H19953  10.570   7.813   9.074  0.4408  0.1690 -0.0179
  148MOL0     H19954  10.517   7.532   9.163  0.0355  1.6508  1.1625
  148MOL0     H19955  10.411   7.650   9.118  0.8231  0.0405  2.4887
  148MOL0     H19956  10.435   7.467   8.944 -0.1655  0.1244 -1.6368
  148MOL0     H19957  10.600   7.495   8.921 -1.0807 -2.8555  1.8857
  148MOL0     H19958  10.380   7.690   8.862  0.3722  0.5444  0.5967
  148MOL0     H19959  10.552   7.722   8.822 -0.7570  0.1137 -0.6690
  148MOL0     H19960  11.145   7.889   9.742  5.2653  0.7443  2.7746
  148MOL0     H19961  11.395   7.868   9.735  0.3090  0.7314 -0.2663
  148MOL0     H19962  11.765   8.032   9.642  1.3866  0.9896 -0.2274
  148MOL0     H19963  12.000   8.027   9.703  2.2704  1.1352 -1.6184
  148MOL0     H19964  11.771   8.667  10.402 -2.5787 -2.0343 -1.9565
  148MOL0     H19965  11.537   8.711  10.381 -3.4322  2.8963  0.0181
  148MOL0     H19966  11.182   8.883  10.285  0.7331  2.4015 -1.2097
  148MOL0     H19967  10.930   8.873  10.269 -3.2991 -3.5064  0.8889
  148MOL0     H19968  10.761   8.609   9.949 -0.7200  0.7031 -3.8928
  148MOL0     H19969  10.740   8.788   9.907 -1.2177  1.3606  1.0277
  148MOL0     H19970  10.530   8.794  10.044 -0.4866 -0.6124  1.9371
  148MOL0     H19971  10.555   8.623  10.078  1.1068 -0.4999 -0.1364
  148MOL0     H19972  10.597   8.581   9.828 -0.7054 -0.1843 -1.0095
  148MOL0     H19973  10.515   8.743   9.824  1.7553  2.1303  1.5333
  148MOL0     H19974  10.353   8.514   9.814 -2.6614  1.3084  0.2238
  148MOL0     H19975  10.402   8.504   9.970 -3.0460 -1.2658 -1.1830
  148MOL0     H19976  10.134   8.799  10.033 -1.5616 -2.2943  1.5811
  148MOL0     H19977  10.971   8.658   9.901  3.9016 -2.9728  0.8832
  148MOL0     H19978  11.288   8.714   9.824  2.7322  1.8345  2.5408
  148MOL0     H19979  11.313   8.564   9.918  2.3829  1.1675 -2.0033
  148MOL0     H19980  11.162   8.586   9.830  0.3043 -0.1991  1.6175
  149MOL0     O19981  11.143   7.444   8.691 -0.1309 -0.3035  0.0968
  149MOL0     C19982  11.191   7.542   8.624  0.4239  0.0775  0.1788
  149MOL0     O19983  11.127   7.593   8.517 -0.3040  0.3879  0.2439
  149MOL0     C19984  11.004   7.545   8.474 -0.2127  0.5153 -0.2141
  149MOL0     C19985  10.900   7.484   8.551 -0.4857 -1.3347  0.7392
  149MOL0     C19986  10.792   7.434   8.490 -0.3334 -0.4523 -0.1305
  149MOL0     C19987  10.787   7.423   8.350  0.2531 -0.9798  0.3510
  149MOL0     O19988  10.686   7.377   8.269 -0.0913  0.0802  0.4664
  149MOL0     C19989  10.605   7.284   8.335 -0.3486  0.2034 -0.5668
  149MOL0     C19990  10.478   7.369   8.393 -0.3297 -0.9463 -0.2680
  149MOL0     C19991  10.365   7.412   8.296 -0.7702  0.0158 -0.6320
  149MOL0     C19992  10.277   7.311   8.223  0.0436 -0.1172  0.4720
  149MOL0     C19993  10.167   7.370   8.132  0.2240  1.1630 -0.5208
  149MOL0     C19994  10.115   7.280   8.010 -0.2023  0.1714  0.1219
  149MOL0     C19995  10.033   7.156   8.057  0.6305 -0.1444 -0.1271
  149MOL0     C19996   9.899   7.171   8.144  0.4450  0.0155  0.6431
  149MOL0     N19997   9.783   7.239   8.073 -0.3980 -0.6685  0.1511
  149MOL0     C19998   9.700   7.184   7.990 -0.4548 -0.7329 -0.1452
  149MOL0     C19999   9.631   7.287   7.941  1.2340  0.4833 -0.2037
  149MOL0     C20000   9.535   7.267   7.834 -1.2008 -0.9795  0.1519
  149MOL0     C20001   9.600   7.268   7.698 -0.3404 -0.0830  0.0988
  149MOL0     C20002   9.496   7.241   7.580 -0.2318 -0.0279 -0.7432
  149MOL0     C20003   9.570   7.270   7.443 -0.0218  0.1946 -0.0158
  149MOL0     O20004   9.474   7.315   7.346 -0.6568 -0.3908  0.3367
  149MOL0     C20005   9.419   7.211   7.264  0.5550 -0.9440  0.7431
  149MOL0     C20006   9.381   7.263   7.149 -0.1347  0.1586  1.3806
  149MOL0     C20007   9.333   7.172   7.043 -1.2129 -0.2960  0.1802
  149MOL0     C20008   9.323   7.037   7.060  0.4794  0.4318  0.1619
  149MOL0     C20009   9.261   6.943   6.970  0.4276  0.1745 -0.7448
  149MOL0     O20010   9.235   6.987   6.842  0.0287  0.2831  0.0785
  149MOL0     C20011   9.160   6.926   6.753  0.6200 -0.3093 -0.2213
  149MOL0     C20012   9.088   7.004   6.658  0.0399 -0.4578  0.0894
  149MOL0     C20013   9.002   6.941   6.565 -0.6067 -0.4210 -0.0715
  149MOL0     C20014   8.984   6.800   6.561 -0.5610  0.3632 -0.2852
  149MOL0     O20015   8.880   6.745   6.485 -0.2223 -0.3325  0.1029
  149MOL0     C20016   8.779   6.669   6.547 -0.0140  0.7090 -0.2268
  149MOL0     C20017   8.664   6.658   6.443 -0.2973  0.2500  0.6159
  149MOL0     C20018   8.556   6.546   6.450  0.1270 -0.1695 -0.1148
  149MOL0     C20019   8.487   6.542   6.588  0.8584  0.7006 -0.2883
  149MOL0     C20020   8.418   6.674   6.622 -0.2920 -0.5867  0.7318
  149MOL0     C20021   8.411   6.680   6.770  0.0987 -0.8155 -0.7029
  149MOL0     C20022   8.334   6.565   6.849 -0.6717  0.1922  0.2218
  149MOL0     C20023   8.189   6.541   6.804 -0.7640 -0.3381  0.1374
  149MOL0    Cl20024   8.109   6.707   6.807  0.1291  0.2527 -0.0727
  149MOL0     C20025   9.058   6.725   6.652 -0.1457  0.5630  0.1443
  149MOL0     C20026   9.149   6.789   6.737  0.5577  0.1590 -0.9686
  149MOL0     O20027   9.242   6.828   7.018 -0.0292 -0.1992  0.3285
  149MOL0     C20028   9.354   6.994   7.194  0.4927  0.7643  0.5022
  149MOL0     C20029   9.413   7.079   7.288 -0.9588 -0.6582 -0.6432
  149MOL0     N20030   9.682   7.411   7.980  0.0915  0.5126  0.2791
  149MOL0     N20031   9.764   7.379   8.076 -0.5628  0.1993 -0.3204
  149MOL0     C20032  10.901   7.480   8.274 -0.0111  0.5879  0.7863
  149MOL0     C20033  11.008   7.538   8.334  0.0090 -0.8287  1.3386
  149MOL0     C20034  11.317   7.605   8.662  0.4410 -0.5472 -0.8916
  149MOL0     C20035  11.344   7.747   8.642  0.1481 -0.0505  0.2298
  149MOL0     C20036  11.457   7.817   8.697  0.1131  0.5268 -0.0763
  149MOL0     C20037  11.542   7.737   8.781  0.4239  0.1443 -0.0754
  149MOL0     O20038  11.628   7.819   8.852  0.0492 -0.5862  0.6589
  149MOL0     C20039  11.698   7.766   8.964  0.8306  0.2109  0.4276
  149MOL0     C20040  11.768   7.874   9.041 -0.2267  0.1676 -0.4256
  149MOL0     C20041  11.675   7.982   9.086  0.3290  0.5016 -0.0372
  149MOL0     C20042  11.741   8.079   9.174  0.3365 -1.6369 -1.1630
  149MOL0     C20043  11.634   8.179   9.223  0.0110  0.7808  0.3099
  149MOL0     C20044  11.549   8.254   9.276 -0.3503 -0.3737 -0.1942
  149MOL0     C20045  11.523   7.593   8.791  0.0659 -0.0281  0.2425
  149MOL0     C20046  11.417   7.528   8.731  0.1553  0.7570  0.5644
  149MOL0     C20047  11.414   7.379   8.746 -0.2956 -0.2668 -0.9347
  149MOL0     H20048  10.900   7.487   8.659 -1.0739  1.8320  0.7253
  149MOL0     H20049  10.704   7.415   8.550  0.7877  2.8304  2.8886
  149MOL0     H20050  10.579   7.202   8.267  0.1844  0.5228 -1.1736
  149MOL0     H20051  10.662   7.235   8.414 -1.4600 -0.2846 -0.0525
  149MOL0     H20052  10.519   7.464   8.428  2.8502 -1.2189 -2.8139
  149MOL0     H20053  10.434   7.310   8.474  0.4275 -0.8675  0.2071
  149MOL0     H20054  10.412   7.465   8.213  0.2191  3.0455  1.6971
  149MOL0     H20055  10.298   7.476   8.353  1.0789  0.9442  0.6214
  149MOL0     H20056  10.323   7.236   8.158 -2.2141  2.3434 -4.4786
  149MOL0     H20057  10.235   7.256   8.309  2.8083  0.6862  2.4801
  149MOL0     H20058  10.089   7.400   8.202  0.1443 -2.1259  1.0130
  149MOL0     H20059  10.209   7.463   8.094  1.1668  0.1521 -2.0833
  149MOL0     H20060  10.058   7.348   7.946  1.7936  1.5531 -0.2794
  149MOL0     H20061  10.201   7.242   7.955  1.4198  1.0831  1.9023
  149MOL0     H20062  10.093   7.094   8.125 -1.0577  1.1984  2.7920
  149MOL0     H20063  10.010   7.084   7.979 -1.6655 -2.1163  2.2023
  149MOL0     H20064   9.876   7.072   8.183 -1.5067  0.7072  1.3749
  149MOL0     H20065   9.934   7.230   8.229  0.1687  0.0802  0.7148
  149MOL0     H20066   9.686   7.078   7.972 -1.0717 -0.7148  0.2002
  149MOL0     H20067   9.491   7.168   7.852 -3.7053  0.0530  0.0775
  149MOL0     H20068   9.465   7.351   7.844  1.4686  1.4998 -0.6716
  149MOL0     H20069   9.640   7.369   7.691  0.8929 -0.4459  1.5036
  149MOL0     H20070   9.686   7.201   7.690  1.0488  1.4110  1.9474
  149MOL0     H20071   9.415   7.313   7.593  1.7315  1.7787  3.0029
  149MOL0     H20072   9.450   7.142   7.574  0.7396 -0.5902  0.5672
  149MOL0     H20073   9.640   7.187   7.426  0.9127  0.1598  3.3280
  149MOL0     H20074   9.625   7.364   7.449  0.9412 -0.3838  0.3320
  149MOL0     H20075   9.390   7.371   7.139  0.6900 -0.1590 -3.1551
  149MOL0     H20076   9.312   7.204   6.942  1.4976 -0.9186 -0.6780
  149MOL0     H20077   9.101   7.110   6.674  0.2437  0.1369 -3.2648
  149MOL0     H20078   8.949   7.001   6.492  1.1621 -1.1756 -2.0397
  149MOL0     H20079   8.813   6.569   6.576  1.4815  1.0070 -0.8874
  149MOL0     H20080   8.736   6.720   6.634 -0.9661 -1.3863  0.6280
  149MOL0     H20081   8.605   6.750   6.438  0.5335  0.7513 -0.6339
  149MOL0     H20082   8.700   6.657   6.340 -1.1751  1.2922  0.2795
  149MOL0     H20083   8.478   6.554   6.374 -1.4299  0.1053  1.4466
  149MOL0     H20084   8.605   6.452   6.424  1.0091  0.0877  0.5718
  149MOL0     H20085   8.558   6.522   6.668 -0.0056  0.7065  0.5059
  149MOL0     H20086   8.410   6.465   6.586  2.9721 -1.4872 -0.9873
  149MOL0     H20087   8.324   6.690   6.568 -1.7166 -5.6788  1.1957
  149MOL0     H20088   8.470   6.768   6.606 -1.5057  0.3222  1.8781
  149MOL0     H20089   8.514   6.682   6.808  0.5101  2.8331 -1.6932
  149MOL0     H20090   8.369   6.776   6.801  3.9851  0.6786  0.5761
  149MOL0     H20091   8.335   6.575   6.958 -0.5107 -4.9128  0.9073
  149MOL0     H20092   8.391   6.473   6.836  1.1002  0.8684  2.5021
  149MOL0     H20093   8.181   6.516   6.697  1.9352 -0.8986 -0.0001
  149MOL0     H20094   8.134   6.480   6.876 -0.8480 -0.7823 -0.2988
  149MOL0     H20095   9.044   6.618   6.656 -4.4373  0.9674  0.7480
  149MOL0     H20096   9.213   6.731   6.803 -2.0105 -0.5311  1.0769
  149MOL0     H20097   9.354   6.890   7.225  1.6661  0.5073 -0.2808
  149MOL0     H20098   9.446   7.030   7.379 -0.0664 -0.5714 -0.9016
  149MOL0     H20099  10.906   7.448   8.170 -3.0134 -0.8802  0.9819
  149MOL0     H20100  11.082   7.590   8.273 -1.9820  0.4492 -0.1087
  149MOL0     H20101  11.288   7.822   8.589  1.0045  0.5307  0.1329
  149MOL0     H20102  11.456   7.925   8.698 -1.6855  0.5331  0.1024
  149MOL0     H20103  11.768   7.690   8.927 -0.8477 -0.7126 -1.0068
  149MOL0     H20104  11.619   7.724   9.026  0.4167 -0.5187 -0.5596
  149MOL0     H20105  11.831   7.931   8.971 -0.4231 -1.3495 -1.9079
  149MOL0     H20106  11.831   7.821   9.113  1.3938  1.2782 -0.9734
  149MOL0     H20107  11.577   7.944   9.119 -0.4533  1.5375 -1.0603
  149MOL0     H20108  11.648   8.037   8.995  2.4124  1.1990 -0.2827
  149MOL0     H20109  11.798   8.039   9.258  1.2500  2.8731  0.6381
  149MOL0     H20110  11.832   8.127   9.135 -0.4980  2.2691  1.2152
  149MOL0     H20111  11.487   8.320   9.332 -3.2616 -4.9198  2.5538
  149MOL0     H20112  11.587   7.532   8.853 -0.9818 -2.7841 -1.2365
  149MOL0     H20113  11.494   7.321   8.794 -0.1531 -1.1325 -2.1472
  149MOL0     H20114  11.327   7.348   8.805 -0.1843  2.6131  0.9025
  149MOL0     H20115  11.401   7.343   8.644 -0.9987 -0.4165 -0.8010
  150MOL0     O20116   6.091  11.186   5.864  0.2901  0.9202  0.3873
  150MOL0     C20117   6.158  11.273   5.921 -0.1788 -0.1130  0.0875
  150MOL0     O20118   6.133  11.409   5.921  0.5296 -0.4756 -0.3201
  150MOL0     C20119   6.033  11.449   5.828 -0.7394  0.3999  0.0684
  150MOL0     C20120   5.931  11.523   5.885 -1.2363  0.8418  0.4189
  150MOL0     C20121   5.843  11.588   5.805 -0.0623  0.3446 -0.1750
  150MOL0     C20122   5.849  11.569   5.663  1.2199  0.2412 -0.3172
  150MOL0     O20123   5.767  11.625   5.570  0.3916 -0.2840 -0.2539
  150MOL0     C20124   5.623  11.644   5.603 -0.3467 -0.3452 -0.1849
  150MOL0     C20125   5.545  11.718   5.483 -0.2402 -0.5055 -0.0166
  150MOL0     C20126   5.393  11.721   5.498  0.5878 -0.0808  0.1980
  150MOL0     C20127   5.322  11.796   5.388  0.1610  0.0958 -1.1169
  150MOL0     C20128   5.177  11.787   5.391 -0.5537  0.1247  0.2949
  150MOL0     C20129   5.103  11.871   5.284 -0.3163 -0.2750 -0.2571
  150MOL0     C20130   4.956  11.832   5.283 -0.1787  0.5432 -0.2042
  150MOL0     C20131   4.923  11.690   5.242 -0.4787 -0.1598 -0.5634
  150MOL0     N20132   4.985  11.648   5.116 -0.1045 -0.4246 -1.1495
  150MOL0     C20133   4.959  11.713   4.994 -0.5708  0.0537 -0.0921
  150MOL0     C20134   5.041  11.646   4.908 -1.0153  0.1316  0.0182
  150MOL0     C20135   5.047  11.664   4.752  0.0699 -0.7394 -0.0711
  150MOL0     C20136   4.923  11.597   4.697 -0.7090  0.5256 -1.1775
  150MOL0     C20137   4.928  11.584   4.548 -0.2344  0.3865 -0.2679
  150MOL0     C20138   4.835  11.471   4.507  0.3490 -0.5182  0.1857
  150MOL0     O20139   4.800  11.505   4.372 -0.2879 -0.3979  0.0938
  150MOL0     C20140   4.701  11.424   4.328  0.6646  0.7057  0.2371
  150MOL0     C20141   4.665  11.454   4.194 -0.1172  0.0762  0.1573
  150MOL0     C20142   4.589  11.373   4.117 -0.3812  0.1699  1.1708
  150MOL0     C20143   4.545  11.245   4.156 -0.6452  0.0899 -0.1105
  150MOL0     C20144   4.492  11.151   4.057  0.8791  1.2779  0.1111
  150MOL0     O20145   4.493  11.019   4.082 -0.5125 -0.2950 -0.5143
  150MOL0     C20146   4.441  10.914   3.998 -0.3454 -0.0764 -0.0647
  150MOL0     C20147   4.312  10.868   4.020  0.0246  0.3598  0.2103
  150MOL0     C20148   4.258  10.769   3.939 -1.1342 -0.0143 -0.0585
  150MOL0     C20149   4.338  10.726   3.828  0.7076 -1.2855  0.0418
  150MOL0     O20150   4.290  10.635   3.729 -0.4549  0.2004  0.4330
  150MOL0     C20151   4.155  10.649   3.696  0.4931 -0.1497  0.4455
  150MOL0     C20152   4.127  10.537   3.598  0.3124 -0.1655 -0.3373
  150MOL0     C20153   3.980  10.476   3.630 -0.0857 -0.1230  0.2294
  150MOL0     C20154   3.884  10.530   3.529  0.5552 -0.4910  0.4346
  150MOL0     C20155   3.744  10.474   3.551  0.5288 -0.0038 -0.7551
  150MOL0     C20156   3.643  10.560   3.469 -0.7175  0.0899 -0.1642
  150MOL0     C20157   3.510  10.505   3.514  0.6703  0.0791 -0.1711
  150MOL0     C20158   3.407  10.597   3.448  0.0600 -0.1993 -0.5212
  150MOL0    Cl20159   3.382  10.707   3.583 -0.7848 -0.2050 -0.1219
  150MOL0     C20160   4.472  10.764   3.815 -0.1266  0.3224 -0.2449
  150MOL0     C20161   4.524  10.859   3.900  1.2996 -0.3157  0.9152
  150MOL0     O20162   4.446  11.200   3.957  0.1415 -0.7406  0.2085
  150MOL0     C20163   4.583  11.215   4.294 -0.7026 -0.1605 -1.0030
  150MOL0     C20164   4.655  11.300   4.385  0.1531 -0.5830 -0.0984
  150MOL0     N20165   5.126  11.567   4.979  0.7762  0.1905  0.1033
  150MOL0     N20166   5.092  11.565   5.099 -0.0050  0.4272 -0.3552
  150MOL0     C20167   5.953  11.495   5.615  0.1323 -0.2906  1.1583
  150MOL0     C20168   6.045  11.422   5.692 -1.0010  0.8547 -0.5058
  150MOL0     C20169   6.266  11.228   6.017 -0.2118 -0.4586  1.3951
  150MOL0     C20170   6.248  11.277   6.146 -0.3257 -1.4735  0.4645
  150MOL0     C20171   6.342  11.233   6.229 -0.1650  0.6151  0.6454
  150MOL0     C20172   6.425  11.130   6.204 -1.1621  0.0125 -0.2517
  150MOL0     O20173   6.499  11.073   6.296  0.1652  0.1212 -0.1035
  150MOL0     C20174   6.417  11.008   6.398  0.2916 -0.3538 -0.1466
  150MOL0     C20175   6.527  10.939   6.490  0.3536 -0.1794  0.4952
  150MOL0     C20176   6.623  11.037   6.560  0.5869 -0.4851 -0.4408
  150MOL0     C20177   6.578  11.092   6.697 -0.2190  0.4092  0.0828
  150MOL0     C20178   6.507  11.219   6.667 -0.9216 -0.1009 -0.0693
  150MOL0     C20179   6.458  11.324   6.626 -0.0361  0.3593 -0.4773
  150MOL0     C20180   6.430  11.066   6.080 -0.1716 -0.0585  0.2447
  150MOL0     C20181   6.351  11.126   5.981 -0.1781  0.6696  0.2888
  150MOL0     C20182   6.370  11.064   5.827  0.1255  0.1758 -0.0576
  150MOL0     H20183   5.928  11.531   5.993 -0.5795  0.6014  0.4567
  150MOL0     H20184   5.759  11.639   5.852 -1.8270 -1.6430 -0.9609
  150MOL0     H20185   5.580  11.544   5.613  0.3484 -0.5306  1.1124
  150MOL0     H20186   5.616  11.697   5.698 -0.9988 -3.0058  1.3419
  150MOL0     H20187   5.565  11.671   5.387  0.5917  0.9034 -0.5703
  150MOL0     H20188   5.580  11.822   5.474 -0.7758 -0.5450 -3.8652
  150MOL0     H20189   5.354  11.764   5.590  0.1223 -0.7483  0.3199
  150MOL0     H20190   5.354  11.619   5.491  1.9660 -0.5146 -2.6245
  150MOL0     H20191   5.346  11.900   5.413 -0.2625  0.2315 -1.2697
  150MOL0     H20192   5.361  11.754   5.294  2.1924 -2.9124  0.8886
  150MOL0     H20193   5.159  11.679   5.385  2.7416 -0.6729  2.1962
  150MOL0     H20194   5.137  11.818   5.488  0.7018  0.8491  0.6051
  150MOL0     H20195   5.129  11.973   5.316 -1.3270 -0.7286  2.2812
  150MOL0     H20196   5.128  11.849   5.180 -2.4309 -0.5957 -0.7280
  150MOL0     H20197   4.890  11.895   5.223 -0.7416 -0.3265 -0.5196
  150MOL0     H20198   4.921  11.837   5.387  1.0392  1.5386  0.1806
  150MOL0     H20199   4.943  11.619   5.323 -2.0927  1.2246  1.1208
  150MOL0     H20200   4.817  11.686   5.219 -0.5243 -2.6019 -0.2369
  150MOL0     H20201   4.901  11.801   4.967  1.3648  0.2570 -4.5241
  150MOL0     H20202   5.051  11.770   4.722  3.5189 -0.4196  1.1667
  150MOL0     H20203   5.142  11.619   4.725  0.7844 -0.4860  1.8624
  150MOL0     H20204   4.926  11.500   4.747 -0.9195  1.5509  0.9361
  150MOL0     H20205   4.832  11.634   4.746 -0.2634 -1.4333  1.3210
  150MOL0     H20206   5.024  11.551   4.507  0.3907 -0.1132  1.5097
  150MOL0     H20207   4.903  11.679   4.500  0.5042  0.3474 -0.7523
  150MOL0     H20208   4.747  11.477   4.572  0.9487  0.0301  0.9488
  150MOL0     H20209   4.891  11.377   4.510  1.7771  0.2796 -0.7479
  150MOL0     H20210   4.705  11.538   4.139 -0.3032  1.5636  2.1890
  150MOL0     H20211   4.582  11.406   4.014 -0.3881  2.0555  1.7325
  150MOL0     H20212   4.253  10.898   4.106 -0.9638  0.9095 -0.6368
  150MOL0     H20213   4.163  10.726   3.966 -0.9105  1.1406  3.0336
  150MOL0     H20214   4.099  10.637   3.789  0.3769  0.6242  0.4887
  150MOL0     H20215   4.128  10.744   3.648 -1.8346 -0.0209  1.8746
  150MOL0     H20216   4.151  10.541   3.491 -0.3302 -1.8315 -0.5785
  150MOL0     H20217   4.186  10.454   3.638  1.0779  0.2964 -0.4858
  150MOL0     H20218   4.003  10.370   3.620  1.1875 -0.6606  5.7042
  150MOL0     H20219   3.949  10.481   3.734 -0.7927 -0.6089  0.0480
  150MOL0     H20220   3.919  10.498   3.430 -0.2017 -0.9576  0.3083
  150MOL0     H20221   3.870  10.638   3.512 -1.4110 -0.4918  1.6899
  150MOL0     H20222   3.726  10.474   3.658  2.5159 -0.5706 -0.3768
  150MOL0     H20223   3.734  10.372   3.512 -0.5062 -0.2273  0.0468
  150MOL0     H20224   3.656  10.667   3.489 -0.0130  0.6585 -3.1579
  150MOL0     H20225   3.637  10.552   3.360 -0.1266 -0.4750 -0.1545
  150MOL0     H20226   3.504  10.499   3.623 -1.1505  1.9425 -0.0973
  150MOL0     H20227   3.488  10.404   3.478 -0.5051  0.3345 -0.2285
  150MOL0     H20228   3.439  10.655   3.361  1.4452 -2.3906 -1.5668
  150MOL0     H20229   3.316  10.540   3.426  0.6809 -0.5741 -2.3077
  150MOL0     H20230   4.514  10.719   3.726 -0.5933 -1.6866  0.4867
  150MOL0     H20231   4.630  10.881   3.888  0.6849  1.8437 -1.5133
  150MOL0     H20232   4.572  11.114   4.330  1.5988 -0.2910 -0.4886
  150MOL0     H20233   4.685  11.280   4.487  0.6635  2.4201  0.4171
  150MOL0     H20234   5.954  11.510   5.507 -0.9331  0.3367  1.2240
  150MOL0     H20235   6.124  11.370   5.638 -0.1564 -1.4598  2.6584
  150MOL0     H20236   6.164  11.341   6.169  1.2993  2.0233 -2.3065
  150MOL0     H20237   6.334  11.248   6.336 -1.1488 -1.1636  0.8713
  150MOL0     H20238   6.349  10.939   6.347  0.7100 -1.5320  0.8479
  150MOL0     H20239   6.361  11.088   6.448  1.0433  3.1326 -4.2891
  150MOL0     H20240   6.582  10.866   6.431  0.8845 -0.6158  1.4925
  150MOL0     H20241   6.479  10.885   6.572  1.7520  0.5472  1.8671
  150MOL0     H20242   6.640  11.121   6.492 -6.5239 -0.2029 -2.6812
  150MOL0     H20243   6.709  10.971   6.575  1.5165  0.9604  0.9193
  150MOL0     H20244   6.518  11.026   6.760  1.6714 -0.7200  0.7756
  150MOL0     H20245   6.671  11.119   6.746  0.0935  1.8944 -1.2512
  150MOL0     H20246   6.402  11.413   6.607  0.7562  1.2569  1.1704
  150MOL0     H20247   6.489  10.977   6.060 -2.0304 -0.9823 -1.5387
  150MOL0     H20248   6.298  10.982   5.820 -0.7014  0.0815  5.5642
  150MOL0     H20249   6.359  11.128   5.738  2.7782 -1.3175 -1.5917
  150MOL0     H20250   6.467  11.015   5.815 -0.5215 -1.4416  1.0532
  151MOL0     O20251  11.170  10.122   9.142 -0.1394  0.2664 -0.3022
  151MOL0     C20252  11.294  10.160   9.151  0.2663 -1.0633 -0.5965
  151MOL0     O20253  11.382  10.126   9.247  0.6693  0.7618  0.2408
  151MOL0     C20254  11.329  10.055   9.354  0.7711  1.2886  0.2022
  151MOL0     C20255  11.328  10.123   9.477  0.7361 -1.3576 -0.5610
  151MOL0     C20256  11.296  10.054   9.599 -1.3111  0.7921  0.0244
  151MOL0     C20257  11.260   9.922   9.603  1.0064 -0.1160  0.7696
  151MOL0     O20258  11.234   9.858   9.721 -0.2962  0.4088 -0.4619
  151MOL0     C20259  11.139   9.752   9.716  1.0229 -0.3090  0.5006
  151MOL0     C20260  11.110   9.711   9.862  1.0081 -0.0431  0.5176
  151MOL0     C20261  10.972   9.646   9.877  0.9403  0.3806  0.9525
  151MOL0     C20262  10.847   9.732   9.834 -0.0739  0.5586 -0.8369
  151MOL0     C20263  10.715   9.647   9.818 -1.0738 -0.0835 -0.1871
  151MOL0     C20264  10.593   9.713   9.764 -0.4029 -0.5106 -0.3814
  151MOL0     C20265  10.529   9.793   9.872  0.4352 -0.4315 -0.2305
  151MOL0     C20266  10.398   9.852   9.832 -0.5538 -0.3566 -0.2550
  151MOL0     N20267  10.374   9.966   9.916 -0.4530  0.1146 -0.0930
  151MOL0     C20268  10.381   9.981  10.053 -0.8379 -0.3866  0.8924
  151MOL0     C20269  10.370  10.122  10.062  1.5832  0.2356 -0.7698
  151MOL0     C20270  10.363  10.190  10.203 -0.9004 -0.0960 -0.0431
  151MOL0     C20271  10.457  10.323  10.211 -0.2842 -0.8044 -0.1534
  151MOL0     C20272  10.397  10.440  10.300  0.1338  1.1285  1.2035
  151MOL0     C20273  10.374  10.393  10.446 -0.5430  1.4448  0.6358
  151MOL0     O20274  10.287  10.482  10.507  0.0430 -0.8263 -0.7722
  151MOL0     C20275  10.329  10.591  10.575  0.0256  0.5102  0.1278
  151MOL0     C20276  10.441  10.665  10.547 -0.1303 -0.1385  0.3307
  151MOL0     C20277  10.459  10.791  10.612 -1.1094  0.5446  0.7866
  151MOL0     C20278  10.363  10.847  10.690  0.2554 -0.3603 -0.0341
  151MOL0     C20279  10.371  10.981  10.745  0.0117  1.0659 -0.2816
  151MOL0     O20280  10.465  11.074  10.688 -0.3062  0.4637 -0.9365
  151MOL0     C20281  10.408  11.202  10.677 -0.9435  0.4338 -0.5978
  151MOL0     C20282  10.376  11.259  10.557  0.8181  0.6239 -0.3677
  151MOL0     C20283  10.310  11.382  10.545 -0.7649  0.7757  0.1143
  151MOL0     C20284  10.298  11.456  10.664  0.0941 -0.8414  0.5072
  151MOL0     O20285  10.245  11.585  10.659 -0.5086 -0.3572 -0.3561
  151MOL0     C20286  10.333  11.694  10.667 -0.5499 -1.0103 -0.7868
  151MOL0     C20287  10.259  11.822  10.603  0.7092  0.3885  1.0090
  151MOL0     C20288  10.329  11.946  10.656  0.0499 -0.8234  0.5359
  151MOL0     C20289  10.454  11.994  10.593  0.6823 -0.2357  0.5202
  151MOL0     C20290  10.491  12.129  10.647 -1.0250  0.0163  0.1666
  151MOL0     C20291  10.604  12.191  10.559 -1.3485  0.8930 -0.6359
  151MOL0     C20292  10.676  12.307  10.624 -0.0989 -0.7410 -0.4092
  151MOL0     C20293  10.600  12.434  10.642 -0.3657  0.4199  0.3478
  151MOL0    Cl20294  10.677  12.572  10.557  0.1993 -0.6408  0.1259
  151MOL0     C20295  10.330  11.406  10.789  0.0890  0.0312  0.6847
  151MOL0     C20296  10.377  11.270  10.799 -0.1348 -0.8780 -0.6162
  151MOL0     O20297  10.286  11.009  10.828 -0.0597  0.3599 -0.7571
  151MOL0     C20298  10.253  10.766  10.729  0.6248  0.1678  0.2819
  151MOL0     C20299  10.239  10.644  10.665 -0.0920 -0.0843 -0.0311
  151MOL0     N20300  10.387  10.183   9.939 -0.0679 -0.4510 -0.1456
  151MOL0     N20301  10.369  10.091   9.856  0.4622  0.4553  0.0347
  151MOL0     C20302  11.232   9.865   9.468 -0.5972  0.0502  0.9426
  151MOL0     C20303  11.277   9.922   9.343  0.1744 -0.1014 -0.0226
  151MOL0     C20304  11.353  10.240   9.044  0.0249 -0.0670  0.8745
  151MOL0     C20305  11.494  10.255   9.028  0.0488 -0.1050 -0.4524
  151MOL0     C20306  11.548  10.336   8.936 -0.5200  0.5064 -0.7023
  151MOL0     C20307  11.476  10.411   8.852  0.7749 -0.2253 -0.3646
  151MOL0     O20308  11.521  10.472   8.741  0.1296  0.2646  0.1491
  151MOL0     C20309  11.664  10.480   8.714  0.4010  0.7869 -0.2948
  151MOL0     C20310  11.695  10.561   8.590  0.0891 -0.2125 -0.8547
  151MOL0     C20311  11.622  10.699   8.576 -0.2397  0.7487  0.4694
  151MOL0     C20312  11.646  10.803   8.687 -0.6477 -0.8232  0.1276
  151MOL0     C20313  11.569  10.922   8.673  0.5997  0.0815 -0.2915
  151MOL0     C20314  11.502  11.020   8.666 -0.2830  0.3671 -0.2826
  151MOL0     C20315  11.337  10.397   8.853 -0.4871  0.6005  0.1394
  151MOL0     C20316  11.281  10.322   8.957  0.5473 -0.7702 -1.6234
  151MOL0     C20317  11.130  10.345   8.979 -0.2824  0.0666 -0.0376
  151MOL0     H20318  11.374  10.221   9.484 -2.0671 -0.1115  2.2455
  151MOL0     H20319  11.312  10.095   9.698 -0.2383  0.4966 -0.0143
  151MOL0     H20320  11.054   9.791   9.660  2.5030 -0.9241 -2.3921
  151MOL0     H20321  11.168   9.659   9.664 -1.3858 -1.9677  1.9222
  151MOL0     H20322  11.102   9.797   9.928  3.5044  0.1178  0.6871
  151MOL0     H20323  11.188   9.649   9.906  0.5045 -1.2087 -0.1679
  151MOL0     H20324  10.967   9.597   9.975 -4.0823 -0.9940  0.3208
  151MOL0     H20325  10.968   9.559   9.811  2.5735  0.3050  0.9194
  151MOL0     H20326  10.838   9.814   9.905 -1.5020 -0.8345  0.6659
  151MOL0     H20327  10.877   9.780   9.740  1.4535  0.1010 -0.6168
  151MOL0     H20328  10.757   9.569   9.754 -1.4870 -0.2470 -0.2613
  151MOL0     H20329  10.685   9.590   9.907 -0.7865  0.5104  0.3021
  151MOL0     H20330  10.616   9.763   9.669 -3.5247 -1.5157 -1.8034
  151MOL0     H20331  10.520   9.638   9.734 -1.4647  0.2293  0.2988
  151MOL0     H20332  10.587   9.882   9.896  1.8267 -1.7956  1.8071
  151MOL0     H20333  10.525   9.731   9.962  2.6215 -0.3876 -0.0482
  151MOL0     H20334  10.384   9.864   9.725  0.1953  2.7977 -0.1088
  151MOL0     H20335  10.336   9.776   9.880 -2.1994  2.0608  1.6842
  151MOL0     H20336  10.398   9.914  10.136 -0.2582 -1.6741 -0.2144
  151MOL0     H20337  10.259  10.223  10.212 -0.6558  0.1663  2.8316
  151MOL0     H20338  10.372  10.117  10.284 -2.3863  1.6252  1.7977
  151MOL0     H20339  10.554  10.299  10.254 -0.7398  0.9371  2.0194
  151MOL0     H20340  10.481  10.364  10.112  2.3420  0.4230  0.9089
  151MOL0     H20341  10.295  10.453  10.264 -0.0181  0.7421  1.4859
  151MOL0     H20342  10.472  10.519  10.291  3.1501 -1.3933  1.8796
  151MOL0     H20343  10.469  10.382  10.500  1.5590 -0.7127 -3.1099
  151MOL0     H20344  10.337  10.290  10.453 -2.1013  1.7343 -2.1208
  151MOL0     H20345  10.517  10.648  10.471  1.1269  1.6921  1.1326
  151MOL0     H20346  10.554  10.840  10.599 -0.1120 -1.5061 -0.0533
  151MOL0     H20347  10.379  11.206  10.462  0.2811  3.2494 -1.9583
  151MOL0     H20348  10.279  11.426  10.451  3.4769 -1.1570 -2.4896
  151MOL0     H20349  10.365  11.713  10.770  0.0491 -1.9113 -0.7963
  151MOL0     H20350  10.425  11.687  10.608  0.3038  2.9023 -0.2192
  151MOL0     H20351  10.269  11.824  10.494  2.0042  3.2479  1.0688
  151MOL0     H20352  10.154  11.814  10.633  0.4088 -2.6358 -0.5464
  151MOL0     H20353  10.244  12.015  10.655 -1.6804 -2.8471  0.8904
  151MOL0     H20354  10.355  11.933  10.761  4.0672  0.6445 -0.0852
  151MOL0     H20355  10.431  12.005  10.486  0.0870  0.6613  0.7274
  151MOL0     H20356  10.544  11.933  10.606  3.5874  3.2694 -1.3554
  151MOL0     H20357  10.523  12.123  10.751 -0.2456 -0.0086 -0.0632
  151MOL0     H20358  10.400  12.188  10.661 -0.4734  0.5476  1.6209
  151MOL0     H20359  10.676  12.111  10.548 -0.3883  1.8165 -1.2993
  151MOL0     H20360  10.569  12.225  10.461 -0.8925  1.8879 -0.4731
  151MOL0     H20361  10.777  12.332  10.588  1.2749 -1.2715  2.7791
  151MOL0     H20362  10.698  12.273  10.725 -0.0767 -1.0017 -0.5015
  151MOL0     H20363  10.494  12.423  10.620  0.2778 -0.7292 -2.6588
  151MOL0     H20364  10.602  12.444  10.751  1.3528 -2.9678  0.7539
  151MOL0     H20365  10.316  11.466  10.879 -1.9513  2.9661 -1.4192
  151MOL0     H20366  10.389  11.216  10.892 -1.6404  1.2392  0.8795
  151MOL0     H20367  10.181  10.801  10.803 -0.2255 -1.7002  0.4026
  151MOL0     H20368  10.148  10.592  10.694  0.7659 -0.7341  1.6480
  151MOL0     H20369  11.193   9.764   9.468  0.2916 -0.3041  1.9921
  151MOL0     H20370  11.260   9.874   9.247 -3.4500 -2.3754  1.5216
  151MOL0     H20371  11.563  10.208   9.098  0.0393  0.9679  0.2986
  151MOL0     H20372  11.657  10.343   8.937 -0.5902  1.7565  0.8179
  151MOL0     H20373  11.710  10.383   8.692  0.4816  0.6443  0.4851
  151MOL0     H20374  11.715  10.524   8.800 -1.0053  1.4994  0.2032
  151MOL0     H20375  11.686  10.501   8.498 -0.0420  2.0525 -2.3907
  151MOL0     H20376  11.803  10.571   8.603  0.6059 -4.2839 -0.5281
  151MOL0     H20377  11.517  10.675   8.557  0.4367 -1.8227 -0.4165
  151MOL0     H20378  11.655  10.746   8.483 -0.4886 -2.8478 -1.6254
  151MOL0     H20379  11.656  10.775   8.792  2.7590 -0.0211  0.1248
  151MOL0     H20380  11.751  10.831   8.672  0.6605 -3.8027  2.7297
  151MOL0     H20381  11.440  11.107   8.674 -1.1976 -0.3700  1.1201
  151MOL0     H20382  11.277  10.449   8.780 -1.0865  0.8121  0.7705
  151MOL0     H20383  11.113  10.386   9.079 -2.3568 -1.0928  0.1419
  151MOL0     H20384  11.105  10.421   8.904 -0.7155  1.6500  1.6403
  151MOL0     H20385  11.060  10.263   8.964  0.4447 -0.4876 -0.4174
  152MOL0     O20386   0.935   0.677   7.098 -0.3784 -0.4198 -0.4924
  152MOL0     C20387   0.968   0.632   6.993 -1.3046 -0.0521  0.6167
  152MOL0     O20388   1.067   0.694   6.914  0.8254 -0.3730  1.3096
  152MOL0     C20389   1.131   0.800   6.981 -0.2892  0.3562 -1.1340
  152MOL0     C20390   1.066   0.927   6.993  0.5437 -0.9647  0.4460
  152MOL0     C20391   1.136   1.032   7.060  0.1139  1.0090  0.7124
  152MOL0     C20392   1.248   1.003   7.138  1.1092  0.4552  0.6522
  152MOL0     O20393   1.288   1.094   7.227  0.3984  0.1498  0.3237
  152MOL0     C20394   1.317   1.050   7.357 -0.0420  0.2961 -0.2585
  152MOL0     C20395   1.189   1.070   7.436  0.1922 -0.3027 -1.0397
  152MOL0     C20396   1.219   1.057   7.587  0.3096  0.2388 -0.7769
  152MOL0     C20397   1.228   0.909   7.636 -0.5557 -0.2989 -0.9951
  152MOL0     C20398   1.248   0.879   7.788  0.3573 -0.0320  1.0938
  152MOL0     C20399   1.280   0.732   7.833  0.2212 -0.8090  0.5325
  152MOL0     C20400   1.292   0.753   7.990 -0.1542 -0.3138  0.3758
  152MOL0     C20401   1.292   0.608   8.050 -0.5757 -1.1155 -0.3101
  152MOL0     N20402   1.326   0.631   8.192 -0.4561 -0.3646 -0.6754
  152MOL0     C20403   1.255   0.675   8.304 -0.8184 -0.9788  0.0162
  152MOL0     C20404   1.343   0.718   8.392 -0.6160 -0.2722 -0.1808
  152MOL0     C20405   1.310   0.801   8.526 -0.1237  0.7884  0.4261
  152MOL0     C20406   1.292   0.720   8.654 -0.4993 -0.9221 -0.1310
  152MOL0     C20407   1.210   0.594   8.640  0.1719 -0.0440 -1.0683
  152MOL0     C20408   1.165   0.538   8.771  0.8160  0.3283 -0.1585
  152MOL0     O20409   1.055   0.444   8.754  0.8032  0.0115  0.2884
  152MOL0     C20410   1.003   0.385   8.867 -0.2727 -0.9220  0.0650
  152MOL0     C20411   0.945   0.463   8.973 -0.7077 -0.0443 -0.2033
  152MOL0     C20412   0.888   0.402   9.076  0.2314 -0.1374 -0.3207
  152MOL0     C20413   0.890   0.263   9.093 -0.4131 -0.3469 -0.0768
  152MOL0     C20414   0.816   0.196   9.204 -0.9512 -0.5354  0.1160
  152MOL0     O20415   0.845   0.070   9.215  0.1937  0.5488  0.0153
  152MOL0     C20416   0.748  -0.013   9.266  0.4077 -0.8383  1.0622
  152MOL0     C20417   0.781  -0.109   9.360  0.2102  0.6356 -0.9547
  152MOL0     C20418   0.678  -0.170   9.428  0.3564 -0.1192 -0.3619
  152MOL0     C20419   0.539  -0.135   9.413 -1.3405  0.1976 -0.5969
  152MOL0     O20420   0.437  -0.163   9.502 -0.3654 -0.2071  0.1706
  152MOL0     C20421   0.466  -0.246   9.617 -0.4799  0.4202 -0.1321
  152MOL0     C20422   0.328  -0.282   9.684 -0.5341 -0.5771  0.0926
  152MOL0     C20423   0.276  -0.178   9.778  0.1929  0.2395 -0.5070
  152MOL0     C20424   0.130  -0.209   9.821  0.0979  0.9769 -0.6111
  152MOL0     C20425   0.066  -0.106   9.914 -0.7099  0.1258  0.3855
  152MOL0     C20426  -0.086  -0.134   9.936 -0.0605 -0.3032  0.3150
  152MOL0     C20427  -0.156  -0.024  10.022 -0.4515 -0.0777  0.3859
  152MOL0     C20428  -0.305  -0.074  10.045  0.4590 -1.1251  1.0614
  152MOL0    Cl20429  -0.383   0.059  10.119 -0.2600  0.1259 -0.3508
  152MOL0     C20430   0.516  -0.045   9.312  0.4628  0.6132 -0.1568
  152MOL0     C20431   0.616   0.008   9.225  0.3792  0.3076 -0.4936
  152MOL0     O20432   0.737   0.262   9.275 -0.0600 -0.9898 -0.5652
  152MOL0     C20433   0.956   0.185   8.992  0.0496 -0.7685  0.2792
  152MOL0     C20434   1.018   0.247   8.878  0.1994 -0.1352  0.5723
  152MOL0     N20435   1.467   0.676   8.348 -0.2016 -0.2086  0.1214
  152MOL0     N20436   1.456   0.623   8.232  0.5315 -0.1324  0.2140
  152MOL0     C20437   1.312   0.876   7.120  0.6082  0.0552 -0.0283
  152MOL0     C20438   1.256   0.779   7.037 -0.3135 -0.3793  0.1019
  152MOL0     C20439   0.913   0.504   6.947  0.8947  0.2475 -0.5015
  152MOL0     C20440   0.861   0.407   7.046 -0.2163 -0.2081  0.0998
  152MOL0     C20441   0.856   0.275   7.009 -0.1457  0.8964  0.5515
  152MOL0     C20442   0.893   0.230   6.885 -0.0670  0.7445  0.9335
  152MOL0     O20443   0.873   0.103   6.832 -0.1472  0.2668  0.1298
  152MOL0     C20444   0.795   0.003   6.903 -1.4497 -0.1603 -0.7302
  152MOL0     C20445   0.640   0.014   6.900 -0.2120 -0.0028  0.0240
  152MOL0     C20446   0.564  -0.083   6.991 -0.0166 -0.0976  0.3598
  152MOL0     C20447   0.585  -0.228   6.937 -0.6406  1.4149  0.5595
  152MOL0     C20448   0.472  -0.322   6.954  0.9143  0.1853 -0.6866
  152MOL0     C20449   0.381  -0.403   6.969 -0.2762  0.0744 -0.3413
  152MOL0     C20450   0.911   0.327   6.788 -0.4801 -0.1025  0.1225
  152MOL0     C20451   0.916   0.464   6.813 -0.9385  0.9876  0.8209
  152MOL0     C20452   0.988   0.543   6.700 -0.2119  0.1907  0.3599
  152MOL0     H20453   0.972   0.947   6.943  0.8708 -0.3460  0.0506
  152MOL0     H20454   1.099   1.131   7.085 -0.9738  1.2702 -1.6810
  152MOL0     H20455   1.371   0.955   7.371  0.7549  0.5829 -1.2137
  152MOL0     H20456   1.382   1.125   7.402  0.2556 -0.3249  0.3736
  152MOL0     H20457   1.109   1.000   7.413 -0.8925 -0.4678  2.5496
  152MOL0     H20458   1.140   1.167   7.425 -2.6336 -1.4283  0.6112
  152MOL0     H20459   1.143   1.116   7.638 -1.5329 -2.2170 -0.4753
  152MOL0     H20460   1.318   1.099   7.607  0.1299  0.7066 -0.8639
  152MOL0     H20461   1.141   0.846   7.617 -1.2465  0.9107 -1.9693
  152MOL0     H20462   1.301   0.855   7.575  0.1620  0.9258 -1.2453
  152MOL0     H20463   1.320   0.957   7.814  0.4206  1.1710 -2.1487
  152MOL0     H20464   1.151   0.902   7.834 -0.5373  2.8551 -1.8194
  152MOL0     H20465   1.191   0.671   7.815  0.0680 -1.0719  1.9934
  152MOL0     H20466   1.371   0.687   7.792 -0.6148 -2.4148  0.3400
  152MOL0     H20467   1.210   0.813   8.030  0.0986  0.2806  0.0212
  152MOL0     H20468   1.391   0.799   7.993  1.2428 -2.9623 -0.7172
  152MOL0     H20469   1.198   0.554   8.034  0.4175 -3.4371  1.2333
  152MOL0     H20470   1.366   0.552   7.992 -0.5334  0.0141 -1.4082
  152MOL0     H20471   1.147   0.683   8.315 -0.8058 -2.1893  1.3608
  152MOL0     H20472   1.386   0.879   8.537  1.8420 -0.9232 -0.3570
  152MOL0     H20473   1.212   0.841   8.501 -0.1112 -0.5999 -2.1704
  152MOL0     H20474   1.390   0.698   8.696 -0.4622  0.5675  0.6398
  152MOL0     H20475   1.243   0.787   8.725  2.8092  0.7334  0.7907
  152MOL0     H20476   1.275   0.521   8.590  0.7466 -1.4115  1.5040
  152MOL0     H20477   1.122   0.613   8.578 -0.6802  0.5320  0.2940
  152MOL0     H20478   1.137   0.620   8.838  0.2050  2.7022 -3.0833
  152MOL0     H20479   1.249   0.478   8.806  0.5226 -1.4137 -2.2401
  152MOL0     H20480   0.963   0.570   8.967 -0.8058 -0.0464 -0.5420
  152MOL0     H20481   0.850   0.456   9.162 -0.6322  0.7142 -1.2146
  152MOL0     H20482   0.884  -0.114   9.394  0.3001  1.2402 -1.1250
  152MOL0     H20483   0.702  -0.245   9.502 -3.0373  0.1054  1.1449
  152MOL0     H20484   0.522  -0.340   9.605 -0.8217  0.2969 -0.7643
  152MOL0     H20485   0.530  -0.194   9.690  0.2828 -0.0006 -0.4823
  152MOL0     H20486   0.250  -0.296   9.609 -1.2781  1.3183  0.4468
  152MOL0     H20487   0.339  -0.381   9.729  1.5621 -0.1673  0.6179
  152MOL0     H20488   0.336  -0.149   9.865  0.4437 -2.6272  0.3499
  152MOL0     H20489   0.282  -0.087   9.718  0.1083  0.6064  0.0263
  152MOL0     H20490   0.125  -0.311   9.860  1.6083 -0.4840 -3.8899
  152MOL0     H20491   0.074  -0.204   9.728 -0.0737  2.1842 -0.4696
  152MOL0     H20492   0.075  -0.009   9.864  1.1870 -1.1480 -1.9914
  152MOL0     H20493   0.121  -0.112  10.009  1.1380  0.1114 -0.6286
  152MOL0     H20494  -0.136  -0.143   9.838 -0.9985 -0.3492  0.7858
  152MOL0     H20495  -0.096  -0.227   9.992 -1.3571 -0.9642 -0.9362
  152MOL0     H20496  -0.156   0.071   9.968  0.5654  2.6274  4.6946
  152MOL0     H20497  -0.106  -0.017  10.119  2.2668 -2.2285 -0.7191
  152MOL0     H20498  -0.342  -0.086   9.943 -0.7613  0.7941  1.2138
  152MOL0     H20499  -0.319  -0.168  10.099 -0.9760 -1.4377  0.1791
  152MOL0     H20500   0.414  -0.011   9.297  0.3816  1.0562  1.2604
  152MOL0     H20501   0.572   0.076   9.154 -0.6167 -0.1836 -0.3610
  152MOL0     H20502   0.944   0.077   8.991  1.6013 -0.9550 -1.0140
  152MOL0     H20503   1.058   0.185   8.799  3.3364  0.5102  1.5277
  152MOL0     H20504   1.404   0.839   7.164  1.4719  0.4622 -1.4089
  152MOL0     H20505   1.302   0.682   7.030  1.6256  0.3782  1.6140
  152MOL0     H20506   0.836   0.443   7.145  0.9193  1.3352 -0.1306
  152MOL0     H20507   0.833   0.196   7.081 -0.6636  1.0501  0.5656
  152MOL0     H20508   0.844  -0.012   7.000  0.5382 -1.3830 -1.8598
  152MOL0     H20509   0.822  -0.091   6.855  3.4090  0.7752 -0.2987
  152MOL0     H20510   0.604   0.000   6.798  0.1193 -2.1883  0.1463
  152MOL0     H20511   0.612   0.118   6.918 -0.0958 -0.0410  0.4264
  152MOL0     H20512   0.457  -0.060   6.990 -0.0653 -0.3225  0.3464
  152MOL0     H20513   0.604  -0.076   7.093  1.7322  1.0746 -0.3585
  152MOL0     H20514   0.575  -0.231   6.828  1.8327  1.6842  0.2748
  152MOL0     H20515   0.687  -0.259   6.964  0.7450  4.6807 -0.3702
  152MOL0     H20516   0.287  -0.454   6.959 -2.1950  3.1539  0.5274
  152MOL0     H20517   0.931   0.285   6.690  0.9149 -1.4968  0.9472
  152MOL0     H20518   0.979   0.501   6.599  3.3649 -0.5087  0.2171
  152MOL0     H20519   0.941   0.641   6.683 -3.2357 -0.6994  2.6523
  152MOL0     H20520   1.095   0.563   6.714  0.1935 -1.9896  0.6147
  153MOL0     O20521   8.879   3.609   0.348  0.3728 -0.0892  0.3907
  153MOL0     C20522   8.875   3.724   0.316  0.3169  0.3330 -0.0320
  153MOL0     O20523   8.817   3.764   0.193 -0.1519 -0.2777  0.1654
  153MOL0     C20524   8.824   3.891   0.136 -0.8898  0.9077  0.0290
  153MOL0     C20525   8.708   3.941   0.082 -0.1944  0.3345 -0.3228
  153MOL0     C20526   8.717   4.072   0.033 -0.4965  0.5718  0.6788
  153MOL0     C20527   8.841   4.144   0.034  1.0714 -0.4038 -0.3693
  153MOL0     O20528   8.850   4.280  -0.003  0.5518  0.8884  0.1613
  153MOL0     C20529   8.753   4.363   0.061  0.8645  0.0265 -1.3933
  153MOL0     C20530   8.746   4.502  -0.007  0.2912  0.0385 -0.1754
  153MOL0     C20531   8.867   4.595   0.018  1.3465  0.5719  0.3392
  153MOL0     C20532   8.864   4.709  -0.090 -0.5497  0.3206 -0.1319
  153MOL0     C20533   9.016   4.747  -0.135 -1.6056 -0.3242  0.1353
  153MOL0     C20534   9.102   4.830  -0.043  0.2787 -0.4380  0.0760
  153MOL0     C20535   9.236   4.862  -0.115 -0.3463  0.3487 -0.6568
  153MOL0     C20536   9.331   4.745  -0.148 -0.3339 -0.0098 -0.1481
  153MOL0     N20537   9.460   4.797  -0.191  1.1092  0.2153 -0.4909
  153MOL0     C20538   9.570   4.782  -0.106  0.4756 -0.2147 -0.3991
  153MOL0     C20539   9.677   4.822  -0.182  0.1282 -1.3026 -0.3126
  153MOL0     C20540   9.829   4.837  -0.158  1.3449  0.2936 -0.9139
  153MOL0     C20541   9.889   4.831  -0.022  0.5318  0.2612 -0.5942
  153MOL0     C20542   9.806   4.917   0.087 -0.2708  0.0630  1.0464
  153MOL0     C20543   9.880   4.922   0.218 -0.0034 -1.0658 -0.5037
  153MOL0     O20544   9.807   5.004   0.314  0.1319 -0.8119  0.4381
  153MOL0     C20545   9.799   5.142   0.292  1.0599 -0.4616  0.5289
  153MOL0     C20546   9.712   5.214   0.371 -0.4006 -0.5933 -0.3220
  153MOL0     C20547   9.715   5.354   0.367  0.1003  0.2263  0.1750
  153MOL0     C20548   9.770   5.424   0.257  0.6541 -0.2659  0.3875
  153MOL0     C20549   9.749   5.570   0.241 -0.1140 -0.2779 -0.1694
  153MOL0     O20550   9.769   5.616   0.108 -0.8028 -0.4178 -0.5049
  153MOL0     C20551   9.790   5.752   0.083  0.0275 -0.1465 -0.0892
  153MOL0     C20552   9.717   5.795  -0.023  0.2606 -0.9339  0.1443
  153MOL0     C20553   9.730   5.918  -0.071 -0.1061  0.2342  0.4509
  153MOL0     C20554   9.817   6.006  -0.002 -0.3587 -0.7923  0.9724
  153MOL0     O20555   9.837   6.139  -0.027 -0.4017 -0.2140  0.4924
  153MOL0     C20556   9.778   6.201  -0.143  0.7591  0.6106  1.3247
  153MOL0     C20557   9.822   6.348  -0.140  0.7816 -0.0187  0.1491
  153MOL0     C20558   9.735   6.441  -0.229  0.5118 -0.2433  0.5592
  153MOL0     C20559   9.590   6.437  -0.196  1.1342 -0.4226 -0.9913
  153MOL0     C20560   9.518   6.569  -0.247 -0.3976  1.1449 -0.7747
  153MOL0     C20561   9.363   6.568  -0.230  0.0037 -0.6074 -0.5819
  153MOL0     C20562   9.324   6.574  -0.079  0.1414  0.2360  0.2557
  153MOL0     C20563   9.186   6.636  -0.052  0.8048 -1.0363 -0.5433
  153MOL0    Cl20564   9.088   6.528   0.043  0.2037 -0.0754  0.0668
  153MOL0     C20565   9.885   5.960   0.111 -0.0650 -0.4373 -0.3617
  153MOL0     C20566   9.869   5.835   0.155  0.3972  0.4477 -0.4371
  153MOL0     O20567   9.718   5.647   0.337 -0.0445 -0.0466  0.2793
  153MOL0     C20568   9.856   5.360   0.165 -0.0731  0.0049 -0.1468
  153MOL0     C20569   9.866   5.212   0.184  0.2751  0.5009  0.0618
  153MOL0     N20570   9.627   4.845  -0.314 -0.5977 -0.6287 -0.1560
  153MOL0     N20571   9.501   4.822  -0.321 -0.3698 -0.2291  0.2447
  153MOL0     C20572   8.942   4.098   0.119 -0.3667  0.4272 -0.4084
  153MOL0     C20573   8.940   3.960   0.150 -0.3526 -0.6819  0.8979
  153MOL0     C20574   8.898   3.828   0.420 -0.4403  0.0982 -0.8958
  153MOL0     C20575   8.802   3.918   0.448  0.3817 -0.1598 -0.8921
  153MOL0     C20576   8.819   4.017   0.547 -0.4308  0.6116  0.6952
  153MOL0     C20577   8.941   4.033   0.612  0.2343 -0.9716  0.5302
  153MOL0     O20578   8.985   4.132   0.686  0.2789 -0.5855 -0.3813
  153MOL0     C20579   9.053   4.242   0.627  0.2269  0.2915  0.3292
  153MOL0     C20580   8.985   4.284   0.492  0.7866 -0.2173 -0.4730
  153MOL0     C20581   9.011   4.431   0.452 -0.2488 -0.0180 -0.5450
  153MOL0     C20582   9.156   4.464   0.418  0.2170 -0.0781  1.1218
  153MOL0     C20583   9.146   4.598   0.366  0.3569  0.8841 -0.3630
  153MOL0     C20584   9.169   4.715   0.335  0.1582  0.0250 -0.4136
  153MOL0     C20585   9.043   3.941   0.580  0.0234 -1.1086  0.7172
  153MOL0     C20586   9.016   3.837   0.492 -0.7619 -0.6167  0.7567
  153MOL0     C20587   9.133   3.749   0.453 -0.4742  0.5837  0.8581
  153MOL0     H20588   8.629   3.875   0.049  1.2226 -2.9163  2.1913
  153MOL0     H20589   8.626   4.118  -0.003 -1.7204 -1.3141  1.2271
  153MOL0     H20590   8.653   4.322   0.079  0.8579  0.3295 -0.7133
  153MOL0     H20591   8.800   4.378   0.158  1.5413 -1.4983 -1.4462
  153MOL0     H20592   8.651   4.548   0.020  0.5284  1.6548 -1.9049
  153MOL0     H20593   8.729   4.491  -0.114 -3.1974 -0.5713  0.3317
  153MOL0     H20594   8.951   4.529  -0.003  1.8305  0.6256  1.9640
  153MOL0     H20595   8.873   4.620   0.125  0.1287 -0.9493  0.8155
  153MOL0     H20596   8.816   4.677  -0.183  0.7396 -1.8670 -0.1328
  153MOL0     H20597   8.802   4.794  -0.061 -1.4666 -0.5599  0.5571
  153MOL0     H20598   9.082   4.662  -0.159 -0.6589  0.2965  0.4906
  153MOL0     H20599   9.011   4.807  -0.226  0.7745  0.1936  0.2654
  153MOL0     H20600   9.045   4.921  -0.020 -1.0723 -1.7806  2.5391
  153MOL0     H20601   9.115   4.768   0.047  0.6747  2.2480  1.9703
  153MOL0     H20602   9.296   4.933  -0.057  1.2801 -1.0282 -0.5860
  153MOL0     H20603   9.224   4.913  -0.212 -1.6074  0.0960 -0.6440
  153MOL0     H20604   9.335   4.674  -0.065  1.3138  1.0169  0.7059
  153MOL0     H20605   9.289   4.682  -0.227  0.5898 -0.4563 -0.2867
  153MOL0     H20606   9.581   4.756  -0.002 -1.0752 -0.6059 -0.3166
  153MOL0     H20607   9.876   4.757  -0.215 -1.3609 -0.2003 -2.6372
  153MOL0     H20608   9.864   4.927  -0.209 -0.6706  1.8035  0.2042
  153MOL0     H20609   9.895   4.728   0.015  0.4586  0.3092 -0.4470
  153MOL0     H20610   9.993   4.867  -0.023  0.0446  1.8856  1.3505
  153MOL0     H20611   9.714   4.865   0.113 -0.5056 -0.4587 -0.6702
  153MOL0     H20612   9.777   5.007   0.031 -1.6913 -1.3723 -0.6345
  153MOL0     H20613   9.986   4.950   0.213 -0.4188  0.9019  0.4911
  153MOL0     H20614   9.880   4.818   0.250  1.7734 -1.4892 -1.6932
  153MOL0     H20615   9.657   5.157   0.445  0.2717  1.0505  1.5438
  153MOL0     H20616   9.653   5.406   0.440  1.3503  1.2901  0.4950
  153MOL0     H20617   9.663   5.716  -0.074 -1.3240  0.2776 -0.1443
  153MOL0     H20618   9.665   5.953  -0.150 -0.7741 -1.8126  0.0471
  153MOL0     H20619   9.821   6.148  -0.229 -1.2922 -0.8382  1.0996
  153MOL0     H20620   9.670   6.183  -0.140  0.9715 -0.7854  1.8990
  153MOL0     H20621   9.795   6.378  -0.038  0.4119 -0.7508  0.2648
  153MOL0     H20622   9.928   6.359  -0.166  0.1705 -0.3786 -2.7902
  153MOL0     H20623   9.784   6.537  -0.210  1.2759  0.0758 -2.4715
  153MOL0     H20624   9.759   6.408  -0.331  0.9314 -3.0865  1.4772
  153MOL0     H20625   9.575   6.425  -0.088 -1.8025 -0.0233 -1.2612
  153MOL0     H20626   9.537   6.358  -0.250 -0.5482 -0.3182  0.3859
  153MOL0     H20627   9.520   6.580  -0.355  1.3610 -2.8282 -1.3242
  153MOL0     H20628   9.558   6.660  -0.202 -0.8784 -0.2287  2.8579
  153MOL0     H20629   9.316   6.649  -0.287 -2.7913  0.3549  2.7018
  153MOL0     H20630   9.326   6.480  -0.281 -0.0489 -3.5072  3.9278
  153MOL0     H20631   9.404   6.632  -0.032 -0.2930  0.1869  1.0746
  153MOL0     H20632   9.317   6.476  -0.031  2.4899 -0.7547 -1.2589
  153MOL0     H20633   9.201   6.724   0.012  1.0848 -1.8922  0.5917
  153MOL0     H20634   9.147   6.664  -0.151 -1.1667 -1.8664 -0.0435
  153MOL0     H20635   9.957   6.025   0.160 -0.3242  1.0507 -1.8732
  153MOL0     H20636   9.932   5.796   0.235 -3.5952  0.6047  3.0918
  153MOL0     H20637   9.920   5.409   0.093  0.2731 -1.4366 -0.8627
  153MOL0     H20638   9.935   5.152   0.125 -1.2074  0.0786 -1.3179
  153MOL0     H20639   9.028   4.160   0.142  1.1157  0.0491 -4.1889
  153MOL0     H20640   9.034   3.912   0.178  0.7762  0.1203 -1.2167
  153MOL0     H20641   8.712   3.920   0.386  1.0954 -2.3744 -2.1387
  153MOL0     H20642   8.740   4.085   0.579 -1.6183  0.5447 -1.8575
  153MOL0     H20643   9.151   4.202   0.600  1.1018  0.1651  3.3470
  153MOL0     H20644   9.060   4.329   0.693 -1.8374  0.8438 -0.0929
  153MOL0     H20645   8.876   4.281   0.506  0.7674 -0.7203 -0.7205
  153MOL0     H20646   9.008   4.221   0.406  0.1134 -0.5860 -0.3912
  153MOL0     H20647   8.988   4.496   0.537  0.6804  2.2785 -1.9561
  153MOL0     H20648   8.938   4.466   0.378 -1.1142 -2.5677 -0.9802
  153MOL0     H20649   9.220   4.460   0.506 -1.0973  2.0097  2.2463
  153MOL0     H20650   9.189   4.406   0.332 -0.3086  0.4783  0.5282
  153MOL0     H20651   9.167   4.811   0.289 -1.5223 -0.6488 -1.8507
  153MOL0     H20652   9.131   3.931   0.643 -0.3367 -1.5912  1.1604
  153MOL0     H20653   9.227   3.803   0.467 -0.2295  0.0345  1.3559
  153MOL0     H20654   9.147   3.651   0.501  0.1918 -1.5794 -3.3292
  153MOL0     H20655   9.125   3.722   0.348 -3.2463 -1.0743  1.3730
  154MOL0     O20656  11.207   9.560   4.923 -0.1851  0.1108 -0.0341
  154MOL0     C20657  11.146   9.537   4.817 -0.0153 -0.1454 -1.0686
  154MOL0     O20658  11.169   9.430   4.736  0.6151 -0.8043 -0.1325
  154MOL0     C20659  11.272   9.347   4.770  0.7364  0.1642 -0.2807
  154MOL0     C20660  11.240   9.217   4.801 -0.5761  0.1032 -0.2651
  154MOL0     C20661  11.335   9.124   4.819  0.2669 -1.1879  1.1140
  154MOL0     C20662  11.468   9.159   4.788 -0.1007 -0.2233 -0.7992
  154MOL0     O20663  11.570   9.077   4.821 -0.5570  0.4426  0.0060
  154MOL0     C20664  11.558   9.029   4.955 -0.0700  0.1837  0.6577
  154MOL0     C20665  11.706   8.988   5.003  0.0701  0.8487 -0.3263
  154MOL0     C20666  11.712   8.921   5.140  1.0240 -0.4170  0.5353
  154MOL0     C20667  11.689   8.766   5.129 -0.8998 -0.1819  0.4797
  154MOL0     C20668  11.733   8.701   5.258 -0.0901 -0.5516 -0.8837
  154MOL0     C20669  11.888   8.668   5.270  0.0651  0.2376 -0.0810
  154MOL0     C20670  11.911   8.615   5.411  0.5805  0.2430  0.1361
  154MOL0     C20671  12.060   8.628   5.443 -0.7021 -1.9609 -1.2597
  154MOL0     N20672  12.099   8.539   5.542 -0.7595 -0.0841 -1.0809
  154MOL0     C20673  12.091   8.399   5.523 -0.4314  0.0128  0.0133
  154MOL0     C20674  12.169   8.350   5.622  0.1687 -0.0211  0.4140
  154MOL0     C20675  12.193   8.196   5.626 -0.1769 -0.4403  0.5133
  154MOL0     C20676  12.092   8.106   5.691 -0.0082 -0.3590 -0.6955
  154MOL0     C20677  12.065   8.156   5.835 -0.1235  0.0878 -0.3012
  154MOL0     C20678  11.953   8.266   5.835  0.0919 -0.2211 -0.6194
  154MOL0     O20679  11.846   8.247   5.928  0.7556  0.6518 -0.4692
  154MOL0     C20680  11.765   8.357   5.966  0.0108 -0.6953 -0.0606
  154MOL0     C20681  11.696   8.353   6.081 -0.8519 -0.1615 -0.3086
  154MOL0     C20682  11.625   8.458   6.130  0.3746 -0.0210 -0.7993
  154MOL0     C20683  11.594   8.570   6.050 -0.3305  0.3952 -0.2348
  154MOL0     C20684  11.509   8.683   6.095 -0.2076 -0.1580 -0.1823
  154MOL0     O20685  11.532   8.797   6.026 -0.0433  1.0388 -0.3010
  154MOL0     C20686  11.435   8.891   6.026  0.7322 -1.1618 -0.3702
  154MOL0     C20687  11.371   8.939   5.911  0.2488 -0.2070 -0.1803
  154MOL0     C20688  11.273   9.035   5.904  0.0386 -0.4781 -0.1226
  154MOL0     C20689  11.232   9.087   6.025  0.5621  0.0687  0.0309
  154MOL0     O20690  11.137   9.189   6.047  0.5117 -0.0347  0.1425
  154MOL0     C20691  11.067   9.232   5.927 -0.1535 -0.0750  0.1921
  154MOL0     C20692  10.966   9.339   5.961 -0.0195 -0.3045  0.0680
  154MOL0     C20693  10.872   9.385   5.847 -0.6747  0.5904  0.5842
  154MOL0     C20694  10.785   9.509   5.897 -0.0452  0.4174  0.5095
  154MOL0     C20695  10.726   9.607   5.782 -0.0627 -0.8639  0.1662
  154MOL0     C20696  10.621   9.544   5.679 -0.7600 -0.2829 -0.1723
  154MOL0     C20697  10.621   9.640   5.558 -0.4508 -0.5139 -0.4071
  154MOL0     C20698  10.498   9.612   5.470  1.0070 -0.7219 -0.3587
  154MOL0    Cl20699  10.485   9.737   5.339  0.7288  0.1067  0.5614
  154MOL0     C20700  11.299   9.056   6.143 -0.3945 -0.3668 -0.4105
  154MOL0     C20701  11.392   8.957   6.145 -0.2110  0.1219 -0.3692
  154MOL0     O20702  11.412   8.664   6.166  1.3639  0.4599 -0.5582
  154MOL0     C20703  11.675   8.578   5.939 -0.2772  0.4133  0.8695
  154MOL0     C20704  11.760   8.476   5.896 -0.2519  0.4928  0.2215
  154MOL0     N20705  12.208   8.455   5.695  0.5551 -0.3650 -0.3777
  154MOL0     N20706  12.165   8.564   5.657 -1.0296  0.4995  0.9091
  154MOL0     C20707  11.510   9.292   4.754  1.3461  0.1078 -0.1417
  154MOL0     C20708  11.402   9.378   4.737  0.6491  0.1710 -0.0888
  154MOL0     C20709  11.044   9.635   4.778 -0.0142 -0.7856 -0.0295
  154MOL0     C20710  11.080   9.742   4.690 -0.3160 -0.5039 -0.1258
  154MOL0     C20711  10.979   9.820   4.637  0.0004 -0.0211 -0.5413
  154MOL0     C20712  10.848   9.807   4.686 -1.1189  0.4124 -0.3417
  154MOL0     O20713  10.750   9.895   4.642 -0.3428  0.3466  0.1004
  154MOL0     C20714  10.635   9.841   4.584  0.1265  0.9372  1.2119
  154MOL0     C20715  10.578   9.949   4.501  0.4894  0.0790 -0.3458
  154MOL0     C20716  10.669   9.985   4.391 -0.1817 -0.1968  0.3197
  154MOL0     C20717  10.600  10.088   4.288  0.5141 -0.1010 -0.3344
  154MOL0     C20718  10.522  10.006   4.190 -0.0590  0.7279  0.0913
  154MOL0     C20719  10.453   9.938   4.118 -0.4347  0.7019 -0.7890
  154MOL0     C20720  10.809   9.698   4.768  0.3657 -0.8369  0.3498
  154MOL0     C20721  10.912   9.618   4.819  0.7701  0.2950  0.7183
  154MOL0     C20722  10.868   9.522   4.930  0.3795  0.0898  0.7685
  154MOL0     H20723  11.137   9.194   4.822 -2.7428  4.2493 -4.4765
  154MOL0     H20724  11.340   9.022   4.855  3.4515 -1.1459  1.0295
  154MOL0     H20725  11.507   9.095   5.027 -0.2406 -0.5336  1.2075
  154MOL0     H20726  11.502   8.935   4.948  0.0418  0.0360  1.6101
  154MOL0     H20727  11.775   9.070   5.019  2.9675 -0.9665 -2.4580
  154MOL0     H20728  11.767   8.929   4.934  0.0570 -0.2525  0.5556
  154MOL0     H20729  11.629   8.971   5.192 -0.7454 -0.2428 -2.2807
  154MOL0     H20730  11.800   8.949   5.199  0.1347  4.2933  0.0259
  154MOL0     H20731  11.586   8.744   5.100 -0.1467  1.4577 -4.4457
  154MOL0     H20732  11.755   8.728   5.050  1.9650  1.7284  1.8133
  154MOL0     H20733  11.700   8.763   5.342  2.1968 -0.5515  0.1001
  154MOL0     H20734  11.689   8.601   5.268 -0.1565 -0.3668  0.9742
  154MOL0     H20735  11.938   8.604   5.196  3.8819  2.5045  0.2593
  154MOL0     H20736  11.942   8.762   5.257  2.5911 -1.1548 -0.3950
  154MOL0     H20737  11.888   8.508   5.407  2.0123 -0.0394 -1.5214
  154MOL0     H20738  11.850   8.674   5.480 -1.1171 -2.2292  0.8937
  154MOL0     H20739  12.127   8.610   5.358  0.0874  1.8025 -1.6130
  154MOL0     H20740  12.085   8.733   5.461 -0.7678 -1.6478 -2.8088
  154MOL0     H20741  12.042   8.339   5.447 -0.5396  1.3102 -0.9642
  154MOL0     H20742  12.226   8.159   5.528  1.8680 -2.2030  1.7560
  154MOL0     H20743  12.284   8.178   5.684 -0.3305 -1.2425  0.5177
  154MOL0     H20744  11.996   8.106   5.639 -0.4800  0.5819  0.1423
  154MOL0     H20745  12.137   8.006   5.697 -0.0924 -0.3874 -0.5439
  154MOL0     H20746  12.154   8.192   5.888 -0.9330  0.8081  0.6089
  154MOL0     H20747  12.029   8.070   5.894 -0.1310  0.9066  0.9300
  154MOL0     H20748  11.913   8.273   5.733  0.6488 -2.4173 -1.0435
  154MOL0     H20749  11.996   8.365   5.852 -0.8510  0.2103 -0.6755
  154MOL0     H20750  11.697   8.258   6.133 -1.5231 -0.0718 -0.1250
  154MOL0     H20751  11.580   8.466   6.228 -3.2300 -0.5870 -2.2095
  154MOL0     H20752  11.409   8.896   5.819 -1.4429 -0.5115 -0.7763
  154MOL0     H20753  11.243   9.070   5.806  0.0120  1.6666  0.5885
  154MOL0     H20754  11.138   9.273   5.855 -0.6215 -0.8992 -0.7691
  154MOL0     H20755  11.024   9.136   5.897 -2.6951 -0.2056  3.5482
  154MOL0     H20756  10.896   9.296   6.033 -2.7312 -3.4868 -4.0044
  154MOL0     H20757  11.019   9.422   6.009 -2.6212  2.5108 -1.5963
  154MOL0     H20758  10.921   9.422   5.756 -2.9327  1.6885 -0.2619
  154MOL0     H20759  10.818   9.294   5.823  1.7517 -0.6495 -0.5688
  154MOL0     H20760  10.849   9.563   5.968  1.1451  0.8653 -0.8520
  154MOL0     H20761  10.699   9.460   5.942  0.3463 -1.0238 -0.2442
  154MOL0     H20762  10.805   9.649   5.719  0.2120 -0.4224  0.7887
  154MOL0     H20763  10.675   9.685   5.839 -0.7708  0.1187 -1.7197
  154MOL0     H20764  10.640   9.438   5.661 -0.4327 -0.2375 -0.1059
  154MOL0     H20765  10.532   9.554   5.742  0.9120  2.0435  2.0058
  154MOL0     H20766  10.712   9.630   5.498  0.4645  1.3413  0.6083
  154MOL0     H20767  10.628   9.743   5.593 -0.1661 -0.6562 -0.0228
  154MOL0     H20768  10.504   9.509   5.435 -3.1547 -2.3120  2.6873
  154MOL0     H20769  10.417   9.612   5.544 -0.3664  0.6826 -1.7875
  154MOL0     H20770  11.273   9.105   6.236 -0.8474 -2.1354  0.4302
  154MOL0     H20771  11.437   8.935   6.241 -0.4995  0.7162 -0.0907
  154MOL0     H20772  11.665   8.664   5.874 -2.3112  0.6516  1.4152
  154MOL0     H20773  11.814   8.479   5.802 -0.3881 -0.3298  0.1051
  154MOL0     H20774  11.611   9.327   4.741  1.1805  1.0826  0.9801
  154MOL0     H20775  11.416   9.479   4.700 -1.8889  0.3396 -0.7869
  154MOL0     H20776  11.180   9.755   4.650  0.0003  1.4317  1.1697
  154MOL0     H20777  11.017   9.901   4.575 -1.0079 -0.3072 -1.5688
  154MOL0     H20778  10.563   9.812   4.662 -3.7168  1.1704 -1.9402
  154MOL0     H20779  10.654   9.755   4.519 -1.7787  1.1154  0.3766
  154MOL0     H20780  10.563  10.037   4.563  0.3136 -0.9524  1.1379
  154MOL0     H20781  10.486   9.900   4.466 -1.5285  2.3186  1.4574
  154MOL0     H20782  10.710   9.899   4.338  3.5052  2.0035 -0.7762
  154MOL0     H20783  10.761  10.030   4.428 -1.0674 -1.3579  4.4668
  154MOL0     H20784  10.534  10.151   4.347  0.1882 -0.6990 -0.0483
  154MOL0     H20785  10.667  10.144   4.223  0.4892  0.8091  0.4152
  154MOL0     H20786  10.388   9.876   4.060 -1.6271 -2.0283  3.1093
  154MOL0     H20787  10.710   9.684   4.811  0.4976 -0.9651  0.6094
  154MOL0     H20788  10.761   9.510   4.950  0.6631 -7.2032  0.7319
  154MOL0     H20789  10.895   9.419   4.903 -0.5533 -0.8329  3.0504
  154MOL0     H20790  10.919   9.555   5.021 -0.3431 -0.7920  1.5145
  155MOL0     O20791   8.288  10.925   3.694 -0.8629 -0.1665 -0.0374
  155MOL0     C20792   8.206  10.917   3.599 -0.4192 -0.0780 -0.7358
  155MOL0     O20793   8.223  10.837   3.482  0.3646 -0.4758 -0.6594
  155MOL0     C20794   8.346  10.775   3.471  0.0713 -1.2572  0.2560
  155MOL0     C20795   8.473  10.846   3.456  0.4042  0.5243  0.4952
  155MOL0     C20796   8.589  10.767   3.463 -0.2051 -0.7774  0.7305
  155MOL0     C20797   8.592  10.633   3.458 -0.9740  0.4441  1.0845
  155MOL0     O20798   8.712  10.566   3.449 -0.0369  0.0971  0.7004
  155MOL0     C20799   8.791  10.589   3.329  0.0093 -0.4281  0.2675
  155MOL0     C20800   8.902  10.478   3.332 -0.5245 -0.2884  0.1887
  155MOL0     C20801   8.846  10.336   3.329  0.8384 -0.4571  0.2331
  155MOL0     C20802   8.956  10.237   3.328  0.7131 -0.0344  0.4626
  155MOL0     C20803   8.886  10.103   3.345 -0.5921  0.4967  0.5700
  155MOL0     C20804   8.979   9.984   3.357 -0.3909  0.7488  0.4301
  155MOL0     C20805   9.077   9.953   3.239  0.3766  0.6418  0.4036
  155MOL0     C20806   9.007   9.878   3.124 -0.2202  0.0798  0.5550
  155MOL0     N20807   9.115   9.844   3.031 -1.0473  0.9577 -0.4961
  155MOL0     C20808   9.190   9.729   3.045  0.1290 -0.1349  0.2498
  155MOL0     C20809   9.305   9.754   2.975 -0.5586  0.2524  0.3250
  155MOL0     C20810   9.420   9.656   2.951 -0.2766 -0.4069  0.2158
  155MOL0     C20811   9.468   9.623   3.089  0.1819 -0.1221  0.7054
  155MOL0     C20812   9.532   9.744   3.157 -0.4426  0.6521  0.3333
  155MOL0     C20813   9.493   9.761   3.300 -0.4275  0.5860  1.3265
  155MOL0     O20814   9.534   9.883   3.353 -0.0860  0.2659 -0.7130
  155MOL0     C20815   9.539   9.874   3.496 -0.3984 -0.9084  0.2433
  155MOL0     C20816   9.432   9.856   3.577  0.8565  0.5507  0.3132
  155MOL0     C20817   9.441   9.874   3.720  0.3890 -0.4583  0.1608
  155MOL0     C20818   9.570   9.904   3.771  0.2581  0.1503 -0.0395
  155MOL0     C20819   9.597   9.910   3.913  0.5722 -0.6135 -0.7619
  155MOL0     O20820   9.501   9.855   3.994  1.1118 -0.3778  0.6632
  155MOL0     C20821   9.490   9.873   4.128  0.8793  0.3601  0.8283
  155MOL0     C20822   9.363   9.843   4.181 -0.2875  0.3941 -0.2615
  155MOL0     C20823   9.334   9.855   4.309  1.0485  0.1931 -0.1797
  155MOL0     C20824   9.428   9.893   4.397  0.2807  0.5299 -0.2059
  155MOL0     O20825   9.425   9.871   4.533 -0.7223  0.4054  0.9985
  155MOL0     C20826   9.317   9.791   4.586 -0.1742  0.6158 -0.7253
  155MOL0     C20827   9.305   9.780   4.731  1.3378  0.5067 -0.4856
  155MOL0     C20828   9.438   9.772   4.820 -0.4377 -0.0068 -0.8534
  155MOL0     C20829   9.506   9.635   4.832  0.0962  0.0615 -0.1582
  155MOL0     C20830   9.619   9.616   4.930 -0.8093  0.1515 -0.6852
  155MOL0     C20831   9.757   9.608   4.849  0.1631 -0.9399  0.0624
  155MOL0     C20832   9.879   9.632   4.942 -0.8255  0.2961 -1.1737
  155MOL0     C20833   9.866   9.752   5.046  0.2276 -0.3636 -0.5203
  155MOL0    Cl20834  10.036   9.802   5.098 -0.3327 -0.1846  0.3940
  155MOL0     C20835   9.549   9.924   4.348 -0.0579 -0.5222  0.9749
  155MOL0     C20836   9.584   9.916   4.213 -0.4110  0.3898 -1.2250
  155MOL0     O20837   9.685   9.988   3.951  0.1830 -0.2715  0.7071
  155MOL0     C20838   9.680   9.924   3.682  0.1598  0.6448  0.2681
  155MOL0     C20839   9.665   9.905   3.542 -1.0651  0.3831 -0.6035
  155MOL0     N20840   9.299   9.888   2.931  0.3408 -0.0694  1.3907
  155MOL0     N20841   9.190   9.944   2.974 -0.0514 -0.0349 -0.4671
  155MOL0     C20842   8.468  10.571   3.470  1.2191  0.1848  0.7049
  155MOL0     C20843   8.341  10.638   3.464 -0.5990 -0.1567 -0.6162
  155MOL0     C20844   8.072  10.973   3.618 -0.6257  0.0068  0.2050
  155MOL0     C20845   8.058  11.041   3.736  0.9413 -0.8135 -0.7223
  155MOL0     C20846   7.932  11.089   3.766 -0.0143 -0.4036 -0.3125
  155MOL0     C20847   7.820  11.095   3.684 -0.0245  0.7562 -0.1378
  155MOL0     O20848   7.706  11.161   3.726 -0.5497  0.1470 -0.0474
  155MOL0     C20849   7.585  11.154   3.649 -0.5482  0.8541 -0.2526
  155MOL0     C20850   7.511  11.049   3.716 -0.7660  0.7026 -0.3541
  155MOL0     C20851   7.541  10.902   3.677  0.6043 -0.2769 -0.5862
  155MOL0     C20852   7.413  10.817   3.720  0.0976 -1.0547 -0.2997
  155MOL0     C20853   7.407  10.679   3.658 -0.1178  0.2735 -0.0449
  155MOL0     C20854   7.395  10.569   3.605  0.3080 -0.6898  0.8572
  155MOL0     C20855   7.837  11.031   3.555 -0.2943  0.0269  0.4097
  155MOL0     C20856   7.962  10.968   3.524 -0.4217  0.5275 -0.0594
  155MOL0     C20857   7.970  10.896   3.386  0.6213 -0.2043 -0.3279
  155MOL0     H20858   8.485  10.953   3.451  0.6966  0.4662 -0.2445
  155MOL0     H20859   8.680  10.826   3.455 -1.5200  1.4679  1.3696
  155MOL0     H20860   8.728  10.565   3.243 -0.1708  2.2531 -0.4197
  155MOL0     H20861   8.833  10.689   3.317  0.1198 -0.7096 -2.3633
  155MOL0     H20862   8.960  10.492   3.424 -1.2960 -0.7757  0.7671
  155MOL0     H20863   8.973  10.496   3.251 -1.3341  2.5970 -0.0075
  155MOL0     H20864   8.776  10.322   3.246  0.2606 -2.2136  0.9469
  155MOL0     H20865   8.789  10.327   3.422 -2.0394 -2.6732 -1.5739
  155MOL0     H20866   9.013  10.237   3.235 -1.3929  0.6933 -0.9019
  155MOL0     H20867   9.023  10.247   3.414 -1.5134 -0.4369  2.3435
  155MOL0     H20868   8.837  10.099   3.443 -1.4523 -0.1962  0.1216
  155MOL0     H20869   8.820  10.083   3.260 -2.1854  2.0831  1.3616
  155MOL0     H20870   9.034   9.999   3.450 -0.2161 -2.2672  0.9057
  155MOL0     H20871   8.921   9.891   3.368  2.0035 -0.7930  0.7486
  155MOL0     H20872   9.157   9.897   3.289  1.3463  1.2517 -0.4415
  155MOL0     H20873   9.133  10.040   3.204 -1.5514  1.0811 -1.8694
  155MOL0     H20874   8.960   9.783   3.149  1.1696 -1.6386 -2.7378
  155MOL0     H20875   8.927   9.936   3.078 -0.8893 -1.2353  0.0065
  155MOL0     H20876   9.166   9.643   3.107 -0.0689 -0.5815 -0.4456
  155MOL0     H20877   9.369   9.564   2.922 -2.2193 -0.4542  3.3070
  155MOL0     H20878   9.500   9.688   2.883  0.0532 -2.2898 -0.3581
  155MOL0     H20879   9.386   9.573   3.142 -0.6651 -0.7097 -1.0733
  155MOL0     H20880   9.549   9.550   3.081  1.1083  0.7679  1.7173
  155MOL0     H20881   9.491   9.829   3.102 -0.4168  0.6795  0.3578
  155MOL0     H20882   9.640   9.729   3.168 -0.6506 -0.4290  0.9941
  155MOL0     H20883   9.541   9.678   3.353 -0.5427 -1.1021 -1.0330
  155MOL0     H20884   9.386   9.739   3.294 -0.2341 -0.0807 -2.5566
  155MOL0     H20885   9.339   9.827   3.529  1.8817 -2.4249 -0.0411
  155MOL0     H20886   9.352   9.868   3.782  0.6473 -3.3041  0.4010
  155MOL0     H20887   9.285   9.821   4.109 -1.2518 -0.0581  0.9017
  155MOL0     H20888   9.230   9.835   4.335  0.7962  2.5784  0.9427
  155MOL0     H20889   9.220   9.823   4.545 -2.2125 -2.8395  0.9197
  155MOL0     H20890   9.322   9.685   4.558 -2.4713  0.9485 -2.8205
  155MOL0     H20891   9.278   9.883   4.758  1.7643  0.2056  1.1599
  155MOL0     H20892   9.233   9.710   4.774  2.1219  0.7787  1.3799
  155MOL0     H20893   9.512   9.849   4.797  0.8649 -1.8276 -3.2780
  155MOL0     H20894   9.398   9.798   4.918 -0.5101  1.0531 -1.1518
  155MOL0     H20895   9.527   9.584   4.738  0.4365  1.0305 -0.6183
  155MOL0     H20896   9.433   9.566   4.876  1.6846  0.8086  4.0849
  155MOL0     H20897   9.607   9.521   4.983  0.8493  0.4851  0.3918
  155MOL0     H20898   9.622   9.692   5.009 -1.3869  1.4584 -1.8760
  155MOL0     H20899   9.762   9.523   4.781 -2.3540  0.0642 -1.5234
  155MOL0     H20900   9.756   9.693   4.780  0.9391 -3.0284 -2.6713
  155MOL0     H20901   9.973   9.635   4.886  0.6077  0.7933  1.1296
  155MOL0     H20902   9.894   9.547   5.009 -4.7550  2.1440  2.5512
  155MOL0     H20903   9.817   9.843   5.010  0.5058  0.6192  1.4595
  155MOL0     H20904   9.810   9.727   5.137  0.6212 -1.7539 -0.6351
  155MOL0     H20905   9.625   9.969   4.411 -0.6282  3.8970 -1.1193
  155MOL0     H20906   9.685   9.953   4.203  1.0459 -2.0610  2.2281
  155MOL0     H20907   9.774   9.958   3.724  0.6699  0.1952 -0.4866
  155MOL0     H20908   9.746   9.933   3.475  0.4516 -2.6336 -0.1984
  155MOL0     H20909   8.464  10.469   3.506  2.4644  0.3305  1.3004
  155MOL0     H20910   8.242  10.595   3.480 -0.5086 -0.2749 -0.3638
  155MOL0     H20911   8.132  11.075   3.807  0.3371  0.7217 -0.7913
  155MOL0     H20912   7.922  11.143   3.860 -1.8607 -0.8024 -0.2500
  155MOL0     H20913   7.589  11.126   3.543 -1.6616 -2.0594  0.3861
  155MOL0     H20914   7.544  11.254   3.660 -4.0562 -0.1181 -2.7084
  155MOL0     H20915   7.403  11.061   3.707 -0.8489 -0.8852 -1.9106
  155MOL0     H20916   7.547  11.060   3.820  0.6741 -0.8864 -0.6425
  155MOL0     H20917   7.632  10.859   3.719  1.6289 -0.9442 -3.3110
  155MOL0     H20918   7.556  10.902   3.569 -2.0004  0.6166 -1.0281
  155MOL0     H20919   7.403  10.821   3.829  1.4480  0.2357 -0.1945
  155MOL0     H20920   7.324  10.870   3.687  0.6861  0.3598  0.3118
  155MOL0     H20921   7.384  10.476   3.552  1.5942 -1.5723  2.0371
  155MOL0     H20922   7.755  11.024   3.484 -0.3199  0.4962  0.3948
  155MOL0     H20923   8.063  10.927   3.339 -0.2340 -0.3006 -2.1619
  155MOL0     H20924   7.982  10.788   3.398  4.0248 -0.0595 -1.4724
  155MOL0     H20925   7.886  10.924   3.322  0.6206  1.8889  0.5255
  156MOL0     O20926   1.486   2.749   6.726 -0.4359  0.1617 -0.1897
  156MOL0     C20927   1.431   2.644   6.749  0.4430  0.3241  0.8107
  156MOL0     O20928   1.326   2.598   6.678 -0.1965  0.2602  0.3661
  156MOL0     C20929   1.237   2.679   6.602 -0.1578  0.4705 -0.3524
  156MOL0     C20930   1.253   2.805   6.549  0.8130 -0.8508 -0.2404
  156MOL0     C20931   1.178   2.870   6.446  0.4362  0.9680 -0.3910
  156MOL0     C20932   1.050   2.806   6.421  0.1390 -0.0290 -0.5954
  156MOL0     O20933   0.949   2.850   6.345  0.1852 -0.4577  0.7524
  156MOL0     C20934   0.963   2.981   6.273  0.3983 -0.5099 -0.0818
  156MOL0     C20935   0.830   3.017   6.216 -0.2793 -0.3257 -0.4885
  156MOL0     C20936   0.704   3.017   6.309  0.3530 -1.1992 -0.8964
  156MOL0     C20937   0.716   3.115   6.423  0.7876  0.6603  0.4695
  156MOL0     C20938   0.584   3.133   6.500  0.6979 -0.1542  0.3763
  156MOL0     C20939   0.600   3.229   6.612  0.0048  0.6991 -0.2066
  156MOL0     C20940   0.463   3.291   6.651  0.0828 -0.2820 -0.4762
  156MOL0     C20941   0.472   3.358   6.787 -0.5596 -0.3814  0.4750
  156MOL0     N20942   0.348   3.306   6.865  0.8203 -0.0937 -0.8719
  156MOL0     C20943   0.221   3.280   6.824 -0.2635 -0.2248  0.1449
  156MOL0     C20944   0.151   3.247   6.927  0.4890 -0.6356 -1.1022
  156MOL0     C20945   0.002   3.229   6.915 -0.9793  0.0884 -0.5434
  156MOL0     C20946  -0.074   3.212   7.044  0.3963  0.0681 -0.9368
  156MOL0     C20947  -0.054   3.333   7.140  0.2766 -0.4261  0.2279
  156MOL0     C20948  -0.128   3.325   7.275 -0.2666  0.3680 -0.2524
  156MOL0     O20949  -0.189   3.448   7.317  0.3172  0.2930 -0.0168
  156MOL0     C20950  -0.299   3.496   7.255  0.7783  0.5779  0.1326
  156MOL0     C20951  -0.366   3.441   7.146 -0.3086 -0.7539  0.6289
  156MOL0     C20952  -0.473   3.496   7.081  0.7929  0.4977 -0.5481
  156MOL0     C20953  -0.515   3.624   7.136  1.5012  0.1874  0.8243
  156MOL0     C20954  -0.647   3.681   7.092  0.8700 -0.3426 -0.2160
  156MOL0     O20955  -0.692   3.632   6.979 -0.6307  0.2039  0.2384
  156MOL0     C20956  -0.814   3.675   6.937 -0.6228  0.0253 -0.6263
  156MOL0     C20957  -0.933   3.648   7.013  0.0467 -0.0581  0.4685
  156MOL0     C20958  -1.053   3.683   6.953  0.5675 -0.7872 -0.4952
  156MOL0     C20959  -1.050   3.762   6.825  0.7227  0.3378 -0.1706
  156MOL0     O20960  -1.172   3.798   6.768 -0.4940 -0.7472  0.3229
  156MOL0     C20961  -1.220   3.697   6.668  0.2573  0.8769  0.9084
  156MOL0     C20962  -1.312   3.765   6.567  0.4251 -0.1847 -1.2364
  156MOL0     C20963  -1.409   3.673   6.486 -0.3858 -0.0798  0.1279
  156MOL0     C20964  -1.520   3.759   6.424  0.0922  0.4326 -0.0616
  156MOL0     C20965  -1.619   3.663   6.345  0.0452  0.2727  0.6507
  156MOL0     C20966  -1.746   3.747   6.302  0.2605  0.2815  0.0078
  156MOL0     C20967  -1.860   3.657   6.252 -0.8337  0.5106 -0.2937
  156MOL0     C20968  -1.942   3.721   6.144  0.5301 -0.8105  0.7736
  156MOL0    Cl20969  -2.071   3.604   6.111  0.0079 -0.1996  0.0051
  156MOL0     C20970  -0.925   3.784   6.761 -0.3219 -0.1989 -0.6558
  156MOL0     C20971  -0.812   3.752   6.826 -0.5213  1.0882  0.6828
  156MOL0     O20972  -0.692   3.772   7.159  0.9380  0.6509  0.0956
  156MOL0     C20973  -0.452   3.685   7.247  0.0847  0.3571  0.1375
  156MOL0     C20974  -0.344   3.617   7.307  0.2977  0.7672 -0.1131
  156MOL0     N20975   0.237   3.238   7.037 -0.5215  0.6083 -0.0829
  156MOL0     N20976   0.351   3.282   6.999 -0.8426  0.6375  0.6168
  156MOL0     C20977   1.014   2.690   6.474 -0.1411  0.9836 -0.0577
  156MOL0     C20978   1.112   2.623   6.557 -0.4091  1.0699  0.4318
  156MOL0     C20979   1.491   2.560   6.859 -0.3515  0.2330  0.5017
  156MOL0     C20980   1.495   2.421   6.830 -0.4099  0.2189 -0.5077
  156MOL0     C20981   1.566   2.345   6.920  0.8474 -0.6681  0.4080
  156MOL0     C20982   1.619   2.394   7.045  0.2722 -0.6477 -0.1144
  156MOL0     O20983   1.709   2.310   7.111  0.2541 -0.7236 -1.1696
  156MOL0     C20984   1.776   2.371   7.224 -0.5118 -0.6845 -0.4177
  156MOL0     C20985   1.863   2.256   7.281 -0.2048  0.0921 -0.4382
  156MOL0     C20986   1.962   2.340   7.373  0.0479  0.8384 -0.0125
  156MOL0     C20987   2.068   2.242   7.443  0.5146  0.1988  0.3852
  156MOL0     C20988   2.095   2.247   7.589 -1.1963  0.3946  0.1740
  156MOL0     C20989   2.099   2.243   7.717 -0.7854  0.9926 -0.7229
  156MOL0     C20990   1.605   2.526   7.077  0.9745 -0.1935  0.1944
  156MOL0     C20991   1.552   2.613   6.978 -0.2946 -0.4314  0.9320
  156MOL0     C20992   1.538   2.763   7.024  0.0507  0.7661 -0.2202
  156MOL0     H20993   1.344   2.860   6.569 -1.7133  2.7985  2.4236
  156MOL0     H20994   1.212   2.961   6.398 -2.5376  1.5627 -1.5793
  156MOL0     H20995   0.981   3.058   6.349  0.6750 -0.7760  0.1256
  156MOL0     H20996   1.046   2.976   6.202  0.3936 -3.5685  0.0143
  156MOL0     H20997   0.804   2.945   6.138 -4.9486 -0.8589  1.2733
  156MOL0     H20998   0.821   3.115   6.167 -1.5440 -0.0337  0.2848
  156MOL0     H20999   0.689   2.914   6.342  1.7810 -1.4155 -0.8783
  156MOL0     H21000   0.613   3.044   6.254  0.5251  0.3656 -0.4661
  156MOL0     H21001   0.793   3.080   6.493 -0.3121 -0.1950  1.2820
  156MOL0     H21002   0.756   3.206   6.378  0.4549  0.4819 -0.2002
  156MOL0     H21003   0.500   3.159   6.436 -0.6239 -4.4587  0.1039
  156MOL0     H21004   0.553   3.032   6.526  0.1139 -0.5132 -1.5336
  156MOL0     H21005   0.644   3.174   6.696  1.4723  1.6617 -0.3084
  156MOL0     H21006   0.666   3.314   6.591  2.2703 -0.8566  0.2094
  156MOL0     H21007   0.385   3.214   6.646  0.0613 -0.4954  2.0355
  156MOL0     H21008   0.449   3.355   6.563 -0.9335 -0.4536 -0.4600
  156MOL0     H21009   0.572   3.341   6.829  0.3427  3.5387  0.2606
  156MOL0     H21010   0.470   3.467   6.778  1.6518 -0.4529 -2.6106
  156MOL0     H21011   0.167   3.291   6.730 -0.9634  3.7658  0.8405
  156MOL0     H21012  -0.048   3.312   6.865  2.0128  2.0790 -0.4522
  156MOL0     H21013  -0.025   3.138   6.860 -0.3422 -0.4500  0.0329
  156MOL0     H21014  -0.180   3.196   7.026 -0.6461 -1.4849  4.7326
  156MOL0     H21015  -0.040   3.117   7.088 -3.3195 -1.5264 -1.1522
  156MOL0     H21016  -0.070   3.426   7.086  0.8541  0.2733  1.2347
  156MOL0     H21017   0.047   3.339   7.183  0.6507 -2.0996 -0.3351
  156MOL0     H21018  -0.072   3.272   7.352 -1.5009 -0.1086  0.3401
  156MOL0     H21019  -0.206   3.248   7.271  0.7767 -0.7902  0.9930
  156MOL0     H21020  -0.323   3.354   7.098 -1.5557 -0.8801 -0.2811
  156MOL0     H21021  -0.532   3.444   7.007  0.5872 -0.2929  0.1553
  156MOL0     H21022  -0.921   3.583   7.099 -0.4940 -1.9387 -0.8200
  156MOL0     H21023  -1.146   3.647   6.996  1.6195 -1.9692  0.8825
  156MOL0     H21024  -1.141   3.641   6.617 -0.6461  0.0738  0.3609
  156MOL0     H21025  -1.282   3.618   6.710 -2.4792  0.2183 -3.6559
  156MOL0     H21026  -1.372   3.837   6.623 -2.1560 -1.7498 -1.8223
  156MOL0     H21027  -1.260   3.830   6.496 -4.2158  1.3331 -3.6207
  156MOL0     H21028  -1.347   3.635   6.405 -0.0403  1.3554 -0.3183
  156MOL0     H21029  -1.452   3.584   6.533  0.4623 -0.2044  0.6790
  156MOL0     H21030  -1.491   3.850   6.370 -3.4007  1.2384 -0.7748
  156MOL0     H21031  -1.584   3.796   6.504 -1.3246 -0.6952 -0.6409
  156MOL0     H21032  -1.654   3.590   6.418 -1.4025 -0.7399 -0.9640
  156MOL0     H21033  -1.581   3.613   6.255 -2.7943  1.6715 -1.5268
  156MOL0     H21034  -1.783   3.792   6.395 -2.2558  4.9948 -2.8402
  156MOL0     H21035  -1.730   3.824   6.226  1.7015 -1.8096 -1.9381
  156MOL0     H21036  -1.936   3.625   6.324 -0.4554  0.6484  0.1692
  156MOL0     H21037  -1.818   3.561   6.221  0.3426  0.9916 -0.2498
  156MOL0     H21038  -1.994   3.813   6.173 -0.6804 -1.2949  0.2296
  156MOL0     H21039  -1.891   3.748   6.050  1.2972  2.3625  1.9765
  156MOL0     H21040  -0.909   3.831   6.664  1.4431 -1.8443 -1.2220
  156MOL0     H21041  -0.720   3.784   6.780 -1.2197  0.6907 -1.0861
  156MOL0     H21042  -0.490   3.777   7.289  1.2786 -0.0361  2.2194
  156MOL0     H21043  -0.285   3.640   7.395  1.1625 -1.0495 -0.1640
  156MOL0     H21044   0.920   2.641   6.452  1.4238 -1.5374 -1.6045
  156MOL0     H21045   1.088   2.523   6.591  1.6276 -0.0214 -1.1012
  156MOL0     H21046   1.451   2.378   6.740  0.5960  1.4806 -1.6443
  156MOL0     H21047   1.582   2.238   6.912  0.4975 -1.3439  5.3612
  156MOL0     H21048   1.701   2.393   7.301 -3.1869 -0.9560 -2.7614
  156MOL0     H21049   1.832   2.463   7.202  0.6603 -1.0727  0.8148
  156MOL0     H21050   1.911   2.205   7.196 -2.5108  1.1119 -2.4821
  156MOL0     H21051   1.811   2.187   7.347 -0.0093  2.1993  2.0476
  156MOL0     H21052   1.904   2.395   7.447 -0.4767  0.4901 -0.1591
  156MOL0     H21053   2.024   2.410   7.316  0.5704  0.1463 -0.3178
  156MOL0     H21054   2.034   2.140   7.422 -1.1578  0.2111  2.6928
  156MOL0     H21055   2.159   2.235   7.382 -1.5432 -3.3046 -2.7866
  156MOL0     H21056   2.121   2.237   7.822  1.7385 -1.6943 -1.2825
  156MOL0     H21057   1.645   2.571   7.167  1.3534  2.4303 -1.2046
  156MOL0     H21058   1.635   2.813   7.017  0.2314  0.2795 -1.3935
  156MOL0     H21059   1.474   2.820   6.957 -0.8415  2.6877  2.1264
  156MOL0     H21060   1.512   2.763   7.131  2.9136 -1.6570  0.6233
  157MOL0     O21061   9.095   8.240   6.121 -0.1808  0.7730 -0.0858
  157MOL0     C21062   9.016   8.297   6.194  0.6367 -0.3105 -0.7385
  157MOL0     O21063   8.922   8.243   6.271 -0.4251  0.0707  0.2970
  157MOL0     C21064   8.902   8.112   6.263  0.4771 -0.1794  0.3430
  157MOL0     C21065   8.935   8.037   6.379 -0.0677 -1.0056  0.6804
  157MOL0     C21066   8.908   7.900   6.373  0.4625  1.0933 -0.4192
  157MOL0     C21067   8.861   7.834   6.253 -0.0086  0.4719  0.4117
  157MOL0     O21068   8.857   7.697   6.252 -0.4569 -0.2172  0.7403
  157MOL0     C21069   8.732   7.631   6.254 -0.7495 -0.5409  0.8734
  157MOL0     C21070   8.706   7.580   6.399 -0.6347  0.3328  0.1082
  157MOL0     C21071   8.597   7.487   6.418 -0.5887 -0.4358 -0.0266
  157MOL0     C21072   8.638   7.350   6.377  0.0981 -0.6474  0.1409
  157MOL0     C21073   8.536   7.247   6.429  0.5378 -0.8971  1.4147
  157MOL0     C21074   8.397   7.257   6.363  0.6179  0.3212  0.4898
  157MOL0     C21075   8.299   7.194   6.441  0.7543  0.9237 -1.1729
  157MOL0     C21076   8.160   7.181   6.373  0.9998 -0.4969  0.9478
  157MOL0     N21077   8.145   7.091   6.262  0.5949  0.4461 -0.5066
  157MOL0     C21078   8.037   7.079   6.183 -0.5782  0.1011 -0.7510
  157MOL0     C21079   8.065   6.982   6.093 -0.6126 -0.4616  0.0267
  157MOL0     C21080   8.002   6.960   5.962 -1.1286  0.8517  0.2175
  157MOL0     C21081   8.080   6.899   5.847 -0.1470 -0.1646  0.6842
  157MOL0     C21082   8.033   6.964   5.717 -1.3358  0.3412  0.4722
  157MOL0     C21083   8.124   6.928   5.595  0.2455  0.9511 -0.7666
  157MOL0     O21084   8.076   6.967   5.471  0.4214 -0.7748 -0.5032
  157MOL0     C21085   8.075   7.107   5.438  0.6364  0.6505 -0.1439
  157MOL0     C21086   7.996   7.146   5.321  0.2088 -0.7905 -0.6617
  157MOL0     C21087   8.020   7.267   5.245 -0.1984  0.8888 -0.4927
  157MOL0     C21088   8.119   7.354   5.295  0.2175 -0.9743 -0.3050
  157MOL0     C21089   8.145   7.490   5.245  0.2030  0.2403 -0.6385
  157MOL0     O21090   8.047   7.538   5.163 -0.5807 -0.4578  0.0671
  157MOL0     C21091   8.066   7.662   5.110  0.3393  0.4080  0.8501
  157MOL0     C21092   8.032   7.674   4.974 -0.2386 -0.1690 -0.7129
  157MOL0     C21093   8.058   7.795   4.911  0.5897  0.3300  0.5957
  157MOL0     C21094   8.104   7.906   4.983 -0.7364 -0.6696  0.1498
  157MOL0     O21095   8.144   8.026   4.935  0.7434  0.0525 -0.2530
  157MOL0     C21096   8.117   8.053   4.798 -0.2256 -1.3483  0.7196
  157MOL0     C21097   8.173   8.189   4.759 -0.8590  0.6290 -0.8692
  157MOL0     C21098   8.163   8.224   4.610 -0.0025  0.1776  0.3227
  157MOL0     C21099   8.221   8.362   4.579 -0.1232 -0.2954  0.6631
  157MOL0     C21100   8.237   8.397   4.433 -0.1506 -0.3398  0.2869
  157MOL0     C21101   8.354   8.500   4.414  0.5735 -0.5153 -0.6929
  157MOL0     C21102   8.401   8.528   4.270 -0.6983 -1.2164  0.1975
  157MOL0     C21103   8.523   8.627   4.278 -0.0878  0.0066 -0.1946
  157MOL0    Cl21104   8.455   8.799   4.304  0.0936  0.0824  0.8254
  157MOL0     C21105   8.114   7.893   5.117  0.6902 -1.0035  0.4616
  157MOL0     C21106   8.108   7.774   5.183 -0.5547  0.3137 -0.3308
  157MOL0     O21107   8.256   7.545   5.270  0.3034  1.7110  0.3235
  157MOL0     C21108   8.179   7.318   5.421  0.3642  0.0300  0.9792
  157MOL0     C21109   8.159   7.205   5.490  0.1872  0.1707 -1.8460
  157MOL0     N21110   8.185   6.923   6.125 -0.2322  0.6451  0.2804
  157MOL0     N21111   8.234   6.986   6.225 -0.3245 -0.5331 -0.1240
  157MOL0     C21112   8.814   7.916   6.146  0.5632 -0.7758  0.2369
  157MOL0     C21113   8.841   8.054   6.145  1.1618  0.1148 -0.7617
  157MOL0     C21114   9.037   8.447   6.205 -1.0921 -1.1699  0.2536
  157MOL0     C21115   9.170   8.483   6.240  0.4843  0.5052 -0.5188
  157MOL0     C21116   9.203   8.616   6.258  0.9569  0.5207 -0.9466
  157MOL0     C21117   9.105   8.712   6.252 -0.3220 -0.6286  0.0789
  157MOL0     O21118   9.115   8.849   6.291  0.3724 -0.2742 -0.3113
  157MOL0     C21119   9.234   8.882   6.368 -0.3937 -0.2169 -0.0179
  157MOL0     C21120   9.223   9.028   6.405  0.8775  0.4017 -0.3384
  157MOL0     C21121   9.101   9.072   6.485  0.3016  2.2306  0.2760
  157MOL0     C21122   9.055   9.210   6.447  0.0660  0.1823  0.0188
  157MOL0     C21123   8.993   9.209   6.317  0.9231 -0.3184  1.3466
  157MOL0     C21124   8.964   9.190   6.199  0.2710  0.1692  0.3312
  157MOL0     C21125   8.978   8.684   6.223  0.3851 -0.3368 -0.1208
  157MOL0     C21126   8.938   8.552   6.196  0.7887 -0.6055 -0.2834
  157MOL0     C21127   8.791   8.514   6.180 -0.9702 -0.2369  0.1297
  157MOL0     H21128   8.975   8.092   6.463 -0.7527  3.6724 -1.7031
  157MOL0     H21129   8.916   7.835   6.460 -3.3085  1.8976  0.7024
  157MOL0     H21130   8.653   7.704   6.234 -0.3680 -0.1864  0.6523
  157MOL0     H21131   8.738   7.554   6.176 -1.5403  0.8976 -0.6910
  157MOL0     H21132   8.703   7.670   6.461  0.0512  0.7940 -0.5182
  157MOL0     H21133   8.795   7.531   6.442 -0.7394 -0.4088 -0.5044
  157MOL0     H21134   8.517   7.521   6.352  0.8159  0.0399 -1.5540
  157MOL0     H21135   8.567   7.486   6.523 -0.4743  0.1392  0.0188
  157MOL0     H21136   8.643   7.346   6.268 -3.3223 -1.2173 -0.1274
  157MOL0     H21137   8.737   7.320   6.414 -1.2985 -5.2048  0.8784
  157MOL0     H21138   8.578   7.146   6.423 -1.2806 -1.7050  1.5521
  157MOL0     H21139   8.518   7.275   6.533 -2.9975  0.9641  0.4779
  157MOL0     H21140   8.365   7.359   6.344 -0.0203 -0.2278 -1.7460
  157MOL0     H21141   8.395   7.197   6.271 -0.6716  0.9460  0.0949
  157MOL0     H21142   8.281   7.252   6.533  0.7414 -0.6128 -0.1794
  157MOL0     H21143   8.338   7.099   6.478 -1.5967  0.7077  1.0672
  157MOL0     H21144   8.087   7.158   6.451 -1.0610  1.1195 -0.4167
  157MOL0     H21145   8.135   7.284   6.347 -0.4067 -0.6250  1.7068
  157MOL0     H21146   7.952   7.147   6.184  0.6476  1.6874 -0.2766
  157MOL0     H21147   7.914   6.899   5.982 -2.2090  1.3756 -2.4097
  157MOL0     H21148   7.962   7.053   5.920 -1.8964  1.4292  2.1080
  157MOL0     H21149   8.187   6.915   5.838 -0.0973 -0.2990  1.0179
  157MOL0     H21150   8.067   6.792   5.830  3.5381 -0.3926 -1.7018
  157MOL0     H21151   8.026   7.073   5.727  1.5200  0.5655  0.8742
  157MOL0     H21152   7.933   6.924   5.698 -1.4182  1.0060 -0.5710
  157MOL0     H21153   8.136   6.819   5.595 -0.7254  0.8233  0.5752
  157MOL0     H21154   8.228   6.957   5.612  1.6390 -3.4413 -0.5021
  157MOL0     H21155   7.922   7.073   5.291 -1.9373  0.3377  1.4942
  157MOL0     H21156   7.953   7.288   5.163 -0.3015  0.5342 -0.4996
  157MOL0     H21157   7.995   7.586   4.922 -2.3015  0.9883 -1.3224
  157MOL0     H21158   8.029   7.796   4.807 -2.7168  1.8699  1.4031
  157MOL0     H21159   8.165   7.979   4.734 -0.4699  1.0333 -2.4886
  157MOL0     H21160   8.012   8.057   4.769 -0.2894  1.1111  1.0575
  157MOL0     H21161   8.106   8.269   4.791 -0.5646  0.9457 -1.0421
  157MOL0     H21162   8.275   8.194   4.799 -1.8002 -1.6499  2.2893
  157MOL0     H21163   8.225   8.159   4.547  4.2583  2.7967  1.4195
  157MOL0     H21164   8.059   8.213   4.578  0.5853 -0.9789 -1.2898
  157MOL0     H21165   8.320   8.354   4.624 -1.0643 -3.0624  2.5077
  157MOL0     H21166   8.156   8.440   4.621  2.3374  1.4729  1.4045
  157MOL0     H21167   8.146   8.446   4.397  0.1137  0.3951  0.6048
  157MOL0     H21168   8.273   8.313   4.373  2.5832  0.2324  0.9723
  157MOL0     H21169   8.310   8.594   4.449  1.3700 -1.1881  2.5019
  157MOL0     H21170   8.445   8.479   4.471  0.9879  4.6927  1.0817
  157MOL0     H21171   8.315   8.571   4.217 -1.3549  0.4464  2.4715
  157MOL0     H21172   8.442   8.439   4.221  0.5915 -0.3480 -0.3406
  157MOL0     H21173   8.581   8.596   4.365 -0.6489 -0.8770 -0.1248
  157MOL0     H21174   8.578   8.621   4.183  1.8744 -0.0707  0.8775
  157MOL0     H21175   8.159   7.978   5.167 -0.2249 -1.1850  1.6317
  157MOL0     H21176   8.125   7.755   5.289  1.7199 -0.4908 -0.7772
  157MOL0     H21177   8.234   7.400   5.466 -2.3447  2.9364 -0.5433
  157MOL0     H21178   8.217   7.183   5.578 -1.0542 -1.2968 -1.3539
  157MOL0     H21179   8.793   7.864   6.053 -0.8419 -0.0544  0.1143
  157MOL0     H21180   8.821   8.118   6.060 -0.2861  2.4263  1.1811
  157MOL0     H21181   9.234   8.400   6.265 -3.4476 -2.4414  0.7358
  157MOL0     H21182   9.302   8.645   6.292 -0.8769  5.2333  1.2535
  157MOL0     H21183   9.318   8.883   6.298  0.0527 -0.6485  0.4999
  157MOL0     H21184   9.249   8.813   6.452  0.7502  1.7087  1.4692
  157MOL0     H21185   9.227   9.075   6.306 -0.4878  1.4596  0.0878
  157MOL0     H21186   9.317   9.049   6.457  1.9115 -4.7624  0.4900
  157MOL0     H21187   9.129   9.064   6.590  2.1710 -0.4243 -0.3249
  157MOL0     H21188   9.014   9.006   6.475  1.9045 -0.2163  1.5106
  157MOL0     H21189   8.981   9.246   6.519 -0.5244  2.2993 -1.5560
  157MOL0     H21190   9.138   9.281   6.448 -1.6811  2.4384 -2.0086
  157MOL0     H21191   8.958   9.166   6.094  1.5667 -3.8421  0.9841
  157MOL0     H21192   8.906   8.764   6.228 -1.5392 -1.8279 -1.9001
  157MOL0     H21193   8.745   8.569   6.097 -1.8438  0.1611  0.8660
  157MOL0     H21194   8.786   8.410   6.146 -2.5003  0.2630 -1.3329
  157MOL0     H21195   8.737   8.546   6.269 -0.1745  0.7438  0.2790
  158MOL0     O21196   4.970   9.877  10.037  0.3277  0.3466 -0.5452
  158MOL0     C21197   5.061   9.794  10.043 -0.2277 -0.0721 -0.3917
  158MOL0     O21198   5.178   9.802   9.978 -0.3616  0.0657 -0.7524
  158MOL0     C21199   5.207   9.908   9.906 -0.0004 -0.5906  0.0331
  158MOL0     C21200   5.197   9.909   9.765 -0.1763  0.0967 -0.0457
  158MOL0     C21201   5.219  10.020   9.687  0.3714  0.4438 -0.1460
  158MOL0     C21202   5.268  10.139   9.745 -0.2792 -0.7342 -0.1582
  158MOL0     O21203   5.301  10.267   9.699 -0.0999 -0.2486  0.2257
  158MOL0     C21204   5.319  10.282   9.560 -0.7281  0.5693 -0.1090
  158MOL0     C21205   5.318  10.421   9.513  0.3456  0.2478 -0.2644
  158MOL0     C21206   5.349  10.423   9.364  0.3674 -0.2251 -0.0415
  158MOL0     C21207   5.406  10.553   9.313 -0.8016 -0.1173  0.2369
  158MOL0     C21208   5.396  10.566   9.156 -0.8811  0.0659 -0.0380
  158MOL0     C21209   5.508  10.499   9.083 -0.5664 -0.5934 -0.8435
  158MOL0     C21210   5.495  10.525   8.927 -0.4740 -0.7490 -0.0482
  158MOL0     C21211   5.621  10.460   8.863  1.0492  0.7002 -1.5162
  158MOL0     N21212   5.603  10.442   8.717  0.3925  0.2440  0.1840
  158MOL0     C21213   5.539  10.340   8.656  0.4379  0.5001  0.0681
  158MOL0     C21214   5.561  10.362   8.525 -0.0156  0.6857  0.5236
  158MOL0     C21215   5.513  10.266   8.421 -0.3117  0.3859  1.3785
  158MOL0     C21216   5.619  10.198   8.329 -0.1139  0.2948  0.6368
  158MOL0     C21217   5.726  10.130   8.421  0.5208 -0.2425 -0.0473
  158MOL0     C21218   5.811  10.017   8.364 -0.3994  0.3913  0.0349
  158MOL0     O21219   5.741   9.895   8.355  0.1610  0.3566 -0.3053
  158MOL0     C21220   5.779   9.779   8.288 -0.0604 -0.6144 -0.8788
  158MOL0     C21221   5.699   9.679   8.323 -0.4207  0.1174 -0.1212
  158MOL0     C21222   5.717   9.552   8.271 -0.5399 -0.0938  0.4312
  158MOL0     C21223   5.817   9.529   8.174 -0.0784  0.2941  0.8033
  158MOL0     C21224   5.831   9.394   8.107 -0.3103  1.7597  1.1051
  158MOL0     O21225   5.768   9.283   8.162  0.7314  0.3869 -0.6459
  158MOL0     C21226   5.795   9.163   8.110 -0.5916  0.0191 -0.1010
  158MOL0     C21227   5.920   9.097   8.119 -1.1761 -0.3258  0.4507
  158MOL0     C21228   5.952   8.980   8.050 -0.3203  0.3388 -0.4807
  158MOL0     C21229   5.851   8.906   7.985  1.0719 -0.2292 -0.0686
  158MOL0     O21230   5.860   8.782   7.928 -0.6514  0.6685 -0.0493
  158MOL0     C21231   5.938   8.682   7.993  0.5288  0.6806  0.1118
  158MOL0     C21232   5.999   8.586   7.889 -0.0628  0.0750  0.3454
  158MOL0     C21233   5.907   8.463   7.865 -0.2558  0.0848  0.3079
  158MOL0     C21234   5.949   8.364   7.760  0.7712 -0.2503  1.2033
  158MOL0     C21235   5.856   8.243   7.752 -0.6235  0.4717  0.7689
  158MOL0     C21236   5.851   8.183   7.612  0.5415  0.4615 -0.2267
  158MOL0     C21237   5.985   8.149   7.552 -0.3072 -0.8331 -0.4806
  158MOL0     C21238   6.067   8.046   7.630  0.6370 -0.1886  0.9577
  158MOL0    Cl21239   6.219   8.013   7.542 -0.0322 -0.2522 -0.1301
  158MOL0     C21240   5.724   8.971   7.977 -0.2934  0.9251 -0.3313
  158MOL0     C21241   5.700   9.093   8.034  0.2584 -0.3850  0.2883
  158MOL0     O21242   5.915   9.391   8.016 -0.0662 -0.0635 -0.6389
  158MOL0     C21243   5.901   9.640   8.128  0.0909  1.0364 -0.0235
  158MOL0     C21244   5.879   9.764   8.185  0.2702  0.1326 -0.5343
  158MOL0     N21245   5.627  10.478   8.501  0.1002  0.0890 -0.4127
  158MOL0     N21246   5.658  10.521   8.618  0.0358 -0.4908  0.8557
  158MOL0     C21247   5.294  10.137   9.886  0.3177 -0.2775 -0.4783
  158MOL0     C21248   5.257  10.026   9.962 -0.1664  0.3138  0.4784
  158MOL0     C21249   5.031   9.660  10.102  0.4256  0.0963  0.0130
  158MOL0     C21250   5.137   9.559  10.110 -0.0325 -0.1429  0.2879
  158MOL0     C21251   5.123   9.434  10.162 -0.0394  0.1067 -0.2678
  158MOL0     C21252   5.009   9.411  10.242 -0.7879 -0.0572  0.1496
  158MOL0     O21253   5.016   9.297  10.316 -0.6161  0.2465  0.0461
  158MOL0     C21254   4.931   9.300  10.436 -0.0881 -0.3224  0.9059
  158MOL0     C21255   4.985   9.202  10.537 -0.1011  0.9627 -0.1256
  158MOL0     C21256   5.005   9.057  10.487 -0.2144 -0.7736 -0.4780
  158MOL0     C21257   4.871   8.992  10.445 -0.7467 -0.2753  0.4667
  158MOL0     C21258   4.879   8.850  10.483 -0.8390 -0.1224 -0.0648
  158MOL0     C21259   4.881   8.730  10.510  0.0374  0.0842  0.0278
  158MOL0     C21260   4.901   9.496  10.223 -0.8490  0.2670 -0.1405
  158MOL0     C21261   4.907   9.616  10.158 -0.4006  0.1860 -0.3944
  158MOL0     C21262   4.777   9.702  10.147  0.1894  0.8028  0.0303
  158MOL0     H21263   5.169   9.815   9.719  0.2266  0.3608 -0.8383
  158MOL0     H21264   5.193  10.032   9.582 -1.8093  0.6086  0.3479
  158MOL0     H21265   5.408  10.227   9.528 -0.5868  1.3760 -1.1477
  158MOL0     H21266   5.234  10.235   9.510 -0.8535 -1.2014  1.6499
  158MOL0     H21267   5.388  10.481   9.572  2.7512 -0.1432 -2.5400
  158MOL0     H21268   5.218  10.465   9.527 -0.3086 -1.5567  1.1478
  158MOL0     H21269   5.254  10.413   9.310  0.5870  0.8975 -0.6654
  158MOL0     H21270   5.419  10.342   9.340  0.3679 -0.9029  2.0174
  158MOL0     H21271   5.342  10.635   9.348  0.7530  0.2271  2.4144
  158MOL0     H21272   5.506  10.559   9.355 -1.1012 -2.5093  1.4602
  158MOL0     H21273   5.300  10.535   9.113 -0.3387  2.3208 -3.3308
  158MOL0     H21274   5.400  10.673   9.131 -2.6743  0.0027 -0.7285
  158MOL0     H21275   5.606  10.530   9.118 -1.1325  0.9338 -0.5704
  158MOL0     H21276   5.512  10.392   9.105  4.0230 -0.4662 -0.0419
  158MOL0     H21277   5.494  10.633   8.907  2.0887 -0.4083  1.3285
  158MOL0     H21278   5.402  10.489   8.881 -1.8957  0.7895  1.4423
  158MOL0     H21279   5.708  10.524   8.883  1.0517  0.4368 -0.6285
  158MOL0     H21280   5.640  10.366   8.917 -0.1398  0.6300 -1.1936
  158MOL0     H21281   5.475  10.264   8.700 -0.5845  1.5308  0.3934
  158MOL0     H21282   5.463  10.186   8.476 -0.5780  0.2185  0.8917
  158MOL0     H21283   5.447  10.322   8.355  2.3173  2.1349  0.0121
  158MOL0     H21284   5.570  10.122   8.268 -0.2720  2.5103 -2.2025
  158MOL0     H21285   5.672  10.270   8.266  1.9181 -0.9262  0.8771
  158MOL0     H21286   5.679  10.115   8.519 -1.4225  2.6648 -0.3945
  158MOL0     H21287   5.803  10.206   8.437 -2.5806  2.9013  1.3733
  158MOL0     H21288   5.899  10.003   8.427  0.2983 -0.9290 -1.1874
  158MOL0     H21289   5.858  10.040   8.269  1.8083 -0.6601  0.8002
  158MOL0     H21290   5.606   9.684   8.379 -1.9671 -3.1695 -2.1466
  158MOL0     H21291   5.650   9.472   8.303 -1.4436  0.9600  1.2739
  158MOL0     H21292   6.003   9.144   8.170 -1.8102  0.0227  1.1931
  158MOL0     H21293   6.049   8.940   8.075 -1.7016 -2.2169  1.3198
  158MOL0     H21294   6.026   8.719   8.047  1.6450 -2.6739  0.8140
  158MOL0     H21295   5.865   8.629   8.054 -0.4059  1.2464 -0.4860
  158MOL0     H21296   6.005   8.643   7.796  1.3239  1.4866  1.2593
  158MOL0     H21297   6.104   8.566   7.912 -0.1285 -0.3688  0.2699
  158MOL0     H21298   5.909   8.403   7.956  1.4949  0.7230  0.7424
  158MOL0     H21299   5.805   8.500   7.852 -0.5983 -1.3157 -1.5775
  158MOL0     H21300   6.052   8.328   7.770  0.7448 -1.2834 -1.4169
  158MOL0     H21301   5.951   8.417   7.665 -0.0198  0.3268  1.5011
  158MOL0     H21302   5.757   8.252   7.799 -0.7511 -3.8303  1.7985
  158MOL0     H21303   5.900   8.167   7.817  0.1442  0.7095  0.5384
  158MOL0     H21304   5.792   8.091   7.609  0.7253  0.3649 -1.5076
  158MOL0     H21305   5.812   8.253   7.538  1.5615 -0.5731 -1.7984
  158MOL0     H21306   6.040   8.244   7.554 -2.8198  0.7187  0.8046
  158MOL0     H21307   5.967   8.126   7.447  1.5727 -0.8187 -0.8373
  158MOL0     H21308   6.093   8.091   7.726  2.5365 -0.4137  0.5840
  158MOL0     H21309   6.009   7.955   7.651 -1.1861  0.4741 -0.9185
  158MOL0     H21310   5.642   8.930   7.918  1.3917 -0.3356 -1.8893
  158MOL0     H21311   5.618   9.156   8.001  0.8955  1.8127  2.5998
  158MOL0     H21312   5.980   9.627   8.054  2.7936  2.4455  2.4025
  158MOL0     H21313   5.943   9.849   8.162  4.4384 -0.7789  5.4283
  158MOL0     H21314   5.340  10.223   9.933 -2.1321  0.9076 -0.1243
  158MOL0     H21315   5.279  10.026  10.068  0.1602  0.5406  0.4111
  158MOL0     H21316   5.226   9.587  10.054 -0.9041  1.3518 -0.4109
  158MOL0     H21317   5.197   9.354  10.153 -1.9149 -2.1457  2.6132
  158MOL0     H21318   4.831   9.278  10.397 -0.6131  1.0096  1.4572
  158MOL0     H21319   4.919   9.401  10.476  1.7312  1.4945 -2.6275
  158MOL0     H21320   4.922   9.205  10.627  3.7319  0.1225  2.8574
  158MOL0     H21321   5.081   9.228  10.583 -0.4280 -0.7211  1.6670
  158MOL0     H21322   5.063   8.997  10.558 -0.4302 -0.2680  0.1253
  158MOL0     H21323   5.064   9.077  10.396 -0.3006  2.2562  0.0263
  158MOL0     H21324   4.782   9.025  10.501  0.3124  0.8387  1.5595
  158MOL0     H21325   4.853   8.991  10.337  0.2290 -0.9863  0.3030
  158MOL0     H21326   4.874   8.626  10.537  0.1431  0.5870  2.1702
  158MOL0     H21327   4.805   9.472  10.268 -0.2236 -0.5912  0.7958
  158MOL0     H21328   4.693   9.640  10.178  1.5152 -1.1298 -0.0975
  158MOL0     H21329   4.784   9.785  10.218 -3.1287 -0.9867  2.7609
  158MOL0     H21330   4.752   9.733  10.045  1.0257 -0.4619 -0.5841
  159MOL0     O21331   0.377  10.394   9.043  0.0392 -0.0408  0.0122
  159MOL0     C21332   0.466  10.456   9.095 -0.3756 -0.0420 -0.0125
  159MOL0     O21333   0.519  10.562   9.033  0.7367  0.8754 -0.2179
  159MOL0     C21334   0.527  10.563   8.895  0.9779  0.4658  0.6161
  159MOL0     C21335   0.510  10.690   8.831 -0.0432  0.3502  1.0762
  159MOL0     C21336   0.511  10.703   8.693  0.4121  0.6054  0.6590
  159MOL0     C21337   0.553  10.585   8.617  0.6128  0.1314  0.1453
  159MOL0     O21338   0.560  10.611   8.478  1.1147 -0.2940  0.3609
  159MOL0     C21339   0.570  10.503   8.384 -0.1448  0.8140  1.0209
  159MOL0     C21340   0.565  10.572   8.246 -0.4080  0.4293  0.0422
  159MOL0     C21341   0.535  10.475   8.130  0.4928  0.3075  0.3340
  159MOL0     C21342   0.630  10.361   8.137 -0.0084  0.4262  0.7050
  159MOL0     C21343   0.615  10.276   8.008 -0.5152 -0.3353  0.3086
  159MOL0     C21344   0.691  10.146   8.043  0.8107 -0.2726  0.5202
  159MOL0     C21345   0.700  10.058   7.916 -0.1162  0.3979 -0.2597
  159MOL0     C21346   0.828  10.097   7.840 -0.7297  0.3021 -0.7123
  159MOL0     N21347   0.846  10.056   7.695  0.1276  0.6673 -0.0468
  159MOL0     C21348   0.732  10.060   7.616  0.0958  0.1040  0.3598
  159MOL0     C21349   0.784  10.026   7.500 -1.2230 -0.9825 -0.0113
  159MOL0     C21350   0.720  10.039   7.367  0.1363 -0.8724  0.1193
  159MOL0     C21351   0.776  10.152   7.284 -0.2883  0.2075  0.2416
  159MOL0     C21352   0.908  10.124   7.211  0.3656 -1.3752  0.6837
  159MOL0     C21353   0.924  10.007   7.118  0.0958  0.8274 -0.7001
  159MOL0     O21354   0.821   9.991   7.026  0.6702 -0.5591 -0.0462
  159MOL0     C21355   0.854   9.922   6.922 -0.3251 -0.4317  0.0977
  159MOL0     C21356   0.802   9.967   6.804 -0.1716 -0.4618  0.3707
  159MOL0     C21357   0.846   9.899   6.680  0.8885  0.5681  0.1118
  159MOL0     C21358   0.943   9.790   6.679  0.8835 -0.1453 -0.3481
  159MOL0     C21359   0.972   9.723   6.553 -0.8819 -0.1456  0.2929
  159MOL0     O21360   0.905   9.776   6.450  0.7310 -0.1439  0.3041
  159MOL0     C21361   0.917   9.722   6.317 -0.1448  0.6728 -0.3355
  159MOL0     C21362   0.894   9.809   6.212 -0.1478  0.0249  0.6026
  159MOL0     C21363   0.889   9.767   6.073  0.2280  0.1011 -0.6903
  159MOL0     C21364   0.911   9.628   6.042  0.1634  1.0452  0.7191
  159MOL0     O21365   0.906   9.581   5.910  0.6691 -0.1077 -0.2155
  159MOL0     C21366   0.962   9.451   5.883  0.2883  0.1163 -0.5212
  159MOL0     C21367   0.980   9.436   5.728  0.2580  0.3167 -0.9272
  159MOL0     C21368   1.096   9.363   5.676 -0.4662 -0.4777  0.4984
  159MOL0     C21369   1.218   9.458   5.668 -0.2134  0.7501  0.2872
  159MOL0     C21370   1.356   9.395   5.626 -0.1075 -0.5747  0.6803
  159MOL0     C21371   1.349   9.325   5.494 -0.2697 -0.8152  0.4921
  159MOL0     C21372   1.481   9.331   5.429 -0.1227  0.6897 -0.6650
  159MOL0     C21373   1.482   9.258   5.304 -0.5112 -0.4205  0.1639
  159MOL0    Cl21374   1.616   9.312   5.205 -0.9401 -0.1606  0.1365
  159MOL0     C21375   0.948   9.545   6.146 -0.2670  0.2344 -0.1653
  159MOL0     C21376   0.942   9.587   6.280 -0.1718 -0.8032 -0.0446
  159MOL0     O21377   1.042   9.615   6.547  0.0089 -0.4508 -0.0611
  159MOL0     C21378   0.994   9.755   6.806  0.2753  0.9089  0.2374
  159MOL0     C21379   0.950   9.817   6.924 -0.2120 -0.5502 -0.5974
  159MOL0     N21380   0.920   9.990   7.522  0.0598  0.0316  0.5161
  159MOL0     N21381   0.959   9.998   7.644  0.6554  0.0918 -0.4419
  159MOL0     C21382   0.592  10.470   8.679  0.3192  0.4173  0.2184
  159MOL0     C21383   0.571  10.458   8.818 -0.4075  0.2128 -0.1411
  159MOL0     C21384   0.518  10.406   9.228  0.0678 -0.8545  0.1845
  159MOL0     C21385   0.658  10.432   9.249 -0.0191  0.1436  0.0637
  159MOL0     C21386   0.729  10.403   9.361  0.5800  0.0231 -0.1109
  159MOL0     C21387   0.667  10.331   9.466 -0.1130  0.3602 -0.5368
  159MOL0     O21388   0.751  10.292   9.571  0.1712 -0.6073 -0.3486
  159MOL0     C21389   0.694  10.222   9.680  0.3490 -0.3048  0.6282
  159MOL0     C21390   0.787  10.227   9.796  0.6687  0.0995  0.5048
  159MOL0     C21391   0.717  10.178   9.927  0.1735 -0.3398 -0.6538
  159MOL0     C21392   0.798  10.210  10.050  0.3533 -0.8065 -0.2241
  159MOL0     C21393   0.765  10.124  10.172  0.1521  0.0529  0.0505
  159MOL0     C21394   0.733  10.063  10.271 -0.2894 -0.2993 -1.0745
  159MOL0     C21395   0.527  10.297   9.449 -0.3306  0.2062  0.6984
  159MOL0     C21396   0.455  10.333   9.331  0.2646 -0.2320 -0.6758
  159MOL0     C21397   0.311  10.275   9.316 -0.4342  0.5775  0.2452
  159MOL0     H21398   0.483  10.783   8.880  2.4590  1.2370  0.9310
  159MOL0     H21399   0.488  10.793   8.636  4.5373  1.2165 -0.3787
  159MOL0     H21400   0.661  10.443   8.395 -0.2700  0.0164 -1.5496
  159MOL0     H21401   0.480  10.441   8.396 -0.7875  1.3829 -0.5082
  159MOL0     H21402   0.662  10.621   8.236  0.0595  0.2117  2.7502
  159MOL0     H21403   0.484  10.644   8.256 -0.2363  0.5985  0.2144
  159MOL0     H21404   0.547  10.534   8.039 -1.3656  1.4576  0.7735
  159MOL0     H21405   0.434  10.434   8.132  0.3910 -0.1870 -4.5729
  159MOL0     H21406   0.731  10.402   8.133  1.9401 -3.7816 -3.9531
  159MOL0     H21407   0.610  10.297   8.223 -0.0097 -0.7715 -0.1569
  159MOL0     H21408   0.509  10.256   7.989 -0.2045 -0.0555 -1.8831
  159MOL0     H21409   0.655  10.327   7.921 -1.9498 -2.4794 -1.7321
  159MOL0     H21410   0.795  10.159   8.073  1.9613 -2.7075 -1.9280
  159MOL0     H21411   0.649  10.092   8.128 -0.8206 -1.0135 -0.7069
  159MOL0     H21412   0.612  10.069   7.853 -0.4072 -1.0303 -0.1349
  159MOL0     H21413   0.714   9.957   7.955  2.1699  0.4499 -0.7993
  159MOL0     H21414   0.833  10.206   7.827 -0.4605  0.2568 -1.0080
  159MOL0     H21415   0.916  10.067   7.899  2.8248  1.8418 -4.6893
  159MOL0     H21416   0.628  10.080   7.640 -0.8204 -3.7425  0.2183
  159MOL0     H21417   0.735   9.944   7.314  0.9778  0.4747 -2.1703
  159MOL0     H21418   0.613  10.059   7.377  0.2909 -0.2966  0.6753
  159MOL0     H21419   0.714  10.171   7.195 -0.8222  0.3164  0.6302
  159MOL0     H21420   0.799  10.239   7.346 -0.6790  0.0390  0.6228
  159MOL0     H21421   0.988  10.125   7.286  0.2159  0.8475  0.8627
  159MOL0     H21422   0.941  10.207   7.148 -1.1748 -0.0756  1.5107
  159MOL0     H21423   0.922   9.912   7.171 -1.1676  0.1589 -1.8709
  159MOL0     H21424   1.027  10.017   7.082  1.1117 -0.3611  1.6880
  159MOL0     H21425   0.723  10.041   6.805  0.0940 -0.1692  0.0119
  159MOL0     H21426   0.789   9.929   6.593  0.9589 -3.3486 -1.5051
  159MOL0     H21427   0.871   9.915   6.219 -0.3383 -0.0112  0.5259
  159MOL0     H21428   0.857   9.829   5.990 -2.9151  3.5854  2.7255
  159MOL0     H21429   1.060   9.435   5.927 -0.2404 -0.3142  0.5324
  159MOL0     H21430   0.905   9.365   5.919  0.6379  0.5830  1.2357
  159MOL0     H21431   0.893   9.374   5.702 -2.0378  3.2483 -0.7545
  159MOL0     H21432   0.964   9.532   5.678 -0.9674  1.5951  1.7226
  159MOL0     H21433   1.130   9.275   5.731 -0.7142 -0.0398  1.3836
  159MOL0     H21434   1.052   9.329   5.582  0.1883  2.0892 -0.8136
  159MOL0     H21435   1.231   9.502   5.767  0.6252  1.2910 -0.0529
  159MOL0     H21436   1.199   9.540   5.599 -0.3056  0.7301  0.2889
  159MOL0     H21437   1.404   9.328   5.697  1.6921  0.0739  0.1224
  159MOL0     H21438   1.432   9.474   5.623 -0.0840 -0.5507 -3.4668
  159MOL0     H21439   1.302   9.227   5.498 -1.3108 -0.4493 -1.5108
  159MOL0     H21440   1.288   9.381   5.422 -0.9120 -0.7246  1.0925
  159MOL0     H21441   1.543   9.274   5.499 -2.1675 -2.4645 -1.2380
  159MOL0     H21442   1.517   9.433   5.412  2.0278 -0.2629 -2.2217
  159MOL0     H21443   1.495   9.150   5.319 -0.4440 -0.3885  0.3478
  159MOL0     H21444   1.382   9.263   5.259 -0.3021 -1.8059 -0.5260
  159MOL0     H21445   0.977   9.442   6.126  3.8930  1.5297 -1.9326
  159MOL0     H21446   0.974   9.510   6.350  6.1816  0.7430 -0.6912
  159MOL0     H21447   1.068   9.677   6.822 -0.7569  0.1618  1.5201
  159MOL0     H21448   1.005   9.780   7.010  1.7991  0.1928 -1.4966
  159MOL0     H21449   0.613  10.389   8.610 -0.5096  0.0651  0.3713
  159MOL0     H21450   0.583  10.362   8.868 -0.2768  1.2894  1.9801
  159MOL0     H21451   0.709  10.492   9.174  0.6312 -0.5283 -0.0327
  159MOL0     H21452   0.831  10.437   9.374  0.8540 -0.7898 -0.1276
  159MOL0     H21453   0.677  10.119   9.648  0.7489 -0.2570  0.2551
  159MOL0     H21454   0.600  10.268   9.714  0.6327  1.9773 -1.4387
  159MOL0     H21455   0.823  10.330   9.808 -0.6989  0.6693 -0.0336
  159MOL0     H21456   0.863  10.155   9.765  0.1363  0.0147 -0.6731
  159MOL0     H21457   0.707  10.069   9.926 -0.6035 -0.3054  0.7316
  159MOL0     H21458   0.620  10.229   9.931  0.4075  0.2056 -1.6695
  159MOL0     H21459   0.905  10.190  10.040  1.1186 -0.1184  4.5413
  159MOL0     H21460   0.795  10.318  10.066 -2.9525 -0.6377 -1.2480
  159MOL0     H21461   0.716  10.006  10.360 -0.1517  0.8236 -0.3229
  159MOL0     H21462   0.453  10.250   9.513 -3.4780  1.6564 -1.5830
  159MOL0     H21463   0.311  10.234   9.215 -3.2543 -0.4641  0.5874
  159MOL0     H21464   0.278  10.193   9.381 -1.0093 -1.4937 -2.4701
  159MOL0     H21465   0.240  10.358   9.324 -0.0334  0.9026  0.5081
  160MOL0     O21466   3.187   6.081  11.072  0.0403  0.6215  0.5507
  160MOL0     C21467   3.271   6.164  11.034  0.2669 -0.7561 -0.0305
  160MOL0     O21468   3.395   6.128  10.992 -0.5203 -0.7016  0.3711
  160MOL0     C21469   3.433   5.996  11.015  0.0466  1.3400  0.0108
  160MOL0     C21470   3.402   5.890  10.935  0.1572  0.7551  0.5386
  160MOL0     C21471   3.439   5.754  10.973 -0.2486 -1.1491  0.0927
  160MOL0     C21472   3.500   5.722  11.092  0.1346  0.1872  0.0044
  160MOL0     O21473   3.533   5.591  11.126 -0.0342 -0.4041  0.5754
  160MOL0     C21474   3.645   5.560  11.201 -0.9893 -0.4917 -0.2461
  160MOL0     C21475   3.750   5.477  11.113 -0.7292  0.5588  0.8471
  160MOL0     C21476   3.863   5.422  11.202  0.0745 -0.3125 -0.7468
  160MOL0     C21477   3.967   5.365  11.105  0.3461  0.2073 -0.0142
  160MOL0     C21478   3.924   5.220  11.063  0.0212 -1.0676  1.3508
  160MOL0     C21479   4.009   5.167  10.947  0.2803  1.0211  0.5607
  160MOL0     C21480   3.980   5.017  10.926 -0.1485 -0.5974 -0.3911
  160MOL0     C21481   3.849   5.010  10.843  0.6622  0.2581  0.2784
  160MOL0     N21482   3.817   4.869  10.812 -0.1091 -0.3014  0.1073
  160MOL0     C21483   3.835   4.757  10.887  0.3052 -0.7198  0.6523
  160MOL0     C21484   3.765   4.655  10.816  0.1115 -0.2462 -0.2142
  160MOL0     C21485   3.738   4.513  10.843 -0.7853  0.1974  0.3690
  160MOL0     C21486   3.803   4.424  10.737  0.2971 -0.2273  0.1706
  160MOL0     C21487   3.899   4.317  10.793  0.1063  0.6946  0.7489
  160MOL0     C21488   4.041   4.350  10.809  0.0670 -0.2605 -0.7211
  160MOL0     O21489   4.063   4.496  10.817 -0.3114  0.2606 -0.0524
  160MOL0     C21490   4.160   4.544  10.725  1.3587 -0.3313 -0.4715
  160MOL0     C21491   4.121   4.658  10.657 -0.0397 -0.1101 -0.1415
  160MOL0     C21492   4.219   4.730  10.581 -0.7754  0.0745  0.4395
  160MOL0     C21493   4.350   4.672  10.547 -0.6367  1.1623  0.8124
  160MOL0     C21494   4.455   4.742  10.462  0.2644  0.3635  0.1326
  160MOL0     O21495   4.423   4.873  10.435 -0.4990  0.0234  0.5888
  160MOL0     C21496   4.517   4.969  10.396 -0.2883 -0.2557  0.4114
  160MOL0     C21497   4.538   4.995  10.256 -0.0541 -0.6869 -0.7260
  160MOL0     C21498   4.613   5.108  10.223 -0.6503 -0.4401 -0.5763
  160MOL0     C21499   4.668   5.189  10.314 -0.4324  0.7079 -0.4568
  160MOL0     O21500   4.736   5.301  10.267  0.2690  0.9922  0.1728
  160MOL0     C21501   4.867   5.322  10.309  0.4805 -0.1148 -1.0060
  160MOL0     C21502   4.942   5.349  10.187 -0.2808 -0.2581  0.0415
  160MOL0     C21503   4.955   5.225  10.106 -0.3416 -0.0980 -0.3613
  160MOL0     C21504   5.027   5.261   9.980 -1.1451  0.1315 -0.3104
  160MOL0     C21505   5.104   5.148   9.903  1.4465  0.4127  0.5589
  160MOL0     C21506   5.211   5.200   9.817  0.9400 -0.2134  0.2450
  160MOL0     C21507   5.263   5.098   9.704  0.8322 -0.2206 -0.2897
  160MOL0     C21508   5.310   4.974   9.781  0.0377  0.0466 -0.2091
  160MOL0    Cl21509   5.419   4.865   9.687 -0.1116 -0.0632  0.1508
  160MOL0     C21510   4.640   5.165  10.449 -0.0794 -0.3927 -0.5832
  160MOL0     C21511   4.572   5.053  10.490  0.2249 -0.3039  0.1438
  160MOL0     O21512   4.565   4.680  10.453 -0.3913 -0.4546  0.4678
  160MOL0     C21513   4.376   4.547  10.604 -0.6901  0.5907 -0.9806
  160MOL0     C21514   4.286   4.481  10.697 -0.6539 -0.4597 -0.2734
  160MOL0     N21515   3.696   4.722  10.713 -0.6004 -0.1241 -1.0162
  160MOL0     N21516   3.735   4.845  10.714 -0.6736 -1.0862  1.3887
  160MOL0     C21517   3.545   5.842  11.162 -0.5206  0.1798 -0.2141
  160MOL0     C21518   3.518   5.969  11.121  0.2641 -0.4944  0.3147
  160MOL0     C21519   3.234   6.317  11.016  0.5941  0.3616 -0.0087
  160MOL0     C21520   3.314   6.398  10.925  0.0989  0.5379  0.1249
  160MOL0     C21521   3.278   6.532  10.895 -0.4214  0.5582  0.6225
  160MOL0     C21522   3.171   6.586  10.957  0.2855 -0.5441  0.4327
  160MOL0     O21523   3.130   6.713  10.915  0.1283  0.1015  0.9158
  160MOL0     C21524   3.010   6.698  10.831 -0.4656 -0.4472  0.2531
  160MOL0     C21525   2.886   6.730  10.910 -0.8491  0.7221  0.4852
  160MOL0     C21526   2.756   6.761  10.833 -0.2976 -1.0372 -1.1106
  160MOL0     C21527   2.652   6.745  10.939 -0.3207 -0.0614 -0.1421
  160MOL0     C21528   2.530   6.793  10.887 -0.0771 -0.1032  0.5989
  160MOL0     C21529   2.422   6.822  10.829 -0.2109  0.0378  0.6800
  160MOL0     C21530   3.098   6.511  11.048  0.6472  0.2646  0.1275
  160MOL0     C21531   3.127   6.377  11.081 -0.4864 -0.5416  0.0742
  160MOL0     C21532   3.031   6.308  11.183  0.2537 -0.4600 -0.1520
  160MOL0     H21533   3.362   5.905  10.835  8.1780  2.3473 -3.2047
  160MOL0     H21534   3.416   5.673  10.904 -0.0713 -2.2769  1.3263
  160MOL0     H21535   3.694   5.651  11.235  1.1077 -1.8488  0.5477
  160MOL0     H21536   3.616   5.516  11.297  1.9135  0.7510  1.3333
  160MOL0     H21537   3.784   5.530  11.024  4.3703 -3.6425 -0.2412
  160MOL0     H21538   3.698   5.402  11.052 -2.7685  2.4198  0.1285
  160MOL0     H21539   3.821   5.350  11.273  0.4612 -0.2087 -0.4116
  160MOL0     H21540   3.910   5.505  11.255 -3.7644 -0.0157  2.6654
  160MOL0     H21541   3.980   5.432  11.018 -0.5461  3.7297  2.3534
  160MOL0     H21542   4.055   5.367  11.169 -1.2830  1.9540  2.3337
  160MOL0     H21543   3.940   5.157  11.151  0.6952  0.5158  2.4059
  160MOL0     H21544   3.819   5.215  11.030  0.7013 -0.0254 -1.1938
  160MOL0     H21545   3.979   5.222  10.858 -2.2452 -2.3903 -0.9632
  160MOL0     H21546   4.115   5.179  10.970  0.7122 -0.2713 -0.5839
  160MOL0     H21547   3.983   4.968  11.024  0.5305  1.4191  0.6420
  160MOL0     H21548   4.069   4.982  10.872  0.7227  1.9883 -0.7732
  160MOL0     H21549   3.767   5.056  10.901 -0.0772 -0.7852  0.0894
  160MOL0     H21550   3.864   5.069  10.752  1.2765 -1.2989 -0.6577
  160MOL0     H21551   3.879   4.757  10.986 -1.3101  0.2174  1.4222
  160MOL0     H21552   3.791   4.494  10.936  1.4963 -2.2184 -1.2825
  160MOL0     H21553   3.630   4.498  10.853 -1.3801  1.0811 -3.3468
  160MOL0     H21554   3.723   4.365  10.692 -0.8093  2.4315 -1.5834
  160MOL0     H21555   3.857   4.476  10.657  1.1019  2.3645  2.2594
  160MOL0     H21556   3.898   4.241  10.715  4.6985  2.4526 -1.3227
  160MOL0     H21557   3.862   4.263  10.881 -4.5034  1.1125 -0.6603
  160MOL0     H21558   4.111   4.295  10.747  2.0045  0.3416  0.8156
  160MOL0     H21559   4.063   4.328  10.914  0.8866  3.8286  0.1517
  160MOL0     H21560   4.023   4.705  10.662  0.4314  0.9448 -0.4531
  160MOL0     H21561   4.196   4.824  10.531  3.4530  0.3048 -1.4895
  160MOL0     H21562   4.488   4.944  10.174  2.2785 -0.5347 -2.3321
  160MOL0     H21563   4.641   5.148  10.126  1.0874  0.1427  0.1243
  160MOL0     H21564   4.845   5.408  10.373 -3.1526  0.6500 -3.0115
  160MOL0     H21565   4.918   5.241  10.363  2.7374  2.5096  1.1234
  160MOL0     H21566   4.891   5.420  10.122  0.7525 -1.0781 -1.7448
  160MOL0     H21567   5.039   5.390  10.217  0.6545 -2.1670 -0.2443
  160MOL0     H21568   5.003   5.142  10.158  0.2716 -0.8629 -2.0648
  160MOL0     H21569   4.855   5.191  10.076  0.4409 -1.4012 -1.6552
  160MOL0     H21570   5.102   5.335  10.010 -2.5755  1.2726  0.5294
  160MOL0     H21571   4.971   5.323   9.910 -1.7127  2.0827  1.7669
  160MOL0     H21572   5.042   5.075   9.850 -1.4108 -0.9204  5.1836
  160MOL0     H21573   5.155   5.078   9.970 -0.0782 -3.1411 -1.6650
  160MOL0     H21574   5.173   5.287   9.762  3.1543 -0.1729 -1.3805
  160MOL0     H21575   5.299   5.239   9.869  0.6718  0.7408  0.0049
  160MOL0     H21576   5.346   5.145   9.649  0.6210  2.2225  1.3112
  160MOL0     H21577   5.180   5.074   9.637  0.8935 -2.3766  0.3314
  160MOL0     H21578   5.353   5.000   9.878 -1.0670 -1.7164  0.8131
  160MOL0     H21579   5.220   4.915   9.799  0.0956 -0.4189 -1.3530
  160MOL0     H21580   4.686   5.237  10.517 -1.4301 -0.9979  1.0561
  160MOL0     H21581   4.552   5.039  10.596  0.6549  2.0861  0.6155
  160MOL0     H21582   4.473   4.501  10.589  0.0346  0.4978  2.9603
  160MOL0     H21583   4.318   4.385  10.737  2.4751  0.5330 -0.1282
  160MOL0     H21584   3.588   5.827  11.260 -1.3059 -1.5136 -0.0908
  160MOL0     H21585   3.541   6.058  11.179  3.2928 -0.9584 -0.0443
  160MOL0     H21586   3.396   6.359  10.866  0.5932  1.6877  0.0387
  160MOL0     H21587   3.330   6.581  10.813 -2.3208 -1.4584 -1.9629
  160MOL0     H21588   2.996   6.597  10.792 -1.0767 -1.1341  2.1316
  160MOL0     H21589   3.016   6.769  10.748  0.8344 -1.1501 -0.2755
  160MOL0     H21590   2.910   6.805  10.986  1.2266 -0.7330  1.3282
  160MOL0     H21591   2.876   6.640  10.971  3.2403 -0.5744 -0.4546
  160MOL0     H21592   2.736   6.672  10.773 -0.3138 -0.3096 -2.2012
  160MOL0     H21593   2.765   6.850  10.770  4.8438  0.7107  1.4785
  160MOL0     H21594   2.641   6.639  10.963  0.6762  0.2504  1.8727
  160MOL0     H21595   2.679   6.793  11.033  3.9552 -1.5304 -0.4052
  160MOL0     H21596   2.332   6.842  10.773 -0.0178  2.1605  1.0730
  160MOL0     H21597   3.013   6.558  11.098 -1.1740  0.7980 -3.1783
  160MOL0     H21598   3.081   6.280  11.276 -0.4793  0.1852  0.4513
  160MOL0     H21599   2.944   6.373  11.199 -0.3109 -1.0360 -0.8299
  160MOL0     H21600   3.001   6.218  11.129 -1.9085 -0.2489  0.6032
  161MOL0     O21601   2.372   7.011   5.146 -0.2289 -0.1300 -0.1095
  161MOL0     C21602   2.474   6.952   5.170  0.7401  0.0223  0.0332
  161MOL0     O21603   2.528   6.861   5.086 -0.0867 -0.3247 -0.0492
  161MOL0     C21604   2.442   6.815   4.989 -0.4598  0.1658 -0.4716
  161MOL0     C21605   2.362   6.706   5.007  0.0161 -0.0695  0.9530
  161MOL0     C21606   2.271   6.659   4.906 -0.7132 -0.0071  0.5472
  161MOL0     C21607   2.272   6.722   4.781 -0.1437  0.1045 -0.1122
  161MOL0     O21608   2.190   6.684   4.673  0.0591  0.2398 -0.1170
  161MOL0     C21609   2.077   6.775   4.656  0.0158  0.0503  1.2608
  161MOL0     C21610   1.968   6.682   4.604 -0.3403 -0.5408  0.5574
  161MOL0     C21611   1.846   6.763   4.554 -0.2135  0.5509 -0.3409
  161MOL0     C21612   1.748   6.695   4.470 -0.6346  0.5931 -0.0890
  161MOL0     C21613   1.646   6.631   4.561  0.7519  0.0792  0.2272
  161MOL0     C21614   1.520   6.586   4.486  0.2342 -0.7285 -0.1136
  161MOL0     C21615   1.415   6.513   4.569 -0.7271 -0.1315  0.1747
  161MOL0     C21616   1.338   6.602   4.655 -0.2499 -1.1933  0.6225
  161MOL0     N21617   1.240   6.536   4.739 -0.0750  0.1357  0.3693
  161MOL0     C21618   1.107   6.496   4.707 -0.3243 -0.1536 -0.3044
  161MOL0     C21619   1.055   6.476   4.823 -0.2283  0.9228 -0.0659
  161MOL0     C21620   0.907   6.469   4.859  0.4909  0.0714  1.2907
  161MOL0     C21621   0.881   6.569   4.970 -0.0211 -0.4086 -0.4968
  161MOL0     C21622   0.739   6.571   5.020 -0.8109 -0.6371  0.5221
  161MOL0     C21623   0.695   6.690   5.099 -0.7441 -0.7628 -0.3528
  161MOL0     O21624   0.559   6.668   5.148  0.4598 -1.4651 -0.1597
  161MOL0     C21625   0.488   6.782   5.203  0.4201  0.1189 -0.2623
  161MOL0     C21626   0.543   6.913   5.206  0.0670  1.0473  0.4584
  161MOL0     C21627   0.472   7.023   5.252  1.0420 -0.0606  0.7294
  161MOL0     C21628   0.333   7.005   5.297 -0.8878 -0.2785 -0.8041
  161MOL0     C21629   0.253   7.124   5.334  0.1439 -0.2820  0.0328
  161MOL0     O21630   0.151   7.109   5.429  0.0626 -0.0824 -0.2873
  161MOL0     C21631   0.083   7.222   5.468  0.1554 -0.3072 -0.8187
  161MOL0     C21632   0.148   7.328   5.531  0.4903 -1.2251  0.2204
  161MOL0     C21633   0.072   7.412   5.605  1.4771 -0.7648  0.2398
  161MOL0     C21634  -0.070   7.407   5.621 -0.8380 -0.7286  0.0475
  161MOL0     O21635  -0.129   7.505   5.701 -0.0721  0.5089 -0.2428
  161MOL0     C21636  -0.268   7.501   5.708 -0.2129 -0.3549 -0.6317
  161MOL0     C21637  -0.334   7.572   5.588 -0.2083  1.0842  0.0340
  161MOL0     C21638  -0.328   7.722   5.605 -0.3398 -0.5907 -0.0583
  161MOL0     C21639  -0.418   7.780   5.500  0.5703  0.1517  0.5261
  161MOL0     C21640  -0.436   7.934   5.509 -0.5336 -0.6955  0.2062
  161MOL0     C21641  -0.521   7.970   5.385 -0.6586  0.5236 -1.0094
  161MOL0     C21642  -0.580   8.098   5.422  0.5690 -0.9125 -0.3063
  161MOL0     C21643  -0.682   8.138   5.320  0.1829  0.3132 -0.5889
  161MOL0    Cl21644  -0.823   8.048   5.332  0.1290 -0.0348  0.3455
  161MOL0     C21645  -0.131   7.306   5.552  0.7536 -0.7412  0.0363
  161MOL0     C21646  -0.061   7.215   5.477  1.0906  0.0342  0.6100
  161MOL0     O21647   0.281   7.228   5.270 -0.5741  0.3533  0.3366
  161MOL0     C21648   0.274   6.884   5.284 -0.3647  0.4139  0.8571
  161MOL0     C21649   0.354   6.767   5.251  0.3673  0.6744  0.1770
  161MOL0     N21650   1.145   6.483   4.922  0.2676 -0.0154 -0.0331
  161MOL0     N21651   1.256   6.515   4.869 -0.2611  0.0237  0.2133
  161MOL0     C21652   2.361   6.835   4.759 -0.0358 -0.2900  0.6755
  161MOL0     C21653   2.438   6.882   4.863 -0.0395 -0.6396 -0.5069
  161MOL0     C21654   2.548   6.989   5.294 -0.2548 -0.4927  0.1803
  161MOL0     C21655   2.477   7.053   5.396 -0.5265 -0.3071 -0.0953
  161MOL0     C21656   2.533   7.107   5.509  0.0135  0.4153 -0.4195
  161MOL0     C21657   2.672   7.105   5.534  1.3145  0.3281  0.4228
  161MOL0     O21658   2.743   7.161   5.633  0.3503  0.1079  0.4666
  161MOL0     C21659   2.665   7.239   5.729  0.5328  0.2819  0.0351
  161MOL0     C21660   2.571   7.158   5.815  0.1384  0.9487  0.3144
  161MOL0     C21661   2.636   7.064   5.916 -0.8339 -0.0229  0.2847
  161MOL0     C21662   2.716   6.948   5.857 -0.4146 -0.0629 -0.0584
  161MOL0     C21663   2.767   6.863   5.955  0.3417  0.7917 -0.5482
  161MOL0     C21664   2.810   6.766   6.019 -1.2218 -0.5440  0.3645
  161MOL0     C21665   2.739   7.023   5.446 -0.3598 -0.0695 -1.0425
  161MOL0     C21666   2.688   6.963   5.332 -0.4232 -0.2165 -0.1995
  161MOL0     C21667   2.770   6.862   5.250 -0.3713  0.2448 -0.8662
  161MOL0     H21668   2.352   6.658   5.104 -1.4000 -1.0209  0.3670
  161MOL0     H21669   2.201   6.579   4.929 -1.7184  1.1781  1.7560
  161MOL0     H21670   2.039   6.816   4.750 -0.0523  0.1156  1.2048
  161MOL0     H21671   2.107   6.855   4.588 -2.0926 -1.4591 -1.6741
  161MOL0     H21672   1.933   6.627   4.692  1.0362 -1.0532  0.8087
  161MOL0     H21673   2.021   6.616   4.534  1.1766 -0.6408  1.7469
  161MOL0     H21674   1.874   6.854   4.501 -0.1897  1.8047  1.6950
  161MOL0     H21675   1.796   6.807   4.641 -1.6445  0.1167 -0.9166
  161MOL0     H21676   1.694   6.767   4.408 -3.9081 -3.6797 -2.7899
  161MOL0     H21677   1.789   6.621   4.400  0.7872  1.0500  0.2168
  161MOL0     H21678   1.691   6.545   4.612 -0.2297 -1.2871 -1.1195
  161MOL0     H21679   1.608   6.701   4.636  1.5974 -0.4011  1.1182
  161MOL0     H21680   1.468   6.666   4.433 -2.3322 -2.5295 -0.5027
  161MOL0     H21681   1.556   6.510   4.416  2.5337  1.1497 -1.0968
  161MOL0     H21682   1.462   6.439   4.634  1.3320 -1.3788 -2.5188
  161MOL0     H21683   1.353   6.455   4.499  2.0796 -3.1247 -0.0644
  161MOL0     H21684   1.402   6.666   4.717 -0.9768  1.4319 -1.1214
  161MOL0     H21685   1.276   6.673   4.597  1.1025  0.2857  0.9165
  161MOL0     H21686   1.051   6.502   4.614 -0.3202  1.1781 -0.2354
  161MOL0     H21687   0.850   6.491   4.768 -0.3700  0.2244  1.8546
  161MOL0     H21688   0.864   6.371   4.881 -0.3841  0.6043  2.0321
  161MOL0     H21689   0.955   6.549   5.048  1.4837  0.4701 -1.6472
  161MOL0     H21690   0.894   6.673   4.938 -0.0960  0.3830  1.8888
  161MOL0     H21691   0.720   6.492   5.094 -2.0978  2.3459  3.6616
  161MOL0     H21692   0.681   6.571   4.927  4.3716  1.5723 -3.1660
  161MOL0     H21693   0.689   6.777   5.032  0.2663 -0.2328  0.2220
  161MOL0     H21694   0.761   6.726   5.178 -1.6689  3.8869 -1.3919
  161MOL0     H21695   0.647   6.929   5.179  0.2137 -1.0758 -0.3776
  161MOL0     H21696   0.506   7.126   5.242 -1.2088  0.6273 -0.5794
  161MOL0     H21697   0.256   7.341   5.528  0.2988  2.8027  2.7362
  161MOL0     H21698   0.112   7.502   5.650  0.5860 -0.9989  1.5804
  161MOL0     H21699  -0.305   7.400   5.732  0.1136 -0.0250  1.4957
  161MOL0     H21700  -0.290   7.567   5.792  2.6304 -0.7438  0.5503
  161MOL0     H21701  -0.289   7.532   5.497 -0.4923 -0.3051  0.4779
  161MOL0     H21702  -0.436   7.537   5.601 -0.5212  1.7407 -0.6267
  161MOL0     H21703  -0.363   7.764   5.699 -2.3461 -1.5489 -0.3317
  161MOL0     H21704  -0.223   7.749   5.586 -0.2711 -0.0224  1.0350
  161MOL0     H21705  -0.521   7.745   5.509 -0.9150  3.4470 -1.5623
  161MOL0     H21706  -0.373   7.758   5.403  1.1047 -0.8295  0.9817
  161MOL0     H21707  -0.345   7.991   5.528 -1.0868 -0.7488  3.4665
  161MOL0     H21708  -0.501   7.942   5.596 -0.4164 -2.2206  0.4627
  161MOL0     H21709  -0.457   7.979   5.297  0.5668  0.6300 -0.1382
  161MOL0     H21710  -0.596   7.898   5.351 -0.4853  1.3288 -3.2628
  161MOL0     H21711  -0.501   8.174   5.421  0.6875 -1.0033  0.9227
  161MOL0     H21712  -0.627   8.095   5.521  3.7761  0.1040  1.4047
  161MOL0     H21713  -0.725   8.237   5.338  2.6474  1.4634 -0.5521
  161MOL0     H21714  -0.641   8.135   5.219  1.7125 -0.5231  0.0202
  161MOL0     H21715  -0.239   7.292   5.559  0.8150 -1.4370 -0.3316
  161MOL0     H21716  -0.120   7.136   5.432  1.7716 -0.0626 -0.1424
  161MOL0     H21717   0.171   6.871   5.313 -2.2040 -0.1697 -4.7521
  161MOL0     H21718   0.311   6.668   5.252 -0.7017  1.1110 -0.1073
  161MOL0     H21719   2.370   6.889   4.666 -1.1747  3.1485  2.4112
  161MOL0     H21720   2.496   6.973   4.853  1.8132 -1.3682  2.4293
  161MOL0     H21721   2.372   7.079   5.388 -0.1613  1.2279 -0.0244
  161MOL0     H21722   2.465   7.169   5.567 -0.8468 -1.9881  1.3185
  161MOL0     H21723   2.607   7.320   5.684  3.4231  1.1416 -2.4317
  161MOL0     H21724   2.736   7.293   5.792  0.0156  0.7096  0.2564
  161MOL0     H21725   2.499   7.105   5.752  1.0724  0.9925 -0.8273
  161MOL0     H21726   2.502   7.227   5.864 -0.8134  2.0711 -2.3876
  161MOL0     H21727   2.559   7.023   5.981 -4.0329  4.5929 -0.0530
  161MOL0     H21728   2.711   7.123   5.969  1.0616 -0.9584 -1.2199
  161MOL0     H21729   2.654   6.886   5.792 -1.1766  0.8895 -0.2649
  161MOL0     H21730   2.792   6.983   5.786  0.7263  0.4350  1.3488
  161MOL0     H21731   2.852   6.682   6.070  0.5806 -0.6501 -1.1542
  161MOL0     H21732   2.847   7.014   5.455 -0.1511  0.2428 -2.8010
  161MOL0     H21733   2.825   6.805   5.326 -3.5680  0.0318  1.4713
  161MOL0     H21734   2.717   6.782   5.198  0.6767 -1.0674  0.0029
  161MOL0     H21735   2.849   6.908   5.189  0.7994  0.2939  0.6201
  162MOL0     O21736  11.025   9.411   0.680  0.2271 -0.2010 -0.2743
  162MOL0     C21737  11.075   9.494   0.598  0.2243  0.4675 -0.7965
  162MOL0     O21738  11.143   9.607   0.638  0.7020  0.1674 -0.5016
  162MOL0     C21739  11.182   9.629   0.772 -0.2550 -0.1126  1.2059
  162MOL0     C21740  11.318   9.653   0.810 -0.5295 -0.6403  0.4138
  162MOL0     C21741  11.340   9.664   0.945 -0.2964 -0.7730  0.0356
  162MOL0     C21742  11.245   9.681   1.046  0.0481 -0.0306  0.2027
  162MOL0     O21743  11.268   9.709   1.180 -0.3361  0.1338 -0.0116
  162MOL0     C21744  11.384   9.788   1.202  0.2294 -0.2656 -0.5843
  162MOL0     C21745  11.374   9.856   1.340  0.0831 -0.1424  0.3824
  162MOL0     C21746  11.473   9.970   1.337 -0.3522 -0.0849 -0.7538
  162MOL0     C21747  11.471  10.037   1.483 -0.4475  0.4621 -0.0503
  162MOL0     C21748  11.542  10.172   1.475 -0.3927  0.9360 -0.3339
  162MOL0     C21749  11.618  10.211   1.613 -0.3265 -0.3115  0.6661
  162MOL0     C21750  11.529  10.178   1.742  0.0341  0.2918  0.7118
  162MOL0     C21751  11.582  10.256   1.866  0.4309  0.6077 -0.3540
  162MOL0     N21752  11.722  10.232   1.902 -0.8351  0.3466 -0.1176
  162MOL0     C21753  11.768  10.138   1.993  0.6688  0.2384  0.2030
  162MOL0     C21754  11.904  10.155   1.999 -0.1033  1.0883 -0.2394
  162MOL0     C21755  12.012  10.081   2.081  0.1688  0.3740 -1.0210
  162MOL0     C21756  11.969  10.058   2.233 -0.2665 -0.6264 -0.6062
  162MOL0     C21757  11.929  10.190   2.302  0.1341 -0.9603 -0.3211
  162MOL0     C21758  11.893  10.168   2.456 -0.5204  1.0590  0.7915
  162MOL0     O21759  11.998  10.113   2.531 -0.1732  1.1456  0.0131
  162MOL0     C21760  12.112  10.191   2.553 -1.0128  0.4072  0.3159
  162MOL0     C21761  12.092  10.329   2.586 -0.4444 -0.6572  0.3831
  162MOL0     C21762  12.200  10.412   2.625 -0.1620 -0.0164 -0.5456
  162MOL0     C21763  12.330  10.354   2.627  1.2086  1.0970  0.1360
  162MOL0     C21764  12.443  10.427   2.668 -1.1731 -0.1636  1.0211
  162MOL0     O21765  12.422  10.567   2.668 -0.5219  0.6734  0.0263
  162MOL0     C21766  12.532  10.647   2.696  0.0776 -0.1071 -0.1108
  162MOL0     C21767  12.495  10.744   2.783  0.4844 -0.7792  0.3134
  162MOL0     C21768  12.590  10.841   2.819  0.3736  0.4274  0.4833
  162MOL0     C21769  12.712  10.843   2.749  0.5261  1.1531  0.0696
  162MOL0     O21770  12.807  10.935   2.783  0.2188 -0.5318 -0.0789
  162MOL0     C21771  12.934  10.877   2.827  0.3645 -0.9167  1.0971
  162MOL0     C21772  13.011  10.977   2.899 -0.4335  0.1882 -0.2786
  162MOL0     C21773  12.945  11.020   3.033  0.0581  0.6496  0.6203
  162MOL0     C21774  13.037  11.109   3.101 -0.1619 -0.2453  0.6986
  162MOL0     C21775  13.147  11.040   3.197  1.0492 -0.4009 -0.8414
  162MOL0     C21776  13.243  11.144   3.254  0.8566 -0.2058  0.0747
  162MOL0     C21777  13.370  11.150   3.167 -0.1278  0.1687  0.2509
  162MOL0     C21778  13.434  11.277   3.198 -0.1952  0.7531 -0.0484
  162MOL0    Cl21779  13.333  11.417   3.125 -0.6434 -0.1112  0.1013
  162MOL0     C21780  12.741  10.745   2.644 -0.2262  0.2424 -1.0014
  162MOL0     C21781  12.654  10.643   2.623 -0.2849  0.1068 -0.1966
  162MOL0     O21782  12.544  10.374   2.703 -0.5418  0.3955 -0.9454
  162MOL0     C21783  12.352  10.216   2.588  0.8396  0.1801 -0.8870
  162MOL0     C21784  12.245  10.143   2.548 -0.4415  0.9124 -0.0424
  162MOL0     N21785  11.940  10.264   1.915  0.0458 -0.3447  0.6796
  162MOL0     N21786  11.832  10.299   1.855  0.8260 -0.5248 -0.0572
  162MOL0     C21787  11.112   9.690   0.997  0.1232  0.3620  0.4581
  162MOL0     C21788  11.079   9.642   0.861  0.2011  0.9019  0.0707
  162MOL0     C21789  11.048   9.477   0.453  0.8658  0.8329 -0.3111
  162MOL0     C21790  10.968   9.570   0.391  0.0114  0.1133 -0.9222
  162MOL0     C21791  10.930   9.556   0.255 -0.3720 -0.1723  0.8431
  162MOL0     C21792  10.973   9.447   0.183  0.6684 -0.5075  0.2739
  162MOL0     O21793  10.932   9.408   0.060 -0.2421  0.1147  0.8995
  162MOL0     C21794  10.855   9.491  -0.018 -0.1176 -0.3673 -0.4205
  162MOL0     C21795  10.854   9.433  -0.166 -0.2514  0.1510  0.9911
  162MOL0     C21796  10.781   9.532  -0.269  0.9356  1.0184 -0.5883
  162MOL0     C21797  10.637   9.485  -0.294  1.3168 -1.2524 -0.5811
  162MOL0     C21798  10.579   9.538  -0.414  0.9647  0.1629 -0.1673
  162MOL0     C21799  10.531   9.582  -0.511 -0.5916 -0.4173  0.5470
  162MOL0     C21800  11.035   9.342   0.255 -0.8213 -0.5511 -0.4116
  162MOL0     C21801  11.076   9.358   0.387 -0.2658 -0.0654  0.3345
  162MOL0     C21802  11.141   9.232   0.450 -0.3104  0.9248 -0.2754
  162MOL0     H21803  11.394   9.638   0.734 -1.0927  1.3112 -0.6133
  162MOL0     H21804  11.444   9.654   0.975 -0.1239  1.0882  0.1872
  162MOL0     H21805  11.471   9.721   1.197 -0.7026 -1.8435  2.2641
  162MOL0     H21806  11.394   9.861   1.121  1.0532 -0.1063 -0.3534
  162MOL0     H21807  11.386   9.775   1.412 -1.7205 -2.0788 -1.3517
  162MOL0     H21808  11.271   9.891   1.357 -0.0693  0.2298 -1.1502
  162MOL0     H21809  11.439  10.050   1.270 -0.5443 -0.2758 -0.8849
  162MOL0     H21810  11.575   9.939   1.312 -0.8019 -1.7136 -0.7015
  162MOL0     H21811  11.368  10.044   1.520 -1.2980 -2.3590 -1.6107
  162MOL0     H21812  11.527   9.969   1.548  0.2126  3.5612  2.9606
  162MOL0     H21813  11.621  10.171   1.400  1.1864  0.6927  1.2632
  162MOL0     H21814  11.465  10.248   1.463 -0.3640  1.1605  0.7869
  162MOL0     H21815  11.714  10.160   1.620  0.0907 -0.3959 -3.3018
  162MOL0     H21816  11.640  10.318   1.621 -1.0497 -0.2043  1.4429
  162MOL0     H21817  11.537  10.072   1.770  0.3127  0.5027  1.4607
  162MOL0     H21818  11.425  10.187   1.708  0.4463 -2.7088 -1.7855
  162MOL0     H21819  11.575  10.362   1.843  0.0891  1.6700  3.8089
  162MOL0     H21820  11.511  10.226   1.944 -0.5810 -1.1163 -1.8462
  162MOL0     H21821  11.708  10.075   2.059 -0.2905 -0.3718 -1.2077
  162MOL0     H21822  12.030   9.991   2.021  2.3746 -0.0291  0.1416
  162MOL0     H21823  12.099  10.147   2.084 -0.1106  0.7971 -1.8097
  162MOL0     H21824  11.894   9.979   2.243 -1.7324  0.6335 -1.3045
  162MOL0     H21825  12.061  10.019   2.279  0.0903  2.1579  1.2846
  162MOL0     H21826  11.837  10.231   2.258  0.0109  0.2898  1.0429
  162MOL0     H21827  12.005  10.268   2.292 -0.7821  0.1794  1.2254
  162MOL0     H21828  11.806  10.102   2.460  0.3890 -0.4672 -1.8393
  162MOL0     H21829  11.851  10.258   2.502 -2.0398  0.5509  0.4266
  162MOL0     H21830  11.991  10.368   2.594  0.6284  2.6895 -0.5826
  162MOL0     H21831  12.181  10.513   2.659 -0.0797 -1.1366  3.3895
  162MOL0     H21832  12.402  10.745   2.839  0.2183 -0.0318 -0.1267
  162MOL0     H21833  12.560  10.924   2.883  0.5045  2.8479 -2.4204
  162MOL0     H21834  12.925  10.790   2.893  1.9571 -2.3889 -0.5213
  162MOL0     H21835  12.995  10.849   2.741 -0.0414  1.1396  0.0856
  162MOL0     H21836  13.112  10.936   2.904  0.3347  1.5083 -2.9742
  162MOL0     H21837  13.026  11.066   2.836  2.1215  0.8924  1.1831
  162MOL0     H21838  12.851  11.071   3.009  0.6492  1.2837 -0.4603
  162MOL0     H21839  12.923  10.944   3.108 -1.4545  0.5802  0.1346
  162MOL0     H21840  12.964  11.166   3.159  0.9321 -1.0543  3.0030
  162MOL0     H21841  13.095  11.171   3.032 -0.5502 -0.5039  0.1351
  162MOL0     H21842  13.196  10.954   3.150 -0.3295 -1.6471 -0.0946
  162MOL0     H21843  13.076  10.994   3.267  3.3585 -1.2256  1.1165
  162MOL0     H21844  13.193  11.242   3.249  0.3223 -0.3682  1.8211
  162MOL0     H21845  13.275  11.126   3.356 -0.4704 -1.4791  0.2939
  162MOL0     H21846  13.345  11.157   3.061 -2.8256 -2.8586  0.5423
  162MOL0     H21847  13.436  11.066   3.188 -2.0398 -1.0888  1.4755
  162MOL0     H21848  13.445  11.289   3.306 -2.7489 -0.6034  0.4395
  162MOL0     H21849  13.536  11.285   3.159  0.0271 -2.9281 -0.5613
  162MOL0     H21850  12.835  10.754   2.591 -0.1990  0.7612 -0.8635
  162MOL0     H21851  12.673  10.560   2.556 -1.8012  0.9637 -1.7504
  162MOL0     H21852  12.455  10.180   2.592  1.7297  2.6421  0.2934
  162MOL0     H21853  12.272  10.046   2.508  1.8149  2.0404 -1.4275
  162MOL0     H21854  11.042   9.728   1.071  1.9704  1.8484  1.5232
  162MOL0     H21855  10.976   9.626   0.833 -0.1678  1.1270  1.2478
  162MOL0     H21856  10.950   9.665   0.440 -0.7140 -0.3614 -0.2224
  162MOL0     H21857  10.864   9.630   0.210 -0.1652 -1.6478 -2.1050
  162MOL0     H21858  10.890   9.594  -0.021 -0.7187 -0.1845 -1.2662
  162MOL0     H21859  10.754   9.497   0.024  1.1938 -1.9511  3.4645
  162MOL0     H21860  10.814   9.331  -0.161  1.4471 -0.5347  1.3055
  162MOL0     H21861  10.954   9.419  -0.208 -0.1000 -2.9047  2.1096
  162MOL0     H21862  10.839   9.533  -0.361  0.0371  0.8539 -1.1613
  162MOL0     H21863  10.768   9.633  -0.230  1.3377  1.0359 -0.4931
  162MOL0     H21864  10.634   9.376  -0.286 -1.4305 -1.2521 -0.5991
  162MOL0     H21865  10.567   9.524  -0.219  0.5324 -0.6375 -1.5975
  162MOL0     H21866  10.485   9.617  -0.602 -1.3786  1.5037  1.6282
  162MOL0     H21867  11.043   9.249   0.200  0.3369  0.0220 -1.2571
  162MOL0     H21868  11.117   9.220   0.556 -2.0189  0.9207 -0.6362
  162MOL0     H21869  11.115   9.135   0.407 -1.9096  1.2995 -0.2171
  162MOL0     H21870  11.250   9.229   0.441 -0.3762 -2.2100 -1.0762
  163MOL0     O21871   7.605   9.908   2.937  0.1657 -0.1775  0.0514
  163MOL0     C21872   7.720   9.942   2.970 -0.3309 -0.2682  0.3559
  163MOL0     O21873   7.791  10.059   2.923  0.4784 -0.4122 -0.3812
  163MOL0     C21874   7.720  10.159   2.865  0.3050 -0.5753 -0.0338
  163MOL0     C21875   7.618  10.155   2.764  0.1887 -0.2871  0.1953
  163MOL0     C21876   7.547  10.275   2.734  1.0131 -0.0754  0.1238
  163MOL0     C21877   7.574  10.396   2.802  0.2675 -0.3077  0.5110
  163MOL0     O21878   7.515  10.518   2.779  0.2066 -1.2028 -0.3965
  163MOL0     C21879   7.431  10.531   2.658 -0.4689  0.0559 -0.7279
  163MOL0     C21880   7.528  10.555   2.549  0.7413 -0.2051 -0.6941
  163MOL0     C21881   7.455  10.558   2.420 -0.7984  0.7109  0.1256
  163MOL0     C21882   7.559  10.573   2.306  0.4111 -0.5775 -0.5992
  163MOL0     C21883   7.592  10.722   2.262 -0.7880 -0.0789  0.7858
  163MOL0     C21884   7.680  10.729   2.128  0.2322  0.5712  0.6289
  163MOL0     C21885   7.642  10.645   2.006  1.1220  0.1627  0.9296
  163MOL0     C21886   7.495  10.655   1.956 -0.2420 -0.2844 -1.1804
  163MOL0     N21887   7.472  10.793   1.923  0.0834 -0.2927  0.4857
  163MOL0     C21888   7.519  10.848   1.811  0.0764  0.2925 -0.1602
  163MOL0     C21889   7.505  10.984   1.841  0.2609  1.0030  1.3582
  163MOL0     C21890   7.555  11.104   1.762  0.0869  0.1059  0.1636
  163MOL0     C21891   7.465  11.165   1.651  0.7610  0.1333  0.3776
  163MOL0     C21892   7.491  11.309   1.620  0.4611 -0.4002  0.4539
  163MOL0     C21893   7.482  11.418   1.732 -0.5848  0.8563  0.1562
  163MOL0     O21894   7.382  11.375   1.826 -0.5494 -0.0320 -0.8465
  163MOL0     C21895   7.259  11.413   1.812  0.2927  0.2557 -0.0747
  163MOL0     C21896   7.224  11.543   1.775 -0.2611  0.0764  1.2495
  163MOL0     C21897   7.089  11.576   1.754  0.9270  0.4877 -0.0486
  163MOL0     C21898   6.987  11.488   1.760  0.4654  0.4425 -0.2383
  163MOL0     C21899   6.846  11.535   1.731  0.1262  0.7551  1.0349
  163MOL0     O21900   6.755  11.434   1.735  0.0416  1.0416 -0.8063
  163MOL0     C21901   6.620  11.460   1.749 -0.3400 -0.2341 -0.7805
  163MOL0     C21902   6.541  11.368   1.674  0.5315  0.1522 -0.8605
  163MOL0     C21903   6.401  11.359   1.706 -0.5872 -0.6926  0.6714
  163MOL0     C21904   6.340  11.448   1.793  0.0955  0.7594  0.5317
  163MOL0     O21905   6.211  11.421   1.841 -0.2462 -0.1707 -1.1014
  163MOL0     C21906   6.168  11.288   1.876  0.2257 -0.3449 -0.1655
  163MOL0     C21907   6.084  11.290   2.007  0.6660 -0.5847 -0.2338
  163MOL0     C21908   6.051  11.153   2.052 -0.3985  0.4451 -0.4318
  163MOL0     C21909   5.954  11.068   1.965 -0.7985 -0.1362 -0.2627
  163MOL0     C21910   5.909  10.939   2.029  0.5476  0.6024 -0.3650
  163MOL0     C21911   6.004  10.859   2.113 -0.5191 -0.7720  0.3798
  163MOL0     C21912   5.958  10.710   2.121  0.1058 -0.5411 -1.3293
  163MOL0     C21913   6.037  10.649   2.228  0.5963 -0.2937 -0.2485
  163MOL0    Cl21914   6.185  10.592   2.147 -0.3009 -0.1702 -0.2167
  163MOL0     C21915   6.420  11.549   1.862 -0.2579  0.8234  0.3803
  163MOL0     C21916   6.563  11.551   1.839  1.1258  0.1663  0.5955
  163MOL0     O21917   6.811  11.651   1.716 -0.4410  0.1926  0.6747
  163MOL0     C21918   7.021  11.358   1.810 -0.7819  0.7387 -0.9918
  163MOL0     C21919   7.156  11.324   1.837  0.3111  0.4654  0.6270
  163MOL0     N21920   7.436  11.007   1.959 -0.3091  0.6356 -0.3283
  163MOL0     N21921   7.427  10.887   2.007  0.7494 -0.7726  0.0752
  163MOL0     C21922   7.682  10.399   2.895 -0.6436 -0.0215  0.0776
  163MOL0     C21923   7.754  10.281   2.921 -0.8594 -0.2107  0.3907
  163MOL0     C21924   7.798   9.849   3.056  1.1068  0.6449 -0.8888
  163MOL0     C21925   7.770   9.712   3.035 -0.0629 -0.2460  0.5398
  163MOL0     C21926   7.835   9.614   3.108  0.4482 -0.1796 -0.1935
  163MOL0     C21927   7.912   9.654   3.224 -0.4088  0.1124  0.5610
  163MOL0     O21928   7.971   9.572   3.319  0.8125 -0.3672  0.1276
  163MOL0     C21929   7.934   9.433   3.316 -0.5717  0.6613 -1.0943
  163MOL0     C21930   7.796   9.428   3.401 -0.0608 -0.5751  0.9456
  163MOL0     C21931   7.818   9.429   3.554 -0.4308  0.2397  0.0024
  163MOL0     C21932   7.691   9.414   3.634 -0.6248  0.2938  0.5586
  163MOL0     C21933   7.623   9.286   3.623  0.4450 -0.8738  0.1030
  163MOL0     C21934   7.565   9.184   3.600 -0.4987  0.2778  1.1193
  163MOL0     C21935   7.935   9.792   3.242  0.8543 -0.2508 -0.5316
  163MOL0     C21936   7.879   9.891   3.160 -0.3454  0.6852 -0.0865
  163MOL0     C21937   7.894  10.036   3.197  0.1827  0.6758  0.3552
  163MOL0     H21938   7.588  10.056   2.733  2.9035 -1.3455  0.7299
  163MOL0     H21939   7.457  10.262   2.675 -1.1980 -0.0690  3.2502
  163MOL0     H21940   7.360  10.448   2.654 -0.5983  0.1113  0.1338
  163MOL0     H21941   7.363  10.616   2.670  0.7324  0.9384  0.0083
  163MOL0     H21942   7.587  10.463   2.547 -0.6831 -1.2859  1.7921
  163MOL0     H21943   7.591  10.640   2.576  1.2127 -1.2816  1.8835
  163MOL0     H21944   7.376  10.633   2.421 -2.1814 -0.6784 -0.1178
  163MOL0     H21945   7.409  10.459   2.406  1.0801 -0.3003  0.7149
  163MOL0     H21946   7.649  10.521   2.340 -0.2972 -1.5219 -0.1185
  163MOL0     H21947   7.520  10.508   2.228 -3.7615 -2.5042  2.7096
  163MOL0     H21948   7.495  10.764   2.232 -1.6858 -2.0173  0.7796
  163MOL0     H21949   7.634  10.789   2.337 -1.0294 -0.2317  1.0588
  163MOL0     H21950   7.669  10.834   2.101 -1.8024  0.0034 -0.9934
  163MOL0     H21951   7.784  10.725   2.162 -0.0606 -0.4209  1.4832
  163MOL0     H21952   7.661  10.540   2.030  0.2814 -0.6248 -1.5041
  163MOL0     H21953   7.702  10.673   1.919 -3.6544  1.9696 -2.2358
  163MOL0     H21954   7.487  10.596   1.865  0.7780  0.9840 -2.1322
  163MOL0     H21955   7.432  10.624   2.041  1.4828  0.1395  0.3216
  163MOL0     H21956   7.555  10.796   1.723  1.0662 -0.9558  0.9518
  163MOL0     H21957   7.549  11.185   1.834 -3.3422  0.4596 -0.3553
  163MOL0     H21958   7.654  11.081   1.722 -0.0980  2.7729 -2.1538
  163MOL0     H21959   7.479  11.104   1.561  1.6503  0.3175  0.3833
  163MOL0     H21960   7.362  11.148   1.685  0.7262 -1.6297 -0.4777
  163MOL0     H21961   7.417  11.341   1.547  1.5289  2.5053  0.5252
  163MOL0     H21962   7.592  11.307   1.578  1.4038 -2.6118  2.5674
  163MOL0     H21963   7.477  11.518   1.687 -2.4022  0.9213  0.3960
  163MOL0     H21964   7.581  11.409   1.776 -1.5510 -1.2189  2.1290
  163MOL0     H21965   7.290  11.622   1.741 -2.0684  0.6524 -1.2850
  163MOL0     H21966   7.057  11.674   1.720 -3.1060 -0.6111  0.1182
  163MOL0     H21967   6.578  11.298   1.600 -0.1024  0.8444 -1.8603
  163MOL0     H21968   6.340  11.289   1.650 -1.4446  1.1896 -0.8356
  163MOL0     H21969   6.096  11.254   1.801 -0.3047  1.7868 -0.6718
  163MOL0     H21970   6.255  11.221   1.879  0.3494 -0.1814 -0.0722
  163MOL0     H21971   6.132  11.335   2.094  1.0737  1.4556 -1.4738
  163MOL0     H21972   5.991  11.345   1.990  0.8496  0.6161  2.2114
  163MOL0     H21973   6.135  11.090   2.083 -1.8600 -1.4380 -0.1019
  163MOL0     H21974   6.000  11.173   2.147 -2.2954  0.9234 -1.4984
  163MOL0     H21975   5.999  11.049   1.867 -2.1842 -5.2968 -0.2020
  163MOL0     H21976   5.862  11.120   1.935 -0.1223  1.2082 -0.0556
  163MOL0     H21977   5.886  10.870   1.947  0.2132 -0.7781  0.8747
  163MOL0     H21978   5.820  10.970   2.084 -2.4531  0.2357 -4.5167
  163MOL0     H21979   6.110  10.870   2.087 -0.1381 -2.3691  1.1232
  163MOL0     H21980   6.007  10.896   2.216  1.8420 -1.5309  0.6534
  163MOL0     H21981   5.963  10.652   2.028  0.5528  1.0987 -2.3795
  163MOL0     H21982   5.856  10.716   2.161 -0.5527 -0.2647 -2.9627
  163MOL0     H21983   6.049  10.717   2.313  1.4656  0.4451 -0.9313
  163MOL0     H21984   5.987  10.559   2.263 -2.6552  1.0068 -1.2240
  163MOL0     H21985   6.384  11.608   1.946  1.5540  0.6351  1.3329
  163MOL0     H21986   6.620  11.622   1.898 -0.3158  0.0633  2.1935
  163MOL0     H21987   6.943  11.289   1.840  1.5824 -1.6497  0.0713
  163MOL0     H21988   7.190  11.225   1.865 -3.0945 -0.7162  0.9573
  163MOL0     H21989   7.704  10.501   2.926 -2.6854  0.6581 -0.5411
  163MOL0     H21990   7.846  10.287   2.978 -0.3063  2.1768 -0.6442
  163MOL0     H21991   7.707   9.676   2.955 -1.9157 -0.9307  2.2238
  163MOL0     H21992   7.829   9.509   3.084  0.2496  0.2061 -1.9155
  163MOL0     H21993   8.011   9.372   3.364  0.6172  0.9933 -2.5325
  163MOL0     H21994   7.930   9.391   3.215 -2.2181  3.0389 -2.1021
  163MOL0     H21995   7.733   9.340   3.382  0.1302 -0.4525 -0.2890
  163MOL0     H21996   7.742   9.519   3.376  1.3826  0.4659  1.5147
  163MOL0     H21997   7.873   9.517   3.588  0.2441  0.6427 -2.0250
  163MOL0     H21998   7.877   9.343   3.589 -1.0277 -0.3111 -0.3042
  163MOL0     H21999   7.722   9.427   3.738 -2.3404  0.8069  1.0256
  163MOL0     H22000   7.627   9.499   3.611  0.1073  0.5954 -0.5065
  163MOL0     H22001   7.497   9.101   3.593  1.9804 -1.7247 -1.5191
  163MOL0     H22002   7.977   9.829   3.335 -1.1724  0.2794  0.2088
  163MOL0     H22003   7.910  10.042   3.305  1.4925 -1.6884  0.3666
  163MOL0     H22004   7.973  10.084   3.139 -0.2515  0.4324 -0.4600
  163MOL0     H22005   7.798  10.088   3.184 -1.2003 -1.3051  1.9566
  164MOL0     O22006   8.305   3.615  11.024  0.0099  0.7538 -0.8530
  164MOL0     C22007   8.258   3.706  10.960 -0.0884 -0.2462 -0.0954
  164MOL0     O22008   8.127   3.738  10.972  0.4085 -0.2077 -0.2989
  164MOL0     C22009   8.040   3.644  11.034  0.4429  0.7352  1.5304
  164MOL0     C22010   8.052   3.617  11.163  1.1260 -0.4835 -0.5861
  164MOL0     C22011   7.966   3.527  11.232  0.5014 -0.6263  0.8976
  164MOL0     C22012   7.861   3.478  11.157 -0.9886  0.7271  0.3645
  164MOL0     O22013   7.764   3.396  11.208 -0.3151 -1.0329  0.3836
  164MOL0     C22014   7.813   3.300  11.301  0.3517 -0.4207  0.6361
  164MOL0     C22015   7.769   3.161  11.269  0.1673  0.6889  0.4905
  164MOL0     C22016   7.810   3.101  11.139 -1.3232  0.8582 -0.4089
  164MOL0     C22017   7.827   2.951  11.150 -0.7023 -0.3212 -0.2084
  164MOL0     C22018   7.841   2.893  11.013 -0.7387  0.5200  0.3512
  164MOL0     C22019   7.834   2.742  11.006  0.2759 -0.1080 -0.2028
  164MOL0     C22020   7.885   2.671  10.884  0.8792 -0.3176 -0.3032
  164MOL0     C22021   7.901   2.517  10.912  0.6805  0.3457  1.2666
  164MOL0     N22022   7.765   2.456  10.923 -0.1826 -0.1634  1.0481
  164MOL0     C22023   7.676   2.415  10.823  0.1939  0.1656  0.4330
  164MOL0     C22024   7.571   2.365  10.890  0.7566  0.2216 -0.6100
  164MOL0     C22025   7.451   2.297  10.827 -0.6019 -0.1480 -0.1071
  164MOL0     C22026   7.326   2.393  10.816 -0.6119 -0.4991  0.3244
  164MOL0     C22027   7.320   2.506  10.713  1.3832 -0.3085  0.5158
  164MOL0     C22028   7.176   2.567  10.716  0.3776  0.5078  0.2572
  164MOL0     O22029   7.154   2.672  10.625  0.2310  0.3534 -0.7376
  164MOL0     C22030   7.032   2.695  10.560  0.5527 -1.0277 -0.2786
  164MOL0     C22031   7.037   2.809  10.475 -0.1530 -0.4503  0.1007
  164MOL0     C22032   6.919   2.856  10.418 -0.4040 -0.2639 -1.0046
  164MOL0     C22033   6.810   2.772  10.420  0.7727  0.0199 -0.1419
  164MOL0     C22034   6.689   2.801  10.349  0.2619 -0.9607  0.4453
  164MOL0     O22035   6.715   2.870  10.235 -0.5921  0.0430  1.0750
  164MOL0     C22036   6.613   2.907  10.150  0.3917 -0.5085  0.3562
  164MOL0     C22037   6.607   2.868  10.014 -0.6616 -0.1827 -0.2925
  164MOL0     C22038   6.507   2.915   9.935  0.1084  0.3492  0.5878
  164MOL0     C22039   6.411   3.009   9.969 -0.5861  0.9876  0.0006
  164MOL0     O22040   6.332   3.059   9.875  0.1601 -0.1855  0.2272
  164MOL0     C22041   6.189   3.043   9.884 -0.1134  0.0656  0.5114
  164MOL0     C22042   6.103   3.099   9.765  0.8822 -0.4115 -0.3455
  164MOL0     C22043   5.959   3.040   9.768  0.9542 -0.4214 -0.0281
  164MOL0     C22044   5.859   3.143   9.792  0.4684 -0.9397 -1.0647
  164MOL0     C22045   5.708   3.114   9.822  0.5644  0.6331  0.5675
  164MOL0     C22046   5.634   3.239   9.884 -0.7529  0.0534  0.2398
  164MOL0     C22047   5.485   3.217   9.891 -0.0016 -0.3332 -0.4207
  164MOL0     C22048   5.422   3.216   9.751  0.1397  0.1157  0.0891
  164MOL0    Cl22049   5.273   3.323   9.763 -0.0318  0.0425  0.4045
  164MOL0     C22050   6.413   3.047  10.098  0.1857  0.0261  0.1519
  164MOL0     C22051   6.506   2.991  10.195  0.1448  0.6422  0.1847
  164MOL0     O22052   6.576   2.770  10.388  0.1964  0.2975 -0.2839
  164MOL0     C22053   6.806   2.663  10.503 -0.8622  0.4707 -0.2995
  164MOL0     C22054   6.916   2.629  10.580  0.4112  0.2383  0.3329
  164MOL0     N22055   7.594   2.363  11.023  0.4312 -0.0885 -0.5509
  164MOL0     N22056   7.708   2.429  11.041 -0.8384 -0.6442 -0.9925
  164MOL0     C22057   7.847   3.511  11.020  0.0481 -0.7793 -0.2283
  164MOL0     C22058   7.935   3.601  10.963 -0.7067  0.2914 -0.0044
  164MOL0     C22059   8.349   3.789  10.874  0.1890  0.8568 -0.1653
  164MOL0     C22060   8.313   3.919  10.860 -0.6095 -0.0815  0.8058
  164MOL0     C22061   8.387   4.011  10.790  0.0997  0.2030  0.7564
  164MOL0     C22062   8.510   3.974  10.723  0.7078 -0.1885 -0.8542
  164MOL0     O22063   8.593   4.059  10.655 -0.0090  0.6949 -0.1489
  164MOL0     C22064   8.566   4.196  10.645  0.4804 -0.2820  0.5119
  164MOL0     C22065   8.659   4.251  10.539 -0.2259 -0.5260  0.6349
  164MOL0     C22066   8.816   4.242  10.572 -0.5373 -0.2788 -0.4188
  164MOL0     C22067   8.887   4.119  10.501 -0.6145  0.2063  0.5322
  164MOL0     C22068   8.884   4.135  10.355  1.1625 -0.2519 -0.0538
  164MOL0     C22069   8.892   4.171  10.238 -0.4903 -0.2982 -0.3399
  164MOL0     C22070   8.553   3.843  10.749  0.0456 -0.0670  0.6243
  164MOL0     C22071   8.471   3.753  10.822  0.3496  0.2775 -0.2021
  164MOL0     C22072   8.532   3.613  10.846  1.0923 -0.2741  0.3912
  164MOL0     H22073   8.132   3.670  11.213  0.8610 -0.6291 -0.0004
  164MOL0     H22074   7.979   3.505  11.337 -0.0315  1.0331  1.3401
  164MOL0     H22075   7.922   3.286  11.308  0.2094 -0.9317  1.9967
  164MOL0     H22076   7.779   3.331  11.399 -2.4719 -0.9943 -0.0895
  164MOL0     H22077   7.659   3.163  11.266  0.1856  2.9436 -0.4044
  164MOL0     H22078   7.792   3.095  11.352 -0.4629 -0.2406 -0.0501
  164MOL0     H22079   7.911   3.140  11.123 -0.1091 -1.8958 -0.0114
  164MOL0     H22080   7.739   3.136  11.064 -1.3599 -1.6354 -1.6443
  164MOL0     H22081   7.911   2.927  11.215 -1.2804  2.0845  1.5381
  164MOL0     H22082   7.740   2.908  11.201 -1.1424  1.2177  0.3657
  164MOL0     H22083   7.784   2.950  10.938  0.4177  2.2477  0.7291
  164MOL0     H22084   7.944   2.916  10.985 -0.3593 -2.4924 -1.1845
  164MOL0     H22085   7.886   2.694  11.090  1.9311 -1.5587 -1.9497
  164MOL0     H22086   7.730   2.710  11.017 -0.6961  2.2328 -1.8412
  164MOL0     H22087   7.981   2.717  10.859 -0.9688  2.8902 -2.1925
  164MOL0     H22088   7.818   2.680  10.798 -1.3488  0.7728  1.4220
  164MOL0     H22089   7.948   2.474  10.823 -0.5512 -0.6744  1.0814
  164MOL0     H22090   7.946   2.504  11.011 -2.0385  1.1026  2.7074
  164MOL0     H22091   7.696   2.424  10.717 -1.9944 -1.8191 -0.2320
  164MOL0     H22092   7.481   2.256  10.730  2.8902 -1.1251  1.2259
  164MOL0     H22093   7.420   2.214  10.891 -1.4037  1.7382  2.1288
  164MOL0     H22094   7.241   2.329  10.791  1.3246 -1.9033 -3.3526
  164MOL0     H22095   7.323   2.438  10.916  2.7624  0.2521  0.1952
  164MOL0     H22096   7.327   2.468  10.611  0.5868 -2.0177  1.0494
  164MOL0     H22097   7.397   2.581  10.734  1.6471 -1.1633  2.9669
  164MOL0     H22098   7.152   2.605  10.816 -1.4728  0.8363 -0.2705
  164MOL0     H22099   7.117   2.478  10.694  0.4545 -0.1916  2.6479
  164MOL0     H22100   7.124   2.873  10.483  0.0270 -0.9835  4.2567
  164MOL0     H22101   6.925   2.949  10.363 -0.3384 -0.3805 -1.1954
  164MOL0     H22102   6.678   2.791   9.983 -0.0470  0.6222 -0.9242
  164MOL0     H22103   6.497   2.882   9.832 -1.5120 -2.4022  1.5049
  164MOL0     H22104   6.167   2.936   9.876  4.0725 -0.8020 -4.3538
  164MOL0     H22105   6.155   3.099   9.972  2.1821  2.1527  0.2107
  164MOL0     H22106   6.104   3.208   9.780  0.5457 -0.5692  0.8975
  164MOL0     H22107   6.142   3.074   9.666 -1.4710 -4.6959 -0.4420
  164MOL0     H22108   5.932   2.993   9.673 -0.1240  2.1906 -1.1112
  164MOL0     H22109   5.947   2.968   9.848 -0.7864 -0.6118 -0.4131
  164MOL0     H22110   5.855   3.209   9.705 -3.4969 -0.9612 -1.0589
  164MOL0     H22111   5.893   3.200   9.879 -1.8751  0.6385 -1.1085
  164MOL0     H22112   5.709   3.037   9.900 -0.2063 -0.2195 -0.2482
  164MOL0     H22113   5.660   3.069   9.735  0.2596 -0.5873  1.3325
  164MOL0     H22114   5.675   3.252   9.985 -0.2919  0.8837 -0.0509
  164MOL0     H22115   5.649   3.317   9.810 -4.1538  1.2043  0.5923
  164MOL0     H22116   5.454   3.307   9.945  5.1879  0.9703  0.9406
  164MOL0     H22117   5.481   3.123   9.945 -2.4545  0.7473  1.4669
  164MOL0     H22118   5.497   3.254   9.681  1.7422 -0.6318  1.3373
  164MOL0     H22119   5.399   3.113   9.720 -1.7456  0.8443 -1.1291
  164MOL0     H22120   6.354   3.133  10.128  0.5295  0.5381 -0.6100
  164MOL0     H22121   6.499   3.022  10.299 -1.7176 -1.4635  0.7729
  164MOL0     H22122   6.724   2.592  10.506 -0.2372 -0.2521  0.3845
  164MOL0     H22123   6.912   2.541  10.642 -1.6129  1.3080  1.8204
  164MOL0     H22124   7.759   3.482  10.963  0.4020 -1.2787 -0.5349
  164MOL0     H22125   7.917   3.635  10.861  2.7332 -1.2116 -1.2904
  164MOL0     H22126   8.228   3.954  10.917 -1.5634 -1.2951  0.1877
  164MOL0     H22127   8.349   4.110  10.765  0.3540 -0.1815 -1.3799
  164MOL0     H22128   8.574   4.241  10.744  5.6660  0.3347  0.1383
  164MOL0     H22129   8.471   4.228  10.601  1.6218  3.6801  0.5005
  164MOL0     H22130   8.638   4.356  10.517 -0.6174 -0.5866  0.7142
  164MOL0     H22131   8.641   4.197  10.446  0.4170  0.8810 -0.3393
  164MOL0     H22132   8.830   4.241  10.681  0.9445  4.0355 -0.4163
  164MOL0     H22133   8.869   4.335  10.548 -0.4384  0.1267  1.2555
  164MOL0     H22134   8.987   4.116  10.544 -1.0312 -5.0926  1.7911
  164MOL0     H22135   8.841   4.027  10.539  3.1442 -1.1291  2.4007
  164MOL0     H22136   8.888   4.203  10.135  2.2649  0.6410 -0.2477
  164MOL0     H22137   8.653   3.815  10.719  1.2220  3.9124  0.2683
  164MOL0     H22138   8.604   3.611  10.928  0.2783 -2.6149  1.1590
  164MOL0     H22139   8.460   3.532  10.864 -0.4090  0.7790 -0.6392
  164MOL0     H22140   8.599   3.584  10.765  2.5798 -0.5395  1.6708
  165MOL0     O22141   2.212  11.218   0.230  0.1959 -0.0179 -0.3289
  165MOL0     C22142   2.273  11.260   0.329  0.0583 -0.4382 -0.0334
  165MOL0     O22143   2.238  11.260   0.456  0.3442  0.5556  0.7680
  165MOL0     C22144   2.113  11.216   0.497  0.2233 -0.0693  0.6157
  165MOL0     C22145   2.016  11.128   0.436 -0.4383 -0.7436  0.3879
  165MOL0     C22146   1.901  11.082   0.495 -0.1007 -0.6188  0.3327
  165MOL0     C22147   1.862  11.134   0.620 -0.6755  0.8529  0.3377
  165MOL0     O22148   1.742  11.081   0.662 -0.0901  1.1940  0.3685
  165MOL0     C22149   1.656  11.135   0.753  0.2062 -0.4830  0.6537
  165MOL0     C22150   1.548  11.052   0.781  0.2051  0.2165  0.0384
  165MOL0     C22151   1.450  11.102   0.887 -0.6650  0.4410 -0.5510
  165MOL0     C22152   1.336  11.010   0.915  0.4784 -0.4464  0.3447
  165MOL0     C22153   1.247  11.059   1.029  0.0243 -0.3027  0.3478
  165MOL0     C22154   1.104  11.013   1.009 -0.6769  0.0005 -0.9125
  165MOL0     C22155   1.036  11.047   1.137  0.4851  0.1001 -0.4832
  165MOL0     C22156   0.901  10.971   1.132  0.1402  0.0839  0.2020
  165MOL0     N22157   0.805  11.019   1.223 -0.0399 -0.2497  0.9443
  165MOL0     C22158   0.721  11.117   1.177  0.1643 -1.2648 -0.2301
  165MOL0     C22159   0.619  11.120   1.270  0.0119 -0.7431  0.3397
  165MOL0     C22160   0.505  11.216   1.284 -0.3822  0.2044 -0.5227
  165MOL0     C22161   0.386  11.157   1.342  0.7148  0.6755  0.8621
  165MOL0     C22162   0.315  11.054   1.251  1.0774 -0.4653  0.4985
  165MOL0     C22163   0.185  10.991   1.310 -0.6103  0.7353 -0.6336
  165MOL0     O22164   0.226  10.894   1.410 -0.3892  0.3636  0.0342
  165MOL0     C22165   0.134  10.814   1.467 -0.5952  0.3339  0.3908
  165MOL0     C22166   0.173  10.720   1.561  0.3705  0.0400 -0.1025
  165MOL0     C22167   0.084  10.625   1.611  0.1549 -0.0608  0.2519
  165MOL0     C22168  -0.050  10.628   1.574 -0.2285  0.2001  0.7205
  165MOL0     C22169  -0.157  10.535   1.627 -0.1662 -0.1251  1.0389
  165MOL0     O22170  -0.265  10.518   1.549 -0.1765  0.3894  0.1278
  165MOL0     C22171  -0.368  10.433   1.593 -0.8859  0.3339  1.0789
  165MOL0     C22172  -0.386  10.318   1.517  0.4094  0.9780 -1.1985
  165MOL0     C22173  -0.482  10.228   1.578  0.3663  0.2442  0.9464
  165MOL0     C22174  -0.547  10.246   1.696 -0.0237  0.2700  0.2699
  165MOL0     O22175  -0.619  10.140   1.754  0.1687  0.7943  0.4409
  165MOL0     C22176  -0.703  10.159   1.874 -0.1402 -0.2133  0.8003
  165MOL0     C22177  -0.632  10.199   2.000 -0.1422 -0.4237 -0.2313
  165MOL0     C22178  -0.724  10.234   2.119 -0.6430  0.3538 -0.2083
  165MOL0     C22179  -0.871  10.213   2.098  0.3895 -1.3510 -0.1000
  165MOL0     C22180  -0.958  10.255   2.225 -0.0651 -0.1301 -0.2902
  165MOL0     C22181  -1.108  10.284   2.199 -0.8844  0.8953  0.4177
  165MOL0     C22182  -1.178  10.352   2.320  0.1220 -0.6678 -0.3110
  165MOL0     C22183  -1.285  10.261   2.381  0.2435  0.0002  1.0682
  165MOL0    Cl22184  -1.402  10.365   2.480  0.3654 -0.5885 -0.0821
  165MOL0     C22185  -0.533  10.375   1.754  0.3922  0.8790  1.0526
  165MOL0     C22186  -0.445  10.466   1.698 -0.6860 -0.5720  0.1622
  165MOL0     O22187  -0.135  10.469   1.728  0.0359 -0.6215  0.5847
  165MOL0     C22188  -0.089  10.731   1.491  0.2417  0.4284 -0.5027
  165MOL0     C22189   0.004  10.813   1.426  0.3603 -0.2651 -0.2879
  165MOL0     N22190   0.667  11.027   1.371  1.0166  0.0389 -0.1017
  165MOL0     N22191   0.784  10.965   1.345  1.2389 -0.4375  0.6201
  165MOL0     C22192   1.948  11.227   0.684  0.7112  0.2424 -1.1022
  165MOL0     C22193   2.065  11.260   0.620 -0.1501 -0.0184 -0.8022
  165MOL0     C22194   2.413  11.301   0.300 -0.1728  0.7158  0.1877
  165MOL0     C22195   2.500  11.304   0.415  0.8078 -0.3295  0.2536
  165MOL0     C22196   2.632  11.351   0.410  0.0350 -0.7469  0.0763
  165MOL0     C22197   2.683  11.383   0.287  0.2145  0.6622  0.7603
  165MOL0     O22198   2.817  11.427   0.277 -0.3547 -0.1453  0.3818
  165MOL0     C22199   2.882  11.485   0.395  0.8597 -0.1232 -0.3906
  165MOL0     C22200   3.025  11.496   0.368 -0.8094 -0.0131 -0.4740
  165MOL0     C22201   3.110  11.368   0.370  0.3779  0.0626 -0.2451
  165MOL0     C22202   3.255  11.413   0.330 -0.7581  0.4593 -0.3673
  165MOL0     C22203   3.345  11.298   0.348  0.2996  0.3435  0.4293
  165MOL0     C22204   3.407  11.193   0.352  0.8190  0.6554 -0.3950
  165MOL0     C22205   2.601  11.374   0.179  0.5972  0.4174  0.0605
  165MOL0     C22206   2.465  11.333   0.178  0.0442 -0.0429 -0.3099
  165MOL0     C22207   2.400  11.332   0.047 -0.9967  0.0384  0.6487
  165MOL0     H22208   2.036  11.085   0.338  2.1945  3.3080 -1.1190
  165MOL0     H22209   1.844  11.000   0.453 -2.5358  1.8511 -1.5053
  165MOL0     H22210   1.715  11.152   0.843  0.7625  1.9188 -0.0849
  165MOL0     H22211   1.617  11.231   0.718  1.1223  0.5887  2.4241
  165MOL0     H22212   1.598  10.960   0.814  2.2899  0.7900 -1.2876
  165MOL0     H22213   1.501  11.037   0.683  3.7540 -2.1666 -1.5059
  165MOL0     H22214   1.418  11.203   0.858  0.5035  1.0674  0.2703
  165MOL0     H22215   1.513  11.118   0.975  0.1959 -0.8153 -0.9196
  165MOL0     H22216   1.284  10.991   0.822  0.2970 -4.8991  1.1504
  165MOL0     H22217   1.366  10.910   0.946  0.0091 -0.2754  1.4067
  165MOL0     H22218   1.282  11.022   1.125  0.9491  0.8064  0.4565
  165MOL0     H22219   1.256  11.167   1.038 -2.2560 -0.0547  0.3692
  165MOL0     H22220   1.046  11.054   0.926 -4.3099  2.1077  2.2903
  165MOL0     H22221   1.117  10.905   1.009  0.9631  0.0283  2.9759
  165MOL0     H22222   1.010  11.153   1.134 -0.0343  0.0056  0.3472
  165MOL0     H22223   1.091  11.017   1.227 -0.0419  3.2465  1.0307
  165MOL0     H22224   0.851  10.992   1.037 -0.0210  0.9293  0.4609
  165MOL0     H22225   0.926  10.867   1.153 -2.0555 -0.8649 -1.4825
  165MOL0     H22226   0.709  11.165   1.081  1.2190  1.6804  0.9951
  165MOL0     H22227   0.547  11.284   1.358  3.9401 -6.1349  3.9193
  165MOL0     H22228   0.474  11.258   1.188  0.1386 -3.1338 -2.3071
  165MOL0     H22229   0.414  11.120   1.441  0.1949  3.7067  2.2704
  165MOL0     H22230   0.310  11.236   1.345  0.4996  0.5007  0.2827
  165MOL0     H22231   0.391  10.979   1.228  0.6724 -0.7995  0.2377
  165MOL0     H22232   0.287  11.094   1.153  2.8511 -0.7039 -0.1521
  165MOL0     H22233   0.128  10.937   1.234 -2.3693  2.4516 -0.6080
  165MOL0     H22234   0.116  11.061   1.358 -0.7820 -1.9371  3.5409
  165MOL0     H22235   0.272  10.724   1.604 -0.2445 -3.1932  1.9970
  165MOL0     H22236   0.119  10.556   1.687 -1.2661 -0.6301  0.4349
  165MOL0     H22237  -0.319  10.290   1.437 -1.0585 -1.8512 -1.5601
  165MOL0     H22238  -0.498  10.129   1.536 -2.1008  0.0691  2.1038
  165MOL0     H22239  -0.766  10.247   1.858  1.3033  0.5797 -0.7232
  165MOL0     H22240  -0.780  10.081   1.882  0.9697 -1.3992  0.3178
  165MOL0     H22241  -0.563  10.117   2.021  1.2991 -0.1839 -3.4492
  165MOL0     H22242  -0.566  10.285   1.995  0.2516 -0.4382  2.7632
  165MOL0     H22243  -0.697  10.159   2.195 -1.1020  0.1559 -0.2404
  165MOL0     H22244  -0.694  10.331   2.158  0.7155  0.0589 -0.4708
  165MOL0     H22245  -0.901  10.114   2.063  0.9747 -1.6943  0.3504
  165MOL0     H22246  -0.907  10.277   2.017  1.6391  1.6196  1.4905
  165MOL0     H22247  -0.927  10.355   2.256 -0.6113  0.3142 -1.1342
  165MOL0     H22248  -0.940  10.182   2.304  3.1240 -0.4360 -1.1406
  165MOL0     H22249  -1.127  10.322   2.098 -2.3195 -3.7622 -1.3433
  165MOL0     H22250  -1.144  10.182   2.182  1.6707  0.1969 -1.4841
  165MOL0     H22251  -1.218  10.445   2.281  0.7450 -0.2604 -0.0007
  165MOL0     H22252  -1.109  10.382   2.400 -1.1180 -0.1114  0.5848
  165MOL0     H22253  -1.321  10.208   2.292  2.8306  0.8555 -0.5842
  165MOL0     H22254  -1.250  10.178   2.444 -0.8742 -0.4538  1.1245
  165MOL0     H22255  -0.600  10.419   1.828  0.8610  5.0254 -0.6891
  165MOL0     H22256  -0.438  10.564   1.745  0.5283  0.3170 -1.7652
  165MOL0     H22257  -0.194  10.736   1.463  0.2448 -4.2191 -2.2391
  165MOL0     H22258  -0.020  10.872   1.338  3.7688  2.0422  0.0998
  165MOL0     H22259   1.923  11.274   0.778  1.4975 -1.2357 -0.1056
  165MOL0     H22260   2.145  11.311   0.673  1.6499 -1.4647 -1.9805
  165MOL0     H22261   2.460  11.280   0.513 -0.0206  0.8455  0.2298
  165MOL0     H22262   2.703  11.345   0.492  2.5800 -1.7876 -2.0420
  165MOL0     H22263   2.876  11.424   0.485 -0.3877 -0.2501 -0.5403
  165MOL0     H22264   2.841  11.583   0.421 -5.2813 -2.9029  2.4937
  165MOL0     H22265   3.083  11.557   0.438  2.0354 -2.7035 -0.2293
  165MOL0     H22266   3.030  11.541   0.268  0.0400  1.0093  0.0134
  165MOL0     H22267   3.078  11.291   0.299  1.0782 -0.5694  0.1021
  165MOL0     H22268   3.127  11.315   0.464  0.1817 -0.8341 -0.7066
  165MOL0     H22269   3.269  11.451   0.228  0.7631 -1.0161 -0.7454
  165MOL0     H22270   3.289  11.494   0.395  1.0451  1.3259 -2.2567
  165MOL0     H22271   3.458  11.100   0.337  0.8345  0.4746  0.6952
  165MOL0     H22272   2.645  11.381   0.080  0.9068 -1.3769  0.0401
  165MOL0     H22273   2.362  11.231   0.025 -1.3111  0.3728 -0.4074
  165MOL0     H22274   2.317  11.403   0.050 -0.6886  0.4312 -0.0581
  165MOL0     H22275   2.469  11.363  -0.031 -0.8331  1.1377  1.2175
  166MOL0     O22276  11.139   1.620   0.162  0.6234 -0.3541  0.5588
  166MOL0     C22277  11.201   1.513   0.176 -0.3869 -0.9147  1.2878
  166MOL0     O22278  11.163   1.402   0.256  0.4122  0.1707 -0.4390
  166MOL0     C22279  11.089   1.422   0.365 -0.3016  0.1403  0.3407
  166MOL0     C22280  11.122   1.525   0.464  0.0411 -0.3622 -0.0310
  166MOL0     C22281  11.051   1.523   0.591 -0.1595  0.5282  0.4577
  166MOL0     C22282  10.972   1.417   0.630  0.2381  0.2151  0.5715
  166MOL0     O22283  10.900   1.439   0.748 -0.4271  0.0807  0.6417
  166MOL0     C22284  10.761   1.394   0.749  0.3209  0.4351 -0.1207
  166MOL0     C22285  10.728   1.360   0.888  0.3040  0.2647 -0.3144
  166MOL0     C22286  10.576   1.317   0.890  0.1624 -1.4770  0.0481
  166MOL0     C22287  10.516   1.261   1.032  0.6526 -0.3615  0.0686
  166MOL0     C22288  10.370   1.212   1.015 -0.3771  0.2693 -0.7042
  166MOL0     C22289  10.365   1.072   0.953  0.1238  0.4489  0.0954
  166MOL0     C22290  10.221   1.017   0.949  0.3262  0.3044 -1.1009
  166MOL0     C22291  10.218   0.872   0.891 -0.7456 -0.2447 -0.3724
  166MOL0     N22292  10.250   0.881   0.745  0.2102  0.9650  0.0169
  166MOL0     C22293  10.301   0.775   0.667 -0.1261  0.5749  0.6878
  166MOL0     C22294  10.320   0.826   0.540 -0.2604  0.7313 -0.3570
  166MOL0     C22295  10.393   0.769   0.428 -0.4046 -0.0174 -0.1899
  166MOL0     C22296  10.332   0.628   0.393  0.0729 -0.1480 -0.6046
  166MOL0     C22297  10.183   0.619   0.357 -0.5129 -0.1797  0.0381
  166MOL0     C22298  10.122   0.482   0.348  0.4450  0.9532 -0.2861
  166MOL0     O22299  10.124   0.392   0.461  0.4071  0.6034  0.5221
  166MOL0     C22300  10.093   0.265   0.435  0.3039 -0.2004  0.1518
  166MOL0     C22301  10.144   0.174   0.517  0.0122  0.4974 -0.2204
  166MOL0     C22302  10.121   0.034   0.508 -0.3547  0.3820  0.0968
  166MOL0     C22303  10.035  -0.010   0.404 -0.7620 -0.0013  0.4403
  166MOL0     C22304   9.981  -0.145   0.389 -0.6232 -0.7423  0.7365
  166MOL0     O22305   9.951  -0.170   0.261  0.4347  0.7219 -0.5035
  166MOL0     C22306   9.868  -0.273   0.240  0.9293  0.2687 -1.0315
  166MOL0     C22307   9.733  -0.252   0.287  0.0739 -0.3590  0.0468
  166MOL0     C22308   9.641  -0.360   0.279  0.7884  0.5021 -0.9504
  166MOL0     C22309   9.661  -0.477   0.207 -1.0097  0.5610 -0.6340
  166MOL0     O22310   9.567  -0.573   0.195  0.1410 -0.0773  0.6100
  166MOL0     C22311   9.485  -0.550   0.088 -0.6253 -0.1878 -0.1819
  166MOL0     C22312   9.441  -0.677   0.028  0.1715  0.2412 -0.6485
  166MOL0     C22313   9.555  -0.742  -0.043 -0.3760  0.0819 -0.3743
  166MOL0     C22314   9.513  -0.838  -0.155  0.3196 -1.0679  0.5674
  166MOL0     C22315   9.628  -0.862  -0.259 -0.5172 -0.5822 -0.4273
  166MOL0     C22316   9.687  -1.006  -0.224  0.1385  0.4974  1.3138
  166MOL0     C22317   9.798  -1.048  -0.342  0.8287  0.3208  0.7667
  166MOL0     C22318   9.899  -0.933  -0.353 -0.5366 -0.5883 -0.1741
  166MOL0    Cl22319  10.028  -0.993  -0.465  0.0163 -0.2439 -0.5489
  166MOL0     C22320   9.796  -0.496   0.161  1.7428 -0.7888  0.3157
  166MOL0     C22321   9.894  -0.391   0.169  1.1268  0.2949 -0.1750
  166MOL0     O22322   9.970  -0.222   0.482  0.3932 -0.1633  0.1411
  166MOL0     C22323   9.983   0.088   0.313 -0.4894 -0.7498 -0.0222
  166MOL0     C22324  10.007   0.223   0.331  0.6739 -0.3524 -0.5456
  166MOL0     N22325  10.272   0.951   0.538  0.3236 -0.8218 -0.4780
  166MOL0     N22326  10.229   0.985   0.661 -0.7643 -0.0287 -0.1653
  166MOL0     C22327  10.958   1.313   0.538  0.6013 -0.1495 -0.8380
  166MOL0     C22328  11.000   1.317   0.404  0.4268 -0.5625  0.4333
  166MOL0     C22329  11.322   1.495   0.083  1.5392 -0.0515 -0.0065
  166MOL0     C22330  11.367   1.365   0.076 -0.9067 -0.3674 -1.0704
  166MOL0     C22331  11.489   1.331   0.012  0.4003  0.0077  0.1190
  166MOL0     C22332  11.560   1.427  -0.059 -0.2337  0.2569  0.0194
  166MOL0     O22333  11.668   1.370  -0.118 -1.1064  1.0591  0.8271
  166MOL0     C22334  11.791   1.444  -0.113  0.2672  0.4554  0.7108
  166MOL0     C22335  11.866   1.380  -0.236  1.0758 -1.5912  0.5438
  166MOL0     C22336  11.997   1.327  -0.200 -0.2870 -1.0236 -0.0274
  166MOL0     C22337  11.984   1.197  -0.121 -0.1828 -0.1557  0.1090
  166MOL0     C22338  12.120   1.147  -0.085  0.4643  0.1978  1.0535
  166MOL0     C22339  12.235   1.122  -0.051  0.2205  0.0605  0.1097
  166MOL0     C22340  11.520   1.565  -0.046  0.1849 -0.5277  0.2942
  166MOL0     C22341  11.404   1.594   0.022 -0.1012 -0.6641 -0.3110
  166MOL0     C22342  11.374   1.739   0.042 -0.9266 -0.6015  0.5431
  166MOL0     H22343  11.199   1.600   0.447  1.1933 -1.0852  1.6807
  166MOL0     H22344  11.076   1.595   0.668  0.6092 -1.6768  2.3773
  166MOL0     H22345  10.702   1.476   0.705  1.0573  0.9368 -0.1808
  166MOL0     H22346  10.728   1.304   0.696 -3.6060  0.0230  2.6381
  166MOL0     H22347  10.736   1.449   0.951  0.7743  0.7525 -1.0490
  166MOL0     H22348  10.802   1.287   0.924  0.8772  0.4878 -1.0212
  166MOL0     H22349  10.561   1.250   0.805  1.0753  2.0015 -3.1164
  166MOL0     H22350  10.506   1.400   0.876 -2.4957 -3.4570  0.6651
  166MOL0     H22351  10.572   1.170   1.058  0.2364 -0.3413  1.0406
  166MOL0     H22352  10.519   1.335   1.112 -1.9476 -2.1703  1.9887
  166MOL0     H22353  10.323   1.204   1.113 -1.7694 -0.6733 -1.4215
  166MOL0     H22354  10.314   1.290   0.962 -2.0871 -0.0343  0.6074
  166MOL0     H22355  10.394   1.076   0.847 -2.9512  2.2028 -0.8190
  166MOL0     H22356  10.433   1.002   1.001 -0.4001 -2.2545 -2.7575
  166MOL0     H22357  10.147   1.080   0.898 -2.7072 -2.3062 -0.1984
  166MOL0     H22358  10.192   1.000   1.053 -0.6691 -4.3271 -1.9191
  166MOL0     H22359  10.287   0.808   0.945 -0.6209 -0.7691 -1.1355
  166MOL0     H22360  10.114   0.839   0.901 -1.5219  2.3571  1.1847
  166MOL0     H22361  10.324   0.673   0.697  1.8073  1.2181  1.5584
  166MOL0     H22362  10.388   0.831   0.338 -0.0350  2.3584  1.3168
  166MOL0     H22363  10.496   0.748   0.461 -0.8013 -1.9356 -0.1133
  166MOL0     H22364  10.386   0.583   0.310  0.5638 -1.5664  0.4491
  166MOL0     H22365  10.340   0.562   0.480 -2.5181  1.3452  0.8861
  166MOL0     H22366  10.185   0.657   0.255  0.6979 -2.3792 -0.8242
  166MOL0     H22367  10.121   0.683   0.421  0.8333  1.1455  0.0654
  166MOL0     H22368  10.163   0.429   0.261 -3.0598  0.4372 -1.8217
  166MOL0     H22369  10.018   0.502   0.320  0.5695  0.6908 -0.9502
  166MOL0     H22370  10.204   0.199   0.603  2.7474  0.5035 -2.0163
  166MOL0     H22371  10.164  -0.035   0.579 -0.1025 -1.0146 -1.3353
  166MOL0     H22372   9.718  -0.162   0.345  2.4372  0.5024 -0.5713
  166MOL0     H22373   9.539  -0.342   0.313  0.2889 -0.0932 -2.0541
  166MOL0     H22374   9.400  -0.495   0.130  1.3288  1.9075  1.2665
  166MOL0     H22375   9.520  -0.473   0.018 -1.0269  4.9194  4.5568
  166MOL0     H22376   9.409  -0.753   0.101 -0.9126 -0.3996 -1.7587
  166MOL0     H22377   9.360  -0.648  -0.038  1.3767  0.9604 -1.8535
  166MOL0     H22378   9.620  -0.661  -0.078 -3.0319  1.3983 -2.6973
  166MOL0     H22379   9.598  -0.800   0.039  2.9814  1.7011 -0.8191
  166MOL0     H22380   9.427  -0.799  -0.211 -0.5895 -1.6027  1.5629
  166MOL0     H22381   9.490  -0.930  -0.101 -0.6729  0.0314  2.0858
  166MOL0     H22382   9.711  -0.795  -0.235 -1.9205  1.1428 -0.1444
  166MOL0     H22383   9.610  -0.858  -0.367 -2.9344 -3.8497 -0.2870
  166MOL0     H22384   9.740  -1.008  -0.129  0.2537 -0.5661  1.2416
  166MOL0     H22385   9.614  -1.088  -0.221 -1.0829  1.5801  2.7488
  166MOL0     H22386   9.740  -1.053  -0.435 -2.4457  1.0262  2.6142
  166MOL0     H22387   9.851  -1.139  -0.313  0.2707 -0.5079 -0.6899
  166MOL0     H22388   9.858  -0.845  -0.403 -1.2241 -1.3552 -0.9903
  166MOL0     H22389   9.945  -0.894  -0.261 -0.7511  0.2157 -0.4052
  166MOL0     H22390   9.817  -0.586   0.104 -0.9236 -1.4279  0.2121
  166MOL0     H22391   9.992  -0.408   0.126  1.5601 -0.2580  0.9935
  166MOL0     H22392   9.917   0.067   0.229 -1.9360 -1.6890  1.3188
  166MOL0     H22393   9.966   0.293   0.259 -0.6086  2.2810  2.5162
  166MOL0     H22394  10.896   1.227   0.562  0.9805 -0.0315  0.6941
  166MOL0     H22395  10.973   1.250   0.324  0.9594 -1.2941  0.8532
  166MOL0     H22396  11.318   1.290   0.137  0.2333  0.1503  0.5530
  166MOL0     H22397  11.536   1.234   0.007  2.6297  1.0436 -4.1350
  166MOL0     H22398  11.839   1.426  -0.016 -0.2504  2.9848  1.5087
  166MOL0     H22399  11.785   1.551  -0.132 -0.3091  0.0159 -2.0187
  166MOL0     H22400  11.891   1.460  -0.306  0.7279 -3.0079 -1.2777
  166MOL0     H22401  11.811   1.300  -0.286 -3.9568  0.9362  1.3239
  166MOL0     H22402  12.047   1.402  -0.138 -0.5913 -1.8248  1.2427
  166MOL0     H22403  12.041   1.301  -0.296 -2.6231 -1.5481 -1.0370
  166MOL0     H22404  11.914   1.216  -0.039 -0.7642  0.3015 -0.4878
  166MOL0     H22405  11.929   1.118  -0.173  1.6395 -0.7854 -0.9527
  166MOL0     H22406  12.334   1.101  -0.014  0.7222  0.0316 -1.1772
  166MOL0     H22407  11.571   1.642  -0.103 -0.5780 -1.3094 -1.5048
  166MOL0     H22408  11.450   1.797  -0.011 -0.1753 -2.4218 -0.4446
  166MOL0     H22409  11.277   1.760  -0.003 -0.6347 -1.2395 -0.4091
  166MOL0     H22410  11.375   1.763   0.149  0.1335 -1.8693  0.8530
  167MOL0     O22411   7.447   9.458   8.942 -0.5556 -0.6441 -0.6872
  167MOL0     C22412   7.362   9.395   8.880 -0.1696  0.2068 -0.2488
  167MOL0     O22413   7.277   9.300   8.928  0.5554 -0.3694 -0.0704
  167MOL0     C22414   7.295   9.250   9.053  0.9821  0.2281  0.1411
  167MOL0     C22415   7.187   9.234   9.143 -0.1588  0.5902 -0.9830
  167MOL0     C22416   7.205   9.175   9.269 -0.3439 -0.2181 -1.4158
  167MOL0     C22417   7.331   9.123   9.313 -0.2067  0.7085 -0.0791
  167MOL0     O22418   7.358   9.049   9.419 -0.0323 -0.3098  0.1564
  167MOL0     C22419   7.288   9.089   9.539 -0.6312  0.7878  0.0667
  167MOL0     C22420   7.363   9.028   9.657 -0.4582  0.1874  0.2729
  167MOL0     C22421   7.299   9.083   9.782 -0.4269 -0.2862  0.0871
  167MOL0     C22422   7.339   9.002   9.904 -0.2513 -0.5203  0.5933
  167MOL0     C22423   7.277   9.049  10.035 -0.2995  0.0407 -0.2578
  167MOL0     C22424   7.342   8.968  10.152  0.3088  0.4729 -0.3573
  167MOL0     C22425   7.284   9.005  10.288 -1.2168 -0.0041  0.0838
  167MOL0     C22426   7.191   8.903  10.343 -0.8403 -0.5422 -0.4789
  167MOL0     N22427   7.256   8.778  10.385  0.4190 -0.2048  0.0467
  167MOL0     C22428   7.184   8.662  10.420  0.0893 -0.3606  0.1451
  167MOL0     C22429   7.276   8.571  10.453 -0.4026 -0.5521  0.4963
  167MOL0     C22430   7.242   8.438  10.518 -0.1274 -1.2891  0.5052
  167MOL0     C22431   7.213   8.328  10.411 -0.1567  0.9283 -0.8299
  167MOL0     C22432   7.229   8.186  10.466  0.1526 -0.3069  0.1363
  167MOL0     C22433   7.164   8.088  10.364  0.5018  0.9289 -0.4809
  167MOL0     O22434   7.237   8.101  10.245  0.0982 -0.1939  1.0468
  167MOL0     C22435   7.199   8.026  10.141 -0.1108  0.0540 -0.0969
  167MOL0     C22436   7.141   7.899  10.158  0.7039  0.1021  0.1628
  167MOL0     C22437   7.096   7.827  10.048 -0.0076 -0.8563 -0.3349
  167MOL0     C22438   7.111   7.885   9.917 -0.6298 -0.2419  0.5596
  167MOL0     C22439   7.066   7.821   9.797  0.8932 -0.4404 -0.3342
  167MOL0     O22440   7.119   7.859   9.678  0.5261 -0.4369  0.3192
  167MOL0     C22441   7.051   7.834   9.555 -0.0031  0.1296  0.2925
  167MOL0     C22442   6.915   7.803   9.532 -1.0333 -1.0660 -0.4939
  167MOL0     C22443   6.862   7.777   9.403  0.4563  0.2325  0.1802
  167MOL0     C22444   6.940   7.785   9.291 -0.5231 -0.0504  0.1269
  167MOL0     O22445   6.868   7.772   9.174 -0.8146  0.2709 -0.0687
  167MOL0     C22446   6.934   7.703   9.064  0.1032 -0.4567 -0.4780
  167MOL0     C22447   6.895   7.551   9.058  0.4653  0.7143  0.2375
  167MOL0     C22448   6.746   7.509   9.029 -0.3108 -0.5051 -0.5592
  167MOL0     C22449   6.644   7.576   9.122  0.3890  0.2276 -0.5935
  167MOL0     C22450   6.512   7.498   9.149 -0.1824  0.0475 -0.3500
  167MOL0     C22451   6.402   7.583   9.211 -0.2669 -0.4509  0.7937
  167MOL0     C22452   6.270   7.511   9.244  0.3165 -0.3428  0.2634
  167MOL0     C22453   6.293   7.353   9.264  0.4730  0.2308  0.2892
  167MOL0    Cl22454   6.138   7.280   9.333 -0.2483 -0.3473 -0.0909
  167MOL0     C22455   7.070   7.840   9.306  0.2254 -0.0927  0.2033
  167MOL0     C22456   7.128   7.848   9.431 -0.6833  0.2282 -0.0499
  167MOL0     O22457   6.966   7.753   9.818  0.6828 -0.3231  0.4038
  167MOL0     C22458   7.190   8.001   9.904  0.3974  0.0611 -0.0333
  167MOL0     C22459   7.234   8.070  10.019 -0.1272 -0.4440  0.3901
  167MOL0     N22460   7.399   8.625  10.424 -0.3601  0.4194 -0.4440
  167MOL0     N22461   7.384   8.745  10.373 -0.4929  0.8086  0.1252
  167MOL0     C22462   7.432   9.127   9.214 -1.1836 -0.4127  0.1831
  167MOL0     C22463   7.414   9.195   9.092 -0.6595  0.1900  0.3034
  167MOL0     C22464   7.354   9.407   8.727 -0.1270  0.2675  0.6772
  167MOL0     C22465   7.236   9.359   8.661 -0.0695 -0.0623  0.9206
  167MOL0     C22466   7.225   9.379   8.526  1.0169  1.2973 -0.4706
  167MOL0     C22467   7.316   9.441   8.451 -1.1741 -0.5383 -0.0808
  167MOL0     O22468   7.307   9.465   8.315  0.0521 -0.1929  0.7769
  167MOL0     C22469   7.298   9.354   8.218 -0.0219  0.4893  0.0884
  167MOL0     C22470   7.149   9.324   8.184  0.0018 -0.1368  0.2333
  167MOL0     C22471   7.088   9.437   8.093  0.3039  0.6795 -0.4449
  167MOL0     C22472   6.941   9.408   8.073  0.3500  0.0043  0.6765
  167MOL0     C22473   6.900   9.274   8.025  0.5815 -0.4323  0.0591
  167MOL0     C22474   6.868   9.172   7.973  0.0224 -0.1549 -0.1499
  167MOL0     C22475   7.438   9.485   8.511  0.2597  0.2538 -0.2156
  167MOL0     C22476   7.456   9.468   8.650 -0.1410 -0.1476 -0.2755
  167MOL0     C22477   7.583   9.542   8.707 -0.8150  0.0584  0.5563
  167MOL0     H22478   7.099   9.287   9.108 -1.0232  1.3781  2.0802
  167MOL0     H22479   7.122   9.160   9.338  0.1178  2.8252 -0.0656
  167MOL0     H22480   7.305   9.196   9.554  1.0371  0.2642  2.5303
  167MOL0     H22481   7.181   9.068   9.548 -0.5927 -0.6882 -2.1223
  167MOL0     H22482   7.470   9.048   9.640 -0.0684  1.3124  3.4630
  167MOL0     H22483   7.348   8.920   9.655 -1.8813  0.3666 -2.0940
  167MOL0     H22484   7.193   9.059   9.771 -0.2292 -0.3741 -2.0483
  167MOL0     H22485   7.317   9.190   9.797 -2.0850 -0.0875  0.8798
  167MOL0     H22486   7.294   8.904   9.886 -2.2025  0.5884 -1.0682
  167MOL0     H22487   7.448   8.991   9.903 -0.0513  1.2154  0.0102
  167MOL0     H22488   7.318   9.150  10.044 -1.5144  0.7091 -1.7558
  167MOL0     H22489   7.168   9.044  10.040 -0.6739  3.5301 -2.1301
  167MOL0     H22490   7.324   8.864  10.127 -0.6778 -0.0104  2.0527
  167MOL0     H22491   7.451   8.976  10.147  0.4383 -1.2307 -0.7971
  167MOL0     H22492   7.227   9.099  10.289 -1.3264 -0.0694  0.0886
  167MOL0     H22493   7.367   9.025  10.356 -2.2989 -2.6345  2.3738
  167MOL0     H22494   7.115   8.922  10.419  0.7116 -1.1909  1.2888
  167MOL0     H22495   7.126   8.877  10.259 -3.2893  0.0223  1.1249
  167MOL0     H22496   7.077   8.651  10.427 -0.4559  2.8773 -1.0499
  167MOL0     H22497   7.330   8.409  10.574 -0.9523 -3.1361  0.9015
  167MOL0     H22498   7.163   8.465  10.589  1.3354  0.9636  1.4012
  167MOL0     H22499   7.111   8.345  10.375 -0.6517 -1.1714 -0.5310
  167MOL0     H22500   7.293   8.334  10.337  0.7713 -0.7431 -0.0112
  167MOL0     H22501   7.199   8.174  10.570  3.1596  3.4520  1.6713
  167MOL0     H22502   7.335   8.170  10.488  0.5794  1.8388 -0.1498
  167MOL0     H22503   7.058   8.101  10.339 -0.1647 -1.3403  0.8343
  167MOL0     H22504   7.163   7.989  10.411  0.4346 -0.6085 -3.4086
  167MOL0     H22505   7.119   7.854  10.254 -4.2795 -1.1983 -1.2805
  167MOL0     H22506   7.041   7.734  10.059 -2.5177  0.6920  0.9643
  167MOL0     H22507   6.850   7.799   9.619  1.2122  0.0534  1.3416
  167MOL0     H22508   6.754   7.771   9.395  0.1215  4.1927 -0.3523
  167MOL0     H22509   6.906   7.746   8.967  2.6443 -0.4978 -1.2919
  167MOL0     H22510   7.040   7.728   9.072 -0.2734  0.5203  4.0558
  167MOL0     H22511   6.950   7.502   8.977  0.0931  3.1206 -1.5931
  167MOL0     H22512   6.927   7.501   9.150  2.8838  2.1808  0.2830
  167MOL0     H22513   6.715   7.549   8.932 -5.2294  2.8151  1.9544
  167MOL0     H22514   6.741   7.400   9.029  2.9176 -0.7886  2.2025
  167MOL0     H22515   6.613   7.673   9.083 -0.6106  0.0732 -0.2004
  167MOL0     H22516   6.698   7.589   9.216  1.9738  0.1577 -1.4491
  167MOL0     H22517   6.542   7.421   9.221 -1.1403  1.1707  1.3211
  167MOL0     H22518   6.484   7.439   9.061  0.2345  0.3198 -0.6707
  167MOL0     H22519   6.443   7.640   9.295 -1.2893  1.0617  0.3208
  167MOL0     H22520   6.378   7.655   9.132  0.8998  0.0280  0.8510
  167MOL0     H22521   6.208   7.525   9.155  0.2015 -1.6256  0.1164
  167MOL0     H22522   6.221   7.561   9.328  0.1274 -0.6190  0.3236
  167MOL0     H22523   6.335   7.300   9.178  2.1903 -0.4799  1.4871
  167MOL0     H22524   6.369   7.340   9.342 -0.6623  0.3811  1.4528
  167MOL0     H22525   7.128   7.872   9.220 -1.6590  2.5120 -0.2188
  167MOL0     H22526   7.230   7.883   9.443 -1.1782  2.1887 -1.1715
  167MOL0     H22527   7.201   8.045   9.805 -2.5159 -0.0182 -0.4802
  167MOL0     H22528   7.287   8.164  10.014  2.6303 -1.9659 -1.0324
  167MOL0     H22529   7.515   9.061   9.238  0.7118  1.7462 -0.1744
  167MOL0     H22530   7.498   9.207   9.025  0.2671 -2.2014  0.9304
  167MOL0     H22531   7.156   9.317   8.720 -1.4033  0.3856 -0.4833
  167MOL0     H22532   7.129   9.342   8.490 -0.7993  2.3307  2.8932
  167MOL0     H22533   7.336   9.264   8.267 -2.4764 -1.3971 -1.2836
  167MOL0     H22534   7.358   9.351   8.127 -0.9436  1.5826 -0.5866
  167MOL0     H22535   7.094   9.303   8.276 -1.7855  0.2672 -0.7016
  167MOL0     H22536   7.148   9.228   8.131 -0.9049 -1.2167  2.1015
  167MOL0     H22537   7.148   9.431   8.001 -1.4971 -2.3633 -1.5660
  167MOL0     H22538   7.100   9.534   8.142 -0.8138  0.6699 -0.1264
  167MOL0     H22539   6.886   9.421   8.166  0.0067  0.1097  0.4602
  167MOL0     H22540   6.897   9.482   8.006 -0.4670  0.4375  1.6655
  167MOL0     H22541   6.820   9.086   7.931  0.1647 -1.1738  1.6688
  167MOL0     H22542   7.521   9.508   8.445  0.6207 -0.5908 -0.0672
  167MOL0     H22543   7.635   9.490   8.788  1.1784  2.1277  0.7304
  167MOL0     H22544   7.651   9.545   8.622 -1.0503 -5.1487 -0.0911
  167MOL0     H22545   7.557   9.640   8.749  0.7530  1.4833 -1.6042
  168MOL0     O22546   6.478   0.565   9.410 -0.5901  0.4132 -0.0362
  168MOL0     C22547   6.559   0.566   9.498 -0.0679  0.1506  0.2700
  168MOL0     O22548   6.637   0.675   9.537  0.7111  0.6974 -0.3993
  168MOL0     C22549   6.599   0.801   9.519 -0.5922 -0.0941 -0.4546
  168MOL0     C22550   6.467   0.847   9.496 -0.6824  0.5996 -0.4498
  168MOL0     C22551   6.436   0.982   9.476  0.2449 -1.0227 -0.4292
  168MOL0     C22552   6.533   1.087   9.511  0.3305  0.3945 -0.2838
  168MOL0     O22553   6.495   1.221   9.508 -0.1810 -0.1348 -0.4082
  168MOL0     C22554   6.562   1.312   9.598  1.9645 -0.1204 -0.4862
  168MOL0     C22555   6.489   1.325   9.733  0.5054  0.9660  0.6133
  168MOL0     C22556   6.544   1.445   9.811 -0.4218 -0.5716 -0.1143
  168MOL0     C22557   6.667   1.407   9.885 -0.2018  1.2221  0.8281
  168MOL0     C22558   6.738   1.523   9.930 -0.2067  0.3349 -0.3669
  168MOL0     C22559   6.671   1.603  10.035  0.2095 -0.6751 -0.5300
  168MOL0     C22560   6.742   1.739  10.072  0.0157  0.1209 -0.3401
  168MOL0     C22561   6.669   1.813  10.176  0.4283 -0.5699  0.3746
  168MOL0     N22562   6.535   1.851  10.146  0.0954 -0.6184 -0.1121
  168MOL0     C22563   6.496   1.944  10.049  0.4492 -0.4270 -0.9251
  168MOL0     C22564   6.352   1.948  10.066 -0.6559  0.4830 -1.2457
  168MOL0     C22565   6.288   2.074  10.028 -0.2868 -0.1965  0.4808
  168MOL0     C22566   6.227   2.060   9.886 -0.1398 -0.2067 -0.3575
  168MOL0     C22567   6.323   2.076   9.767 -0.5310 -0.6014  0.7624
  168MOL0     C22568   6.246   2.140   9.643  0.1025 -0.4274 -0.1802
  168MOL0     O22569   6.332   2.209   9.555  1.0264  0.0181  0.5926
  168MOL0     C22570   6.438   2.155   9.499 -0.1032 -0.6870  0.2053
  168MOL0     C22571   6.563   2.217   9.521 -0.8775 -0.1091  0.7710
  168MOL0     C22572   6.682   2.151   9.474 -0.1124  0.0704  0.5071
  168MOL0     C22573   6.665   2.047   9.381 -0.2658  0.1749  0.8218
  168MOL0     C22574   6.790   1.979   9.328  0.1846 -0.4813 -0.4414
  168MOL0     O22575   6.769   1.844   9.293 -0.2046  0.5874  0.5073
  168MOL0     C22576   6.868   1.764   9.267  0.0457  0.2619 -0.1120
  168MOL0     C22577   6.859   1.642   9.322  0.1908 -0.6394 -0.4932
  168MOL0     C22578   6.967   1.548   9.313  0.6189 -0.4143  0.1660
  168MOL0     C22579   7.082   1.581   9.239 -0.2866 -0.7492 -0.5689
  168MOL0     O22580   7.187   1.503   9.224 -0.0913  0.3580  0.2216
  168MOL0     C22581   7.198   1.375   9.287  0.8431  0.0593 -1.2062
  168MOL0     C22582   7.311   1.302   9.243 -0.2692 -0.0571 -0.5140
  168MOL0     C22583   7.331   1.283   9.090 -0.4750 -0.0475  0.2414
  168MOL0     C22584   7.462   1.197   9.063  0.0584 -0.2287  0.6174
  168MOL0     C22585   7.461   1.052   9.121  0.4479 -0.0403  0.8973
  168MOL0     C22586   7.592   0.974   9.074  0.1009  0.4963  0.4981
  168MOL0     C22587   7.592   0.963   8.918 -1.1595  0.3572  0.7892
  168MOL0     C22588   7.678   0.840   8.885  0.8516 -0.1141  0.3306
  168MOL0    Cl22589   7.839   0.827   8.970  0.1991 -0.0132  0.5149
  168MOL0     C22590   7.093   1.713   9.184  0.7047  0.5995 -0.0535
  168MOL0     C22591   6.981   1.796   9.192  0.4494 -0.0602  0.4216
  168MOL0     O22592   6.895   2.045   9.314 -0.5209 -0.3414 -0.1390
  168MOL0     C22593   6.536   1.988   9.355 -0.0570 -1.5685 -0.7884
  168MOL0     C22594   6.432   2.037   9.427  0.7012  0.0209  0.3037
  168MOL0     N22595   6.314   1.857  10.166 -0.7047 -0.3783 -0.1709
  168MOL0     N22596   6.424   1.805  10.222 -0.1782  0.0750  0.5358
  168MOL0     C22597   6.666   1.035   9.550  1.1696  0.1382  0.1795
  168MOL0     C22598   6.697   0.895   9.552 -0.1578 -0.7565  0.4389
  168MOL0     C22599   6.592   0.423   9.529  0.5761 -0.9579  0.1140
  168MOL0     C22600   6.492   0.328   9.519 -0.3617  0.4758  1.1504
  168MOL0     C22601   6.513   0.194   9.572  0.1751 -0.4519  0.4067
  168MOL0     C22602   6.644   0.154   9.618  0.5418  0.1251  0.4407
  168MOL0     O22603   6.685   0.036   9.666 -0.0234 -0.4549 -0.1292
  168MOL0     C22604   6.587  -0.039   9.746 -0.2772 -0.6678  0.1502
  168MOL0     C22605   6.649  -0.146   9.835 -0.8110  0.4574 -0.5045
  168MOL0     C22606   6.738  -0.072   9.927 -0.6825 -0.2271  0.0071
  168MOL0     C22607   6.803  -0.167  10.028 -0.1840 -0.1203 -0.5081
  168MOL0     C22608   6.882  -0.091  10.127 -1.0576 -0.3930  0.2894
  168MOL0     C22609   6.949  -0.029  10.215 -0.5945 -0.3809  0.4127
  168MOL0     C22610   6.747   0.247   9.616 -0.3205  0.7830  0.2437
  168MOL0     C22611   6.714   0.382   9.583  0.7493  1.3215 -0.0927
  168MOL0     C22612   6.836   0.465   9.595 -0.5543  0.6367 -0.2936
  168MOL0     H22613   6.378   0.785   9.493 -0.3342  0.1299 -2.2491
  168MOL0     H22614   6.336   1.017   9.454  0.6539  0.2188 -0.4119
  168MOL0     H22615   6.671   1.299   9.595  2.0165  0.3138 -0.6190
  168MOL0     H22616   6.555   1.409   9.547 -0.4434 -1.8228 -3.7995
  168MOL0     H22617   6.494   1.228   9.785 -1.1823 -1.6928 -3.6545
  168MOL0     H22618   6.381   1.332   9.721  0.1457 -3.2271 -0.1333
  168MOL0     H22619   6.466   1.489   9.875 -1.9538  0.2907 -2.4371
  168MOL0     H22620   6.567   1.529   9.745  0.7680  1.7740  3.0049
  168MOL0     H22621   6.654   1.337   9.968 -0.0980  1.0142  0.6722
  168MOL0     H22622   6.731   1.349   9.818  1.4490 -0.4340  3.6235
  168MOL0     H22623   6.830   1.475   9.966 -0.0002  0.7227 -0.3655
  168MOL0     H22624   6.763   1.587   9.845  0.6371 -1.7254 -1.7433
  168MOL0     H22625   6.579   1.647   9.997  0.1330 -1.2608 -1.0312
  168MOL0     H22626   6.649   1.544  10.125  1.4125 -0.4091 -0.0293
  168MOL0     H22627   6.751   1.793   9.977  2.1188  1.3383  0.4978
  168MOL0     H22628   6.843   1.732  10.113  0.3283 -2.9339 -1.4254
  168MOL0     H22629   6.673   1.739  10.257 -1.0089 -2.6797 -1.3339
  168MOL0     H22630   6.728   1.903  10.194  1.5131 -1.2978  0.5646
  168MOL0     H22631   6.563   2.003   9.988 -0.5804  1.7204 -0.0800
  168MOL0     H22632   6.212   2.095  10.104 -0.0029 -1.0017  1.0024
  168MOL0     H22633   6.363   2.153  10.021  2.4736 -2.8005 -3.6513
  168MOL0     H22634   6.168   1.968   9.891 -2.5836  0.9276 -4.0417
  168MOL0     H22635   6.153   2.140   9.873  1.2381  1.1718 -0.0333
  168MOL0     H22636   6.373   1.983   9.739 -0.9462 -0.5232 -0.2907
  168MOL0     H22637   6.397   2.148   9.802 -1.1011 -0.0965  0.9621
  168MOL0     H22638   6.181   2.216   9.688 -1.5035 -1.1949 -1.1359
  168MOL0     H22639   6.195   2.057   9.593 -0.7051  0.4959 -0.9141
  168MOL0     H22640   6.571   2.311   9.575 -2.4965 -0.0400  0.9416
  168MOL0     H22641   6.784   2.189   9.477  1.1401 -2.6955 -2.1882
  168MOL0     H22642   6.772   1.625   9.384  1.1651 -0.3449  1.0323
  168MOL0     H22643   6.956   1.456   9.368  0.1827  0.7754  2.1939
  168MOL0     H22644   7.205   1.382   9.396 -0.6378  0.5971 -1.1260
  168MOL0     H22645   7.108   1.319   9.264 -0.9774  2.9506 -1.6924
  168MOL0     H22646   7.403   1.350   9.278  0.1606 -0.5262 -0.9689
  168MOL0     H22647   7.302   1.203   9.289 -0.2568  0.5540  0.8418
  168MOL0     H22648   7.249   1.228   9.044 -2.3156  1.4037  1.6020
  168MOL0     H22649   7.350   1.384   9.051  2.6047  0.0727  1.7253
  168MOL0     H22650   7.558   1.239   9.097  0.6846  0.0360 -1.3194
  168MOL0     H22651   7.468   1.202   8.954 -1.6998  3.5494  0.5164
  168MOL0     H22652   7.376   0.990   9.092  1.2803 -0.9615  0.3920
  168MOL0     H22653   7.481   1.055   9.229  0.4738  2.0405  0.8826
  168MOL0     H22654   7.675   1.032   9.116 -0.1058 -0.1959  1.9027
  168MOL0     H22655   7.597   0.875   9.119  1.3551  2.0559  4.1700
  168MOL0     H22656   7.644   1.050   8.878  1.2484 -1.8616 -1.2813
  168MOL0     H22657   7.496   0.953   8.867 -0.5023  0.4714 -0.5278
  168MOL0     H22658   7.616   0.759   8.924 -0.5287  2.1291  3.2078
  168MOL0     H22659   7.694   0.823   8.778  3.9793 -1.5903  0.9220
  168MOL0     H22660   7.186   1.741   9.136 -0.6203  3.0876 -1.3979
  168MOL0     H22661   6.987   1.896   9.150  3.1326  0.0651  0.9732
  168MOL0     H22662   6.535   1.897   9.295 -2.4410 -2.3762  0.3488
  168MOL0     H22663   6.335   1.989   9.424 -0.2526  1.8956 -2.0771
  168MOL0     H22664   6.741   1.104   9.587 -0.6389  1.3876  1.6662
  168MOL0     H22665   6.796   0.867   9.584 -0.5661 -1.1501  1.3978
  168MOL0     H22666   6.396   0.365   9.484  0.1817  1.2486  0.4258
  168MOL0     H22667   6.421   0.136   9.564 -1.5392  2.0583  0.4724
  168MOL0     H22668   6.508  -0.066   9.676  0.9715  0.3378 -1.7357
  168MOL0     H22669   6.540   0.031   9.816 -0.3926 -2.0858  1.5561
  168MOL0     H22670   6.693  -0.225   9.774  0.5187  0.8327 -0.0517
  168MOL0     H22671   6.570  -0.197   9.891 -1.1361  1.8206  0.3345
  168MOL0     H22672   6.668  -0.008   9.981  0.1617  0.1083  0.7260
  168MOL0     H22673   6.812  -0.010   9.875 -0.9734 -2.5159 -3.4962
  168MOL0     H22674   6.729  -0.227  10.082 -1.5127  3.5866  2.2323
  168MOL0     H22675   6.886  -0.219   9.980 -1.0239  0.0378 -2.1810
  168MOL0     H22676   7.001   0.032  10.285 -2.5412  1.8568  0.0104
  168MOL0     H22677   6.847   0.217   9.646 -0.8827 -0.2380  1.1490
  168MOL0     H22678   6.852   0.524   9.504 -2.0802  0.0168 -0.9996
  168MOL0     H22679   6.837   0.525   9.686  1.4782 -1.3889  1.1174
  168MOL0     H22680   6.922   0.399   9.611 -1.4617 -0.0807  2.0314
  169MOL0     O22681   4.469   2.858   1.105 -0.1517  0.1564  0.6462
  169MOL0     C22682   4.483   2.742   1.048 -0.0603  0.3640 -0.1394
  169MOL0     O22683   4.545   2.722   0.924  0.3397 -0.5200  0.4541
  169MOL0     C22684   4.559   2.828   0.839  0.1093 -0.6930 -0.2080
  169MOL0     C22685   4.685   2.876   0.813  0.4316 -1.0814 -0.0527
  169MOL0     C22686   4.704   2.996   0.736  0.6842  0.1708 -0.6483
  169MOL0     C22687   4.597   3.071   0.687  0.2548  0.2698 -0.1554
  169MOL0     O22688   4.592   3.178   0.597  0.2858 -0.4040  0.5162
  169MOL0     C22689   4.714   3.247   0.567 -1.0486  0.3909 -0.5820
  169MOL0     C22690   4.677   3.341   0.453  0.7456 -0.7269  0.1686
  169MOL0     C22691   4.552   3.429   0.480 -0.3975  0.2054 -0.2891
  169MOL0     C22692   4.531   3.566   0.407  0.5821 -0.2644  0.4752
  169MOL0     C22693   4.387   3.623   0.440  1.0596  0.0578 -0.3467
  169MOL0     C22694   4.374   3.759   0.375 -0.6493 -0.8431  0.2998
  169MOL0     C22695   4.444   3.876   0.436  1.1707  0.1108 -0.5108
  169MOL0     C22696   4.423   4.012   0.362 -0.0171 -1.2452 -0.3855
  169MOL0     N22697   4.485   4.126   0.443 -0.9152 -0.8607 -0.2202
  169MOL0     C22698   4.410   4.216   0.516 -0.5915 -0.0647  1.2076
  169MOL0     C22699   4.503   4.286   0.584 -0.3002 -1.0343 -0.7899
  169MOL0     C22700   4.465   4.401   0.677 -0.5469 -1.1019  0.4161
  169MOL0     C22701   4.590   4.485   0.704 -0.3589 -0.0064 -0.9298
  169MOL0     C22702   4.575   4.632   0.673 -0.5098 -1.1862  0.1748
  169MOL0     C22703   4.706   4.712   0.694 -0.8690  0.1279  0.7304
  169MOL0     O22704   4.749   4.710   0.829 -0.0426 -0.8885 -0.2604
  169MOL0     C22705   4.869   4.772   0.853 -1.0141  0.5438  0.5594
  169MOL0     C22706   4.944   4.848   0.762 -0.5296  0.4859  0.1203
  169MOL0     C22707   5.079   4.877   0.797  0.1234  0.0824  1.0503
  169MOL0     C22708   5.129   4.836   0.926  0.6056  0.7041 -0.1306
  169MOL0     C22709   5.261   4.883   0.961 -0.6195  0.8305  0.9594
  169MOL0     O22710   5.338   4.941   0.869  0.4900 -0.5067  0.2284
  169MOL0     C22711   5.474   4.932   0.875 -0.7935 -0.2492  0.3557
  169MOL0     C22712   5.550   4.830   0.940  0.3487  0.0287 -0.4604
  169MOL0     C22713   5.685   4.824   0.934 -0.4669  0.1589  1.2463
  169MOL0     C22714   5.754   4.917   0.857  1.0617 -1.0046 -0.1057
  169MOL0     O22715   5.887   4.919   0.883  0.3696  0.6117  0.0766
  169MOL0     C22716   5.931   5.033   0.962  0.5009  0.9089 -0.0040
  169MOL0     C22717   5.882   5.014   1.100 -0.0607  0.1018  0.3653
  169MOL0     C22718   5.921   5.128   1.200  0.6687  0.5627  0.2103
  169MOL0     C22719   5.918   5.067   1.331 -0.6511 -0.7374  0.8270
  169MOL0     C22720   5.963   5.168   1.442 -0.2981 -0.1017  0.7193
  169MOL0     C22721   5.852   5.250   1.488  0.1006  0.4483  0.2450
  169MOL0     C22722   5.878   5.297   1.631 -0.0605 -0.0744 -0.4124
  169MOL0     C22723   5.751   5.368   1.678  0.4952  0.8448 -0.0114
  169MOL0    Cl22724   5.667   5.275   1.802 -0.0094  0.1099  0.3554
  169MOL0     C22725   5.689   5.017   0.789 -0.3164  0.1441  0.3288
  169MOL0     C22726   5.547   5.020   0.795  0.1026 -0.4494  0.4404
  169MOL0     O22727   5.297   4.850   1.074 -0.7692  0.5402 -0.1840
  169MOL0     C22728   5.049   4.757   1.020  0.2519  0.5146 -0.1806
  169MOL0     C22729   4.926   4.727   0.976  0.5625  0.5536  0.1228
  169MOL0     N22730   4.629   4.232   0.568  0.3245 -0.8552 -0.0981
  169MOL0     N22731   4.618   4.136   0.478  0.0152 -0.3331  0.1179
  169MOL0     C22732   4.466   3.019   0.718 -0.5313 -0.0190 -0.2493
  169MOL0     C22733   4.452   2.905   0.799  0.0462  0.9891  0.1751
  169MOL0     C22734   4.452   2.625   1.136 -0.6602 -0.6812 -0.7217
  169MOL0     C22735   4.451   2.659   1.274  0.2357  0.0782 -0.7750
  169MOL0     C22736   4.435   2.550   1.360 -0.0494  0.3672 -0.5503
  169MOL0     C22737   4.424   2.413   1.317 -0.1378  0.3221 -0.2865
  169MOL0     O22738   4.410   2.315   1.414  0.1004 -0.4294  0.1690
  169MOL0     C22739   4.413   2.179   1.354 -0.6610 -0.1710 -0.3841
  169MOL0     C22740   4.416   2.088   1.475 -0.1260 -0.7273 -0.2023
  169MOL0     C22741   4.544   2.102   1.559  0.7002  0.2000  0.2240
  169MOL0     C22742   4.548   1.986   1.658 -0.6476  0.4525  0.0357
  169MOL0     C22743   4.676   1.988   1.731 -0.2785  0.6466 -0.2865
  169MOL0     C22744   4.780   2.009   1.797  0.5439  0.0069 -0.6336
  169MOL0     C22745   4.432   2.383   1.173 -0.1910 -0.3535 -1.4369
  169MOL0     C22746   4.442   2.489   1.087 -0.1548  0.3044 -0.2097
  169MOL0     C22747   4.464   2.454   0.937  0.7685 -0.5233  0.1019
  169MOL0     H22748   4.767   2.812   0.846  1.0820  0.4504  1.4422
  169MOL0     H22749   4.807   3.024   0.717  1.4093  1.1164  3.5887
  169MOL0     H22750   4.745   3.311   0.650  0.1341  0.3589 -0.9775
  169MOL0     H22751   4.779   3.169   0.525 -3.2784 -1.0589 -1.5203
  169MOL0     H22752   4.673   3.275   0.366  1.9324  0.1706 -0.6153
  169MOL0     H22753   4.760   3.412   0.438  0.8759 -0.9790 -0.3488
  169MOL0     H22754   4.555   3.456   0.586  3.5470 -4.3412  1.1359
  169MOL0     H22755   4.463   3.367   0.469 -0.7303  0.7307 -0.5713
  169MOL0     H22756   4.603   3.643   0.436 -0.7232  1.2636 -0.1201
  169MOL0     H22757   4.536   3.550   0.299  2.7400 -0.0484  0.5028
  169MOL0     H22758   4.304   3.562   0.402  1.5931 -2.0305  1.5658
  169MOL0     H22759   4.365   3.623   0.547 -1.9632 -1.7392 -0.8321
  169MOL0     H22760   4.418   3.749   0.275  2.4873  2.8281  1.1052
  169MOL0     H22761   4.272   3.798   0.374 -0.5399 -0.5617 -0.7433
  169MOL0     H22762   4.551   3.868   0.458  1.2197  2.9422  0.6344
  169MOL0     H22763   4.411   3.893   0.539  2.7694 -0.8859  0.2040
  169MOL0     H22764   4.481   3.998   0.270  1.9301 -0.6714  0.7018
  169MOL0     H22765   4.320   4.048   0.352  0.6971  1.5746  1.2596
  169MOL0     H22766   4.302   4.229   0.520 -0.5854  0.8035 -0.5511
  169MOL0     H22767   4.384   4.461   0.633 -0.3402 -1.6988 -0.8216
  169MOL0     H22768   4.430   4.353   0.769 -3.8325 -3.3532 -1.7970
  169MOL0     H22769   4.620   4.471   0.808 -0.0920 -3.3921 -1.3502
  169MOL0     H22770   4.679   4.451   0.650 -0.8268 -0.0441 -1.6915
  169MOL0     H22771   4.490   4.668   0.732 -1.1103  3.0361 -2.8556
  169MOL0     H22772   4.534   4.646   0.573  0.2977 -0.3364 -0.0482
  169MOL0     H22773   4.692   4.816   0.665  2.1159  0.1053 -1.3151
  169MOL0     H22774   4.783   4.663   0.633  0.4007  1.8039  0.9086
  169MOL0     H22775   4.922   4.872   0.659 -1.0515  0.4853  0.2319
  169MOL0     H22776   5.136   4.933   0.724 -2.3280  0.1285 -0.9746
  169MOL0     H22777   5.498   4.762   1.007  0.0014  1.4289  0.7552
  169MOL0     H22778   5.732   4.742   0.987 -0.9090 -0.4163  0.7654
  169MOL0     H22779   6.041   5.035   0.964  0.5331  4.0145 -0.0480
  169MOL0     H22780   5.895   5.125   0.915 -0.9588  1.4204  1.9970
  169MOL0     H22781   5.773   5.018   1.088 -0.3065  1.4630  2.5506
  169MOL0     H22782   5.923   4.921   1.140 -0.4311 -0.5172 -0.6420
  169MOL0     H22783   6.016   5.178   1.178  0.8703 -0.0739 -0.3938
  169MOL0     H22784   5.840   5.200   1.214  1.4878  1.1350  2.3590
  169MOL0     H22785   5.978   4.976   1.330  2.5380  1.2200  0.2173
  169MOL0     H22786   5.821   5.028   1.362 -1.0911  0.8841  1.6559
  169MOL0     H22787   6.047   5.233   1.415 -1.2894  0.9896  0.1524
  169MOL0     H22788   6.007   5.111   1.525  3.9995 -0.0007 -1.2031
  169MOL0     H22789   5.843   5.340   1.427 -0.7934 -0.1123 -0.4898
  169MOL0     H22790   5.764   5.185   1.500  0.5494 -0.2307 -0.1351
  169MOL0     H22791   5.967   5.358   1.648 -1.9492  1.9886  3.4370
  169MOL0     H22792   5.890   5.213   1.699  0.7216 -0.7572 -1.3659
  169MOL0     H22793   5.801   5.448   1.733  0.1802  0.1512  1.3206
  169MOL0     H22794   5.673   5.397   1.608 -0.3407  1.4614  1.1477
  169MOL0     H22795   5.744   5.097   0.740 -1.6432  1.0942  0.3473
  169MOL0     H22796   5.499   5.102   0.742 -1.7994 -1.7885 -0.0023
  169MOL0     H22797   5.079   4.731   1.121  0.7162  0.6637 -0.2766
  169MOL0     H22798   4.859   4.675   1.044 -0.7391  2.8582  0.7175
  169MOL0     H22799   4.383   3.078   0.679  0.7506  0.7154 -1.9937
  169MOL0     H22800   4.354   2.878   0.838  1.0426 -0.0194  2.1513
  169MOL0     H22801   4.473   2.756   1.316  2.5218  0.3772 -2.4697
  169MOL0     H22802   4.435   2.559   1.468 -6.0399 -1.6630 -0.0184
  169MOL0     H22803   4.509   2.185   1.301 -2.4431  0.9044 -3.7918
  169MOL0     H22804   4.331   2.150   1.287  0.9851 -2.8645 -1.3955
  169MOL0     H22805   4.412   1.987   1.433  2.4640 -0.7772 -0.4657
  169MOL0     H22806   4.331   2.102   1.543 -0.7976 -3.5332 -0.3735
  169MOL0     H22807   4.544   2.197   1.612  3.5113  0.3941  0.0491
  169MOL0     H22808   4.625   2.103   1.486  1.9168  0.1449  1.5150
  169MOL0     H22809   4.456   1.990   1.718 -0.8913  0.8836 -0.3587
  169MOL0     H22810   4.563   1.895   1.598  2.5820  1.3095 -0.6316
  169MOL0     H22811   4.863   2.032   1.860  0.4884  0.7097 -0.8051
  169MOL0     H22812   4.444   2.282   1.136 -0.7193 -0.6364 -0.8509
  169MOL0     H22813   4.426   2.356   0.906  1.0343 -1.4944  2.6615
  169MOL0     H22814   4.412   2.523   0.870 -0.5308  0.1114  1.6948
  169MOL0     H22815   4.572   2.451   0.917  0.7054  0.0821 -0.3500
  170MOL0     O22816   2.955   4.452   1.080  0.3621 -0.3882 -0.4303
  170MOL0     C22817   2.891   4.446   1.185  0.3148 -0.1104 -0.2697
  170MOL0     O22818   2.860   4.551   1.269 -0.5258  0.0846 -0.0782
  170MOL0     C22819   2.880   4.677   1.222  1.3219  0.2360 -0.9276
  170MOL0     C22820   2.839   4.719   1.095 -0.4894 -0.2019  0.0682
  170MOL0     C22821   2.866   4.854   1.062  0.4763  0.1830  0.8722
  170MOL0     C22822   2.910   4.950   1.158 -0.0880 -0.2972 -0.3441
  170MOL0     O22823   2.940   5.075   1.119 -0.3287 -0.4376 -0.7459
  170MOL0     C22824   3.029   5.156   1.199 -0.5139 -0.5792  0.3710
  170MOL0     C22825   3.156   5.197   1.122 -0.2178  0.2298 -0.5054
  170MOL0     C22826   3.248   5.282   1.194 -0.7562  0.2856 -0.0236
  170MOL0     C22827   3.383   5.289   1.140 -0.9580  0.3133 -0.1292
  170MOL0     C22828   3.465   5.385   1.222  0.4905  0.5914 -0.0007
  170MOL0     C22829   3.488   5.320   1.360  0.9247  0.5513  0.2894
  170MOL0     C22830   3.613   5.373   1.434 -1.0883 -0.8373 -0.4140
  170MOL0     C22831   3.607   5.406   1.584  0.3082  0.8822  0.1047
  170MOL0     N22832   3.572   5.301   1.682 -0.0900  0.3913 -0.1262
  170MOL0     C22833   3.658   5.197   1.708  0.2808  0.4328  0.7464
  170MOL0     C22834   3.595   5.107   1.782  0.5728  0.5905 -0.0507
  170MOL0     C22835   3.660   4.974   1.813 -0.4451  0.0830  0.4147
  170MOL0     C22836   3.702   4.962   1.961 -0.3065  0.6528 -0.9081
  170MOL0     C22837   3.772   4.821   1.976  0.6205  0.4352 -0.2673
  170MOL0     C22838   3.804   4.778   2.118 -0.0624 -0.1344  0.5568
  170MOL0     O22839   3.681   4.789   2.194  0.0967 -0.2636 -0.6885
  170MOL0     C22840   3.597   4.684   2.203 -0.6947 -0.2899  0.9368
  170MOL0     C22841   3.600   4.568   2.133 -0.5200  0.5945 -0.7062
  170MOL0     C22842   3.514   4.462   2.161 -0.1125  0.3928  0.4484
  170MOL0     C22843   3.411   4.476   2.258 -0.0047 -0.9795  0.2668
  170MOL0     C22844   3.326   4.360   2.300  0.6273  0.1386  0.0607
  170MOL0     O22845   3.248   4.374   2.413  0.0187  0.8630  0.3419
  170MOL0     C22846   3.178   4.254   2.452  0.4284  0.6361 -0.3475
  170MOL0     C22847   3.247   4.144   2.510  0.3626 -0.4101  0.1807
  170MOL0     C22848   3.177   4.034   2.564  0.1953 -0.0769  0.3672
  170MOL0     C22849   3.042   4.029   2.568 -0.0978 -0.2455  0.0131
  170MOL0     O22850   2.986   3.911   2.604  0.5578 -0.5491 -0.1850
  170MOL0     C22851   2.858   3.916   2.675  0.4079 -0.3212  0.0822
  170MOL0     C22852   2.883   3.824   2.790 -0.3839  0.4807 -0.1996
  170MOL0     C22853   2.858   3.676   2.775  0.5470  0.5465 -0.7506
  170MOL0     C22854   2.924   3.585   2.884 -0.5230  0.6915  0.1324
  170MOL0     C22855   2.865   3.442   2.868 -0.0291  0.1689 -0.3656
  170MOL0     C22856   2.889   3.330   2.966  0.4391 -0.4655  0.0930
  170MOL0     C22857   2.897   3.377   3.108 -0.5331  0.6483  0.8930
  170MOL0     C22858   2.892   3.254   3.210 -0.7657 -0.3797  0.2262
  170MOL0    Cl22859   3.066   3.193   3.232 -0.1771  0.3266 -0.0747
  170MOL0     C22860   2.971   4.147   2.519  1.1505  0.5009 -0.5928
  170MOL0     C22861   3.040   4.251   2.476 -0.5947 -0.5249 -0.0524
  170MOL0     O22862   3.301   4.274   2.209 -0.8241  0.1974  0.0814
  170MOL0     C22863   3.399   4.599   2.320  0.0640 -1.0581  0.4936
  170MOL0     C22864   3.491   4.703   2.290  1.3294 -0.3172 -0.4733
  170MOL0     N22865   3.475   5.155   1.810  0.9308 -0.0186  0.4650
  170MOL0     N22866   3.457   5.266   1.741 -1.1767 -0.2592  0.0816
  170MOL0     C22867   2.926   4.907   1.289  0.2276  0.1400 -0.2978
  170MOL0     C22868   2.912   4.771   1.322 -0.9607  0.2052  0.8815
  170MOL0     C22869   2.835   4.317   1.236 -0.0004 -0.6449 -1.1749
  170MOL0     C22870   2.784   4.226   1.147 -0.1368 -1.5640  0.4762
  170MOL0     C22871   2.731   4.101   1.172 -0.8154 -0.4616 -0.0869
  170MOL0     C22872   2.723   4.060   1.304  0.4195 -0.2140 -0.1232
  170MOL0     O22873   2.677   3.938   1.324 -0.5626  0.0750 -0.3207
  170MOL0     C22874   2.667   3.882   1.462  0.2242  0.1037  0.5817
  170MOL0     C22875   2.634   3.732   1.465  0.2863 -0.5865  0.6126
  170MOL0     C22876   2.741   3.638   1.403  1.1115 -0.1388  0.2978
  170MOL0     C22877   2.699   3.487   1.421  0.9094 -0.2250 -0.1366
  170MOL0     C22878   2.554   3.462   1.428 -0.2622  0.6841  0.7997
  170MOL0     C22879   2.438   3.441   1.445 -0.6066 -0.3011 -0.2681
  170MOL0     C22880   2.767   4.151   1.402  0.6558  0.6719 -0.0185
  170MOL0     C22881   2.829   4.276   1.374 -0.3306  1.1446 -0.1315
  170MOL0     C22882   2.908   4.330   1.488  0.1799 -0.2456 -1.8291
  170MOL0     H22883   2.799   4.643   1.029 -0.5636 -1.2502  1.2941
  170MOL0     H22884   2.848   4.898   0.964  0.3436  1.1479  1.3156
  170MOL0     H22885   2.967   5.240   1.232  2.2546  2.1044 -0.7658
  170MOL0     H22886   3.059   5.104   1.291  0.5057  1.4013  1.2020
  170MOL0     H22887   3.119   5.243   1.030 -2.4851 -2.1550 -0.9079
  170MOL0     H22888   3.207   5.102   1.101 -0.3552 -0.5922  2.4751
  170MOL0     H22889   3.252   5.247   1.297  0.7572  1.3683  0.3200
  170MOL0     H22890   3.206   5.382   1.177 -1.2551  0.4533  1.9960
  170MOL0     H22891   3.425   5.188   1.140 -2.5249 -0.4085 -2.1725
  170MOL0     H22892   3.385   5.324   1.037 -1.0822 -0.1316 -0.2880
  170MOL0     H22893   3.569   5.380   1.188  1.0532  0.8194  1.6132
  170MOL0     H22894   3.416   5.482   1.231 -5.7282 -2.2376  2.7021
  170MOL0     H22895   3.404   5.347   1.425  0.3001 -3.9554  1.7017
  170MOL0     H22896   3.477   5.212   1.348  0.6666  0.6485 -0.4090
  170MOL0     H22897   3.628   5.474   1.397 -0.9783 -0.4638  0.6253
  170MOL0     H22898   3.689   5.301   1.403  1.9143  2.2185 -0.7131
  170MOL0     H22899   3.702   5.448   1.618 -0.2837  3.1501 -0.8700
  170MOL0     H22900   3.528   5.479   1.604 -0.9991 -0.9677  2.3550
  170MOL0     H22901   3.762   5.179   1.681  0.6391  0.3690  2.1107
  170MOL0     H22902   3.591   4.896   1.779 -0.1871  0.3211 -0.6715
  170MOL0     H22903   3.746   4.958   1.748  0.0341 -1.6974  1.4170
  170MOL0     H22904   3.768   5.041   1.997 -0.5718  0.5072 -0.0669
  170MOL0     H22905   3.613   4.958   2.024 -1.1216 -5.5653 -1.7855
  170MOL0     H22906   3.860   4.825   1.911 -0.5103  0.7853 -1.8496
  170MOL0     H22907   3.696   4.750   1.941 -0.5675  1.5062  0.0571
  170MOL0     H22908   3.887   4.837   2.158 -0.0917 -0.1652  0.6660
  170MOL0     H22909   3.839   4.674   2.121 -1.5565 -0.6571  1.3439
  170MOL0     H22910   3.673   4.548   2.055 -0.3544 -0.5079 -0.2862
  170MOL0     H22911   3.527   4.364   2.117 -0.5838  0.3130  0.4756
  170MOL0     H22912   3.352   4.117   2.503  0.2124 -0.6917 -1.4021
  170MOL0     H22913   3.234   3.958   2.615  2.5916  1.5390  0.2735
  170MOL0     H22914   2.832   4.017   2.711  1.7360 -0.5004  1.6600
  170MOL0     H22915   2.772   3.885   2.615 -0.3608  0.2031  0.8937
  170MOL0     H22916   2.991   3.821   2.806  0.0538  0.4387 -2.7780
  170MOL0     H22917   2.841   3.868   2.881  1.2497  0.7152  0.4798
  170MOL0     H22918   2.752   3.653   2.783  1.3245 -2.7232  3.1596
  170MOL0     H22919   2.898   3.654   2.675  2.3439  2.7464 -0.5924
  170MOL0     H22920   2.894   3.609   2.986  1.4807 -1.2661  1.2700
  170MOL0     H22921   3.033   3.593   2.882 -0.3141  0.9748  4.2542
  170MOL0     H22922   2.887   3.402   2.768 -5.4356 -2.6473 -0.7846
  170MOL0     H22923   2.757   3.455   2.863  0.2187  2.0192 -1.9618
  170MOL0     H22924   2.798   3.273   2.945  0.1837  0.0856 -0.3209
  170MOL0     H22925   2.976   3.272   2.932 -0.7210 -1.3056 -1.5990
  170MOL0     H22926   2.800   3.427   3.116 -3.0228 -3.7276  1.0340
  170MOL0     H22927   2.980   3.447   3.121  0.6507 -0.1575 -1.5929
  170MOL0     H22928   2.848   3.288   3.304 -0.7638  3.0408 -0.8590
  170MOL0     H22929   2.841   3.167   3.167  1.9357 -0.6380 -2.8912
  170MOL0     H22930   2.862   4.149   2.524  1.1698  0.8926 -0.2540
  170MOL0     H22931   2.990   4.342   2.444  1.2154 -0.1141 -1.9917
  170MOL0     H22932   3.317   4.607   2.391  1.7279  2.6342  2.2535
  170MOL0     H22933   3.466   4.801   2.330 -2.2680 -1.4409  0.3787
  170MOL0     H22934   2.929   4.973   1.375  1.9625  0.8199 -0.8286
  170MOL0     H22935   2.927   4.739   1.424 -2.7726 -0.6348  0.9228
  170MOL0     H22936   2.766   4.271   1.050  0.4730 -1.0769  0.5810
  170MOL0     H22937   2.687   4.036   1.097  1.3084 -2.1356  0.0243
  170MOL0     H22938   2.589   3.924   1.527  0.5406 -1.3701  1.9577
  170MOL0     H22939   2.764   3.893   1.510  0.2434 -0.7059  0.7355
  170MOL0     H22940   2.549   3.730   1.396 -0.0741  1.5240  0.9143
  170MOL0     H22941   2.595   3.691   1.558 -1.0696 -3.0667 -0.9281
  170MOL0     H22942   2.838   3.651   1.453  2.5526  5.2835 -3.0576
  170MOL0     H22943   2.760   3.670   1.300  1.1228  1.7309  0.8424
  170MOL0     H22944   2.748   3.441   1.335  0.2104  0.0172 -0.6760
  170MOL0     H22945   2.753   3.450   1.508 -1.0152  0.7085  1.5356
  170MOL0     H22946   2.336   3.406   1.447  0.0758 -2.5326  3.1166
  170MOL0     H22947   2.768   4.126   1.507  2.3040 -0.2986 -0.2286
  170MOL0     H22948   2.859   4.428   1.500 -0.6567 -0.9016  0.7630
  170MOL0     H22949   2.890   4.274   1.580 -0.1955  3.1937  0.4076
  170MOL0     H22950   3.015   4.337   1.464  1.4737 -1.7499  2.5929
  171MOL0     O22951   0.174   3.006   1.708  0.0546  0.3288 -0.2205
  171MOL0     C22952   0.176   3.066   1.821 -0.1297  0.3644  0.6776
  171MOL0     O22953   0.099   3.027   1.928  0.3548  0.8741 -0.0122
  171MOL0     C22954   0.016   2.917   1.902 -0.0905  0.0136 -0.3167
  171MOL0     C22955  -0.081   2.917   1.808  0.7879  0.7910  0.9308
  171MOL0     C22956  -0.149   2.802   1.760 -0.1739 -0.1880  0.2181
  171MOL0     C22957  -0.128   2.686   1.834 -0.8650 -0.0491 -0.4801
  171MOL0     O22958  -0.208   2.576   1.803 -1.8250  0.1833  0.0778
  171MOL0     C22959  -0.201   2.536   1.665 -0.6188  0.3296 -0.4156
  171MOL0     C22960  -0.193   2.383   1.669  0.1491  0.2911  0.2047
  171MOL0     C22961  -0.073   2.329   1.743 -0.3497  0.7351 -0.8024
  171MOL0     C22962  -0.090   2.181   1.772  0.5466 -0.5365 -0.4208
  171MOL0     C22963   0.025   2.118   1.853 -0.0527  0.0114 -0.9131
  171MOL0     C22964   0.044   1.964   1.837  0.6145 -0.7370  0.0659
  171MOL0     C22965  -0.074   1.893   1.902  0.6601  0.1727 -0.7576
  171MOL0     C22966  -0.058   1.740   1.929  0.6342  0.2777  0.1922
  171MOL0     N22967  -0.192   1.678   1.966 -0.0579 -0.1618  0.5844
  171MOL0     C22968  -0.223   1.636   2.095  0.0185 -0.8303  0.6235
  171MOL0     C22969  -0.316   1.542   2.078  0.4557 -0.2400 -0.5603
  171MOL0     C22970  -0.358   1.438   2.176  0.1486 -0.6213  0.5257
  171MOL0     C22971  -0.262   1.394   2.284 -0.9269  0.1564 -0.2781
  171MOL0     C22972  -0.280   1.442   2.428 -0.6458 -0.3778  0.5508
  171MOL0     C22973  -0.241   1.583   2.470  1.1496 -0.1969 -0.6266
  171MOL0     O22974  -0.296   1.675   2.378  0.6694 -0.3891 -0.0665
  171MOL0     C22975  -0.267   1.805   2.402 -1.3779  0.1115  0.6479
  171MOL0     C22976  -0.333   1.898   2.327 -0.5443  0.2968 -0.1581
  171MOL0     C22977  -0.315   2.036   2.325  0.8160 -0.2341  0.3061
  171MOL0     C22978  -0.227   2.085   2.424 -0.3440 -0.5570  0.0485
  171MOL0     C22979  -0.199   2.231   2.425 -0.6796  0.1744 -0.4217
  171MOL0     O22980  -0.250   2.302   2.319  0.4805 -0.2956  0.1549
  171MOL0     C22981  -0.225   2.427   2.315 -0.7525 -0.4648 -0.3273
  171MOL0     C22982  -0.098   2.476   2.310 -0.4477 -0.3963  0.7202
  171MOL0     C22983  -0.083   2.622   2.293 -0.1264 -0.3884  0.5471
  171MOL0     C22984  -0.197   2.706   2.300 -0.8163  0.0966 -0.1881
  171MOL0     O22985  -0.184   2.841   2.301 -0.8869  0.5422 -0.7782
  171MOL0     C22986  -0.066   2.897   2.367  0.1637  0.1842 -0.3716
  171MOL0     C22987  -0.102   3.023   2.455 -0.6357  0.5422  0.0580
  171MOL0     C22988  -0.157   3.137   2.363 -0.5938  0.3148 -0.0580
  171MOL0     C22989  -0.085   3.265   2.411 -0.1679  0.6316 -0.1442
  171MOL0     C22990   0.055   3.274   2.356 -0.6192  0.5914 -0.1115
  171MOL0     C22991   0.111   3.396   2.432 -0.1743  1.6047 -0.2730
  171MOL0     C22992   0.256   3.404   2.425 -0.5867  0.4898  0.2667
  171MOL0     C22993   0.315   3.533   2.472 -0.3960 -0.2519  0.5177
  171MOL0    Cl22994   0.277   3.658   2.356 -0.2211  0.0580 -0.2060
  171MOL0     C22995  -0.323   2.645   2.295 -0.5811  0.3824 -0.3180
  171MOL0     C22996  -0.337   2.509   2.304 -0.1437  0.7682 -0.0878
  171MOL0     O22997  -0.140   2.281   2.527 -0.5955 -0.2122  0.4784
  171MOL0     C22998  -0.162   1.996   2.515 -0.2426  0.5150  0.9266
  171MOL0     C22999  -0.175   1.861   2.499  0.1848 -0.6496  0.3637
  171MOL0     N23000  -0.359   1.537   1.943  0.5169  0.8207 -0.4018
  171MOL0     N23001  -0.268   1.604   1.875 -0.0256  0.6567 -0.6347
  171MOL0     C23002  -0.039   2.688   1.948 -0.9848 -0.6694 -0.1520
  171MOL0     C23003   0.047   2.799   1.968  0.4769 -0.4118  0.0155
  171MOL0     C23004   0.266   3.192   1.846  0.2022  0.0291 -0.8579
  171MOL0     C23005   0.232   3.283   1.955  0.3210  0.7049  0.1224
  171MOL0     C23006   0.295   3.409   1.974 -0.1036  0.3234  0.4067
  171MOL0     C23007   0.418   3.434   1.904 -0.4898  0.2260  0.2208
  171MOL0     O23008   0.498   3.540   1.940 -0.8244 -0.5238  0.3576
  171MOL0     C23009   0.596   3.501   2.038 -0.4134  0.0665  0.0054
  171MOL0     C23010   0.706   3.613   2.068 -0.4253  0.5239 -0.2598
  171MOL0     C23011   0.764   3.564   2.194 -0.7908  0.3888  0.6530
  171MOL0     C23012   0.848   3.430   2.170 -0.1883  0.2880 -0.4676
  171MOL0     C23013   0.922   3.400   2.297 -1.2429 -0.3666  0.0846
  171MOL0     C23014   0.987   3.352   2.385 -0.7410  0.3311  0.4884
  171MOL0     C23015   0.452   3.339   1.813 -0.2664  0.3031  0.8825
  171MOL0     C23016   0.380   3.226   1.773 -0.0429 -0.3774 -0.1435
  171MOL0     C23017   0.437   3.136   1.666  0.7494 -0.4421  1.3741
  171MOL0     H23018  -0.096   3.006   1.748 -2.8595  0.2509  0.8029
  171MOL0     H23019  -0.219   2.800   1.677  1.1681 -2.5939 -0.9827
  171MOL0     H23020  -0.283   2.584   1.610  0.4423  3.1994  0.3012
  171MOL0     H23021  -0.103   2.567   1.628 -0.5874  1.9650  0.8778
  171MOL0     H23022  -0.180   2.352   1.565 -0.7105 -2.3932  0.8159
  171MOL0     H23023  -0.284   2.343   1.714  0.3574  0.1801  0.5303
  171MOL0     H23024  -0.054   2.380   1.837 -0.0203  1.0582 -1.0400
  171MOL0     H23025   0.022   2.358   1.696 -0.0099  0.9832  0.0154
  171MOL0     H23026  -0.182   2.161   1.828  2.9233  0.0511  4.1610
  171MOL0     H23027  -0.098   2.135   1.672  1.6497  0.1136 -0.8244
  171MOL0     H23028   0.115   2.162   1.809  1.2659 -0.3524  1.2714
  171MOL0     H23029   0.030   2.145   1.959 -0.2946  2.6520 -1.4925
  171MOL0     H23030   0.052   1.935   1.731 -0.7260  0.7052 -0.4623
  171MOL0     H23031   0.131   1.927   1.893 -0.1152 -0.7049  1.2356
  171MOL0     H23032  -0.166   1.901   1.843 -1.2162 -0.1053  1.9256
  171MOL0     H23033  -0.105   1.946   1.992 -2.3411  0.2155 -1.6868
  171MOL0     H23034  -0.019   1.695   1.838 -2.4176  1.0805 -1.6776
  171MOL0     H23035   0.005   1.712   2.014 -0.5184 -2.4781  0.2467
  171MOL0     H23036  -0.163   1.640   2.186  0.1250  0.0846  0.5193
  171MOL0     H23037  -0.445   1.481   2.227  0.6852  0.3100  0.6646
  171MOL0     H23038  -0.400   1.347   2.131 -1.9781  0.1185  0.9168
  171MOL0     H23039  -0.266   1.285   2.280 -0.1795  0.0593  1.1717
  171MOL0     H23040  -0.159   1.416   2.254 -0.2296 -0.1454  1.7375
  171MOL0     H23041  -0.218   1.380   2.494 -1.8679 -1.5167  0.6633
  171MOL0     H23042  -0.388   1.438   2.442 -0.4910  0.1495  2.0915
  171MOL0     H23043  -0.132   1.595   2.478  1.3869 -0.1509 -2.9975
  171MOL0     H23044  -0.297   1.599   2.562  0.7929  1.3197 -1.0836
  171MOL0     H23045  -0.399   1.885   2.242  0.9232 -1.0952 -1.1455
  171MOL0     H23046  -0.362   2.104   2.254  0.5134 -1.9792 -1.2301
  171MOL0     H23047  -0.023   2.398   2.320 -1.9777 -2.4444 -2.3043
  171MOL0     H23048   0.015   2.663   2.272 -2.0635  3.4995 -2.1846
  171MOL0     H23049  -0.015   2.827   2.433  1.2721  2.7161  1.5688
  171MOL0     H23050   0.012   2.928   2.297  1.9651  1.1736  1.9544
  171MOL0     H23051  -0.175   2.990   2.530 -0.2719  0.3165  0.3192
  171MOL0     H23052  -0.015   3.045   2.517 -0.5800 -1.5995  0.8076
  171MOL0     H23053  -0.136   3.123   2.257 -3.1351 -2.1873 -0.3258
  171MOL0     H23054  -0.265   3.146   2.375 -0.1811  2.6919  3.6549
  171MOL0     H23055  -0.098   3.278   2.519  0.5198 -1.0822  0.1684
  171MOL0     H23056  -0.146   3.347   2.372 -1.6131  0.5928  1.8772
  171MOL0     H23057   0.055   3.282   2.247 -1.4744  0.6576 -0.1146
  171MOL0     H23058   0.113   3.189   2.394  2.2686  3.4860  2.7412
  171MOL0     H23059   0.070   3.485   2.385  0.2669  1.5599 -0.7490
  171MOL0     H23060   0.081   3.380   2.536 -0.5871 -0.6529 -0.6719
  171MOL0     H23061   0.279   3.391   2.319 -2.1228  1.4235 -0.2113
  171MOL0     H23062   0.308   3.329   2.486 -0.3869  1.1368  0.9094
  171MOL0     H23063   0.272   3.555   2.571  0.0948 -1.6913  1.0835
  171MOL0     H23064   0.423   3.531   2.486 -0.3601 -0.4876  0.2100
  171MOL0     H23065  -0.409   2.711   2.286 -1.7890 -1.3714 -2.6145
  171MOL0     H23066  -0.434   2.462   2.317 -1.1702  2.4639 -1.2142
  171MOL0     H23067  -0.087   2.021   2.590 -0.4874  1.7436  0.7953
  171MOL0     H23068  -0.108   1.800   2.558  1.7525  0.0627 -0.6090
  171MOL0     H23069  -0.030   2.604   2.017 -0.7779 -1.1589 -0.7666
  171MOL0     H23070   0.125   2.819   2.042 -1.6729  1.4923  1.9364
  171MOL0     H23071   0.158   3.268   2.034  0.3546 -2.6066 -0.3393
  171MOL0     H23072   0.262   3.482   2.047 -0.6066  0.2485  0.2533
  171MOL0     H23073   0.639   3.408   1.998 -2.3402 -0.7267 -0.2944
  171MOL0     H23074   0.546   3.473   2.131 -0.9036 -0.6357 -0.4614
  171MOL0     H23075   0.662   3.713   2.080 -1.3633 -0.0390  1.2692
  171MOL0     H23076   0.780   3.621   1.988  1.1781  0.7359  1.1921
  171MOL0     H23077   0.692   3.553   2.275  1.4743 -2.9411  2.4614
  171MOL0     H23078   0.837   3.635   2.233  0.6356 -0.5341 -0.2171
  171MOL0     H23079   0.793   3.344   2.130 -2.5239  0.0544  2.7837
  171MOL0     H23080   0.924   3.459   2.097  2.0063 -2.5792  0.4707
  171MOL0     H23081   1.045   3.305   2.462  0.2078 -1.5551 -1.2761
  171MOL0     H23082   0.541   3.357   1.753 -0.3391 -3.1044 -0.4971
  171MOL0     H23083   0.538   3.168   1.636 -0.2423  0.1303 -1.6261
  171MOL0     H23084   0.435   3.027   1.674  1.1450 -0.4831  0.9813
  171MOL0     H23085   0.369   3.155   1.583  4.4449  4.6603 -1.0332
  172MOL0     O23086  11.213  10.227   7.879  0.2062 -0.3458 -0.3694
  172MOL0     C23087  11.134  10.289   7.951 -0.3619  0.6197  0.8320
  172MOL0     O23088  11.065  10.244   8.052 -0.3000 -0.1203  0.0404
  172MOL0     C23089  11.066  10.115   8.101 -0.6162  0.6101 -0.1915
  172MOL0     C23090  10.965  10.082   8.189  0.1967 -0.7902 -0.4783
  172MOL0     C23091  10.959   9.955   8.258 -0.1572  0.5929 -0.3421
  172MOL0     C23092  11.059   9.863   8.234 -0.4825 -0.0990 -0.1065
  172MOL0     O23093  11.076   9.750   8.309 -0.5104 -0.3443  0.5220
  172MOL0     C23094  10.992   9.637   8.277  0.1293 -0.8491  0.7274
  172MOL0     C23095  10.966   9.560   8.410  0.6775  0.7743 -0.1095
  172MOL0     C23096  10.825   9.489   8.399  0.4201  0.2215  0.9341
  172MOL0     C23097  10.827   9.363   8.307  0.3386  0.7470  0.1347
  172MOL0     C23098  10.692   9.320   8.255 -1.0761  0.1953 -0.0524
  172MOL0     C23099  10.630   9.419   8.166 -0.2963  0.0118 -0.0338
  172MOL0     C23100  10.522   9.352   8.089 -0.2635  0.1650  0.2564
  172MOL0     C23101  10.473   9.437   7.976 -1.0294  0.0323 -0.0242
  172MOL0     N23102  10.381   9.369   7.896 -0.0778  0.4273  0.2006
  172MOL0     C23103  10.406   9.303   7.776 -0.7856  0.2640 -0.3162
  172MOL0     C23104  10.287   9.251   7.736 -0.1239  0.7178  0.0244
  172MOL0     C23105  10.250   9.201   7.598  0.3314  0.1700  0.1101
  172MOL0     C23106  10.128   9.110   7.592  0.8778  0.0482  0.1227
  172MOL0     C23107  10.127   9.014   7.465  0.0485 -0.3094  0.0029
  172MOL0     C23108  10.009   8.908   7.451 -0.6515  0.1757 -0.0340
  172MOL0     O23109   9.899   8.974   7.381 -0.2572  1.2459 -1.5512
  172MOL0     C23110   9.892   8.998   7.246  0.2146  0.2339 -1.2270
  172MOL0     C23111   9.979   8.965   7.146  0.4437 -0.2144 -0.1071
  172MOL0     C23112   9.967   9.014   7.021 -0.3396 -0.4108  1.2418
  172MOL0     C23113   9.867   9.097   6.977 -0.6867  0.3098  0.1190
  172MOL0     C23114   9.871   9.175   6.849  0.5340 -0.6386  0.9037
  172MOL0     O23115   9.770   9.262   6.832  0.6060 -0.1878  0.8768
  172MOL0     C23116   9.762   9.322   6.709 -0.4370  0.3060 -0.2215
  172MOL0     C23117   9.784   9.456   6.694 -0.5082  0.9662  0.6044
  172MOL0     C23118   9.785   9.524   6.572  0.2983  0.7000  0.2978
  172MOL0     C23119   9.753   9.447   6.458 -0.9428 -0.1135 -0.1324
  172MOL0     O23120   9.725   9.501   6.333 -0.3757  0.2128 -0.1131
  172MOL0     C23121   9.798   9.619   6.299 -0.1820  0.7474 -0.4426
  172MOL0     C23122   9.752   9.675   6.165  0.4095  0.1941 -0.6467
  172MOL0     C23123   9.824   9.598   6.047 -0.4560 -0.1773  1.1818
  172MOL0     C23124   9.787   9.450   6.016  0.1813 -0.1809 -1.3758
  172MOL0     C23125   9.835   9.398   5.883 -0.3519 -0.7018 -1.1056
  172MOL0     C23126   9.806   9.254   5.865 -1.0898 -0.1938 -0.0728
  172MOL0     C23127   9.881   9.154   5.961  0.4364  0.1425 -0.8305
  172MOL0     C23128  10.037   9.166   5.948  0.0355 -0.6505 -0.0477
  172MOL0    Cl23129  10.095   9.168   5.771 -0.4361 -0.2674 -0.3562
  172MOL0     C23130   9.729   9.312   6.469 -0.1910  0.3282  0.2691
  172MOL0     C23131   9.728   9.241   6.597 -0.3727  0.1713 -0.3909
  172MOL0     O23132   9.954   9.149   6.760  0.7842 -0.7024 -0.0104
  172MOL0     C23133   9.778   9.134   7.082 -0.0662  0.4498  0.8942
  172MOL0     C23134   9.781   9.076   7.208  0.0467  0.6326 -0.1543
  172MOL0     N23135  10.193   9.289   7.828 -0.5325  0.4606 -1.2791
  172MOL0     N23136  10.245   9.360   7.919 -0.2121  0.9180  0.1916
  172MOL0     C23137  11.146   9.889   8.129  0.2893  0.4250  0.1417
  172MOL0     C23138  11.144  10.013   8.058  0.0924 -0.3175 -0.2083
  172MOL0     C23139  11.129  10.432   7.920 -0.1404 -0.1758 -0.0953
  172MOL0     C23140  11.069  10.522   8.022 -0.1762 -0.6624 -0.9212
  172MOL0     C23141  11.097  10.656   8.028  0.8609 -0.4885 -0.4488
  172MOL0     C23142  11.161  10.717   7.925 -0.1458 -0.4833 -0.1877
  172MOL0     O23143  11.182  10.847   7.954 -0.3763 -0.1377 -0.2446
  172MOL0     C23144  11.263  10.920   7.869 -0.3708  0.2451 -0.4060
  172MOL0     C23145  11.250  11.074   7.910  0.6930  0.3739  0.0440
  172MOL0     C23146  11.112  11.138   7.893  0.8207 -0.4112  0.0376
  172MOL0     C23147  11.045  11.141   7.761  0.5679 -0.1422  1.4379
  172MOL0     C23148  10.942  11.248   7.731 -0.5536 -0.0803  0.4019
  172MOL0     C23149  10.857  11.327   7.712  0.5197  0.0701 -0.0083
  172MOL0     C23150  11.193  10.643   7.808  0.1917  1.1940 -0.6965
  172MOL0     C23151  11.182  10.494   7.808 -0.3113  0.7036 -0.1530
  172MOL0     C23152  11.229  10.422   7.676  0.8291 -0.2191 -0.3979
  172MOL0     H23153  10.902  10.152   8.242  3.8164  0.1828  2.9361
  172MOL0     H23154  10.895   9.938   8.344 -1.3504 -1.2886 -1.5223
  172MOL0     H23155  10.901   9.682   8.238  0.7856  0.5584  0.7538
  172MOL0     H23156  11.033   9.571   8.200 -1.4348 -2.8233  1.4983
  172MOL0     H23157  10.964   9.627   8.497  0.1189  0.9394 -0.2419
  172MOL0     H23158  11.052   9.496   8.430  2.0568  3.3252  2.9670
  172MOL0     H23159  10.758   9.562   8.352  1.4697  1.1593  0.8515
  172MOL0     H23160  10.788   9.444   8.491  1.1824 -2.0325  0.2094
  172MOL0     H23161  10.888   9.375   8.218 -0.8982 -1.3506 -1.0706
  172MOL0     H23162  10.874   9.280   8.361  1.7494  0.1146 -1.9351
  172MOL0     H23163  10.727   9.228   8.208 -0.5430  0.9065 -1.0855
  172MOL0     H23164  10.616   9.297   8.330  1.2549 -0.0921  2.3587
  172MOL0     H23165  10.580   9.496   8.226 -2.2952 -0.8825 -0.4917
  172MOL0     H23166  10.705   9.465   8.100  1.3294  0.2439  1.8616
  172MOL0     H23167  10.446   9.317   8.159  2.4492 -3.4243  1.7657
  172MOL0     H23168  10.560   9.258   8.048 -3.4039  0.6574 -4.5359
  172MOL0     H23169  10.422   9.528   8.010  2.8487  2.0163  1.0501
  172MOL0     H23170  10.555   9.479   7.917  1.6806 -2.1411  1.9077
  172MOL0     H23171  10.499   9.303   7.719  0.2533 -0.3894  1.3266
  172MOL0     H23172  10.234   9.272   7.517 -2.4804 -0.3764  0.0955
  172MOL0     H23173  10.330   9.134   7.565 -2.1453 -3.3533  0.7022
  172MOL0     H23174  10.138   9.036   7.671 -1.5386 -1.3248 -0.7346
  172MOL0     H23175  10.026   9.148   7.604  0.4172 -1.3687  0.9668
  172MOL0     H23176  10.216   8.952   7.477 -0.5347 -1.0144  0.8726
  172MOL0     H23177  10.146   9.075   7.377  2.1729  0.5869  1.0186
  172MOL0     H23178   9.980   8.872   7.549  0.4112  2.1975  1.0956
  172MOL0     H23179  10.050   8.830   7.387 -0.1484  0.0448  0.4432
  172MOL0     H23180  10.073   8.918   7.174  0.0066 -1.8723 -1.2477
  172MOL0     H23181  10.056   9.002   6.960  0.5305  0.0433  2.3732
  172MOL0     H23182   9.806   9.501   6.790  0.8382  0.8218  0.3781
  172MOL0     H23183   9.801   9.631   6.571  1.7695  0.5617  2.7668
  172MOL0     H23184   9.781   9.706   6.363 -0.3705  1.7025 -1.7445
  172MOL0     H23185   9.905   9.595   6.297 -0.6884 -2.5860  2.2298
  172MOL0     H23186   9.646   9.647   6.157  0.6892 -1.6615  1.3309
  172MOL0     H23187   9.783   9.780   6.164 -0.3358  0.4481  0.5502
  172MOL0     H23188   9.802   9.643   5.950 -2.3591  2.5120  2.7030
  172MOL0     H23189   9.932   9.604   6.063 -0.0315  0.6819 -1.5835
  172MOL0     H23190   9.678   9.440   6.022 -0.0204  2.1173  1.1697
  172MOL0     H23191   9.831   9.393   6.099 -3.9628  0.4577  1.5890
  172MOL0     H23192   9.942   9.411   5.861  0.3789 -0.7467  2.0039
  172MOL0     H23193   9.771   9.448   5.810 -0.7855  0.2556 -0.0966
  172MOL0     H23194   9.700   9.235   5.879 -0.6815 -3.5984 -0.7848
  172MOL0     H23195   9.837   9.227   5.764  3.4963 -0.1752  1.0744
  172MOL0     H23196   9.857   9.052   5.928 -0.3581 -0.0438  0.2928
  172MOL0     H23197   9.856   9.173   6.065  0.6942  1.5609 -1.0092
  172MOL0     H23198  10.058   9.259   6.001 -0.9240 -1.3677  1.6739
  172MOL0     H23199  10.078   9.087   6.012 -0.2739 -1.4814 -0.8476
  172MOL0     H23200   9.726   9.253   6.378  1.6640  1.9603 -0.9470
  172MOL0     H23201   9.711   9.135   6.611  1.9257  0.1371  3.5475
  172MOL0     H23202   9.693   9.197   7.056 -2.2364 -2.3019  0.9043
  172MOL0     H23203   9.708   9.114   7.279  2.8627  2.9314  1.7564
  172MOL0     H23204  11.234   9.831   8.105 -0.5490 -0.7629 -0.1190
  172MOL0     H23205  11.214  10.022   7.976  2.0975 -0.3400  1.4156
  172MOL0     H23206  11.026  10.475   8.110  1.6905 -0.8212 -0.0393
  172MOL0     H23207  11.055  10.706   8.115  1.5998 -0.2762 -0.2055
  172MOL0     H23208  11.225  10.906   7.768 -4.1288  0.8015  0.7633
  172MOL0     H23209  11.370  10.895   7.873 -0.3602  0.2900 -0.4103
  172MOL0     H23210  11.329  11.133   7.862 -1.3338  2.8569 -0.3889
  172MOL0     H23211  11.287  11.071   8.013 -1.2400 -2.6552  0.8014
  172MOL0     H23212  11.121  11.243   7.923  2.5374 -0.6972  0.6165
  172MOL0     H23213  11.041  11.094   7.963 -1.3274  1.2839 -0.9492
  172MOL0     H23214  11.121  11.148   7.683 -1.2785 -0.0261 -0.4339
  172MOL0     H23215  10.994  11.044   7.761  0.0373  0.1333  1.8272
  172MOL0     H23216  10.780  11.398   7.685 -1.1057 -1.5718  0.1249
  172MOL0     H23217  11.236  10.696   7.724  2.3308  1.3889  0.4614
  172MOL0     H23218  11.318  10.361   7.693 -0.3381 -1.7892  0.3051
  172MOL0     H23219  11.148  10.352   7.657 -1.5353  2.0758  0.7019
  172MOL0     H23220  11.254  10.495   7.598  0.5827  0.5787  0.2482
  173MOL0     O23221   9.349   4.902   2.409  0.3525 -0.0683  0.8518
  173MOL0     C23222   9.249   4.937   2.470  0.2796  0.5683  0.3143
  173MOL0     O23223   9.245   5.024   2.588  0.1730  0.3014  0.3012
  173MOL0     C23224   9.346   5.114   2.598  0.1956 -0.8247 -1.1281
  173MOL0     C23225   9.447   5.088   2.689 -0.8894  0.7882  0.0797
  173MOL0     C23226   9.554   5.176   2.701  0.3413 -0.4792  0.0852
  173MOL0     C23227   9.546   5.300   2.630  0.4150 -0.2039 -0.4292
  173MOL0     O23228   9.653   5.390   2.652  0.2642  0.0051  0.1409
  173MOL0     C23229   9.648   5.530   2.610  0.5272  1.0986  0.2783
  173MOL0     C23230   9.753   5.611   2.683 -0.0298 -0.0444 -0.1998
  173MOL0     C23231   9.694   5.673   2.812  0.7047  0.4534  0.1076
  173MOL0     C23232   9.808   5.736   2.898  0.6341 -0.1169  0.4473
  173MOL0     C23233   9.940   5.648   2.907  0.5931 -0.1999  0.0922
  173MOL0     C23234  10.044   5.713   2.996  0.0695 -1.2883  0.1515
  173MOL0     C23235  10.163   5.766   2.911  0.5428 -0.9189 -0.5607
  173MOL0     C23236  10.297   5.761   2.990 -0.0457  0.1792  0.2233
  173MOL0     N23237  10.309   5.862   3.099 -0.1198 -0.0544  0.4691
  173MOL0     C23238  10.247   5.854   3.222  0.3095  0.4876  0.0653
  173MOL0     C23239  10.257   5.980   3.279  0.5478  0.5403  0.5055
  173MOL0     C23240  10.196   6.022   3.404  0.0851  0.7903 -0.0906
  173MOL0     C23241  10.071   6.105   3.366 -1.0364 -0.1091 -0.5043
  173MOL0     C23242   9.995   6.162   3.489 -0.3542 -0.2816  0.4236
  173MOL0     C23243   9.842   6.154   3.468 -0.0663  0.6293 -0.2891
  173MOL0     O23244   9.775   6.208   3.579 -0.0697 -0.2630  0.8341
  173MOL0     C23245   9.638   6.192   3.598 -0.8918  0.6342 -0.1128
  173MOL0     C23246   9.551   6.145   3.495 -0.4690  0.1902 -0.4001
  173MOL0     C23247   9.417   6.129   3.519 -0.6811 -0.0544 -0.4023
  173MOL0     C23248   9.371   6.130   3.653  0.0064  0.0560  1.0728
  173MOL0     C23249   9.221   6.101   3.671  0.0814  0.2976  0.5942
  173MOL0     O23250   9.182   6.126   3.795 -0.1358  0.1572 -0.2662
  173MOL0     C23251   9.042   6.120   3.827 -0.7684 -0.9053  0.4016
  173MOL0     C23252   9.021   6.122   3.966 -0.6100 -0.0048 -0.5659
  173MOL0     C23253   8.894   6.113   4.022  0.0117 -0.0119 -0.1609
  173MOL0     C23254   8.778   6.098   3.944  0.1983 -0.6672 -0.3656
  173MOL0     O23255   8.662   6.109   4.017 -0.4731  0.2068 -0.4937
  173MOL0     C23256   8.538   6.109   3.945 -0.5141  0.3588 -0.0165
  173MOL0     C23257   8.425   6.084   4.029 -0.0665  1.0050 -0.2408
  173MOL0     C23258   8.385   5.931   4.029 -0.2730 -0.9515  0.4367
  173MOL0     C23259   8.279   5.896   4.126  0.4034 -0.1818 -0.4148
  173MOL0     C23260   8.234   5.752   4.133  0.1928  0.2084 -0.2962
  173MOL0     C23261   8.111   5.738   4.233 -0.7592  0.4251  1.0019
  173MOL0     C23262   8.081   5.596   4.260 -0.1355 -0.6000  0.2476
  173MOL0     C23263   7.930   5.568   4.287 -0.8283  0.0867 -0.4037
  173MOL0    Cl23264   7.887   5.620   4.462  0.2004 -0.5324  0.1683
  173MOL0     C23265   8.792   6.100   3.801 -0.1873 -1.5930 -0.3201
  173MOL0     C23266   8.922   6.113   3.747  0.0890 -0.2156 -0.7265
  173MOL0     O23267   9.153   6.051   3.588 -0.4060 -0.0943  0.2897
  173MOL0     C23268   9.461   6.167   3.760  0.3321 -0.1050 -0.3841
  173MOL0     C23269   9.597   6.197   3.729  0.2351  1.0285 -0.5746
  173MOL0     N23270  10.326   6.054   3.185  0.7011 -0.8308 -0.7785
  173MOL0     N23271  10.362   5.985   3.078  0.5141  0.0987 -0.2105
  173MOL0     C23272   9.432   5.329   2.556 -0.8476 -0.0479  0.6627
  173MOL0     C23273   9.337   5.234   2.534 -0.3962 -0.5825  0.2563
  173MOL0     C23274   9.116   4.866   2.446 -0.9546 -0.3825  0.5236
  173MOL0     C23275   9.056   4.787   2.549  0.8542 -0.0618  0.6018
  173MOL0     C23276   8.942   4.707   2.523 -0.7887 -0.5074  0.7860
  173MOL0     C23277   8.881   4.704   2.395 -0.8850 -0.0977  0.1567
  173MOL0     O23278   8.759   4.639   2.384  0.3673  0.3754  0.2859
  173MOL0     C23279   8.702   4.566   2.273 -0.7902  0.0754  0.2695
  173MOL0     C23280   8.810   4.467   2.217  0.7419 -1.1264  0.0707
  173MOL0     C23281   8.735   4.369   2.118 -0.8786  0.5776 -0.7319
  173MOL0     C23282   8.837   4.337   2.008 -0.7150 -0.5923 -0.8431
  173MOL0     C23283   8.945   4.254   2.055  0.2448  0.1420 -0.0737
  173MOL0     C23284   9.045   4.195   2.103 -0.0214 -1.2320  0.6394
  173MOL0     C23285   8.928   4.801   2.307 -0.1749 -0.5954  0.1867
  173MOL0     C23286   9.050   4.881   2.328 -0.1658 -0.5207  0.7047
  173MOL0     C23287   9.108   4.961   2.210 -0.0407  0.4753  0.3957
  173MOL0     H23288   9.436   4.990   2.733 -2.2658 -0.4963 -2.8193
  173MOL0     H23289   9.640   5.152   2.762 -0.9043 -1.9115  1.3623
  173MOL0     H23290   9.681   5.541   2.507 -0.4595  3.4528  0.1585
  173MOL0     H23291   9.546   5.565   2.625  0.6977  0.9795  1.8846
  173MOL0     H23292   9.811   5.679   2.619 -0.7466  1.1679  0.3977
  173MOL0     H23293   9.818   5.530   2.715  0.7519 -0.5972 -2.8868
  173MOL0     H23294   9.640   5.594   2.865 -0.6329 -0.2952 -2.2156
  173MOL0     H23295   9.614   5.741   2.781 -0.2549 -0.5093  0.4167
  173MOL0     H23296   9.836   5.840   2.875  0.2819 -0.4746 -1.7969
  173MOL0     H23297   9.760   5.751   2.996 -3.0456 -1.2473 -1.0109
  173MOL0     H23298   9.915   5.555   2.958 -1.5235  2.2468  4.0148
  173MOL0     H23299   9.986   5.635   2.809  1.5880 -0.0605  0.5345
  173MOL0     H23300   9.995   5.790   3.057 -2.9958 -2.1951 -0.9558
  173MOL0     H23301  10.081   5.629   3.055  0.3934 -2.6047 -1.8242
  173MOL0     H23302  10.145   5.870   2.884 -3.0408 -1.0659  0.7010
  173MOL0     H23303  10.170   5.724   2.811 -0.0238  2.7857 -2.2957
  173MOL0     H23304  10.312   5.661   3.030  3.4164  0.6459  0.3930
  173MOL0     H23305  10.382   5.767   2.921 -2.0308 -0.3919 -2.4349
  173MOL0     H23306  10.194   5.769   3.263 -0.9757  2.4927  2.9271
  173MOL0     H23307  10.162   5.939   3.466 -0.6557  0.9400 -0.2914
  173MOL0     H23308  10.270   6.080   3.461 -0.8538  3.6484 -1.5748
  173MOL0     H23309  10.095   6.187   3.297  0.0316 -1.7266 -2.1555
  173MOL0     H23310  10.003   6.043   3.307 -2.1611 -1.8766  2.4619
  173MOL0     H23311  10.018   6.269   3.489  0.0721 -0.3674  1.2566
  173MOL0     H23312  10.019   6.113   3.584 -3.6928  2.2044  2.7853
  173MOL0     H23313   9.808   6.052   3.450  0.9255  0.6093 -2.3862
  173MOL0     H23314   9.806   6.211   3.381 -0.9740  1.2522  0.4760
  173MOL0     H23315   9.576   6.120   3.392 -0.8647  0.4413 -0.5625
  173MOL0     H23316   9.357   6.096   3.435  1.7648  2.9236 -3.6168
  173MOL0     H23317   9.108   6.100   4.028 -2.0500 -6.5319 -0.0719
  173MOL0     H23318   8.867   6.097   4.126 -1.4073  0.7170 -0.3907
  173MOL0     H23319   8.532   6.209   3.902  0.8752  0.0272 -1.0599
  173MOL0     H23320   8.548   6.031   3.869 -1.8035 -1.5234  1.6562
  173MOL0     H23321   8.452   6.120   4.128 -0.4001  1.1577 -0.2043
  173MOL0     H23322   8.332   6.130   3.993 -1.6679 -2.5090 -0.9973
  173MOL0     H23323   8.356   5.923   3.924 -0.8019 -1.2216  0.6013
  173MOL0     H23324   8.477   5.874   4.042  3.3745  3.7978 -1.5013
  173MOL0     H23325   8.196   5.964   4.106  0.1230 -0.2676  0.4452
  173MOL0     H23326   8.311   5.925   4.227  0.8940  1.0730 -0.9084
  173MOL0     H23327   8.317   5.688   4.165  0.4465  0.5406 -0.2874
  173MOL0     H23328   8.207   5.707   4.037  0.2974 -0.4688 -0.0191
  173MOL0     H23329   8.137   5.786   4.328  3.0055 -0.6647  0.7017
  173MOL0     H23330   8.023   5.784   4.188 -1.3557 -3.5793 -2.5166
  173MOL0     H23331   8.141   5.552   4.340  1.6414 -2.0349 -1.7632
  173MOL0     H23332   8.121   5.542   4.174  3.3545 -1.4519  2.2055
  173MOL0     H23333   7.877   5.633   4.217 -1.7605  1.3319  1.3817
  173MOL0     H23334   7.897   5.465   4.268  2.7301 -1.3311  0.2331
  173MOL0     H23335   8.714   6.110   3.726  0.3307 -1.7913 -0.8949
  173MOL0     H23336   8.930   6.118   3.639 -2.0331 -0.2966 -0.9125
  173MOL0     H23337   9.443   6.174   3.867  3.4301  0.7156  0.1822
  173MOL0     H23338   9.664   6.215   3.812 -0.9029 -0.8913  0.8271
  173MOL0     H23339   9.427   5.411   2.486 -2.6360  0.3143  1.1631
  173MOL0     H23340   9.255   5.260   2.467  0.5941  0.7672 -0.4774
  173MOL0     H23341   9.094   4.791   2.651  3.6766 -0.8079 -0.3332
  173MOL0     H23342   8.918   4.632   2.597 -1.4151 -0.2803  0.8254
  173MOL0     H23343   8.690   4.641   2.194  0.2208 -0.7549 -0.6956
  173MOL0     H23344   8.610   4.514   2.299 -0.7955  1.9874  5.0087
  173MOL0     H23345   8.861   4.403   2.290  0.7168  0.6925  1.7572
  173MOL0     H23346   8.891   4.527   2.176 -0.7585  2.8839  2.3331
  173MOL0     H23347   8.650   4.411   2.065 -2.5925  0.1720  1.5296
  173MOL0     H23348   8.697   4.280   2.170 -2.6154  1.8880  0.3485
  173MOL0     H23349   8.788   4.277   1.931  1.0895 -0.4839 -2.1221
  173MOL0     H23350   8.881   4.422   1.956 -0.7423 -1.7904 -2.9399
  173MOL0     H23351   9.135   4.139   2.113  1.9089  1.4370 -0.6702
  173MOL0     H23352   8.877   4.815   2.211 -0.4922 -2.3911  0.0488
  173MOL0     H23353   9.189   4.904   2.162 -1.5103  0.0980 -1.7514
  173MOL0     H23354   9.036   4.982   2.131  2.8833  1.1121 -2.3358
  173MOL0     H23355   9.144   5.055   2.252  1.8646  1.6548 -3.4226
  174MOL0     O23356   4.692  11.512   6.566 -0.3037 -0.3448  0.9637
  174MOL0     C23357   4.649  11.622   6.520 -0.1257  0.6303  0.3965
  174MOL0     O23358   4.661  11.737   6.586  0.2343  0.4500 -0.0548
  174MOL0     C23359   4.766  11.764   6.674 -0.0550 -0.7037  0.0967
  174MOL0     C23360   4.760  11.850   6.784  0.0867 -0.1041  0.2006
  174MOL0     C23361   4.873  11.873   6.861  1.2576 -1.1842 -0.1724
  174MOL0     C23362   4.997  11.829   6.826 -0.8345 -0.0745  0.1224
  174MOL0     O23363   5.117  11.838   6.897  0.6443  0.5840  0.3795
  174MOL0     C23364   5.109  11.881   7.036 -1.2076  0.1694 -0.3589
  174MOL0     C23365   5.235  11.841   7.110  0.3921  0.1289 -0.4603
  174MOL0     C23366   5.252  11.680   7.103  0.8132 -0.5157  0.6261
  174MOL0     C23367   5.391  11.644   7.157  0.5212  0.0658  0.1562
  174MOL0     C23368   5.492  11.642   7.051  0.2425  0.1189  0.4157
  174MOL0     C23369   5.635  11.704   7.077  0.4810 -0.2082 -0.8677
  174MOL0     C23370   5.706  11.640   7.196 -1.0112  0.0193  0.3476
  174MOL0     C23371   5.765  11.508   7.158 -0.3774  0.0433  0.0714
  174MOL0     N23372   5.856  11.464   7.265 -0.2390 -0.9603 -0.1993
  174MOL0     C23373   5.830  11.480   7.403  0.3533 -0.0205  0.0310
  174MOL0     C23374   5.929  11.418   7.475 -0.3107  0.5377  0.9226
  174MOL0     C23375   5.972  11.399   7.617  0.0460  1.2168 -0.1916
  174MOL0     C23376   5.883  11.487   7.695  0.7626 -1.0680 -0.4800
  174MOL0     C23377   5.928  11.512   7.840 -0.2889  0.1863 -0.3921
  174MOL0     C23378   5.886  11.394   7.919 -0.2612  1.1171  0.8537
  174MOL0     O23379   5.891  11.430   8.058 -0.4120  0.0098  0.2531
  174MOL0     C23380   5.922  11.316   8.140 -0.2820  0.2291  0.6830
  174MOL0     C23381   5.858  11.190   8.133 -0.0987 -0.0742  0.4148
  174MOL0     C23382   5.908  11.080   8.203 -0.3960 -0.3238  0.0392
  174MOL0     C23383   6.019  11.095   8.290  0.2241 -0.3190  1.2560
  174MOL0     C23384   6.070  10.974   8.349 -0.2442 -0.4027 -0.2796
  174MOL0     O23385   6.000  10.847   8.340 -0.2735 -0.0328 -1.2654
  174MOL0     C23386   6.043  10.735   8.392 -0.2896  0.8925  0.1332
  174MOL0     C23387   6.175  10.699   8.430  0.4744  0.7595 -0.8410
  174MOL0     C23388   6.194  10.584   8.524  0.6195 -0.7826 -0.6704
  174MOL0     C23389   6.088  10.488   8.543 -0.0465  0.4660 -0.3577
  174MOL0     O23390   6.115  10.371   8.609  0.0751  0.3871  0.5091
  174MOL0     C23391   6.006  10.320   8.684 -0.2955  0.7518  0.3879
  174MOL0     C23392   6.049  10.205   8.784 -0.4134  0.1943 -0.6165
  174MOL0     C23393   6.125  10.279   8.894 -0.0521  0.3669  0.4965
  174MOL0     C23394   6.203  10.180   8.989 -0.6863  0.3505  0.8011
  174MOL0     C23395   6.299  10.250   9.066 -0.9112  0.5586 -1.3994
  174MOL0     C23396   6.375  10.155   9.168  0.8466  0.1570  0.5650
  174MOL0     C23397   6.393  10.232   9.302 -1.0215  0.0984 -0.8805
  174MOL0     C23398   6.471  10.150   9.405  0.5513  0.4793  0.7308
  174MOL0    Cl23399   6.470  10.251   9.566  0.0869  0.2185 -0.6580
  174MOL0     C23400   5.960  10.525   8.490  0.1023 -0.1173 -0.1277
  174MOL0     C23401   5.940  10.646   8.416 -0.7348 -0.0560 -0.7926
  174MOL0     O23402   6.179  10.988   8.393 -0.6655  1.4698  0.0260
  174MOL0     C23403   6.072  11.223   8.308  0.1845 -0.5271 -0.9801
  174MOL0     C23404   6.018  11.324   8.236  0.7069  0.0563 -0.5765
  174MOL0     N23405   6.016  11.378   7.371  0.2478 -0.4461 -0.0282
  174MOL0     N23406   5.979  11.415   7.254  0.5986  0.4866 -0.0624
  174MOL0     C23407   5.021  11.765   6.705 -0.3986  0.3626 -0.8111
  174MOL0     C23408   4.902  11.724   6.635  0.0656 -0.3958  0.9225
  174MOL0     C23409   4.567  11.603   6.397 -0.4626 -1.0714 -0.4583
  174MOL0     C23410   4.469  11.702   6.381  0.4566  0.6098 -0.5973
  174MOL0     C23411   4.367  11.690   6.284 -0.7414 -0.8113 -0.5424
  174MOL0     C23412   4.375  11.591   6.192 -0.6418  0.4062 -0.9584
  174MOL0     O23413   4.301  11.617   6.083 -0.1892  0.0446 -0.3883
  174MOL0     C23414   4.383  11.612   5.964  0.4542  0.1901  0.9418
  174MOL0     C23415   4.290  11.649   5.840 -0.0432 -0.0240  0.1091
  174MOL0     C23416   4.221  11.784   5.831  0.1528  0.1180 -0.0287
  174MOL0     C23417   4.140  11.813   5.696 -0.4491  0.6436 -0.5019
  174MOL0     C23418   4.122  11.955   5.678  0.3229 -0.2591  0.2706
  174MOL0     C23419   4.123  12.073   5.656  0.2896 -0.2630 -0.2417
  174MOL0     C23420   4.474  11.491   6.205 -0.3427  0.0928 -0.2075
  174MOL0     C23421   4.572  11.498   6.303  0.5628 -0.3917 -0.3437
  174MOL0     C23422   4.691  11.409   6.303 -0.2233 -0.1833 -1.0204
  174MOL0     H23423   4.665  11.897   6.808  0.0613 -0.2838  0.4600
  174MOL0     H23424   4.873  11.935   6.951  2.0282  0.8805 -1.5117
  174MOL0     H23425   5.103  11.989   7.024  1.4701  0.5353  0.7706
  174MOL0     H23426   5.029  11.840   7.098  0.4015  1.8497  3.1188
  174MOL0     H23427   5.236  11.874   7.215  0.2254  0.2745 -0.5024
  174MOL0     H23428   5.315  11.890   7.054  0.4197 -0.2180 -0.7255
  174MOL0     H23429   5.233  11.642   7.002 -1.7068  3.0690 -0.4480
  174MOL0     H23430   5.172  11.640   7.166 -3.0611  2.0698 -2.1352
  174MOL0     H23431   5.424  11.710   7.239 -0.2158 -0.5634  0.9808
  174MOL0     H23432   5.381  11.543   7.197 -0.1568 -0.1438 -0.5296
  174MOL0     H23433   5.496  11.545   6.999 -0.1554 -0.6860  1.8220
  174MOL0     H23434   5.447  11.708   6.976  0.9767  0.4721  0.2872
  174MOL0     H23435   5.695  11.691   6.986 -1.6959  0.6003 -2.5195
  174MOL0     H23436   5.632  11.809   7.106  0.9255 -0.9905  2.4178
  174MOL0     H23437   5.637  11.619   7.278 -0.2657  2.0321  1.5690
  174MOL0     H23438   5.791  11.704   7.218  1.2139 -1.6922 -2.5295
  174MOL0     H23439   5.685  11.435   7.145  1.4453 -1.8385 -1.2346
  174MOL0     H23440   5.824  11.516   7.066  0.1669 -2.0468  0.1907
  174MOL0     H23441   5.733  11.521   7.430 -0.1912 -1.8777  1.0190
  174MOL0     H23442   5.955  11.296   7.647 -2.4667  1.9019  1.0212
  174MOL0     H23443   6.071  11.440   7.639 -0.7540  1.9233  2.4428
  174MOL0     H23444   5.875  11.586   7.649  3.9810 -0.4545  0.0670
  174MOL0     H23445   5.786  11.437   7.699  0.0136  0.3527 -0.3825
  174MOL0     H23446   5.875  11.601   7.873 -1.4295 -1.6140  3.0978
  174MOL0     H23447   6.036  11.533   7.841  0.0322 -1.2114 -1.7013
  174MOL0     H23448   5.955  11.315   7.889 -0.8720 -0.3242  2.9667
  174MOL0     H23449   5.784  11.365   7.893  0.8650 -3.3232  0.5869
  174MOL0     H23450   5.781  11.192   8.056 -1.6681  0.8086  1.9199
  174MOL0     H23451   5.845  10.992   8.203 -2.7619  1.1371  3.6965
  174MOL0     H23452   6.260  10.760   8.401 -1.1965  3.2117 -0.8453
  174MOL0     H23453   6.294  10.561   8.561  0.6354 -0.7390 -0.6860
  174MOL0     H23454   5.936  10.394   8.725 -1.9010  0.6319 -1.9745
  174MOL0     H23455   5.951  10.266   8.607  5.0236 -2.6074 -1.6192
  174MOL0     H23456   5.956  10.162   8.824 -0.3219 -0.0186 -0.6324
  174MOL0     H23457   6.105  10.128   8.732 -0.6392 -1.7166  1.7682
  174MOL0     H23458   6.190  10.359   8.856 -1.1198 -0.0096 -2.3947
  174MOL0     H23459   6.052  10.318   8.964  0.2625 -0.4953  1.3198
  174MOL0     H23460   6.263  10.112   8.929  0.8633  0.2733  2.3654
  174MOL0     H23461   6.131  10.123   9.048 -0.2301 -1.7288 -0.5451
  174MOL0     H23462   6.250  10.321   9.133  0.5873 -1.1353  1.7159
  174MOL0     H23463   6.376  10.292   9.001  1.9027 -1.9654  0.0811
  174MOL0     H23464   6.322  10.060   9.185 -0.0184 -0.0825 -2.7150
  174MOL0     H23465   6.465  10.114   9.121 -2.0314 -3.6696 -2.2154
  174MOL0     H23466   6.303  10.276   9.345 -0.0292  1.6365 -0.2691
  174MOL0     H23467   6.449  10.326   9.291 -0.7024  0.2005  1.1676
  174MOL0     H23468   6.414  10.058   9.422 -0.6050  0.4652 -2.4241
  174MOL0     H23469   6.575  10.133   9.376  0.3451  0.2970  0.0651
  174MOL0     H23470   5.881  10.450   8.481  0.1196 -0.0365 -1.0690
  174MOL0     H23471   5.835  10.664   8.391 -0.8770  2.8740  1.3480
  174MOL0     H23472   6.139  11.246   8.390 -3.1706 -0.1313  1.9078
  174MOL0     H23473   6.069  11.418   8.251 -0.1953  0.3834  0.6619
  174MOL0     H23474   5.113  11.718   6.674 -0.5745 -2.2130  2.0793
  174MOL0     H23475   4.910  11.655   6.551 -1.1249 -0.6889  1.0304
  174MOL0     H23476   4.460  11.788   6.448  0.6378 -0.5379  0.9509
  174MOL0     H23477   4.287  11.763   6.278 -0.4097 -0.5070 -1.4322
  174MOL0     H23478   4.422  11.513   5.939  1.1186  0.8000 -0.5705
  174MOL0     H23479   4.460  11.689   5.976  2.7030 -1.6249 -0.8860
  174MOL0     H23480   4.211  11.574   5.851  0.5182 -0.2888  4.3446
  174MOL0     H23481   4.341  11.630   5.746  2.5315  1.9970  0.9662
  174MOL0     H23482   4.301  11.859   5.845 -0.3461  0.9927 -1.6373
  174MOL0     H23483   4.159  11.798   5.920 -0.9321  1.0355 -0.8976
  174MOL0     H23484   4.191  11.772   5.609 -1.4553 -2.4493  0.2498
  174MOL0     H23485   4.039  11.771   5.695 -0.2903  0.1891  0.8361
  174MOL0     H23486   4.122  12.178   5.636 -3.5123  0.5519  2.9630
  174MOL0     H23487   4.477  11.406   6.138 -1.4114 -0.6825  0.6903
  174MOL0     H23488   4.775  11.458   6.353  0.1213 -0.5897 -1.1960
  174MOL0     H23489   4.663  11.312   6.345  0.3321 -0.3577 -1.0469
  174MOL0     H23490   4.724  11.401   6.199  1.8509  0.4596 -0.4590
  175MOL0     O23491   3.626  10.370   6.974  0.0698  0.4850  1.3028
  175MOL0     C23492   3.729  10.415   6.924  0.3416  0.4419 -0.2540
  175MOL0     O23493   3.781  10.538   6.963 -0.5468 -0.4900  0.1144
  175MOL0     C23494   3.737  10.603   7.076 -0.4616  0.4238 -0.8820
  175MOL0     C23495   3.784  10.546   7.195  0.7988 -0.1170 -0.6931
  175MOL0     C23496   3.739  10.599   7.323  0.2604 -1.3354 -0.1924
  175MOL0     C23497   3.646  10.701   7.323 -0.0099  0.3110  0.3528
  175MOL0     O23498   3.607  10.755   7.445 -0.3183  0.3657  0.6241
  175MOL0     C23499   3.561  10.890   7.452  0.3609  0.0107 -0.7778
  175MOL0     C23500   3.564  10.929   7.604  0.1531  0.8260 -0.0649
  175MOL0     C23501   3.443  10.881   7.697 -0.5070  0.0110  0.4584
  175MOL0     C23502   3.475  10.913   7.840 -0.0007 -0.2900  1.2483
  175MOL0     C23503   3.379  10.863   7.944 -0.1973 -0.0097  0.1321
  175MOL0     C23504   3.243  10.920   7.926 -0.4163 -1.5819  0.5118
  175MOL0     C23505   3.160  10.890   8.053  0.5311 -0.8644  0.4579
  175MOL0     C23506   3.026  10.958   8.065 -0.1167  0.1179 -0.1886
  175MOL0     N23507   2.935  10.916   7.956 -0.3941  0.9151 -0.3497
  175MOL0     C23508   2.891  11.005   7.854 -0.3365 -0.3461  0.0383
  175MOL0     C23509   2.790  10.948   7.784  0.5172 -0.0005 -1.0064
  175MOL0     C23510   2.712  10.972   7.658  1.6418  0.2083 -0.1845
  175MOL0     C23511   2.720  11.114   7.601 -0.4677  0.2516  0.0667
  175MOL0     C23512   2.674  11.111   7.449  0.6925 -0.2253 -0.5575
  175MOL0     C23513   2.527  11.074   7.430 -0.3429 -0.0540 -0.9186
  175MOL0     O23514   2.434  11.184   7.439 -0.0561  1.1573  0.5243
  175MOL0     C23515   2.408  11.266   7.337 -0.2587 -0.0106  0.2626
  175MOL0     C23516   2.427  11.228   7.202  0.7083  0.4619 -0.4372
  175MOL0     C23517   2.414  11.316   7.096 -0.4528 -0.0087 -0.8518
  175MOL0     C23518   2.334  11.432   7.114  0.4578  0.3190  0.3336
  175MOL0     C23519   2.295  11.516   7.006  0.4550 -0.5513 -0.1175
  175MOL0     O23520   2.205  11.611   7.043 -0.4564 -0.2395  0.4006
  175MOL0     C23521   2.192  11.717   6.956 -0.2556  0.3570  0.6981
  175MOL0     C23522   2.281  11.820   6.934 -0.1675  0.2038 -0.5784
  175MOL0     C23523   2.264  11.933   6.856 -0.2346 -0.6748 -0.4077
  175MOL0     C23524   2.139  11.944   6.794 -0.7442 -0.5583  0.2037
  175MOL0     O23525   2.119  12.060   6.715 -0.4162  0.9051 -0.3748
  175MOL0     C23526   2.020  12.050   6.607 -0.4260 -0.1638  1.3256
  175MOL0     C23527   2.021  12.174   6.519 -0.3601  0.0267 -0.1919
  175MOL0     C23528   2.155  12.203   6.452  0.2568  0.8800  0.2159
  175MOL0     C23529   2.159  12.346   6.389 -0.4832 -0.6933  0.2017
  175MOL0     C23530   2.297  12.379   6.335 -0.5364 -0.4983  0.5142
  175MOL0     C23531   2.295  12.515   6.267  0.3310  0.4550  0.2734
  175MOL0     C23532   2.276  12.645   6.360 -0.7104 -0.5635  0.5732
  175MOL0     C23533   2.377  12.654   6.471  0.5640 -0.1239 -0.4818
  175MOL0    Cl23534   2.374  12.831   6.523  0.3458  0.2606 -0.2798
  175MOL0     C23535   2.046  11.841   6.808  0.1914 -0.7758  0.3945
  175MOL0     C23536   2.073  11.734   6.883 -0.1869  0.6866  0.4112
  175MOL0     O23537   2.332  11.492   6.888 -0.2648  0.4512  0.3843
  175MOL0     C23538   2.316  11.471   7.250  0.2071  0.1848 -0.0083
  175MOL0     C23539   2.360  11.394   7.359 -0.4397 -1.3736 -0.0821
  175MOL0     N23540   2.775  10.827   7.851  0.3714  0.1180 -0.0466
  175MOL0     N23541   2.865  10.802   7.943 -0.7745  0.0253  0.8662
  175MOL0     C23542   3.600  10.762   7.201  0.0721 -0.5726  0.0345
  175MOL0     C23543   3.648  10.704   7.079 -0.9958 -0.6119 -0.1742
  175MOL0     C23544   3.787  10.345   6.801 -0.0902 -0.3394 -0.6883
  175MOL0     C23545   3.894  10.419   6.736 -0.1622  0.8217  0.1086
  175MOL0     C23546   3.952  10.371   6.617 -0.2005  0.0946 -0.5483
  175MOL0     C23547   3.919  10.240   6.572 -0.2060  0.2046  0.1507
  175MOL0     O23548   3.991  10.191   6.475  0.4174 -0.1283  0.1563
  175MOL0     C23549   3.939  10.089   6.389 -0.2721 -0.2415 -0.3010
  175MOL0     C23550   4.020   9.961   6.434 -0.4809  0.0110 -0.3590
  175MOL0     C23551   3.952   9.824   6.393 -0.4987 -0.5417 -0.0482
  175MOL0     C23552   3.806   9.813   6.447  0.4473 -0.7876 -0.7604
  175MOL0     C23553   3.803   9.788   6.590  0.4943  0.0340  0.4402
  175MOL0     C23554   3.805   9.776   6.714 -0.7604 -0.0971 -0.3026
  175MOL0     C23555   3.806  10.173   6.633 -0.4600  0.3204 -1.2618
  175MOL0     C23556   3.742  10.225   6.741 -0.4407  0.9511  0.0672
  175MOL0     C23557   3.632  10.147   6.798 -0.9783 -1.5284 -0.0183
  175MOL0     H23558   3.859  10.467   7.189  1.7078  0.2841  2.9166
  175MOL0     H23559   3.768  10.564   7.421 -2.3307  1.4658  1.7436
  175MOL0     H23560   3.619  10.963   7.395 -3.5440  3.8591 -0.3548
  175MOL0     H23561   3.460  10.899   7.413  1.1887  0.2879 -2.9879
  175MOL0     H23562   3.554  11.038   7.602 -1.3039  0.7402 -3.0076
  175MOL0     H23563   3.663  10.911   7.645  1.6471  1.3864 -3.0826
  175MOL0     H23564   3.441  10.774   7.677 -0.5283  0.1200 -0.1480
  175MOL0     H23565   3.353  10.933   7.662  0.4765  0.8363 -0.9642
  175MOL0     H23566   3.576  10.875   7.858  0.5229  0.5506  0.1681
  175MOL0     H23567   3.466  11.021   7.854  0.4812  0.0177 -0.5690
  175MOL0     H23568   3.363  10.755   7.951  0.2766  0.0273  3.2471
  175MOL0     H23569   3.421  10.898   8.039  1.4971  0.6396 -0.8030
  175MOL0     H23570   3.265  11.027   7.911  3.4179 -2.3193 -0.0967
  175MOL0     H23571   3.197  10.882   7.834  2.5697 -3.8389 -0.2136
  175MOL0     H23572   3.222  10.899   8.142 -0.5606 -0.4614  1.1963
  175MOL0     H23573   3.151  10.782   8.042  1.7927 -0.7998 -1.9863
  175MOL0     H23574   2.979  10.933   8.160  2.0432  0.3551  1.0083
  175MOL0     H23575   3.038  11.067   8.059  2.2144 -0.0810  0.0369
  175MOL0     H23576   2.921  11.110   7.851  0.0118 -0.3416  1.9722
  175MOL0     H23577   2.744  10.903   7.579 -0.1145  0.5368 -1.2129
  175MOL0     H23578   2.610  10.939   7.679  2.3510 -1.7784  0.3911
  175MOL0     H23579   2.665  11.193   7.653 -2.5741 -1.8870  1.2821
  175MOL0     H23580   2.828  11.130   7.613  0.0065 -2.3917  0.0297
  175MOL0     H23581   2.740  11.047   7.390  0.3460 -1.4815  0.3558
  175MOL0     H23582   2.686  11.215   7.421  1.0950 -0.0372  0.2542
  175MOL0     H23583   2.493  11.001   7.504  1.0355  1.2468  1.0629
  175MOL0     H23584   2.518  11.023   7.333  1.3651 -0.8726 -0.6827
  175MOL0     H23585   2.475  11.135   7.171  4.0251  1.3641  1.5029
  175MOL0     H23586   2.443  11.266   7.004 -2.9995 -2.0239 -0.6571
  175MOL0     H23587   2.381  11.799   6.971 -0.1672  2.5290  0.9728
  175MOL0     H23588   2.323  12.023   6.840 -4.3139  2.9153  2.5633
  175MOL0     H23589   2.055  11.967   6.545  2.0152  0.5950  1.5993
  175MOL0     H23590   1.913  12.045   6.627 -1.0999  1.4699 -1.3183
  175MOL0     H23591   1.933  12.164   6.454  0.7424 -1.9468 -1.4699
  175MOL0     H23592   2.010  12.265   6.580  0.0177 -0.6267  0.8712
  175MOL0     H23593   2.231  12.193   6.530  1.1140  0.9200 -0.6022
  175MOL0     H23594   2.190  12.125   6.384  0.2858  1.3205 -0.2851
  175MOL0     H23595   2.126  12.425   6.458  0.8657 -1.5806  1.9525
  175MOL0     H23596   2.089  12.348   6.305 -2.2291 -1.1884  1.5933
  175MOL0     H23597   2.331  12.312   6.256 -0.3019  0.5157 -0.2568
  175MOL0     H23598   2.371  12.379   6.416  2.7847  1.5852 -2.2399
  175MOL0     H23599   2.393  12.531   6.221  0.2226  1.4832  0.3668
  175MOL0     H23600   2.234  12.513   6.176 -3.9885 -1.2623  2.8672
  175MOL0     H23601   2.169  12.657   6.379 -1.1710  2.0890 -2.6196
  175MOL0     H23602   2.293  12.732   6.296  1.0353  0.1829  1.9842
  175MOL0     H23603   2.342  12.586   6.549  1.4582  0.1389  0.1679
  175MOL0     H23604   2.477  12.627   6.436  0.3810  0.3190 -1.3785
  175MOL0     H23605   1.958  11.838   6.745  0.1872  0.8224  0.2829
  175MOL0     H23606   2.015  11.649   6.916  2.5965 -2.2906 -1.7463
  175MOL0     H23607   2.270  11.566   7.272  0.4253  0.0268  1.1837
  175MOL0     H23608   2.339  11.446   7.452  0.4813  1.3723 -1.3154
  175MOL0     H23609   3.516  10.831   7.194  0.1043 -0.4598  0.7006
  175MOL0     H23610   3.612  10.739   6.984 -1.0096 -0.1689 -0.0057
  175MOL0     H23611   3.926  10.517   6.770 -2.6128  2.1070 -0.9897
  175MOL0     H23612   4.028  10.433   6.570 -0.6547  1.9877  1.0250
  175MOL0     H23613   3.956  10.126   6.287 -2.1821  0.3252 -0.4522
  175MOL0     H23614   3.830  10.079   6.389 -0.2372 -1.6502  2.3793
  175MOL0     H23615   4.034   9.961   6.543  3.2894  1.9169 -0.6750
  175MOL0     H23616   4.124   9.964   6.403 -0.4420 -1.8191 -0.5194
  175MOL0     H23617   4.012   9.749   6.445  1.9430  3.2749  3.1937
  175MOL0     H23618   3.958   9.804   6.286  0.2145  0.1491 -0.1413
  175MOL0     H23619   3.742   9.901   6.435 -0.8225 -1.1252  2.4209
  175MOL0     H23620   3.760   9.724   6.401 -1.7383  0.0236 -0.2682
  175MOL0     H23621   3.790   9.757   6.818  1.6984 -1.2672 -0.0764
  175MOL0     H23622   3.769  10.085   6.581 -0.4722 -1.0578  0.9519
  175MOL0     H23623   3.626  10.053   6.741  3.3213 -1.1165 -1.5374
  175MOL0     H23624   3.651  10.121   6.902 -1.0393 -0.8925  0.1538
  175MOL0     H23625   3.537  10.200   6.793  1.3058  3.1065  0.1865
  176MOL0     O23626   0.368   7.226   4.021  0.1570 -0.3102  0.5662
  176MOL0     C23627   0.269   7.230   4.081  0.7377  0.3787 -0.0614
  176MOL0     O23628   0.159   7.148   4.054  0.2109 -0.2883 -0.0382
  176MOL0     C23629   0.144   7.082   3.927  0.3021 -0.3532 -0.4954
  176MOL0     C23630   0.101   6.950   3.913 -0.4629 -0.4442 -0.6768
  176MOL0     C23631   0.109   6.887   3.788  0.7145 -0.1563 -0.4245
  176MOL0     C23632   0.147   6.951   3.674  0.5026 -0.7581  0.6914
  176MOL0     O23633   0.143   6.884   3.550  0.9948 -0.2113 -0.1858
  176MOL0     C23634   0.266   6.897   3.476  0.3971  0.5021  0.1776
  176MOL0     C23635   0.295   6.765   3.390 -0.0901 -0.0386  0.5244
  176MOL0     C23636   0.451   6.746   3.374  0.4265 -0.6803 -0.5623
  176MOL0     C23637   0.481   6.620   3.296 -1.3738  0.7821  0.5425
  176MOL0     C23638   0.571   6.531   3.379  0.0303 -0.4341  1.0738
  176MOL0     C23639   0.603   6.406   3.289  0.1988  0.8863  0.3485
  176MOL0     C23640   0.714   6.315   3.357  0.3983 -0.0101 -0.0598
  176MOL0     C23641   0.718   6.174   3.300 -0.7546  0.8795 -0.3222
  176MOL0     N23642   0.620   6.082   3.341  0.9821 -0.5383 -0.6427
  176MOL0     C23643   0.491   6.066   3.287 -0.2729  0.3911  0.6808
  176MOL0     C23644   0.426   5.985   3.373 -0.2727  0.3890  0.1559
  176MOL0     C23645   0.290   5.913   3.372 -1.1015  0.3252  0.8766
  176MOL0     C23646   0.161   5.994   3.390 -0.0629 -0.2536 -0.9394
  176MOL0     C23647   0.165   6.060   3.530 -0.0382  0.5525  0.4590
  176MOL0     C23648   0.064   6.171   3.553  0.5782 -0.5791  0.0648
  176MOL0     O23649   0.055   6.194   3.701  0.3410  0.0058 -0.3914
  176MOL0     C23650  -0.000   6.301   3.754 -0.7211 -1.3455  0.1614
  176MOL0     C23651   0.014   6.314   3.885 -0.1541  0.0914  0.9478
  176MOL0     C23652  -0.046   6.412   3.954 -0.2217  0.8317 -0.2068
  176MOL0     C23653  -0.133   6.500   3.890  0.4514  0.3510  0.8271
  176MOL0     C23654  -0.192   6.620   3.963 -0.0187 -0.5671  0.8867
  176MOL0     O23655  -0.261   6.708   3.886  0.3060  0.2480  0.2437
  176MOL0     C23656  -0.328   6.810   3.947  0.3741 -0.1400 -0.2387
  176MOL0     C23657  -0.465   6.835   3.933 -1.4919 -0.7407  0.5341
  176MOL0     C23658  -0.521   6.962   3.961  0.2209  0.4048  0.0799
  176MOL0     C23659  -0.438   7.063   4.009  0.6244  0.2040 -0.2366
  176MOL0     O23660  -0.497   7.187   4.030  0.5800  0.0421 -0.3805
  176MOL0     C23661  -0.421   7.302   4.064  0.4676  0.7289 -0.4315
  176MOL0     C23662  -0.511   7.421   4.094 -0.1206  0.1833  0.4074
  176MOL0     C23663  -0.620   7.400   4.213  0.6253 -0.4477  0.4663
  176MOL0     C23664  -0.552   7.363   4.346  0.5752 -0.1418  0.6037
  176MOL0     C23665  -0.504   7.219   4.369 -0.4404 -0.7543 -0.0009
  176MOL0     C23666  -0.604   7.104   4.352  0.7101  0.9513 -0.7884
  176MOL0     C23667  -0.570   6.956   4.374 -0.5361 -0.7971 -0.1972
  176MOL0     C23668  -0.448   6.897   4.307  0.2838 -0.6712 -0.4859
  176MOL0    Cl23669  -0.426   6.724   4.361 -0.0348  0.2411  0.1508
  176MOL0     C23670  -0.302   7.046   4.020 -0.2081  0.1647 -0.1245
  176MOL0     C23671  -0.246   6.918   3.993 -0.6946  0.5655  0.8052
  176MOL0     O23672  -0.182   6.635   4.082  0.0660  0.7679 -0.0775
  176MOL0     C23673  -0.164   6.479   3.759 -0.9853 -0.0726  0.1895
  176MOL0     C23674  -0.087   6.384   3.688  0.1734  0.4521  0.3205
  176MOL0     N23675   0.505   5.961   3.487  0.0711 -0.1356  0.1590
  176MOL0     N23676   0.623   6.007   3.457 -1.1191 -0.7041  0.2033
  176MOL0     C23677   0.187   7.080   3.690  0.1553 -0.3224  0.3966
  176MOL0     C23678   0.184   7.149   3.814  0.1688  0.4299 -0.2660
  176MOL0     C23679   0.263   7.303   4.209 -0.2703  0.2184  0.3109
  176MOL0     C23680   0.198   7.422   4.214  0.8002  0.0657 -0.4732
  176MOL0     C23681   0.199   7.489   4.329  0.5246 -0.0229  0.3708
  176MOL0     C23682   0.272   7.452   4.446 -0.2072 -0.8727  0.4586
  176MOL0     O23683   0.285   7.535   4.550  0.2205 -0.8807 -0.3799
  176MOL0     C23684   0.411   7.591   4.583 -1.0825  0.1537  0.0705
  176MOL0     C23685   0.389   7.714   4.661 -0.5496  0.3992  0.0865
  176MOL0     C23686   0.523   7.773   4.713  0.2341  0.6958  0.4187
  176MOL0     C23687   0.498   7.902   4.789  0.2491  0.4313 -0.1518
  176MOL0     C23688   0.445   8.013   4.715 -0.3509 -0.3069 -0.1958
  176MOL0     C23689   0.399   8.115   4.666  0.6998 -0.1980  0.0472
  176MOL0     C23690   0.333   7.329   4.438  0.4544 -1.9145  0.3576
  176MOL0     C23691   0.334   7.260   4.320  0.2170  0.6162  0.0041
  176MOL0     C23692   0.405   7.131   4.324 -0.2377 -0.4037  0.9778
  176MOL0     H23693   0.063   6.894   3.998 -0.5664 -0.6105 -0.8327
  176MOL0     H23694   0.080   6.784   3.773  0.8417 -0.1003 -1.1248
  176MOL0     H23695   0.266   6.978   3.402 -0.3263 -0.9189 -1.4478
  176MOL0     H23696   0.352   6.913   3.542  0.5513  0.7520 -0.0802
  176MOL0     H23697   0.247   6.777   3.293  1.1002  0.0367 -0.0691
  176MOL0     H23698   0.252   6.679   3.442 -2.7547  0.2997 -0.9392
  176MOL0     H23699   0.483   6.721   3.476 -1.4093 -0.2703  0.1466
  176MOL0     H23700   0.507   6.829   3.331 -1.3700  0.3495 -0.9804
  176MOL0     H23701   0.390   6.564   3.272 -0.3037 -1.4524  1.3477
  176MOL0     H23702   0.537   6.641   3.204 -1.5801  1.6157  0.6022
  176MOL0     H23703   0.666   6.582   3.399  0.9770 -0.7053 -2.2524
  176MOL0     H23704   0.518   6.504   3.471 -1.4790  2.2023  1.0953
  176MOL0     H23705   0.508   6.357   3.269  0.2832 -0.1701  2.2198
  176MOL0     H23706   0.639   6.451   3.197  0.8876  1.7927  1.0397
  176MOL0     H23707   0.703   6.306   3.465 -0.7011  1.5324 -0.0200
  176MOL0     H23708   0.808   6.361   3.324 -0.7724  1.8807 -0.8483
  176MOL0     H23709   0.715   6.175   3.191  0.9728 -0.7043 -0.4373
  176MOL0     H23710   0.811   6.132   3.339 -1.5656  0.6338  1.4764
  176MOL0     H23711   0.444   6.108   3.199  0.8364 -1.4819 -0.8718
  176MOL0     H23712   0.291   5.856   3.279  1.2673 -0.2299  1.1682
  176MOL0     H23713   0.292   5.830   3.443 -0.1243 -0.0724  0.4144
  176MOL0     H23714   0.127   6.058   3.308 -0.4082 -0.1903 -0.7475
  176MOL0     H23715   0.081   5.920   3.399  1.2809 -1.4632  4.8818
  176MOL0     H23716   0.268   6.092   3.547  0.7089 -1.1210 -0.6931
  176MOL0     H23717   0.143   5.981   3.602 -0.3517  0.5521  0.3651
  176MOL0     H23718  -0.031   6.144   3.508  0.0213  1.9326 -0.4073
  176MOL0     H23719   0.096   6.258   3.495 -0.1154 -0.1327  0.3416
  176MOL0     H23720   0.062   6.236   3.944 -1.2062 -1.6085 -0.3225
  176MOL0     H23721  -0.036   6.430   4.061  1.3368  2.1606 -0.5484
  176MOL0     H23722  -0.521   6.759   3.881 -0.1820 -0.7002 -1.0364
  176MOL0     H23723  -0.627   6.973   3.942  0.7404  3.0279 -1.9415
  176MOL0     H23724  -0.340   7.300   4.138  2.0890  1.1652 -2.1204
  176MOL0     H23725  -0.353   7.327   3.982  2.9952 -0.4700  1.1285
  176MOL0     H23726  -0.444   7.499   4.132 -0.7784 -0.6153  3.4923
  176MOL0     H23727  -0.545   7.452   3.994  1.5243  0.1469 -0.1925
  176MOL0     H23728  -0.671   7.494   4.232 -1.0809 -1.7673  3.0246
  176MOL0     H23729  -0.687   7.317   4.189 -2.2622  2.5410 -2.9997
  176MOL0     H23730  -0.621   7.398   4.423 -0.4474  1.4208 -0.9724
  176MOL0     H23731  -0.461   7.422   4.359  0.5210 -0.1432  0.9996
  176MOL0     H23732  -0.464   7.209   4.470  3.4771  0.8015 -1.1873
  176MOL0     H23733  -0.412   7.208   4.309  0.7609  1.1398  1.3856
  176MOL0     H23734  -0.685   7.124   4.422  1.6362  1.5323  0.1499
  176MOL0     H23735  -0.644   7.110   4.250 -1.3831  2.7644  0.0447
  176MOL0     H23736  -0.658   6.898   4.345 -2.6331  0.9991  2.1394
  176MOL0     H23737  -0.546   6.945   4.480 -0.2271 -3.3882 -0.4687
  176MOL0     H23738  -0.464   6.889   4.199  0.7831 -1.4681 -0.5122
  176MOL0     H23739  -0.359   6.955   4.333 -0.4380 -0.4806  1.8018
  176MOL0     H23740  -0.242   7.131   4.051 -1.6593  0.8799  0.8191
  176MOL0     H23741  -0.146   6.877   3.997 -0.8394  0.2101  0.8027
  176MOL0     H23742  -0.218   6.547   3.694 -1.2973 -1.7284 -1.3663
  176MOL0     H23743  -0.098   6.356   3.583  1.4451 -1.4422  0.6382
  176MOL0     H23744   0.226   7.128   3.601 -2.3320 -0.0900 -0.6689
  176MOL0     H23745   0.222   7.251   3.816  0.9725  0.1543  2.4595
  176MOL0     H23746   0.139   7.460   4.131 -0.7275  0.6957  0.8588
  176MOL0     H23747   0.138   7.578   4.321  1.2123  0.3823 -0.4981
  176MOL0     H23748   0.463   7.616   4.490 -2.9450  0.3886 -0.9557
  176MOL0     H23749   0.477   7.515   4.627 -1.1740 -0.7278 -1.2374
  176MOL0     H23750   0.316   7.702   4.741  0.6788 -2.5919  0.9045
  176MOL0     H23751   0.341   7.778   4.586 -0.6915 -0.2732 -0.3979
  176MOL0     H23752   0.578   7.804   4.624 -2.6012  1.8881 -1.0422
  176MOL0     H23753   0.574   7.697   4.773 -0.2730  1.0941  1.3828
  176MOL0     H23754   0.428   7.882   4.871 -1.5864  2.5086 -1.0827
  176MOL0     H23755   0.589   7.946   4.831 -0.6763  2.2341  0.0674
  176MOL0     H23756   0.367   8.206   4.620  1.6626 -0.4151 -1.1271
  176MOL0     H23757   0.388   7.298   4.526  0.0976  0.7610  1.5988
  176MOL0     H23758   0.443   7.094   4.229 -0.8365 -2.4627  1.5039
  176MOL0     H23759   0.490   7.135   4.393 -0.1066  4.8312  0.9274
  176MOL0     H23760   0.331   7.056   4.354 -0.6326 -0.8577 -1.0071
  177MOL0     O23761   8.463   4.217  11.279  0.0109 -0.8125  0.1030
  177MOL0     C23762   8.431   4.253  11.164  0.3561  0.6397 -0.6042
  177MOL0     O23763   8.469   4.193  11.047  0.5452 -0.1290 -0.1801
  177MOL0     C23764   8.572   4.104  11.045 -0.7138  0.7963 -0.9554
  177MOL0     C23765   8.690   4.120  10.965 -0.0199  0.2124  0.0492
  177MOL0     C23766   8.790   4.020  10.966  0.0288 -0.0198 -0.7763
  177MOL0     C23767   8.793   3.911  11.054  0.1675 -0.7911  0.3319
  177MOL0     O23768   8.901   3.830  11.091  0.9619 -0.4654 -0.2907
  177MOL0     C23769   9.034   3.868  11.060  0.7378  0.7043 -0.5401
  177MOL0     C23770   9.135   3.821  11.153 -0.1724  0.1012 -0.6222
  177MOL0     C23771   9.132   3.869  11.296 -0.1500  0.7459 -0.3069
  177MOL0     C23772   9.260   3.830  11.371 -0.0887 -0.1993  0.2069
  177MOL0     C23773   9.246   3.874  11.513  0.8892 -0.6819  0.5852
  177MOL0     C23774   9.365   3.845  11.604  0.4883  0.7482  0.2377
  177MOL0     C23775   9.370   3.932  11.736  0.3093  0.2439  0.1107
  177MOL0     C23776   9.489   3.889  11.828 -0.8138 -1.0134  0.0449
  177MOL0     N23777   9.611   3.962  11.793 -0.0160  0.3302  0.0114
  177MOL0     C23778   9.674   3.955  11.670  0.6302 -0.0827 -0.7791
  177MOL0     C23779   9.758   4.064  11.680  0.4430 -1.4391  0.2853
  177MOL0     C23780   9.851   4.109  11.566 -0.1843  0.0859 -0.5720
  177MOL0     C23781   9.796   4.235  11.500 -0.1805 -0.0012 -0.2962
  177MOL0     C23782   9.893   4.307  11.402  0.5448 -0.0987 -0.3632
  177MOL0     C23783   9.835   4.441  11.357 -0.3357  0.5643  0.3526
  177MOL0     O23784   9.696   4.428  11.322  0.3068  0.1943  0.6484
  177MOL0     C23785   9.653   4.364  11.211  0.5112 -0.7069  0.7921
  177MOL0     C23786   9.518   4.362  11.193 -0.7650 -0.3164  0.8342
  177MOL0     C23787   9.464   4.293  11.083 -0.8961 -0.1476  0.2219
  177MOL0     C23788   9.554   4.242  10.981  1.3238 -0.2016 -0.8476
  177MOL0     C23789   9.502   4.191  10.853  0.1436  0.2944  0.8019
  177MOL0     O23790   9.383   4.216  10.810 -0.1712  0.8721 -0.0527
  177MOL0     C23791   9.326   4.136  10.712 -0.5705 -0.6776 -0.2624
  177MOL0     C23792   9.285   4.001  10.731  0.2383 -0.2606  0.2684
  177MOL0     C23793   9.250   3.925  10.620  0.0402  0.0652 -0.4917
  177MOL0     C23794   9.239   3.985  10.495  0.1199  0.4892 -0.0230
  177MOL0     O23795   9.173   3.911  10.398 -1.3619 -0.2324  0.6424
  177MOL0     C23796   9.189   3.936  10.260 -0.7114 -0.4558  0.1109
  177MOL0     C23797   9.117   3.828  10.169 -0.3334  0.2171 -0.1712
  177MOL0     C23798   9.148   3.682  10.206 -0.3975  0.6559 -0.1355
  177MOL0     C23799   9.129   3.578  10.087  0.3809  0.5763 -0.4650
  177MOL0     C23800   9.191   3.439  10.137  0.1240  0.0615 -0.1999
  177MOL0     C23801   9.144   3.391  10.276  1.0911 -0.1640  0.4162
  177MOL0     C23802   9.173   3.241  10.289 -1.0549 -0.4678  1.0289
  177MOL0     C23803   9.108   3.178  10.410 -0.2052  0.4285 -0.8883
  177MOL0    Cl23804   8.929   3.203  10.431  0.1548 -0.6529  0.6143
  177MOL0     C23805   9.287   4.117  10.480  0.7716  0.0392  0.5332
  177MOL0     C23806   9.326   4.197  10.586  0.6456 -0.4219 -0.0086
  177MOL0     O23807   9.588   4.121  10.797  0.6332 -0.4032 -0.0018
  177MOL0     C23808   9.689   4.255  10.996 -0.5869 -0.6190 -0.3179
  177MOL0     C23809   9.742   4.308  11.111  0.1874 -0.0926  0.8379
  177MOL0     N23810   9.754   4.136  11.801 -0.0938  0.5967  0.0196
  177MOL0     N23811   9.668   4.065  11.863 -0.0657  0.2098  0.3811
  177MOL0     C23812   8.675   3.889  11.131  0.6410 -0.6313 -0.6848
  177MOL0     C23813   8.562   3.981  11.113 -0.4466  0.3911 -1.0682
  177MOL0     C23814   8.309   4.341  11.143 -0.0466 -0.0317 -0.6548
  177MOL0     C23815   8.218   4.312  11.040 -0.0515 -0.1298 -0.8528
  177MOL0     C23816   8.096   4.372  11.021  0.2477 -0.0107 -0.0968
  177MOL0     C23817   8.060   4.475  11.111  0.4415  0.2148 -0.0372
  177MOL0     O23818   7.933   4.531  11.108  0.7294  0.6888 -0.2737
  177MOL0     C23819   7.871   4.577  10.990 -0.4297 -0.0517  0.8702
  177MOL0     C23820   7.925   4.726  10.977 -0.0144 -0.0796 -0.1547
  177MOL0     C23821   7.877   4.825  11.082  0.0064  0.4571  0.1609
  177MOL0     C23822   7.990   4.929  11.133 -0.2242 -0.6053  0.3999
  177MOL0     C23823   8.016   5.053  11.055 -0.2650  0.0735  0.8505
  177MOL0     C23824   8.037   5.153  10.992  0.1483 -0.6000 -0.6421
  177MOL0     C23825   8.152   4.516  11.214 -0.4150 -0.6663  0.0688
  177MOL0     C23826   8.281   4.448  11.222  1.3334  0.1322 -0.4826
  177MOL0     C23827   8.374   4.488  11.339 -0.0342  0.3407 -0.1083
  177MOL0     H23828   8.700   4.208  10.901  0.6590 -0.2130 -0.4430
  177MOL0     H23829   8.882   4.029  10.909  1.6471 -0.6067  1.5526
  177MOL0     H23830   9.052   3.815  10.966 -1.3911  2.7495 -2.2240
  177MOL0     H23831   9.042   3.977  11.055 -3.3541  1.1852 -0.1024
  177MOL0     H23832   9.233   3.851  11.114  1.0689 -0.8393  1.5979
  177MOL0     H23833   9.133   3.712  11.158 -1.6101  0.1621  1.2335
  177MOL0     H23834   9.046   3.817  11.338  0.7936  0.3135  1.1436
  177MOL0     H23835   9.133   3.978  11.294  2.9537  0.8263 -2.9387
  177MOL0     H23836   9.269   3.722  11.357 -0.2654 -0.1258 -0.5213
  177MOL0     H23837   9.334   3.894  11.322 -2.7596  2.3677 -0.7776
  177MOL0     H23838   9.237   3.983  11.516  2.3235 -0.5551  1.1938
  177MOL0     H23839   9.155   3.830  11.554 -1.4312  1.6846 -1.6688
  177MOL0     H23840   9.353   3.739  11.627 -1.2823  0.2440 -2.5411
  177MOL0     H23841   9.456   3.867  11.547 -1.1757  0.8617 -2.5711
  177MOL0     H23842   9.273   3.929  11.787 -0.5164  4.8479 -0.7311
  177MOL0     H23843   9.377   4.036  11.702 -1.3387  0.9735  1.7563
  177MOL0     H23844   9.478   3.895  11.937  2.5408 -0.1806  0.4747
  177MOL0     H23845   9.526   3.788  11.812  1.2003 -0.3640  0.2221
  177MOL0     H23846   9.653   3.897  11.580 -2.0611 -0.0303 -0.2709
  177MOL0     H23847   9.941   4.137  11.620 -0.4952 -0.2193  0.1159
  177MOL0     H23848   9.873   4.031  11.493 -1.8512 -2.2951  1.3202
  177MOL0     H23849   9.703   4.204  11.451  0.1085 -1.7534  0.1895
  177MOL0     H23850   9.785   4.311  11.579  0.0446 -1.0952  0.8090
  177MOL0     H23851   9.907   4.242  11.316  0.4325 -0.3755 -0.1706
  177MOL0     H23852   9.977   4.336  11.465 -1.3439 -1.0119  2.8046
  177MOL0     H23853   9.889   4.482  11.271 -1.4855  3.5478  0.9420
  177MOL0     H23854   9.852   4.519  11.432 -0.5965  0.6429  0.3296
  177MOL0     H23855   9.457   4.400  11.275 -0.0746  2.4478  0.1692
  177MOL0     H23856   9.357   4.284  11.071 -0.8746  0.9062 -0.9142
  177MOL0     H23857   9.311   3.962  10.828 -0.4375  1.5854  1.2532
  177MOL0     H23858   9.235   3.818  10.633  1.5029 -0.1914 -0.7448
  177MOL0     H23859   9.143   4.031  10.234  0.0868 -0.4778 -1.5062
  177MOL0     H23860   9.294   3.941  10.227 -1.4373  0.8116 -2.1997
  177MOL0     H23861   9.011   3.849  10.187  0.2157  1.8382  1.5289
  177MOL0     H23862   9.129   3.821  10.061 -3.2052 -1.0405 -0.4931
  177MOL0     H23863   9.249   3.669  10.245 -0.1888 -0.9140 -1.0977
  177MOL0     H23864   9.082   3.643  10.285  0.9919 -1.4224  0.0732
  177MOL0     H23865   9.187   3.608   9.999 -0.7474  1.8788 -0.8005
  177MOL0     H23866   9.026   3.571  10.051  0.2754  2.5912 -0.6445
  177MOL0     H23867   9.298   3.455  10.155 -0.3170  1.2774  1.6924
  177MOL0     H23868   9.173   3.364  10.060  0.7370  0.0448 -0.3384
  177MOL0     H23869   9.186   3.439  10.365  2.9750 -0.9067 -0.0369
  177MOL0     H23870   9.036   3.409  10.282  0.8437 -1.7915  1.5790
  177MOL0     H23871   9.281   3.237  10.301 -1.0467  2.9588  3.6479
  177MOL0     H23872   9.155   3.188  10.195  2.1083 -0.5406  0.3701
  177MOL0     H23873   9.104   3.070  10.392  0.3944  0.4790 -1.3657
  177MOL0     H23874   9.164   3.203  10.500 -1.1773  3.0554 -0.9263
  177MOL0     H23875   9.303   4.159  10.381  1.3771  0.3516  0.7566
  177MOL0     H23876   9.362   4.299  10.573 -0.0384  0.0573  1.5738
  177MOL0     H23877   9.759   4.223  10.919 -0.1420 -1.1400  0.2972
  177MOL0     H23878   9.849   4.322  11.125  0.7015 -2.2906 -0.4410
  177MOL0     H23879   8.660   3.809  11.203  0.1140  1.5023  1.7167
  177MOL0     H23880   8.468   3.972  11.166  0.7451 -1.6926  0.8844
  177MOL0     H23881   8.246   4.235  10.969  3.9845 -0.4292  0.7862
  177MOL0     H23882   8.029   4.330  10.946 -0.0173 -1.6628  1.0027
  177MOL0     H23883   7.762   4.575  10.998 -0.6644  3.5409  0.0445
  177MOL0     H23884   7.900   4.515  10.905  3.0561  1.9213  0.4191
  177MOL0     H23885   7.885   4.766  10.883 -0.9931 -0.1237  0.2298
  177MOL0     H23886   8.034   4.715  10.979  0.1070  1.0110 -0.4262
  177MOL0     H23887   7.842   4.772  11.172 -2.7614  1.6854 -0.0838
  177MOL0     H23888   7.788   4.877  11.044 -1.2201 -0.6924  1.3254
  177MOL0     H23889   7.948   4.952  11.231  0.7595 -2.9119  1.4354
  177MOL0     H23890   8.082   4.870  11.135  0.0167 -0.2731 -0.3052
  177MOL0     H23891   8.048   5.245  10.937  0.0913 -0.5268 -0.5313
  177MOL0     H23892   8.115   4.583  11.290 -1.6504  0.5769 -1.5388
  177MOL0     H23893   8.382   4.595  11.363  1.3555  0.8031 -2.3759
  177MOL0     H23894   8.345   4.433  11.429 -0.4822  0.0138 -0.4478
  177MOL0     H23895   8.476   4.455  11.316 -0.8079  0.0740 -3.7526
  178MOL0     O23896   0.934   1.896  10.918 -0.1614  0.1961 -0.4117
  178MOL0     C23897   0.826   1.950  10.896  0.2010  0.3341  0.8461
  178MOL0     O23898   0.737   1.924  10.790  0.4638 -0.9253 -0.3027
  178MOL0     C23899   0.766   1.825  10.699  1.3983 -0.1631 -0.2761
  178MOL0     C23900   0.784   1.690  10.730 -0.4312  0.3285 -0.0725
  178MOL0     C23901   0.804   1.592  10.627 -0.4110 -0.8669 -0.4840
  178MOL0     C23902   0.836   1.644  10.498  0.6301  0.5431 -0.1501
  178MOL0     O23903   0.855   1.558  10.394 -0.0297  0.0179  0.6114
  178MOL0     C23904   0.977   1.478  10.393 -0.6219 -0.5063  0.0427
  178MOL0     C23905   0.943   1.366  10.286 -0.1082  0.7057 -0.6793
  178MOL0     C23906   0.920   1.416  10.143 -0.1473  0.5143  0.1943
  178MOL0     C23907   1.037   1.484  10.057 -0.3284  0.4887 -0.2634
  178MOL0     C23908   0.981   1.537   9.918  0.7173 -0.0369  0.0851
  178MOL0     C23909   1.079   1.642   9.863 -0.2955  0.5180 -0.9896
  178MOL0     C23910   1.041   1.776   9.922  1.6510  0.0030 -0.4791
  178MOL0     C23911   1.153   1.874   9.878 -0.2192 -0.8055 -0.5401
  178MOL0     N23912   1.154   1.896   9.728 -0.3772  0.0230 -0.3664
  178MOL0     C23913   1.271   1.900   9.661  0.9042  0.2850 -0.0204
  178MOL0     C23914   1.232   1.950   9.538  0.1001  0.3593  0.3454
  178MOL0     C23915   1.305   1.991   9.408  0.5866  0.7216 -0.7143
  178MOL0     C23916   1.452   1.969   9.407 -0.6597 -0.2088 -0.4229
  178MOL0     C23917   1.510   2.047   9.284  0.8902 -0.7565 -0.7976
  178MOL0     C23918   1.659   2.022   9.271 -0.7553 -0.7843  0.2689
  178MOL0     O23919   1.742   2.100   9.354 -0.0220  0.2767 -0.3670
  178MOL0     C23920   1.877   2.107   9.353  0.4404  0.8996 -0.2474
  178MOL0     C23921   1.952   2.012   9.285 -0.6732 -0.8008 -0.3623
  178MOL0     C23922   2.090   2.016   9.273 -0.6573  0.0605 -0.1246
  178MOL0     C23923   2.166   2.122   9.333 -0.8861  1.0096  0.2686
  178MOL0     C23924   2.310   2.125   9.324 -0.4694 -0.3219  0.6065
  178MOL0     O23925   2.371   2.027   9.255 -0.1621  0.7441 -0.5506
  178MOL0     C23926   2.512   2.010   9.263  1.1573 -0.5379 -0.2185
  178MOL0     C23927   2.603   2.117   9.251  0.1697  0.3008 -0.6647
  178MOL0     C23928   2.739   2.089   9.254 -0.8563 -0.0467  0.3489
  178MOL0     C23929   2.785   1.955   9.263  0.1443 -0.3798 -0.7836
  178MOL0     O23930   2.922   1.939   9.283 -0.6778 -0.9124 -0.4054
  178MOL0     C23931   2.988   1.809   9.269  0.0288 -1.2290  0.2600
  178MOL0     C23932   3.127   1.823   9.208 -0.8124 -0.4077  0.0591
  178MOL0     C23933   3.145   1.839   9.057 -0.4808 -0.6883 -1.5357
  178MOL0     C23934   3.142   1.706   8.987  0.7431  0.2838  0.1967
  178MOL0     C23935   3.008   1.614   8.997 -0.3066 -0.5945 -0.1013
  178MOL0     C23936   2.893   1.693   8.923  0.0143  0.7755 -0.9293
  178MOL0     C23937   2.755   1.607   8.916  0.0986  0.6360  0.0246
  178MOL0     C23938   2.727   1.516   8.798  0.9029  0.7679  1.1329
  178MOL0    Cl23939   2.723   1.610   8.646  0.6543  0.2845  0.2506
  178MOL0     C23940   2.695   1.844   9.280 -0.3884 -0.5252  0.9857
  178MOL0     C23941   2.562   1.875   9.278  0.8245 -0.3805 -0.2855
  178MOL0     O23942   2.375   2.213   9.393  0.6214 -0.2030 -0.1693
  178MOL0     C23943   2.088   2.210   9.413  0.6550 -0.4652  0.1321
  178MOL0     C23944   1.943   2.198   9.428  0.2376  0.6360  0.2437
  178MOL0     N23945   1.094   1.973   9.541 -0.0880  0.8919 -0.2652
  178MOL0     N23946   1.049   1.933   9.652 -0.6014  0.6777  0.4539
  178MOL0     C23947   0.824   1.779  10.475 -0.3845  0.3998  0.3205
  178MOL0     C23948   0.772   1.871  10.566 -0.5649 -0.2294 -0.1031
  178MOL0     C23949   0.780   2.051  10.994  0.1880  0.6491 -0.3869
  178MOL0     C23950   0.646   2.063  11.023 -0.3975 -0.3211  0.0395
  178MOL0     C23951   0.605   2.141  11.133  0.5513 -0.1100 -0.2175
  178MOL0     C23952   0.684   2.222  11.211 -0.2392 -0.2757 -0.2626
  178MOL0     O23953   0.625   2.309  11.309  0.5019 -0.1992 -1.0764
  178MOL0     C23954   0.697   2.408  11.387  0.0851  0.0160 -0.1961
  178MOL0     C23955   0.783   2.349  11.494 -0.2952 -0.4420 -0.3804
  178MOL0     C23956   0.712   2.242  11.584  0.2515 -0.1945 -0.5229
  178MOL0     C23957   0.619   2.328  11.676  0.5864 -0.3418  0.6250
  178MOL0     C23958   0.516   2.257  11.749 -0.2672 -0.0881 -0.2195
  178MOL0     C23959   0.424   2.202  11.806  0.9298  0.0736 -0.4461
  178MOL0     C23960   0.822   2.229  11.174 -0.9168  0.6517  0.2606
  178MOL0     C23961   0.865   2.135  11.070  0.3353 -0.9132  1.5634
  178MOL0     C23962   1.013   2.151  11.036 -1.2410  0.4957 -0.0251
  178MOL0     H23963   0.768   1.649  10.829  1.1473 -0.2133 -0.0247
  178MOL0     H23964   0.813   1.488  10.657  1.1711  0.3825  4.0994
  178MOL0     H23965   1.053   1.551  10.362 -2.6326  1.6574 -0.0365
  178MOL0     H23966   1.006   1.433  10.488  0.1967  1.8834  1.0104
  178MOL0     H23967   0.855   1.313  10.325 -1.3277  1.9418 -1.6513
  178MOL0     H23968   1.016   1.284  10.290 -0.3049  0.5605  0.3327
  178MOL0     H23969   0.845   1.495  10.155  0.0476  0.3526  3.2531
  178MOL0     H23970   0.869   1.335  10.090 -2.2426  0.2035  2.5198
  178MOL0     H23971   1.067   1.570  10.117  0.0535  0.8322 -0.9373
  178MOL0     H23972   1.118   1.410  10.057 -1.0291 -0.4090  2.7388
  178MOL0     H23973   0.970   1.458   9.844  0.4519 -0.9210  1.0454
  178MOL0     H23974   0.883   1.585   9.927  2.3408  3.4579  0.8515
  178MOL0     H23975   1.185   1.623   9.880  0.0244  1.5383 -1.7238
  178MOL0     H23976   1.079   1.638   9.754 -0.3102  1.3626 -1.0306
  178MOL0     H23977   1.038   1.779  10.031  2.2397 -4.6042 -0.1412
  178MOL0     H23978   0.944   1.808   9.882  1.7443  1.5291  0.4228
  178MOL0     H23979   1.133   1.969   9.928 -0.5605  0.0657 -2.2582
  178MOL0     H23980   1.250   1.833   9.908  1.1074  1.0146 -2.0704
  178MOL0     H23981   1.368   1.881   9.704 -0.0666 -0.7872  1.8367
  178MOL0     H23982   1.264   1.925   9.330  1.8047 -1.5615  0.4813
  178MOL0     H23983   1.292   2.099   9.397  2.5197  1.4401  2.7884
  178MOL0     H23984   1.502   2.004   9.498  0.6019 -1.9605 -0.4026
  178MOL0     H23985   1.479   1.864   9.418  1.4939  0.2189 -1.2296
  178MOL0     H23986   1.485   2.152   9.305  2.3251 -0.8033  1.4184
  178MOL0     H23987   1.456   2.011   9.196 -0.4932  1.4643 -0.9574
  178MOL0     H23988   1.688   2.045   9.168 -1.8629  2.4005  0.5574
  178MOL0     H23989   1.669   1.914   9.281 -1.5502 -0.7485  1.8008
  178MOL0     H23990   1.905   1.928   9.236  0.7590 -1.3179 -0.9059
  178MOL0     H23991   2.144   1.944   9.213 -1.2540  0.4492 -1.1489
  178MOL0     H23992   2.567   2.218   9.244  0.2580  0.5549  1.9355
  178MOL0     H23993   2.812   2.169   9.259  1.0655 -1.8111  2.9869
  178MOL0     H23994   2.990   1.745   9.357  1.0572 -1.0449  0.3798
  178MOL0     H23995   2.940   1.750   9.190  1.9733 -0.9440 -1.2127
  178MOL0     H23996   3.172   1.915   9.248  2.7754 -2.0703  0.1906
  178MOL0     H23997   3.183   1.733   9.234 -4.6987 -2.9463  0.4481
  178MOL0     H23998   3.065   1.900   9.016 -0.6407  0.2589  0.0680
  178MOL0     H23999   3.244   1.886   9.048 -0.1604 -0.0423  2.9509
  178MOL0     H24000   3.229   1.655   9.030  1.7263  1.1618 -0.7101
  178MOL0     H24001   3.155   1.730   8.881  0.1803 -1.3444 -0.2745
  178MOL0     H24002   2.983   1.580   9.098  1.1000  0.7713  0.7559
  178MOL0     H24003   3.031   1.524   8.940  0.2563  0.0670 -0.9419
  178MOL0     H24004   2.876   1.789   8.973  0.6013  1.3234 -1.7565
  178MOL0     H24005   2.931   1.718   8.823  2.0710 -0.7896 -0.6069
  178MOL0     H24006   2.670   1.675   8.906 -2.7774 -2.7062 -0.0936
  178MOL0     H24007   2.738   1.552   9.009 -0.0409 -0.3803 -0.5817
  178MOL0     H24008   2.798   1.433   8.796  2.9306  2.3952 -1.7414
  178MOL0     H24009   2.627   1.472   8.808 -0.7151  3.6003 -1.2786
  178MOL0     H24010   2.746   1.750   9.296  1.9030  0.5690  0.5488
  178MOL0     H24011   2.489   1.795   9.273  3.0911 -2.5841 -0.5082
  178MOL0     H24012   2.132   2.289   9.473  1.7990 -0.2615 -0.9543
  178MOL0     H24013   1.891   2.258   9.502 -0.2832  0.4352  0.0418
  178MOL0     H24014   0.838   1.813  10.373  0.9207  2.1281  1.0168
  178MOL0     H24015   0.753   1.975  10.544 -3.4264 -0.1611  2.1231
  178MOL0     H24016   0.574   2.009  10.963 -0.1975  0.8087 -1.2787
  178MOL0     H24017   0.499   2.125  11.145  0.2974  1.7283  0.4036
  178MOL0     H24018   0.618   2.467  11.434  0.3383 -1.2192  1.9210
  178MOL0     H24019   0.751   2.481  11.326  0.7353  2.0984  2.6709
  178MOL0     H24020   0.817   2.433  11.555 -0.7208  0.4605 -1.3582
  178MOL0     H24021   0.873   2.305  11.450  0.5293  0.1903  0.6169
  178MOL0     H24022   0.789   2.203  11.652  2.0747  0.5048 -2.0977
  178MOL0     H24023   0.671   2.159  11.526  0.3928  0.0287 -0.9472
  178MOL0     H24024   0.685   2.375  11.749 -0.5700  2.6346 -0.0999
  178MOL0     H24025   0.574   2.407  11.615  0.2108 -1.9763 -1.3585
  178MOL0     H24026   0.340   2.150  11.846  0.5015  2.4540  2.0460
  178MOL0     H24027   0.884   2.303  11.223 -1.6527  1.5012 -0.0679
  178MOL0     H24028   1.061   2.224  11.102 -1.4292  0.8114 -0.2386
  178MOL0     H24029   1.070   2.058  11.045  2.0642  2.3032 -0.6938
  178MOL0     H24030   1.026   2.175  10.930  0.8266  0.7861  0.2444
  179MOL0     O24031   2.225   5.767   4.133  0.0515 -0.1019 -0.3985
  179MOL0     C24032   2.338   5.706   4.143 -0.2878 -1.3917 -0.3023
  179MOL0     O24033   2.446   5.744   4.214  0.1919 -0.2036  0.0963
  179MOL0     C24034   2.431   5.863   4.275  0.2234  1.1243  0.1072
  179MOL0     C24035   2.389   5.886   4.409  0.2487 -0.6035 -0.4584
  179MOL0     C24036   2.398   6.015   4.462  0.1387 -0.3123 -0.4570
  179MOL0     C24037   2.453   6.123   4.397 -0.6206  0.2979  0.5844
  179MOL0     O24038   2.464   6.251   4.443  0.1964  0.1060  0.0426
  179MOL0     C24039   2.450   6.261   4.586 -0.6254  0.1042  0.1051
  179MOL0     C24040   2.508   6.400   4.630 -0.1033  0.7071  0.8933
  179MOL0     C24041   2.515   6.399   4.781 -0.0497  0.5170  0.7669
  179MOL0     C24042   2.597   6.530   4.828 -0.1968  0.0430 -0.1232
  179MOL0     C24043   2.751   6.522   4.810 -0.0896 -0.0077 -0.8734
  179MOL0     C24044   2.832   6.620   4.899  0.5270  0.2958  0.7249
  179MOL0     C24045   2.803   6.762   4.859 -0.6056  0.8794  1.3032
  179MOL0     C24046   2.913   6.860   4.903  0.5098 -0.3164 -0.8650
  179MOL0     N24047   2.868   6.999   4.891  0.2104 -0.7196  0.0194
  179MOL0     C24048   2.922   7.111   4.952 -0.0788  0.9494  0.0810
  179MOL0     C24049   2.858   7.212   4.899  0.9796 -0.3752  0.6006
  179MOL0     C24050   2.876   7.357   4.928  0.8440  0.0301 -0.4186
  179MOL0     C24051   2.868   7.386   5.078 -0.4420  0.3880 -0.0006
  179MOL0     C24052   2.736   7.327   5.132 -0.0438  0.2906 -0.3142
  179MOL0     C24053   2.716   7.412   5.256  0.5067 -0.5955 -0.7193
  179MOL0     O24054   2.593   7.365   5.327 -0.3327  0.1110 -0.5689
  179MOL0     C24055   2.515   7.449   5.407  0.6748  0.1002 -0.0333
  179MOL0     C24056   2.574   7.556   5.470 -0.5215  0.0755 -0.2686
  179MOL0     C24057   2.502   7.632   5.558  0.1949 -0.3225 -0.7239
  179MOL0     C24058   2.364   7.615   5.591  0.4027  0.1045 -1.3431
  179MOL0     C24059   2.282   7.699   5.676  0.5067 -0.3941 -0.5374
  179MOL0     O24060   2.176   7.650   5.750 -0.1875 -0.0187  0.3241
  179MOL0     C24061   2.113   7.727   5.857 -1.1734  0.5422  0.4141
  179MOL0     C24062   2.199   7.779   5.960  0.4973  0.7801  0.2518
  179MOL0     C24063   2.142   7.844   6.064 -0.9890 -0.6756 -0.5011
  179MOL0     C24064   2.005   7.857   6.072 -0.6504 -0.1982  0.2781
  179MOL0     O24065   1.944   7.908   6.177 -0.1531  0.2314 -0.0835
  179MOL0     C24066   1.995   8.032   6.220 -1.4556  0.2508  0.0714
  179MOL0     C24067   1.901   8.146   6.194 -0.4290  0.3942  0.5856
  179MOL0     C24068   1.876   8.168   6.041 -0.5858 -0.1510  0.0608
  179MOL0     C24069   1.990   8.241   5.985 -0.3233 -0.6696 -0.2505
  179MOL0     C24070   1.963   8.259   5.828  0.4028  0.0825  0.0626
  179MOL0     C24071   2.080   8.339   5.760  0.3303  0.4431  0.7175
  179MOL0     C24072   2.062   8.317   5.614  0.9737 -1.1463 -0.4883
  179MOL0     C24073   2.131   8.431   5.535  0.7882 -0.0857 -0.2165
  179MOL0    Cl24074   2.307   8.440   5.575  0.5323 -0.1268  0.7773
  179MOL0     C24075   1.926   7.805   5.983 -0.5771 -0.0277 -0.8926
  179MOL0     C24076   1.976   7.743   5.871 -0.0035  0.1609 -0.2955
  179MOL0     O24077   2.325   7.814   5.687  0.0212 -0.0046  0.3795
  179MOL0     C24078   2.308   7.504   5.532 -0.6202 -0.1890 -0.3271
  179MOL0     C24079   2.381   7.418   5.440  0.2844 -0.2898 -0.5652
  179MOL0     N24080   2.756   7.169   4.815 -0.0711  0.6585  0.0800
  179MOL0     N24081   2.770   7.044   4.805 -0.9036  0.3756  0.8236
  179MOL0     C24082   2.504   6.097   4.269 -1.0050 -0.4338 -0.3263
  179MOL0     C24083   2.494   5.973   4.210  0.0910  0.0256 -0.3167
  179MOL0     C24084   2.363   5.577   4.070 -0.0572 -1.1556 -0.5114
  179MOL0     C24085   2.407   5.465   4.150  0.6866 -0.6683 -0.0660
  179MOL0     C24086   2.445   5.348   4.093  0.9162 -0.5443  1.2444
  179MOL0     C24087   2.403   5.321   3.957  1.4611 -0.2269 -0.3407
  179MOL0     O24088   2.401   5.193   3.905 -0.9514  0.7809  0.2146
  179MOL0     C24089   2.408   5.177   3.767  0.4640 -0.2711  0.5489
  179MOL0     C24090   2.440   5.027   3.719  1.0710 -0.8153  0.3350
  179MOL0     C24091   2.327   4.924   3.750  0.0055 -0.2277 -0.6247
  179MOL0     C24092   2.363   4.780   3.737  0.2825 -0.3324  0.0415
  179MOL0     C24093   2.337   4.744   3.595 -0.4118  0.5532 -0.3434
  179MOL0     C24094   2.336   4.669   3.498 -0.2577  0.5766 -0.1066
  179MOL0     C24095   2.343   5.429   3.884 -0.1824 -0.3463  0.0588
  179MOL0     C24096   2.332   5.555   3.936 -0.8304 -0.6281  0.0226
  179MOL0     C24097   2.281   5.678   3.861  0.1230 -1.0928 -0.2604
  179MOL0     H24098   2.348   5.807   4.470 -3.0077  1.7518  0.6993
  179MOL0     H24099   2.339   6.043   4.549 -1.2260  3.0619 -2.2746
  179MOL0     H24100   2.353   6.254   4.635  0.4033 -0.8682  2.0951
  179MOL0     H24101   2.504   6.179   4.634  0.1662  1.0262  0.8393
  179MOL0     H24102   2.437   6.469   4.583 -3.5377 -4.4917 -2.7185
  179MOL0     H24103   2.604   6.431   4.588 -0.1699  3.0087  2.2259
  179MOL0     H24104   2.557   6.307   4.822  1.3606  1.2284  0.9880
  179MOL0     H24105   2.415   6.400   4.824 -0.3649 -0.7322  0.1184
  179MOL0     H24106   2.562   6.616   4.772  0.5371 -0.3589 -1.2220
  179MOL0     H24107   2.581   6.556   4.933  0.6987 -2.1795  0.6223
  179MOL0     H24108   2.779   6.424   4.849  2.2125  1.6821  2.1888
  179MOL0     H24109   2.792   6.538   4.710 -1.2334  2.2385 -1.0582
  179MOL0     H24110   2.801   6.599   5.002  2.3771 -1.8202  0.9340
  179MOL0     H24111   2.939   6.596   4.894  0.4274 -0.0371  0.1821
  179MOL0     H24112   2.713   6.790   4.914 -3.4417  2.0621 -3.3842
  179MOL0     H24113   2.769   6.775   4.755  1.0952  0.7861  0.7036
  179MOL0     H24114   2.942   6.844   5.007 -2.0499  0.6021  0.0942
  179MOL0     H24115   2.992   6.852   4.827  1.9560  2.2153  0.2467
  179MOL0     H24116   3.022   7.129   4.991  0.9002 -0.3004 -1.7082
  179MOL0     H24117   2.980   7.385   4.908  1.1017 -1.2635 -0.9437
  179MOL0     H24118   2.819   7.431   4.871  0.2025  0.3955  0.6665
  179MOL0     H24119   2.951   7.338   5.129  0.1741  0.5668 -0.8194
  179MOL0     H24120   2.875   7.495   5.090  1.8068  0.3863 -0.7969
  179MOL0     H24121   2.754   7.222   5.159  1.9561  0.6935  0.0611
  179MOL0     H24122   2.641   7.333   5.078 -0.0279 -1.2769 -0.5732
  179MOL0     H24123   2.717   7.518   5.230 -0.0155 -0.4289 -0.1044
  179MOL0     H24124   2.793   7.392   5.330  1.7454  1.4428 -1.3976
  179MOL0     H24125   2.681   7.569   5.469 -0.3436 -1.2821 -1.1580
  179MOL0     H24126   2.562   7.714   5.595 -1.3402  2.3971 -3.7891
  179MOL0     H24127   2.307   7.773   5.947  0.3368  0.6055 -1.1916
  179MOL0     H24128   2.212   7.884   6.136 -0.6374 -1.7521 -0.2258
  179MOL0     H24129   1.991   8.018   6.328 -1.6657  2.8104  0.4406
  179MOL0     H24130   2.088   8.066   6.172 -3.4237  2.3016 -2.5883
  179MOL0     H24131   1.805   8.122   6.239 -0.6649 -1.7182 -0.9046
  179MOL0     H24132   1.944   8.232   6.246  1.0189 -1.6294  2.9723
  179MOL0     H24133   1.854   8.075   5.987  1.4998  0.8991 -2.9195
  179MOL0     H24134   1.791   8.236   6.031 -0.1533  0.3999  0.0764
  179MOL0     H24135   2.083   8.186   5.999  1.4737  2.4631  0.9805
  179MOL0     H24136   2.001   8.336   6.037 -1.9016 -2.7549  4.4106
  179MOL0     H24137   1.869   8.308   5.804  1.4706  2.4599  0.4643
  179MOL0     H24138   1.960   8.159   5.784  2.3127  0.2492 -0.5513
  179MOL0     H24139   2.091   8.441   5.797  1.1307  0.2757  0.9711
  179MOL0     H24140   2.174   8.287   5.778  1.0837  0.4832 -2.5861
  179MOL0     H24141   1.954   8.307   5.608  0.0130  2.1008  4.6680
  179MOL0     H24142   2.106   8.221   5.586  1.5493 -1.0737  0.1287
  179MOL0     H24143   2.118   8.405   5.430 -2.0372 -0.9398  0.2753
  179MOL0     H24144   2.077   8.524   5.554  2.3491  0.7143  0.4972
  179MOL0     H24145   1.822   7.835   5.984 -0.1050  1.6968  0.4404
  179MOL0     H24146   1.910   7.704   5.794 -0.1771  0.7563 -0.4553
  179MOL0     H24147   2.202   7.485   5.533 -0.6911 -0.2185 -2.7132
  179MOL0     H24148   2.327   7.334   5.397 -1.7815  0.9778 -0.5597
  179MOL0     H24149   2.545   6.187   4.225  1.0701 -0.9698  0.4262
  179MOL0     H24150   2.525   5.959   4.107 -0.5552 -1.6703 -0.3125
  179MOL0     H24151   2.427   5.494   4.253  0.5401  0.2348 -0.2780
  179MOL0     H24152   2.480   5.264   4.151  1.6067 -0.7154  0.5926
  179MOL0     H24153   2.475   5.250   3.721 -2.2936  2.1692  0.1341
  179MOL0     H24154   2.307   5.188   3.726  0.6702 -2.0210 -0.5132
  179MOL0     H24155   2.530   5.000   3.775  0.1865  0.0134  2.2463
  179MOL0     H24156   2.464   5.020   3.612 -0.3544 -0.4792 -0.0233
  179MOL0     H24157   2.231   4.942   3.701 -0.4117  0.8338  0.5418
  179MOL0     H24158   2.304   4.941   3.855 -0.9475  0.6550 -0.9520
  179MOL0     H24159   2.467   4.757   3.760 -0.2371 -2.6611  0.2759
  179MOL0     H24160   2.303   4.725   3.810 -0.0190  1.7125  1.4387
  179MOL0     H24161   2.318   4.589   3.429 -1.2153 -1.5912  2.4928
  179MOL0     H24162   2.312   5.416   3.781 -2.4256  1.3240  0.4405
  179MOL0     H24163   2.317   5.774   3.899 -1.5221 -0.4831 -0.1428
  179MOL0     H24164   2.281   5.671   3.751 -3.1007 -1.0371 -0.3593
  179MOL0     H24165   2.176   5.687   3.888  0.9601  0.7254  2.8832
  180MOL0     O24166   9.563   9.969   6.190 -0.0562 -0.1717 -0.0286
  180MOL0     C24167   9.454   9.914   6.200 -0.5123 -0.0254 -1.0593
  180MOL0     O24168   9.410   9.811   6.130  0.0745 -0.9384  0.6917
  180MOL0     C24169   9.428   9.804   5.997 -0.4695  0.0902 -0.0133
  180MOL0     C24170   9.466   9.682   5.939 -0.6108 -0.2577  0.4870
  180MOL0     C24171   9.503   9.655   5.811  0.1908  0.1141  0.7139
  180MOL0     C24172   9.520   9.767   5.729 -0.9255  0.3896  0.2799
  180MOL0     O24173   9.580   9.760   5.603  0.0882 -0.1968  0.2140
  180MOL0     C24174   9.609   9.640   5.543  0.3580 -0.4534 -0.4730
  180MOL0     C24175   9.629   9.669   5.396 -0.8389  0.2849 -0.2842
  180MOL0     C24176   9.618   9.552   5.301 -0.7750  0.3132  1.2781
  180MOL0     C24177   9.689   9.413   5.324 -0.2476  0.0050  1.4104
  180MOL0     C24178   9.691   9.313   5.208 -0.7553 -0.0503 -0.3302
  180MOL0     C24179   9.556   9.253   5.171 -0.3731  0.2340  1.2662
  180MOL0     C24180   9.550   9.207   5.026  0.7111  0.0175  1.3844
  180MOL0     C24181   9.631   9.084   5.006 -0.1993 -0.0902 -0.7837
  180MOL0     N24182   9.603   9.018   4.880  0.3554  0.1876  0.4420
  180MOL0     C24183   9.628   9.055   4.752  0.2997  0.8310 -0.1357
  180MOL0     C24184   9.582   8.952   4.673  0.6343  0.1284  0.2136
  180MOL0     C24185   9.580   8.924   4.526  0.6749 -0.9727  0.4022
  180MOL0     C24186   9.448   8.960   4.437  0.3030  0.4738 -0.4532
  180MOL0     C24187   9.345   8.847   4.436 -0.1802  0.0010 -0.3248
  180MOL0     C24188   9.258   8.863   4.311 -0.3195  0.6550  1.2129
  180MOL0     O24189   9.151   8.962   4.303  0.6691  0.1467 -0.1619
  180MOL0     C24190   9.042   8.934   4.386 -0.3661  0.4545  0.1144
  180MOL0     C24191   9.014   9.034   4.479  0.1041  0.0146  0.4350
  180MOL0     C24192   8.891   9.026   4.551  0.7758 -0.0754 -0.1613
  180MOL0     C24193   8.806   8.915   4.541 -0.1981 -0.0395  0.8363
  180MOL0     C24194   8.680   8.893   4.623 -0.8229 -0.7547 -0.2839
  180MOL0     O24195   8.609   8.774   4.604  0.5785 -0.5831 -0.9072
  180MOL0     C24196   8.486   8.766   4.656  0.0940  0.2460 -0.1106
  180MOL0     C24197   8.389   8.858   4.615 -0.0836 -0.5196 -0.2231
  180MOL0     C24198   8.249   8.860   4.662  0.5433  0.5510 -0.2152
  180MOL0     C24199   8.207   8.755   4.753  1.5489  0.3836 -0.1466
  180MOL0     O24200   8.074   8.731   4.804 -0.3606  0.0359 -1.1772
  180MOL0     C24201   7.964   8.817   4.759 -0.4116  0.2117 -0.5203
  180MOL0     C24202   7.843   8.815   4.851  0.2149 -0.2063  0.1928
  180MOL0     C24203   7.809   8.679   4.910 -0.7490  0.5683 -0.0276
  180MOL0     C24204   7.783   8.579   4.790  0.8278  0.0011 -0.2399
  180MOL0     C24205   7.762   8.442   4.854 -0.7203  0.6481  0.1376
  180MOL0     C24206   7.776   8.317   4.766  1.0476 -0.0878 -0.4079
  180MOL0     C24207   7.674   8.303   4.652  0.8200  0.3333  0.3566
  180MOL0     C24208   7.521   8.333   4.677  0.6256 -0.0102 -0.0483
  180MOL0    Cl24209   7.465   8.220   4.797 -0.2820  0.5251  0.7878
  180MOL0     C24210   8.303   8.658   4.787 -0.0933 -0.4022 -0.2910
  180MOL0     C24211   8.438   8.672   4.749 -0.0564  0.6313 -0.0451
  180MOL0     O24212   8.653   8.987   4.691  0.0665  0.7730  1.3345
  180MOL0     C24213   8.841   8.817   4.439  0.2952  0.9497  1.2636
  180MOL0     C24214   8.953   8.824   4.361 -0.2026 -0.9211  0.5607
  180MOL0     N24215   9.506   8.882   4.756  0.1479 -0.0611  0.2203
  180MOL0     N24216   9.526   8.909   4.877  0.5529  1.1304 -0.0649
  180MOL0     C24217   9.497   9.897   5.781  0.3581  0.4337  0.2083
  180MOL0     C24218   9.449   9.908   5.909 -0.2997 -0.4388 -1.1960
  180MOL0     C24219   9.385   9.938   6.327 -0.9669  1.0247 -0.0189
  180MOL0     C24220   9.466   9.956   6.443 -0.1070  0.5074 -0.0934
  180MOL0     C24221   9.405   9.990   6.565 -0.0421  0.3968 -0.7056
  180MOL0     C24222   9.273   9.983   6.575  0.2632 -0.3130  0.2288
  180MOL0     O24223   9.218  10.000   6.698 -0.3120  0.0273 -0.0401
  180MOL0     C24224   9.111   9.910   6.740  0.7088 -0.4905 -0.1064
  180MOL0     C24225   9.042   9.962   6.862 -0.2907  0.6972  0.1820
  180MOL0     C24226   8.986  10.107   6.860 -0.2501 -1.3385 -0.7052
  180MOL0     C24227   8.858  10.134   6.776 -0.0590  0.4347  0.0627
  180MOL0     C24228   8.857  10.096   6.636 -0.4818  0.3202 -0.6587
  180MOL0     C24229   8.866  10.080   6.514  0.4757  0.2528  0.0788
  180MOL0     C24230   9.192   9.963   6.463 -0.2669 -1.0492 -0.3435
  180MOL0     C24231   9.240   9.930   6.341  0.1204  0.9087 -0.3601
  180MOL0     C24232   9.146   9.913   6.231 -0.2559  0.1335  0.5388
  180MOL0     H24233   9.459   9.588   5.994 -2.0697 -0.2651  0.3134
  180MOL0     H24234   9.518   9.551   5.785  1.8767  0.3059  0.8037
  180MOL0     H24235   9.699   9.591   5.583  0.1463 -1.5880 -1.3235
  180MOL0     H24236   9.529   9.567   5.561 -1.3225  1.3985 -0.1808
  180MOL0     H24237   9.723   9.722   5.380  0.0258 -1.6653 -2.1746
  180MOL0     H24238   9.554   9.742   5.362 -0.9633 -0.0696 -0.7896
  180MOL0     H24239   9.635   9.591   5.201  3.7561 -1.0588  1.3054
  180MOL0     H24240   9.511   9.528   5.289 -1.1080  1.3051  2.1179
  180MOL0     H24241   9.793   9.437   5.345  0.0568 -0.7551  0.8041
  180MOL0     H24242   9.650   9.366   5.415  1.7869 -1.2329  1.6960
  180MOL0     H24243   9.747   9.358   5.125 -0.8900  1.6204  0.4440
  180MOL0     H24244   9.748   9.226   5.243 -1.5156 -0.7857 -0.8823
  180MOL0     H24245   9.542   9.167   5.237 -0.1458 -1.6183 -0.9752
  180MOL0     H24246   9.487   9.337   5.182 -0.0031  0.5531  1.1582
  180MOL0     H24247   9.596   9.291   4.974  1.9695  0.1500  2.6569
  180MOL0     H24248   9.445   9.195   4.997  0.5607  0.0598  1.8865
  180MOL0     H24249   9.736   9.115   5.000  0.4000 -2.1597 -2.1610
  180MOL0     H24250   9.632   9.005   5.081  1.7917 -2.4106 -3.0391
  180MOL0     H24251   9.676   9.144   4.715  0.0283  1.4577  0.9784
  180MOL0     H24252   9.662   8.983   4.486  0.4816 -0.0350  1.3607
  180MOL0     H24253   9.596   8.816   4.513 -0.7849 -1.2678  0.8394
  180MOL0     H24254   9.404   9.059   4.455 -0.1195  0.2465 -0.2327
  180MOL0     H24255   9.488   8.960   4.335 -2.1613 -3.2832 -1.6176
  180MOL0     H24256   9.290   8.854   4.530 -1.0663  0.4644 -0.8696
  180MOL0     H24257   9.393   8.749   4.440 -0.4194 -0.1172 -0.3200
  180MOL0     H24258   9.216   8.763   4.316 -1.0312  0.9837  2.1118
  180MOL0     H24259   9.331   8.875   4.230 -1.3965 -1.6820 -0.2018
  180MOL0     H24260   9.084   9.114   4.504  1.3566 -0.9158  0.0332
  180MOL0     H24261   8.868   9.108   4.618  0.1912 -0.8894  0.6507
  180MOL0     H24262   8.412   8.937   4.545 -0.4299 -1.6618 -1.6614
  180MOL0     H24263   8.171   8.929   4.634 -1.0893  1.2006  4.9971
  180MOL0     H24264   7.995   8.919   4.736  0.0860  0.7597  2.2365
  180MOL0     H24265   7.938   8.768   4.665 -0.8920 -2.4910  0.9045
  180MOL0     H24266   7.830   8.900   4.918 -0.8883 -0.2316  0.0363
  180MOL0     H24267   7.767   8.829   4.773  0.9287 -1.9927 -0.8960
  180MOL0     H24268   7.886   8.639   4.977 -2.7523  0.4240  2.3100
  180MOL0     H24269   7.731   8.690   4.985  0.1711 -1.0506  1.2290
  180MOL0     H24270   7.872   8.584   4.727  0.7184  0.3531 -0.3698
  180MOL0     H24271   7.688   8.606   4.742  1.1970  1.0017 -0.4342
  180MOL0     H24272   7.664   8.446   4.902 -0.4038 -1.4088  1.0513
  180MOL0     H24273   7.825   8.435   4.943 -1.2224 -2.2442  0.3634
  180MOL0     H24274   7.877   8.316   4.724  2.0344 -1.3437  1.8380
  180MOL0     H24275   7.773   8.220   4.817  0.4816 -1.6506 -3.2054
  180MOL0     H24276   7.676   8.201   4.614 -4.5053  0.0547  0.0404
  180MOL0     H24277   7.717   8.367   4.574  2.4455  1.6860  2.2591
  180MOL0     H24278   7.514   8.436   4.713 -2.6524 -0.5542  1.2485
  180MOL0     H24279   7.460   8.319   4.587  1.9133 -0.3609 -0.8869
  180MOL0     H24280   8.270   8.575   4.849  0.2218 -0.7194 -0.5398
  180MOL0     H24281   8.506   8.603   4.799 -0.0997  1.2809  0.9524
  180MOL0     H24282   8.781   8.729   4.419  1.6725  0.4918 -1.1728
  180MOL0     H24283   8.967   8.754   4.279  3.6297  1.2575 -0.8726
  180MOL0     H24284   9.522   9.982   5.718 -1.0778 -0.4393 -1.6343
  180MOL0     H24285   9.430  10.005   5.955 -0.7007 -0.7324 -0.7344
  180MOL0     H24286   9.573   9.936   6.447 -0.3816 -1.1250 -0.0486
  180MOL0     H24287   9.465  10.001   6.654  3.0538 -2.4265 -2.1946
  180MOL0     H24288   9.150   9.809   6.750  0.8341 -0.2814  1.8479
  180MOL0     H24289   9.028   9.919   6.668  0.1576 -0.5504  0.5138
  180MOL0     H24290   9.114   9.955   6.944  2.2640  4.5421 -1.4764
  180MOL0     H24291   8.961   9.894   6.892  0.5762 -1.2572 -1.6841
  180MOL0     H24292   9.064  10.181   6.840 -2.2607  0.9756 -0.5414
  180MOL0     H24293   8.942  10.140   6.954 -1.7231 -2.4721 -0.9615
  180MOL0     H24294   8.782  10.069   6.821 -0.5980  2.2846  1.9789
  180MOL0     H24295   8.817  10.234   6.789 -0.9674  0.0376  0.3430
  180MOL0     H24296   8.882  10.075   6.409 -1.1664 -0.7468 -0.1628
  180MOL0     H24297   9.085   9.966   6.483  0.0790  2.0956  1.8078
  180MOL0     H24298   9.167   9.969   6.139 -2.6223 -1.6980 -1.2340
  180MOL0     H24299   9.144   9.808   6.200  1.0774  0.3147 -0.2584
  180MOL0     H24300   9.047   9.950   6.259 -0.7258  0.4193 -1.3422
  181MOL0     O24301   4.938   7.219   5.788  0.0382 -0.1690  0.1864
  181MOL0     C24302   4.865   7.179   5.877 -0.9120 -0.2481 -0.0246
  181MOL0     O24303   4.787   7.068   5.869 -0.4982  0.4632 -1.2646
  181MOL0     C24304   4.761   7.011   5.746 -0.2596 -0.2959 -0.5485
  181MOL0     C24305   4.625   6.994   5.712  0.6754 -0.0030 -0.6320
  181MOL0     C24306   4.590   6.963   5.578  1.2178 -0.5761 -0.6374
  181MOL0     C24307   4.694   6.955   5.481 -0.0978 -0.4541 -0.1521
  181MOL0     O24308   4.654   6.934   5.351  0.6817  0.1821  0.0643
  181MOL0     C24309   4.736   6.893   5.243  0.8647  0.0319 -1.0045
  181MOL0     C24310   4.649   6.839   5.118  0.1328 -0.0366 -0.6134
  181MOL0     C24311   4.555   6.946   5.060 -0.0422 -0.3536 -0.1481
  181MOL0     C24312   4.465   6.902   4.953 -0.3927 -0.4941  0.4460
  181MOL0     C24313   4.508   6.809   4.845  0.5420  0.1053  0.9803
  181MOL0     C24314   4.635   6.870   4.768  0.7407  0.3987 -0.8006
  181MOL0     C24315   4.696   6.779   4.670  0.2407  0.8280  0.7913
  181MOL0     C24316   4.844   6.815   4.645 -0.3875  0.2326  0.4349
  181MOL0     N24317   4.885   6.791   4.508 -0.3949 -0.7075 -0.2339
  181MOL0     C24318   4.868   6.879   4.400 -0.4525  0.4161  0.0645
  181MOL0     C24319   4.905   6.800   4.293 -0.4160  0.1668  0.2570
  181MOL0     C24320   4.942   6.832   4.156  0.3926 -1.0660 -0.1405
  181MOL0     C24321   5.095   6.847   4.124  0.2713  0.3161  0.0382
  181MOL0     C24322   5.199   6.728   4.143  0.1066  0.3719 -0.1314
  181MOL0     C24323   5.216   6.667   4.000 -0.3179 -0.0176  0.4143
  181MOL0     O24324   5.095   6.612   3.942  0.2962  0.5649  0.5876
  181MOL0     C24325   5.083   6.503   3.855 -0.2861 -0.3471  0.1243
  181MOL0     C24326   5.078   6.523   3.723 -0.6233 -0.4306  0.0298
  181MOL0     C24327   5.074   6.407   3.640 -0.3512  0.5384  1.0163
  181MOL0     C24328   5.059   6.276   3.691  0.5388  0.4058  0.0764
  181MOL0     C24329   5.051   6.166   3.602 -0.9186  0.2982  1.2733
  181MOL0     O24330   5.028   6.194   3.469  0.3830  1.0146  0.0861
  181MOL0     C24331   5.059   6.112   3.362 -0.5756 -0.2767 -0.2875
  181MOL0     C24332   5.145   5.995   3.353 -0.3605 -0.4516 -0.5316
  181MOL0     C24333   5.150   5.933   3.231 -0.2117  0.2341  0.2564
  181MOL0     C24334   5.091   5.994   3.117 -1.7706  0.1239  0.1711
  181MOL0     O24335   5.108   5.944   2.989 -0.3248 -0.5190 -0.2865
  181MOL0     C24336   5.222   5.869   2.947 -0.0637 -0.3336 -0.6186
  181MOL0     C24337   5.230   5.861   2.795 -0.3670  1.1360 -0.0441
  181MOL0     C24338   5.152   5.959   2.711  0.4251 -0.0651 -0.5686
  181MOL0     C24339   5.188   5.927   2.560 -0.7195 -0.4144  0.8777
  181MOL0     C24340   5.105   6.026   2.466 -0.1056 -1.1240 -0.0413
  181MOL0     C24341   4.949   6.002   2.481 -0.2721  0.2306  0.0078
  181MOL0     C24342   4.876   6.085   2.374 -0.3638 -0.0488  0.0775
  181MOL0     C24343   4.838   6.007   2.251  0.6675  1.0487 -0.0848
  181MOL0    Cl24344   4.723   6.109   2.157  0.0445  0.0256  0.0120
  181MOL0     C24345   5.010   6.102   3.124  0.7400  0.4050  0.3588
  181MOL0     C24346   4.991   6.158   3.250 -0.8271 -1.1366  0.2648
  181MOL0     O24347   5.100   6.062   3.640  0.6440  0.3255 -0.6136
  181MOL0     C24348   5.037   6.258   3.825 -0.4627 -0.0627 -0.3461
  181MOL0     C24349   5.060   6.368   3.904  0.7268 -0.8871 -0.2376
  181MOL0     N24350   4.935   6.677   4.337  0.5349  1.0623 -0.4474
  181MOL0     N24351   4.935   6.674   4.462  0.1742  0.0102  0.0311
  181MOL0     C24352   4.828   6.966   5.513  0.0583 -0.9174 -1.0646
  181MOL0     C24353   4.864   6.987   5.649  0.4807 -1.1940 -0.1696
  181MOL0     C24354   4.855   7.250   6.007  0.0029  0.2970  0.1787
  181MOL0     C24355   4.815   7.170   6.116  0.4677 -0.2673 -1.5433
  181MOL0     C24356   4.803   7.225   6.236 -0.6602 -0.1724  0.0710
  181MOL0     C24357   4.832   7.364   6.260 -0.0446 -0.4741 -0.7425
  181MOL0     O24358   4.820   7.430   6.380  0.3407  0.1096  0.4175
  181MOL0     C24359   4.814   7.373   6.509 -0.2243  0.3733 -0.8519
  181MOL0     C24360   4.929   7.418   6.598 -0.3170  0.5268  0.5059
  181MOL0     C24361   5.065   7.359   6.541 -0.4225 -0.0101 -0.3749
  181MOL0     C24362   5.141   7.270   6.650  0.2657  0.2093  0.2270
  181MOL0     C24363   5.197   7.354   6.750 -0.0166 -0.7830 -0.0730
  181MOL0     C24364   5.255   7.411   6.839 -0.0041 -0.1251  1.2545
  181MOL0     C24365   4.884   7.440   6.154 -0.2877 -0.0013 -0.3127
  181MOL0     C24366   4.892   7.385   6.023  0.0222 -0.4549  0.0981
  181MOL0     C24367   4.980   7.463   5.926 -0.5383  0.2162  0.9260
  181MOL0     H24368   4.546   6.995   5.787 -0.9029  0.1480 -2.2253
  181MOL0     H24369   4.486   6.949   5.550  0.6921  1.1934  0.2971
  181MOL0     H24370   4.799   6.977   5.214 -0.2694  2.1804  2.1880
  181MOL0     H24371   4.806   6.814   5.273 -0.4070 -0.8075 -0.1068
  181MOL0     H24372   4.587   6.757   5.156 -0.5488  1.9348  2.9897
  181MOL0     H24373   4.719   6.810   5.039  0.4135 -2.1591  0.3520
  181MOL0     H24374   4.612   7.032   5.023 -1.0667 -0.6838 -2.6890
  181MOL0     H24375   4.494   6.983   5.143 -0.0575 -1.4183  0.3241
  181MOL0     H24376   4.383   6.855   5.009  1.5325 -0.0974  3.8762
  181MOL0     H24377   4.426   6.995   4.911  0.8050  0.0744  0.5707
  181MOL0     H24378   4.530   6.709   4.885  0.1435  0.5321  2.3291
  181MOL0     H24379   4.424   6.817   4.775 -0.3615  2.8523  2.2400
  181MOL0     H24380   4.590   6.952   4.711  0.0328  1.4263  1.1349
  181MOL0     H24381   4.716   6.902   4.834 -1.5694  2.1832  1.3981
  181MOL0     H24382   4.628   6.777   4.584 -0.8159 -5.2824  1.3055
  181MOL0     H24383   4.686   6.676   4.704 -2.7524 -0.0831 -2.1973
  181MOL0     H24384   4.866   6.921   4.659  0.8778  0.1955 -1.0312
  181MOL0     H24385   4.906   6.761   4.717 -1.6329 -1.9040  0.0057
  181MOL0     H24386   4.832   6.981   4.403 -0.3988  0.4611 -0.7855
  181MOL0     H24387   4.903   6.752   4.092  0.8962  0.2994 -2.2523
  181MOL0     H24388   4.883   6.920   4.128 -2.2989 -1.8326  2.5470
  181MOL0     H24389   5.106   6.875   4.019  0.3276 -4.6094 -1.5302
  181MOL0     H24390   5.136   6.920   4.195  5.7876 -2.5851  0.4069
  181MOL0     H24391   5.157   6.653   4.210 -2.0827  2.0581  0.5013
  181MOL0     H24392   5.290   6.765   4.191 -0.0073  2.6887 -1.5314
  181MOL0     H24393   5.282   6.581   4.009  3.2575  2.6466  1.8154
  181MOL0     H24394   5.263   6.745   3.939 -1.0639  0.0114 -0.1479
  181MOL0     H24395   5.077   6.624   3.685 -4.2486 -1.0389 -1.8983
  181MOL0     H24396   5.091   6.426   3.535  3.1227  1.2985  1.5990
  181MOL0     H24397   5.198   5.957   3.439 -0.9385 -0.2395 -0.0720
  181MOL0     H24398   5.196   5.838   3.206  2.2222  0.7802  2.2054
  181MOL0     H24399   5.314   5.915   2.984  0.2848 -1.1719 -0.4113
  181MOL0     H24400   5.225   5.769   2.991 -0.6980 -0.0139  0.1836
  181MOL0     H24401   5.336   5.877   2.773  0.3593  0.4223  2.5829
  181MOL0     H24402   5.213   5.757   2.767  1.2850  0.9339 -0.4064
  181MOL0     H24403   5.045   5.937   2.716  0.1180  1.5591  1.2534
  181MOL0     H24404   5.159   6.065   2.737 -1.0093 -0.5991  2.4578
  181MOL0     H24405   5.176   5.820   2.541  3.4860 -1.1852  1.4235
  181MOL0     H24406   5.296   5.945   2.563 -0.9297  1.2299  5.1718
  181MOL0     H24407   5.126   6.005   2.361  1.0480 -0.7675  0.1062
  181MOL0     H24408   5.132   6.131   2.481 -0.9458  0.1318 -5.4459
  181MOL0     H24409   4.915   5.899   2.472  0.9418 -0.1044 -1.0413
  181MOL0     H24410   4.913   6.040   2.577 -1.0089 -0.7046  0.1172
  181MOL0     H24411   4.935   6.172   2.347  0.7718 -0.7480  0.2388
  181MOL0     H24412   4.778   6.112   2.416 -0.5883 -3.6609  2.3088
  181MOL0     H24413   4.927   5.980   2.194 -1.5817 -2.6385 -2.2937
  181MOL0     H24414   4.788   5.912   2.275 -1.1572  2.0447  0.2279
  181MOL0     H24415   4.957   6.136   3.036 -2.3540 -2.5920  0.8405
  181MOL0     H24416   4.924   6.243   3.255  0.9227  0.2620  1.2362
  181MOL0     H24417   5.027   6.163   3.877  0.9174 -0.8095 -1.3604
  181MOL0     H24418   5.050   6.358   4.012 -5.1435  0.9586 -0.2678
  181MOL0     H24419   4.906   6.970   5.438  0.7659  1.4765 -0.3013
  181MOL0     H24420   4.969   7.002   5.670  0.1007  3.3561 -0.6466
  181MOL0     H24421   4.773   7.070   6.102  1.9713 -1.2933  0.7029
  181MOL0     H24422   4.759   7.172   6.320  1.5348 -0.9917  0.7544
  181MOL0     H24423   4.818   7.264   6.497  3.1423  0.6886 -4.5339
  181MOL0     H24424   4.728   7.410   6.566  3.3519  1.9138  4.2773
  181MOL0     H24425   4.911   7.377   6.697 -0.0634 -0.0044  0.3374
  181MOL0     H24426   4.927   7.527   6.597 -0.4948  0.5341  1.2944
  181MOL0     H24427   5.126   7.446   6.513 -0.5152  0.3280  0.4428
  181MOL0     H24428   5.044   7.299   6.452 -2.1643 -1.5245  0.9795
  181MOL0     H24429   5.085   7.198   6.710  2.0852  2.4217  5.1002
  181MOL0     H24430   5.221   7.218   6.596 -0.4450  1.4458 -2.1439
  181MOL0     H24431   5.302   7.469   6.916  2.4434 -0.4946  0.1091
  181MOL0     H24432   4.918   7.540   6.178  2.0984 -1.5892  4.0601
  181MOL0     H24433   5.081   7.422   5.916 -0.1069  1.1702  1.2681
  181MOL0     H24434   4.935   7.466   5.826 -3.1286  0.6085  2.0304
  181MOL0     H24435   4.985   7.570   5.945 -2.2826  1.2790 -3.3588
  182MOL0     O24436   9.526  11.142   7.297  0.0058  0.0766  0.6811
  182MOL0     C24437   9.577  11.105   7.400  0.1831 -1.0236 -1.0260
  182MOL0     O24438   9.651  10.985   7.415 -0.0257 -0.2429 -0.2843
  182MOL0     C24439   9.680  10.908   7.312  0.5821  0.8679 -0.3606
  182MOL0     C24440   9.594  10.881   7.204  0.4653  0.0139 -0.3546
  182MOL0     C24441   9.636  10.796   7.101  0.0899  0.7275  0.3281
  182MOL0     C24442   9.767  10.736   7.101  0.6069  0.3951 -0.2808
  182MOL0     O24443   9.793  10.644   7.007 -0.2494  1.1932 -0.3013
  182MOL0     C24444   9.889  10.541   7.033  0.7102  0.2601  0.0902
  182MOL0     C24445   9.886  10.443   6.910  0.0621 -0.0188 -0.1479
  182MOL0     C24446  10.024  10.371   6.907  0.0084 -0.9179  0.7726
  182MOL0     C24447  10.052  10.289   7.032 -0.1043 -0.3824 -0.1943
  182MOL0     C24448  10.157  10.188   7.011  0.7027 -0.2407 -1.2945
  182MOL0     C24449  10.148  10.078   7.124 -0.2476 -0.8324  0.1224
  182MOL0     C24450  10.263   9.967   7.109  1.0195 -1.0470  0.0898
  182MOL0     C24451  10.197   9.833   7.068  0.1920  0.5206 -0.4628
  182MOL0     N24452  10.232   9.786   6.934 -0.9078 -0.2497  0.3850
  182MOL0     C24453  10.162   9.831   6.823  0.6993  1.7131 -0.3844
  182MOL0     C24454  10.232   9.793   6.722 -0.5493  1.0668 -0.3321
  182MOL0     C24455  10.187   9.820   6.578 -0.8807 -0.2362 -0.3277
  182MOL0     C24456  10.234   9.712   6.488 -0.0819 -0.6807 -0.3123
  182MOL0     C24457  10.196   9.748   6.339 -0.9295 -0.6011 -0.4495
  182MOL0     C24458  10.220   9.621   6.246  0.0267  0.2135 -1.0973
  182MOL0     O24459  10.240   9.662   6.105  1.2232  0.4780 -0.1413
  182MOL0     C24460  10.268   9.561   6.020 -0.0943  0.4592 -0.7631
  182MOL0     C24461  10.389   9.496   6.051 -0.4646  0.2013 -0.6304
  182MOL0     C24462  10.433   9.390   5.974 -0.3039  0.3107 -0.2019
  182MOL0     C24463  10.371   9.366   5.845  0.2609  0.2746  0.1059
  182MOL0     C24464  10.402   9.269   5.756 -1.3036  0.4087  0.1030
  182MOL0     O24465  10.410   9.298   5.619 -0.2922 -0.0369  0.1225
  182MOL0     C24466  10.431   9.180   5.540  0.0882  0.3952 -1.6138
  182MOL0     C24467  10.363   9.183   5.421 -1.1274 -0.1434 -1.1195
  182MOL0     C24468  10.376   9.074   5.327  0.1151 -0.4564 -0.5430
  182MOL0     C24469  10.436   8.958   5.359 -0.6137  0.8051 -0.5162
  182MOL0     O24470  10.430   8.853   5.269 -0.3403  0.7476  0.1930
  182MOL0     C24471  10.476   8.721   5.310 -0.1948 -0.0192 -1.0070
  182MOL0     C24472  10.517   8.661   5.180  0.4580 -0.3505  0.7843
  182MOL0     C24473  10.538   8.510   5.177 -0.4327 -1.4768  0.8440
  182MOL0     C24474  10.407   8.444   5.219  1.1719  0.0275  0.0087
  182MOL0     C24475  10.400   8.291   5.198 -0.1847  0.3117  1.0334
  182MOL0     C24476  10.268   8.226   5.225  0.2882  0.2927  0.3209
  182MOL0     C24477  10.276   8.079   5.188 -0.2708  0.9212 -0.0397
  182MOL0     C24478  10.300   8.030   5.039  0.0467 -0.3339 -0.0924
  182MOL0    Cl24479  10.470   8.050   4.982  0.6696 -0.0854  0.0342
  182MOL0     C24480  10.499   8.946   5.482 -0.4031 -0.7422 -0.4838
  182MOL0     C24481  10.498   9.058   5.570  0.6589  0.2528 -0.0793
  182MOL0     O24482  10.435   9.164   5.811 -0.1077 -0.2762 -0.5589
  182MOL0     C24483  10.262   9.446   5.809 -0.8653 -0.6025  0.2544
  182MOL0     C24484  10.216   9.542   5.899  0.3629 -0.4030 -0.0134
  182MOL0     N24485  10.344   9.725   6.766  0.0226 -0.2545  0.3656
  182MOL0     N24486  10.354   9.735   6.892 -0.0616 -0.0831 -0.5018
  182MOL0     C24487   9.858  10.773   7.196  0.9360  0.4360  0.6299
  182MOL0     C24488   9.809  10.845   7.311 -0.3125 -0.8153 -0.4421
  182MOL0     C24489   9.557  11.203   7.524 -0.8565  0.3104  0.4570
  182MOL0     C24490   9.555  11.347   7.491 -0.9412 -0.7134  0.3680
  182MOL0     C24491   9.553  11.436   7.600  0.6166 -0.1851  0.0681
  182MOL0     C24492   9.554  11.395   7.732 -0.1605  0.1072 -0.1270
  182MOL0     O24493   9.548  11.483   7.837  0.0870  0.7698 -0.4559
  182MOL0     C24494   9.526  11.625   7.818  0.3310 -0.7163  1.1237
  182MOL0     C24495   9.510  11.689   7.953 -0.7823  0.2706  1.2723
  182MOL0     C24496   9.384  11.662   8.033  0.4220 -0.9308 -0.6615
  182MOL0     C24497   9.263  11.731   7.972  0.1766  0.5903 -0.4263
  182MOL0     C24498   9.146  11.669   8.045 -0.4105 -1.2148  0.2853
  182MOL0     C24499   9.048  11.609   8.092 -0.1565  0.0835  0.6489
  182MOL0     C24500   9.563  11.258   7.751  0.2502 -0.2539 -0.5552
  182MOL0     C24501   9.554  11.160   7.652 -1.2903  0.5250  0.2683
  182MOL0     C24502   9.571  11.011   7.689 -0.6525  0.1376 -0.3668
  182MOL0     H24503   9.492  10.916   7.196  0.2311 -0.6826 -0.4983
  182MOL0     H24504   9.556  10.762   7.036  0.5493 -0.5397  0.3886
  182MOL0     H24505   9.991  10.573   7.054  1.6180 -4.6606  5.8389
  182MOL0     H24506   9.868  10.487   7.125 -0.2300  0.5180  0.0335
  182MOL0     H24507   9.877  10.495   6.814  1.2782 -0.0692 -0.3143
  182MOL0     H24508   9.803  10.376   6.934 -0.4572  0.0000 -1.8049
  182MOL0     H24509  10.102  10.448   6.902 -1.2735  0.3390 -3.2213
  182MOL0     H24510  10.016  10.294   6.830 -1.7361 -0.8912  0.8858
  182MOL0     H24511  10.097  10.354   7.108  4.0748 -2.0715 -0.9545
  182MOL0     H24512   9.958  10.248   7.071  0.2045 -1.3346 -0.4427
  182MOL0     H24513  10.144  10.126   6.922  0.7049  1.3633 -2.4671
  182MOL0     H24514  10.252  10.242   7.019  0.8245 -0.6981  1.2033
  182MOL0     H24515  10.164  10.130   7.219 -1.1613 -1.2964  0.5348
  182MOL0     H24516  10.051  10.031   7.111 -0.4487 -0.1251 -1.1750
  182MOL0     H24517  10.312   9.961   7.207 -1.9460 -0.6656  1.7411
  182MOL0     H24518  10.338  10.009   7.042  0.0555  2.7672  1.1289
  182MOL0     H24519  10.234   9.752   7.131 -2.8102 -1.5494 -1.1364
  182MOL0     H24520  10.089   9.820   7.085  0.8460 -2.7995  2.1513
  182MOL0     H24521  10.068   9.885   6.828  0.2100  0.7937  0.8718
  182MOL0     H24522  10.079   9.838   6.578 -0.8978  0.0994  2.4723
  182MOL0     H24523  10.234   9.914   6.548  0.6888 -0.0844  2.3343
  182MOL0     H24524  10.342   9.693   6.497  0.7754 -0.7279 -6.4262
  182MOL0     H24525  10.174   9.626   6.519 -1.2386 -0.4950 -1.9133
  182MOL0     H24526  10.270   9.820   6.304  3.4088 -4.2729  0.2043
  182MOL0     H24527  10.094   9.787   6.341 -0.0491  1.8058  0.4093
  182MOL0     H24528  10.127   9.567   6.231 -2.0831  2.4045  2.5552
  182MOL0     H24529  10.298   9.557   6.288  1.8093  2.7967 -0.2101
  182MOL0     H24530  10.447   9.505   6.142  1.2544  0.0407 -1.6845
  182MOL0     H24531  10.521   9.335   6.007  0.1445 -0.8358 -3.0167
  182MOL0     H24532  10.297   9.263   5.390  0.7340  1.0097 -2.3703
  182MOL0     H24533  10.323   9.061   5.233  3.6751 -1.0493 -2.6745
  182MOL0     H24534  10.572   8.713   5.361  0.2338 -0.9764 -1.9252
  182MOL0     H24535  10.393   8.671   5.361  0.1209  0.2500 -0.2091
  182MOL0     H24536  10.450   8.696   5.101  0.7936  2.6195  1.7006
  182MOL0     H24537  10.614   8.705   5.155  0.8173 -1.3218  0.4375
  182MOL0     H24538  10.559   8.491   5.071  0.0575 -1.0588  0.8602
  182MOL0     H24539  10.618   8.467   5.238  0.5586 -1.2186 -0.2392
  182MOL0     H24540  10.330   8.482   5.152  2.8029 -2.0243 -3.3394
  182MOL0     H24541  10.388   8.456   5.326 -0.2099  0.8438 -0.3002
  182MOL0     H24542  10.471   8.255   5.273  1.4488  1.2732  0.0096
  182MOL0     H24543  10.438   8.262   5.099  2.4760 -3.3609  2.9122
  182MOL0     H24544  10.258   8.225   5.334  0.4703 -1.4821  0.3553
  182MOL0     H24545  10.185   8.270   5.168  1.3760  0.8353 -0.8779
  182MOL0     H24546  10.185   8.038   5.232 -0.1901 -0.6174 -1.2435
  182MOL0     H24547  10.363   8.036   5.238  0.7923 -0.1531 -2.6335
  182MOL0     H24548  10.284   7.922   5.043 -0.8181 -0.1876  0.9150
  182MOL0     H24549  10.227   8.074   4.970 -0.3714  2.0780  1.7598
  182MOL0     H24550  10.565   8.871   5.525  0.6313 -0.5708 -1.6910
  182MOL0     H24551  10.555   9.062   5.663 -0.2713  2.2360  0.4583
  182MOL0     H24552  10.197   9.421   5.726 -0.3947  0.5816 -0.4897
  182MOL0     H24553  10.131   9.607   5.882  0.3752 -0.1786  0.7623
  182MOL0     H24554   9.963  10.749   7.184 -0.0973 -4.0820 -1.5509
  182MOL0     H24555   9.876  10.864   7.394 -1.1790 -3.2872  0.9178
  182MOL0     H24556   9.563  11.382   7.389  1.8916 -0.8906  0.4619
  182MOL0     H24557   9.537  11.542   7.580  2.1825  0.5964  2.5451
  182MOL0     H24558   9.446  11.668   7.756  1.7680 -0.2147 -0.4648
  182MOL0     H24559   9.606  11.672   7.759 -1.7868 -0.1088 -1.4867
  182MOL0     H24560   9.527  11.797   7.947  0.8175 -0.0478 -1.9742
  182MOL0     H24561   9.598  11.656   8.010 -1.6272 -1.2108  1.7718
  182MOL0     H24562   9.404  11.692   8.137  0.8739  0.2455 -1.0731
  182MOL0     H24563   9.368  11.554   8.026 -0.3990 -1.1253  2.6239
  182MOL0     H24564   9.284  11.838   7.979 -0.2690  0.5911  1.7848
  182MOL0     H24565   9.256  11.701   7.867 -0.9331 -0.1873 -0.1489
  182MOL0     H24566   8.973  11.544   8.133  2.6428 -5.5614 -2.0161
  182MOL0     H24567   9.562  11.220   7.853 -3.1475 -1.7484 -0.9850
  182MOL0     H24568   9.674  10.979   7.671 -0.3629  0.4544  0.6465
  182MOL0     H24569   9.539  11.017   7.794 -2.9408  1.2470 -1.0564
  182MOL0     H24570   9.504  10.945   7.634 -0.7889  2.4886 -3.2451
  183MOL0     O24571   7.594   1.910   7.421 -0.6705  0.3384  0.8273
  183MOL0     C24572   7.514   1.812   7.434  0.5273  0.6406 -0.4421
  183MOL0     O24573   7.383   1.809   7.490 -0.6061  0.2254  0.2040
  183MOL0     C24574   7.326   1.925   7.517 -0.4407 -1.7127 -0.4525
  183MOL0     C24575   7.205   1.955   7.463  0.3642 -0.4264  0.0149
  183MOL0     C24576   7.152   2.089   7.478  0.2025  0.7681 -0.2864
  183MOL0     C24577   7.210   2.176   7.550  0.2391  0.1406 -1.3699
  183MOL0     O24578   7.167   2.304   7.578 -1.0411  0.2712  0.6407
  183MOL0     C24579   7.026   2.318   7.590  0.5262 -0.2225  0.0910
  183MOL0     C24580   6.996   2.446   7.667 -1.2311  0.2671  0.7293
  183MOL0     C24581   7.019   2.429   7.821 -0.3835 -0.4561 -0.5630
  183MOL0     C24582   7.102   2.540   7.881 -0.1485  0.3482  0.6929
  183MOL0     C24583   7.021   2.669   7.856 -0.4601 -0.3193 -1.2986
  183MOL0     C24584   7.070   2.775   7.945 -0.0035 -0.5670  0.2566
  183MOL0     C24585   6.996   2.916   7.922  0.0619  0.7794 -0.9308
  183MOL0     C24586   7.064   3.042   7.977  0.3232 -0.3660 -0.5474
  183MOL0     N24587   6.981   3.154   7.962 -0.5521 -0.4853 -0.4939
  183MOL0     C24588   6.859   3.185   8.022  0.9954 -0.2466 -0.6500
  183MOL0     C24589   6.821   3.306   7.967  0.2003  0.3622  0.0086
  183MOL0     C24590   6.688   3.389   8.000 -0.1425  0.2882  0.2075
  183MOL0     C24591   6.598   3.386   7.877  0.2107 -0.1928 -0.2725
  183MOL0     C24592   6.497   3.267   7.868 -0.0110 -0.1461 -0.6865
  183MOL0     C24593   6.431   3.266   7.735 -0.4877 -0.1459 -0.7145
  183MOL0     O24594   6.318   3.186   7.747  0.4391 -0.2104  0.3740
  183MOL0     C24595   6.230   3.194   7.634 -0.1949  0.5848  0.9192
  183MOL0     C24596   6.268   3.203   7.501  0.2582  0.7951 -0.2390
  183MOL0     C24597   6.173   3.226   7.405  0.1032 -0.4508 -0.1880
  183MOL0     C24598   6.033   3.226   7.443 -0.1229  0.1246 -0.3560
  183MOL0     C24599   5.926   3.257   7.350 -0.3298 -0.3983  0.1892
  183MOL0     O24600   5.796   3.243   7.405 -0.3511 -0.0672 -0.0767
  183MOL0     C24601   5.699   3.236   7.309 -1.0527 -0.2991 -0.0596
  183MOL0     C24602   5.611   3.336   7.284 -0.4065 -0.7919 -0.7353
  183MOL0     C24603   5.515   3.334   7.182  0.5616  0.3128  0.0311
  183MOL0     C24604   5.494   3.212   7.119 -0.2023  0.0676  0.3483
  183MOL0     O24605   5.378   3.198   7.049 -0.3346  0.5017 -0.0747
  183MOL0     C24606   5.392   3.120   6.924 -1.2567  0.6396 -0.1783
  183MOL0     C24607   5.256   3.131   6.851 -0.2716  0.5278  0.2543
  183MOL0     C24608   5.275   3.053   6.715 -0.3593 -0.6910 -1.1015
  183MOL0     C24609   5.278   2.901   6.722 -0.2480  0.5293  0.3970
  183MOL0     C24610   5.375   2.847   6.620  0.4982  0.4818  0.0707
  183MOL0     C24611   5.389   2.694   6.641 -0.5025  1.1000  0.2842
  183MOL0     C24612   5.495   2.620   6.556  0.0546  0.1712 -0.4812
  183MOL0     C24613   5.461   2.477   6.511  0.0691 -0.7710  0.1728
  183MOL0    Cl24614   5.388   2.400   6.653 -0.1807 -0.3280 -0.2205
  183MOL0     C24615   5.598   3.114   7.133  0.4494  0.1680  1.2433
  183MOL0     C24616   5.705   3.124   7.219 -0.6079  0.2146 -0.3560
  183MOL0     O24617   5.958   3.300   7.233  0.0689  0.0330 -0.3724
  183MOL0     C24618   5.994   3.188   7.577 -0.9044  0.1350  0.7489
  183MOL0     C24619   6.097   3.183   7.670  0.0678  0.2037  0.9312
  183MOL0     N24620   6.922   3.346   7.884 -0.5520 -0.6925  0.6603
  183MOL0     N24621   7.015   3.268   7.892  0.1479 -0.4558 -0.0377
  183MOL0     C24622   7.331   2.147   7.614 -0.5413 -0.0654  1.2141
  183MOL0     C24623   7.391   2.019   7.595 -0.1442 -0.2372 -0.2499
  183MOL0     C24624   7.575   1.688   7.378  0.9006 -0.1977  0.5844
  183MOL0     C24625   7.688   1.643   7.435 -0.0539  0.7505 -0.4726
  183MOL0     C24626   7.741   1.516   7.391  0.6741  0.1148 -0.3708
  183MOL0     C24627   7.674   1.437   7.291 -0.6696  0.3342 -0.5697
  183MOL0     O24628   7.715   1.310   7.283  0.2717  0.2334 -0.1314
  183MOL0     C24629   7.644   1.207   7.204  0.6112 -0.2574 -0.7869
  183MOL0     C24630   7.749   1.097   7.166 -0.0776  0.2398 -0.2618
  183MOL0     C24631   7.706   0.999   7.063  0.1732  0.4077  0.0519
  183MOL0     C24632   7.777   0.865   7.072 -0.2139 -0.4504 -0.2121
  183MOL0     C24633   7.761   0.793   7.194  0.1476  0.2285 -0.3157
  183MOL0     C24634   7.756   0.726   7.293 -0.2224  0.2579  0.7093
  183MOL0     C24635   7.555   1.483   7.244  0.6297 -0.1430  0.7534
  183MOL0     C24636   7.503   1.599   7.286 -0.0682 -0.3369  0.1513
  183MOL0     C24637   7.359   1.627   7.250  0.2699 -0.1600 -0.0440
  183MOL0     H24638   7.143   1.891   7.401 -1.4042 -2.3060  3.4265
  183MOL0     H24639   7.070   2.120   7.414 -0.3646 -0.3310 -0.1131
  183MOL0     H24640   6.985   2.336   7.490  2.5740 -0.1285 -0.7957
  183MOL0     H24641   6.962   2.244   7.639 -0.2968  1.0467  0.9721
  183MOL0     H24642   6.894   2.474   7.640 -2.5540 -0.4273  4.4035
  183MOL0     H24643   7.061   2.528   7.635  1.1967 -0.9849  2.1177
  183MOL0     H24644   7.055   2.326   7.836 -0.2532 -0.2861  0.3429
  183MOL0     H24645   6.917   2.438   7.860 -0.9173  0.8554 -2.1527
  183MOL0     H24646   7.100   2.524   7.989  1.8037 -3.0012  0.3476
  183MOL0     H24647   7.207   2.548   7.852  0.1924 -2.3844  0.8852
  183MOL0     H24648   7.040   2.706   7.755  2.7181  1.3363 -0.2145
  183MOL0     H24649   6.915   2.646   7.871  0.0849 -1.3003  2.0566
  183MOL0     H24650   7.063   2.733   8.045  2.0338  0.1782  0.7715
  183MOL0     H24651   7.174   2.791   7.912 -1.1908  3.1546 -2.4655
  183MOL0     H24652   6.899   2.901   7.971 -0.0946  0.7096 -1.2572
  183MOL0     H24653   6.966   2.929   7.817 -1.9415  0.4466 -0.4384
  183MOL0     H24654   7.084   3.034   8.085 -1.7917 -0.6029 -0.1391
  183MOL0     H24655   7.159   3.060   7.926  0.5535 -1.6050 -0.5994
  183MOL0     H24656   6.798   3.127   8.090  1.8022  0.5093  0.7497
  183MOL0     H24657   6.633   3.350   8.086 -1.7094 -1.0782 -1.3390
  183MOL0     H24658   6.705   3.496   8.008 -0.6947  0.2971  1.4414
  183MOL0     H24659   6.536   3.476   7.873 -0.6455 -0.7004  1.0574
  183MOL0     H24660   6.664   3.375   7.790  2.1547 -0.8135  1.2175
  183MOL0     H24661   6.420   3.275   7.946 -0.5127  2.3737 -1.3241
  183MOL0     H24662   6.544   3.172   7.892 -3.4392 -1.5283  1.4354
  183MOL0     H24663   6.504   3.236   7.659  2.5398  0.5333  1.7395
  183MOL0     H24664   6.403   3.366   7.701  1.6968  0.6963 -0.1802
  183MOL0     H24665   6.371   3.200   7.469  0.8142  0.9344  1.4449
  183MOL0     H24666   6.209   3.257   7.308 -2.7403  0.0092 -1.1913
  183MOL0     H24667   5.615   3.431   7.337  0.6641 -1.9786  1.4605
  183MOL0     H24668   5.437   3.410   7.173  0.3028  0.0343 -0.0989
  183MOL0     H24669   5.475   3.147   6.859 -1.1604 -0.0820 -0.3681
  183MOL0     H24670   5.419   3.017   6.951 -2.2072  0.0524 -1.3647
  183MOL0     H24671   5.178   3.080   6.909 -1.5969  2.6237  0.4036
  183MOL0     H24672   5.218   3.233   6.845  0.2994  0.8474  1.5000
  183MOL0     H24673   5.204   3.085   6.639 -0.0184 -2.4787 -2.2347
  183MOL0     H24674   5.367   3.087   6.667 -0.2083 -0.8655 -0.9402
  183MOL0     H24675   5.176   2.876   6.690  0.1713  1.1934 -1.6286
  183MOL0     H24676   5.302   2.875   6.825 -0.0039  2.3547  0.8290
  183MOL0     H24677   5.472   2.893   6.641  0.0673  1.2629  0.3905
  183MOL0     H24678   5.339   2.880   6.522 -1.4494  1.5764  1.0927
  183MOL0     H24679   5.399   2.667   6.747  1.9795  0.9029  0.0415
  183MOL0     H24680   5.293   2.645   6.620  0.9395 -1.6724 -0.2816
  183MOL0     H24681   5.574   2.598   6.628 -3.6316 -4.6099  2.7827
  183MOL0     H24682   5.531   2.675   6.469  1.1564  0.6850  0.2814
  183MOL0     H24683   5.386   2.474   6.431  0.4506  0.0253 -0.2289
  183MOL0     H24684   5.549   2.428   6.469 -2.0370 -3.5384 -1.3402
  183MOL0     H24685   5.600   3.031   7.063 -1.1734 -0.7860  2.2439
  183MOL0     H24686   5.787   3.053   7.226 -0.3514  0.4984 -0.4618
  183MOL0     H24687   5.893   3.197   7.616  0.2681  4.3312  3.5773
  183MOL0     H24688   6.059   3.169   7.771  0.2633  1.4543  1.1993
  183MOL0     H24689   7.381   2.211   7.686 -0.5342 -1.0781  2.1338
  183MOL0     H24690   7.485   1.991   7.642  0.5375 -4.2967 -3.4137
  183MOL0     H24691   7.726   1.692   7.524 -0.5341 -1.5370  1.0864
  183MOL0     H24692   7.825   1.466   7.437  0.5465  0.4012  0.1799
  183MOL0     H24693   7.608   1.256   7.113  1.1761  1.5048 -0.1084
  183MOL0     H24694   7.572   1.158   7.271 -1.6764  2.1477 -1.3297
  183MOL0     H24695   7.772   1.043   7.258 -1.5458  1.0386  0.6023
  183MOL0     H24696   7.834   1.150   7.121  0.2593 -0.0599  0.0049
  183MOL0     H24697   7.717   1.037   6.961 -1.7681  3.0836  0.7353
  183MOL0     H24698   7.599   0.983   7.080  0.3876 -3.0921 -1.0899
  183MOL0     H24699   7.729   0.804   6.995 -1.0670 -2.2264  1.6303
  183MOL0     H24700   7.882   0.873   7.042  0.1844  0.8444  1.4049
  183MOL0     H24701   7.761   0.672   7.385 -2.5338  0.6632  1.1179
  183MOL0     H24702   7.502   1.413   7.180  2.6577  0.5391 -1.8660
  183MOL0     H24703   7.324   1.544   7.188 -0.9296 -0.2939  0.7861
  183MOL0     H24704   7.296   1.634   7.338  1.8129  2.1699  1.0054
  183MOL0     H24705   7.354   1.720   7.192 -1.1105 -1.1461 -1.6167
  184MOL0     O24706   1.921   1.493   8.352  0.5014 -0.1465  0.6189
  184MOL0     C24707   1.993   1.584   8.313  0.0141  0.2421 -0.2084
  184MOL0     O24708   2.107   1.623   8.372  0.0521  0.4647 -0.9691
  184MOL0     C24709   2.182   1.529   8.445 -0.1043 -0.7269  0.1540
  184MOL0     C24710   2.279   1.583   8.536  0.8749 -0.0281 -0.0760
  184MOL0     C24711   2.361   1.498   8.611 -0.7603 -0.0368 -1.0517
  184MOL0     C24712   2.347   1.361   8.607 -0.8169 -1.2377  1.5628
  184MOL0     O24713   2.426   1.273   8.680 -0.2251 -0.2954 -0.6356
  184MOL0     C24714   2.567   1.274   8.651 -0.1166 -0.7993  0.0267
  184MOL0     C24715   2.607   1.157   8.555  0.3571  1.0792 -0.4384
  184MOL0     C24716   2.655   1.033   8.638  0.1764  0.6705 -0.8111
  184MOL0     C24717   2.560   1.002   8.764 -1.2759 -0.0527  0.4522
  184MOL0     C24718   2.620   0.879   8.835  0.8235  0.4720  0.2429
  184MOL0     C24719   2.545   0.882   8.974 -0.1160  0.4097 -1.2766
  184MOL0     C24720   2.602   0.788   9.076 -0.7604  0.3065  0.7276
  184MOL0     C24721   2.487   0.740   9.177 -0.4586  1.1533  0.6759
  184MOL0     N24722   2.449   0.828   9.289  1.0388  0.7398 -0.0479
  184MOL0     C24723   2.321   0.882   9.308 -1.2903 -0.6919  0.0572
  184MOL0     C24724   2.339   0.977   9.403  1.4842  1.1383  0.8069
  184MOL0     C24725   2.222   1.055   9.452  0.2564 -1.0300 -0.3936
  184MOL0     C24726   2.142   0.982   9.556  0.2678  0.0160 -0.7003
  184MOL0     C24727   2.009   1.047   9.587 -0.6273 -0.2614 -0.1006
  184MOL0     C24728   2.033   1.177   9.663  0.0902  0.5491 -0.6234
  184MOL0     O24729   1.915   1.221   9.737  0.1106  0.3270 -0.3559
  184MOL0     C24730   1.946   1.323   9.825 -0.2554  1.3652 -0.3702
  184MOL0     C24731   1.849   1.351   9.917  0.6439 -0.4426 -0.6974
  184MOL0     C24732   1.858   1.462  10.003  0.1478 -0.1940 -0.4814
  184MOL0     C24733   1.974   1.545   9.981 -0.1468 -0.3013 -0.9848
  184MOL0     C24734   1.991   1.664  10.072 -0.5284  0.0698  0.3754
  184MOL0     O24735   1.892   1.687  10.164 -0.2389 -0.4462  0.2452
  184MOL0     C24736   1.854   1.815  10.201 -0.0457  0.8924 -0.4014
  184MOL0     C24737   1.776   1.829  10.316 -0.0824  0.3020  0.8425
  184MOL0     C24738   1.723   1.955  10.347 -0.2524 -0.5813  0.7076
  184MOL0     C24739   1.769   2.072  10.288  0.4650 -0.0721 -0.2964
  184MOL0     O24740   1.705   2.184  10.343 -0.1056  0.3200 -1.1877
  184MOL0     C24741   1.677   2.291  10.248 -0.3991  0.4321  0.6792
  184MOL0     C24742   1.538   2.344  10.266 -0.1952  0.2602  0.5604
  184MOL0     C24743   1.505   2.464  10.180  0.4837 -0.8309 -0.4358
  184MOL0     C24744   1.370   2.533  10.215 -0.0590  0.1151 -0.6560
  184MOL0     C24745   1.318   2.629  10.114 -0.5713  1.0227  0.7722
  184MOL0     C24746   1.396   2.754  10.102  0.0827 -0.9257  0.3557
  184MOL0     C24747   1.328   2.848   9.998 -0.5291  0.1760 -0.9855
  184MOL0     C24748   1.178   2.878  10.020  0.0521 -0.8765 -0.3047
  184MOL0    Cl24749   1.139   2.905  10.191  0.0033 -0.5173 -0.0600
  184MOL0     C24750   1.870   2.062  10.189 -0.7483 -0.5080  0.1218
  184MOL0     C24751   1.905   1.940  10.134  0.0417 -1.0856  0.1344
  184MOL0     O24752   2.081   1.747  10.046 -0.0620 -0.4450  0.2644
  184MOL0     C24753   2.071   1.517   9.889  0.5798  0.2606  0.3678
  184MOL0     C24754   2.055   1.406   9.805 -0.6412 -0.9146  0.0953
  184MOL0     N24755   2.463   0.977   9.447  0.0229  0.0921 -0.0989
  184MOL0     N24756   2.534   0.888   9.381  0.0809 -0.3986  0.1111
  184MOL0     C24757   2.254   1.305   8.523  0.3331 -0.0621 -0.3155
  184MOL0     C24758   2.168   1.387   8.439 -0.4051 -0.1953 -0.7135
  184MOL0     C24759   1.940   1.666   8.191  0.9447  0.9815  0.7452
  184MOL0     C24760   2.008   1.785   8.152  0.4588  0.2519 -0.0368
  184MOL0     C24761   1.960   1.872   8.062 -0.3812 -0.2952 -0.6742
  184MOL0     C24762   1.857   1.843   7.993  0.7556  0.4025  1.3569
  184MOL0     O24763   1.817   1.929   7.890  0.0701  0.3690 -0.2719
  184MOL0     C24764   1.710   2.021   7.933  0.1833  0.7125 -0.1926
  184MOL0     C24765   1.668   2.112   7.810  0.4881  1.0205 -0.7866
  184MOL0     C24766   1.591   2.038   7.701 -0.8420 -0.6448  0.3553
  184MOL0     C24767   1.567   2.131   7.582  0.5633 -0.9181  0.1528
  184MOL0     C24768   1.434   2.171   7.541 -0.1497  0.6071 -0.5291
  184MOL0     C24769   1.332   2.214   7.489 -0.2955  0.1399 -0.1366
  184MOL0     C24770   1.793   1.719   8.007  0.3731  0.8452 -0.4291
  184MOL0     C24771   1.828   1.626   8.105  0.3429 -0.2607 -0.8089
  184MOL0     C24772   1.748   1.494   8.105  0.3037 -0.0717  0.1624
  184MOL0     H24773   2.303   1.688   8.547  1.6505 -0.2347  0.2886
  184MOL0     H24774   2.430   1.533   8.688  0.0056  0.1198 -1.8025
  184MOL0     H24775   2.591   1.369   8.603 -0.1046 -0.6393  0.3452
  184MOL0     H24776   2.622   1.257   8.744  0.1445  0.6023  0.1490
  184MOL0     H24777   2.697   1.176   8.496  1.5720 -0.2839  0.9083
  184MOL0     H24778   2.516   1.128   8.501  0.0463 -1.6424  1.3363
  184MOL0     H24779   2.762   1.034   8.660 -0.4994 -1.0891  3.8608
  184MOL0     H24780   2.655   0.939   8.584  1.4563 -0.7601  1.5126
  184MOL0     H24781   2.551   1.086   8.834  0.8064 -0.4211  1.2456
  184MOL0     H24782   2.460   0.974   8.729 -1.0210 -2.4726  1.5244
  184MOL0     H24783   2.587   0.788   8.785  0.0487  0.9359 -0.0951
  184MOL0     H24784   2.728   0.887   8.849  0.6284  1.0590  1.6245
  184MOL0     H24785   2.557   0.982   9.015  1.1166 -0.7232  1.3185
  184MOL0     H24786   2.439   0.865   8.949 -0.1569 -0.7663 -0.4066
  184MOL0     H24787   2.688   0.845   9.111 -0.5213  1.3332 -1.3464
  184MOL0     H24788   2.638   0.698   9.025  1.0679  1.9212 -1.0186
  184MOL0     H24789   2.398   0.708   9.122  0.6512 -2.1982  0.6082
  184MOL0     H24790   2.525   0.646   9.215 -2.5583 -1.4476 -2.9384
  184MOL0     H24791   2.231   0.861   9.251 -4.9341 -0.1797  5.0417
  184MOL0     H24792   2.254   1.148   9.501 -1.9016  0.0472 -0.9037
  184MOL0     H24793   2.157   1.083   9.369 -1.1714  0.8667  1.2641
  184MOL0     H24794   2.126   0.877   9.531  1.4463 -0.0363 -1.2822
  184MOL0     H24795   2.206   0.977   9.645 -0.5264 -1.2790 -0.1757
  184MOL0     H24796   1.938   0.988   9.646 -1.3274  0.5503 -0.1119
  184MOL0     H24797   1.961   1.076   9.492 -0.9898 -0.2481  0.0838
  184MOL0     H24798   2.049   1.255   9.588 -0.3211  0.4269 -0.8469
  184MOL0     H24799   2.123   1.166   9.724  0.9305 -3.6997 -2.2364
  184MOL0     H24800   1.756   1.295   9.925 -1.9307  3.4632 -0.5622
  184MOL0     H24801   1.779   1.492  10.070 -1.4298 -1.4577 -1.6688
  184MOL0     H24802   1.739   1.738  10.364  2.6606 -1.2283  0.2630
  184MOL0     H24803   1.657   1.977  10.430  0.7156 -1.6455  1.7956
  184MOL0     H24804   1.747   2.375  10.261 -1.7106  1.4166  1.7544
  184MOL0     H24805   1.689   2.250  10.148  0.7966  2.4019 -0.0451
  184MOL0     H24806   1.465   2.263  10.253  2.1750 -2.0153  0.6249
  184MOL0     H24807   1.524   2.358  10.373 -2.5980  1.4559  0.1651
  184MOL0     H24808   1.577   2.541  10.152 -0.0960 -0.8898 -2.2185
  184MOL0     H24809   1.481   2.416  10.085 -0.5386  0.3972 -0.8224
  184MOL0     H24810   1.376   2.583  10.312  1.4217 -1.2333 -0.0186
  184MOL0     H24811   1.305   2.449  10.239  1.9053 -1.0040  1.1044
  184MOL0     H24812   1.219   2.649  10.157 -1.4582 -1.2023 -0.0875
  184MOL0     H24813   1.295   2.572  10.024 -0.4938 -0.6766  1.7856
  184MOL0     H24814   1.399   2.809  10.197  1.9388  2.0030 -1.2622
  184MOL0     H24815   1.501   2.738  10.073  0.3863  0.8059  0.4187
  184MOL0     H24816   1.329   2.788   9.906 -1.8661  0.3615 -1.1500
  184MOL0     H24817   1.392   2.936   9.994  0.7550 -0.6685  0.0698
  184MOL0     H24818   1.156   2.966   9.958  5.4533  0.3076 -0.9754
  184MOL0     H24819   1.131   2.795   9.966 -0.2824  0.0057 -1.4113
  184MOL0     H24820   1.902   2.157  10.146 -0.3195 -1.2975 -1.3737
  184MOL0     H24821   1.959   1.947  10.040  1.9106  2.0561  1.3010
  184MOL0     H24822   2.158   1.578   9.867  1.1293 -0.1960  1.1784
  184MOL0     H24823   2.129   1.404   9.726  1.9209  2.9645  2.0964
  184MOL0     H24824   2.240   1.198   8.539 -0.3149 -0.4779 -3.1108
  184MOL0     H24825   2.101   1.319   8.388  0.5299 -0.4016 -1.7147
  184MOL0     H24826   2.096   1.808   8.211 -1.1139  2.3978  1.5943
  184MOL0     H24827   2.016   1.965   8.071  1.8131 -1.6686  0.5445
  184MOL0     H24828   1.745   2.087   8.012 -1.6954 -0.6896  1.9118
  184MOL0     H24829   1.626   1.959   7.964 -1.8386  2.7584 -1.2642
  184MOL0     H24830   1.764   2.138   7.764  0.4967  2.0333 -0.2239
  184MOL0     H24831   1.612   2.198   7.847 -0.6552 -0.6093  1.5206
  184MOL0     H24832   1.499   1.993   7.740 -1.6870 -0.2103 -1.0461
  184MOL0     H24833   1.651   1.956   7.661 -1.0364  0.4686 -2.4210
  184MOL0     H24834   1.621   2.225   7.588 -0.2027 -0.4380 -0.2812
  184MOL0     H24835   1.607   2.082   7.493  0.0257  2.2742 -1.9906
  184MOL0     H24836   1.236   2.228   7.446  1.0232 -1.4478 -4.0287
  184MOL0     H24837   1.723   1.702   7.926  0.1687  0.5744 -0.1967
  184MOL0     H24838   1.683   1.482   8.192  1.8382 -3.2965  1.0162
  184MOL0     H24839   1.691   1.469   8.015 -0.8276  1.0441  0.5417
  184MOL0     H24840   1.819   1.411   8.114  3.6780  2.4610 -1.1386
  185MOL0     O24841   0.661   7.121   4.750 -1.3124 -0.3370 -0.5477
  185MOL0     C24842   0.703   7.146   4.859  0.0539  0.7147 -0.2353
  185MOL0     O24843   0.636   7.212   4.962 -1.1853 -0.0318  0.4183
  185MOL0     C24844   0.530   7.301   4.934 -0.0312 -0.1235  0.2715
  185MOL0     C24845   0.519   7.429   4.987 -0.3127 -0.4741  0.2414
  185MOL0     C24846   0.401   7.510   4.963  0.0612  0.2459 -0.3172
  185MOL0     C24847   0.299   7.468   4.885 -0.2516  0.6642 -0.3561
  185MOL0     O24848   0.184   7.528   4.860  0.0041  0.1012  0.6912
  185MOL0     C24849   0.074   7.506   4.950 -0.8792  0.1003  0.5696
  185MOL0     C24850   0.047   7.631   5.037  0.3809  0.5526 -0.6106
  185MOL0     C24851  -0.003   7.755   4.957  0.2749  0.1894 -0.6687
  185MOL0     C24852   0.083   7.877   4.938 -0.1084 -0.6452 -0.0217
  185MOL0     C24853   0.010   7.983   4.852  0.3781  0.4213 -0.3376
  185MOL0     C24854   0.079   8.107   4.845 -0.5501 -0.1923 -0.1971
  185MOL0     C24855   0.022   8.208   4.736 -0.0862 -0.3771 -0.0389
  185MOL0     C24856  -0.132   8.224   4.729  0.1000  0.5320 -1.6757
  185MOL0     N24857  -0.176   8.268   4.596 -0.2863  0.2236 -0.1142
  185MOL0     C24858  -0.154   8.386   4.533 -0.1106  0.3828 -0.0803
  185MOL0     C24859  -0.209   8.376   4.413 -0.1935  0.3629 -0.1071
  185MOL0     C24860  -0.232   8.491   4.324 -0.5134  0.2546  1.2080
  185MOL0     C24861  -0.381   8.519   4.317 -0.5204  0.4709  0.2107
  185MOL0     C24862  -0.408   8.616   4.194 -1.0640 -0.0438 -0.5085
  185MOL0     C24863  -0.551   8.662   4.212 -1.4599 -0.1468  0.2449
  185MOL0     O24864  -0.602   8.742   4.104 -0.9521  0.8045  0.3722
  185MOL0     C24865  -0.548   8.742   3.980  0.1159 -0.3274 -0.0722
  185MOL0     C24866  -0.583   8.643   3.889 -0.4575  0.4576  0.1965
  185MOL0     C24867  -0.533   8.638   3.761  0.0154  0.5373 -0.4494
  185MOL0     C24868  -0.426   8.723   3.727 -0.6106 -0.0754  0.5218
  185MOL0     C24869  -0.368   8.718   3.589  0.1963  0.4639 -0.1292
  185MOL0     O24870  -0.405   8.609   3.513  0.2810  0.4807  0.5703
  185MOL0     C24871  -0.328   8.581   3.395  0.2455  0.4833  0.1166
  185MOL0     C24872  -0.257   8.471   3.378 -0.3486  0.7918  0.3580
  185MOL0     C24873  -0.197   8.439   3.253  0.3273  0.2214 -0.5719
  185MOL0     C24874  -0.191   8.537   3.152  1.1469 -0.3428 -0.5356
  185MOL0     O24875  -0.137   8.521   3.029 -0.6437  0.4237  0.4075
  185MOL0     C24876  -0.051   8.412   3.014 -0.2159  0.4148 -0.1085
  185MOL0     C24877   0.070   8.435   2.911 -0.5814  0.5948 -0.7957
  185MOL0     C24878   0.153   8.306   2.900  0.2264 -0.6182  0.2175
  185MOL0     C24879   0.091   8.227   2.783 -0.7894  0.5935  0.0797
  185MOL0     C24880   0.160   8.090   2.749 -0.1466 -0.5697 -0.8798
  185MOL0     C24881   0.161   7.992   2.863  0.9920 -0.6153 -1.2000
  185MOL0     C24882   0.019   7.958   2.933 -0.7858  0.5814  0.2258
  185MOL0     C24883   0.035   7.858   3.052 -0.2596  0.0499  0.5807
  185MOL0    Cl24884  -0.122   7.841   3.134  0.0617 -0.1893 -0.2485
  185MOL0     C24885  -0.263   8.653   3.168 -0.7467 -0.6179  0.3414
  185MOL0     C24886  -0.329   8.677   3.288  0.3274  0.0104 -0.0140
  185MOL0     O24887  -0.271   8.795   3.557  0.5789 -0.7988 -0.2436
  185MOL0     C24888  -0.386   8.819   3.815  0.8450 -0.1102 -0.1787
  185MOL0     C24889  -0.445   8.828   3.950 -1.2105 -0.0675  0.0676
  185MOL0     N24890  -0.263   8.251   4.394  0.4446  0.9726 -0.6562
  185MOL0     N24891  -0.253   8.196   4.510 -0.0426 -0.3655 -0.1992
  185MOL0     C24892   0.313   7.344   4.825 -0.1235  0.0538  0.0768
  185MOL0     C24893   0.424   7.262   4.852 -1.0891 -0.2196 -0.4155
  185MOL0     C24894   0.821   7.067   4.904 -0.2771  0.2492 -0.2234
  185MOL0     C24895   0.860   7.082   5.038  0.2658 -0.9734  0.8426
  185MOL0     C24896   0.973   7.007   5.091 -0.7568 -0.8973 -0.7579
  185MOL0     C24897   1.052   6.925   5.012 -0.1330 -0.2943  0.3343
  185MOL0     O24898   1.156   6.869   5.071 -0.6203 -0.4659 -0.6645
  185MOL0     C24899   1.277   6.889   5.002 -0.0318 -0.7985  0.1626
  185MOL0     C24900   1.355   7.027   5.041  0.9666  0.5426 -0.3981
  185MOL0     C24901   1.381   7.042   5.197  0.6160  0.7615  0.4320
  185MOL0     C24902   1.528   7.096   5.233 -0.4004  0.1344 -0.5753
  185MOL0     C24903   1.648   7.002   5.226 -0.5409 -0.4473  0.2249
  185MOL0     C24904   1.732   6.914   5.232 -0.0249  0.0990  0.1000
  185MOL0     C24905   1.025   6.914   4.877 -0.6767 -1.5547 -0.0368
  185MOL0     C24906   0.913   6.991   4.827 -0.0201 -0.4586 -0.0347
  185MOL0     C24907   0.898   6.966   4.675 -0.3820  0.3127 -0.1458
  185MOL0     H24908   0.602   7.458   5.049  3.2712  0.6939 -4.4839
  185MOL0     H24909   0.397   7.612   5.001  0.1828  0.2883 -0.4159
  185MOL0     H24910  -0.014   7.486   4.887 -1.5388 -0.4668  1.6430
  185MOL0     H24911   0.096   7.420   5.013 -1.3936  0.4862  1.2949
  185MOL0     H24912   0.135   7.658   5.097 -0.6819  1.7165  0.4779
  185MOL0     H24913  -0.024   7.607   5.117  3.0792  1.7474  2.3840
  185MOL0     H24914  -0.091   7.792   5.009  0.4386  0.3289 -0.4935
  185MOL0     H24915  -0.044   7.714   4.864  1.7062  0.0506 -1.2731
  185MOL0     H24916   0.115   7.920   5.034 -5.8292 -1.5013  2.6836
  185MOL0     H24917   0.175   7.847   4.888 -1.2744 -2.5610 -1.1555
  185MOL0     H24918  -0.001   7.952   4.748  0.5647 -1.7097  0.2334
  185MOL0     H24919  -0.086   8.010   4.898  2.3346  3.5346  2.3720
  185MOL0     H24920   0.087   8.155   4.943 -0.6583 -3.8242  1.7731
  185MOL0     H24921   0.186   8.092   4.829 -0.3780  0.1447  0.5715
  185MOL0     H24922   0.063   8.167   4.644 -1.2962  0.1287 -0.8224
  185MOL0     H24923   0.058   8.311   4.739  0.1454 -0.4108 -1.3798
  185MOL0     H24924  -0.187   8.133   4.758  3.8826 -1.0751  1.3127
  185MOL0     H24925  -0.164   8.304   4.796 -0.7123 -0.0114 -1.3893
  185MOL0     H24926  -0.110   8.478   4.571  0.5238  0.1786 -0.3015
  185MOL0     H24927  -0.161   8.566   4.360 -0.2780  1.0140 -0.7316
  185MOL0     H24928  -0.191   8.457   4.229  1.8752  1.2780  1.8106
  185MOL0     H24929  -0.427   8.422   4.299 -0.4338  0.9384 -3.1605
  185MOL0     H24930  -0.413   8.561   4.413  3.8410  0.6959  1.7958
  185MOL0     H24931  -0.393   8.556   4.104  0.5635 -0.6277  0.1150
  185MOL0     H24932  -0.340   8.701   4.202 -2.3410  0.8258  2.3680
  185MOL0     H24933  -0.555   8.713   4.309  3.3533  1.5419 -0.2153
  185MOL0     H24934  -0.610   8.570   4.221 -0.3874 -1.0386 -1.5195
  185MOL0     H24935  -0.657   8.575   3.929  1.2763 -2.1577 -0.7690
  185MOL0     H24936  -0.570   8.560   3.695  2.3390  0.0568 -1.2996
  185MOL0     H24937  -0.266   8.393   3.453  0.4353 -0.4944 -0.8414
  185MOL0     H24938  -0.167   8.335   3.241 -1.8014 -0.6385  1.0006
  185MOL0     H24939  -0.003   8.400   3.112  1.3191  0.6115 -0.8214
  185MOL0     H24940  -0.110   8.323   2.987 -1.1368  0.6739  0.9756
  185MOL0     H24941   0.039   8.473   2.813  0.4207  1.9963 -0.6006
  185MOL0     H24942   0.144   8.511   2.939 -1.8220  1.0792  1.4500
  185MOL0     H24943   0.259   8.323   2.879  0.5197 -0.4422  1.7441
  185MOL0     H24944   0.148   8.255   2.996 -1.2958 -1.7574 -0.4210
  185MOL0     H24945   0.099   8.293   2.696 -2.5554 -0.1361 -0.6915
  185MOL0     H24946  -0.016   8.208   2.794 -0.1450 -2.6777  2.2610
  185MOL0     H24947   0.266   8.098   2.722 -0.3618 -1.9253 -2.2503
  185MOL0     H24948   0.099   8.045   2.670  0.5542 -1.6970 -0.7946
  185MOL0     H24949   0.213   7.907   2.819  1.7938 -0.6985 -0.1449
  185MOL0     H24950   0.217   8.035   2.947  0.7697  2.1728 -2.3370
  185MOL0     H24951  -0.056   7.926   2.861 -2.9541 -0.0791  2.6256
  185MOL0     H24952  -0.028   8.050   2.969 -1.8992 -0.1036  0.5792
  185MOL0     H24953   0.082   7.772   3.004  1.2284  1.1915 -0.1080
  185MOL0     H24954   0.101   7.906   3.125 -0.4822  2.6444 -0.7920
  185MOL0     H24955  -0.276   8.731   3.094  2.0393  1.8076  2.1977
  185MOL0     H24956  -0.387   8.769   3.293 -0.1589 -0.0146 -3.1130
  185MOL0     H24957  -0.308   8.892   3.797  3.2323 -2.1898  1.1762
  185MOL0     H24958  -0.418   8.914   4.011 -1.5950  0.9133 -1.0996
  185MOL0     H24959   0.230   7.301   4.770 -1.1302  2.3689 -0.3172
  185MOL0     H24960   0.410   7.160   4.818  2.4484 -0.0560 -2.9535
  185MOL0     H24961   0.815   7.140   5.118  0.3149  2.9679 -1.7359
  185MOL0     H24962   0.994   7.013   5.197  1.6045 -2.5728 -1.0517
  185MOL0     H24963   1.267   6.896   4.893  0.5364  2.6562  0.2175
  185MOL0     H24964   1.341   6.803   5.021  0.8006  0.2897  2.6841
  185MOL0     H24965   1.282   7.105   5.018 -1.2882 -0.7868  1.8051
  185MOL0     H24966   1.452   7.038   4.992  2.4991  2.8954  2.8630
  185MOL0     H24967   1.354   6.949   5.249  2.8198  0.4786  1.1881
  185MOL0     H24968   1.308   7.108   5.245 -1.0862 -1.8852  1.8052
  185MOL0     H24969   1.552   7.174   5.160 -0.8744  3.3366  2.4181
  185MOL0     H24970   1.536   7.137   5.334  3.0761  1.0606 -1.0749
  185MOL0     H24971   1.792   6.827   5.246  0.1978  0.7752  6.0007
  185MOL0     H24972   1.088   6.869   4.801  2.0770  2.3568 -0.3884
  185MOL0     H24973   0.887   7.063   4.625 -2.9375 -0.2554 -0.8190
  185MOL0     H24974   0.979   6.903   4.636  1.1740  0.1982  2.9205
  185MOL0     H24975   0.801   6.918   4.659 -0.0088 -1.2292  1.7347
  186MOL0     O24976   9.199  10.707   1.210 -0.4704 -1.0801  0.3285
  186MOL0     C24977   9.171  10.748   1.096  0.9003  0.0983 -0.1778
  186MOL0     O24978   9.168  10.667   0.986 -0.4472 -0.1467 -0.3603
  186MOL0     C24979   9.184  10.533   1.004  0.6355  0.9191 -1.0853
  186MOL0     C24980   9.286  10.464   1.072 -0.9883 -0.1016  0.0680
  186MOL0     C24981   9.269  10.331   1.100  0.4581  0.2444  0.5772
  186MOL0     C24982   9.164  10.258   1.062  0.5668  0.3144 -0.4596
  186MOL0     O24983   9.144  10.118   1.104  0.6708  0.4306  0.0500
  186MOL0     C24984   9.240  10.034   1.040  0.7609 -0.6489 -0.7693
  186MOL0     C24985   9.274   9.912   1.126  0.7889 -0.8585 -0.2255
  186MOL0     C24986   9.344   9.934   1.263 -0.1892  0.6838 -0.4969
  186MOL0     C24987   9.475  10.001   1.247 -0.0849  0.0245  0.7524
  186MOL0     C24988   9.525  10.070   1.373  0.3480 -0.1244 -0.0162
  186MOL0     C24989   9.673  10.122   1.368 -0.5607  0.6012  0.2296
  186MOL0     C24990   9.699  10.240   1.271  0.3134 -0.2721 -0.1445
  186MOL0     C24991   9.849  10.263   1.257 -0.2474 -0.0097  0.0441
  186MOL0     N24992   9.889  10.379   1.176  0.8445 -0.2863 -0.6983
  186MOL0     C24993   9.898  10.512   1.215  0.3234  0.1158  0.3899
  186MOL0     C24994   9.940  10.575   1.099 -0.2543  0.1376  0.1494
  186MOL0     C24995   9.943  10.725   1.087 -0.3102  0.3952 -0.2071
  186MOL0     C24996   9.990  10.765   0.947  0.7025 -0.1221 -0.0470
  186MOL0     C24997   9.979  10.909   0.915 -0.0453  0.3096  0.0465
  186MOL0     C24998  10.026  11.001   1.029  0.1124 -0.7146 -1.2340
  186MOL0     O24999  10.013  11.129   0.982 -0.5776 -0.3867 -0.5414
  186MOL0     C25000  10.045  11.235   1.066 -0.5429  0.1749 -0.1241
  186MOL0     C25001  10.086  11.359   1.013  0.3199 -0.1346  0.6403
  186MOL0     C25002  10.106  11.476   1.082  0.5071 -0.5717  0.9417
  186MOL0     C25003  10.097  11.475   1.219  0.8523  0.6630 -0.2024
  186MOL0     C25004  10.135  11.598   1.298  0.2223 -0.0686 -0.1788
  186MOL0     O25005  10.133  11.581   1.440 -0.2468 -0.3404 -0.3570
  186MOL0     C25006  10.149  11.691   1.521 -0.3751 -0.2068 -0.0046
  186MOL0     C25007  10.079  11.801   1.491 -0.4099 -0.4949 -0.0555
  186MOL0     C25008  10.081  11.907   1.586  0.6468  0.3606 -0.1141
  186MOL0     C25009  10.158  11.909   1.694 -0.8323 -0.8761 -0.7648
  186MOL0     O25010  10.147  12.013   1.781  0.2351 -0.3022  0.3184
  186MOL0     C25011  10.176  11.974   1.916  0.5083  0.3176 -0.2314
  186MOL0     C25012  10.325  11.996   1.953  0.9989  0.6046  0.2011
  186MOL0     C25013  10.353  12.123   2.037  0.0958  0.0586  0.3215
  186MOL0     C25014  10.317  12.248   1.966  0.3654 -0.4428 -0.2680
  186MOL0     C25015  10.392  12.372   2.009 -0.4671  0.0971 -1.0773
  186MOL0     C25016  10.378  12.406   2.160 -0.0817 -0.2203 -0.8619
  186MOL0     C25017  10.235  12.478   2.178  0.2796 -0.5943 -1.6095
  186MOL0     C25018  10.215  12.505   2.329  0.3777  0.0105 -0.4462
  186MOL0    Cl25019  10.039  12.506   2.359  0.1342 -0.2695 -0.1716
  186MOL0     C25020  10.259  11.808   1.703 -0.3823 -0.2730 -0.9792
  186MOL0     C25021  10.240  11.689   1.631 -0.4848  0.6831  0.1200
  186MOL0     O25022  10.165  11.701   1.238 -0.0547  0.4970  0.2464
  186MOL0     C25023  10.069  11.350   1.277  0.0821 -0.0759 -0.7600
  186MOL0     C25024  10.045  11.235   1.204 -0.2662  0.1939  0.0275
  186MOL0     N25025   9.974  10.474   1.002  0.3367  0.1145  0.2783
  186MOL0     N25026   9.930  10.361   1.047 -0.3181 -0.2541 -0.0939
  186MOL0     C25027   9.070  10.325   0.985 -0.6737  0.3370  0.4425
  186MOL0     C25028   9.082  10.464   0.956  0.2436 -0.2419 -0.0250
  186MOL0     C25029   9.150  10.895   1.067  1.4569  0.1120 -0.2940
  186MOL0     C25030   9.150  10.944   0.933  0.2432  0.6274  1.3347
  186MOL0     C25031   9.163  11.076   0.904  0.4463 -0.4717 -0.8427
  186MOL0     C25032   9.158  11.177   1.002  0.5088 -0.7199 -1.3676
  186MOL0     O25033   9.147  11.309   0.976  0.3630 -0.6566 -0.0709
  186MOL0     C25034   9.152  11.351   0.839  0.0224 -0.0697  0.1987
  186MOL0     C25035   9.101  11.502   0.810  0.5401 -0.1819  0.3330
  186MOL0     C25036   9.151  11.622   0.903  0.4754 -0.1320 -0.5021
  186MOL0     C25037   9.299  11.669   0.889 -0.4119 -0.0775  0.3890
  186MOL0     C25038   9.327  11.780   0.979  0.0693  0.6589 -1.0105
  186MOL0     C25039   9.337  11.878   1.047  0.6057 -0.0119  0.7020
  186MOL0     C25040   9.143  11.137   1.132  0.4615 -0.2046 -0.9003
  186MOL0     C25041   9.148  10.999   1.167 -0.7259  0.8837  0.0747
  186MOL0     C25042   9.136  10.976   1.318  0.4709  0.1153 -0.4022
  186MOL0     H25043   9.373  10.519   1.108 -0.2565 -0.7156 -0.7018
  186MOL0     H25044   9.342  10.287   1.166  1.0988 -1.2691 -1.0628
  186MOL0     H25045   9.200   9.993   0.947  1.3191 -0.7393 -0.9679
  186MOL0     H25046   9.326  10.094   1.011  0.0232  0.3102 -1.0598
  186MOL0     H25047   9.327   9.849   1.054  2.4184  2.1514 -1.8451
  186MOL0     H25048   9.176   9.864   1.141 -2.4875  3.9625 -3.3116
  186MOL0     H25049   9.367   9.836   1.306  1.1768  0.5709 -1.4337
  186MOL0     H25050   9.271   9.977   1.332 -0.8281 -0.6575 -0.3075
  186MOL0     H25051   9.550   9.929   1.215 -0.9690 -0.8730  0.6769
  186MOL0     H25052   9.470  10.084   1.176  2.4165 -3.1148 -3.5800
  186MOL0     H25053   9.469  10.163   1.386  1.6384  0.9048 -1.4762
  186MOL0     H25054   9.511   9.992   1.448  3.8397 -1.9254 -1.0255
  186MOL0     H25055   9.703  10.155   1.468  0.0324  0.6551  0.0380
  186MOL0     H25056   9.741  10.043   1.336  1.2429  2.4549 -0.7538
  186MOL0     H25057   9.649  10.320   1.327  0.8591  1.1233 -1.6093
  186MOL0     H25058   9.648  10.249   1.175  1.4937  0.1868 -0.7455
  186MOL0     H25059   9.881  10.275   1.361  1.6616  1.7205 -0.6533
  186MOL0     H25060   9.895  10.169   1.224 -1.9825 -0.4606 -1.2009
  186MOL0     H25061   9.873  10.553   1.312  1.4223 -1.3872  1.3533
  186MOL0     H25062   9.842  10.762   1.105 -0.2135  0.4361  0.2669
  186MOL0     H25063  10.005  10.772   1.164 -3.5396  1.5558  1.9167
  186MOL0     H25064  10.087  10.720   0.925  0.1103 -0.7865 -1.4922
  186MOL0     H25065   9.918  10.713   0.882 -2.2764 -0.1234  2.9442
  186MOL0     H25066   9.875  10.939   0.899 -0.7100 -1.7875  0.0909
  186MOL0     H25067  10.035  10.923   0.822  0.7184 -1.5236  0.1685
  186MOL0     H25068  10.121  10.976   1.077 -1.1242 -1.8470  0.7544
  186MOL0     H25069   9.949  10.991   1.106  0.7442 -0.9607 -0.6239
  186MOL0     H25070  10.096  11.361   0.905  2.1020  1.3826  0.7729
  186MOL0     H25071  10.121  11.566   1.021 -1.6946 -0.6555  0.1852
  186MOL0     H25072  10.007  11.811   1.411 -2.7508 -0.1981  1.9830
  186MOL0     H25073  10.011  11.985   1.560 -0.6933 -0.4738  0.8405
  186MOL0     H25074  10.107  12.044   1.963 -0.0668  1.5708 -2.7850
  186MOL0     H25075  10.146  11.870   1.933 -0.1481  0.1026 -2.4740
  186MOL0     H25076  10.374  11.914   2.006  2.2940  2.6646  2.4657
  186MOL0     H25077  10.392  12.014   1.869  2.8461  1.9641  1.8518
  186MOL0     H25078  10.304  12.109   2.134 -2.2697 -3.1961 -1.1291
  186MOL0     H25079  10.459  12.126   2.062  0.6727  4.0034 -1.8097
  186MOL0     H25080  10.212  12.268   1.990  0.8608  0.2249  1.4767
  186MOL0     H25081  10.330  12.241   1.857 -2.0649 -3.0838 -0.5072
  186MOL0     H25082  10.387  12.463   1.949  2.9077  0.7763 -0.5016
  186MOL0     H25083  10.496  12.341   1.994 -0.0737  0.3366  0.8969
  186MOL0     H25084  10.370  12.313   2.217 -0.7445 -0.1709 -0.8676
  186MOL0     H25085  10.461  12.470   2.192  0.9616 -1.7971 -0.2237
  186MOL0     H25086  10.152  12.415   2.145 -2.7431  1.1117  2.0415
  186MOL0     H25087  10.220  12.576   2.132 -0.6790 -0.9941 -2.1896
  186MOL0     H25088  10.240  12.429   2.403  0.3737  2.8603  2.7440
  186MOL0     H25089  10.263  12.600   2.357  0.7054  0.1162 -1.3206
  186MOL0     H25090  10.347  11.811   1.766 -0.3178  0.9469 -1.1175
  186MOL0     H25091  10.305  11.606   1.657  1.8658  3.0992  2.7999
  186MOL0     H25092  10.070  11.339   1.385 -0.8482  0.7943 -0.6468
  186MOL0     H25093  10.032  11.137   1.251  2.5604 -1.1013 -1.5920
  186MOL0     H25094   8.984  10.268   0.950 -0.1327  1.8605 -3.9644
  186MOL0     H25095   9.000  10.514   0.905 -2.7885 -3.0736  1.6733
  186MOL0     H25096   9.152  10.868   0.855 -3.6098  0.8069  0.8528
  186MOL0     H25097   9.173  11.110   0.802 -1.1309  0.1803 -0.8129
  186MOL0     H25098   9.080  11.300   0.775  3.0549 -1.2969 -2.5635
  186MOL0     H25099   9.253  11.345   0.797  0.3406  0.7946  0.8239
  186MOL0     H25100   8.992  11.506   0.818  0.2008  1.8880 -3.1577
  186MOL0     H25101   9.120  11.537   0.708  2.9719 -2.3041 -0.0638
  186MOL0     H25102   9.118  11.604   1.006 -1.8743  1.1955 -0.9559
  186MOL0     H25103   9.102  11.712   0.865 -1.4017 -1.1900 -0.7012
  186MOL0     H25104   9.373  11.591   0.909 -0.7727 -0.3448  0.6927
  186MOL0     H25105   9.309  11.698   0.784 -0.5166 -0.8941  0.1510
  186MOL0     H25106   9.317  11.964   1.107 -1.7523  2.0746 -2.6992
  186MOL0     H25107   9.133  11.209   1.213  2.2668  0.7112 -1.4508
  186MOL0     H25108   9.184  10.885   1.356  0.0095  0.1202  0.2019
  186MOL0     H25109   9.195  11.058   1.359  1.0494  0.4762 -1.8895
  186MOL0     H25110   9.035  10.982   1.359  0.0774 -2.6966 -0.7380
  187MOL0     O25111   0.209   4.231   3.958  0.6878 -0.6060 -0.3420
  187MOL0     C25112   0.210   4.343   4.011  1.0018 -0.8147 -0.4810
  187MOL0     O25113   0.289   4.384   4.112 -0.2251 -0.4810 -0.1385
  187MOL0     C25114   0.385   4.306   4.167  0.8377  0.0874 -0.1117
  187MOL0     C25115   0.412   4.319   4.303  1.0058 -0.0231  0.2678
  187MOL0     C25116   0.522   4.254   4.358  0.8661 -0.2224 -0.6093
  187MOL0     C25117   0.614   4.184   4.283  0.0219  0.3942  1.2066
  187MOL0     O25118   0.712   4.119   4.353 -0.4474  0.8193  0.3203
  187MOL0     C25119   0.783   4.021   4.270  0.2162 -0.7586 -0.3057
  187MOL0     C25120   0.873   3.926   4.354 -1.0641  0.4219 -0.2637
  187MOL0     C25121   1.020   3.973   4.354  0.2064 -0.0570  0.0095
  187MOL0     C25122   1.033   4.125   4.393 -0.0519  0.3197 -0.3657
  187MOL0     C25123   1.176   4.174   4.415  0.0084 -0.2059  0.3120
  187MOL0     C25124   1.237   4.101   4.534  0.6425  0.0502 -0.1211
  187MOL0     C25125   1.166   4.104   4.667  1.0906  0.4375  0.6236
  187MOL0     C25126   1.259   4.052   4.768 -0.3454  0.2925 -0.1864
  187MOL0     N25127   1.194   4.022   4.890 -0.2111 -0.6748 -0.7922
  187MOL0     C25128   1.135   3.912   4.930  0.1740  0.2076  0.4124
  187MOL0     C25129   1.112   3.929   5.063  0.6348  0.3563 -1.0778
  187MOL0     C25130   1.061   3.813   5.155  0.6623 -0.5650  0.1075
  187MOL0     C25131   1.100   3.851   5.302  0.7462  0.1653 -0.3533
  187MOL0     C25132   1.087   3.741   5.403  1.0518  0.2006  0.4860
  187MOL0     C25133   0.953   3.664   5.389  0.3106 -0.2034 -0.0726
  187MOL0     O25134   0.857   3.767   5.421 -0.4666  0.6675  0.1022
  187MOL0     C25135   0.740   3.768   5.346 -0.1866 -0.0844  0.4530
  187MOL0     C25136   0.690   3.654   5.281 -0.4049  0.6291 -0.0113
  187MOL0     C25137   0.575   3.660   5.203 -0.3470  0.2587 -0.4820
  187MOL0     C25138   0.506   3.778   5.186  0.1153 -0.0431 -0.3216
  187MOL0     C25139   0.377   3.773   5.112 -0.3870  0.0579 -0.4238
  187MOL0     O25140   0.303   3.891   5.104  0.0659  0.2815  0.2712
  187MOL0     C25141   0.193   3.893   5.021 -0.0135  0.2865 -0.0290
  187MOL0     C25142   0.188   4.004   4.940 -0.3215 -0.2066  0.5560
  187MOL0     C25143   0.068   4.023   4.860 -0.1897 -1.2473 -0.6734
  187MOL0     C25144  -0.025   3.933   4.856  0.2212  0.2150  0.2687
  187MOL0     O25145  -0.133   3.961   4.781  0.2985 -0.0448  0.6769
  187MOL0     C25146  -0.134   3.901   4.645 -0.7983 -0.0898 -1.2744
  187MOL0     C25147  -0.221   3.778   4.630 -0.0317  0.3468 -0.1866
  187MOL0     C25148  -0.355   3.802   4.701 -0.4038  0.4851 -0.6213
  187MOL0     C25149  -0.452   3.681   4.707 -0.2806 -0.0053  0.3244
  187MOL0     C25150  -0.392   3.558   4.781 -0.9078  0.2929 -0.2162
  187MOL0     C25151  -0.382   3.577   4.930 -0.0618  0.4150  0.5236
  187MOL0     C25152  -0.359   3.449   4.996 -0.1448  0.7367  0.1555
  187MOL0     C25153  -0.379   3.445   5.147  0.2470  0.1175  1.1567
  187MOL0    Cl25154  -0.555   3.453   5.174  0.0328 -0.2208  0.3339
  187MOL0     C25155  -0.018   3.823   4.933  0.6432  0.6493 -0.5579
  187MOL0     C25156   0.090   3.803   5.021  0.5976 -0.6197  0.7604
  187MOL0     O25157   0.369   3.680   5.037  0.0034  0.3779 -1.4542
  187MOL0     C25158   0.555   3.888   5.256  0.0626 -1.0164  0.0494
  187MOL0     C25159   0.677   3.894   5.324 -0.3554 -0.4245  0.3354
  187MOL0     N25160   1.153   4.056   5.094 -0.8050  0.2132 -1.0215
  187MOL0     N25161   1.201   4.112   4.997 -0.6277  1.2915  0.0209
  187MOL0     C25162   0.586   4.174   4.142 -0.8428  0.3286 -0.3041
  187MOL0     C25163   0.479   4.244   4.082 -1.1043 -0.1411 -0.2953
  187MOL0     C25164   0.111   4.443   3.973 -1.2288 -0.1197 -1.2372
  187MOL0     C25165   0.093   4.552   4.061  0.1358  0.4271  0.3894
  187MOL0     C25166  -0.011   4.649   4.030 -0.5098  0.1508  0.0658
  187MOL0     C25167  -0.098   4.637   3.920  0.1591  0.7141 -0.5048
  187MOL0     O25168  -0.198   4.732   3.904  0.5036 -0.0206 -0.2298
  187MOL0     C25169  -0.285   4.725   3.790  0.9017  0.1140 -0.4259
  187MOL0     C25170  -0.385   4.605   3.808  0.2532  0.4281  0.0486
  187MOL0     C25171  -0.508   4.598   3.714  0.0732  0.4100  1.3505
  187MOL0     C25172  -0.490   4.475   3.613 -0.6793  0.0211 -0.2725
  187MOL0     C25173  -0.490   4.340   3.690 -0.9457 -0.3579 -0.0475
  187MOL0     C25174  -0.476   4.240   3.753  0.1134  1.1859 -0.3251
  187MOL0     C25175  -0.067   4.535   3.828  0.0858 -1.0413 -0.4895
  187MOL0     C25176   0.038   4.440   3.854 -0.0982  0.7845  0.0081
  187MOL0     C25177   0.044   4.325   3.758  1.3430  0.8847 -0.1036
  187MOL0     H25178   0.342   4.375   4.363  0.6591  1.0029 -1.0439
  187MOL0     H25179   0.535   4.252   4.466 -3.3783 -0.8263  0.0442
  187MOL0     H25180   0.717   3.956   4.212  0.5205 -0.9356 -0.4583
  187MOL0     H25181   0.848   4.078   4.202 -0.7205  0.4104 -0.2525
  187MOL0     H25182   0.866   3.831   4.299  1.1606  0.7479 -1.2153
  187MOL0     H25183   0.831   3.906   4.453 -1.5997 -1.2037 -0.7844
  187MOL0     H25184   1.054   3.947   4.253 -1.5346  1.7461 -1.1180
  187MOL0     H25185   1.062   3.911   4.434 -0.2722  2.6472  2.5054
  187MOL0     H25186   0.994   4.196   4.319  1.0516 -1.0754 -2.4033
  187MOL0     H25187   0.979   4.130   4.487 -0.7615 -0.4141 -0.7217
  187MOL0     H25188   1.233   4.160   4.323  0.9899  1.0966  0.6964
  187MOL0     H25189   1.173   4.280   4.440  0.7754  0.0940 -0.7825
  187MOL0     H25190   1.245   3.995   4.510  2.6141  0.2793 -0.6310
  187MOL0     H25191   1.338   4.142   4.545  1.0743 -1.3559  1.5937
  187MOL0     H25192   1.078   4.040   4.666  2.8949 -2.2689 -1.8746
  187MOL0     H25193   1.134   4.207   4.690 -4.3563 -1.1036  1.3554
  187MOL0     H25194   1.304   3.960   4.730  1.8887  0.7899  1.1008
  187MOL0     H25195   1.338   4.119   4.802  0.3614 -1.1030  1.0344
  187MOL0     H25196   1.115   3.828   4.865  2.5458 -0.0340 -0.1048
  187MOL0     H25197   0.955   3.797   5.134 -0.0561  1.2902  2.0287
  187MOL0     H25198   1.117   3.723   5.127  1.1091  0.7069 -3.6186
  187MOL0     H25199   1.203   3.890   5.299  1.1279 -0.4541  2.2553
  187MOL0     H25200   1.032   3.930   5.335  1.2758  0.8804 -0.9352
  187MOL0     H25201   1.084   3.790   5.500 -3.4916  1.0210  0.1617
  187MOL0     H25202   1.168   3.668   5.399  1.9004  0.8317  3.5873
  187MOL0     H25203   0.947   3.593   5.472  0.6681 -0.1706 -0.0171
  187MOL0     H25204   0.952   3.623   5.287  0.7369 -0.2017 -0.0824
  187MOL0     H25205   0.748   3.563   5.292  0.4089  1.2138  0.7743
  187MOL0     H25206   0.550   3.560   5.169 -1.5010  1.1634 -2.4135
  187MOL0     H25207   0.265   4.079   4.927 -0.0073 -0.9662 -2.7915
  187MOL0     H25208   0.053   4.109   4.795 -2.7986 -1.1668 -0.0699
  187MOL0     H25209  -0.167   3.974   4.571 -3.1726 -1.3588 -1.5694
  187MOL0     H25210  -0.028   3.874   4.634  0.0724  2.1327  0.8434
  187MOL0     H25211  -0.249   3.763   4.526  0.6930  1.4008 -0.5469
  187MOL0     H25212  -0.163   3.695   4.672  0.5056  1.6633  1.8131
  187MOL0     H25213  -0.338   3.843   4.801  2.5337 -1.3230 -0.2644
  187MOL0     H25214  -0.424   3.869   4.648 -0.7428 -1.5162 -2.9083
  187MOL0     H25215  -0.479   3.649   4.606 -0.4134 -1.3926  0.7779
  187MOL0     H25216  -0.541   3.716   4.760  0.3723  3.9803 -0.8518
  187MOL0     H25217  -0.298   3.526   4.734 -0.6050  1.7826 -0.6636
  187MOL0     H25218  -0.452   3.468   4.762  0.4897 -0.5306 -0.8897
  187MOL0     H25219  -0.314   3.659   4.956  0.1593 -0.0222  1.3626
  187MOL0     H25220  -0.475   3.621   4.967  0.8628 -0.5479  4.4287
  187MOL0     H25221  -0.255   3.435   4.965 -0.8876 -2.2565 -1.3765
  187MOL0     H25222  -0.420   3.368   4.957  1.2368 -1.2464  1.8663
  187MOL0     H25223  -0.337   3.347   5.174 -0.5981 -0.6787 -0.2922
  187MOL0     H25224  -0.337   3.529   5.203  0.0383 -1.4336  3.8444
  187MOL0     H25225  -0.095   3.749   4.915  1.4923 -0.1337 -1.0433
  187MOL0     H25226   0.112   3.708   5.070 -0.9300 -1.3019  0.1810
  187MOL0     H25227   0.507   3.983   5.234  0.8114 -0.1223  2.0914
  187MOL0     H25228   0.712   3.993   5.352  0.1302 -0.0632 -1.3761
  187MOL0     H25229   0.657   4.121   4.079 -0.9912 -0.2783  0.0308
  187MOL0     H25230   0.453   4.252   3.977 -2.6439  1.6369  0.1747
  187MOL0     H25231   0.149   4.573   4.151 -0.1852  1.4603  0.3688
  187MOL0     H25232  -0.042   4.716   4.110  1.0928 -3.0138  3.6548
  187MOL0     H25233  -0.228   4.728   3.696  3.9747 -2.6546  1.1224
  187MOL0     H25234  -0.343   4.817   3.793  0.1151 -0.3622 -0.7419
  187MOL0     H25235  -0.414   4.615   3.913 -5.8527 -2.0072 -1.0408
  187MOL0     H25236  -0.334   4.508   3.812  2.2759  1.4748  1.6194
  187MOL0     H25237  -0.524   4.688   3.655  1.0983 -1.1474 -1.5341
  187MOL0     H25238  -0.592   4.579   3.781 -0.3173  1.6116  1.2174
  187MOL0     H25239  -0.568   4.466   3.537 -0.0171 -1.9664 -0.7712
  187MOL0     H25240  -0.392   4.484   3.565 -1.3234  3.0746 -1.2844
  187MOL0     H25241  -0.470   4.149   3.810 -4.2443  0.8357 -0.0993
  187MOL0     H25242  -0.121   4.526   3.734  1.2687 -0.7835 -1.2149
  187MOL0     H25243  -0.018   4.243   3.798  2.8336 -0.6633 -0.8302
  187MOL0     H25244   0.000   4.349   3.661  1.7265  1.2097 -0.1967
  187MOL0     H25245   0.145   4.288   3.738  0.4606 -1.3953 -0.7040
  188MOL0     O25246   0.481   9.007   1.206 -0.3801  0.4906 -0.3513
  188MOL0     C25247   0.540   8.961   1.105 -1.0965 -0.1737 -0.5462
  188MOL0     O25248   0.666   8.931   1.108  0.1987  0.3357  0.0579
  188MOL0     C25249   0.749   8.957   1.214 -0.0419  0.0275  0.8040
  188MOL0     C25250   0.846   9.059   1.190 -0.1743  0.2788 -0.0902
  188MOL0     C25251   0.944   9.088   1.289  0.8523  0.0955  0.6934
  188MOL0     C25252   0.958   8.997   1.400  0.6737 -0.5230  0.8953
  188MOL0     O25253   1.068   9.014   1.471  0.1748 -0.1661 -0.4421
  188MOL0     C25254   1.073   8.935   1.597 -0.5828  1.2569  0.6066
  188MOL0     C25255   1.201   8.964   1.669 -0.0428  0.6678  0.4463
  188MOL0     C25256   1.220   8.878   1.792  0.3935 -0.0805 -0.2814
  188MOL0     C25257   1.304   8.958   1.895 -0.6787 -0.4716  0.4165
  188MOL0     C25258   1.449   8.996   1.864  0.6007  0.3951  0.8979
  188MOL0     C25259   1.540   9.000   1.998  0.6261  0.2535  0.8420
  188MOL0     C25260   1.687   9.028   1.967  0.0913  0.6280 -0.3604
  188MOL0     C25261   1.721   9.167   1.928 -0.4550  0.0174  0.2992
  188MOL0     N25262   1.714   9.262   2.046  0.4105 -0.6348  0.5411
  188MOL0     C25263   1.816   9.264   2.127 -1.4989  0.2085  0.0761
  188MOL0     C25264   1.777   9.362   2.218  0.1305 -0.4390 -0.5166
  188MOL0     C25265   1.858   9.412   2.329 -0.3670 -0.0863 -0.1938
  188MOL0     C25266   1.955   9.523   2.296 -0.2697  0.8126  0.1667
  188MOL0     C25267   1.903   9.656   2.248  0.2306 -0.3084  0.5679
  188MOL0     C25268   1.820   9.735   2.349  0.3604 -0.1186  0.3425
  188MOL0     O25269   1.848   9.875   2.358 -0.2550  1.2989  0.1862
  188MOL0     C25270   1.970   9.935   2.393 -0.4725 -0.2481 -0.3682
  188MOL0     C25271   2.008  10.050   2.324 -0.6024  0.1973 -0.2245
  188MOL0     C25272   2.141  10.106   2.329 -0.0367  0.5504 -0.0736
  188MOL0     C25273   2.234  10.047   2.415  0.1642  0.0651 -0.4366
  188MOL0     C25274   2.367  10.105   2.434 -0.1455  0.0401 -0.0846
  188MOL0     O25275   2.372  10.246   2.418  0.0182  0.5723  0.3698
  188MOL0     C25276   2.487  10.319   2.392 -0.3918 -0.0732 -0.0125
  188MOL0     C25277   2.619  10.267   2.389  0.0425 -0.3499 -0.3526
  188MOL0     C25278   2.722  10.362   2.367 -0.0031 -0.3906  0.8973
  188MOL0     C25279   2.699  10.500   2.349  0.4137  0.2074  0.1758
  188MOL0     O25280   2.818  10.574   2.331  0.4989  0.6278  0.0189
  188MOL0     C25281   2.821  10.693   2.255 -0.7273  0.7210  0.1084
  188MOL0     C25282   2.788  10.815   2.336  0.7131  1.0189  0.5181
  188MOL0     C25283   2.797  10.830   2.493  0.2862  0.0683  0.6033
  188MOL0     C25284   2.931  10.871   2.533  0.3077 -0.0703 -0.6058
  188MOL0     C25285   2.942  10.876   2.688 -0.2167  0.3280 -0.4096
  188MOL0     C25286   3.095  10.887   2.726 -0.2252 -0.5604  0.9216
  188MOL0     C25287   3.106  10.875   2.876 -0.4093  0.1409 -1.3077
  188MOL0     C25288   3.244  10.912   2.936  0.5963  0.1583 -0.6007
  188MOL0    Cl25289   3.379  10.813   2.867  0.1924  0.1393 -0.0680
  188MOL0     C25290   2.572  10.545   2.351  0.7897 -1.4955  0.6842
  188MOL0     C25291   2.463  10.458   2.383 -1.0710 -0.7541  0.3532
  188MOL0     O25292   2.459  10.027   2.451 -0.4745  0.1403  0.4545
  188MOL0     C25293   2.196   9.912   2.463 -0.6293 -0.1205  0.3837
  188MOL0     C25294   2.060   9.863   2.467 -0.9905  0.0827 -0.8441
  188MOL0     N25295   1.652   9.420   2.176 -0.4421 -0.2946 -0.2364
  188MOL0     N25296   1.617   9.352   2.065  0.4471  0.3796 -0.2700
  188MOL0     C25297   0.866   8.892   1.416 -0.2678 -0.5987 -0.3365
  188MOL0     C25298   0.769   8.864   1.318  0.7135 -0.6049 -0.5647
  188MOL0     C25299   0.467   8.931   0.977 -0.0980  0.1128 -0.6438
  188MOL0     C25300   0.341   8.989   0.975  0.3587 -0.2841 -0.1804
  188MOL0     C25301   0.256   8.945   0.871 -0.0893 -0.4279 -1.0755
  188MOL0     C25302   0.300   8.872   0.760  1.1330  0.3205 -0.7451
  188MOL0     O25303   0.218   8.845   0.655  0.0353  0.0629 -0.0230
  188MOL0     C25304   0.134   8.949   0.609  0.3661 -0.8872 -0.1304
  188MOL0     C25305   0.033   8.892   0.517 -0.2079  0.1927 -0.1990
  188MOL0     C25306  -0.074   8.994   0.489 -1.2034  0.0217  0.6446
  188MOL0     C25307  -0.208   8.930   0.435 -0.8413 -0.5074  1.0393
  188MOL0     C25308  -0.307   8.901   0.536 -0.4765 -0.1216  1.1713
  188MOL0     C25309  -0.388   8.882   0.622  0.3007 -0.9861  0.0254
  188MOL0     C25310   0.426   8.831   0.766 -0.5877  0.0225  0.4705
  188MOL0     C25311   0.515   8.847   0.872  0.5112 -0.6593 -0.1073
  188MOL0     C25312   0.653   8.802   0.847  1.0958 -0.5338  0.0396
  188MOL0     H25313   0.831   9.114   1.098 -0.4329 -4.8215 -3.4918
  188MOL0     H25314   1.010   9.174   1.289  1.2892 -0.2313  1.0962
  188MOL0     H25315   0.994   8.957   1.669 -0.9885 -0.3645  0.6947
  188MOL0     H25316   1.065   8.826   1.595 -0.6010  1.2127  1.9113
  188MOL0     H25317   1.216   9.068   1.699  0.7148  0.6038  0.3026
  188MOL0     H25318   1.282   8.940   1.601 -0.9185 -2.8660  0.4417
  188MOL0     H25319   1.277   8.788   1.768 -0.1753 -0.5230  0.0015
  188MOL0     H25320   1.122   8.859   1.836  1.0585  2.8962  2.8986
  188MOL0     H25321   1.250   9.050   1.918  3.0519  1.9751  0.2464
  188MOL0     H25322   1.311   8.899   1.987 -0.0202 -0.8320  0.1450
  188MOL0     H25323   1.467   8.919   1.789 -1.4576  1.5217 -0.8711
  188MOL0     H25324   1.456   9.090   1.808 -0.6328 -0.5030 -0.8415
  188MOL0     H25325   1.522   9.082   2.067  1.3107 -0.3334  1.7363
  188MOL0     H25326   1.539   8.900   2.044  2.1958 -0.3620 -0.3647
  188MOL0     H25327   1.725   8.955   1.895 -0.7310 -0.7549  0.5504
  188MOL0     H25328   1.741   9.013   2.062 -1.3829 -1.3255  0.2344
  188MOL0     H25329   1.821   9.160   1.885 -0.6517  2.8325 -0.8074
  188MOL0     H25330   1.661   9.209   1.846  1.1823  1.5516 -0.1788
  188MOL0     H25331   1.899   9.195   2.122 -1.5596  0.1578 -0.2351
  188MOL0     H25332   1.794   9.451   2.408  1.2440 -1.0970  1.6853
  188MOL0     H25333   1.903   9.322   2.372 -2.0479 -1.0288 -0.2903
  188MOL0     H25334   2.016   9.535   2.386  2.0452  1.1992 -1.3684
  188MOL0     H25335   2.027   9.491   2.221  1.7856  1.2731  1.8412
  188MOL0     H25336   1.849   9.656   2.153 -0.4663  3.6278  0.8222
  188MOL0     H25337   1.982   9.728   2.226 -0.7300 -0.1123 -2.6990
  188MOL0     H25338   1.835   9.704   2.453 -1.3562  1.6456  1.1764
  188MOL0     H25339   1.716   9.723   2.318  0.4114  0.4718 -0.0505
  188MOL0     H25340   1.940  10.071   2.243  0.8581 -3.5232 -2.6753
  188MOL0     H25341   2.174  10.181   2.257  2.5746 -2.9292 -2.8917
  188MOL0     H25342   2.637  10.161   2.407 -0.1643 -0.8045 -2.5801
  188MOL0     H25343   2.827  10.333   2.367  1.1258  3.1474  1.3247
  188MOL0     H25344   2.921  10.698   2.212  0.1427 -1.7650  1.6097
  188MOL0     H25345   2.751  10.681   2.171  0.4944  2.2894 -1.1913
  188MOL0     H25346   2.863  10.880   2.289  0.7415  0.7578  0.1991
  188MOL0     H25347   2.684  10.838   2.309  0.9988  3.5505  1.2773
  188MOL0     H25348   2.736  10.917   2.519  1.4808  1.3511 -0.7632
  188MOL0     H25349   2.757  10.744   2.548  0.3924  1.3023  2.7103
  188MOL0     H25350   2.967  10.963   2.486  4.7403 -1.8587 -1.2636
  188MOL0     H25351   2.992  10.790   2.491 -0.8243 -2.7027  2.4341
  188MOL0     H25352   2.911  10.780   2.731 -2.4556  1.8102  1.5048
  188MOL0     H25353   2.881  10.959   2.723 -2.3267 -1.7517  1.2053
  188MOL0     H25354   3.155  10.804   2.688  1.9908  0.4619  2.0178
  188MOL0     H25355   3.132  10.987   2.702  0.8404 -1.2908 -0.6227
  188MOL0     H25356   3.099  10.769   2.902 -1.4808  0.2612 -1.0715
  188MOL0     H25357   3.030  10.932   2.929  0.1517 -2.1870  2.4032
  188MOL0     H25358   3.280  11.012   2.910  3.1056 -0.8825 -1.4987
  188MOL0     H25359   3.243  10.896   3.044 -1.8258 -3.7428 -1.0268
  188MOL0     H25360   2.551  10.646   2.318 -2.2805 -1.5682  2.0285
  188MOL0     H25361   2.360  10.493   2.379 -0.3831  1.7782  2.3584
  188MOL0     H25362   2.273   9.859   2.517  0.7847 -2.5120 -3.5294
  188MOL0     H25363   2.041   9.767   2.515  1.4626  0.0846  0.3107
  188MOL0     H25364   0.876   8.820   1.497  3.8238 -0.4714 -0.5365
  188MOL0     H25365   0.706   8.776   1.323  2.3257 -1.7435  2.5433
  188MOL0     H25366   0.301   9.057   1.050 -3.0021 -3.3557  1.1267
  188MOL0     H25367   0.157   8.988   0.879 -1.4743 -3.5894  0.9959
  188MOL0     H25368   0.196   9.024   0.560  0.0323 -1.1803 -1.0108
  188MOL0     H25369   0.082   8.993   0.694  1.3684 -0.4984  0.3027
  188MOL0     H25370  -0.011   8.810   0.575 -2.4499  1.6620  0.3280
  188MOL0     H25371   0.077   8.853   0.425  1.8413  1.4701  0.1773
  188MOL0     H25372  -0.028   9.054   0.409  2.4522  2.2153  4.0072
  188MOL0     H25373  -0.083   9.052   0.582 -4.1017  0.8656 -0.0477
  188MOL0     H25374  -0.244   9.001   0.360  0.1288 -1.6473 -0.5582
  188MOL0     H25375  -0.185   8.836   0.385  1.6285  0.7394 -0.4334
  188MOL0     H25376  -0.464   8.850   0.690 -0.3571 -1.4128 -0.8931
  188MOL0     H25377   0.460   8.772   0.681  5.6512  1.3895  1.5343
  188MOL0     H25378   0.679   8.723   0.918 -0.8208 -0.2045  1.1641
  188MOL0     H25379   0.656   8.763   0.745 -1.1289  1.8402 -1.0522
  188MOL0     H25380   0.721   8.888   0.845 -2.1244  2.1922  0.0665
  189MOL0     O25381   7.677   2.104   7.933  0.5220  0.2960 -0.0415
  189MOL0     C25382   7.750   2.028   7.997 -0.4839 -0.1139 -1.1901
  189MOL0     O25383   7.752   2.006   8.128 -0.3362  0.6689 -0.0486
  189MOL0     C25384   7.656   2.063   8.212 -0.0352 -0.1589  0.0871
  189MOL0     C25385   7.560   1.981   8.279  0.1223  0.0871 -0.3146
  189MOL0     C25386   7.466   2.030   8.363  1.2451  0.5852 -0.2536
  189MOL0     C25387   7.453   2.167   8.382  0.6661 -0.2075 -0.0296
  189MOL0     O25388   7.358   2.221   8.458  0.0116 -1.1420 -0.3577
  189MOL0     C25389   7.248   2.290   8.397 -0.7254  0.2108  0.6391
  189MOL0     C25390   7.162   2.323   8.515 -0.6336 -0.4528  0.1012
  189MOL0     C25391   7.052   2.412   8.479 -0.0912  0.9280  0.4901
  189MOL0     C25392   6.968   2.443   8.600  0.3081 -0.2775 -0.8729
  189MOL0     C25393   6.843   2.534   8.575  1.3329  0.1950  0.4790
  189MOL0     C25394   6.871   2.654   8.476  0.1763 -0.3841  0.4729
  189MOL0     C25395   6.759   2.753   8.458 -0.0188  0.2244 -0.2483
  189MOL0     C25396   6.806   2.837   8.338  0.0658  0.0060 -0.3634
  189MOL0     N25397   6.716   2.945   8.309  0.3005 -0.2754 -0.1349
  189MOL0     C25398   6.693   3.048   8.399  0.4542  0.4735  0.0907
  189MOL0     C25399   6.595   3.123   8.347  0.3292 -0.3969  0.4718
  189MOL0     C25400   6.544   3.250   8.401 -0.2932  0.4375  0.1433
  189MOL0     C25401   6.395   3.229   8.447  0.4147 -1.1357  0.0419
  189MOL0     C25402   6.333   3.375   8.460 -1.2523  0.2613 -0.0374
  189MOL0     C25403   6.186   3.369   8.477 -0.2599 -0.1990  0.0662
  189MOL0     O25404   6.106   3.376   8.352  1.3931 -0.6747 -0.0121
  189MOL0     C25405   5.987   3.311   8.368 -0.7013  0.3415 -0.2774
  189MOL0     C25406   5.969   3.172   8.372  0.9249  0.5577 -0.2910
  189MOL0     C25407   5.838   3.113   8.383  0.3938 -0.1483  0.2046
  189MOL0     C25408   5.729   3.204   8.394  0.4236 -0.2520  0.5681
  189MOL0     C25409   5.591   3.145   8.414 -0.1861 -0.3495 -0.8380
  189MOL0     O25410   5.489   3.232   8.445 -0.0423  0.6708 -0.7512
  189MOL0     C25411   5.383   3.179   8.515  0.3313  1.0852  0.7539
  189MOL0     C25412   5.302   3.079   8.455 -0.3026 -0.0458 -0.3264
  189MOL0     C25413   5.199   3.035   8.530  0.2783 -0.3603 -0.4433
  189MOL0     C25414   5.178   3.067   8.663  0.5071  0.3559 -0.5266
  189MOL0     O25415   5.070   3.026   8.739  0.8908  0.2825  0.3380
  189MOL0     C25416   5.053   2.882   8.731 -0.2256 -0.0417 -0.7267
  189MOL0     C25417   4.996   2.844   8.857  0.4081  0.3773 -0.2361
  189MOL0     C25418   5.089   2.883   8.977  0.2607  0.3317  0.0708
  189MOL0     C25419   5.030   3.002   9.050  0.6139 -0.0440  0.4266
  189MOL0     C25420   5.105   3.027   9.182 -0.1911 -0.4693 -0.1157
  189MOL0     C25421   5.034   3.119   9.278  0.4361 -0.4924 -1.0432
  189MOL0     C25422   5.021   3.265   9.236  0.4408  0.4958  0.8228
  189MOL0     C25423   4.998   3.366   9.348  0.4057 -0.2887  0.3124
  189MOL0    Cl25424   4.843   3.344   9.433 -0.3877 -0.1350  0.1979
  189MOL0     C25425   5.256   3.155   8.725 -0.1796 -1.1591  0.7503
  189MOL0     C25426   5.349   3.226   8.647  0.0971 -0.2187  0.2439
  189MOL0     O25427   5.587   3.021   8.420  0.5255  0.3184 -0.3553
  189MOL0     C25428   5.751   3.337   8.394  0.5184 -0.7894  0.8716
  189MOL0     C25429   5.876   3.392   8.376  0.2317 -0.6126 -0.7874
  189MOL0     N25430   6.551   3.069   8.229 -0.5529  0.4879 -0.7487
  189MOL0     N25431   6.626   2.966   8.207  0.3074  1.0904  0.1546
  189MOL0     C25432   7.551   2.258   8.323  0.6279  0.2438 -0.1701
  189MOL0     C25433   7.647   2.204   8.244 -0.1057 -0.4383  0.7003
  189MOL0     C25434   7.826   1.928   7.912  0.0843  1.1569 -0.1596
  189MOL0     C25435   7.888   1.819   7.976 -0.3339 -0.5083  0.0511
  189MOL0     C25436   7.973   1.727   7.911 -0.1042 -0.5144  0.5332
  189MOL0     C25437   7.988   1.746   7.771  0.3279  1.0465 -0.5395
  189MOL0     O25438   8.069   1.662   7.695 -0.3139  0.3751  0.8104
  189MOL0     C25439   8.109   1.537   7.760  0.7467 -0.4610 -0.1907
  189MOL0     C25440   8.188   1.464   7.644 -1.2611 -0.0703 -0.7175
  189MOL0     C25441   8.246   1.324   7.684  0.0898  0.0078 -1.2273
  189MOL0     C25442   8.138   1.210   7.698 -0.6061  0.4801  1.4566
  189MOL0     C25443   8.199   1.076   7.693  0.3206  1.0500 -0.0607
  189MOL0     C25444   8.250   0.963   7.669 -0.2245  0.1109 -0.1335
  189MOL0     C25445   7.918   1.848   7.704 -0.0114 -0.2576 -0.9704
  189MOL0     C25446   7.841   1.942   7.772  0.6114  0.9066  0.0271
  189MOL0     C25447   7.786   2.053   7.686 -0.5189  1.0586  0.0663
  189MOL0     H25448   7.528   1.880   8.258 -2.0946  0.5537  0.5927
  189MOL0     H25449   7.395   1.964   8.411  0.3633  1.0581 -0.8798
  189MOL0     H25450   7.295   2.383   8.361 -1.0796  1.8556  4.0382
  189MOL0     H25451   7.198   2.226   8.324  0.5782 -1.2246  0.9407
  189MOL0     H25452   7.229   2.351   8.597 -0.0638 -3.5383  0.7864
  189MOL0     H25453   7.123   2.224   8.538 -0.5373 -0.4785  0.1531
  189MOL0     H25454   6.994   2.363   8.400 -1.1228 -0.7959  2.2473
  189MOL0     H25455   7.097   2.500   8.432  0.5489  0.8546  0.9636
  189MOL0     H25456   6.948   2.351   8.657  1.0551  0.3641  0.4791
  189MOL0     H25457   7.036   2.497   8.666  0.0153 -1.1998  0.2165
  189MOL0     H25458   6.762   2.483   8.520  1.3306  1.8874 -1.2063
  189MOL0     H25459   6.809   2.583   8.667  2.4331  0.0188  0.9883
  189MOL0     H25460   6.956   2.716   8.505  0.9339 -0.9110 -0.5540
  189MOL0     H25461   6.886   2.615   8.375 -0.8406  1.8924 -0.6207
  189MOL0     H25462   6.745   2.814   8.548 -0.3325 -1.1317  0.6487
  189MOL0     H25463   6.665   2.698   8.442 -1.0839  1.4699  1.3885
  189MOL0     H25464   6.905   2.879   8.358  2.2111 -2.8701 -3.8812
  189MOL0     H25465   6.811   2.783   8.244 -0.2252  0.9420 -0.9279
  189MOL0     H25466   6.753   3.081   8.483 -1.7108 -0.6246  2.1757
  189MOL0     H25467   6.606   3.284   8.485  1.3611  0.0921 -0.8909
  189MOL0     H25468   6.571   3.329   8.331  1.2327  0.1530  0.3724
  189MOL0     H25469   6.333   3.168   8.381 -2.5414  1.5008  0.1622
  189MOL0     H25470   6.385   3.177   8.543  2.3224  1.1410  1.5987
  189MOL0     H25471   6.359   3.442   8.377 -2.0922  0.6076 -0.0225
  189MOL0     H25472   6.375   3.421   8.550  0.2728 -2.0638  0.5363
  189MOL0     H25473   6.148   3.448   8.543 -0.9222 -2.0490  2.0257
  189MOL0     H25474   6.171   3.273   8.527 -1.1452  1.8121  4.0688
  189MOL0     H25475   6.042   3.096   8.345  0.7659  0.4733 -0.4888
  189MOL0     H25476   5.830   3.005   8.373  1.5425 -0.0542 -2.2844
  189MOL0     H25477   5.315   3.041   8.354  1.1898  0.2347 -0.2677
  189MOL0     H25478   5.122   2.966   8.495 -0.8590 -0.4803  2.1017
  189MOL0     H25479   4.994   2.858   8.642 -0.5788  0.6746 -0.6972
  189MOL0     H25480   5.153   2.839   8.718  0.3240  1.8125 -3.6804
  189MOL0     H25481   4.893   2.876   8.870  0.2580  0.7262 -2.1093
  189MOL0     H25482   4.985   2.735   8.860 -2.7471  0.6210 -0.5528
  189MOL0     H25483   5.099   2.793   9.038  1.0229 -1.0839 -2.0166
  189MOL0     H25484   5.191   2.907   8.944  0.8529 -1.2193  0.6946
  189MOL0     H25485   4.926   2.987   9.079  0.1507  0.1043 -1.1052
  189MOL0     H25486   5.017   3.086   8.981 -3.2979 -0.4205  0.4848
  189MOL0     H25487   5.210   3.054   9.169 -0.6853  1.7898  0.2329
  189MOL0     H25488   5.107   2.927   9.226 -0.3250 -0.6786 -0.5686
  189MOL0     H25489   4.933   3.083   9.300  0.8706 -1.9545 -1.3384
  189MOL0     H25490   5.091   3.115   9.372 -0.5451 -0.2297 -0.4179
  189MOL0     H25491   4.950   3.275   9.153  2.1699  4.9438 -0.3737
  189MOL0     H25492   5.121   3.295   9.203 -1.0966  5.7736  0.1611
  189MOL0     H25493   5.083   3.351   9.416  0.8880  0.6217 -0.0708
  189MOL0     H25494   5.011   3.467   9.309 -1.0421 -0.8397 -1.7317
  189MOL0     H25495   5.223   3.199   8.819 -0.8501 -3.7957  1.8280
  189MOL0     H25496   5.390   3.321   8.680 -3.2220  2.0035 -1.5020
  189MOL0     H25497   5.675   3.415   8.397  0.1278 -1.0789 -0.4346
  189MOL0     H25498   5.895   3.499   8.385 -1.5835 -0.2984 -0.1566
  189MOL0     H25499   7.549   2.366   8.333 -1.7138  0.0165  3.2133
  189MOL0     H25500   7.713   2.279   8.203  0.0084 -0.9803 -0.1229
  189MOL0     H25501   7.889   1.819   8.084  0.8085  5.1272  0.3387
  189MOL0     H25502   8.008   1.642   7.967  0.1545  0.8278  2.5016
  189MOL0     H25503   8.017   1.487   7.792 -0.5138  2.1825  0.5917
  189MOL0     H25504   8.177   1.566   7.840  0.3249 -1.0209  0.3792
  189MOL0     H25505   8.261   1.538   7.611 -2.8485  2.7518  1.6139
  189MOL0     H25506   8.111   1.447   7.568  0.3873  0.8692 -2.6744
  189MOL0     H25507   8.307   1.338   7.774  1.2667  1.1020 -2.1600
  189MOL0     H25508   8.321   1.296   7.609  3.7783  1.5377  1.5791
  189MOL0     H25509   8.079   1.222   7.790  0.7803  1.1135  2.2989
  189MOL0     H25510   8.075   1.222   7.610 -0.7358  3.0343  1.8148
  189MOL0     H25511   8.303   0.870   7.665  0.4526  0.4241  1.1552
  189MOL0     H25512   7.927   1.863   7.597  5.0717  3.1991 -0.3716
  189MOL0     H25513   7.804   2.148   7.737  0.4862  1.4475 -0.9572
  189MOL0     H25514   7.833   2.073   7.589  0.4517  2.2829  0.7445
  189MOL0     H25515   7.679   2.042   7.668  0.0053  1.3731 -4.6163
  190MOL0     O25516   2.555  10.628   2.713 -0.4705 -0.6775 -0.4388
  190MOL0     C25517   2.628  10.609   2.811 -0.2700  0.0187 -0.7161
  190MOL0     O25518   2.674  10.706   2.899  0.2772 -0.1098  0.5643
  190MOL0     C25519   2.661  10.839   2.895 -0.9716 -0.4651 -0.0215
  190MOL0     C25520   2.726  10.917   2.992  0.1078  0.3637  0.0441
  190MOL0     C25521   2.724  11.053   2.978  0.3260  0.7130 -0.6222
  190MOL0     C25522   2.660  11.119   2.874 -0.0600 -0.2918 -0.1141
  190MOL0     O25523   2.666  11.256   2.861  0.0066  0.1156  0.5276
  190MOL0     C25524   2.681  11.353   2.969 -0.4055  0.8372  0.4169
  190MOL0     C25525   2.712  11.486   2.917 -0.3059  0.0734 -0.2825
  190MOL0     C25526   2.692  11.594   3.020 -0.3909  0.0073  0.1676
  190MOL0     C25527   2.784  11.713   2.996  0.6017  0.1388 -0.0870
  190MOL0     C25528   2.749  11.834   3.092 -0.6717  1.5718 -0.1773
  190MOL0     C25529   2.841  11.846   3.210  0.1449  0.4739  0.1452
  190MOL0     C25530   2.779  11.932   3.316  0.5769  0.2051  0.1774
  190MOL0     C25531   2.777  12.080   3.273 -0.6078 -0.2209  0.5347
  190MOL0     N25532   2.725  12.165   3.383  1.3052  0.4642 -0.1324
  190MOL0     C25533   2.591  12.162   3.419  0.0024  0.6860 -0.2794
  190MOL0     C25534   2.573  12.278   3.497 -0.5189 -0.2073  0.6393
  190MOL0     C25535   2.443  12.319   3.562  0.6121 -0.2018 -0.2162
  190MOL0     C25536   2.411  12.225   3.682  0.1279 -0.4173 -0.8497
  190MOL0     C25537   2.275  12.276   3.745  0.8445  0.8888 -0.3018
  190MOL0     C25538   2.222  12.165   3.832  0.4407 -0.4204 -0.0321
  190MOL0     O25539   2.115  12.202   3.916  0.0414 -0.6648  0.4403
  190MOL0     C25540   2.140  12.253   4.042 -0.9251  0.2739  0.1494
  190MOL0     C25541   2.264  12.277   4.092 -0.0420 -0.4778 -0.1061
  190MOL0     C25542   2.277  12.330   4.221  0.2699 -0.5822  0.0082
  190MOL0     C25543   2.166  12.366   4.303 -0.0267 -0.2165  0.5959
  190MOL0     C25544   2.174  12.405   4.449 -0.5679  0.6683 -0.1634
  190MOL0     O25545   2.067  12.469   4.496  0.6007  0.1688  0.5362
  190MOL0     C25546   2.079  12.526   4.615 -0.0880 -0.1454 -1.1986
  190MOL0     C25547   2.153  12.645   4.643 -0.0180 -0.2804  0.4993
  190MOL0     C25548   2.164  12.698   4.771 -0.1083 -0.0430 -0.2337
  190MOL0     C25549   2.104  12.634   4.875  0.1028  0.6126  0.0866
  190MOL0     O25550   2.112  12.681   5.007  0.5005 -0.6915  0.5785
  190MOL0     C25551   2.171  12.588   5.094 -0.2026  0.9462 -0.1516
  190MOL0     C25552   2.191  12.644   5.234 -0.8104 -0.0056 -0.4873
  190MOL0     C25553   2.344  12.677   5.277  0.3520  0.1949  0.2910
  190MOL0     C25554   2.441  12.553   5.302 -0.6043  0.3135  0.6013
  190MOL0     C25555   2.561  12.610   5.384 -0.8538 -0.2642 -0.1070
  190MOL0     C25556   2.635  12.732   5.312  0.4614 -1.0711 -1.1245
  190MOL0     C25557   2.764  12.762   5.388 -0.6156  0.1006  0.3682
  190MOL0     C25558   2.861  12.840   5.298 -0.4523 -0.2445 -0.1825
  190MOL0    Cl25559   2.800  13.008   5.272 -0.0095  0.3678  0.2682
  190MOL0     C25560   2.029  12.510   4.850  0.9637 -0.4975 -0.0430
  190MOL0     C25561   2.019  12.455   4.728 -0.0459  0.1836  0.2159
  190MOL0     O25562   2.272  12.369   4.523  0.3560 -0.3056 -0.4000
  190MOL0     C25563   2.031  12.361   4.238  1.2508 -0.4217 -0.3825
  190MOL0     C25564   2.029  12.310   4.103  1.3786  0.7328 -0.0713
  190MOL0     N25565   2.698  12.332   3.504 -0.7769 -1.4474 -1.1176
  190MOL0     N25566   2.788  12.265   3.444 -0.1110 -0.1214 -0.2623
  190MOL0     C25567   2.585  11.041   2.785  0.2632  0.2645 -0.1795
  190MOL0     C25568   2.577  10.907   2.802 -0.0986 -0.0256  0.6518
  190MOL0     C25569   2.680  10.470   2.834 -0.2431  0.2576  0.1353
  190MOL0     C25570   2.627  10.366   2.758 -0.0315  0.3086 -0.3619
  190MOL0     C25571   2.678  10.233   2.760  0.0332 -0.5094 -0.5772
  190MOL0     C25572   2.781  10.201   2.850 -0.0035 -0.1849 -0.2566
  190MOL0     O25573   2.837  10.070   2.847 -0.7744  0.5610  0.0634
  190MOL0     C25574   2.769   9.956   2.789 -0.0784  0.7266 -0.3407
  190MOL0     C25575   2.847   9.824   2.846 -0.7494  0.5549 -0.3662
  190MOL0     C25576   2.849   9.708   2.744 -0.2794  1.1947  1.0537
  190MOL0     C25577   2.922   9.580   2.800  1.1687 -0.4090  0.1624
  190MOL0     C25578   2.867   9.455   2.729 -0.2559  1.2619  0.2845
  190MOL0     C25579   2.819   9.348   2.696  0.6436  0.2452 -0.7638
  190MOL0     C25580   2.829  10.306   2.934 -0.2575  0.2395 -0.6443
  190MOL0     C25581   2.779  10.439   2.929  0.7099 -0.6069 -0.6537
  190MOL0     C25582   2.860  10.538   3.006  0.7467 -0.6777  0.6658
  190MOL0     H25583   2.792  10.870   3.065 -0.1703  0.6817  0.5112
  190MOL0     H25584   2.787  11.111   3.045  1.0035  0.5558 -1.1099
  190MOL0     H25585   2.584  11.361   3.020 -0.1592 -3.2877  1.8580
  190MOL0     H25586   2.755  11.323   3.044  0.7337 -1.1644 -1.4039
  190MOL0     H25587   2.648  11.511   2.832  0.5322 -1.8695 -1.5520
  190MOL0     H25588   2.814  11.480   2.877 -0.9874  0.3078 -2.1587
  190MOL0     H25589   2.708  11.562   3.123 -1.2922 -4.8832 -0.9545
  190MOL0     H25590   2.591  11.635   3.012  0.1134  1.0290 -1.8093
  190MOL0     H25591   2.882  11.675   3.026 -0.2217 -0.6102  1.8440
  190MOL0     H25592   2.780  11.744   2.891  0.2313  1.8128  0.3859
  190MOL0     H25593   2.747  11.927   3.034 -1.1766  1.4597 -0.3446
  190MOL0     H25594   2.645  11.829   3.125 -0.3547 -2.7789  0.7481
  190MOL0     H25595   2.857  11.747   3.253  1.5445  1.4441  2.0311
  190MOL0     H25596   2.938  11.883   3.176 -0.0899  0.2732 -0.7619
  190MOL0     H25597   2.844  11.918   3.403  1.4293 -0.8704 -0.6007
  190MOL0     H25598   2.675  11.901   3.328  0.0836  1.8551  0.4453
  190MOL0     H25599   2.878  12.111   3.244 -1.2120  0.5781 -0.7870
  190MOL0     H25600   2.730  12.085   3.174  0.2377  2.4903  0.2141
  190MOL0     H25601   2.528  12.081   3.385 -0.4049  0.3965  1.0947
  190MOL0     H25602   2.446  12.424   3.595  2.4231 -0.8353  1.8805
  190MOL0     H25603   2.356  12.303   3.498  1.9070 -2.5577 -1.5147
  190MOL0     H25604   2.399  12.125   3.640  1.1280  1.0010 -4.9450
  190MOL0     H25605   2.499  12.217   3.747  1.2421 -1.8376 -2.4499
  190MOL0     H25606   2.206  12.315   3.670  3.1468  2.8246 -1.5826
  190MOL0     H25607   2.297  12.366   3.805  0.7122  0.6010  0.1833
  190MOL0     H25608   2.299  12.117   3.893 -0.9225  0.8151  2.8456
  190MOL0     H25609   2.190  12.088   3.761 -1.4358  0.3423 -0.0441
  190MOL0     H25610   2.355  12.243   4.043 -0.6788 -4.9150  1.2546
  190MOL0     H25611   2.378  12.347   4.256  0.7202  3.3997 -2.5916
  190MOL0     H25612   2.196  12.691   4.554  0.6549 -1.7485  0.0237
  190MOL0     H25613   2.204  12.792   4.810 -3.7984  0.3607  3.1221
  190MOL0     H25614   2.124  12.490   5.103 -0.5625  1.1906  0.6838
  190MOL0     H25615   2.271  12.564   5.056 -0.4338 -1.0146  0.4200
  190MOL0     H25616   2.139  12.738   5.254 -1.6157 -0.8350  1.6147
  190MOL0     H25617   2.144  12.587   5.315  0.5973  1.4964  1.4497
  190MOL0     H25618   2.371  12.746   5.197 -3.2239  3.9514  1.9633
  190MOL0     H25619   2.340  12.731   5.372 -0.8492 -0.5465  0.6777
  190MOL0     H25620   2.468  12.526   5.199  0.1811  5.0555 -0.6888
  190MOL0     H25621   2.385  12.471   5.348 -3.2369 -0.7837 -3.9307
  190MOL0     H25622   2.633  12.528   5.390 -0.3555  0.1982  0.4752
  190MOL0     H25623   2.518  12.635   5.482  1.8361  0.7832  0.8996
  190MOL0     H25624   2.661  12.696   5.213 -0.6762 -0.0346 -1.8330
  190MOL0     H25625   2.582  12.827   5.301  3.3824  0.5258 -2.5524
  190MOL0     H25626   2.812  12.668   5.417 -0.6280 -0.0733 -0.1628
  190MOL0     H25627   2.747  12.821   5.478 -2.5787 -0.6345  0.5360
  190MOL0     H25628   2.964  12.843   5.335 -0.3969  0.0686 -0.3655
  190MOL0     H25629   2.865  12.786   5.203  0.3694  0.4692 -0.5713
  190MOL0     H25630   1.986  12.449   4.929 -2.1084  0.6907 -0.6674
  190MOL0     H25631   1.967  12.362   4.707  0.0161  0.9697 -4.7629
  190MOL0     H25632   1.941  12.392   4.290  2.7651  1.4437  1.2807
  190MOL0     H25633   1.944  12.305   4.036  2.0424  1.7104 -1.0141
  190MOL0     H25634   2.531  11.082   2.700 -2.9153  2.7062  2.7407
  190MOL0     H25635   2.508  10.845   2.746 -2.3993  1.4935  1.6605
  190MOL0     H25636   2.537  10.384   2.700  1.8665  2.0371 -2.9855
  190MOL0     H25637   2.633  10.162   2.690 -0.5090  0.2609 -1.0189
  190MOL0     H25638   2.761   9.952   2.680 -0.4558 -0.3440 -0.2801
  190MOL0     H25639   2.666   9.959   2.825 -0.5703  0.7932 -1.7101
  190MOL0     H25640   2.790   9.793   2.934  2.0315 -0.3430  1.2468
  190MOL0     H25641   2.950   9.842   2.880 -0.4718 -0.5102 -0.6185
  190MOL0     H25642   2.899   9.747   2.655 -3.9392  2.8165 -0.4736
  190MOL0     H25643   2.748   9.678   2.713  1.0879 -1.1187 -1.6578
  190MOL0     H25644   3.031   9.585   2.808  1.1985 -1.8266  1.2464
  190MOL0     H25645   2.875   9.569   2.899 -2.4582  2.4714 -1.0188
  190MOL0     H25646   2.791   9.249   2.668  1.2960  0.0010 -0.5862
  190MOL0     H25647   2.917  10.281   2.992 -0.0785 -0.7138 -1.3179
  190MOL0     H25648   2.936  10.483   3.063 -1.6113 -3.2902  1.4974
  190MOL0     H25649   2.910  10.597   2.929 -1.0473 -1.0034 -0.8343
  190MOL0     H25650   2.798  10.604   3.067 -1.3104 -0.9787 -0.9976
  191MOL0     O25651   9.097   8.133   8.324  0.4100  0.4858 -0.8318
  191MOL0     C25652   9.198   8.148   8.260 -0.7429 -0.2866 -0.0117
  191MOL0     O25653   9.301   8.220   8.295 -0.1787  0.3543  0.2540
  191MOL0     C25654   9.301   8.285   8.415  0.7311 -0.2863 -0.3063
  191MOL0     C25655   9.361   8.229   8.525  0.0291  0.3813 -0.3499
  191MOL0     C25656   9.349   8.290   8.651 -1.0849 -0.4446 -0.7276
  191MOL0     C25657   9.290   8.413   8.664  0.4754  0.1388 -0.9414
  191MOL0     O25658   9.295   8.494   8.771 -0.2372  0.9728 -1.0007
  191MOL0     C25659   9.307   8.440   8.904 -1.0920  0.3135  0.7898
  191MOL0     C25660   9.453   8.442   8.964  0.6020 -0.3852  0.2819
  191MOL0     C25661   9.461   8.364   9.086  0.3802 -0.2162 -0.5979
  191MOL0     C25662   9.606   8.379   9.146  0.3899 -0.0912  0.0706
  191MOL0     C25663   9.610   8.357   9.300  0.3655 -0.9131  0.1426
  191MOL0     C25664   9.573   8.211   9.348  0.6117 -0.9976  1.5911
  191MOL0     C25665   9.643   8.189   9.476 -0.1115  0.2481  0.8730
  191MOL0     C25666   9.637   8.036   9.503 -0.1095 -0.8387 -0.1700
  191MOL0     N25667   9.711   7.946   9.409 -0.3604  0.8439 -0.8364
  191MOL0     C25668   9.813   7.979   9.330 -0.3373 -0.4424 -0.3070
  191MOL0     C25669   9.816   7.882   9.242 -0.6816 -0.1568  0.6975
  191MOL0     C25670   9.910   7.850   9.131  0.4678  0.9534 -0.1315
  191MOL0     C25671  10.016   7.967   9.113  0.7752  0.1023 -1.1474
  191MOL0     C25672  10.137   7.911   9.024 -0.6628  0.2939  1.3379
  191MOL0     C25673  10.122   7.927   8.878  0.1695 -0.6129  0.6793
  191MOL0     O25674  10.250   7.906   8.808  0.0063  0.7357 -0.4298
  191MOL0     C25675  10.271   7.951   8.682  0.1517 -0.3958  0.0654
  191MOL0     C25676  10.169   7.996   8.598  0.2148  0.1482  0.5536
  191MOL0     C25677  10.200   8.068   8.494 -0.0108  0.1944  0.9413
  191MOL0     C25678  10.328   8.089   8.455  0.0538 -1.2257 -0.3648
  191MOL0     C25679  10.353   8.166   8.328 -0.0708 -0.1012 -0.5125
  191MOL0     O25680  10.482   8.203   8.303  0.1238 -0.2447 -0.0841
  191MOL0     C25681  10.530   8.270   8.196  0.0964  0.6145  0.0594
  191MOL0     C25682  10.560   8.406   8.208 -0.2965  0.1806 -0.9558
  191MOL0     C25683  10.629   8.473   8.100  0.0772  0.1823  0.5295
  191MOL0     C25684  10.641   8.398   7.983 -1.2194  0.9144  0.0303
  191MOL0     O25685  10.698   8.458   7.871  0.0555 -0.1758  0.0744
  191MOL0     C25686  10.710   8.374   7.752  0.7923  0.0010 -0.7301
  191MOL0     C25687  10.758   8.464   7.641  0.3570 -0.6639 -0.4056
  191MOL0     C25688  10.746   8.392   7.500 -0.1544  0.4257 -0.6571
  191MOL0     C25689  10.784   8.249   7.503  0.0322 -0.5425 -0.3746
  191MOL0     C25690  10.761   8.180   7.359  1.0616  0.3028 -0.1186
  191MOL0     C25691  10.832   8.242   7.237  0.1796 -0.3427 -0.5692
  191MOL0     C25692  10.984   8.222   7.229 -0.1097  0.2003 -0.4759
  191MOL0     C25693  11.068   8.303   7.124  0.0220 -0.5663  0.0770
  191MOL0    Cl25694  11.018   8.234   6.967 -0.1322 -0.2629 -0.0353
  191MOL0     C25695  10.599   8.266   7.969  1.2264 -0.5530 -0.4064
  191MOL0     C25696  10.547   8.194   8.079  0.3454 -1.3103  0.6236
  191MOL0     O25697  10.263   8.189   8.251 -0.0071  0.2548 -0.6860
  191MOL0     C25698  10.432   8.043   8.536 -0.6816  0.4093 -0.4992
  191MOL0     C25699  10.405   7.971   8.645 -0.0180  0.9587 -0.1231
  191MOL0     N25700   9.713   7.796   9.257  0.4316  0.1782 -0.1080
  191MOL0     N25701   9.652   7.829   9.365  0.9229 -0.4823 -0.7565
  191MOL0     C25702   9.230   8.468   8.547 -0.5694  0.0871  0.0954
  191MOL0     C25703   9.229   8.407   8.427  0.5737  0.6062 -0.0283
  191MOL0     C25704   9.173   8.109   8.117 -0.4513 -0.1240 -0.2791
  191MOL0     C25705   9.197   8.214   8.029 -0.2354  0.1976 -0.2934
  191MOL0     C25706   9.184   8.184   7.894  1.2399  0.7609  0.2229
  191MOL0     C25707   9.134   8.052   7.852  0.5599  0.0431  0.3410
  191MOL0     O25708   9.137   8.015   7.713 -0.2582  0.0076 -0.2070
  191MOL0     C25709   9.170   8.096   7.606 -0.7568 -0.5389  0.2262
  191MOL0     C25710   9.307   8.088   7.540  0.0125  0.5348  0.1466
  191MOL0     C25711   9.407   8.177   7.615  0.2029  1.1504 -0.9547
  191MOL0     C25712   9.549   8.144   7.569  0.0372 -0.5389 -0.3420
  191MOL0     C25713   9.572   8.194   7.436  0.1088 -0.6977 -0.4186
  191MOL0     C25714   9.568   8.247   7.324 -1.1122  1.2675  0.2318
  191MOL0     C25715   9.104   7.956   7.944 -0.4523  0.4795 -0.0125
  191MOL0     C25716   9.131   7.979   8.081 -0.5259  0.3670 -0.4830
  191MOL0     C25717   9.109   7.877   8.181 -0.2756 -0.2100 -0.4082
  191MOL0     H25718   9.403   8.131   8.508 -0.7958 -0.1165  0.4121
  191MOL0     H25719   9.406   8.238   8.727  2.2842  3.2301 -0.4185
  191MOL0     H25720   9.255   8.508   8.972  0.8308 -0.2963  3.0026
  191MOL0     H25721   9.270   8.338   8.912 -0.0688 -0.1490 -0.0561
  191MOL0     H25722   9.499   8.541   8.975 -2.8684  1.7281 -2.2345
  191MOL0     H25723   9.515   8.382   8.896  2.0364 -0.0096  1.2216
  191MOL0     H25724   9.440   8.257   9.074 -2.5283  0.1407  0.5273
  191MOL0     H25725   9.398   8.408   9.164  2.6961 -1.1718  2.0022
  191MOL0     H25726   9.669   8.302   9.100  3.3331  3.6402 -2.7716
  191MOL0     H25727   9.658   8.471   9.115 -1.1175  1.4782  1.9407
  191MOL0     H25728   9.709   8.393   9.330  0.1343  1.4146 -1.6120
  191MOL0     H25729   9.545   8.430   9.349  0.4181 -1.5399  1.1581
  191MOL0     H25730   9.464   8.208   9.360  0.1795  1.3364 -0.8487
  191MOL0     H25731   9.601   8.142   9.267  0.6639  0.3470  0.4101
  191MOL0     H25732   9.606   8.253   9.557 -0.4769  0.4408  0.5554
  191MOL0     H25733   9.750   8.209   9.462 -0.4389  2.0613  0.7444
  191MOL0     H25734   9.677   8.015   9.602 -1.8788 -1.1303  0.5152
  191MOL0     H25735   9.531   8.017   9.519 -0.7028  2.0946 -0.0471
  191MOL0     H25736   9.885   8.060   9.329 -0.2115 -0.5034  1.0891
  191MOL0     H25737   9.965   7.761   9.162  0.4648  1.2667  0.7994
  191MOL0     H25738   9.870   7.821   9.033  1.3421  2.8860 -1.1305
  191MOL0     H25739   9.980   8.065   9.082  2.4758  1.2915  0.3990
  191MOL0     H25740  10.061   7.988   9.211 -3.7309  3.0906  0.6068
  191MOL0     H25741  10.146   7.809   9.061  1.1088  1.0033  3.0756
  191MOL0     H25742  10.223   7.964   9.066 -0.4439 -0.9873  2.5883
  191MOL0     H25743  10.096   8.033   8.865 -2.0698 -1.2851 -0.7253
  191MOL0     H25744  10.056   7.847   8.843  1.4680 -1.3865 -0.0957
  191MOL0     H25745  10.065   7.969   8.618 -0.1978  1.2025 -0.1001
  191MOL0     H25746  10.118   8.093   8.427  0.1378 -2.3957 -0.2997
  191MOL0     H25747  10.539   8.454   8.303 -0.3930  2.6412 -2.1494
  191MOL0     H25748  10.662   8.576   8.102 -0.7281  0.4532 -0.0219
  191MOL0     H25749  10.781   8.295   7.780  0.9353  0.2341 -0.4431
  191MOL0     H25750  10.613   8.328   7.729  0.4780  0.0646  0.4439
  191MOL0     H25751  10.713   8.564   7.643 -1.9467 -1.6733  0.5313
  191MOL0     H25752  10.861   8.497   7.659  0.0269  0.1224  0.1185
  191MOL0     H25753  10.642   8.393   7.468  0.0539  2.5931 -1.4668
  191MOL0     H25754  10.797   8.451   7.423  0.5573  0.3959 -0.2246
  191MOL0     H25755  10.707   8.201   7.563 -2.5485 -1.0346 -3.7389
  191MOL0     H25756  10.883   8.220   7.537  1.2367  0.2564 -2.9376
  191MOL0     H25757  10.654   8.178   7.339  0.4613  0.3383  2.6600
  191MOL0     H25758  10.784   8.073   7.365  0.8317  0.0810 -2.3190
  191MOL0     H25759  10.800   8.200   7.141  4.6772  0.6337 -2.7864
  191MOL0     H25760  10.802   8.347   7.242  1.0299 -0.1510  0.8555
  191MOL0     H25761  11.005   8.116   7.211 -4.2199 -1.0977  1.2022
  191MOL0     H25762  11.033   8.230   7.327  1.7490  2.9201 -1.5139
  191MOL0     H25763  11.038   8.408   7.125  0.8486 -0.3139 -0.4773
  191MOL0     H25764  11.175   8.293   7.144  0.1800  0.7929  0.0124
  191MOL0     H25765  10.600   8.213   7.874  1.8133  0.4487 -0.9764
  191MOL0     H25766  10.516   8.091   8.063 -0.2969 -0.7220 -2.6208
  191MOL0     H25767  10.537   8.055   8.511 -0.4870  1.2926  0.6469
  191MOL0     H25768  10.485   7.935   8.709  1.3615 -0.2100 -2.4035
  191MOL0     H25769   9.190   8.568   8.558 -1.6573 -0.1112 -1.6154
  191MOL0     H25770   9.175   8.463   8.351  0.1106  2.2794  1.4536
  191MOL0     H25771   9.251   8.305   8.053 -0.0225 -0.0390  0.1413
  191MOL0     H25772   9.211   8.258   7.819 -2.3689  0.4368 -1.6556
  191MOL0     H25773   9.161   8.204   7.619  2.7257  0.2614 -2.5045
  191MOL0     H25774   9.088   8.084   7.534 -0.9579  4.1916 -0.6307
  191MOL0     H25775   9.309   8.135   7.441  0.3520  2.2025  0.9020
  191MOL0     H25776   9.347   7.986   7.541 -0.0634  0.5071  0.8253
  191MOL0     H25777   9.402   8.152   7.721 -0.1751  0.9878 -1.0092
  191MOL0     H25778   9.387   8.283   7.602 -2.1137  0.8165 -0.4729
  191MOL0     H25779   9.622   8.196   7.633  0.8175 -1.0671 -0.7881
  191MOL0     H25780   9.572   8.038   7.586 -0.7271 -1.6806 -5.1557
  191MOL0     H25781   9.607   8.291   7.234  0.9591 -1.2271 -0.2018
  191MOL0     H25782   9.068   7.863   7.901  1.1915 -0.1701 -0.0518
  191MOL0     H25783   9.178   7.888   8.265 -2.1080  1.1703  0.9973
  191MOL0     H25784   9.014   7.893   8.234 -1.0240 -0.2146 -1.7068
  191MOL0     H25785   9.115   7.775   8.141  0.4091 -0.7859  1.0544
  192MOL0     O25786   1.672  11.318   1.405 -0.1222 -0.5973  1.0947
  192MOL0     C25787   1.614  11.214   1.426 -0.5538  0.4508 -0.1734
  192MOL0     O25788   1.624  11.100   1.345 -0.1419 -0.4760  0.4788
  192MOL0     C25789   1.710  11.091   1.239  1.1031 -1.0512  0.3008
  192MOL0     C25790   1.680  10.982   1.155 -0.1217 -1.3158  0.2826
  192MOL0     C25791   1.774  10.954   1.058  0.2924 -0.3358 -0.3549
  192MOL0     C25792   1.898  11.027   1.039 -0.5831  0.3617 -0.5157
  192MOL0     O25793   2.002  11.001   0.947  0.3840 -0.2616  0.1986
  192MOL0     C25794   2.010  10.863   0.907 -0.2018  0.8255  0.3223
  192MOL0     C25795   2.152  10.831   0.867 -1.0070 -0.4908  0.5578
  192MOL0     C25796   2.227  10.938   0.777  0.6540  0.7586 -1.1241
  192MOL0     C25797   2.331  10.885   0.676 -0.4924 -0.7199 -0.5510
  192MOL0     C25798   2.332  10.963   0.543  0.0707 -0.1605 -0.3371
  192MOL0     C25799   2.420  10.893   0.436 -0.6215 -0.8141 -0.2105
  192MOL0     C25800   2.334  10.777   0.380 -0.1195  0.8848 -0.3626
  192MOL0     C25801   2.236  10.824   0.271  0.3890 -0.2613  0.3916
  192MOL0     N25802   2.299  10.824   0.134  0.5057  0.5763  0.4062
  192MOL0     C25803   2.291  10.937   0.051  0.4817  0.7313 -0.1822
  192MOL0     C25804   2.331  10.890  -0.071  0.1357 -1.0611 -0.0257
  192MOL0     C25805   2.332  10.961  -0.200 -0.1225  1.4045 -0.4353
  192MOL0     C25806   2.265  10.890  -0.316  0.2419  0.5212  0.0241
  192MOL0     C25807   2.121  10.860  -0.287  0.2353  0.6465 -0.9840
  192MOL0     C25808   2.068  10.806  -0.416  0.1921  0.1805 -0.3956
  192MOL0     O25809   2.086  10.908  -0.516  0.4059 -0.1106 -0.0974
  192MOL0     C25810   2.053  10.871  -0.640 -0.0428 -0.2581  0.4449
  192MOL0     C25811   1.972  10.964  -0.715 -0.0598 -0.1547  0.4163
  192MOL0     C25812   1.952  10.949  -0.853  0.8042  0.1733 -0.5063
  192MOL0     C25813   2.010  10.841  -0.926  0.1261 -0.9983 -0.3389
  192MOL0     C25814   1.972  10.826  -1.064  0.3877  0.0340  0.2153
  192MOL0     O25815   1.896  10.917  -1.121 -0.6713  0.2266 -0.2352
  192MOL0     C25816   1.826  10.894  -1.226 -0.8711 -1.1293  0.2603
  192MOL0     C25817   1.698  10.835  -1.229  0.4152  0.1502 -0.1577
  192MOL0     C25818   1.633  10.811  -1.344  0.1479  0.9379 -0.5702
  192MOL0     C25819   1.680  10.854  -1.465 -0.9467 -0.8251 -0.5021
  192MOL0     O25820   1.603  10.827  -1.578  0.0134 -0.5213  0.3604
  192MOL0     C25821   1.464  10.855  -1.572  0.3230 -0.0252  1.0462
  192MOL0     C25822   1.404  10.858  -1.718  0.3965 -0.6578  0.2122
  192MOL0     C25823   1.479  10.934  -1.820  0.2877  0.5481  1.1306
  192MOL0     C25824   1.412  10.910  -1.949 -0.0124  0.5633 -0.2370
  192MOL0     C25825   1.514  10.929  -2.059 -0.2294  0.1464 -0.0675
  192MOL0     C25826   1.440  10.928  -2.194 -0.2146  1.0629 -0.0079
  192MOL0     C25827   1.520  10.983  -2.311  0.6012 -0.1209  0.1576
  192MOL0     C25828   1.484  10.906  -2.441 -0.6296  0.4041  1.2121
  192MOL0    Cl25829   1.322  10.952  -2.506  0.1100 -0.4745  0.1192
  192MOL0     C25830   1.804  10.918  -1.469  1.0333 -0.5816  0.2183
  192MOL0     C25831   1.879  10.923  -1.351 -0.2362 -0.0512  0.1338
  192MOL0     O25832   1.997  10.718  -1.113  1.3202 -0.5738  0.6000
  192MOL0     C25833   2.081  10.749  -0.852 -1.1121 -0.2309 -0.6154
  192MOL0     C25834   2.097  10.759  -0.707 -0.1635  0.2105  0.2264
  192MOL0     N25835   2.372  10.756  -0.053 -0.0999  0.5091  0.2792
  192MOL0     N25836   2.347  10.714   0.067  0.0085 -0.3176 -0.1886
  192MOL0     C25837   1.912  11.150   1.108  0.1934 -0.1892  0.7903
  192MOL0     C25838   1.827  11.167   1.223  0.4401 -0.0792  0.5981
  192MOL0     C25839   1.511  11.204   1.533 -0.0357  0.3038  0.6710
  192MOL0     C25840   1.538  11.290   1.643 -0.0802 -0.3099 -0.4499
  192MOL0     C25841   1.473  11.275   1.763 -0.7146 -0.1375 -0.5153
  192MOL0     C25842   1.367  11.192   1.775 -0.4736  0.0668 -0.7255
  192MOL0     O25843   1.301  11.174   1.894  0.1238 -0.2123 -0.2579
  192MOL0     C25844   1.244  11.053   1.935 -0.3964 -0.0242  0.2226
  192MOL0     C25845   1.219  11.063   2.080  0.2391  0.6097 -0.2791
  192MOL0     C25846   1.177  10.932   2.150  0.5417 -0.0002  0.2083
  192MOL0     C25847   1.042  10.879   2.099  0.8238 -0.4881 -0.2490
  192MOL0     C25848   0.985  10.785   2.197  0.5317  0.6053 -0.4030
  192MOL0     C25849   0.931  10.701   2.268 -0.1092 -0.1905  0.0292
  192MOL0     C25850   1.331  11.110   1.664 -0.2945  1.1742  1.4979
  192MOL0     C25851   1.398  11.112   1.542  0.9645 -0.5012  0.7203
  192MOL0     C25852   1.347  11.023   1.430 -0.1722  0.2671  1.0963
  192MOL0     H25853   1.596  10.914   1.162 -0.5349 -1.0922 -1.9561
  192MOL0     H25854   1.757  10.869   0.992  2.2721 -0.6321 -0.5496
  192MOL0     H25855   1.975  10.795   0.984  2.2458 -0.5901  0.3105
  192MOL0     H25856   1.954  10.834   0.817  1.5593  0.9309 -0.8699
  192MOL0     H25857   2.154  10.727   0.834  3.8754 -1.6546  3.4280
  192MOL0     H25858   2.217  10.817   0.954 -1.3989 -0.5122  0.8492
  192MOL0     H25859   2.271  11.010   0.845 -0.4116 -0.0507  0.4882
  192MOL0     H25860   2.156  10.987   0.709  0.6246 -0.2278 -1.8407
  192MOL0     H25861   2.432  10.883   0.718 -0.0213 -1.9934 -1.7110
  192MOL0     H25862   2.300  10.782   0.656 -1.3064 -1.2098  2.6824
  192MOL0     H25863   2.229  10.977   0.510  0.1007  1.0648  0.0329
  192MOL0     H25864   2.357  11.066   0.570  1.5121 -1.0797  2.1472
  192MOL0     H25865   2.451  10.963   0.358  3.1649 -2.6915 -0.6531
  192MOL0     H25866   2.515  10.859   0.479 -1.0726 -0.2347  1.3470
  192MOL0     H25867   2.273  10.720   0.450 -1.9483  2.3779 -0.6659
  192MOL0     H25868   2.410  10.703   0.353  1.4576  0.8984  3.4602
  192MOL0     H25869   2.150  10.757   0.267 -0.1021  0.3623 -3.5682
  192MOL0     H25870   2.183  10.917   0.294 -0.6075 -0.1934 -1.9434
  192MOL0     H25871   2.249  11.031   0.086 -0.2620 -0.0252  1.0477
  192MOL0     H25872   2.291  11.062  -0.188 -1.3764  0.8727  0.0482
  192MOL0     H25873   2.437  10.986  -0.212  0.1830  1.2762  1.5155
  192MOL0     H25874   2.287  10.956  -0.401 -4.2475  2.5447  0.1166
  192MOL0     H25875   2.309  10.793  -0.339  0.9852 -0.3520  4.3305
  192MOL0     H25876   2.071  10.955  -0.267 -3.1036 -1.3600  1.0787
  192MOL0     H25877   2.106  10.800  -0.197 -2.5557  1.8341 -0.5569
  192MOL0     H25878   1.967  10.770  -0.393 -0.5015  1.5016 -1.2159
  192MOL0     H25879   2.117  10.711  -0.438  1.1834 -0.0819  2.6374
  192MOL0     H25880   1.943  11.050  -0.656  0.5547 -1.9775  3.5961
  192MOL0     H25881   1.896  11.024  -0.907  1.2607 -0.1666 -1.4809
  192MOL0     H25882   1.661  10.812  -1.129  2.1213  4.9109  1.8875
  192MOL0     H25883   1.546  10.746  -1.351 -0.3321  1.7278 -2.5102
  192MOL0     H25884   1.426  10.760  -1.533  3.1514 -1.1503  1.2536
  192MOL0     H25885   1.444  10.943  -1.510  2.0279  1.6955 -0.7190
  192MOL0     H25886   1.410  10.759  -1.763  0.5735 -0.0051 -1.2817
  192MOL0     H25887   1.301  10.896  -1.713  0.1137 -1.2179 -1.0613
  192MOL0     H25888   1.493  11.039  -1.794 -0.7405  0.4485  2.1447
  192MOL0     H25889   1.580  10.893  -1.830  1.7229  2.7376  4.7526
  192MOL0     H25890   1.333  10.983  -1.972 -2.2984 -1.4109  0.9272
  192MOL0     H25891   1.369  10.810  -1.961  0.6026  0.2318  0.3032
  192MOL0     H25892   1.577  10.840  -2.054 -1.0534 -0.3798  1.3665
  192MOL0     H25893   1.568  11.022  -2.041 -1.2325  0.3401  2.1693
  192MOL0     H25894   1.419  10.822  -2.206  1.5939  0.3229  2.5195
  192MOL0     H25895   1.345  10.982  -2.193 -0.9058 -0.1032  1.2569
  192MOL0     H25896   1.625  10.963  -2.285  0.1197 -1.4992  1.2037
  192MOL0     H25897   1.503  11.089  -2.331 -6.0799 -0.7462  0.2069
  192MOL0     H25898   1.567  10.934  -2.506  2.1578 -2.8516  2.9989
  192MOL0     H25899   1.486  10.797  -2.434  1.1371  0.3456  0.2872
  192MOL0     H25900   1.839  10.947  -1.567 -2.4220 -0.3662 -1.0783
  192MOL0     H25901   1.977  10.967  -1.364 -0.5040  0.3577 -0.5720
  192MOL0     H25902   2.129  10.662  -0.896  0.9078  1.3266 -1.6441
  192MOL0     H25903   2.158  10.686  -0.656 -0.4998  1.5148  2.6464
  192MOL0     H25904   1.990  11.224   1.092  1.5939 -1.7153  0.2163
  192MOL0     H25905   1.855  11.250   1.287 -0.1845  1.7732 -1.3745
  192MOL0     H25906   1.599  11.379   1.647  2.4948 -1.9068  4.3807
  192MOL0     H25907   1.505  11.338   1.846 -0.4068 -0.7972 -0.1287
  192MOL0     H25908   1.310  10.970   1.909 -2.0969 -1.3803  0.0262
  192MOL0     H25909   1.148  11.031   1.887 -0.1675 -2.0924  0.6363
  192MOL0     H25910   1.154  11.146   2.110 -0.9686 -0.6450  0.7019
  192MOL0     H25911   1.315  11.089   2.126 -0.1172 -0.0637  0.9001
  192MOL0     H25912   1.166  10.943   2.258  1.8060  3.7277  0.0942
  192MOL0     H25913   1.252  10.854   2.132  4.2315  2.4040  3.5304
  192MOL0     H25914   0.975  10.962   2.075 -0.5679 -1.4096  0.2475
  192MOL0     H25915   1.060  10.821   2.008 -1.6413 -1.1049 -0.4248
  192MOL0     H25916   0.895  10.626   2.336  1.4708  1.7578  3.2432
  192MOL0     H25917   1.246  11.043   1.666  1.6681 -1.5912 -0.2195
  192MOL0     H25918   1.278  10.951   1.474  0.1510 -0.5136  0.3456
  192MOL0     H25919   1.296  11.089   1.360  0.0893  0.4995  1.1198
  192MOL0     H25920   1.428  10.963   1.387 -2.1155 -0.7608 -1.3616
  193MOL0     O25921   9.273   2.235  10.505 -0.2193 -0.1306 -0.0507
  193MOL0     C25922   9.337   2.218  10.603 -0.6510 -0.3294 -0.3162
  193MOL0     O25923   9.464   2.262  10.630  0.6334 -0.9127 -0.4323
  193MOL0     C25924   9.542   2.320  10.540 -1.7173  0.1087 -0.0433
  193MOL0     C25925   9.678   2.292  10.555  0.3283  0.5144 -0.6200
  193MOL0     C25926   9.775   2.363  10.480  1.0512 -0.4849  0.4865
  193MOL0     C25927   9.733   2.466  10.385 -0.0607 -0.6568  0.0239
  193MOL0     O25928   9.818   2.553  10.317  0.3625  0.3271 -0.4745
  193MOL0     C25929   9.948   2.553  10.363 -0.7908 -0.9975 -0.2331
  193MOL0     C25930  10.024   2.685  10.311  0.3948  0.5818  1.2534
  193MOL0     C25931  10.174   2.690  10.345  0.1768 -0.4092  0.0095
  193MOL0     C25932  10.251   2.591  10.262 -0.3004  0.6916 -0.0099
  193MOL0     C25933  10.401   2.624  10.263  1.0232 -0.1248  0.0251
  193MOL0     C25934  10.459   2.573  10.398  0.2438  0.1605 -1.1741
  193MOL0     C25935  10.615   2.594  10.392 -1.0048 -0.1515  0.0369
  193MOL0     C25936  10.647   2.743  10.375  0.3690  0.4712 -0.0096
  193MOL0     N25937  10.794   2.748  10.377 -0.7881  0.7995 -0.0151
  193MOL0     C25938  10.880   2.766  10.265  0.1785 -0.1249 -0.1429
  193MOL0     C25939  11.005   2.759  10.303 -0.7180 -0.7862  0.2001
  193MOL0     C25940  11.127   2.772  10.213 -0.6351 -0.3360 -0.4856
  193MOL0     C25941  11.124   2.727  10.061  1.0678 -0.7092 -0.7597
  193MOL0     C25942  11.105   2.574  10.062 -0.9428  0.9240 -0.4357
  193MOL0     C25943  11.110   2.533   9.910 -0.3652  0.0544 -0.2198
  193MOL0     O25944  10.999   2.583   9.838 -0.1969  0.0909 -0.1444
  193MOL0     C25945  10.882   2.509   9.835 -0.4762  0.0058  0.1978
  193MOL0     C25946  10.875   2.382   9.777  0.7441  0.0813 -0.1735
  193MOL0     C25947  10.747   2.319   9.789  0.6601 -0.7522 -0.5172
  193MOL0     C25948  10.639   2.382   9.853  0.5415  0.3747 -0.1302
  193MOL0     C25949  10.512   2.303   9.871 -0.6465 -0.3212  0.0954
  193MOL0     O25950  10.483   2.207   9.768  0.5593 -0.1462 -0.3498
  193MOL0     C25951  10.371   2.125   9.772 -0.5186 -0.5349  0.7490
  193MOL0     C25952  10.385   1.993   9.815 -0.1817 -0.3140  0.1516
  193MOL0     C25953  10.273   1.910   9.826  0.2001 -1.2365 -0.2883
  193MOL0     C25954  10.150   1.960   9.783  0.0077 -0.2610  0.0563
  193MOL0     O25955  10.041   1.873   9.779  0.6395 -0.3084  0.6339
  193MOL0     C25956  10.025   1.763   9.870 -0.5454 -0.8818 -0.2981
  193MOL0     C25957   9.883   1.772   9.912 -0.0327  0.6900  0.5174
  193MOL0     C25958   9.845   1.679  10.032  0.6683  0.7924  0.6654
  193MOL0     C25959   9.921   1.553  10.044 -0.1648 -0.4894 -0.2661
  193MOL0     C25960   9.875   1.465  10.157 -0.2254  0.5235  1.4059
  193MOL0     C25961   9.895   1.315  10.131 -0.1959  0.7153  0.6411
  193MOL0     C25962  10.048   1.287  10.094  0.2617  0.2176  0.5911
  193MOL0     C25963  10.097   1.150  10.145  0.5863 -0.1629 -0.0301
  193MOL0    Cl25964  10.035   1.006  10.064  0.0681 -0.0299 -0.4143
  193MOL0     C25965  10.133   2.080   9.728  0.5392  0.1886 -0.5921
  193MOL0     C25966  10.242   2.171   9.731  0.0660  0.8744  0.1449
  193MOL0     O25967  10.435   2.333   9.968 -0.3114 -0.1603 -0.4788
  193MOL0     C25968  10.653   2.507   9.910 -0.6607 -0.1367 -0.4530
  193MOL0     C25969  10.781   2.575   9.900  0.1174  0.3600 -0.2244
  193MOL0     N25970  11.007   2.735  10.445 -0.8488  0.4139 -0.2703
  193MOL0     N25971  10.886   2.727  10.478  0.1349 -0.6313 -0.4573
  193MOL0     C25972   9.600   2.496  10.387  0.0167  0.6211  0.2604
  193MOL0     C25973   9.503   2.423  10.452 -0.1110 -0.8093  1.0037
  193MOL0     C25974   9.274   2.119  10.696  0.5610  0.5524  0.5724
  193MOL0     C25975   9.136   2.103  10.684 -0.1957  0.5060 -0.9058
  193MOL0     C25976   9.063   2.024  10.780  1.0625  1.0442  0.0063
  193MOL0     C25977   9.110   1.956  10.879 -0.4452  0.9286  0.3062
  193MOL0     O25978   9.017   1.893  10.953 -0.2507  0.7540 -0.4758
  193MOL0     C25979   9.061   1.805  11.056 -0.9919 -0.1235 -0.4576
  193MOL0     C25980   8.944   1.734  11.132  0.9710  0.4513  0.7297
  193MOL0     C25981   9.008   1.667  11.262 -0.5370  0.8780  0.6054
  193MOL0     C25982   8.911   1.553  11.309 -0.6685  0.5439  0.9093
  193MOL0     C25983   8.956   1.492  11.432  0.9154 -0.3017  0.2639
  193MOL0     C25984   9.010   1.426  11.520  0.3437 -0.9401  0.6457
  193MOL0     C25985   9.252   1.974  10.893 -1.2868 -0.2869  1.0838
  193MOL0     C25986   9.336   2.052  10.804  0.2143  0.7409 -0.0363
  193MOL0     C25987   9.487   2.050  10.817  0.6033  0.2615 -0.7641
  193MOL0     H25988   9.704   2.206  10.617 -1.2972  1.6660  1.8255
  193MOL0     H25989   9.875   2.322  10.483  1.3947  0.3257  0.4668
  193MOL0     H25990   9.960   2.544  10.471 -2.2940  0.3796  0.1020
  193MOL0     H25991   9.993   2.467  10.313 -0.8993 -1.7248  0.8822
  193MOL0     H25992   9.978   2.770  10.363 -0.8188  0.2896  0.7055
  193MOL0     H25993  10.012   2.702  10.204 -2.3527  0.0720  1.3946
  193MOL0     H25994  10.177   2.682  10.454  0.4969  1.3516  0.1655
  193MOL0     H25995  10.203   2.791  10.313 -3.3053 -0.2352 -3.2517
  193MOL0     H25996  10.210   2.505  10.317 -0.1554  1.8289  1.9710
  193MOL0     H25997  10.218   2.592  10.158  0.0126  1.3923 -0.1062
  193MOL0     H25998  10.449   2.569  10.182 -0.1343 -0.5439 -0.3983
  193MOL0     H25999  10.406   2.733  10.251 -0.1472 -0.3030 -3.3444
  193MOL0     H26000  10.432   2.623  10.492  1.2044 -3.8710  1.4758
  193MOL0     H26001  10.437   2.469  10.423 -0.5464  1.2584  3.8045
  193MOL0     H26002  10.649   2.530  10.310 -1.6703 -2.4917  1.4825
  193MOL0     H26003  10.666   2.550  10.478 -0.2101 -3.5093 -1.9354
  193MOL0     H26004  10.609   2.781  10.280  1.8509  1.2299 -0.3250
  193MOL0     H26005  10.613   2.807  10.458  5.8912  4.9795 -0.5732
  193MOL0     H26006  10.839   2.774  10.165 -0.7963  3.3101  0.4147
  193MOL0     H26007  11.159   2.876  10.218  2.5922 -1.2247 -0.5016
  193MOL0     H26008  11.210   2.713  10.253  0.2102 -0.0364 -1.7355
  193MOL0     H26009  11.030   2.771  10.027  0.2718 -0.8273  1.1932
  193MOL0     H26010  11.215   2.760  10.010  1.5252  1.8414  1.4534
  193MOL0     H26011  11.019   2.535  10.116 -1.4724 -1.0390 -2.5006
  193MOL0     H26012  11.196   2.526  10.101 -2.7689 -1.1763  1.5448
  193MOL0     H26013  11.122   2.425   9.899 -0.2678  0.0975 -0.5549
  193MOL0     H26014  11.199   2.581   9.869 -0.7794  0.9188 -0.1258
  193MOL0     H26015  10.964   2.330   9.743 -0.6083 -4.2408  2.2170
  193MOL0     H26016  10.748   2.220   9.744 -0.1558 -0.6807 -0.7091
  193MOL0     H26017  10.488   1.959   9.830  0.6191  2.2358  0.8681
  193MOL0     H26018  10.289   1.805   9.849  1.4967 -1.3190 -1.4419
  193MOL0     H26019  10.055   1.668   9.825  0.5704  0.1950 -1.9285
  193MOL0     H26020  10.095   1.773   9.954 -3.1471  0.1404  1.9012
  193MOL0     H26021   9.860   1.877   9.932  0.4260  0.4429  2.5004
  193MOL0     H26022   9.829   1.731   9.826 -0.5929 -0.6750  1.4853
  193MOL0     H26023   9.838   1.735  10.126 -0.8169 -0.0709  1.1142
  193MOL0     H26024   9.740   1.651  10.023  0.0795  2.7868  0.7989
  193MOL0     H26025  10.026   1.578  10.056 -0.6407  1.3801  0.4012
  193MOL0     H26026   9.906   1.508   9.946  0.3228  3.3753 -2.3189
  193MOL0     H26027   9.771   1.491  10.182 -0.5345  1.0600 -0.2907
  193MOL0     H26028   9.932   1.482  10.248 -2.7861  0.3291  3.1688
  193MOL0     H26029   9.872   1.252  10.217 -0.4703 -3.2516 -2.0658
  193MOL0     H26030   9.836   1.274  10.048 -1.7465  0.9053  1.6110
  193MOL0     H26031  10.114   1.356  10.146 -0.5589 -0.4086  2.5554
  193MOL0     H26032  10.066   1.275   9.986  4.2153  0.4041  1.0891
  193MOL0     H26033  10.206   1.159  10.138  0.3382  1.5421 -3.4014
  193MOL0     H26034  10.066   1.143  10.250 -1.7374 -1.1590 -0.7262
  193MOL0     H26035  10.036   2.119   9.697  1.2228  0.3151 -2.7844
  193MOL0     H26036  10.225   2.272   9.696  0.6391  0.5435 -1.1394
  193MOL0     H26037  10.566   2.558   9.950  0.5776  2.7681 -1.1918
  193MOL0     H26038  10.795   2.678   9.932 -4.8867  1.7657 -1.6511
  193MOL0     H26039   9.561   2.564  10.311  0.2512 -2.4455 -2.8564
  193MOL0     H26040   9.403   2.455  10.428 -0.2122 -2.4917 -1.1995
  193MOL0     H26041   9.084   2.134  10.594  2.2789 -1.0440 -3.0161
  193MOL0     H26042   8.956   2.010  10.769  1.2558 -1.3347  0.6034
  193MOL0     H26043   9.119   1.858  11.132 -1.9602 -0.7736  0.7441
  193MOL0     H26044   9.123   1.729  11.007 -2.6920 -1.7079 -0.2331
  193MOL0     H26045   8.880   1.673  11.067  1.9487  0.9049 -0.7321
  193MOL0     H26046   8.870   1.805  11.168  0.3226 -0.4260  1.1539
  193MOL0     H26047   9.022   1.736  11.346 -1.5400 -0.8941  2.2959
  193MOL0     H26048   9.105   1.627  11.231  0.2564  1.4015  2.3134
  193MOL0     H26049   8.813   1.593  11.335  0.0922  0.9999  3.3046
  193MOL0     H26050   8.890   1.471  11.240  1.0780 -0.0966  1.0845
  193MOL0     H26051   9.062   1.365  11.591  1.7706 -1.0093 -0.4004
  193MOL0     H26052   9.300   1.928  10.979  0.2258 -1.3805 -0.2723
  193MOL0     H26053   9.549   2.051  10.727  0.5838 -0.7257 -0.8067
  193MOL0     H26054   9.522   2.143  10.862 -0.2009 -0.3171  1.1803
  193MOL0     H26055   9.520   1.974  10.889 -2.0728  0.2832  0.5947
  194MOL0     O26056  10.270   3.637   2.410 -0.1381 -0.3967 -0.7110
  194MOL0     C26057  10.376   3.577   2.404  0.1592  0.2346 -0.5545
  194MOL0     O26058  10.483   3.625   2.328 -0.2781 -0.1298  0.5186
  194MOL0     C26059  10.470   3.726   2.238  0.4658  0.8254  0.0502
  194MOL0     C26060  10.488   3.850   2.290  0.2233  0.4057  0.5318
  194MOL0     C26061  10.467   3.959   2.213  0.5117  0.3550  0.0104
  194MOL0     C26062  10.427   3.944   2.079 -0.8834  0.8275  0.2278
  194MOL0     O26063  10.413   4.056   2.004  0.1079 -0.6269 -0.4152
  194MOL0     C26064  10.440   4.055   1.866  0.2269  0.1753  0.5237
  194MOL0     C26065  10.595   4.053   1.846  0.7556 -0.4650 -0.3403
  194MOL0     C26066  10.685   4.105   1.957 -0.6454 -0.2108  0.0931
  194MOL0     C26067  10.826   4.131   1.907 -0.9192 -0.7062 -0.1788
  194MOL0     C26068  10.926   4.182   2.014 -0.2484 -0.2003  0.4740
  194MOL0     C26069  11.048   4.245   1.947  0.0136 -0.1444 -1.1476
  194MOL0     C26070  11.152   4.291   2.049 -0.1950  0.1048 -0.6888
  194MOL0     C26071  11.095   4.417   2.115 -0.7118  0.2434  0.0197
  194MOL0     N26072  11.206   4.473   2.199 -0.2930 -0.3495  0.6980
  194MOL0     C26073  11.266   4.410   2.303 -0.6220  0.3251  0.1009
  194MOL0     C26074  11.367   4.487   2.343  0.1199 -0.2364  0.0345
  194MOL0     C26075  11.462   4.477   2.458  0.6760  0.2728  0.6030
  194MOL0     C26076  11.448   4.593   2.551  1.2126 -0.0368 -1.0516
  194MOL0     C26077  11.319   4.578   2.634  0.4521  0.2401 -0.5572
  194MOL0     C26078  11.316   4.654   2.764 -0.4188 -0.8471  0.4812
  194MOL0     O26079  11.317   4.794   2.742 -0.0363 -0.1788 -1.0686
  194MOL0     C26080  11.297   4.875   2.845  1.3524  0.1155 -0.3334
  194MOL0     C26081  11.320   4.833   2.978  0.8718  0.7922  0.0444
  194MOL0     C26082  11.292   4.921   3.089  1.0255  0.7817  0.1274
  194MOL0     C26083  11.243   5.049   3.065  0.3507 -0.1351  0.1202
  194MOL0     C26084  11.199   5.134   3.173 -0.1199 -0.7968 -0.2707
  194MOL0     O26085  11.272   5.143   3.296  0.4022 -0.0164 -0.1765
  194MOL0     C26086  11.227   5.226   3.399 -0.6821  0.6657 -0.1042
  194MOL0     C26087  11.178   5.168   3.513 -0.1386  0.6607 -0.6228
  194MOL0     C26088  11.158   5.252   3.620 -0.1398 -0.0247 -1.4110
  194MOL0     C26089  11.193   5.387   3.626  0.6755  0.2835 -0.6505
  194MOL0     O26090  11.174   5.464   3.741 -0.5957  1.1177 -0.2003
  194MOL0     C26091  11.167   5.386   3.867 -0.4433 -0.1535 -0.3069
  194MOL0     C26092  11.141   5.483   3.982 -0.1816 -1.4883 -0.3390
  194MOL0     C26093  11.005   5.549   3.966  0.7905 -0.4873  0.5722
  194MOL0     C26094  10.987   5.651   4.078 -0.2141 -0.2557  0.7543
  194MOL0     C26095  10.837   5.700   4.079  0.0916 -0.2183  0.6820
  194MOL0     C26096  10.819   5.839   4.145 -0.6756 -0.3819 -0.1874
  194MOL0     C26097  10.672   5.899   4.143 -0.2425  0.5888 -0.5503
  194MOL0     C26098  10.679   6.058   4.169 -0.7234  0.3287 -0.1225
  194MOL0    Cl26099  10.750   6.084   4.332  0.6767 -0.0277 -0.0181
  194MOL0     C26100  11.241   5.436   3.509  0.4403  0.0850  0.4809
  194MOL0     C26101  11.252   5.362   3.392 -0.8433  0.6953 -0.2512
  194MOL0     O26102  11.088   5.191   3.150  0.6938  0.6517 -0.7116
  194MOL0     C26103  11.208   5.083   2.933  0.1053  0.7276 -0.3248
  194MOL0     C26104  11.244   5.000   2.826  0.1609 -0.4662  0.4338
  194MOL0     N26105  11.370   4.591   2.254 -0.3081  0.2191  0.5491
  194MOL0     N26106  11.269   4.592   2.174  0.6369  0.5158  0.1031
  194MOL0     C26107  10.416   3.812   2.025  0.6089  0.1780  0.4885
  194MOL0     C26108  10.444   3.700   2.103 -0.6570 -0.4868  0.4739
  194MOL0     C26109  10.404   3.457   2.489  0.2336  1.1560 -0.0015
  194MOL0     C26110  10.543   3.416   2.501  0.2001  0.0406  0.4417
  194MOL0     C26111  10.577   3.311   2.590 -0.6480  0.0974 -1.1337
  194MOL0     C26112  10.485   3.235   2.660 -0.4140 -0.2648 -0.1956
  194MOL0     O26113  10.541   3.139   2.747  0.5532 -0.0165  0.9746
  194MOL0     C26114  10.454   3.087   2.845 -0.6068  0.7216 -0.3075
  194MOL0     C26115  10.525   2.957   2.899 -1.0561  0.4792 -0.8388
  194MOL0     C26116  10.437   2.885   3.000 -0.4742 -0.7068  0.0072
  194MOL0     C26117  10.514   2.762   3.053  0.0041 -0.1641 -0.0797
  194MOL0     C26118  10.419   2.677   3.125 -0.1569 -0.0505  0.4254
  194MOL0     C26119  10.337   2.630   3.206  0.4158  0.0081  0.6058
  194MOL0     C26120  10.343   3.277   2.647  0.0311  0.1843  0.1556
  194MOL0     C26121  10.302   3.380   2.561 -0.3462  0.9199  0.0875
  194MOL0     C26122  10.148   3.414   2.536 -0.3909 -0.0603 -0.5233
  194MOL0     H26123  10.516   3.855   2.395  0.5129 -1.3904  0.5750
  194MOL0     H26124  10.487   4.055   2.259 -1.0742  0.0721  1.3764
  194MOL0     H26125  10.382   3.974   1.822 -1.4597  0.4062  2.1959
  194MOL0     H26126  10.408   4.147   1.817  0.2567 -0.8301 -1.4530
  194MOL0     H26127  10.622   4.111   1.758 -2.7884  1.3092 -0.4320
  194MOL0     H26128  10.620   3.947   1.835  0.8570 -0.6327  1.2195
  194MOL0     H26129  10.699   4.030   2.035 -1.5132 -0.5681 -0.0850
  194MOL0     H26130  10.653   4.195   2.010  2.2308  0.7387  0.3872
  194MOL0     H26131  10.869   4.045   1.855 -0.5994 -0.7480  0.1414
  194MOL0     H26132  10.830   4.219   1.842  1.8710 -0.4625  0.2024
  194MOL0     H26133  10.882   4.261   2.076  2.1408  1.2325  0.4684
  194MOL0     H26134  10.960   4.103   2.083  0.2139  0.3215  0.8536
  194MOL0     H26135  11.100   4.172   1.885 -0.4181 -1.0469 -0.4738
  194MOL0     H26136  11.016   4.327   1.883  1.3252  1.1409 -0.2367
  194MOL0     H26137  11.240   4.311   1.987 -1.0222  0.4932 -1.7762
  194MOL0     H26138  11.175   4.212   2.121 -4.6276 -0.5337  0.3321
  194MOL0     H26139  11.056   4.490   2.044  0.6300  3.1096  2.0079
  194MOL0     H26140  11.007   4.394   2.175 -0.9509  1.8014  0.3006
  194MOL0     H26141  11.240   4.313   2.345  0.3486  0.6591  1.5592
  194MOL0     H26142  11.445   4.383   2.512  0.2798  0.7248  1.2824
  194MOL0     H26143  11.565   4.474   2.422  0.9098 -0.6372  1.3141
  194MOL0     H26144  11.542   4.599   2.607  0.1261 -0.1158  0.8463
  194MOL0     H26145  11.431   4.682   2.489 -1.6009  0.0252 -0.2996
  194MOL0     H26146  11.313   4.473   2.666  0.3099  0.5039  0.2950
  194MOL0     H26147  11.235   4.610   2.572  0.3451 -0.0778 -0.5833
  194MOL0     H26148  11.393   4.619   2.833 -0.0108  1.0742  1.0479
  194MOL0     H26149  11.220   4.632   2.813 -2.1577  3.2842 -0.6693
  194MOL0     H26150  11.359   4.736   3.006  2.2718  1.7748  1.7701
  194MOL0     H26151  11.298   4.886   3.192 -0.4503  0.4704  0.1422
  194MOL0     H26152  11.164   5.060   3.522 -0.5671  0.8830  2.8329
  194MOL0     H26153  11.128   5.184   3.700  1.2314 -0.9396 -1.6459
  194MOL0     H26154  11.087   5.311   3.875 -0.1060 -0.4487  0.3843
  194MOL0     H26155  11.265   5.343   3.889 -1.4063 -1.4895  1.6600
  194MOL0     H26156  11.135   5.427   4.076 -1.5543 -0.7104  0.0610
  194MOL0     H26157  11.221   5.557   3.978 -1.2584 -0.2268  0.5735
  194MOL0     H26158  11.014   5.608   3.874 -2.0808 -0.4115  0.2496
  194MOL0     H26159  10.926   5.474   3.968  0.5896 -0.2745  0.7356
  194MOL0     H26160  11.061   5.733   4.079  0.6487 -0.9862 -0.4539
  194MOL0     H26161  11.009   5.595   4.170 -1.8428 -1.2629  0.5592
  194MOL0     H26162  10.770   5.623   4.118 -0.2782  0.0636  0.6002
  194MOL0     H26163  10.811   5.716   3.974  0.3925 -0.6911  0.5297
  194MOL0     H26164  10.857   5.833   4.247 -1.7000 -3.0266  0.1014
  194MOL0     H26165  10.892   5.903   4.094  0.3676 -0.4511  1.1677
  194MOL0     H26166  10.609   5.851   4.218 -2.2715  2.0395 -1.2393
  194MOL0     H26167  10.627   5.881   4.045  1.3827  3.0365 -1.8518
  194MOL0     H26168  10.743   6.099   4.089  3.5228  0.4671  2.9862
  194MOL0     H26169  10.581   6.105   4.165  0.9418  4.6738  2.4496
  194MOL0     H26170  11.276   5.538   3.496 -2.8028  1.0913 -1.4625
  194MOL0     H26171  11.309   5.413   3.316 -1.1557  0.4462 -0.6583
  194MOL0     H26172  11.170   5.183   2.912  0.6959  1.2403  0.9697
  194MOL0     H26173  11.246   5.036   2.723  5.8718  0.2119  0.4474
  194MOL0     H26174  10.396   3.798   1.920  0.3812 -0.3891  0.6074
  194MOL0     H26175  10.433   3.600   2.063  1.4726  0.0203 -1.6530
  194MOL0     H26176  10.623   3.458   2.442 -0.4322 -1.0628 -1.2681
  194MOL0     H26177  10.679   3.272   2.590 -1.1693 -1.3311 -0.7600
  194MOL0     H26178  10.361   3.063   2.792 -1.2715  3.2786 -0.3991
  194MOL0     H26179  10.422   3.152   2.926 -1.4040 -2.3345  2.0352
  194MOL0     H26180  10.623   2.979   2.942 -2.1347  0.9591  1.5438
  194MOL0     H26181  10.554   2.887   2.820  5.3100  0.2225  1.1178
  194MOL0     H26182  10.338   2.864   2.960  0.1909 -0.2808 -1.9986
  194MOL0     H26183  10.434   2.944   3.092 -0.2808 -0.8737  0.1189
  194MOL0     H26184  10.556   2.705   2.969  1.4229  0.8588 -0.1014
  194MOL0     H26185  10.600   2.789   3.115 -0.0684 -0.8325  0.3203
  194MOL0     H26186  10.265   2.584   3.270  0.9845  0.3753  1.5357
  194MOL0     H26187  10.272   3.223   2.709  3.4903 -1.7122  2.8380
  194MOL0     H26188  10.128   3.516   2.569 -0.6316  0.0696 -1.0548
  194MOL0     H26189  10.109   3.390   2.437  0.0047  0.4945 -0.8205
  194MOL0     H26190  10.090   3.345   2.597  1.8764 -1.3223  0.3264
  195MOL0     O26191   3.933   8.037   5.731  0.5172  0.7158 -0.3385
  195MOL0     C26192   3.995   7.928   5.749 -0.4011  0.2350  0.7997
  195MOL0     O26193   3.939   7.803   5.741 -0.2992  0.8396 -0.3252
  195MOL0     C26194   3.796   7.795   5.760 -0.1035  0.9275  1.1457
  195MOL0     C26195   3.692   7.881   5.706 -0.6296  0.3100  0.6500
  195MOL0     C26196   3.556   7.845   5.717  0.1939 -0.3571  0.2868
  195MOL0     C26197   3.519   7.739   5.802 -0.4023  0.0163  0.1949
  195MOL0     O26198   3.396   7.684   5.826 -0.2899 -0.2252 -0.0591
  195MOL0     C26199   3.278   7.754   5.774 -0.2798 -0.7570 -0.3925
  195MOL0     C26200   3.229   7.672   5.652  0.8055  0.2798 -0.8321
  195MOL0     C26201   3.137   7.548   5.703  0.6658  1.1320  0.1358
  195MOL0     C26202   3.078   7.477   5.575 -0.1302  0.3375 -0.6287
  195MOL0     C26203   3.022   7.342   5.614 -0.1306 -0.4728  0.3264
  195MOL0     C26204   3.128   7.231   5.636  0.5961 -0.5569 -0.5894
  195MOL0     C26205   3.211   7.202   5.511  0.1133  0.7939 -0.3484
  195MOL0     C26206   3.132   7.131   5.398 -0.2650  0.3591  0.0407
  195MOL0     N26207   3.220   7.049   5.309 -0.1382  0.0194  0.9409
  195MOL0     C26208   3.327   7.090   5.231  1.3470 -0.6439  0.1988
  195MOL0     C26209   3.362   6.991   5.148 -0.3842 -0.3466  0.3779
  195MOL0     C26210   3.479   6.993   5.053  0.7726 -0.2602 -0.0866
  195MOL0     C26211   3.464   6.886   4.941  0.8550  0.1975  0.1838
  195MOL0     C26212   3.602   6.867   4.878 -1.0066  1.1319 -0.1814
  195MOL0     C26213   3.595   6.783   4.749  0.4836 -0.8446 -0.0331
  195MOL0     O26214   3.560   6.648   4.781  0.9077  0.2638 -0.5232
  195MOL0     C26215   3.536   6.557   4.687 -0.1694  0.9832  0.2476
  195MOL0     C26216   3.519   6.568   4.551 -0.2457 -0.2521 -0.7142
  195MOL0     C26217   3.480   6.464   4.466 -0.1645  0.0533  0.7910
  195MOL0     C26218   3.478   6.332   4.514 -0.3221 -0.3079  0.0691
  195MOL0     C26219   3.438   6.222   4.432 -1.0080 -0.3358 -0.0470
  195MOL0     O26220   3.406   6.110   4.489  0.0394 -0.6289 -0.3366
  195MOL0     C26221   3.428   5.993   4.425  0.1657  0.5931 -0.2188
  195MOL0     C26222   3.372   5.950   4.304 -0.4176  0.6015  0.3745
  195MOL0     C26223   3.428   5.842   4.227 -0.4806 -0.0474  0.1925
  195MOL0     C26224   3.545   5.771   4.276  0.7316  0.0409 -0.4284
  195MOL0     O26225   3.589   5.649   4.220  0.0578  0.8686 -0.4232
  195MOL0     C26226   3.537   5.606   4.100 -0.2704  0.8053 -0.0868
  195MOL0     C26227   3.582   5.470   4.053 -0.2243  0.3124  0.8346
  195MOL0     C26228   3.571   5.362   4.154  0.0397 -0.2100 -0.4506
  195MOL0     C26229   3.573   5.225   4.092  0.5159  1.1229  0.1019
  195MOL0     C26230   3.546   5.124   4.203 -0.2245 -0.0593  0.3398
  195MOL0     C26231   3.538   4.977   4.145 -0.6705  0.8780 -0.9101
  195MOL0     C26232   3.469   4.885   4.237  0.6559  0.8837  0.4191
  195MOL0     C26233   3.418   4.762   4.143 -0.6083  0.0765 -0.0791
  195MOL0    Cl26234   3.456   4.618   4.236  0.0919  0.0265  0.0175
  195MOL0     C26235   3.595   5.811   4.392 -0.4463 -0.9145  0.9526
  195MOL0     C26236   3.538   5.918   4.462 -0.3399 -0.1343  0.0887
  195MOL0     O26237   3.451   6.234   4.310  0.5882  0.1685 -0.8719
  195MOL0     C26238   3.493   6.321   4.651  0.7146 -1.1211 -0.4912
  195MOL0     C26239   3.514   6.431   4.739  1.0673  0.2247 -0.4572
  195MOL0     N26240   3.278   6.881   5.184  0.1262  0.2910 -0.7217
  195MOL0     N26241   3.200   6.917   5.281 -0.3376  0.6085  0.2785
  195MOL0     C26242   3.627   7.673   5.870 -0.2298  0.2481  0.0562
  195MOL0     C26243   3.760   7.691   5.844 -0.2441 -0.5049  0.4111
  195MOL0     C26244   4.140   7.949   5.764  0.2270  0.1047  0.5203
  195MOL0     C26245   4.220   7.901   5.665  0.3661  0.1340 -0.4743
  195MOL0     C26246   4.363   7.919   5.656  0.9452 -0.5365  1.0935
  195MOL0     C26247   4.424   8.009   5.743 -0.5371 -0.2446 -0.0052
  195MOL0     O26248   4.553   8.035   5.731 -0.1208  0.4956 -0.9617
  195MOL0     C26249   4.621   8.149   5.776  0.3044 -0.4532  0.5458
  195MOL0     C26250   4.766   8.111   5.745  0.0605 -0.3026  0.3939
  195MOL0     C26251   4.824   8.012   5.853 -0.5474  0.4586 -0.0648
  195MOL0     C26252   4.958   7.949   5.814  0.4857 -0.0826  0.3749
  195MOL0     C26253   5.000   7.870   5.929 -1.0598 -0.3304 -0.3589
  195MOL0     C26254   5.035   7.814   6.034 -1.0356 -0.4694 -0.1898
  195MOL0     C26255   4.340   8.073   5.834  0.2921  0.1443  0.0247
  195MOL0     C26256   4.199   8.042   5.850 -0.8542  0.3898  0.0269
  195MOL0     C26257   4.118   8.097   5.965 -0.2067 -0.1394 -0.0606
  195MOL0     H26258   3.719   7.944   5.622 -0.2655 -1.5428 -0.7122
  195MOL0     H26259   3.481   7.899   5.659 -0.8952 -2.2707 -0.1651
  195MOL0     H26260   3.207   7.756   5.858  2.7885  1.1402  2.3891
  195MOL0     H26261   3.302   7.858   5.751  0.0110 -0.2284  2.0031
  195MOL0     H26262   3.316   7.647   5.592  2.2348 -0.0048  1.2513
  195MOL0     H26263   3.156   7.741   5.608  0.0801 -0.4115 -0.7419
  195MOL0     H26264   3.052   7.578   5.765  2.1317  2.6521  1.5100
  195MOL0     H26265   3.199   7.484   5.766 -0.9592 -1.1317 -0.4664
  195MOL0     H26266   3.007   7.547   5.530  2.3164  3.8676  0.5601
  195MOL0     H26267   3.163   7.471   5.507  0.5133 -0.6905  0.2301
  195MOL0     H26268   2.977   7.364   5.711 -2.2746 -0.4654 -0.6189
  195MOL0     H26269   2.942   7.314   5.545 -0.7835 -3.8391  2.2384
  195MOL0     H26270   3.207   7.265   5.704 -1.5435 -2.2245  3.0387
  195MOL0     H26271   3.090   7.150   5.699  0.6907  1.9594  2.9853
  195MOL0     H26272   3.293   7.133   5.532  0.0336  0.3575 -1.4318
  195MOL0     H26273   3.253   7.291   5.463  0.0634 -1.0014 -4.0280
  195MOL0     H26274   3.055   7.066   5.442 -0.0439  1.8921  2.9471
  195MOL0     H26275   3.081   7.199   5.329 -3.1768  0.0147  1.6806
  195MOL0     H26276   3.373   7.188   5.245 -2.3512  1.4625 -1.1300
  195MOL0     H26277   3.485   7.090   5.002 -1.4249  0.4358  0.8722
  195MOL0     H26278   3.576   6.972   5.099  1.6131 -0.6994 -1.9642
  195MOL0     H26279   3.435   6.789   4.983 -1.7188  1.2789  1.1078
  195MOL0     H26280   3.385   6.911   4.869 -1.0277  2.4499  2.8464
  195MOL0     H26281   3.666   6.823   4.955 -1.4553  2.9455  1.3027
  195MOL0     H26282   3.643   6.961   4.839  0.3630 -0.1162 -1.9069
  195MOL0     H26283   3.689   6.770   4.693 -0.6612 -1.5467 -1.8874
  195MOL0     H26284   3.527   6.830   4.677  1.2860 -2.6016 -2.0370
  195MOL0     H26285   3.527   6.670   4.514 -0.6322  0.1094  0.1733
  195MOL0     H26286   3.452   6.475   4.362 -0.7201 -2.1746  0.6552
  195MOL0     H26287   3.289   6.014   4.275  1.4563  1.5725 -3.5338
  195MOL0     H26288   3.375   5.807   4.139  0.7739 -1.3942 -0.0575
  195MOL0     H26289   3.428   5.610   4.108 -0.3886 -0.1277 -0.9887
  195MOL0     H26290   3.561   5.683   4.025 -1.5981  1.2992 -0.0212
  195MOL0     H26291   3.510   5.444   3.975 -1.7539  1.3130  1.8649
  195MOL0     H26292   3.686   5.464   4.018 -0.3642 -3.5523  0.5707
  195MOL0     H26293   3.649   5.380   4.229 -0.1085  0.9333 -0.5428
  195MOL0     H26294   3.473   5.386   4.197 -0.5330 -1.6869 -0.8572
  195MOL0     H26295   3.668   5.208   4.041 -0.5345  0.9614 -1.9172
  195MOL0     H26296   3.491   5.214   4.019 -0.3827  0.7687  1.1441
  195MOL0     H26297   3.464   5.156   4.268  0.9477 -0.5368  2.1218
  195MOL0     H26298   3.633   5.120   4.270  1.0941 -1.7465 -1.3798
  195MOL0     H26299   3.498   4.976   4.043 -2.0208  1.3785 -0.4115
  195MOL0     H26300   3.642   4.945   4.136 -1.0322  0.1943 -3.7072
  195MOL0     H26301   3.389   4.948   4.278 -0.5837 -0.8806  0.7930
  195MOL0     H26302   3.536   4.847   4.315 -0.6617 -3.7541 -0.4316
  195MOL0     H26303   3.310   4.767   4.133 -0.5306 -0.2919 -1.2497
  195MOL0     H26304   3.469   4.742   4.048 -0.2596 -4.9086  0.9149
  195MOL0     H26305   3.684   5.764   4.433 -1.4094 -4.5690 -0.7576
  195MOL0     H26306   3.598   5.943   4.549  0.5736 -0.9849 -0.2659
  195MOL0     H26307   3.491   6.220   4.692 -0.9951 -0.8682  0.1412
  195MOL0     H26308   3.522   6.404   4.844 -3.0275 -1.3870 -0.3644
  195MOL0     H26309   3.610   7.596   5.944 -0.7855  0.0192 -0.3009
  195MOL0     H26310   3.845   7.636   5.883  3.0978  2.8385 -1.5324
  195MOL0     H26311   4.177   7.831   5.594 -0.8436 -2.1884  2.3301
  195MOL0     H26312   4.418   7.859   5.584 -2.5922 -1.8724 -0.7624
  195MOL0     H26313   4.607   8.174   5.882  1.8778  1.7455  0.3054
  195MOL0     H26314   4.592   8.231   5.710  2.5172  0.8785  1.1195
  195MOL0     H26315   4.826   8.200   5.764  2.7336 -2.0585  0.6880
  195MOL0     H26316   4.783   8.065   5.647  0.7740 -0.8456  0.7587
  195MOL0     H26317   4.749   7.940   5.885  0.3764  0.5628  2.5416
  195MOL0     H26318   4.850   8.056   5.950  2.0312 -2.7461  0.8869
  195MOL0     H26319   4.957   7.876   5.732  0.1631 -0.0613  0.3608
  195MOL0     H26320   5.034   8.025   5.797 -0.3674  0.7708  0.2942
  195MOL0     H26321   5.067   7.784   6.132 -0.4076  0.6666 -0.0387
  195MOL0     H26322   4.365   8.159   5.896 -3.8980  1.8785 -0.3310
  195MOL0     H26323   4.044   8.034   6.014 -0.4632  0.9951  1.0764
  195MOL0     H26324   4.184   8.121   6.050 -1.0246  2.4266 -0.0713
  195MOL0     H26325   4.072   8.191   5.933  0.9593  0.1808 -0.8783
  196MOL0     O26326   4.126   1.420   9.866 -0.8022  0.2395  0.0349
  196MOL0     C26327   4.116   1.502   9.956 -0.4404 -1.0288  0.6294
  196MOL0     O26328   4.005   1.571   9.997  1.0537  0.9418  0.4831
  196MOL0     C26329   3.873   1.540   9.958 -1.1392 -0.3931 -1.0023
  196MOL0     C26330   3.762   1.624   9.979 -0.3602  0.2742 -0.0431
  196MOL0     C26331   3.634   1.587   9.940  0.1122 -0.4008 -1.0753
  196MOL0     C26332   3.612   1.453   9.890 -1.1864 -0.2110  0.4781
  196MOL0     O26333   3.482   1.403   9.869  1.0928  0.6863 -0.4765
  196MOL0     C26334   3.392   1.501   9.805  0.1260 -0.4037  0.0950
  196MOL0     C26335   3.266   1.507   9.889 -0.6635 -0.0712  0.6002
  196MOL0     C26336   3.165   1.382   9.875  0.0610 -0.6164  0.2417
  196MOL0     C26337   3.037   1.398   9.953 -0.6278 -0.0572 -0.4073
  196MOL0     C26338   2.916   1.316   9.925  0.0786  0.1340 -0.3089
  196MOL0     C26339   2.870   1.335   9.778  0.5913  0.3413 -0.3172
  196MOL0     C26340   2.719   1.311   9.759  0.3501  0.2812 -0.1570
  196MOL0     C26341   2.672   1.371   9.621 -0.1049 -1.0391  0.7914
  196MOL0     N26342   2.740   1.317   9.502 -0.1595  0.2211 -0.3238
  196MOL0     C26343   2.674   1.248   9.401 -0.8467 -0.6220 -0.6211
  196MOL0     C26344   2.773   1.221   9.312 -0.1925  0.8594  1.0780
  196MOL0     C26345   2.748   1.145   9.176  0.0661 -0.7321 -0.7590
  196MOL0     C26346   2.795   1.212   9.053 -0.1856  0.4546 -0.1393
  196MOL0     C26347   2.917   1.135   8.999 -0.6603 -0.3744  0.1003
  196MOL0     C26348   3.053   1.149   9.076 -0.4886 -0.2349 -0.5627
  196MOL0     O26349   3.091   1.288   9.083  0.4282  0.4981  0.2049
  196MOL0     C26350   3.224   1.304   9.099 -0.8341  0.3288  0.8090
  196MOL0     C26351   3.289   1.313   9.223 -0.5392 -0.6473 -0.3988
  196MOL0     C26352   3.426   1.333   9.249 -0.2064  0.3236  1.2550
  196MOL0     C26353   3.510   1.345   9.136 -0.3799 -0.0831  0.1696
  196MOL0     C26354   3.656   1.378   9.156 -0.5354  1.2265 -0.0458
  196MOL0     O26355   3.698   1.403   9.280  0.1217  0.3536 -0.2239
  196MOL0     C26356   3.828   1.414   9.328 -0.7163 -0.1878 -0.2059
  196MOL0     C26357   3.946   1.431   9.255  0.4140 -0.4315  0.3975
  196MOL0     C26358   4.067   1.421   9.310  0.8548  0.2127 -0.7581
  196MOL0     C26359   4.076   1.419   9.448  0.3192  0.3325 -0.6338
  196MOL0     O26360   4.202   1.437   9.505 -0.4126  0.3207 -0.2479
  196MOL0     C26361   4.259   1.323   9.567  0.1599  0.4892 -0.8775
  196MOL0     C26362   4.411   1.340   9.565  0.7872  1.0439 -0.3619
  196MOL0     C26363   4.463   1.311   9.425  0.3587  0.8717 -0.1169
  196MOL0     C26364   4.613   1.363   9.413 -0.3113  0.8301 -0.2599
  196MOL0     C26365   4.649   1.382   9.264  0.3292  0.4270  0.6342
  196MOL0     C26366   4.582   1.509   9.202 -0.3553 -0.2137 -0.4100
  196MOL0     C26367   4.555   1.523   9.055  0.2936 -0.1020  1.7498
  196MOL0     C26368   4.674   1.511   8.960  0.2708  0.9665  0.0827
  196MOL0    Cl26369   4.780   1.658   8.926  0.0062  0.6502 -0.0164
  196MOL0     C26370   3.960   1.418   9.522 -0.6383 -0.5058 -0.4176
  196MOL0     C26371   3.837   1.411   9.466  0.4065 -0.1717  0.0779
  196MOL0     O26372   3.723   1.387   9.055  0.8516  0.3526  0.0505
  196MOL0     C26373   3.452   1.332   9.009  0.2864  0.8305 -0.0516
  196MOL0     C26374   3.314   1.298   8.995 -0.2098 -0.4797 -0.3747
  196MOL0     N26375   2.894   1.270   9.358 -0.1687  0.8291  0.9167
  196MOL0     N26376   2.871   1.313   9.479 -0.3417  0.4351 -0.0679
  196MOL0     C26377   3.723   1.371   9.873 -0.6015 -0.1033  0.3193
  196MOL0     C26378   3.844   1.409   9.925  0.3415  0.3860  1.5948
  196MOL0     C26379   4.252   1.548  10.003  0.1391  0.0047  0.3639
  196MOL0     C26380   4.342   1.613   9.919  0.2464 -0.0137  0.7528
  196MOL0     C26381   4.459   1.662   9.962 -0.3630 -0.0988  0.0558
  196MOL0     C26382   4.495   1.651  10.094  1.0603  0.0556 -1.5023
  196MOL0     O26383   4.614   1.715  10.117  0.0741 -0.1312 -0.5161
  196MOL0     C26384   4.673   1.686  10.242  0.5122 -0.9004 -0.2071
  196MOL0     C26385   4.801   1.757  10.243 -0.0491 -0.0284  0.0972
  196MOL0     C26386   4.886   1.683  10.353  0.2149 -0.2440 -1.3251
  196MOL0     C26387   5.025   1.746  10.366  0.5644  0.9934  0.2656
  196MOL0     C26388   5.096   1.739  10.232  0.0141  0.5946  0.3645
  196MOL0     C26389   5.146   1.703  10.124  0.0518  0.1806 -0.1810
  196MOL0     C26390   4.399   1.593  10.188 -0.0624  0.6765  0.5648
  196MOL0     C26391   4.282   1.534  10.142  0.3442 -0.8618  0.1773
  196MOL0     C26392   4.194   1.477  10.247  0.0125  0.8869  0.0388
  196MOL0     H26393   3.785   1.726  10.010 -0.7309  0.6284 -0.8905
  196MOL0     H26394   3.556   1.658   9.964  0.4505 -0.5578  0.6162
  196MOL0     H26395   3.426   1.605   9.806 -1.2224  0.0420  0.2031
  196MOL0     H26396   3.377   1.472   9.700 -1.7238 -3.2530  1.0204
  196MOL0     H26397   3.209   1.596   9.863 -0.8145 -0.2883  0.1748
  196MOL0     H26398   3.295   1.522   9.994 -1.7071  0.7726  0.7906
  196MOL0     H26399   3.223   1.299   9.916  1.1630  0.4361  0.8700
  196MOL0     H26400   3.134   1.368   9.770 -3.3444  4.2120  0.2372
  196MOL0     H26401   3.067   1.366  10.053 -3.2227  1.9605  1.1388
  196MOL0     H26402   2.988   1.496   9.951 -0.9556 -0.0494  2.6731
  196MOL0     H26403   2.945   1.212   9.940  4.0968  1.2873  1.1866
  196MOL0     H26404   2.841   1.343  10.000  0.2071 -1.5160  0.4701
  196MOL0     H26405   2.887   1.441   9.753 -0.2200  1.8696  4.5521
  196MOL0     H26406   2.936   1.268   9.722  1.9850 -0.0560  1.7022
  196MOL0     H26407   2.667   1.356   9.843  2.5681  0.8584  0.9933
  196MOL0     H26408   2.713   1.202   9.746  0.1479  0.4396 -1.6166
  196MOL0     H26409   2.565   1.356   9.605 -0.9771 -0.2382  4.8737
  196MOL0     H26410   2.691   1.479   9.617  0.2123 -1.0272  2.1155
  196MOL0     H26411   2.570   1.217   9.402 -0.7261 -1.1883  2.1818
  196MOL0     H26412   2.768   1.038   9.179 -4.6528 -1.8194  0.5476
  196MOL0     H26413   2.639   1.145   9.164  0.1607 -0.3926 -1.7636
  196MOL0     H26414   2.721   1.214   8.973  0.1393 -1.0718 -0.5001
  196MOL0     H26415   2.812   1.318   9.072 -2.2744  0.6537  0.9556
  196MOL0     H26416   2.937   1.178   8.901 -3.7287  0.9089 -0.0774
  196MOL0     H26417   2.887   1.031   8.990 -2.2293  0.2218 -2.9446
  196MOL0     H26418   3.130   1.081   9.038 -0.9801  0.6781 -3.4352
  196MOL0     H26419   3.039   1.106   9.176 -1.1829 -0.1946 -0.6432
  196MOL0     H26420   3.212   1.323   9.299 -0.6033 -0.8153 -0.4423
  196MOL0     H26421   3.463   1.336   9.351  2.0388 -1.0981  0.5665
  196MOL0     H26422   3.938   1.441   9.147  2.4854  1.8795  0.3704
  196MOL0     H26423   4.156   1.431   9.250  1.9233 -0.8860  0.5719
  196MOL0     H26424   4.228   1.312   9.671  1.7851  0.0072 -0.4183
  196MOL0     H26425   4.231   1.232   9.513 -0.0140 -0.5342  0.8742
  196MOL0     H26426   4.434   1.433   9.617 -0.9600  0.0147  2.5096
  196MOL0     H26427   4.453   1.256   9.622 -2.1149 -1.6648 -1.8769
  196MOL0     H26428   4.476   1.204   9.409 -1.7414  0.5937 -0.2687
  196MOL0     H26429   4.407   1.354   9.341 -2.1077 -1.6788  0.0680
  196MOL0     H26430   4.679   1.295   9.467 -0.4992  1.0283  0.2264
  196MOL0     H26431   4.613   1.462   9.460  0.4976  1.1078 -0.8242
  196MOL0     H26432   4.588   1.305   9.216 -1.0188  2.3242 -0.8008
  196MOL0     H26433   4.756   1.379   9.242  0.4514  3.2756  0.5518
  196MOL0     H26434   4.499   1.551   9.260  1.0614  0.6322  1.0680
  196MOL0     H26435   4.659   1.586   9.215  1.4978 -2.2603  1.5810
  196MOL0     H26436   4.508   1.619   9.030 -2.2766 -1.8870 -0.9558
  196MOL0     H26437   4.485   1.445   9.027  0.3285  1.1608 -2.7127
  196MOL0     H26438   4.737   1.440   9.015 -2.3995 -2.2064 -0.6602
  196MOL0     H26439   4.648   1.453   8.871  0.5337 -1.9590  1.7705
  196MOL0     H26440   3.969   1.438   9.628 -0.3004  3.8820 -1.0798
  196MOL0     H26441   3.748   1.397   9.527 -0.2736 -2.0847 -1.2864
  196MOL0     H26442   3.508   1.325   8.917 -1.0275 -3.6855 -0.7094
  196MOL0     H26443   3.274   1.266   8.899 -2.5463  0.9181  0.0526
  196MOL0     H26444   3.714   1.267   9.841  4.0585  0.2560 -3.1845
  196MOL0     H26445   3.915   1.333   9.892 -2.2050 -1.4651  0.0296
  196MOL0     H26446   4.319   1.614   9.813  0.1988 -2.5948  0.6652
  196MOL0     H26447   4.519   1.716   9.889 -0.7716  1.3143  0.7246
  196MOL0     H26448   4.686   1.579  10.262  0.6495 -0.2916  3.9239
  196MOL0     H26449   4.614   1.722  10.327  2.4398 -0.9166  1.2345
  196MOL0     H26450   4.798   1.864  10.266  3.7477  0.1579  0.4266
  196MOL0     H26451   4.848   1.752  10.144  2.8863 -0.9655  1.4304
  196MOL0     H26452   4.909   1.580  10.322  4.0772 -0.1567  0.5925
  196MOL0     H26453   4.839   1.686  10.451  1.8208 -1.0783 -0.4773
  196MOL0     H26454   5.010   1.847  10.403 -1.5978  0.6270  0.5575
  196MOL0     H26455   5.078   1.692  10.445 -1.5867  0.2025  1.2639
  196MOL0     H26456   5.193   1.672  10.033  0.4969  1.0131 -0.2506
  196MOL0     H26457   4.413   1.593  10.295  0.5699 -1.1445  0.5124
  196MOL0     H26458   4.109   1.421  10.205  0.3113  0.6109 -0.1985
  196MOL0     H26459   4.247   1.403  10.308  0.2759  0.2085 -0.9928
  196MOL0     H26460   4.150   1.554  10.312  1.2245 -0.6630  2.8882
  197MOL0     O26461  10.953   7.901   4.061  0.3119  0.5335 -0.3802
  197MOL0     C26462  10.863   7.980   4.045  0.0043  0.1634 -0.0080
  197MOL0     O26463  10.874   8.099   3.979 -0.6786 -0.2529  0.2684
  197MOL0     C26464  10.995   8.158   3.969  0.0795 -0.1139 -0.3119
  197MOL0     C26465  11.012   8.230   3.844 -0.1054  0.2789  0.7224
  197MOL0     C26466  11.128   8.303   3.828 -1.1781  0.3839  0.1278
  197MOL0     C26467  11.224   8.305   3.921  0.2037  0.3127 -0.4616
  197MOL0     O26468  11.334   8.373   3.902 -0.0091 -0.1565  0.0061
  197MOL0     C26469  11.421   8.321   3.803  0.5039  0.1807  0.8680
  197MOL0     C26470  11.502   8.208   3.869  0.0818 -0.4223 -0.6273
  197MOL0     C26471  11.608   8.249   3.985  0.0926  0.0475  0.0583
  197MOL0     C26472  11.691   8.375   3.971  0.3193 -0.4813  0.1432
  197MOL0     C26473  11.760   8.402   3.841  0.0888  0.2162 -0.1742
  197MOL0     C26474  11.892   8.466   3.853 -0.4480  0.5984  0.5565
  197MOL0     C26475  11.954   8.485   3.720  0.1545  0.5385  0.6120
  197MOL0     C26476  12.096   8.551   3.718  0.3344  0.0623  0.7112
  197MOL0     N26477  12.129   8.632   3.600  0.1939  0.1499  1.0741
  197MOL0     C26478  12.076   8.753   3.578 -0.2949 -0.5566 -1.1902
  197MOL0     C26479  12.168   8.821   3.501  0.0635  0.0673  0.5725
  197MOL0     C26480  12.167   8.971   3.472 -0.2997  0.6652 -0.6315
  197MOL0     C26481  12.220   8.989   3.331 -0.4630 -0.3340 -0.4470
  197MOL0     C26482  12.140   9.092   3.255 -1.0361  0.0304  0.3217
  197MOL0     C26483  12.147   9.081   3.102  1.1237  0.4111  0.9938
  197MOL0     O26484  12.061   9.178   3.044  0.2172 -1.7835  0.1889
  197MOL0     C26485  11.922   9.161   3.048  1.6193 -0.3311 -0.3750
  197MOL0     C26486  11.844   9.047   3.055 -0.5270  0.2652  0.6712
  197MOL0     C26487  11.715   9.052   3.087  0.3543 -0.5837 -0.0864
  197MOL0     C26488  11.653   9.167   3.127  0.1861  0.3509  0.0230
  197MOL0     C26489  11.504   9.176   3.150  0.7582  0.0708  0.0548
  197MOL0     O26490  11.449   9.271   3.229 -0.0769 -0.0208  0.4883
  197MOL0     C26491  11.322   9.259   3.283  0.1911 -0.0237  0.3081
  197MOL0     C26492  11.220   9.324   3.213  0.1633 -1.1746 -0.7123
  197MOL0     C26493  11.091   9.324   3.270  0.7229  0.5154 -0.2903
  197MOL0     C26494  11.068   9.234   3.382  0.0531 -0.3217  0.1749
  197MOL0     O26495  10.942   9.247   3.429  0.2377 -0.5693 -0.5578
  197MOL0     C26496  10.857   9.141   3.390 -0.3835 -0.4160  0.3008
  197MOL0     C26497  10.788   9.191   3.265  0.1150  1.0197  0.0651
  197MOL0     C26498  10.748   9.060   3.185  0.0911  0.8614 -0.3178
  197MOL0     C26499  10.691   9.086   3.052  0.3308 -0.0441 -0.4016
  197MOL0     C26500  10.625   8.971   2.980 -0.1163 -0.2282 -0.9156
  197MOL0     C26501  10.592   8.994   2.839  0.0860 -0.9413 -0.3530
  197MOL0     C26502  10.726   9.013   2.757 -0.1894  0.6108 -1.3884
  197MOL0     C26503  10.731   8.955   2.622  0.0709  0.2776  0.1129
  197MOL0    Cl26504  10.750   8.771   2.648 -0.1379 -0.1602 -0.0755
  197MOL0     C26505  11.173   9.161   3.443  0.2236 -0.7823  0.6556
  197MOL0     C26506  11.299   9.175   3.388 -0.6276  0.3097  0.7083
  197MOL0     O26507  11.432   9.085   3.102 -1.0961 -0.3753  0.8562
  197MOL0     C26508  11.728   9.289   3.124  0.0974 -0.7602 -0.3977
  197MOL0     C26509  11.859   9.286   3.077 -0.0361 -0.6362  0.8369
  197MOL0     N26510  12.274   8.737   3.483 -0.6311  0.1507 -0.5466
  197MOL0     N26511  12.246   8.626   3.539  0.6188 -0.7271 -0.9790
  197MOL0     C26512  11.211   8.245   4.045 -0.0559  0.3614  0.7868
  197MOL0     C26513  11.092   8.168   4.074  0.6902  0.8334  0.7458
  197MOL0     C26514  10.726   7.966   4.103  0.1886 -0.1943  0.1366
  197MOL0     C26515  10.656   8.079   4.136  0.7230 -0.0819  0.0148
  197MOL0     C26516  10.523   8.059   4.194 -0.2313 -0.8053  0.2199
  197MOL0     C26517  10.462   7.935   4.215  0.4791  0.5784 -0.1345
  197MOL0     O26518  10.344   7.919   4.281 -0.0388 -0.4034  0.6320
  197MOL0     C26519  10.237   7.937   4.189 -0.6845  0.8990  0.7547
  197MOL0     C26520  10.098   7.937   4.252  0.6650 -0.1311  0.0316
  197MOL0     C26521  10.045   7.794   4.277 -0.1543 -0.3411 -1.1712
  197MOL0     C26522   9.991   7.721   4.155  0.1142 -0.3937 -0.0254
  197MOL0     C26523   9.919   7.808   4.063 -0.9192 -0.6075  0.5936
  197MOL0     C26524   9.841   7.873   3.989  0.1772  0.2697 -0.5220
  197MOL0     C26525  10.535   7.828   4.176 -0.2385  0.2007 -0.1068
  197MOL0     C26526  10.664   7.832   4.120  0.0692  0.0010  0.2896
  197MOL0     C26527  10.731   7.697   4.096 -0.1918 -0.2591  0.1517
  197MOL0     H26528  10.940   8.221   3.764  2.3091 -2.9423 -1.3723
  197MOL0     H26529  11.131   8.352   3.731 -0.3226 -0.1193 -0.1093
  197MOL0     H26530  11.364   8.284   3.717 -1.2042  3.0783  0.6097
  197MOL0     H26531  11.475   8.406   3.760 -0.6049  0.8599  0.7767
  197MOL0     H26532  11.556   8.152   3.791  0.6590 -0.7569  0.0001
  197MOL0     H26533  11.429   8.130   3.894 -0.5452 -0.5656 -2.7362
  197MOL0     H26534  11.679   8.169   4.009  1.6419  0.6254 -2.2948
  197MOL0     H26535  11.545   8.239   4.075  2.0627 -2.9998  1.2560
  197MOL0     H26536  11.626   8.461   3.989  1.3375  0.2731  0.3161
  197MOL0     H26537  11.770   8.385   4.047  0.5967  0.2866 -0.2342
  197MOL0     H26538  11.765   8.310   3.782 -1.6907 -0.6825  0.9837
  197MOL0     H26539  11.695   8.471   3.786 -1.4076 -0.6690  0.4236
  197MOL0     H26540  11.869   8.563   3.899 -0.4342  0.5342  0.6989
  197MOL0     H26541  11.969   8.409   3.906  2.7278  1.9879 -2.1948
  197MOL0     H26542  11.890   8.551   3.661  2.3977  0.5294 -2.0399
  197MOL0     H26543  11.961   8.389   3.667 -1.3543 -1.4596  3.7017
  197MOL0     H26544  12.106   8.614   3.807 -0.0957  3.7268 -1.6144
  197MOL0     H26545  12.161   8.465   3.738 -0.8808 -0.1951  4.3569
  197MOL0     H26546  11.983   8.783   3.625 -1.5698 -1.7646 -2.8272
  197MOL0     H26547  12.073   9.023   3.492 -0.5576 -0.3514  1.0544
  197MOL0     H26548  12.241   9.012   3.542 -1.2667  0.7300  0.3764
  197MOL0     H26549  12.329   8.998   3.336 -0.5570  0.7756 -0.3034
  197MOL0     H26550  12.189   8.903   3.270 -2.0107 -1.1794  1.4084
  197MOL0     H26551  12.165   9.196   3.279  0.4977  0.2706 -2.0048
  197MOL0     H26552  12.034   9.081   3.280 -0.5753 -1.7788  1.6105
  197MOL0     H26553  12.108   8.982   3.076  0.6690  1.2560 -1.9812
  197MOL0     H26554  12.246   9.104   3.060  0.6313 -1.1658 -1.2000
  197MOL0     H26555  11.885   8.952   3.023 -1.5830  0.2443 -0.6906
  197MOL0     H26556  11.653   8.965   3.069 -3.4160  2.1149 -1.3934
  197MOL0     H26557  11.253   9.380   3.126 -2.0714 -0.6898 -1.2967
  197MOL0     H26558  11.008   9.374   3.221 -0.2835 -1.1800 -0.4048
  197MOL0     H26559  10.908   9.050   3.356 -1.7825 -0.6972 -1.1617
  197MOL0     H26560  10.784   9.116   3.468 -1.4646  1.0641 -0.1977
  197MOL0     H26561  10.700   9.245   3.302  1.0291  2.4655  0.2117
  197MOL0     H26562  10.859   9.252   3.208  0.6359  3.0624  2.6722
  197MOL0     H26563  10.845   9.015   3.162 -0.1686 -0.2569  0.6597
  197MOL0     H26564  10.686   8.995   3.249 -0.3233  1.2639 -0.3025
  197MOL0     H26565  10.768   9.134   2.991 -0.3204  0.4936 -0.8218
  197MOL0     H26566  10.609   9.158   3.056 -1.3172 -1.7123 -1.8890
  197MOL0     H26567  10.536   8.942   3.037  1.4754 -1.2293  1.1951
  197MOL0     H26568  10.692   8.885   2.986 -0.4623 -0.4596 -0.2678
  197MOL0     H26569  10.539   8.908   2.796 -1.2117  0.9956 -2.9080
  197MOL0     H26570  10.537   9.088   2.825  1.4973  0.1338  0.9217
  197MOL0     H26571  10.814   8.966   2.803  0.8214  1.9961 -1.8386
  197MOL0     H26572  10.752   9.117   2.738 -0.2811  0.7786 -0.6376
  197MOL0     H26573  10.642   8.979   2.564 -1.6578 -2.2464  1.4969
  197MOL0     H26574  10.826   8.980   2.574 -1.3744  0.2940 -2.9524
  197MOL0     H26575  11.163   9.092   3.526 -2.2400 -2.3561 -0.8048
  197MOL0     H26576  11.378   9.120   3.439 -1.2336 -0.4595  0.8430
  197MOL0     H26577  11.666   9.372   3.158 -1.1243 -2.1676  0.9672
  197MOL0     H26578  11.916   9.378   3.082  0.3709 -0.9497  2.2977
  197MOL0     H26579  11.298   8.265   4.106  1.7375  1.7684 -2.0002
  197MOL0     H26580  11.068   8.115   4.167 -1.3614  0.4952  0.0895
  197MOL0     H26581  10.698   8.179   4.128  2.1631 -0.5311  1.3922
  197MOL0     H26582  10.461   8.144   4.222  2.4051  1.7394 -1.1312
  197MOL0     H26583  10.249   7.858   4.114  0.0753  1.6884  0.0313
  197MOL0     H26584  10.251   8.028   4.130 -1.7608 -0.0565 -1.0837
  197MOL0     H26585  10.037   8.007   4.195  2.3477  2.6547  1.4565
  197MOL0     H26586  10.105   7.993   4.346  2.0951 -0.8474  0.3896
  197MOL0     H26587   9.955   7.812   4.337 -0.5637 -2.8542 -0.9026
  197MOL0     H26588  10.114   7.727   4.330 -3.7458 -2.8353  0.7950
  197MOL0     H26589  10.071   7.670   4.101  4.0762  4.2484  0.7382
  197MOL0     H26590   9.918   7.650   4.193 -1.2645  0.0401 -1.7205
  197MOL0     H26591   9.779   7.946   3.942  2.4965  3.1780  0.5860
  197MOL0     H26592  10.482   7.736   4.199  0.4390  0.0975  1.1141
  197MOL0     H26593  10.795   7.709   4.009 -1.7917 -0.1830 -1.0467
  197MOL0     H26594  10.794   7.679   4.185  3.0090  2.4459 -1.3531
  197MOL0     H26595  10.656   7.620   4.075  2.9399 -3.5473  0.0333
  198MOL0     O26596   8.566   4.368   2.741 -0.4843  0.2521 -0.2707
  198MOL0     C26597   8.672   4.372   2.805  0.9583 -0.1534 -0.9260
  198MOL0     O26598   8.662   4.395   2.942 -0.1260  0.3818 -0.3905
  198MOL0     C26599   8.534   4.407   3.000 -0.9920  0.5499 -0.2711
  198MOL0     C26600   8.458   4.523   2.978  0.5148  0.8299 -0.4069
  198MOL0     C26601   8.337   4.537   3.051 -0.2426 -0.7095 -0.2383
  198MOL0     C26602   8.301   4.447   3.147  0.5741  0.8626 -0.4227
  198MOL0     O26603   8.180   4.471   3.211  0.8665  0.0401  0.7895
  198MOL0     C26604   8.138   4.390   3.328  0.0615 -0.6745 -0.1471
  198MOL0     C26605   8.032   4.477   3.400 -0.4724  0.6354  0.7816
  198MOL0     C26606   7.958   4.385   3.509 -0.3981  0.3584 -1.3642
  198MOL0     C26607   7.809   4.416   3.531 -0.5287  0.6694 -0.0428
  198MOL0     C26608   7.751   4.371   3.667  0.4588 -0.0106 -0.5923
  198MOL0     C26609   7.768   4.464   3.796 -0.1882 -0.0900 -0.1098
  198MOL0     C26610   7.692   4.404   3.921 -0.2504 -0.3710  0.0399
  198MOL0     C26611   7.757   4.270   3.973  0.7267  0.3760 -0.6930
  198MOL0     N26612   7.672   4.217   4.087  0.3221  0.1132  0.9878
  198MOL0     C26613   7.533   4.215   4.088 -0.4667 -0.5987 -0.6949
  198MOL0     C26614   7.500   4.155   4.205 -0.8882  0.8839 -0.9252
  198MOL0     C26615   7.359   4.117   4.260  0.0556  0.8482  0.1768
  198MOL0     C26616   7.241   4.217   4.217 -0.9723  0.7612 -0.0060
  198MOL0     C26617   7.285   4.352   4.255 -0.1972 -0.4372 -0.1053
  198MOL0     C26618   7.174   4.450   4.261  0.7577  1.2543  1.5501
  198MOL0     O26619   7.098   4.460   4.384 -0.9117  0.2263  0.7337
  198MOL0     C26620   7.161   4.491   4.505  0.9169 -0.9482 -0.8742
  198MOL0     C26621   7.242   4.605   4.523 -0.0025 -0.0731  0.1817
  198MOL0     C26622   7.282   4.642   4.651 -0.2080  0.6961  0.3508
  198MOL0     C26623   7.251   4.559   4.764  1.7484  0.0173 -0.2759
  198MOL0     C26624   7.321   4.577   4.892  0.1675  1.3971 -0.1609
  198MOL0     O26625   7.419   4.670   4.887  0.1752  0.3491 -0.1142
  198MOL0     C26626   7.478   4.693   5.004  0.4056  0.4869  0.1345
  198MOL0     C26627   7.613   4.650   5.012 -0.6323 -0.1948  0.2118
  198MOL0     C26628   7.683   4.670   5.134  0.8690 -0.1780 -0.0957
  198MOL0     C26629   7.633   4.728   5.254 -0.4506  0.1445 -0.1984
  198MOL0     O26630   7.715   4.759   5.364  0.6829 -0.8379 -0.1778
  198MOL0     C26631   7.646   4.756   5.491 -1.3181  0.1164 -0.6656
  198MOL0     C26632   7.742   4.761   5.602  0.1286 -0.5449  1.4130
  198MOL0     C26633   7.846   4.877   5.576  0.1276  0.3877 -0.6706
  198MOL0     C26634   7.805   5.025   5.581  0.3024 -1.0586 -0.4466
  198MOL0     C26635   7.924   5.113   5.608 -1.4483  0.6783  0.1021
  198MOL0     C26636   8.033   5.090   5.504  0.9952 -0.7147  0.2378
  198MOL0     C26637   8.138   5.206   5.509  1.3724 -0.0533 -0.4611
  198MOL0     C26638   8.222   5.202   5.387  0.5088  0.5348  1.0819
  198MOL0    Cl26639   8.224   5.361   5.322  0.2205 -0.6246  0.1986
  198MOL0     C26640   7.499   4.774   5.244  0.0363 -0.3388  0.1480
  198MOL0     C26641   7.420   4.759   5.116  0.4970  0.9270  0.2512
  198MOL0     O26642   7.303   4.497   4.984 -0.2426  0.0279 -0.2604
  198MOL0     C26643   7.154   4.451   4.743 -0.0759 -0.4882 -0.2388
  198MOL0     C26644   7.105   4.429   4.615 -0.3157  0.0024  0.2031
  198MOL0     N26645   7.618   4.127   4.276 -0.0117 -0.0197  0.3344
  198MOL0     N26646   7.729   4.158   4.200  0.4174 -0.4299 -0.3325
  198MOL0     C26647   8.379   4.340   3.166  0.2208  0.0011 -0.0107
  198MOL0     C26648   8.503   4.320   3.106  0.4471  0.4505  0.2218
  198MOL0     C26649   8.808   4.353   2.748  0.3338  0.6641 -0.3281
  198MOL0     C26650   8.820   4.293   2.623  0.2122  0.6732  1.1259
  198MOL0     C26651   8.940   4.263   2.555  0.1362 -0.2851 -0.6173
  198MOL0     C26652   9.057   4.300   2.611 -0.3192 -0.4226  0.7834
  198MOL0     O26653   9.186   4.284   2.546  0.6152 -0.5094 -0.1269
  198MOL0     C26654   9.187   4.267   2.408 -0.0386 -0.1437  0.1503
  198MOL0     C26655   9.316   4.312   2.334  0.6335 -0.7004 -0.4861
  198MOL0     C26656   9.433   4.219   2.384  0.1587 -0.0418  0.9192
  198MOL0     C26657   9.572   4.276   2.367 -0.3703  0.5890 -0.1141
  198MOL0     C26658   9.611   4.313   2.231  0.4601 -0.3878  0.3859
  198MOL0     C26659   9.660   4.358   2.131  0.5583  0.2920  0.2911
  198MOL0     C26660   9.050   4.369   2.732  0.0004 -0.4980  0.8350
  198MOL0     C26661   8.930   4.405   2.806  0.6390  0.7155 -0.0062
  198MOL0     C26662   8.940   4.488   2.938  0.3130 -0.4183 -0.0107
  198MOL0     H26663   8.490   4.599   2.908  1.4687  1.9832  1.2418
  198MOL0     H26664   8.274   4.625   3.041  0.0101 -0.5441 -0.3869
  198MOL0     H26665   8.089   4.299   3.292  0.5542 -0.5201 -1.2287
  198MOL0     H26666   8.223   4.363   3.391  0.2692 -1.7805 -0.8689
  198MOL0     H26667   7.960   4.524   3.333 -1.6359  2.3491  3.0884
  198MOL0     H26668   8.068   4.572   3.439 -3.1690  2.4490 -0.7990
  198MOL0     H26669   8.009   4.382   3.606 -2.6295 -0.4199 -0.1502
  198MOL0     H26670   7.967   4.290   3.456 -4.0851  2.0190 -5.6489
  198MOL0     H26671   7.784   4.519   3.503 -0.9449  0.3009 -1.0864
  198MOL0     H26672   7.747   4.358   3.462  1.8192 -0.3963 -1.3686
  198MOL0     H26673   7.642   4.375   3.655  0.3660 -1.0533 -0.2192
  198MOL0     H26674   7.782   4.267   3.681 -1.3120 -0.4355  0.5124
  198MOL0     H26675   7.875   4.471   3.818  0.5136 -0.8280 -2.8715
  198MOL0     H26676   7.725   4.562   3.775 -1.2799 -0.6933 -0.8330
  198MOL0     H26677   7.588   4.393   3.887 -1.2387  4.1606  0.9437
  198MOL0     H26678   7.698   4.479   4.001  2.8102  1.5215 -1.7560
  198MOL0     H26679   7.768   4.191   3.897  4.4543  2.4374 -2.5820
  198MOL0     H26680   7.860   4.282   4.007  1.5191  0.3866 -2.9078
  198MOL0     H26681   7.472   4.247   4.004 -0.1392  1.0000 -0.3559
  198MOL0     H26682   7.338   4.017   4.219  0.0837  1.0432 -0.3230
  198MOL0     H26683   7.349   4.111   4.369 -3.3269  1.8580  0.0388
  198MOL0     H26684   7.217   4.208   4.111  0.3216 -1.4569 -0.1656
  198MOL0     H26685   7.147   4.180   4.259  0.7833 -1.8472  1.9609
  198MOL0     H26686   7.349   4.374   4.170  1.2228 -0.2276  0.9739
  198MOL0     H26687   7.344   4.351   4.347  1.2406  0.0159 -1.0022
  198MOL0     H26688   7.104   4.434   4.179  2.4580  0.4504  0.1850
  198MOL0     H26689   7.217   4.545   4.227  4.1177 -1.2626 -2.2939
  198MOL0     H26690   7.278   4.647   4.429 -1.0213  0.4078 -0.0124
  198MOL0     H26691   7.373   4.701   4.652  0.8633 -0.8828  1.4795
  198MOL0     H26692   7.659   4.625   4.917 -1.6833 -0.2586 -0.2979
  198MOL0     H26693   7.785   4.636   5.155  1.2627  1.2615  0.4282
  198MOL0     H26694   7.570   4.834   5.499  0.4371  1.8331  0.5423
  198MOL0     H26695   7.606   4.656   5.504 -0.5129  0.0060  1.3373
  198MOL0     H26696   7.695   4.785   5.698  0.6282 -0.4240  1.6312
  198MOL0     H26697   7.803   4.672   5.590  3.5356  1.9829 -3.0719
  198MOL0     H26698   7.925   4.857   5.650  0.2486  0.1762 -0.8561
  198MOL0     H26699   7.898   4.851   5.484  0.3900  0.9398 -0.6803
  198MOL0     H26700   7.740   5.042   5.668  1.0977  0.9072 -0.1825
  198MOL0     H26701   7.761   5.056   5.486  0.1769  0.0636 -0.0414
  198MOL0     H26702   7.963   5.103   5.709  0.7362  1.8945 -0.5660
  198MOL0     H26703   7.886   5.215   5.601  1.2848  1.8837  1.4547
  198MOL0     H26704   8.091   4.997   5.512  4.3083  1.1839 -0.0417
  198MOL0     H26705   7.990   5.108   5.405 -0.1576 -1.1782  0.6355
  198MOL0     H26706   8.204   5.195   5.595  0.2795  1.4839  0.6326
  198MOL0     H26707   8.092   5.304   5.521 -1.8031 -1.4477 -0.1421
  198MOL0     H26708   8.323   5.178   5.419  1.9579  4.7987  0.3407
  198MOL0     H26709   8.184   5.130   5.313  0.2477  1.5226  0.2321
  198MOL0     H26710   7.459   4.833   5.326  2.4187  0.4107  0.8654
  198MOL0     H26711   7.317   4.792   5.105  0.9743  3.1678  1.6928
  198MOL0     H26712   7.132   4.386   4.827  0.1728 -0.7001 -0.3376
  198MOL0     H26713   7.029   4.355   4.596 -1.7696  1.2861  0.8468
  198MOL0     H26714   8.356   4.269   3.246  3.9049  0.5425  1.7983
  198MOL0     H26715   8.573   4.238   3.121 -0.9543 -1.6653 -3.5207
  198MOL0     H26716   8.732   4.261   2.568  0.2121 -1.9050  2.4739
  198MOL0     H26717   8.921   4.212   2.461 -0.1563 -2.3353  0.4866
  198MOL0     H26718   9.099   4.322   2.373 -1.5884 -0.8310  2.7012
  198MOL0     H26719   9.161   4.164   2.383  2.8175 -0.9130  0.0019
  198MOL0     H26720   9.323   4.418   2.356 -3.0173 -0.2206 -1.0203
  198MOL0     H26721   9.300   4.302   2.226  1.8341 -0.6932 -0.6719
  198MOL0     H26722   9.434   4.131   2.319  2.4926 -0.0914  0.9400
  198MOL0     H26723   9.416   4.187   2.487  0.0976  1.8497  1.5286
  198MOL0     H26724   9.588   4.359   2.437  0.3948  1.1329 -0.9083
  198MOL0     H26725   9.641   4.197   2.398 -0.2375  0.2091 -1.3481
  198MOL0     H26726   9.706   4.378   2.036  1.6301  0.0326  0.7437
  198MOL0     H26727   9.146   4.394   2.777  0.2136 -0.2513  0.2612
  198MOL0     H26728   9.045   4.516   2.954 -0.4114  1.3949  1.9877
  198MOL0     H26729   8.871   4.572   2.941 -1.1349 -1.5888  2.3334
  198MOL0     H26730   8.930   4.430   3.030  0.9567 -0.0730  0.2881
  199MOL0     O26731   8.088   6.941   1.626  0.7840 -0.8382  0.0363
  199MOL0     C26732   7.990   6.936   1.546 -0.2627 -0.4611 -0.8057
  199MOL0     O26733   7.999   6.990   1.415  0.0167 -0.1116 -0.2491
  199MOL0     C26734   8.128   7.001   1.361  0.5813 -0.2712 -1.3268
  199MOL0     C26735   8.174   6.899   1.275 -0.0941 -0.3876 -0.3498
  199MOL0     C26736   8.297   6.911   1.200 -0.3854 -0.6503 -0.6058
  199MOL0     C26737   8.363   7.038   1.189  0.0282 -0.2676  0.2069
  199MOL0     O26738   8.466   7.061   1.108  1.0398  0.6099 -0.1490
  199MOL0     C26739   8.480   6.993   0.978  0.7209 -0.1584  0.0458
  199MOL0     C26740   8.604   7.040   0.906  0.1429 -0.0863 -0.5576
  199MOL0     C26741   8.731   6.964   0.942 -0.3967  0.7055 -0.6506
  199MOL0     C26742   8.854   7.014   0.866  0.8940 -0.3723 -0.0644
  199MOL0     C26743   8.970   6.913   0.878 -0.0004 -0.3342 -0.0709
  199MOL0     C26744   9.105   6.963   0.823  0.6741  0.0004  1.0252
  199MOL0     C26745   9.154   7.104   0.872  1.1738 -0.1335  0.1285
  199MOL0     C26746   9.164   7.132   1.022 -0.9030 -1.3121 -0.1674
  199MOL0     N26747   9.262   7.242   1.026 -1.1761 -0.5460  0.3511
  199MOL0     C26748   9.259   7.363   0.959 -0.7598 -0.3838  0.0340
  199MOL0     C26749   9.360   7.434   1.026  0.2072  0.1802 -0.7863
  199MOL0     C26750   9.386   7.581   1.012  1.2856  0.3336 -0.3007
  199MOL0     C26751   9.421   7.629   0.869 -0.1348  0.2292  0.8539
  199MOL0     C26752   9.447   7.773   0.868 -0.1626 -0.5032  0.4495
  199MOL0     C26753   9.354   7.862   0.954  1.2542 -0.3386  0.2814
  199MOL0     O26754   9.395   7.872   1.088 -0.8107 -0.5002  0.3900
  199MOL0     C26755   9.318   7.942   1.172  0.5169  0.1872 -0.4648
  199MOL0     C26756   9.192   7.998   1.149 -0.4860 -0.0233 -0.4182
  199MOL0     C26757   9.131   8.073   1.249 -0.6391 -0.6479  0.4550
  199MOL0     C26758   9.178   8.076   1.380  0.4410 -0.2444  0.2925
  199MOL0     C26759   9.090   8.136   1.481 -0.2275  0.7235  0.4726
  199MOL0     O26760   8.951   8.120   1.459 -0.0901  0.4783  1.2882
  199MOL0     C26761   8.867   8.169   1.564  0.3934  0.3993 -0.4568
  199MOL0     C26762   8.767   8.266   1.540 -0.9118  1.0948  0.9437
  199MOL0     C26763   8.681   8.319   1.641  0.0763 -0.1069 -0.5857
  199MOL0     C26764   8.701   8.279   1.774  0.5054  0.6241 -0.7658
  199MOL0     O26765   8.623   8.342   1.871  0.7598 -0.7523 -0.3539
  199MOL0     C26766   8.642   8.324   2.009  0.1266  0.3243 -0.0480
  199MOL0     C26767   8.573   8.185   2.049  0.1234  0.6313  0.7686
  199MOL0     C26768   8.494   8.196   2.179  0.6487  0.8686  0.1050
  199MOL0     C26769   8.369   8.276   2.155  0.5135  0.3920 -0.3625
  199MOL0     C26770   8.272   8.264   2.268  0.2056  0.2337  0.6624
  199MOL0     C26771   8.218   8.120   2.263 -0.2389 -1.2895  0.5375
  199MOL0     C26772   8.122   8.095   2.375 -0.4849  0.7263  0.3091
  199MOL0     C26773   7.989   8.154   2.325  0.3052  1.1432  0.0099
  199MOL0    Cl26774   7.851   8.073   2.408  0.0784  0.5730 -0.6127
  199MOL0     C26775   8.798   8.186   1.795 -0.8855 -0.4253 -0.6471
  199MOL0     C26776   8.876   8.123   1.703 -0.0701 -0.6114  1.0832
  199MOL0     O26777   9.141   8.200   1.567 -1.0724 -0.1083 -0.1839
  199MOL0     C26778   9.295   8.004   1.409  0.1314  0.4280  0.1437
  199MOL0     C26779   9.363   7.937   1.306 -0.9569  0.2588  0.2141
  199MOL0     N26780   9.438   7.347   1.102  0.5910  0.1412 -0.5734
  199MOL0     N26781   9.374   7.235   1.099  0.9590 -1.4259 -0.5629
  199MOL0     C26782   8.313   7.145   1.261  0.0048  0.6655 -1.1840
  199MOL0     C26783   8.190   7.127   1.344  0.1707 -0.2660 -0.4142
  199MOL0     C26784   7.858   6.902   1.596  1.4561  0.2407  0.3508
  199MOL0     C26785   7.743   6.900   1.504  0.3778  0.5535  0.0787
  199MOL0     C26786   7.621   6.852   1.542  0.8598 -0.2940  0.3061
  199MOL0     C26787   7.594   6.799   1.664 -0.7370 -0.7769  0.5150
  199MOL0     O26788   7.464   6.756   1.697  0.0780  0.1258 -0.2308
  199MOL0     C26789   7.412   6.825   1.811  0.7137  0.2090  1.4342
  199MOL0     C26790   7.262   6.789   1.816 -0.0500  0.4900 -0.0427
  199MOL0     C26791   7.247   6.649   1.889 -0.3804 -0.3677  0.6024
  199MOL0     C26792   7.109   6.589   1.880 -0.2205  0.4142  0.5775
  199MOL0     C26793   7.012   6.657   1.974  0.2395  0.3602  0.1888
  199MOL0     C26794   6.937   6.709   2.055  0.3436  0.0652 -0.1724
  199MOL0     C26795   7.701   6.811   1.756 -0.2622 -0.5167 -0.7822
  199MOL0     C26796   7.828   6.854   1.728 -0.2473  0.7710 -0.5249
  199MOL0     C26797   7.923   6.884   1.839 -0.0102 -0.3548 -0.0245
  199MOL0     H26798   8.111   6.811   1.280 -1.1237  0.3642  0.3279
  199MOL0     H26799   8.336   6.824   1.147 -1.5476 -2.0190  0.6820
  199MOL0     H26800   8.470   6.885   0.986  2.2588 -0.2148  1.7237
  199MOL0     H26801   8.389   7.026   0.926  0.7785  0.8348  0.5492
  199MOL0     H26802   8.610   7.149   0.908  1.3425 -0.1328 -0.0520
  199MOL0     H26803   8.581   7.008   0.805  1.4754 -1.2916 -0.5243
  199MOL0     H26804   8.717   6.857   0.923 -1.8551  0.2200  2.5660
  199MOL0     H26805   8.745   6.971   1.050 -1.4383 -0.1844 -0.4440
  199MOL0     H26806   8.831   7.030   0.760  1.1538  1.3314  0.1078
  199MOL0     H26807   8.898   7.110   0.894  3.8449 -1.0599 -1.9984
  199MOL0     H26808   8.992   6.904   0.985 -1.0307 -0.2958  0.1568
  199MOL0     H26809   8.942   6.817   0.834 -0.6285  0.1795 -0.8256
  199MOL0     H26810   9.187   6.897   0.855  0.8377  0.0624  0.7394
  199MOL0     H26811   9.105   6.965   0.714 -0.5377  3.0644  1.0108
  199MOL0     H26812   9.087   7.175   0.825  0.4386 -0.2001  1.0522
  199MOL0     H26813   9.256   7.112   0.833  2.8571 -2.7827  3.3801
  199MOL0     H26814   9.082   7.184   1.072  2.5076  4.1512  0.6600
  199MOL0     H26815   9.204   7.054   1.087 -1.0276  0.4931  2.2415
  199MOL0     H26816   9.200   7.399   0.876  2.9750  2.5531 -1.6479
  199MOL0     H26817   9.292   7.625   1.047 -0.0637 -1.1694 -1.8006
  199MOL0     H26818   9.472   7.603   1.075  1.2202 -3.1389  1.2690
  199MOL0     H26819   9.519   7.595   0.834 -0.4424  1.6090 -1.5492
  199MOL0     H26820   9.349   7.605   0.790  0.1718 -1.2434  0.9874
  199MOL0     H26821   9.437   7.803   0.763 -0.3285 -1.5366  0.1543
  199MOL0     H26822   9.551   7.797   0.893 -1.1301  1.4336  3.0729
  199MOL0     H26823   9.250   7.830   0.943  0.6280  0.6708  2.6425
  199MOL0     H26824   9.361   7.966   0.918  3.2176  0.4165  2.5388
  199MOL0     H26825   9.152   8.007   1.049  1.7095  0.8669 -1.3013
  199MOL0     H26826   9.036   8.120   1.224  0.0951  0.0366 -1.1710
  199MOL0     H26827   8.756   8.286   1.434 -2.5714 -1.6282  0.5051
  199MOL0     H26828   8.618   8.402   1.610 -1.3806 -1.4965 -1.4533
  199MOL0     H26829   8.747   8.326   2.043 -0.2714  0.3541  1.2472
  199MOL0     H26830   8.595   8.409   2.060  2.3210  1.3181  0.4868
  199MOL0     H26831   8.527   8.136   1.963  3.2925 -0.9322 -0.1982
  199MOL0     H26832   8.650   8.109   2.067 -0.5875 -0.1519  0.5118
  199MOL0     H26833   8.481   8.096   2.220 -2.9072  0.4955 -1.5318
  199MOL0     H26834   8.561   8.244   2.251  0.5808 -0.2963  0.9787
  199MOL0     H26835   8.317   8.232   2.070  0.4453  1.3192 -0.8051
  199MOL0     H26836   8.394   8.379   2.130 -2.7198  1.1790 -0.7873
  199MOL0     H26837   8.195   8.339   2.249 -0.6869 -1.2423 -1.9527
  199MOL0     H26838   8.312   8.296   2.365 -0.3889  3.2041  0.0313
  199MOL0     H26839   8.169   8.104   2.167  0.6504  4.8709 -1.3424
  199MOL0     H26840   8.296   8.043   2.268 -0.6440 -1.6426  1.7518
  199MOL0     H26841   8.149   8.125   2.477 -0.2419 -3.4282  1.6561
  199MOL0     H26842   8.104   7.987   2.378  2.1979  0.0793 -2.5309
  199MOL0     H26843   7.983   8.259   2.357 -0.5307  1.3218 -0.6878
  199MOL0     H26844   7.979   8.148   2.217 -0.0109  1.3144  0.0283
  199MOL0     H26845   8.813   8.154   1.898 -0.6458  0.5446 -0.3713
  199MOL0     H26846   8.944   8.047   1.738 -1.3580 -2.4684 -0.2879
  199MOL0     H26847   9.323   7.998   1.514  0.9377 -3.7578 -0.1474
  199MOL0     H26848   9.460   7.894   1.330 -0.0527  0.9763 -1.8854
  199MOL0     H26849   8.354   7.245   1.271 -3.2229  1.9334  0.9170
  199MOL0     H26850   8.128   7.208   1.382  2.2655  0.4401  1.8270
  199MOL0     H26851   7.754   6.920   1.398 -1.0792 -1.3541 -0.5021
  199MOL0     H26852   7.544   6.843   1.466 -1.7616  0.6101  2.6400
  199MOL0     H26853   7.424   6.932   1.792  0.5589 -0.1213 -0.8271
  199MOL0     H26854   7.475   6.800   1.896  3.2543 -0.2502 -0.4801
  199MOL0     H26855   7.245   6.770   1.709  1.5192 -1.3556 -0.0068
  199MOL0     H26856   7.202   6.867   1.863 -3.4316 -1.0034 -1.5714
  199MOL0     H26857   7.265   6.677   1.993 -1.6210 -0.5110  0.8775
  199MOL0     H26858   7.325   6.575   1.868 -1.1724 -1.1739  0.4165
  199MOL0     H26859   7.073   6.592   1.777  0.6547 -1.6809  0.1459
  199MOL0     H26860   7.120   6.483   1.908 -1.5210 -0.3966 -1.6925
  199MOL0     H26861   6.880   6.748   2.138 -2.4568 -3.5518 -0.1569
  199MOL0     H26862   7.692   6.788   1.861 -1.1460 -1.4571 -1.0414
  199MOL0     H26863   8.015   6.825   1.841 -0.1301 -0.7457 -2.7868
  199MOL0     H26864   7.955   6.988   1.828  2.6293 -1.2069 -1.3152
  199MOL0     H26865   7.874   6.881   1.937 -2.9288  1.5796 -1.2854
  200MOL0     O26866  10.695   1.012   0.893 -0.5501 -0.0671  0.5179
  200MOL0     C26867  10.698   0.898   0.941  0.1404 -0.0370  0.8243
  200MOL0     O26868  10.749   0.870   1.059 -0.2133  0.1995  0.5327
  200MOL0     C26869  10.787   0.979   1.139  0.3774 -0.1627 -0.2362
  200MOL0     C26870  10.906   1.049   1.115  0.4552 -0.8386  0.6278
  200MOL0     C26871  10.955   1.141   1.198 -0.7920  0.0698 -0.3746
  200MOL0     C26872  10.892   1.170   1.322 -0.6382  0.2774  0.4123
  200MOL0     O26873  10.952   1.278   1.391  0.0579 -0.3512  0.5842
  200MOL0     C26874  10.864   1.352   1.479 -0.4355 -0.1998 -0.1667
  200MOL0     C26875  10.941   1.474   1.540 -0.3311  0.1911  0.0178
  200MOL0     C26876  10.855   1.556   1.634  0.6182 -0.3165  0.5339
  200MOL0     C26877  10.823   1.477   1.765  0.2870 -0.8869  0.1291
  200MOL0     C26878  10.719   1.550   1.851  0.2961 -0.0221 -0.7596
  200MOL0     C26879  10.757   1.682   1.913 -0.0515 -0.3196 -0.2207
  200MOL0     C26880  10.857   1.673   2.027  0.1572  0.5258  0.0934
  200MOL0     C26881  10.847   1.793   2.108 -0.2647  0.6543  0.5139
  200MOL0     N26882  10.863   1.913   2.040  0.0746 -0.4065  0.7788
  200MOL0     C26883  10.992   1.964   2.004  0.4138 -0.2583 -0.0572
  200MOL0     C26884  10.962   2.093   1.963 -0.1668  0.0733  0.1967
  200MOL0     C26885  11.054   2.206   1.920 -0.3153  0.0941  0.2784
  200MOL0     C26886  11.002   2.344   1.963  0.2362 -0.2888  1.2283
  200MOL0     C26887  10.894   2.413   1.877 -0.8394  0.1573 -0.8612
  200MOL0     C26888  10.947   2.448   1.734  0.3342 -0.0942 -0.3642
  200MOL0     O26889  10.870   2.577   1.692  0.4960  0.1952 -0.0896
  200MOL0     C26890  10.924   2.698   1.745  0.8963  0.5052  0.1788
  200MOL0     C26891  10.860   2.816   1.710  0.8425  0.4958  1.0423
  200MOL0     C26892  10.917   2.944   1.731  0.8817  0.1383 -0.0253
  200MOL0     C26893  11.022   2.957   1.824 -0.0066 -1.0960 -0.2557
  200MOL0     C26894  11.065   3.096   1.874  0.3472  0.8071 -0.7580
  200MOL0     O26895  11.154   3.096   1.976 -0.7457  1.7322  0.2299
  200MOL0     C26896  11.217   3.218   1.993  0.2962  0.4478 -0.4103
  200MOL0     C26897  11.306   3.270   1.896 -1.0660 -0.6061 -0.6237
  200MOL0     C26898  11.349   3.399   1.908 -0.1375 -0.2732  0.2274
  200MOL0     C26899  11.303   3.491   2.006  0.1915 -0.0801  0.5025
  200MOL0     O26900  11.355   3.620   2.010 -0.0002 -0.5232  0.2046
  200MOL0     C26901  11.253   3.726   2.017 -0.5882  0.4554 -0.0148
  200MOL0     C26902  11.243   3.803   1.890 -0.2640 -1.4126 -1.1368
  200MOL0     C26903  11.200   3.723   1.770  0.3093  0.4033 -0.1579
  200MOL0     C26904  11.054   3.689   1.780  0.3424  0.5356 -0.1188
  200MOL0     C26905  11.006   3.573   1.682 -0.3268 -0.3154 -0.3369
  200MOL0     C26906  10.867   3.518   1.721  0.9113 -1.5004 -0.1597
  200MOL0     C26907  10.789   3.448   1.616  0.2015 -0.1699  0.0973
  200MOL0     C26908  10.656   3.394   1.666 -0.3321 -1.0817 -1.1096
  200MOL0    Cl26909  10.529   3.514   1.710 -0.4793 -0.8753 -0.3727
  200MOL0     C26910  11.221   3.428   2.109  0.7194 -0.1295 -0.4429
  200MOL0     C26911  11.176   3.300   2.098  0.4039 -0.4488  0.2150
  200MOL0     O26912  11.022   3.197   1.828 -0.8173  0.3352 -0.1100
  200MOL0     C26913  11.081   2.843   1.872  0.2828 -0.3229  0.4509
  200MOL0     C26914  11.037   2.720   1.826  0.0371  0.0084  0.6323
  200MOL0     N26915  10.826   2.110   1.973 -0.6990 -0.6590 -1.2576
  200MOL0     N26916  10.773   2.007   2.019  0.4964  0.4067  0.4450
  200MOL0     C26917  10.757   1.111   1.333 -0.6488  0.2085  0.2109
  200MOL0     C26918  10.710   1.011   1.246  0.1326 -0.0747 -0.7264
  200MOL0     C26919  10.653   0.783   0.862  1.1351 -0.9762  0.7152
  200MOL0     C26920  10.562   0.693   0.927 -1.0570 -0.0323 -0.2625
  200MOL0     C26921  10.551   0.569   0.858  0.8310  0.1360  0.1389
  200MOL0     C26922  10.594   0.552   0.727  0.6808  0.5708 -0.5979
  200MOL0     O26923  10.549   0.434   0.668 -0.5971  0.5855 -0.8121
  200MOL0     C26924  10.584   0.408   0.530 -0.5572 -1.4608 -0.0041
  200MOL0     C26925  10.508   0.278   0.496  0.4203  0.5760  0.1829
  200MOL0     C26926  10.531   0.228   0.356  0.4653 -0.3472 -0.6936
  200MOL0     C26927  10.406   0.154   0.288 -0.3341 -0.0187 -0.9000
  200MOL0     C26928  10.453   0.096   0.152  0.4000 -0.4618  0.5904
  200MOL0     C26929  10.485   0.047   0.039 -0.3435 -0.0037 -0.3746
  200MOL0     C26930  10.669   0.651   0.668 -0.1394 -1.1482  0.2782
  200MOL0     C26931  10.708   0.768   0.737 -0.9624  0.1997 -0.5490
  200MOL0     C26932  10.796   0.866   0.659  0.2651 -0.8307  0.2404
  200MOL0     H26933  10.960   1.040   1.021 -1.8150 -2.2300 -0.6218
  200MOL0     H26934  11.050   1.185   1.172 -1.3520  1.0139 -0.8663
  200MOL0     H26935  10.781   1.390   1.419 -0.4182 -1.1693 -0.8140
  200MOL0     H26936  10.832   1.275   1.550 -3.0746 -1.4721 -2.5347
  200MOL0     H26937  10.980   1.536   1.458 -0.2896  0.5281  0.2891
  200MOL0     H26938  11.027   1.440   1.598 -0.6794 -0.3165  0.2451
  200MOL0     H26939  10.758   1.580   1.591 -0.4522 -1.0921  2.3972
  200MOL0     H26940  10.913   1.643   1.665  0.9029  0.3996 -1.8129
  200MOL0     H26941  10.790   1.378   1.734 -0.5089 -0.4950 -0.2972
  200MOL0     H26942  10.916   1.477   1.823 -0.1706 -1.6639  0.8684
  200MOL0     H26943  10.635   1.572   1.785 -1.7760 -2.1116  0.9963
  200MOL0     H26944  10.691   1.482   1.932  0.6338 -0.8450 -1.3110
  200MOL0     H26945  10.799   1.750   1.838  1.4753 -0.8551  0.1026
  200MOL0     H26946  10.665   1.726   1.951 -2.0331 -4.9879  1.0737
  200MOL0     H26947  10.958   1.658   1.988  0.4288  2.7164 -0.1870
  200MOL0     H26948  10.848   1.580   2.084 -0.9393 -1.1071 -2.5805
  200MOL0     H26949  10.756   1.796   2.170 -0.8400 -1.6262 -0.1174
  200MOL0     H26950  10.933   1.792   2.175 -0.5083 -3.0167  0.9494
  200MOL0     H26951  11.081   1.903   1.991  0.0385 -1.0979  1.0920
  200MOL0     H26952  11.155   2.196   1.960  0.7918 -0.4591 -2.4359
  200MOL0     H26953  11.062   2.224   1.813  3.1016  0.9577  0.5728
  200MOL0     H26954  10.973   2.350   2.068 -1.1447  1.0192  0.8138
  200MOL0     H26955  11.087   2.414   1.959 -2.2034  2.8988 -2.4430
  200MOL0     H26956  10.870   2.508   1.926  0.1170  3.3454 -5.7471
  200MOL0     H26957  10.807   2.347   1.868 -0.7653  0.1141 -1.2850
  200MOL0     H26958  10.922   2.359   1.675  0.0381 -2.1061  2.5668
  200MOL0     H26959  11.052   2.469   1.716  0.2043 -0.6171 -1.8441
  200MOL0     H26960  10.762   2.819   1.661  0.3261 -0.7969  1.9557
  200MOL0     H26961  10.872   3.037   1.699  4.0092  1.7690 -0.0576
  200MOL0     H26962  11.342   3.203   1.818 -1.5302 -0.6732 -0.7836
  200MOL0     H26963  11.407   3.421   1.819 -2.1386  0.6344 -0.9091
  200MOL0     H26964  11.158   3.689   2.058 -0.9497 -0.3035 -1.4677
  200MOL0     H26965  11.278   3.799   2.094  1.1442 -0.9307  0.7923
  200MOL0     H26966  11.174   3.887   1.906 -0.0680 -1.4930  0.2545
  200MOL0     H26967  11.335   3.859   1.872 -0.0704  0.1353  3.4234
  200MOL0     H26968  11.215   3.793   1.688  0.8360  0.3889 -0.0756
  200MOL0     H26969  11.252   3.628   1.756  0.7038  0.4760  0.7421
  200MOL0     H26970  10.991   3.775   1.756 -1.4974 -0.5183  0.7311
  200MOL0     H26971  11.025   3.656   1.880 -0.7855  3.8455  0.7702
  200MOL0     H26972  11.083   3.495   1.676 -0.6459 -0.6133 -0.6105
  200MOL0     H26973  10.994   3.615   1.582  0.0606  1.9636  0.5236
  200MOL0     H26974  10.864   3.459   1.813  0.3003 -0.2701  0.6335
  200MOL0     H26975  10.807   3.606   1.746  0.8701 -0.5616 -3.2140
  200MOL0     H26976  10.851   3.362   1.589  1.4130  1.2247 -1.8696
  200MOL0     H26977  10.772   3.505   1.524  2.0447  0.8048  0.3132
  200MOL0     H26978  10.610   3.341   1.582 -1.2145 -2.5029  0.2140
  200MOL0     H26979  10.681   3.333   1.753  0.4085  2.9584  1.8239
  200MOL0     H26980  11.180   3.495   2.185 -0.6761 -0.5259 -0.8141
  200MOL0     H26981  11.115   3.255   2.176 -1.1305  1.6462  0.3232
  200MOL0     H26982  11.149   2.849   1.957 -0.4945 -0.2117  1.0717
  200MOL0     H26983  11.078   2.636   1.880  0.3754  0.7977  1.6250
  200MOL0     H26984  10.694   1.144   1.415 -0.4017 -1.7947  1.2654
  200MOL0     H26985  10.614   0.961   1.255 -0.3494  0.9949  0.3624
  200MOL0     H26986  10.522   0.711   1.027 -0.1125  1.4650 -0.1247
  200MOL0     H26987  10.478   0.501   0.899  0.5314  0.5736  0.3480
  200MOL0     H26988  10.692   0.392   0.524  0.2221  2.5698  0.4151
  200MOL0     H26989  10.558   0.500   0.476  1.0386 -1.1860 -0.3512
  200MOL0     H26990  10.401   0.304   0.504 -0.2462 -1.7773 -0.2873
  200MOL0     H26991  10.528   0.200   0.569 -1.9004 -2.1884 -1.8992
  200MOL0     H26992  10.617   0.160   0.362 -1.0531 -2.5577 -2.2372
  200MOL0     H26993  10.562   0.318   0.301  0.9467  0.4284  0.8128
  200MOL0     H26994  10.367   0.080   0.358  2.7122 -1.9672 -1.0690
  200MOL0     H26995  10.331   0.232   0.274 -1.0710 -0.6323 -0.4089
  200MOL0     H26996  10.499   0.022  -0.064  1.1611  1.8730 -0.6836
  200MOL0     H26997  10.716   0.632   0.572  1.9264  0.1145  0.9809
  200MOL0     H26998  10.756   0.968   0.654 -0.4432 -1.1536 -1.1497
  200MOL0     H26999  10.894   0.878   0.705  0.6492 -0.4020 -0.6681
  200MOL0     H27000  10.819   0.820   0.562  1.7006 -0.1928  0.2630
  201MOL0     O27001   3.961  10.724  10.456 -0.2344  0.0838 -0.4373
  201MOL0     C27002   3.916  10.635  10.526  0.6692  0.4701 -0.2043
  201MOL0     O27003   3.802  10.651  10.612  0.2301 -1.1780 -0.0554
  201MOL0     C27004   3.731  10.769  10.628 -0.5281 -0.9510  0.4740
  201MOL0     C27005   3.595  10.765  10.631 -0.4910  0.3337 -0.0842
  201MOL0     C27006   3.519  10.884  10.624 -0.1597 -0.2007  0.6131
  201MOL0     C27007   3.584  11.013  10.625  0.2391  0.0398 -0.0488
  201MOL0     O27008   3.522  11.133  10.635 -0.1017  0.2676  0.1402
  201MOL0     C27009   3.374  11.134  10.644 -0.2398 -0.0737 -0.7042
  201MOL0     C27010   3.329  11.282  10.633 -0.1368 -0.4057  0.2662
  201MOL0     C27011   3.337  11.323  10.481  0.0974  0.2937 -0.8465
  201MOL0     C27012   3.334  11.477  10.451  0.5467  0.2461 -0.5033
  201MOL0     C27013   3.191  11.529  10.442 -0.7554 -0.2029  0.8921
  201MOL0     C27014   3.199  11.681  10.405 -1.0580 -0.0715 -0.7683
  201MOL0     C27015   3.056  11.736  10.403  0.2066  0.5610  0.1284
  201MOL0     C27016   3.056  11.888  10.400  0.3635 -0.7972  0.4883
  201MOL0     N27017   3.075  11.965  10.524  0.3105  0.6434  0.6164
  201MOL0     C27018   3.027  11.918  10.643  0.5511 -0.1623 -0.0349
  201MOL0     C27019   3.108  11.983  10.735  0.1180  0.2104 -0.1806
  201MOL0     C27020   3.118  11.979  10.888  0.0100 -0.9049  0.2047
  201MOL0     C27021   3.147  11.839  10.947  0.8241  0.2688  0.2912
  201MOL0     C27022   3.269  11.772  10.873  0.1858 -0.1200 -1.7471
  201MOL0     C27023   3.284  11.626  10.907  0.5698 -0.2991  0.2175
  201MOL0     O27024   3.164  11.554  10.874 -0.5344 -0.2194 -0.7337
  201MOL0     C27025   3.137  11.425  10.917 -0.3501 -0.4037  0.0930
  201MOL0     C27026   3.011  11.374  10.886 -0.5206  0.2270 -0.3865
  201MOL0     C27027   2.958  11.255  10.941  0.1535 -0.5595 -0.6326
  201MOL0     C27028   3.034  11.180  11.025  0.0842  0.4027  0.0612
  201MOL0     C27029   2.999  11.042  11.064 -0.2421  1.1109 -0.5221
  201MOL0     O27030   2.868  11.002  11.037 -0.0800 -0.6640  0.9140
  201MOL0     C27031   2.799  10.906  11.101 -0.7441 -0.4489 -0.4394
  201MOL0     C27032   2.828  10.857  11.227 -0.2693  0.0217  0.2390
  201MOL0     C27033   2.739  10.772  11.287  0.6495 -1.0012  0.1923
  201MOL0     C27034   2.634  10.716  11.214  0.1366 -0.1934  0.3805
  201MOL0     O27035   2.567  10.619  11.278 -0.3350 -0.6861 -0.6410
  201MOL0     C27036   2.518  10.504  11.217  0.5507 -1.0279  0.5658
  201MOL0     C27037   2.623  10.393  11.214 -0.5085 -0.0690 -0.0998
  201MOL0     C27038   2.715  10.417  11.105  0.0843 -0.1323  0.0103
  201MOL0     C27039   2.802  10.290  11.083  0.2552  0.4520  0.0635
  201MOL0     C27040   2.742  10.193  10.982  0.8035 -0.4015 -0.3421
  201MOL0     C27041   2.606  10.123  11.027 -0.6614  0.5730 -0.5795
  201MOL0     C27042   2.544  10.004  10.950 -0.4777 -0.0898 -0.1846
  201MOL0     C27043   2.442   9.937  11.038  0.4690  0.3721 -0.7528
  201MOL0    Cl27044   2.482   9.850  11.187 -0.2166  0.1627 -0.0161
  201MOL0     C27045   2.603  10.751  11.080 -0.9458 -0.5839 -0.2105
  201MOL0     C27046   2.686  10.856  11.031  0.3879  0.5155 -0.0333
  201MOL0     O27047   3.084  10.976  11.129  0.0281  0.4285  0.1803
  201MOL0     C27048   3.168  11.222  11.047 -0.1340 -0.3386 -0.0021
  201MOL0     C27049   3.220  11.338  10.986 -0.7743 -0.5171 -0.5157
  201MOL0     N27050   3.192  12.063  10.660  0.5544 -0.1574  0.0956
  201MOL0     N27051   3.173  12.054  10.530 -0.5661  0.4334  0.2462
  201MOL0     C27052   3.730  11.015  10.634 -1.6521  0.5452 -0.2384
  201MOL0     C27053   3.799  10.892  10.639 -0.2582  0.3324  0.8546
  201MOL0     C27054   3.982  10.494  10.523 -0.3443 -1.2531  0.3654
  201MOL0     C27055   3.901  10.384  10.549 -0.3247  0.6954  0.0724
  201MOL0     C27056   3.956  10.258  10.556 -0.2379 -0.0057 -1.1004
  201MOL0     C27057   4.090  10.239  10.549 -0.9646 -0.4047 -0.2497
  201MOL0     O27058   4.133  10.111  10.574  0.0716 -0.5912 -0.1834
  201MOL0     C27059   4.275  10.084  10.554  0.0578  0.1778 -0.4298
  201MOL0     C27060   4.324   9.948  10.631 -0.1007 -0.3537 -0.4441
  201MOL0     C27061   4.322   9.981  10.785 -0.3887 -0.3381  0.6839
  201MOL0     C27062   4.386   9.883  10.871  0.4280  0.4908  0.7133
  201MOL0     C27063   4.307   9.762  10.902  0.0454  1.2926  0.1672
  201MOL0     C27064   4.238   9.666  10.939 -0.5604 -0.2927  0.3812
  201MOL0     C27065   4.171  10.348  10.513 -0.0569  0.3099 -0.0708
  201MOL0     C27066   4.122  10.477  10.500  0.0436 -1.1207  1.0413
  201MOL0     C27067   4.200  10.585  10.438  0.2472  0.2373  0.4172
  201MOL0     H27068   3.543  10.670  10.622  2.7936 -1.4568 -1.7636
  201MOL0     H27069   3.411  10.876  10.629 -0.2131 -3.4059 -2.0040
  201MOL0     H27070   3.312  11.082  10.571 -1.9223  1.6628 -0.6084
  201MOL0     H27071   3.351  11.091  10.742 -3.1420  0.7195 -0.9389
  201MOL0     H27072   3.396  11.341  10.696 -1.3668  1.9386 -0.5079
  201MOL0     H27073   3.228  11.295  10.672 -0.0705  2.3375 -0.2847
  201MOL0     H27074   3.252  11.279  10.428  0.0093 -0.3207 -0.2179
  201MOL0     H27075   3.433  11.282  10.450  1.4965  2.4357  0.3600
  201MOL0     H27076   3.391  11.540  10.520  1.6056 -1.6688  0.4512
  201MOL0     H27077   3.384  11.502  10.357  3.9517 -3.1021  0.2060
  201MOL0     H27078   3.130  11.491  10.359 -0.4691  1.7292 -0.2757
  201MOL0     H27079   3.132  11.509  10.532 -1.2359  4.6300  1.9184
  201MOL0     H27080   3.260  11.711  10.490  1.8655 -0.2796 -2.6584
  201MOL0     H27081   3.241  11.699  10.305 -0.1810  0.0069 -0.3896
  201MOL0     H27082   2.987  11.697  10.478  1.2630 -3.5659 -0.8096
  201MOL0     H27083   3.004  11.698  10.315 -0.3895  3.0751 -0.6900
  201MOL0     H27084   3.133  11.934  10.338 -1.6004  0.4637 -1.1683
  201MOL0     H27085   2.962  11.913  10.349  1.2732 -1.4732 -1.6008
  201MOL0     H27086   2.946  11.849  10.666 -0.6290  1.6345  1.5630
  201MOL0     H27087   3.208  12.034  10.919  0.9711 -1.9385 -0.6834
  201MOL0     H27088   3.022  12.009  10.931 -0.7000 -4.6696  1.5627
  201MOL0     H27089   3.170  11.844  11.054 -1.4094 -0.8336  0.8742
  201MOL0     H27090   3.065  11.767  10.938  0.8376  0.1966  0.7296
  201MOL0     H27091   3.366  11.820  10.892  0.9878 -1.5478 -2.0720
  201MOL0     H27092   3.249  11.766  10.765 -1.1123 -1.1148 -1.4782
  201MOL0     H27093   3.303  11.609  11.013  1.4057 -0.2570  0.0771
  201MOL0     H27094   3.364  11.581  10.849  1.8112  3.0071 -0.8958
  201MOL0     H27095   2.946  11.428  10.817 -0.9723 -1.5250 -1.4006
  201MOL0     H27096   2.855  11.223  10.927  0.4684 -3.2840  2.0408
  201MOL0     H27097   2.911  10.906  11.278  0.3468  0.2639 -0.9608
  201MOL0     H27098   2.746  10.744  11.392 -1.5697  0.3105  0.7756
  201MOL0     H27099   2.437  10.463  11.279 -0.0847  0.2200  0.5954
  201MOL0     H27100   2.481  10.532  11.118  0.4062 -1.4059  0.5122
  201MOL0     H27101   2.685  10.394  11.304 -0.4407  0.1142 -0.1492
  201MOL0     H27102   2.565  10.300  11.212  0.3251 -0.6934  1.8798
  201MOL0     H27103   2.658  10.430  11.013 -0.5186 -0.8009  0.2780
  201MOL0     H27104   2.778  10.502  11.133 -3.1169  2.3658  0.2266
  201MOL0     H27105   2.827  10.234  11.174 -1.1383  0.6425  0.5960
  201MOL0     H27106   2.897  10.337  11.055 -0.1781  1.1434 -0.2608
  201MOL0     H27107   2.820  10.121  10.954  0.8903 -0.6447  0.4898
  201MOL0     H27108   2.721  10.247  10.890  0.8513  3.6899  1.8256
  201MOL0     H27109   2.615  10.089  11.131 -1.3683  0.7322 -0.4646
  201MOL0     H27110   2.537  10.207  11.017 -1.7001 -0.0971  0.7260
  201MOL0     H27111   2.626   9.934  10.932  0.7167  0.4421  2.6989
  201MOL0     H27112   2.513  10.035  10.850 -0.3029 -0.9259 -0.5024
  201MOL0     H27113   2.365  10.007  11.072  0.2261 -0.9867  1.7575
  201MOL0     H27114   2.383   9.873  10.971  2.9878 -3.5162  0.4033
  201MOL0     H27115   2.519  10.715  11.022 -2.1080 -0.1261  1.1373
  201MOL0     H27116   2.670  10.900  10.933 -1.3396 -0.9215 -0.4379
  201MOL0     H27117   3.227  11.160  11.114  1.8490 -1.1039 -2.2854
  201MOL0     H27118   3.325  11.359  11.005  0.1901 -2.8292 -2.6921
  201MOL0     H27119   3.779  11.111  10.622 -1.2605  0.3139 -0.4989
  201MOL0     H27120   3.907  10.904  10.644 -0.2994  0.8645  0.5172
  201MOL0     H27121   3.796  10.391  10.578  0.1290  1.2412  1.7191
  201MOL0     H27122   3.887  10.181  10.590  1.4143 -0.4990  1.3812
  201MOL0     H27123   4.349  10.160  10.584  0.4477  0.4452 -1.9752
  201MOL0     H27124   4.294  10.069  10.447  0.5949  0.7447 -0.4237
  201MOL0     H27125   4.425   9.939  10.590  0.1169  2.5836 -0.7252
  201MOL0     H27126   4.259   9.860  10.620  1.6493 -1.6644 -0.7204
  201MOL0     H27127   4.217   9.993  10.812 -1.2815 -2.9567 -1.1849
  201MOL0     H27128   4.375  10.075  10.797  1.9571 -1.5656  0.5231
  201MOL0     H27129   4.479   9.849  10.825 -0.4630  0.1337 -0.8779
  201MOL0     H27130   4.418   9.935  10.962  1.1681  1.0271  0.1591
  201MOL0     H27131   4.196   9.574  10.972  0.6482 -1.4987 -1.2727
  201MOL0     H27132   4.274  10.328  10.486  0.6539  1.3435  1.7219
  201MOL0     H27133   4.219  10.665  10.510  1.5373  1.8944 -1.6199
  201MOL0     H27134   4.296  10.550  10.399 -0.7197 -0.7600 -1.1721
  201MOL0     H27135   4.147  10.639  10.359  1.3381  0.8179  0.0484
  202MOL0     O27136  10.436   4.891   6.847 -0.4315 -0.1228 -0.4307
  202MOL0     C27137  10.354   4.900   6.937 -0.1488  0.1559 -0.6450
  202MOL0     O27138  10.238   4.975   6.946  0.2849  0.8847  0.7376
  202MOL0     C27139  10.230   5.083   6.857  0.1638  0.5838 -0.3368
  202MOL0     C27140  10.105   5.105   6.790 -0.2548 -0.0392 -0.0802
  202MOL0     C27141  10.094   5.195   6.688 -0.2125 -1.0608  1.4953
  202MOL0     C27142  10.207   5.269   6.651  0.9081 -0.3527  0.4091
  202MOL0     O27143  10.190   5.357   6.550  1.2518 -0.6964 -0.2115
  202MOL0     C27144  10.242   5.491   6.556  0.0576 -0.6934  1.0088
  202MOL0     C27145  10.119   5.583   6.530 -0.5990 -0.7807  0.4873
  202MOL0     C27146  10.111   5.645   6.385 -0.2357  0.7412 -0.0095
  202MOL0     C27147  10.095   5.541   6.265  0.3657 -0.3470  0.1694
  202MOL0     C27148  10.134   5.613   6.130  0.4058  0.9510  0.0332
  202MOL0     C27149  10.281   5.609   6.101  0.3371 -1.2246 -0.1476
  202MOL0     C27150  10.301   5.648   5.957  0.1740 -1.0384  0.3506
  202MOL0     C27151  10.285   5.798   5.910 -0.0790 -0.1238 -1.1932
  202MOL0     N27152  10.310   5.897   6.013 -0.9586 -1.1358 -0.2561
  202MOL0     C27153  10.214   5.993   6.045 -0.1799  1.0583  0.3072
  202MOL0     C27154  10.280   6.093   6.111 -0.0832  0.6205  0.1148
  202MOL0     C27155  10.237   6.209   6.176  0.1591 -0.1260  0.6467
  202MOL0     C27156  10.137   6.291   6.088  0.0897  0.2698 -0.3026
  202MOL0     C27157  10.016   6.349   6.166  0.2467 -0.0257 -0.1667
  202MOL0     C27158  10.046   6.463   6.267  0.3973  0.4538 -0.4431
  202MOL0     O27159   9.919   6.504   6.326  0.7049  0.1861 -0.3666
  202MOL0     C27160   9.916   6.622   6.405  0.5043  0.7659 -0.2924
  202MOL0     C27161  10.029   6.705   6.423 -0.1592 -0.0689  0.5048
  202MOL0     C27162  10.015   6.809   6.512 -0.7303  0.2743  0.6775
  202MOL0     C27163   9.901   6.841   6.585 -0.2823  0.5498  0.1532
  202MOL0     C27164   9.896   6.955   6.680  0.5933  0.4046  0.7227
  202MOL0     O27165   9.799   6.953   6.772 -0.1498 -0.2743  0.0519
  202MOL0     C27166   9.825   7.011   6.892  0.3353  0.0659 -1.1188
  202MOL0     C27167   9.946   7.026   6.958 -1.2871 -0.8594 -0.6910
  202MOL0     C27168   9.959   7.084   7.080 -0.3070  0.0957  0.7404
  202MOL0     C27169   9.850   7.117   7.154 -1.2110 -1.0720  0.8019
  202MOL0     O27170   9.867   7.173   7.279  0.1512 -0.6614  0.6417
  202MOL0     C27171   9.931   7.098   7.378 -0.7442 -0.5807  0.6289
  202MOL0     C27172   9.946   7.180   7.511 -0.0587  0.2073 -0.7183
  202MOL0     C27173  10.015   7.310   7.497 -0.2864  0.4898  0.3081
  202MOL0     C27174   9.972   7.422   7.600  0.0416  0.1973  0.1368
  202MOL0     C27175  10.045   7.562   7.580  0.7830  0.7858  0.4834
  202MOL0     C27176  10.203   7.557   7.598 -0.1487 -0.3942 -1.1709
  202MOL0     C27177  10.251   7.494   7.728 -0.1748  0.2081 -1.3475
  202MOL0     C27178  10.404   7.484   7.736 -0.1317 -0.4219 -0.4171
  202MOL0    Cl27179  10.451   7.325   7.664 -0.6396  0.3078  0.1171
  202MOL0     C27180   9.718   7.089   7.103 -0.9198  0.4397 -0.3897
  202MOL0     C27181   9.709   7.036   6.971  0.2169  0.1861  0.3771
  202MOL0     O27182   9.971   7.055   6.667 -0.4059 -0.1561 -0.0693
  202MOL0     C27183   9.790   6.758   6.576  0.5448 -0.4377  0.2700
  202MOL0     C27184   9.797   6.649   6.487 -0.4790  0.6233 -0.5823
  202MOL0     N27185  10.413   6.044   6.111 -0.1405  0.1334  0.5671
  202MOL0     N27186  10.430   5.935   6.047 -0.5009 -0.7469  0.4765
  202MOL0     C27187  10.330   5.248   6.716  0.3900 -0.2154  1.3406
  202MOL0     C27188  10.342   5.165   6.817  0.3551 -1.0400 -0.0883
  202MOL0     C27189  10.383   4.808   7.053 -0.2611 -0.0884  0.4595
  202MOL0     C27190  10.413   4.679   7.013  0.3863 -0.2437  0.4761
  202MOL0     C27191  10.422   4.576   7.104  0.6017 -0.6997  0.2490
  202MOL0     C27192  10.414   4.602   7.232  0.2825  0.2235 -0.3330
  202MOL0     O27193  10.428   4.496   7.328 -0.7311 -0.1156  0.3992
  202MOL0     C27194  10.454   4.526   7.467 -0.1585  0.4309 -0.5937
  202MOL0     C27195  10.476   4.403   7.560  0.0869  0.7272 -0.2030
  202MOL0     C27196  10.378   4.294   7.540 -0.0609 -0.4355 -0.4442
  202MOL0     C27197  10.438   4.158   7.585 -0.5079  0.2877 -0.2316
  202MOL0     C27198  10.419   4.143   7.726  0.6585 -0.4677  0.2004
  202MOL0     C27199  10.394   4.111   7.838  0.1213  0.8864  0.8261
  202MOL0     C27200  10.395   4.735   7.272  0.4617  0.5683 -0.1828
  202MOL0     C27201  10.379   4.844   7.186 -0.0550 -0.3912 -0.2890
  202MOL0     C27202  10.348   4.984   7.236 -0.7782 -0.0838  0.1790
  202MOL0     H27203  10.027   5.042   6.833 -2.7213  1.4254 -2.1666
  202MOL0     H27204  10.007   5.217   6.627 -0.6028 -0.5207  2.2266
  202MOL0     H27205  10.304   5.514   6.643  0.0208  0.0328  0.8483
  202MOL0     H27206  10.314   5.510   6.476  0.2442  3.2001  1.8841
  202MOL0     H27207  10.124   5.666   6.601  4.6777  0.3339 -0.7619
  202MOL0     H27208  10.027   5.529   6.557 -0.6773 -0.2555  1.3139
  202MOL0     H27209  10.204   5.696   6.359 -0.3345  1.0110  0.1668
  202MOL0     H27210  10.031   5.720   6.383  0.2812  1.3592  1.4079
  202MOL0     H27211  10.149   5.446   6.271 -0.6618 -1.0148 -0.7467
  202MOL0     H27212   9.987   5.533   6.255 -0.0944  3.1988  1.0926
  202MOL0     H27213  10.087   5.542   6.061 -0.5709 -1.1908  2.7320
  202MOL0     H27214  10.096   5.715   6.133  2.1391  1.6162  1.9419
  202MOL0     H27215  10.345   5.673   6.162 -2.9999  0.6794  1.6213
  202MOL0     H27216  10.312   5.505   6.116 -1.7536 -1.6301  1.8592
  202MOL0     H27217  10.232   5.593   5.892 -1.5759  1.5428 -0.1121
  202MOL0     H27218  10.401   5.620   5.924  0.0274  1.9974 -3.2664
  202MOL0     H27219  10.359   5.814   5.831  0.6418  0.5634 -0.4083
  202MOL0     H27220  10.180   5.811   5.884 -0.0833  1.3585 -0.5755
  202MOL0     H27221  10.113   5.981   6.009  0.1332  0.2047 -0.3119
  202MOL0     H27222  10.188   6.185   6.271  1.5324  1.5514  1.8500
  202MOL0     H27223  10.318   6.280   6.193 -0.2501  0.3350  0.6896
  202MOL0     H27224  10.196   6.360   6.027  0.5000  0.1211 -0.0732
  202MOL0     H27225  10.093   6.227   6.011 -3.1103  1.3887  0.4092
  202MOL0     H27226   9.968   6.265   6.217  3.4514 -0.7503  1.9217
  202MOL0     H27227   9.944   6.395   6.098  0.9439 -0.4830 -1.2375
  202MOL0     H27228  10.082   6.545   6.204 -1.5280 -0.0444 -2.2984
  202MOL0     H27229  10.124   6.438   6.340 -2.8985 -5.1074  1.8465
  202MOL0     H27230  10.125   6.695   6.374 -0.0046  2.5412  0.1435
  202MOL0     H27231  10.098   6.873   6.542 -0.0424 -1.3579  2.4393
  202MOL0     H27232  10.032   6.983   6.908 -1.2683  0.8223 -2.1868
  202MOL0     H27233  10.061   7.101   7.114 -0.9678  3.1909  1.4768
  202MOL0     H27234   9.896   6.996   7.390  1.1500 -1.2141  1.1232
  202MOL0     H27235  10.033   7.075   7.345 -0.3690  3.4472 -1.6943
  202MOL0     H27236   9.847   7.198   7.554 -0.4175  1.7044 -2.0657
  202MOL0     H27237  10.003   7.132   7.591 -0.8054 -1.2650 -1.0269
  202MOL0     H27238  10.122   7.295   7.513 -0.2433 -0.0137 -0.4211
  202MOL0     H27239  10.009   7.348   7.394  2.2148 -0.2718 -0.1792
  202MOL0     H27240  10.007   7.383   7.696  1.1199  1.5384  0.3220
  202MOL0     H27241   9.864   7.436   7.590  0.1909 -0.4863 -5.8474
  202MOL0     H27242   9.998   7.623   7.658 -3.1685 -2.6377  1.1567
  202MOL0     H27243  10.026   7.596   7.478 -0.2508 -1.0905  0.0094
  202MOL0     H27244  10.256   7.511   7.514  3.4563  0.9043  0.2213
  202MOL0     H27245  10.244   7.658   7.594 -3.0064  0.8902 -4.9401
  202MOL0     H27246  10.214   7.390   7.728 -3.0904  1.1313 -0.0866
  202MOL0     H27247  10.216   7.546   7.817  0.9220 -2.4552  0.7964
  202MOL0     H27248  10.439   7.567   7.675 -1.4639  0.9994  0.6902
  202MOL0     H27249  10.436   7.494   7.841 -0.3966  0.7881 -0.4341
  202MOL0     H27250   9.633   7.113   7.166 -2.2419 -1.0297 -1.5352
  202MOL0     H27251   9.616   7.017   6.918 -1.2505  0.6091  2.6657
  202MOL0     H27252   9.700   6.779   6.633  0.5274  2.1192 -0.5490
  202MOL0     H27253   9.718   6.576   6.476  0.9081 -1.1370  0.6166
  202MOL0     H27254  10.422   5.299   6.690 -0.4284 -0.2013 -1.9821
  202MOL0     H27255  10.440   5.150   6.860  0.4445 -0.5751 -0.1314
  202MOL0     H27256  10.411   4.662   6.906 -0.9218  0.0683  0.4343
  202MOL0     H27257  10.449   4.480   7.061  1.3236  0.1892 -1.3764
  202MOL0     H27258  10.377   4.583   7.520  0.5317  0.1780  0.7140
  202MOL0     H27259  10.536   4.598   7.461 -1.5101  2.2056  1.0859
  202MOL0     H27260  10.472   4.436   7.664  0.0516 -2.6247  0.9695
  202MOL0     H27261  10.577   4.362   7.551 -0.3269 -0.4415  0.2658
  202MOL0     H27262  10.352   4.277   7.436 -1.6297  2.0437 -0.5271
  202MOL0     H27263  10.290   4.318   7.600  0.5186 -1.7597  1.0173
  202MOL0     H27264  10.385   4.081   7.528  0.3574  0.1401 -0.8532
  202MOL0     H27265  10.542   4.151   7.554 -0.4618  1.8887 -0.5308
  202MOL0     H27266  10.388   4.094   7.944  3.8910  2.3730  1.4238
  202MOL0     H27267  10.382   4.760   7.377  2.0847  3.6447 -0.5835
  202MOL0     H27268  10.382   5.000   7.339 -0.8686 -1.1609  0.3820
  202MOL0     H27269  10.396   5.060   7.174 -1.4523  0.3829  0.2234
  202MOL0     H27270  10.240   5.000   7.230 -0.8160 -0.9206 -2.0502
  203MOL0     O27271   4.977  10.283   8.668  0.1030 -0.1268  0.8693
  203MOL0     C27272   5.092  10.305   8.645 -0.1442 -0.3487  0.1615
  203MOL0     O27273   5.180  10.212   8.607 -0.3472  0.0133 -0.4191
  203MOL0     C27274   5.141  10.088   8.576  0.3676 -0.2288  0.2937
  203MOL0     C27275   5.138   9.992   8.672  1.1701 -0.6544 -0.5915
  203MOL0     C27276   5.085   9.860   8.646 -0.3898 -0.2395  0.9822
  203MOL0     C27277   5.045   9.828   8.510  0.0377  0.2425 -0.1820
  203MOL0     O27278   4.984   9.710   8.481 -0.3658 -0.0770  0.0822
  203MOL0     C27279   4.905   9.639   8.580 -0.1992 -0.3239 -0.0045
  203MOL0     C27280   4.820   9.525   8.525 -0.0234 -0.8062  0.0633
  203MOL0     C27281   4.898   9.397   8.489  0.0948  0.1701 -0.1861
  203MOL0     C27282   5.034   9.428   8.408 -0.1515 -0.1237 -0.4581
  203MOL0     C27283   5.113   9.298   8.373  0.1839 -0.3684 -0.7897
  203MOL0     C27284   5.246   9.321   8.315  0.4362 -0.0363  0.1872
  203MOL0     C27285   5.326   9.183   8.305  0.6513 -0.2949  0.5663
  203MOL0     C27286   5.264   9.103   8.184 -0.4591 -0.5024 -0.2249
  203MOL0     N27287   5.340   8.982   8.142  0.1193  0.4767  0.1734
  203MOL0     C27288   5.426   8.908   8.219 -0.4423  0.0470 -0.1754
  203MOL0     C27289   5.452   8.795   8.148  0.2890  0.0877 -0.3758
  203MOL0     C27290   5.556   8.700   8.190  0.0141 -1.4865 -0.4160
  203MOL0     C27291   5.518   8.607   8.310  0.6428  0.3523  0.8967
  203MOL0     C27292   5.486   8.682   8.437  1.4673  0.4126  1.1138
  203MOL0     C27293   5.515   8.610   8.566 -0.8925 -0.8930  0.3721
  203MOL0     O27294   5.479   8.701   8.673 -0.3572  0.3496  0.0567
  203MOL0     C27295   5.505   8.671   8.798  0.7267  0.6587 -0.6706
  203MOL0     C27296   5.579   8.562   8.845 -0.7276  0.4531 -0.7452
  203MOL0     C27297   5.609   8.534   8.973 -0.2883  0.6387  0.4998
  203MOL0     C27298   5.592   8.637   9.062  0.8113  0.3849 -0.3060
  203MOL0     C27299   5.616   8.621   9.208 -0.0379  0.5153  1.0501
  203MOL0     O27300   5.531   8.690   9.298  0.1572 -0.6647 -0.4688
  203MOL0     C27301   5.560   8.680   9.432  0.1857  0.6565 -0.4623
  203MOL0     C27302   5.476   8.612   9.523  0.1308 -0.0491 -0.4032
  203MOL0     C27303   5.498   8.600   9.664 -0.3032 -0.0230  0.1874
  203MOL0     C27304   5.615   8.671   9.709 -0.3981  0.5051 -0.8936
  203MOL0     O27305   5.660   8.665   9.837 -0.0381  0.2464  0.4418
  203MOL0     C27306   5.564   8.624   9.930  0.5379  0.5682 -0.0951
  203MOL0     C27307   5.595   8.638  10.077 -0.1328  0.3146 -0.6195
  203MOL0     C27308   5.483   8.577  10.153 -0.4012  0.2178 -0.4272
  203MOL0     C27309   5.466   8.413  10.153 -0.0243 -0.3941  0.2633
  203MOL0     C27310   5.324   8.365  10.224  0.3859  0.8609 -0.0274
  203MOL0     C27311   5.200   8.375  10.133  0.6898 -0.0631  0.0003
  203MOL0     C27312   5.077   8.386  10.216 -0.4593 -0.6983 -0.0937
  203MOL0     C27313   4.954   8.423  10.117  0.3426 -0.4798 -0.6490
  203MOL0    Cl27314   4.897   8.288  10.011 -0.0014  0.3492  0.2055
  203MOL0     C27315   5.696   8.741   9.621 -0.7352 -0.3995  0.3198
  203MOL0     C27316   5.672   8.746   9.483 -0.2535 -0.1081 -0.1009
  203MOL0     O27317   5.706   8.543   9.245  0.3238  0.6061  0.0287
  203MOL0     C27318   5.525   8.760   9.019 -0.5354  0.3187 -0.2321
  203MOL0     C27319   5.484   8.774   8.887 -0.2096  0.4204 -0.5810
  203MOL0     N27320   5.395   8.798   8.032 -0.0585  0.4166  0.2334
  203MOL0     N27321   5.315   8.905   8.036  0.9479 -0.2892  0.3150
  203MOL0     C27322   5.051   9.930   8.411 -0.8651  0.1930 -0.2600
  203MOL0     C27323   5.097  10.056   8.448  1.4362 -0.1628  0.3654
  203MOL0     C27324   5.158  10.438   8.679  0.3538  0.6201 -0.2757
  203MOL0     C27325   5.235  10.515   8.586  0.0803 -0.3855 -0.1265
  203MOL0     C27326   5.296  10.632   8.624 -0.5234 -0.4273 -0.7785
  203MOL0     C27327   5.259  10.696   8.743  0.3750  0.2175 -0.6579
  203MOL0     O27328   5.292  10.826   8.792 -0.6218 -0.1988  1.2401
  203MOL0     C27329   5.395  10.894   8.722 -0.0949  0.6131 -0.8846
  203MOL0     C27330   5.372  11.047   8.751 -0.6687  0.6304 -0.2752
  203MOL0     C27331   5.228  11.095   8.711 -0.8289 -0.1012 -0.7418
  203MOL0     C27332   5.228  11.137   8.561  0.6809  0.0951 -0.9601
  203MOL0     C27333   5.314  11.248   8.526 -0.6798  0.0615  1.0779
  203MOL0     C27334   5.395  11.334   8.498  0.4355  0.1661  0.2149
  203MOL0     C27335   5.163  10.625   8.826 -0.3168  0.2731 -0.0343
  203MOL0     C27336   5.117  10.495   8.798 -0.9872 -0.4806 -0.6319
  203MOL0     C27337   5.020  10.436   8.900 -0.1542 -1.0973 -0.0858
  203MOL0     H27338   5.157  10.014   8.776 -3.0867 -2.6340  0.8074
  203MOL0     H27339   5.077   9.798   8.734 -1.8679 -0.8735  0.4419
  203MOL0     H27340   4.964   9.612   8.668 -2.7043 -1.2235  1.5129
  203MOL0     H27341   4.836   9.714   8.619 -1.2368 -0.6228 -1.2083
  203MOL0     H27342   4.766   9.565   8.438  0.4917 -0.7824 -0.2466
  203MOL0     H27343   4.744   9.494   8.597 -0.8097 -2.8864 -1.5772
  203MOL0     H27344   4.832   9.329   8.433  0.8011 -0.4355 -0.2912
  203MOL0     H27345   4.933   9.340   8.575 -0.1641 -2.6355 -1.7897
  203MOL0     H27346   5.016   9.478   8.312  0.7412  1.6222  0.2291
  203MOL0     H27347   5.097   9.496   8.466  0.8658 -0.3485 -1.2681
  203MOL0     H27348   5.113   9.229   8.458 -0.3423 -2.3000 -2.2543
  203MOL0     H27349   5.045   9.245   8.306 -2.8285  3.1685 -0.8110
  203MOL0     H27350   5.225   9.353   8.213 -4.1348 -0.2370  0.8501
  203MOL0     H27351   5.305   9.392   8.373  3.1264 -1.6962 -0.3481
  203MOL0     H27352   5.305   9.119   8.392 -2.3990 -0.0212  0.1476
  203MOL0     H27353   5.433   9.194   8.291  0.8564 -2.4542  0.0591
  203MOL0     H27354   5.164   9.065   8.208 -0.8626  0.8509  0.3727
  203MOL0     H27355   5.253   9.173   8.101 -0.7801 -0.0714  0.1767
  203MOL0     H27356   5.471   8.941   8.313 -4.0407 -0.9134  2.0998
  203MOL0     H27357   5.575   8.629   8.109  0.5736 -1.2094 -0.5314
  203MOL0     H27358   5.653   8.746   8.210 -0.6265 -0.7489  1.1742
  203MOL0     H27359   5.438   8.541   8.275  3.2833 -2.2198 -0.7798
  203MOL0     H27360   5.609   8.551   8.336  1.5450  1.4908  0.2769
  203MOL0     H27361   5.387   8.729   8.441  0.5785 -1.3136  0.3812
  203MOL0     H27362   5.553   8.768   8.448  1.7246  0.4491 -0.5790
  203MOL0     H27363   5.620   8.579   8.567 -1.1361 -1.8655 -0.7541
  203MOL0     H27364   5.450   8.524   8.583  0.7799 -2.1613  0.6203
  203MOL0     H27365   5.620   8.487   8.778 -1.0457 -0.2486 -0.1626
  203MOL0     H27366   5.639   8.432   8.995 -0.1982  0.5482 -0.0311
  203MOL0     H27367   5.400   8.544   9.485  0.8037 -1.2232  0.2950
  203MOL0     H27368   5.428   8.540   9.721 -0.0557  0.7183  1.2949
  203MOL0     H27369   5.462   8.661   9.921 -0.1632 -0.6143  2.3925
  203MOL0     H27370   5.550   8.517   9.916 -0.0252  0.5367  0.6545
  203MOL0     H27371   5.693   8.594  10.097  0.1642 -0.2226 -2.9437
  203MOL0     H27372   5.599   8.743  10.108 -3.1808  0.6304 -1.0032
  203MOL0     H27373   5.496   8.618  10.254  0.0960  1.4140 -0.9537
  203MOL0     H27374   5.387   8.624  10.134  0.2408  1.5630 -0.4799
  203MOL0     H27375   5.544   8.369  10.216 -0.0896 -0.6018  0.2006
  203MOL0     H27376   5.490   8.377  10.053  1.3017  1.5829 -0.1914
  203MOL0     H27377   5.316   8.434  10.309 -1.1719 -0.0834  0.6486
  203MOL0     H27378   5.335   8.264  10.264 -3.4894  0.0661 -0.6100
  203MOL0     H27379   5.213   8.468  10.077 -0.7062  2.3599  3.3750
  203MOL0     H27380   5.205   8.290  10.064  4.7304 -0.2836  0.3139
  203MOL0     H27381   5.097   8.464  10.289  1.0802 -0.8945 -0.2772
  203MOL0     H27382   5.055   8.294  10.272 -2.0216  0.7545  1.8361
  203MOL0     H27383   4.868   8.449  10.178 -0.4357 -0.7323 -1.6122
  203MOL0     H27384   4.970   8.513  10.057  0.1984  1.6355  2.2750
  203MOL0     H27385   5.772   8.804   9.668 -0.1038  0.1208 -1.3188
  203MOL0     H27386   5.734   8.801   9.413 -1.0077  0.1723 -0.5676
  203MOL0     H27387   5.523   8.845   9.087  1.0196 -2.0889  3.1598
  203MOL0     H27388   5.444   8.864   8.841 -1.5309 -1.2951 -2.9294
  203MOL0     H27389   5.015   9.917   8.310 -0.3138  1.2532 -0.6062
  203MOL0     H27390   5.085  10.139   8.378  0.2347  1.2838  2.1938
  203MOL0     H27391   5.255  10.472   8.488  1.9249  2.5657 -1.1850
  203MOL0     H27392   5.366  10.669   8.550  1.5734  0.1124  1.3457
  203MOL0     H27393   5.373  10.871   8.618  0.6109  1.0730 -1.1406
  203MOL0     H27394   5.491  10.846   8.739 -0.3467  0.7113  1.1352
  203MOL0     H27395   5.449  11.106   8.700 -1.7965  1.9543 -0.5254
  203MOL0     H27396   5.380  11.065   8.858  1.7365  2.3537 -0.6472
  203MOL0     H27397   5.182  11.175   8.771  1.0278  0.1386  0.4658
  203MOL0     H27398   5.167  11.005   8.720 -0.6308 -0.1724 -0.0643
  203MOL0     H27399   5.242  11.050   8.496  0.1577  1.0048 -2.3352
  203MOL0     H27400   5.125  11.161   8.535  1.2459  1.1954 -2.2764
  203MOL0     H27401   5.473  11.405   8.481  0.8492 -0.0878  1.0253
  203MOL0     H27402   5.120  10.667   8.916 -1.5972  3.3424 -1.8979
  203MOL0     H27403   4.921  10.472   8.869  0.2001 -0.6797 -0.7429
  203MOL0     H27404   5.018  10.329   8.920 -0.2302 -1.1855 -0.5566
  203MOL0     H27405   5.041  10.494   8.991 -2.8112  1.7705 -1.1266
  204MOL0     O27406   1.817   8.562   8.275  0.4961  0.5261  0.1056
  204MOL0     C27407   1.706   8.583   8.327 -1.0442  1.0082 -0.3606
  204MOL0     O27408   1.579   8.558   8.271  0.0510 -0.4981  0.1319
  204MOL0     C27409   1.578   8.513   8.147  0.1376  0.2252  0.1798
  204MOL0     C27410   1.551   8.376   8.113 -0.0184 -0.2375  0.3024
  204MOL0     C27411   1.567   8.323   7.982 -0.0816 -0.0060  0.7273
  204MOL0     C27412   1.617   8.406   7.881  0.4413 -0.4542 -0.1195
  204MOL0     O27413   1.634   8.349   7.756  0.4289 -0.1615  0.4877
  204MOL0     C27414   1.713   8.398   7.646 -0.2525  0.2632 -0.7904
  204MOL0     C27415   1.703   8.295   7.540 -0.3484  0.3322 -0.9701
  204MOL0     C27416   1.802   8.331   7.426  0.1274 -0.5440 -0.5652
  204MOL0     C27417   1.776   8.232   7.312  0.2555 -1.0614  0.5524
  204MOL0     C27418   1.676   8.283   7.202  0.5163  0.3874  0.3261
  204MOL0     C27419   1.678   8.176   7.092  0.3809 -0.7232  0.0423
  204MOL0     C27420   1.580   8.182   6.975  0.5639 -0.0555 -0.4212
  204MOL0     C27421   1.609   8.304   6.887 -0.0815 -0.8516 -0.2730
  204MOL0     N27422   1.733   8.297   6.811 -0.1584 -0.5821 -0.0762
  204MOL0     C27423   1.848   8.383   6.824  0.3530  0.1565  0.2411
  204MOL0     C27424   1.937   8.326   6.738 -1.0211 -0.1696 -0.1922
  204MOL0     C27425   2.079   8.368   6.726  0.2871  1.0128 -0.1166
  204MOL0     C27426   2.084   8.506   6.663  0.3070 -0.0688  0.4049
  204MOL0     C27427   2.075   8.630   6.767 -0.2720 -0.2705  0.8303
  204MOL0     C27428   2.095   8.766   6.692 -0.6927 -0.0366  0.5689
  204MOL0     O27429   2.030   8.862   6.766 -1.0229 -0.6180 -0.3174
  204MOL0     C27430   2.102   8.903   6.883 -0.9366 -0.0457 -0.4926
  204MOL0     C27431   2.022   8.935   6.998 -0.2981  0.7509 -0.4594
  204MOL0     C27432   2.086   8.991   7.104 -0.1637  0.9560  0.0068
  204MOL0     C27433   2.222   9.035   7.100  0.5672  0.5400 -0.5329
  204MOL0     C27434   2.266   9.110   7.215  0.3390  0.0051  0.1458
  204MOL0     O27435   2.359   9.216   7.198  0.5004  0.8084  0.0138
  204MOL0     C27436   2.411   9.265   7.313  0.1063  0.5104 -0.0185
  204MOL0     C27437   2.325   9.333   7.406 -0.0304 -0.9120  0.1322
  204MOL0     C27438   2.379   9.389   7.520  0.2314  0.1677 -0.6018
  204MOL0     C27439   2.515   9.410   7.537  0.1378 -0.4229  0.2759
  204MOL0     O27440   2.554   9.474   7.648 -0.2972  0.0411 -0.2289
  204MOL0     C27441   2.690   9.515   7.662  0.5760 -0.1782 -0.3143
  204MOL0     C27442   2.755   9.433   7.777  0.6020  0.9275 -0.2417
  204MOL0     C27443   2.679   9.441   7.912  0.8202 -0.5122 -0.0112
  204MOL0     C27444   2.757   9.358   8.025 -0.1428 -0.0112 -0.4164
  204MOL0     C27445   2.669   9.348   8.158  0.3532  0.1719  0.1631
  204MOL0     C27446   2.717   9.252   8.258 -0.2028  1.1330 -0.2799
  204MOL0     C27447   2.652   9.114   8.247 -0.0796 -0.5255 -0.0650
  204MOL0     C27448   2.709   9.013   8.350  1.2618  0.4388  0.7486
  204MOL0    Cl27449   2.865   8.926   8.314  0.5034  0.2495  0.4256
  204MOL0     C27450   2.594   9.362   7.435 -0.1866  0.5338  0.3359
  204MOL0     C27451   2.550   9.291   7.317 -0.5154 -0.7428 -0.1633
  204MOL0     O27452   2.214   9.079   7.325  0.4127 -0.6174  0.6803
  204MOL0     C27453   2.299   8.998   6.990 -0.0917  0.6136 -0.5100
  204MOL0     C27454   2.237   8.933   6.880  0.9768 -0.0013  0.1239
  204MOL0     N27455   1.896   8.213   6.680 -0.8264  0.6704 -0.2389
  204MOL0     N27456   1.776   8.207   6.714 -0.2464  0.5515  0.0922
  204MOL0     C27457   1.642   8.540   7.909 -1.2508 -0.6218 -0.3091
  204MOL0     C27458   1.620   8.590   8.038 -0.4027 -0.5310 -0.6613
  204MOL0     C27459   1.701   8.631   8.474  0.0370 -0.2418 -0.2389
  204MOL0     C27460   1.576   8.634   8.542  0.3952 -0.0260  0.2088
  204MOL0     C27461   1.569   8.677   8.672  0.6879 -0.3767  0.2382
  204MOL0     C27462   1.682   8.701   8.747 -0.2148  0.5284  0.3279
  204MOL0     O27463   1.653   8.732   8.879  0.3607 -0.3238 -0.4237
  204MOL0     C27464   1.765   8.757   8.961  0.6567 -0.4107  0.0039
  204MOL0     C27465   1.727   8.773   9.107  0.1126 -1.2702 -0.4811
  204MOL0     C27466   1.665   8.910   9.133 -0.7913 -0.4179 -0.1466
  204MOL0     C27467   1.667   8.953   9.281 -0.0933  0.5073  0.0728
  204MOL0     C27468   1.559   8.892   9.373  0.2173  0.4182  0.0209
  204MOL0     C27469   1.479   8.830   9.438  0.5167  0.0675 -0.2191
  204MOL0     C27470   1.808   8.694   8.680  0.3059  0.5490  0.5094
  204MOL0     C27471   1.819   8.665   8.549  0.4215 -0.2485  0.5286
  204MOL0     C27472   1.961   8.658   8.500  0.3726 -0.3501  0.9244
  204MOL0     H27473   1.533   8.310   8.197 -1.8817 -3.7032 -2.5386
  204MOL0     H27474   1.559   8.218   7.954  3.2946  0.4633 -2.9348
  204MOL0     H27475   1.668   8.489   7.606  1.0052  0.7083 -1.2248
  204MOL0     H27476   1.815   8.416   7.681 -0.4228  0.2423 -0.2732
  204MOL0     H27477   1.600   8.290   7.504 -1.8507 -1.9474  3.0117
  204MOL0     H27478   1.734   8.200   7.584  0.6400  0.0988 -2.1046
  204MOL0     H27479   1.898   8.313   7.475 -0.3030  0.8227  0.8466
  204MOL0     H27480   1.792   8.434   7.390  0.2426 -0.2307  0.2893
  204MOL0     H27481   1.868   8.193   7.267  0.6164 -2.6862  2.5171
  204MOL0     H27482   1.742   8.137   7.354  1.8344 -1.6535  0.5734
  204MOL0     H27483   1.580   8.282   7.255  0.0620  0.6028 -0.4794
  204MOL0     H27484   1.686   8.379   7.152  0.8076  0.2189  0.0608
  204MOL0     H27485   1.780   8.181   7.052  1.3389 -3.2237  1.8584
  204MOL0     H27486   1.672   8.074   7.132  2.2178 -0.1600  1.9896
  204MOL0     H27487   1.477   8.183   7.011  0.9053 -0.5419  0.6102
  204MOL0     H27488   1.575   8.098   6.905 -0.9495 -0.1795 -0.2090
  204MOL0     H27489   1.520   8.327   6.828 -0.8124 -0.7406  0.8366
  204MOL0     H27490   1.609   8.394   6.949  0.7136 -0.7528 -0.4051
  204MOL0     H27491   1.873   8.460   6.895  2.6299  0.3079 -0.6272
  204MOL0     H27492   2.118   8.387   6.826  2.1849  2.4863 -1.0809
  204MOL0     H27493   2.131   8.288   6.673  0.9446  1.3366  0.0329
  204MOL0     H27494   2.177   8.508   6.605 -1.2427 -1.0735 -2.3156
  204MOL0     H27495   2.011   8.517   6.582  0.6621  1.1950  0.2405
  204MOL0     H27496   2.152   8.628   6.844  0.1235  0.1375  0.4514
  204MOL0     H27497   1.986   8.618   6.830  1.4531 -4.2627  2.8845
  204MOL0     H27498   2.036   8.774   6.600 -1.0824 -2.6219  0.5258
  204MOL0     H27499   2.201   8.773   6.667 -1.3741 -1.9880 -3.8840
  204MOL0     H27500   1.915   8.919   7.001 -0.1661 -0.0845  1.9777
  204MOL0     H27501   2.024   9.018   7.189 -1.8242  0.3118 -0.9298
  204MOL0     H27502   2.218   9.333   7.388 -0.1615  1.4867  0.5143
  204MOL0     H27503   2.315   9.422   7.601 -2.7827 -0.9122 -2.3508
  204MOL0     H27504   2.742   9.534   7.567 -1.0307  4.8677 -0.4976
  204MOL0     H27505   2.661   9.615   7.697 -0.9005  0.4870 -3.1145
  204MOL0     H27506   2.752   9.333   7.734  3.2389  1.0354 -0.8752
  204MOL0     H27507   2.858   9.468   7.789  0.4853  2.2465 -2.5387
  204MOL0     H27508   2.680   9.546   7.942  0.8070 -0.1077 -1.3582
  204MOL0     H27509   2.576   9.406   7.899 -0.0472  0.6804  2.8207
  204MOL0     H27510   2.856   9.400   8.044 -0.6087  0.7821  0.3312
  204MOL0     H27511   2.771   9.253   7.996 -2.2645  0.0410 -1.8318
  204MOL0     H27512   2.563   9.338   8.132  0.7875  1.7532 -2.6724
  204MOL0     H27513   2.685   9.445   8.206  0.8268  0.8247 -1.2506
  204MOL0     H27514   2.826   9.240   8.246 -0.2095  0.4545  0.2305
  204MOL0     H27515   2.698   9.279   8.362  0.7529 -0.4772  0.3620
  204MOL0     H27516   2.665   9.074   8.145  1.9313  0.4976 -0.2690
  204MOL0     H27517   2.548   9.128   8.277  0.2782 -0.6925  1.2936
  204MOL0     H27518   2.718   9.061   8.448  0.2180  0.9737  0.6000
  204MOL0     H27519   2.627   8.941   8.358  1.5534 -0.1854 -1.3736
  204MOL0     H27520   2.699   9.391   7.431 -0.0015 -0.2439 -2.4259
  204MOL0     H27521   2.619   9.268   7.237  0.1479  1.1526 -0.1816
  204MOL0     H27522   2.401   9.034   6.978 -0.3011  0.8154 -1.7245
  204MOL0     H27523   2.299   8.899   6.798 -0.3345  0.6892 -1.1962
  204MOL0     H27524   1.685   8.612   7.841 -0.9282  1.8745  2.3456
  204MOL0     H27525   1.648   8.692   8.059  0.4652 -0.0383 -3.6475
  204MOL0     H27526   1.491   8.610   8.478  0.5360 -0.9580  0.3536
  204MOL0     H27527   1.466   8.682   8.705  0.3505  1.2544 -0.9455
  204MOL0     H27528   1.817   8.849   8.931  2.0687 -1.9833 -2.8460
  204MOL0     H27529   1.834   8.672   8.951  1.2295 -0.1993  1.8508
  204MOL0     H27530   1.819   8.768   9.166  1.5862  0.1018 -2.5433
  204MOL0     H27531   1.661   8.692   9.138 -0.0392 -0.5077  1.3202
  204MOL0     H27532   1.561   8.896   9.103 -0.5275 -1.1191 -0.7942
  204MOL0     H27533   1.720   8.988   9.079  1.6870 -1.2911  0.9403
  204MOL0     H27534   1.766   8.929   9.320  0.6459 -0.7717 -2.4108
  204MOL0     H27535   1.655   9.061   9.290 -0.8087  0.6223 -1.8395
  204MOL0     H27536   1.406   8.772   9.490  0.0585  0.5207 -0.3500
  204MOL0     H27537   1.893   8.707   8.746 -0.1761 -1.5611  1.6274
  204MOL0     H27538   1.968   8.709   8.404  1.8712 -0.1269  1.1251
  204MOL0     H27539   2.028   8.699   8.576 -1.0716  2.1981  0.9316
  204MOL0     H27540   1.985   8.551   8.495 -0.7338 -0.5705 -0.1447
  205MOL0     O27541   0.270   8.154   2.187  0.4429  0.4116  0.3586
  205MOL0     C27542   0.288   8.269   2.156  1.0805 -0.7153 -0.3899
  205MOL0     O27543   0.250   8.332   2.042  0.0113  0.3244  0.7001
  205MOL0     C27544   0.184   8.258   1.944  0.4282  1.0430  0.4370
  205MOL0     C27545   0.116   8.339   1.852  0.0801  0.5985 -0.0977
  205MOL0     C27546   0.052   8.273   1.749  0.8934 -0.0162  0.5549
  205MOL0     C27547   0.039   8.130   1.732  1.2648  0.3504  0.7183
  205MOL0     O27548  -0.033   8.091   1.619  0.8404  0.5096  1.2496
  205MOL0     C27549  -0.068   7.954   1.591 -0.5824 -0.9219 -0.5007
  205MOL0     C27550  -0.155   7.930   1.473  0.2787  0.3456 -0.1632
  205MOL0     C27551  -0.175   7.782   1.479 -0.0539 -0.1228 -0.3267
  205MOL0     C27552  -0.251   7.727   1.358  0.3580  0.7270  0.8725
  205MOL0     C27553  -0.266   7.584   1.370  0.6182 -0.8735 -0.6696
  205MOL0     C27554  -0.261   7.509   1.243 -0.0295  0.2949  1.0869
  205MOL0     C27555  -0.396   7.519   1.168 -0.7861  0.1209 -1.2481
  205MOL0     C27556  -0.387   7.434   1.037 -0.2733  0.4570 -0.0845
  205MOL0     N27557  -0.525   7.408   0.980  0.0112  0.2028  0.1752
  205MOL0     C27558  -0.631   7.502   0.976 -0.0537 -0.6923 -0.4011
  205MOL0     C27559  -0.737   7.428   0.942 -0.5663 -0.3816 -0.2154
  205MOL0     C27560  -0.871   7.484   0.933  0.5643  0.3795  0.2904
  205MOL0     C27561  -0.900   7.527   0.788  0.1425 -0.0232 -0.3721
  205MOL0     C27562  -0.915   7.400   0.693  0.3069  0.5175  0.0343
  205MOL0     C27563  -1.032   7.304   0.736 -0.7705 -0.0434 -0.8826
  205MOL0     O27564  -1.153   7.374   0.748  0.5124  0.4685  0.1273
  205MOL0     C27565  -1.262   7.315   0.815 -0.3877 -0.0433  0.0584
  205MOL0     C27566  -1.367   7.399   0.840  1.3347  0.0163  0.0560
  205MOL0     C27567  -1.476   7.355   0.912 -0.8574  0.8073 -0.1612
  205MOL0     C27568  -1.478   7.226   0.966  0.5481  0.9558  0.6669
  205MOL0     C27569  -1.598   7.175   1.032  0.0751  0.3973  1.1099
  205MOL0     O27570  -1.564   7.081   1.121 -0.9359  0.8866 -0.1520
  205MOL0     C27571  -1.646   7.035   1.216 -0.4435  0.3079 -0.5794
  205MOL0     C27572  -1.579   6.985   1.329  0.9841  0.3866  0.4687
  205MOL0     C27573  -1.644   6.912   1.425 -0.3148  0.1809  0.3557
  205MOL0     C27574  -1.783   6.916   1.424  0.3411  1.1133  0.2421
  205MOL0     O27575  -1.850   6.868   1.536 -0.4772 -0.2875 -0.8782
  205MOL0     C27576  -1.771   6.844   1.655 -0.6943  0.1323 -0.0589
  205MOL0     C27577  -1.854   6.808   1.777  0.2517  0.0917 -0.6603
  205MOL0     C27578  -1.755   6.819   1.892 -0.8230  1.3513  0.2542
  205MOL0     C27579  -1.816   6.738   2.018 -0.5927  0.2118 -0.1106
  205MOL0     C27580  -1.944   6.803   2.072  0.0329  0.1396 -0.0116
  205MOL0     C27581  -1.917   6.937   2.133  0.8567 -0.3825  0.3158
  205MOL0     C27582  -2.037   7.011   2.176  0.3911 -0.1278 -0.3768
  205MOL0     C27583  -2.006   7.155   2.200  0.0937  0.1062  0.1751
  205MOL0    Cl27584  -1.968   7.251   2.050 -0.7216 -0.1531 -0.2862
  205MOL0     C27585  -1.851   6.968   1.317  0.4359 -0.1678  0.1479
  205MOL0     C27586  -1.787   7.029   1.210 -1.1064 -1.0967 -0.3296
  205MOL0     O27587  -1.708   7.218   1.011  0.6179 -0.8279 -0.4953
  205MOL0     C27588  -1.365   7.141   0.937  1.0690 -0.6275  0.2819
  205MOL0     C27589  -1.251   7.182   0.869 -0.6509 -0.7847  1.2747
  205MOL0     N27590  -0.696   7.295   0.915 -0.7627 -0.2238 -0.8895
  205MOL0     N27591  -0.568   7.285   0.930  0.0009  0.2029  0.4167
  205MOL0     C27592   0.112   8.051   1.822 -0.4321 -0.4870 -0.1818
  205MOL0     C27593   0.182   8.112   1.924  0.2482  0.6832  0.0074
  205MOL0     C27594   0.358   8.350   2.261 -1.3979 -0.0120  0.0558
  205MOL0     C27595   0.388   8.483   2.239 -0.1499  0.3980 -0.3489
  205MOL0     C27596   0.472   8.560   2.323 -0.0729  0.6355 -0.5084
  205MOL0     C27597   0.521   8.512   2.445  0.6358  0.4244 -0.0973
  205MOL0     O27598   0.593   8.592   2.518 -0.5757 -1.0796  0.0044
  205MOL0     C27599   0.678   8.526   2.616  1.5302 -0.0687  0.2593
  205MOL0     C27600   0.615   8.528   2.760  0.0065  0.2853 -0.0441
  205MOL0     C27601   0.699   8.484   2.885 -0.3696 -0.4080  0.2531
  205MOL0     C27602   0.798   8.593   2.922 -0.0079  0.1859  0.4218
  205MOL0     C27603   0.874   8.538   3.027  0.4330  0.8636 -0.5009
  205MOL0     C27604   0.942   8.488   3.114  0.2143 -0.4041  0.0724
  205MOL0     C27605   0.479   8.380   2.476 -0.1715  0.0223 -0.1474
  205MOL0     C27606   0.398   8.299   2.388  0.4177 -0.3603  0.4015
  205MOL0     C27607   0.358   8.166   2.446 -0.6392  0.6911 -0.2852
  205MOL0     H27608   0.123   8.444   1.877 -4.1441  0.2383  3.9486
  205MOL0     H27609  -0.007   8.340   1.687 -1.5315 -1.5119  1.0735
  205MOL0     H27610   0.025   7.897   1.582  1.6936  2.4221 -0.1837
  205MOL0     H27611  -0.114   7.918   1.683  2.1435  1.1578  1.8568
  205MOL0     H27612  -0.104   7.968   1.385 -0.2696  0.4349 -0.4473
  205MOL0     H27613  -0.251   7.981   1.458 -0.8107 -1.5907 -0.2058
  205MOL0     H27614  -0.223   7.749   1.571  0.5022 -1.1858 -0.4035
  205MOL0     H27615  -0.076   7.736   1.485  0.1620  0.2409 -0.9104
  205MOL0     H27616  -0.348   7.778   1.349 -0.2037 -0.6486 -2.0021
  205MOL0     H27617  -0.201   7.750   1.263 -1.7519  1.3881 -0.1548
  205MOL0     H27618  -0.196   7.529   1.434 -0.9255 -2.0141  0.0946
  205MOL0     H27619  -0.357   7.573   1.429  0.5597  0.4409 -0.4976
  205MOL0     H27620  -0.184   7.553   1.179 -0.0229 -1.9277 -0.5491
  205MOL0     H27621  -0.241   7.403   1.258  1.1905  0.1027 -1.4883
  205MOL0     H27622  -0.420   7.623   1.145  1.9272  0.4375 -3.0617
  205MOL0     H27623  -0.477   7.467   1.221  0.1510 -0.9212 -0.8093
  205MOL0     H27624  -0.315   7.477   0.966  2.2359 -1.9973  0.8099
  205MOL0     H27625  -0.339   7.340   1.066  0.3471  1.9045  4.5542
  205MOL0     H27626  -0.627   7.605   1.009  2.7249 -2.0126  4.5052
  205MOL0     H27627  -0.942   7.413   0.978 -0.3318  1.8069  1.2160
  205MOL0     H27628  -0.882   7.579   0.987 -1.3557 -0.8615  2.2785
  205MOL0     H27629  -0.990   7.587   0.773 -1.0273 -1.4578  0.6556
  205MOL0     H27630  -0.818   7.580   0.738 -0.5007  1.4084  0.0576
  205MOL0     H27631  -0.821   7.348   0.678 -0.2267 -0.4547 -0.0207
  205MOL0     H27632  -0.947   7.449   0.601  0.1007 -2.5874 -1.6980
  205MOL0     H27633  -0.996   7.267   0.833  2.3783  0.1219 -1.8898
  205MOL0     H27634  -1.061   7.227   0.665  1.8534 -0.5949 -1.4552
  205MOL0     H27635  -1.352   7.492   0.786 -1.5279  0.5668  0.0362
  205MOL0     H27636  -1.568   7.414   0.907 -1.0050  0.4820 -2.3970
  205MOL0     H27637  -1.471   6.985   1.341  1.1472 -0.8911 -0.6655
  205MOL0     H27638  -1.584   6.860   1.499 -1.8445 -0.6162  1.0907
  205MOL0     H27639  -1.701   6.760   1.646  0.2434  0.9198 -0.2942
  205MOL0     H27640  -1.724   6.942   1.667  1.3180 -0.6736 -1.0304
  205MOL0     H27641  -1.935   6.881   1.781 -0.0865  0.3542 -5.7927
  205MOL0     H27642  -1.900   6.709   1.770  1.9732 -0.7508 -0.6962
  205MOL0     H27643  -1.665   6.773   1.850 -2.2875  0.8635 -2.5178
  205MOL0     H27644  -1.732   6.924   1.913  1.4035  0.8862  0.4441
  205MOL0     H27645  -1.746   6.761   2.098 -0.5296  3.9688 -1.0445
  205MOL0     H27646  -1.813   6.630   1.999  0.9140  0.2784 -0.3659
  205MOL0     H27647  -1.992   6.739   2.146  0.9303 -0.1809  0.2932
  205MOL0     H27648  -2.024   6.821   1.999 -0.2037  0.6684  0.3678
  205MOL0     H27649  -1.857   6.917   2.222 -0.1996 -0.1508  1.1005
  205MOL0     H27650  -1.856   6.999   2.066  2.7783 -2.1888  0.2790
  205MOL0     H27651  -2.069   6.957   2.265 -0.0735 -3.2349 -2.2603
  205MOL0     H27652  -2.114   7.002   2.099 -2.9158 -0.5792  2.7349
  205MOL0     H27653  -2.093   7.203   2.246 -0.3012 -0.8630  0.4463
  205MOL0     H27654  -1.921   7.146   2.269 -0.4683 -0.8183  0.7607
  205MOL0     H27655  -1.959   6.969   1.318  0.3866 -0.1517 -1.6323
  205MOL0     H27656  -1.844   7.063   1.124  1.8882  3.0812 -0.9655
  205MOL0     H27657  -1.371   7.040   0.977 -0.5019 -1.4690 -1.8582
  205MOL0     H27658  -1.171   7.114   0.845  0.4014  0.2616  1.7239
  205MOL0     H27659   0.125   7.944   1.811  4.1236  0.0208 -2.0413
  205MOL0     H27660   0.229   8.044   1.993 -0.5549 -0.3815 -0.4744
  205MOL0     H27661   0.376   8.531   2.142  2.2555  0.5778 -0.6258
  205MOL0     H27662   0.516   8.654   2.293 -1.5059  1.2811 -0.7142
  205MOL0     H27663   0.770   8.586   2.619  2.1571 -1.0570  1.3742
  205MOL0     H27664   0.717   8.427   2.591  3.1956 -0.1068  2.6452
  205MOL0     H27665   0.536   8.455   2.742  0.0531  0.8515 -2.9796
  205MOL0     H27666   0.566   8.625   2.777  1.4315  0.8313  1.1930
  205MOL0     H27667   0.742   8.386   2.864 -2.7180 -1.8264  1.6662
  205MOL0     H27668   0.632   8.477   2.971 -1.5550 -1.7112 -0.7387
  205MOL0     H27669   0.862   8.626   2.840 -0.1716  1.5206  0.7978
  205MOL0     H27670   0.741   8.676   2.966 -2.8639 -0.4260 -1.8382
  205MOL0     H27671   0.978   8.438   3.201 -1.4062 -0.3177  0.8241
  205MOL0     H27672   0.509   8.346   2.575 -1.2198 -0.7636 -0.0857
  205MOL0     H27673   0.251   8.166   2.469 -0.7491  3.4130 -0.3887
  205MOL0     H27674   0.401   8.088   2.383 -0.9659  1.2422 -1.2148
  205MOL0     H27675   0.407   8.164   2.543  0.0228 -2.6686 -0.5963
  206MOL0     O27676   6.800   2.949   4.081  0.7921 -0.8407 -0.1050
  206MOL0     C27677   6.902   3.008   4.112  0.5627  0.3817  0.3453
  206MOL0     O27678   7.004   3.030   4.024  0.0972 -0.3594 -0.0953
  206MOL0     C27679   6.981   3.025   3.886  0.5158  0.1956 -0.5486
  206MOL0     C27680   7.080   2.971   3.803  0.4520 -0.5633 -0.3082
  206MOL0     C27681   7.057   2.961   3.661  0.2160 -0.7863  0.3520
  206MOL0     C27682   6.938   3.016   3.599 -0.4383 -0.5860  0.6704
  206MOL0     O27683   6.912   3.005   3.463 -0.2030  0.2200  0.2071
  206MOL0     C27684   6.860   3.123   3.392  0.0958  0.1315  0.3203
  206MOL0     C27685   6.934   3.120   3.253 -0.7328  0.5426  0.2867
  206MOL0     C27686   6.896   2.993   3.161 -1.2400 -1.1216  0.6511
  206MOL0     C27687   7.028   2.923   3.134  0.4376  0.0297 -0.4863
  206MOL0     C27688   7.029   2.864   2.996  0.0799 -0.5039  0.4475
  206MOL0     C27689   7.073   2.979   2.896  0.2655  0.4286 -0.1083
  206MOL0     C27690   7.109   2.919   2.754 -0.0867 -0.0934 -0.3970
  206MOL0     C27691   7.256   2.898   2.731  0.1913  1.0742 -0.4928
  206MOL0     N27692   7.307   2.772   2.797  0.0915  0.0334  0.6480
  206MOL0     C27693   7.255   2.646   2.786 -0.3208  0.7284 -0.9709
  206MOL0     C27694   7.308   2.568   2.882 -0.2836  0.6546 -0.7805
  206MOL0     C27695   7.236   2.442   2.919 -0.4915 -0.9605  0.4881
  206MOL0     C27696   7.333   2.330   2.945 -0.7590 -0.3073 -0.4223
  206MOL0     C27697   7.385   2.256   2.820 -0.5015  0.7738 -0.2331
  206MOL0     C27698   7.270   2.186   2.740 -0.2045 -0.3674  0.2750
  206MOL0     O27699   7.323   2.097   2.640  0.4979 -0.6012  0.7507
  206MOL0     C27700   7.245   2.018   2.570 -0.6095 -0.2097  0.2712
  206MOL0     C27701   7.107   2.001   2.598 -0.8684  0.6935 -0.1153
  206MOL0     C27702   7.040   1.911   2.526  0.3628  0.7468  0.1397
  206MOL0     C27703   7.087   1.835   2.414 -0.5291 -1.2772  0.5113
  206MOL0     C27704   7.010   1.739   2.333  0.2519 -0.0291  0.4722
  206MOL0     O27705   7.067   1.664   2.227 -0.0651 -0.3628  0.4537
  206MOL0     C27706   6.981   1.594   2.154  0.8969 -0.3781  0.5689
  206MOL0     C27707   6.870   1.641   2.076 -0.2214  0.3702  0.2123
  206MOL0     C27708   6.800   1.553   1.981 -0.4750 -0.0967 -1.7931
  206MOL0     C27709   6.830   1.415   1.981 -0.2873  0.1012 -0.2102
  206MOL0     O27710   6.758   1.317   1.922  0.6826 -0.5543  0.1996
  206MOL0     C27711   6.677   1.357   1.804  0.3572  0.2184  0.8365
  206MOL0     C27712   6.639   1.249   1.702 -0.1152  0.7268  0.1276
  206MOL0     C27713   6.755   1.176   1.642 -0.1828 -0.3362  1.2498
  206MOL0     C27714   6.725   1.047   1.563  0.2935  0.0764  0.2763
  206MOL0     C27715   6.630   1.065   1.446 -0.2269  0.2552 -0.0440
  206MOL0     C27716   6.665   1.177   1.341  0.6342  0.6479  0.2615
  206MOL0     C27717   6.767   1.122   1.239 -0.3756 -0.4891 -0.0882
  206MOL0     C27718   6.862   1.234   1.197  0.4613  0.2516 -0.0427
  206MOL0    Cl27719   6.973   1.190   1.066  0.5626 -0.5427 -0.0218
  206MOL0     C27720   6.944   1.367   2.057 -0.0702  0.3040 -0.5562
  206MOL0     C27721   7.010   1.453   2.136  0.5563  0.7103  0.3169
  206MOL0     O27722   6.888   1.733   2.366 -0.6315 -0.5412  0.8718
  206MOL0     C27723   7.223   1.854   2.397  0.1030  0.2097  0.0717
  206MOL0     C27724   7.304   1.942   2.472  0.5174 -0.6240  0.1085
  206MOL0     N27725   7.397   2.649   2.960 -0.6766 -1.1937  0.3259
  206MOL0     N27726   7.394   2.768   2.903 -0.1655  0.4407  0.5392
  206MOL0     C27727   6.842   3.064   3.688  0.7865  0.0870  0.9035
  206MOL0     C27728   6.857   3.058   3.833 -1.3809 -0.9891  0.3206
  206MOL0     C27729   6.920   3.019   4.250 -0.4604 -0.1161 -0.1105
  206MOL0     C27730   6.823   2.977   4.340  0.6532  0.4215  0.3336
  206MOL0     C27731   6.822   3.009   4.476 -0.1641 -0.0216 -0.5255
  206MOL0     C27732   6.918   3.106   4.521 -0.8125 -0.2216 -0.2181
  206MOL0     O27733   6.935   3.152   4.652 -0.2289 -0.1930 -0.5880
  206MOL0     C27734   6.826   3.178   4.735  0.3619 -0.7526 -0.0138
  206MOL0     C27735   6.864   3.246   4.871 -0.2195  0.3771 -0.1387
  206MOL0     C27736   6.983   3.186   4.930 -0.3945  0.9253 -0.3692
  206MOL0     C27737   6.986   3.032   4.945  0.0416  0.1330  0.3249
  206MOL0     C27738   7.115   2.989   5.006  0.4536 -0.2028  0.4134
  206MOL0     C27739   7.218   2.939   5.038  0.1277 -0.3987  0.2087
  206MOL0     C27740   7.017   3.151   4.428 -0.2325  0.0931 -0.1099
  206MOL0     C27741   7.017   3.110   4.295  0.1995  0.1348 -0.3726
  206MOL0     C27742   7.127   3.177   4.217 -0.1893 -0.7221  0.4283
  206MOL0     H27743   7.168   2.937   3.857 -0.0258  0.3440  1.1096
  206MOL0     H27744   7.121   2.891   3.607  1.0134 -0.9749  1.4978
  206MOL0     H27745   6.752   3.116   3.377  0.5779 -1.9802 -3.6885
  206MOL0     H27746   6.879   3.208   3.458 -0.9624 -0.2364  1.1258
  206MOL0     H27747   7.042   3.124   3.271 -0.9211  4.1266  1.5029
  206MOL0     H27748   6.910   3.210   3.196  4.1257  1.1722 -1.2288
  206MOL0     H27749   6.860   3.026   3.064  1.8920  1.0353  0.0709
  206MOL0     H27750   6.822   2.919   3.193 -2.0372 -0.7554 -0.3083
  206MOL0     H27751   7.114   2.990   3.140 -0.6643  1.3811  1.2727
  206MOL0     H27752   7.046   2.844   3.207  2.9836 -0.7981 -1.8684
  206MOL0     H27753   7.103   2.783   3.008  1.8419  1.0621  0.7069
  206MOL0     H27754   6.931   2.824   2.968 -1.4264  0.6393  3.6206
  206MOL0     H27755   6.988   3.047   2.886 -1.5840 -1.9526 -1.4743
  206MOL0     H27756   7.163   3.033   2.929  1.8969 -1.0354 -1.8910
  206MOL0     H27757   7.061   2.979   2.677  2.4674  4.4257  1.1854
  206MOL0     H27758   7.045   2.831   2.739  0.0537 -0.1807 -0.4900
  206MOL0     H27759   7.276   2.888   2.624 -0.1366  2.1860 -0.6739
  206MOL0     H27760   7.315   2.986   2.761  0.3826  0.3497  1.3784
  206MOL0     H27761   7.181   2.606   2.718 -0.6924 -0.4361  0.0872
  206MOL0     H27762   7.190   2.464   3.015 -2.1170  0.2063 -0.5093
  206MOL0     H27763   7.158   2.426   2.845 -0.4886  1.4935 -0.1496
  206MOL0     H27764   7.412   2.372   3.008 -2.7838  3.3044 -0.0074
  206MOL0     H27765   7.279   2.257   3.006  0.1580  1.1177  2.2915
  206MOL0     H27766   7.447   2.171   2.851 -1.9669 -0.5862 -0.8793
  206MOL0     H27767   7.452   2.312   2.755 -0.8199 -1.2940 -2.4789
  206MOL0     H27768   7.205   2.255   2.686 -0.8186 -1.7589 -0.8663
  206MOL0     H27769   7.207   2.132   2.811  0.4555 -1.5499  0.0021
  206MOL0     H27770   7.067   2.054   2.684 -0.4565 -1.2838  1.3888
  206MOL0     H27771   6.938   1.914   2.563 -0.4270  0.8899 -1.8863
  206MOL0     H27772   6.848   1.747   2.075 -0.0314  0.4037 -0.1339
  206MOL0     H27773   6.726   1.600   1.917 -1.7523 -0.1035 -0.3736
  206MOL0     H27774   6.582   1.393   1.843 -1.5335 -3.0099 -0.4172
  206MOL0     H27775   6.739   1.431   1.752  1.3333 -0.1989  1.3544
  206MOL0     H27776   6.575   1.176   1.753  0.4754  0.9038  1.1430
  206MOL0     H27777   6.574   1.289   1.624  0.6877  3.2071  0.6588
  206MOL0     H27778   6.805   1.248   1.577 -0.9505 -1.3200 -0.5010
  206MOL0     H27779   6.831   1.148   1.715  0.1338  2.0926  1.9455
  206MOL0     H27780   6.677   0.972   1.626  0.5874 -0.7221 -0.4219
  206MOL0     H27781   6.824   1.008   1.534  0.9865  2.1532 -0.3584
  206MOL0     H27782   6.529   1.072   1.489 -0.3102 -1.4882  0.1058
  206MOL0     H27783   6.634   0.971   1.391  1.1919  0.4177 -0.2371
  206MOL0     H27784   6.569   1.207   1.296  0.4388  2.3577  1.6803
  206MOL0     H27785   6.709   1.268   1.383  0.7677  0.8491 -0.3047
  206MOL0     H27786   6.722   1.074   1.152  0.5527  2.0014 -2.0510
  206MOL0     H27787   6.830   1.042   1.279 -0.3283  0.6178  2.2058
  206MOL0     H27788   6.801   1.316   1.157  2.0856 -0.2577 -4.0370
  206MOL0     H27789   6.921   1.261   1.284 -4.7287 -0.0257  4.0951
  206MOL0     H27790   6.968   1.262   2.066 -1.4832 -0.0265 -0.3779
  206MOL0     H27791   7.097   1.432   2.196  2.1630  0.4234 -1.9621
  206MOL0     H27792   7.262   1.790   2.319  0.3414  2.5362 -1.8091
  206MOL0     H27793   7.405   1.975   2.450  1.0469 -0.5154  2.4430
  206MOL0     H27794   6.746   3.094   3.646  2.3185  1.7684 -1.6755
  206MOL0     H27795   6.775   3.084   3.899 -1.3922  3.9449 -1.2089
  206MOL0     H27796   6.745   2.912   4.301  1.1112  1.3564 -2.3377
  206MOL0     H27797   6.735   2.978   4.532 -0.6037 -0.5252 -1.4485
  206MOL0     H27798   6.779   3.083   4.761  0.7604 -0.9362  0.0365
  206MOL0     H27799   6.748   3.232   4.681 -0.5559  1.3346  3.1215
  206MOL0     H27800   6.788   3.244   4.949  0.1770  0.1588  0.2481
  206MOL0     H27801   6.883   3.351   4.847  2.2040 -0.3050 -1.6296
  206MOL0     H27802   7.006   3.220   5.032  1.0244  2.0633 -1.0386
  206MOL0     H27803   7.065   3.227   4.872 -0.6821  0.3423 -1.2032
  206MOL0     H27804   6.912   2.982   5.008  0.8864 -3.2154 -1.0867
  206MOL0     H27805   6.986   2.985   4.846  2.3092  0.5218  0.0830
  206MOL0     H27806   7.307   2.880   5.045  0.5596  0.1855 -0.2617
  206MOL0     H27807   7.089   3.226   4.459 -1.0338 -0.1688  2.5976
  206MOL0     H27808   7.183   3.094   4.173  0.6927 -0.7229  1.5263
  206MOL0     H27809   7.088   3.240   4.136 -1.5444  2.0080  3.0080
  206MOL0     H27810   7.213   3.225   4.263  0.7958  0.9988 -2.9327
  207MOL0     O27811   1.216  11.056  10.961 -0.5629 -0.4471  0.3546
  207MOL0     C27812   1.134  11.017  11.040  0.4225  0.2778  0.7031
  207MOL0     O27813   1.099  11.088  11.151  0.4071  0.2961 -0.5756
  207MOL0     C27814   1.153  11.205  11.189 -0.3931  0.2782 -0.0206
  207MOL0     C27815   1.241  11.203  11.295 -0.2978  0.0241  0.1572
  207MOL0     C27816   1.307  11.318  11.331 -0.5798  0.2987 -0.5449
  207MOL0     C27817   1.273  11.443  11.266 -0.2364 -0.1314  0.3944
  207MOL0     O27818   1.335  11.562  11.293 -0.3829  0.0787 -0.4813
  207MOL0     C27819   1.421  11.570  11.405 -0.4881  0.6998 -0.1940
  207MOL0     C27820   1.437  11.717  11.455  0.3454  0.4641  0.3127
  207MOL0     C27821   1.305  11.767  11.505  1.1022 -0.4072 -0.2030
  207MOL0     C27822   1.333  11.868  11.619  0.5086  0.3538  0.5863
  207MOL0     C27823   1.195  11.886  11.686 -0.4875 -0.5649 -0.6181
  207MOL0     C27824   1.202  12.027  11.763  0.6975  0.8744 -0.6789
  207MOL0     C27825   1.066  12.072  11.803 -0.5930  0.2099  0.3097
  207MOL0     C27826   1.043  12.035  11.949  0.0854 -0.4493 -0.5788
  207MOL0     N27827   0.915  12.105  11.979 -0.6865 -1.0960  1.0904
  207MOL0     C27828   0.916  12.222  12.053  0.7947  0.8676  0.0310
  207MOL0     C27829   0.783  12.237  12.070 -0.2991 -1.1336  0.7577
  207MOL0     C27830   0.712  12.350  12.138 -0.1672  0.3641  0.4988
  207MOL0     C27831   0.695  12.471  12.055 -0.2678  0.3948  0.5652
  207MOL0     C27832   0.812  12.571  12.057  0.7000 -0.1376  0.5551
  207MOL0     C27833   0.785  12.682  11.952  0.6800  0.1951 -0.0477
  207MOL0     O27834   0.916  12.696  11.885 -0.5947  0.5622  0.6404
  207MOL0     C27835   0.952  12.618  11.773 -0.1837 -0.5705  0.6362
  207MOL0     C27836   1.070  12.656  11.716 -0.5130 -0.5169 -0.7718
  207MOL0     C27837   1.122  12.577  11.611  0.1665  0.5032  0.3216
  207MOL0     C27838   1.057  12.459  11.566  0.3655 -0.6389  0.7088
  207MOL0     C27839   1.111  12.356  11.475 -0.8081 -0.1916 -0.4151
  207MOL0     O27840   1.229  12.388  11.414 -0.2255 -0.1273 -0.0455
  207MOL0     C27841   1.268  12.296  11.317  0.0982 -0.0176 -0.7845
  207MOL0     C27842   1.263  12.323  11.188  0.1613  0.0373 -0.9303
  207MOL0     C27843   1.306  12.232  11.091  0.8846  0.1398  1.0829
  207MOL0     C27844   1.342  12.103  11.121  0.1898 -0.0678  0.5054
  207MOL0     O27845   1.359  12.008  11.026  0.0008  0.3597 -0.2510
  207MOL0     C27846   1.309  11.878  11.048  1.2242  1.5330  0.0393
  207MOL0     C27847   1.302  11.805  10.906 -0.3530 -0.4845  0.0741
  207MOL0     C27848   1.236  11.890  10.795  0.5614 -0.0624  1.2770
  207MOL0     C27849   1.094  11.933  10.847 -0.8021  0.5118 -0.2828
  207MOL0     C27850   1.009  12.009  10.751  0.6913  0.0877  0.2352
  207MOL0     C27851   1.031  12.165  10.738  0.4652  0.4413  0.3006
  207MOL0     C27852   0.973  12.231  10.602  0.4885 -0.7301  0.8036
  207MOL0     C27853   0.827  12.208  10.565 -0.0310  0.0438 -0.1284
  207MOL0    Cl27854   0.788  12.042  10.517 -0.0550  0.3485  0.1024
  207MOL0     C27855   1.348  12.066  11.254  0.0211  0.1012 -0.8836
  207MOL0     C27856   1.312  12.166  11.349  0.2850  0.1163 -0.1627
  207MOL0     O27857   1.039  12.261  11.454 -0.1741  0.0970  1.0356
  207MOL0     C27858   0.932  12.437  11.627 -0.3534  0.4196 -0.3363
  207MOL0     C27859   0.880  12.509  11.725 -0.6610 -0.3010 -0.5054
  207MOL0     N27860   0.708  12.129  12.019 -0.1613 -0.6035  0.6230
  207MOL0     N27861   0.793  12.054  11.956  0.6636 -0.3949 -1.3001
  207MOL0     C27862   1.177  11.452  11.167  0.5441 -1.2545  0.4013
  207MOL0     C27863   1.109  11.329  11.138 -0.0894  0.4774  0.3285
  207MOL0     C27864   1.062  10.883  11.033  0.2088  0.5743 -1.3481
  207MOL0     C27865   0.977  10.842  11.143 -0.6200  0.4816  0.3504
  207MOL0     C27866   0.906  10.731  11.140  0.7420 -0.1617  0.4282
  207MOL0     C27867   0.937  10.626  11.051  0.5231  0.0234  0.5396
  207MOL0     O27868   0.893  10.496  11.061  0.0571  0.0850  0.2655
  207MOL0     C27869   0.946  10.430  11.186 -0.3447  0.3913  0.8883
  207MOL0     C27870   0.902  10.283  11.189  0.6328 -0.1848 -0.5605
  207MOL0     C27871   0.975  10.197  11.093  0.7639  0.3881  0.3470
  207MOL0     C27872   0.892  10.082  11.027  0.3954  0.4864 -0.2971
  207MOL0     C27873   0.955  10.025  10.912  0.7061 -0.3502  0.2942
  207MOL0     C27874   1.024   9.960  10.839  0.0899  1.0381  0.2703
  207MOL0     C27875   1.020  10.656  10.946 -0.6996 -0.0150  0.4711
  207MOL0     C27876   1.089  10.782  10.937  1.2867 -0.1514  0.1861
  207MOL0     C27877   1.176  10.804  10.814 -0.4842 -0.3464 -0.5340
  207MOL0     H27878   1.271  11.114  11.349 -1.2186  0.9559  2.3261
  207MOL0     H27879   1.381  11.311  11.410 -0.3624  3.7924 -0.2561
  207MOL0     H27880   1.400  11.505  11.491  1.1144  0.3581 -0.0182
  207MOL0     H27881   1.517  11.524  11.378 -2.1344 -2.5977 -0.9338
  207MOL0     H27882   1.474  11.784  11.377 -3.8311  1.2352 -1.2409
  207MOL0     H27883   1.501  11.709  11.543 -0.0569  1.3976  0.6927
  207MOL0     H27884   1.242  11.689  11.548 -0.4169  1.0423  0.2946
  207MOL0     H27885   1.241  11.807  11.426 -0.7079 -2.4289  0.1524
  207MOL0     H27886   1.403  11.809  11.680 -1.2699 -2.8876 -0.2773
  207MOL0     H27887   1.379  11.961  11.585 -0.3340  0.0390 -1.5729
  207MOL0     H27888   1.123  11.900  11.605 -2.0280  0.4219  0.8327
  207MOL0     H27889   1.175  11.799  11.749  0.0253 -0.7685 -0.7347
  207MOL0     H27890   1.258  12.016  11.857 -0.9299  0.4599  0.2715
  207MOL0     H27891   1.253  12.094  11.694 -0.9889  1.9839 -0.8963
  207MOL0     H27892   0.998  12.037  11.725  1.0639 -4.0876  0.5086
  207MOL0     H27893   1.069  12.181  11.811 -0.3372  0.3667 -1.5113
  207MOL0     H27894   1.043  11.926  11.961  0.8977 -0.3076  0.8900
  207MOL0     H27895   1.125  12.077  12.008  1.0153 -0.8354 -1.5630
  207MOL0     H27896   1.003  12.273  12.091  0.0380  2.7027 -0.5527
  207MOL0     H27897   0.613  12.306  12.153  0.4253 -0.2022  3.3289
  207MOL0     H27898   0.758  12.378  12.233 -1.1920  3.6061  0.1699
  207MOL0     H27899   0.660  12.434  11.958 -1.6160  2.8295  0.0545
  207MOL0     H27900   0.604  12.512  12.099 -0.9858  0.0459 -0.5470
  207MOL0     H27901   0.905  12.515  12.042  0.7490  0.3399 -1.0774
  207MOL0     H27902   0.825  12.611  12.158  0.9206 -1.0817  0.9193
  207MOL0     H27903   0.758  12.778  11.997  0.1029  0.0684 -0.1060
  207MOL0     H27904   0.709  12.671  11.873  0.6759 -1.3048  0.1419
  207MOL0     H27905   1.135  12.739  11.741 -1.2969  0.1848 -1.0229
  207MOL0     H27906   1.221  12.600  11.573 -1.3775  0.7357 -4.1879
  207MOL0     H27907   1.218  12.418  11.160 -2.9321 -0.8596  0.5716
  207MOL0     H27908   1.303  12.256  10.985 -0.8487 -1.1704  0.7969
  207MOL0     H27909   1.379  11.826  11.115  1.0329  2.5384  1.0430
  207MOL0     H27910   1.214  11.874  11.101  0.6520 -4.2813 -0.7395
  207MOL0     H27911   1.403  11.778  10.876  0.6268  1.0001  1.8397
  207MOL0     H27912   1.234  11.720  10.917 -2.7915  1.5066  1.5086
  207MOL0     H27913   1.305  11.964  10.754  1.4293 -1.4119  0.2036
  207MOL0     H27914   1.219  11.816  10.717  2.1769 -0.4209  1.2241
  207MOL0     H27915   1.098  11.974  10.948 -1.3655  1.0094 -0.4568
  207MOL0     H27916   1.052  11.832  10.853  4.4531 -2.2136 -2.8066
  207MOL0     H27917   0.902  11.994  10.768  0.2898 -2.5798 -3.5466
  207MOL0     H27918   1.019  11.967  10.651 -2.5458 -1.0187  0.2356
  207MOL0     H27919   0.973  12.205  10.822 -1.4258 -1.1900 -0.1487
  207MOL0     H27920   1.137  12.188  10.746  0.0956  3.5703 -2.0177
  207MOL0     H27921   1.036  12.199  10.518 -0.2386  0.8255 -0.3786
  207MOL0     H27922   0.974  12.339  10.618 -0.5718 -0.0671 -2.7268
  207MOL0     H27923   0.757  12.243  10.642 -5.6444  0.9434 -4.9432
  207MOL0     H27924   0.806  12.280  10.486  1.4284  0.9648  0.2786
  207MOL0     H27925   1.367  11.966  11.290 -0.2489  0.0124 -0.9872
  207MOL0     H27926   1.308  12.126  11.450  0.1937 -0.0639 -0.2370
  207MOL0     H27927   0.872  12.350  11.602 -0.1903  1.1043 -3.4429
  207MOL0     H27928   0.779  12.486  11.758 -1.0316  1.4224 -0.3461
  207MOL0     H27929   1.149  11.552  11.136 -0.3079 -0.1903  4.2042
  207MOL0     H27930   1.030  11.309  11.066  1.3012 -1.2274 -0.8181
  207MOL0     H27931   0.964  10.901  11.233 -0.6929  3.3861 -1.4265
  207MOL0     H27932   0.844  10.708  11.227  0.4703  3.2983  1.3140
  207MOL0     H27933   0.917  10.487  11.274  0.1297  0.4521  1.0086
  207MOL0     H27934   1.054  10.425  11.172 -0.5455  2.7892 -2.8617
  207MOL0     H27935   0.792  10.277  11.188  0.5914  0.4710 -0.1383
  207MOL0     H27936   0.926  10.254  11.291 -2.7080  3.3133  1.5014
  207MOL0     H27937   1.056  10.155  11.153 -2.1288 -0.5999  3.9593
  207MOL0     H27938   1.000  10.266  11.012 -1.7764 -1.2446 -2.0087
  207MOL0     H27939   0.857  10.002  11.094 -0.6543  2.2309  1.3343
  207MOL0     H27940   0.793  10.123  11.004  1.2049  3.4025  0.9928
  207MOL0     H27941   1.083   9.896  10.776 -0.3121 -1.0611  1.8981
  207MOL0     H27942   1.036  10.570  10.882 -0.4433  0.1381  0.3254
  207MOL0     H27943   1.152  10.728  10.739  2.1811  0.2937 -2.1683
  207MOL0     H27944   1.143  10.905  10.785  0.6779 -0.3752 -2.0386
  207MOL0     H27945   1.283  10.820  10.829 -0.6067  0.6113 -0.5669
  208MOL0     O27946  10.920   3.015   7.699  0.3947 -0.0458  0.1346
  208MOL0     C27947  10.911   3.079   7.804  0.7918 -0.7704 -0.2229
  208MOL0     O27948  10.867   3.208   7.811  0.3377  1.2609  0.0539
  208MOL0     C27949  10.805   3.269   7.706  0.5464  0.0338  0.7488
  208MOL0     C27950  10.691   3.210   7.640  0.5289  0.4457 -0.4397
  208MOL0     C27951  10.618   3.279   7.538 -0.2650 -0.4310 -0.1296
  208MOL0     C27952  10.652   3.416   7.520  0.8276  0.3499  0.1966
  208MOL0     O27953  10.591   3.489   7.423 -1.0312  0.2042 -0.3961
  208MOL0     C27954  10.479   3.556   7.479  0.3624 -0.0144 -0.4279
  208MOL0     C27955  10.403   3.632   7.370 -0.9134  0.5874 -0.0090
  208MOL0     C27956  10.322   3.540   7.274 -0.6053 -0.6908  0.5526
  208MOL0     C27957  10.200   3.480   7.346  0.6893 -0.2991  0.9560
  208MOL0     C27958  10.114   3.407   7.248 -0.6921 -0.5851 -1.1426
  208MOL0     C27959   9.986   3.350   7.303  0.5649 -0.8257  0.5671
  208MOL0     C27960   9.915   3.270   7.192  0.7106  0.1880 -0.0417
  208MOL0     C27961  10.003   3.170   7.117 -0.3245  0.1984  0.5127
  208MOL0     N27962   9.922   3.069   7.044 -0.2485 -0.6272 -1.6779
  208MOL0     C27963   9.835   3.094   6.950 -0.0633  0.4079  1.0450
  208MOL0     C27964   9.761   2.985   6.936  0.6485 -0.9584  0.1329
  208MOL0     C27965   9.660   2.959   6.828 -0.4005 -0.1153  1.3249
  208MOL0     C27966   9.722   2.897   6.707 -0.9740 -0.5114  0.9214
  208MOL0     C27967   9.644   2.938   6.572 -0.5827  0.0139 -0.1508
  208MOL0     C27968   9.540   2.833   6.541 -0.3639 -0.5125 -0.7308
  208MOL0     O27969   9.593   2.719   6.483 -0.4216 -0.4073 -1.0601
  208MOL0     C27970   9.512   2.606   6.484 -0.5955  0.1236 -0.0140
  208MOL0     C27971   9.565   2.498   6.404 -0.2072 -1.2151 -0.4842
  208MOL0     C27972   9.486   2.381   6.387 -0.5028 -0.2597  0.4663
  208MOL0     C27973   9.375   2.360   6.457  0.5259 -0.0718 -0.3752
  208MOL0     C27974   9.301   2.235   6.449  0.8547  0.2798  0.4964
  208MOL0     O27975   9.186   2.226   6.527  0.5261  0.0413 -0.7510
  208MOL0     C27976   9.076   2.144   6.510  0.3028 -0.4411 -0.3644
  208MOL0     C27977   8.964   2.173   6.591 -0.5008 -0.3758 -0.2685
  208MOL0     C27978   8.848   2.100   6.584 -0.6856  0.0887  0.5595
  208MOL0     C27979   8.835   1.985   6.504 -0.9426  0.2897  0.1348
  208MOL0     O27980   8.708   1.943   6.496  0.2127  0.9812 -0.4358
  208MOL0     C27981   8.687   1.807   6.464 -0.0998 -0.6990  0.1312
  208MOL0     C27982   8.543   1.760   6.503  0.3265 -0.5026  0.1333
  208MOL0     C27983   8.485   1.841   6.621 -0.6166 -0.2832 -0.1106
  208MOL0     C27984   8.410   1.968   6.586 -0.7781  0.0520  0.0408
  208MOL0     C27985   8.340   2.030   6.714 -0.2182 -0.7578 -0.1709
  208MOL0     C27986   8.288   2.176   6.714 -0.6383 -0.4719 -0.9678
  208MOL0     C27987   8.395   2.277   6.668  0.0430 -0.8063 -0.0877
  208MOL0     C27988   8.349   2.411   6.722  0.4094  1.0760  0.5837
  208MOL0    Cl27989   8.489   2.523   6.684  0.2523 -0.2960 -0.1222
  208MOL0     C27990   8.945   1.944   6.435 -0.3129 -0.5786 -0.3193
  208MOL0     C27991   9.063   2.016   6.432  0.2246 -0.5802 -0.8408
  208MOL0     O27992   9.322   2.164   6.354  0.5444  0.3069 -0.3587
  208MOL0     C27993   9.331   2.463   6.540 -0.1252 -0.2969 -1.0736
  208MOL0     C27994   9.399   2.579   6.555 -0.0667  0.0177 -0.0475
  208MOL0     N27995   9.796   2.897   7.033 -0.4093  0.3867 -0.0008
  208MOL0     N27996   9.898   2.940   7.088 -0.4104 -0.6744 -0.4634
  208MOL0     C27997  10.759   3.471   7.584  0.8237 -0.0914 -0.3514
  208MOL0     C27998  10.842   3.398   7.670  0.2000 -0.2307  0.1857
  208MOL0     C27999  10.980   3.019   7.925 -0.1016 -0.8299  0.0313
  208MOL0     C28000  10.992   3.105   8.040 -0.5105  0.9820 -0.5041
  208MOL0     C28001  11.091   3.077   8.143  1.3774 -0.5702  0.0522
  208MOL0     C28002  11.152   2.961   8.132 -1.0060  0.4350  0.2986
  208MOL0     O28003  11.232   2.929   8.238 -0.2415 -0.7656  1.0886
  208MOL0     C28004  11.336   2.836   8.234  0.5241  0.9104  0.8038
  208MOL0     C28005  11.452   2.878   8.316 -0.0503 -0.0624 -1.3675
  208MOL0     C28006  11.404   2.910   8.456  0.7189  0.7314 -0.6754
  208MOL0     C28007  11.306   2.801   8.518  0.2295  0.1870  1.1488
  208MOL0     C28008  11.305   2.814   8.661 -0.1413  0.0065 -1.3051
  208MOL0     C28009  11.349   2.801   8.777 -0.0067  0.1956 -0.2186
  208MOL0     C28010  11.132   2.867   8.022 -0.6028 -0.2609 -0.4486
  208MOL0     C28011  11.039   2.889   7.919 -0.4876 -0.2706  0.5414
  208MOL0     C28012  11.011   2.779   7.822 -0.3432  0.9529 -0.6976
  208MOL0     H28013  10.653   3.110   7.662 -3.0763  2.1934  2.3946
  208MOL0     H28014  10.537   3.236   7.478  0.2787  0.1553 -1.3190
  208MOL0     H28015  10.418   3.487   7.540  1.3997  1.4366  2.3975
  208MOL0     H28016  10.507   3.635   7.549  4.0715 -1.1001 -0.5060
  208MOL0     H28017  10.476   3.684   7.307 -1.3750  0.5269 -0.6044
  208MOL0     H28018  10.325   3.700   7.405 -0.1973  1.7974 -0.6936
  208MOL0     H28019  10.393   3.463   7.242 -0.4999 -0.4254  0.1464
  208MOL0     H28020  10.302   3.593   7.181  1.5036 -0.8598 -0.0339
  208MOL0     H28021  10.222   3.419   7.435 -2.4817  0.0103  2.0993
  208MOL0     H28022  10.142   3.561   7.392  3.0037  1.0006  1.7480
  208MOL0     H28023  10.089   3.482   7.173  0.5203  2.1475  1.0204
  208MOL0     H28024  10.172   3.326   7.201  0.1041 -0.9973  0.4691
  208MOL0     H28025  10.013   3.292   7.392  0.3621 -0.6581  0.7387
  208MOL0     H28026   9.935   3.438   7.343  2.3134  0.6834 -0.3957
  208MOL0     H28027   9.880   3.337   7.113 -3.9556 -1.5886  0.1752
  208MOL0     H28028   9.827   3.228   7.242 -0.1471  2.2355  0.2821
  208MOL0     H28029  10.051   3.218   7.032 -3.0057  1.7031 -0.2875
  208MOL0     H28030  10.073   3.115   7.180 -2.4555 -3.8411 -0.3180
  208MOL0     H28031   9.831   3.184   6.888  2.6956 -0.2783 -0.3060
  208MOL0     H28032   9.587   2.891   6.872  0.1917 -3.3346 -2.1574
  208MOL0     H28033   9.609   3.055   6.814 -0.0938  0.1121  1.7289
  208MOL0     H28034   9.824   2.935   6.696 -1.6907  0.7170 -2.7917
  208MOL0     H28035   9.720   2.788   6.711  1.1707 -0.6409 -0.2699
  208MOL0     H28036   9.709   2.953   6.485 -2.1409 -0.5086 -1.4470
  208MOL0     H28037   9.589   3.032   6.586 -3.1742 -1.3933 -0.3318
  208MOL0     H28038   9.465   2.878   6.476  0.9586 -0.6767 -2.4522
  208MOL0     H28039   9.476   2.814   6.628 -1.3062  0.2962 -1.2303
  208MOL0     H28040   9.661   2.509   6.354  0.1749  0.8488  0.6045
  208MOL0     H28041   9.516   2.308   6.312  0.4151  2.9964 -2.6096
  208MOL0     H28042   8.955   2.261   6.655  1.4052  2.6336 -3.7493
  208MOL0     H28043   8.764   2.126   6.648  0.4537  1.1973  1.6703
  208MOL0     H28044   8.695   1.788   6.356 -0.3531 -0.5480  0.0857
  208MOL0     H28045   8.768   1.764   6.523  3.0791  0.3691 -3.0461
  208MOL0     H28046   8.471   1.778   6.422  0.2612  0.5774  0.4126
  208MOL0     H28047   8.536   1.654   6.531 -2.6772  0.2239  2.7514
  208MOL0     H28048   8.420   1.787   6.691  1.5178 -1.4362  1.0735
  208MOL0     H28049   8.568   1.885   6.676  0.3446  1.5798 -2.8882
  208MOL0     H28050   8.335   1.934   6.513 -2.7780  0.5188  1.7823
  208MOL0     H28051   8.470   2.048   6.543 -0.2416 -0.5793 -0.4059
  208MOL0     H28052   8.414   2.029   6.795 -1.2652 -0.7569  0.8060
  208MOL0     H28053   8.259   1.968   6.752 -0.6414  0.4716  1.0387
  208MOL0     H28054   8.205   2.186   6.644  1.2796  2.3208 -3.0533
  208MOL0     H28055   8.254   2.192   6.816  2.5741 -0.8480  0.2931
  208MOL0     H28056   8.394   2.264   6.559 -3.6019 -1.0248 -0.1176
  208MOL0     H28057   8.494   2.251   6.708  1.1192  0.6120 -1.6360
  208MOL0     H28058   8.251   2.444   6.685 -1.1784 -1.2249  2.3884
  208MOL0     H28059   8.335   2.403   6.831 -2.8325  0.8340  0.2692
  208MOL0     H28060   8.931   1.865   6.362 -0.6322 -1.2546  0.4513
  208MOL0     H28061   9.155   1.995   6.378  0.9539  0.0789  0.0926
  208MOL0     H28062   9.237   2.454   6.595 -0.9578  0.2832 -2.3524
  208MOL0     H28063   9.347   2.650   6.619 -0.4140  0.7213 -1.0957
  208MOL0     H28064  10.783   3.573   7.556  1.4405  0.4209  1.8664
  208MOL0     H28065  10.931   3.437   7.718  0.8698 -1.7565  0.2454
  208MOL0     H28066  10.951   3.205   8.048  1.4945  1.7239  1.9759
  208MOL0     H28067  11.115   3.149   8.221  1.2530 -0.7300  0.2416
  208MOL0     H28068  11.371   2.807   8.135 -2.3518 -3.0071  0.6780
  208MOL0     H28069  11.294   2.741   8.269  1.2011 -0.0947 -0.9658
  208MOL0     H28070  11.483   2.973   8.273  0.6289  1.1012  1.4628
  208MOL0     H28071  11.533   2.805   8.319  1.0898  1.1852  1.0285
  208MOL0     H28072  11.341   3.000   8.451 -1.3132 -0.4650  1.3098
  208MOL0     H28073  11.490   2.921   8.523  0.8900  1.2750 -0.9840
  208MOL0     H28074  11.209   2.811   8.467  2.0998 -1.4925 -3.2424
  208MOL0     H28075  11.342   2.702   8.489  0.7381  1.1708 -2.0546
  208MOL0     H28076  11.395   2.782   8.872  3.1672 -2.6149 -2.0914
  208MOL0     H28077  11.196   2.780   8.032  2.4592  1.6970 -1.3244
  208MOL0     H28078  11.006   2.681   7.871 -0.9556  0.4587 -1.7288
  208MOL0     H28079  10.912   2.799   7.781 -0.0380  1.0290 -1.3975
  208MOL0     H28080  11.088   2.793   7.747  0.6188  0.9995  0.2744
  209MOL0     O28081   5.344   8.418   5.799 -0.6053  0.1214  0.4105
  209MOL0     C28082   5.273   8.319   5.816 -0.4792  0.0533  0.2824
  209MOL0     O28083   5.316   8.191   5.854 -0.2437  0.3860 -0.3464
  209MOL0     C28084   5.455   8.167   5.842  0.1673  0.2822  0.5653
  209MOL0     C28085   5.513   8.174   5.716 -0.3201 -0.6545 -0.0199
  209MOL0     C28086   5.650   8.194   5.713 -1.0079  1.5389  0.0719
  209MOL0     C28087   5.739   8.191   5.817 -0.5468  0.7243 -1.3233
  209MOL0     O28088   5.878   8.203   5.791 -0.2207  0.0271 -1.0688
  209MOL0     C28089   5.965   8.209   5.909 -0.7273  0.2052  0.0716
  209MOL0     C28090   6.075   8.304   5.862 -0.2094  1.1295  0.3228
  209MOL0     C28091   6.157   8.272   5.742  0.3049  0.3549  0.8146
  209MOL0     C28092   6.272   8.378   5.725  0.3518  0.4433 -0.5312
  209MOL0     C28093   6.360   8.343   5.604 -0.4085  0.1620 -0.0993
  209MOL0     C28094   6.443   8.217   5.623  0.6386  0.8593  0.2562
  209MOL0     C28095   6.532   8.194   5.507 -0.8823 -0.2042  0.3648
  209MOL0     C28096   6.673   8.248   5.521  0.4612 -0.4325  0.7988
  209MOL0     N28097   6.753   8.185   5.411  0.2207  0.4503 -0.6186
  209MOL0     C28098   6.739   8.216   5.278  0.0657  0.4148  0.3125
  209MOL0     C28099   6.835   8.144   5.209  0.4651 -0.2744  0.1531
  209MOL0     C28100   6.858   8.130   5.062  0.3755 -0.6626  0.1170
  209MOL0     C28101   6.946   8.243   5.001  0.3752  0.4853  0.5565
  209MOL0     C28102   7.098   8.243   5.041 -0.3433 -0.2398 -0.4247
  209MOL0     C28103   7.173   8.353   4.964  0.1403  0.1385  0.0212
  209MOL0     O28104   7.135   8.481   5.000  0.0573 -0.0531  0.1355
  209MOL0     C28105   7.216   8.584   4.960  0.4608  0.6330  1.3373
  209MOL0     C28106   7.193   8.717   5.006  0.2184 -0.0586 -0.3107
  209MOL0     C28107   7.272   8.823   4.972 -0.4658 -1.0037  0.1319
  209MOL0     C28108   7.361   8.814   4.863 -0.0596  0.0986  0.7985
  209MOL0     C28109   7.451   8.923   4.811 -0.8341  0.1233 -0.5402
  209MOL0     O28110   7.469   9.027   4.905 -0.4833 -0.6045  1.1418
  209MOL0     C28111   7.545   9.138   4.868 -0.2374  0.5994 -0.1319
  209MOL0     C28112   7.658   9.188   4.939 -0.3894 -0.3182 -0.9144
  209MOL0     C28113   7.718   9.298   4.884 -0.6715 -0.1375 -0.3937
  209MOL0     C28114   7.678   9.369   4.778  0.2226 -0.8781  0.0687
  209MOL0     O28115   7.768   9.456   4.727 -0.1260 -0.4311 -0.2582
  209MOL0     C28116   7.736   9.547   4.616 -0.1831  0.0984  0.0028
  209MOL0     C28117   7.823   9.666   4.627 -0.3443  0.7883  0.5820
  209MOL0     C28118   7.978   9.640   4.603 -0.8002  0.4432 -0.4701
  209MOL0     C28119   8.070   9.734   4.681 -0.1023 -0.5515 -0.4229
  209MOL0     C28120   8.213   9.721   4.633 -0.0858 -0.3921  0.6827
  209MOL0     C28121   8.310   9.820   4.690  0.3496 -0.1088 -0.6929
  209MOL0     C28122   8.443   9.811   4.629 -0.4188  0.5977  0.3332
  209MOL0     C28123   8.445   9.874   4.494 -0.7963 -0.8043  0.7503
  209MOL0    Cl28124   8.621   9.931   4.476  0.3315  0.0810 -0.2422
  209MOL0     C28125   7.563   9.314   4.703 -0.7318  0.0756  0.2381
  209MOL0     C28126   7.499   9.199   4.745 -0.0129 -0.5947  0.1111
  209MOL0     O28127   7.504   8.908   4.697 -0.0740 -0.6150  0.2300
  209MOL0     C28128   7.376   8.682   4.803 -0.0285 -0.6690 -0.2645
  209MOL0     C28129   7.315   8.568   4.861 -0.3632  0.2769 -0.4788
  209MOL0     N28130   6.908   8.077   5.305 -0.0788 -0.2198 -0.4315
  209MOL0     N28131   6.859   8.106   5.428 -0.3400  0.7355  0.1815
  209MOL0     C28132   5.674   8.154   5.939 -0.3979 -0.9374  0.1473
  209MOL0     C28133   5.531   8.156   5.958 -0.8860 -0.6289  0.6036
  209MOL0     C28134   5.133   8.356   5.847  1.0447  0.7173  0.0393
  209MOL0     C28135   5.063   8.277   5.945 -0.4854 -0.0014  1.0769
  209MOL0     C28136   4.937   8.313   5.993  0.3086 -1.1792 -0.0553
  209MOL0     C28137   4.870   8.420   5.944 -1.1935 -0.2113  0.1535
  209MOL0     O28138   4.751   8.458   6.009  0.1455  0.1466  0.5655
  209MOL0     C28139   4.679   8.569   5.956  0.8322 -1.0703  0.6800
  209MOL0     C28140   4.545   8.595   6.032 -0.4558  0.2218  0.7107
  209MOL0     C28141   4.476   8.449   6.049  0.2739 -1.0121  0.7762
  209MOL0     C28142   4.351   8.476   6.123  0.0295 -0.4903 -0.3984
  209MOL0     C28143   4.301   8.352   6.184  0.0431  0.1394 -0.4247
  209MOL0     C28144   4.271   8.247   6.240  0.7117 -0.1808  0.1339
  209MOL0     C28145   4.932   8.496   5.848  0.3987  1.0515  0.5441
  209MOL0     C28146   5.066   8.472   5.803  0.5350  0.1410 -0.7520
  209MOL0     C28147   5.115   8.563   5.699  0.0804 -0.8085  0.6187
  209MOL0     H28148   5.443   8.163   5.634 -0.8991 -2.6194  0.6948
  209MOL0     H28149   5.689   8.206   5.612 -0.0585  1.8415  0.4646
  209MOL0     H28150   5.915   8.242   6.000 -1.1606 -0.4005  0.0594
  209MOL0     H28151   6.003   8.107   5.927  0.0463 -0.5442 -4.4501
  209MOL0     H28152   6.140   8.323   5.948 -0.5949  0.6863  0.7202
  209MOL0     H28153   6.018   8.395   5.841  0.4834  1.8051  1.3124
  209MOL0     H28154   6.094   8.265   5.653  1.2877  1.2897  0.0077
  209MOL0     H28155   6.197   8.174   5.767 -3.1631 -1.2537  0.5600
  209MOL0     H28156   6.224   8.475   5.706 -0.3496  0.6284  1.7865
  209MOL0     H28157   6.325   8.375   5.820 -0.6164 -0.1607  0.0132
  209MOL0     H28158   6.301   8.352   5.512 -1.2989  0.4126  0.4804
  209MOL0     H28159   6.426   8.430   5.606 -0.0242 -0.1340  1.7614
  209MOL0     H28160   6.514   8.212   5.706  1.8269 -2.2443 -0.7834
  209MOL0     H28161   6.374   8.133   5.632  0.6780  0.1013 -4.2767
  209MOL0     H28162   6.495   8.234   5.412  0.8945 -1.1875 -0.7979
  209MOL0     H28163   6.544   8.085   5.503  1.2544  0.0169 -1.0257
  209MOL0     H28164   6.685   8.357   5.525 -1.1939 -0.1075 -1.2184
  209MOL0     H28165   6.714   8.218   5.617  1.1840  2.8428  1.6525
  209MOL0     H28166   6.668   8.286   5.236 -4.3684 -2.3433  2.4005
  209MOL0     H28167   6.899   8.033   5.031  0.2133 -0.4396 -0.8080
  209MOL0     H28168   6.761   8.139   5.012  2.1628  4.5525 -3.2597
  209MOL0     H28169   6.942   8.210   4.897  2.3679 -1.3658  0.9917
  209MOL0     H28170   6.910   8.344   5.019 -2.1580 -0.4678  1.3227
  209MOL0     H28171   7.149   8.148   5.022 -0.8487 -1.2552  2.7028
  209MOL0     H28172   7.111   8.259   5.148 -0.9705  0.1284 -0.3967
  209MOL0     H28173   7.153   8.336   4.858 -0.6687 -0.6647  0.2940
  209MOL0     H28174   7.281   8.351   4.984  0.8777  0.6436 -3.2475
  209MOL0     H28175   7.112   8.738   5.075 -0.2912  0.2561 -1.0004
  209MOL0     H28176   7.248   8.916   5.024  1.5464 -0.9629  1.1089
  209MOL0     H28177   7.688   9.133   5.028 -2.2700  1.8942  1.2271
  209MOL0     H28178   7.801   9.340   4.941 -2.2271  3.0083 -0.1780
  209MOL0     H28179   7.767   9.485   4.531 -1.2580 -2.1486  1.1408
  209MOL0     H28180   7.629   9.570   4.623 -0.3213 -0.1896 -1.0311
  209MOL0     H28181   7.803   9.743   4.553 -1.3541 -2.2117 -2.5424
  209MOL0     H28182   7.812   9.699   4.731  0.0212  0.9199  0.5794
  209MOL0     H28183   8.010   9.536   4.617  1.7494  0.9236 -2.0086
  209MOL0     H28184   7.995   9.655   4.496  0.0119  0.6694 -0.3151
  209MOL0     H28185   8.059   9.711   4.787  0.3729  0.0883 -0.2283
  209MOL0     H28186   8.054   9.841   4.668 -2.9003 -1.1956 -3.5050
  209MOL0     H28187   8.205   9.742   4.526  0.1496 -0.8261  0.5818
  209MOL0     H28188   8.256   9.622   4.649 -0.1992 -0.5643 -0.0832
  209MOL0     H28189   8.272   9.923   4.685 -1.0383 -0.6321 -1.5122
  209MOL0     H28190   8.326   9.793   4.795 -0.5049 -2.0184 -1.0178
  209MOL0     H28191   8.470   9.705   4.633 -1.0206  0.4345  0.1844
  209MOL0     H28192   8.513   9.860   4.697  1.6124 -1.5782 -0.0374
  209MOL0     H28193   8.415   9.808   4.411 -0.8927  1.1579 -0.8533
  209MOL0     H28194   8.382   9.963   4.490 -0.9271 -0.9128  0.1959
  209MOL0     H28195   7.535   9.372   4.616 -0.8653  2.1729  1.6148
  209MOL0     H28196   7.415   9.157   4.690  1.8061 -0.1131 -3.2828
  209MOL0     H28197   7.465   8.662   4.743 -0.3483 -4.4962  0.2906
  209MOL0     H28198   7.340   8.475   4.811  1.1456 -2.3346  4.4540
  209MOL0     H28199   5.735   8.123   6.023 -0.5023  0.8484  0.9265
  209MOL0     H28200   5.478   8.142   6.052 -1.1581 -1.5624  0.3222
  209MOL0     H28201   5.109   8.192   5.995  0.1759 -1.5616 -1.9105
  209MOL0     H28202   4.888   8.258   6.073 -3.3432 -0.2007 -1.4572
  209MOL0     H28203   4.665   8.549   5.849  2.8583 -0.8377  0.3300
  209MOL0     H28204   4.740   8.659   5.963 -0.3736 -0.3481  4.0884
  209MOL0     H28205   4.477   8.651   5.967 -1.6854 -1.4248  0.4888
  209MOL0     H28206   4.549   8.639   6.132 -0.3415  0.7236  0.4855
  209MOL0     H28207   4.541   8.379   6.102  0.8983 -1.2772 -0.3235
  209MOL0     H28208   4.464   8.406   5.949  1.6695 -0.8629  0.5266
  209MOL0     H28209   4.370   8.551   6.200 -0.5630  2.8706 -3.2682
  209MOL0     H28210   4.274   8.514   6.056 -0.1909 -1.3665 -0.6612
  209MOL0     H28211   4.253   8.159   6.298  1.4544 -0.3080  0.1822
  209MOL0     H28212   4.881   8.583   5.807  1.4798  1.4797  0.0683
  209MOL0     H28213   5.218   8.594   5.721  0.8078 -1.2557 -1.7573
  209MOL0     H28214   5.122   8.530   5.595 -1.6086  1.9664 -0.4961
  209MOL0     H28215   5.046   8.648   5.697  1.4377  0.4122 -2.6678
  210MOL0     O28216   7.238   5.909   2.360 -0.2003 -0.2661  0.1132
  210MOL0     C28217   7.138   5.952   2.419  0.8323 -0.0910  0.1264
  210MOL0     O28218   7.015   5.893   2.405  0.3021  0.1929  0.0684
  210MOL0     C28219   6.985   5.797   2.301 -0.5407  0.3383 -0.3453
  210MOL0     C28220   6.867   5.813   2.225 -0.2562 -0.1585  0.5462
  210MOL0     C28221   6.844   5.741   2.109  0.2241  0.6673 -0.2165
  210MOL0     C28222   6.939   5.638   2.076  0.1055 -0.0061  0.1278
  210MOL0     O28223   6.936   5.555   1.971 -0.3460  0.3939 -0.1374
  210MOL0     C28224   6.855   5.579   1.863  0.3292  0.1635  0.6422
  210MOL0     C28225   6.909   5.513   1.735  0.0211 -0.7639  0.2273
  210MOL0     C28226   6.887   5.361   1.741  0.4177 -0.5872  0.3464
  210MOL0     C28227   7.002   5.278   1.793 -0.0602 -0.3406 -0.3120
  210MOL0     C28228   6.962   5.138   1.795 -0.1668  0.5445  0.3062
  210MOL0     C28229   7.087   5.054   1.849  0.0582  0.9091  0.6474
  210MOL0     C28230   7.094   4.926   1.750  0.4638 -0.9569  0.3009
  210MOL0     C28231   6.990   4.815   1.780 -0.7634 -0.3120  0.5761
  210MOL0     N28232   7.032   4.706   1.867 -0.0468  0.4083  0.1615
  210MOL0     C28233   7.073   4.585   1.822 -0.3373 -0.0998 -0.5626
  210MOL0     C28234   7.122   4.533   1.933 -0.5696  0.5967 -0.6300
  210MOL0     C28235   7.188   4.393   1.936 -0.0206 -0.9281 -1.1060
  210MOL0     C28236   7.096   4.283   1.881  0.1460  0.1929 -0.1580
  210MOL0     C28237   7.146   4.219   1.749 -0.0575  0.1471 -1.0225
  210MOL0     C28238   7.290   4.163   1.750  0.4094  0.2005  0.3353
  210MOL0     O28239   7.302   4.070   1.865  0.8682 -0.1322 -0.1825
  210MOL0     C28240   7.352   3.943   1.855  0.1120 -0.0444  0.5441
  210MOL0     C28241   7.392   3.875   1.739  0.0963 -0.3767 -0.0386
  210MOL0     C28242   7.434   3.742   1.749  0.7013 -0.7507  0.8340
  210MOL0     C28243   7.444   3.672   1.862 -1.1207 -0.3104  0.6151
  210MOL0     C28244   7.473   3.525   1.857 -0.2300  0.4952 -0.1708
  210MOL0     O28245   7.465   3.454   1.972  0.0032 -0.3016 -0.8517
  210MOL0     C28246   7.435   3.320   1.961  0.1764 -0.3242  0.1480
  210MOL0     C28247   7.306   3.280   2.013  0.3457  0.4609  0.6051
  210MOL0     C28248   7.270   3.145   2.008 -0.1115  0.4645 -0.0229
  210MOL0     C28249   7.343   3.046   1.944  0.0306 -0.6472 -0.0969
  210MOL0     O28250   7.308   2.918   1.946  0.2043 -0.1912 -0.0551
  210MOL0     C28251   7.253   2.876   1.820  0.1442  0.2626 -0.5519
  210MOL0     C28252   7.123   2.794   1.843 -0.3549  0.7536  0.7737
  210MOL0     C28253   7.017   2.857   1.933 -0.4614  0.0586  1.6987
  210MOL0     C28254   7.041   2.830   2.090  0.5085  0.2856  0.1485
  210MOL0     C28255   6.927   2.860   2.191  0.6064 -0.4218 -0.5640
  210MOL0     C28256   6.914   3.009   2.201 -0.0484  0.6088 -0.1770
  210MOL0     C28257   6.769   3.048   2.229 -0.4345 -0.1063  0.4250
  210MOL0     C28258   6.749   3.203   2.218 -1.3034  0.2439 -0.4925
  210MOL0    Cl28259   6.782   3.277   2.061  0.3347  0.4210 -0.0322
  210MOL0     C28260   7.472   3.080   1.915 -0.4881 -0.5945  0.6817
  210MOL0     C28261   7.523   3.217   1.917  0.4816 -0.6434  0.1502
  210MOL0     O28262   7.490   3.476   1.749  0.4701  0.6922  0.5500
  210MOL0     C28263   7.417   3.737   1.978 -1.0814  0.0086  0.1536
  210MOL0     C28264   7.363   3.869   1.972 -0.6742  0.8255 -0.1026
  210MOL0     N28265   7.113   4.617   2.046 -0.2123 -0.2468  0.5471
  210MOL0     N28266   7.073   4.733   1.995 -0.0758 -0.3197 -0.2756
  210MOL0     C28267   7.047   5.613   2.162  0.1509  0.4429 -0.2096
  210MOL0     C28268   7.070   5.691   2.277  0.4300  0.4745  0.7785
  210MOL0     C28269   7.137   6.083   2.500  0.2156  0.1952  0.0218
  210MOL0     C28270   7.011   6.136   2.548 -1.2293  0.6082  0.6820
  210MOL0     C28271   7.008   6.255   2.619  0.2396 -0.1043 -0.1997
  210MOL0     C28272   7.123   6.337   2.637  0.0503 -0.1480 -1.1746
  210MOL0     O28273   7.108   6.466   2.698  0.4826  0.1940 -0.0005
  210MOL0     C28274   7.228   6.536   2.739  0.7883 -0.0601 -1.2067
  210MOL0     C28275   7.175   6.641   2.833  0.3100  0.5047 -0.5747
  210MOL0     C28276   7.286   6.687   2.924  0.3949 -0.5448 -0.2332
  210MOL0     C28277   7.257   6.837   2.955  0.9114 -0.7540  0.5680
  210MOL0     C28278   7.258   6.930   2.836 -0.4034  0.0461  0.0858
  210MOL0     C28279   7.265   7.019   2.754 -0.4161  0.5242  0.1219
  210MOL0     C28280   7.239   6.278   2.599 -0.8651  0.1482  0.2958
  210MOL0     C28281   7.251   6.152   2.528 -0.0876  0.8981  0.5464
  210MOL0     C28282   7.385   6.105   2.496 -0.2400  0.6743 -0.0759
  210MOL0     H28283   6.800   5.892   2.255 -1.9117 -2.2147  2.6542
  210MOL0     H28284   6.758   5.760   2.045  0.9541  1.4497 -1.0021
  210MOL0     H28285   6.752   5.558   1.893  0.5291  0.7600  1.8064
  210MOL0     H28286   6.881   5.683   1.841  3.5193 -1.0757 -2.3071
  210MOL0     H28287   7.017   5.529   1.730 -0.0683 -0.4602 -2.6076
  210MOL0     H28288   6.869   5.560   1.644  1.6575  0.0694 -0.0991
  210MOL0     H28289   6.854   5.324   1.644 -0.5991 -1.1231  0.8829
  210MOL0     H28290   6.799   5.341   1.803  0.5602  0.2818  0.8536
  210MOL0     H28291   7.075   5.292   1.713 -0.2182 -1.2770 -0.6332
  210MOL0     H28292   7.036   5.302   1.894 -1.8274  1.5843 -0.1184
  210MOL0     H28293   6.880   5.128   1.867 -0.4359 -0.1476 -0.0851
  210MOL0     H28294   6.920   5.103   1.701 -0.8872  0.1155  0.7785
  210MOL0     H28295   7.179   5.110   1.830 -1.4457  2.5112 -2.7010
  210MOL0     H28296   7.077   5.021   1.953  2.9514 -3.5633 -0.2383
  210MOL0     H28297   7.182   4.866   1.776 -0.0794 -0.2086  4.6901
  210MOL0     H28298   7.099   4.961   1.647  0.7018  1.6569  1.1270
  210MOL0     H28299   6.896   4.859   1.816 -0.8351  2.8106 -2.8624
  210MOL0     H28300   6.953   4.780   1.683  0.2613  0.2863 -0.0495
  210MOL0     H28301   7.059   4.536   1.726  2.6874  0.9651 -1.6686
  210MOL0     H28302   7.284   4.399   1.885  0.4813 -0.4808 -0.1236
  210MOL0     H28303   7.207   4.368   2.041  0.4582  0.8576 -0.7362
  210MOL0     H28304   7.092   4.204   1.957 -0.1248  0.2273 -0.1385
  210MOL0     H28305   6.996   4.325   1.868  0.7057  2.1407  1.4359
  210MOL0     H28306   7.130   4.295   1.672 -0.2539  1.1118 -0.0510
  210MOL0     H28307   7.077   4.136   1.726 -0.1936  0.0249 -0.1898
  210MOL0     H28308   7.360   4.247   1.760 -0.3984  1.2436 -1.9138
  210MOL0     H28309   7.307   4.111   1.656 -1.0567 -0.9312  0.6573
  210MOL0     H28310   7.397   3.921   1.641 -1.7383 -0.0980 -0.0426
  210MOL0     H28311   7.467   3.695   1.657  0.7582  1.7811 -0.5343
  210MOL0     H28312   7.236   3.349   2.059 -0.0501 -2.4711  4.9672
  210MOL0     H28313   7.174   3.114   2.048  1.5452 -0.0314  4.0697
  210MOL0     H28314   7.213   2.961   1.763 -1.3531  0.7875  1.1853
  210MOL0     H28315   7.329   2.834   1.753 -2.4172 -2.5711 -1.9323
  210MOL0     H28316   7.082   2.781   1.742  1.9023  3.0092 -0.5679
  210MOL0     H28317   7.139   2.692   1.877  1.5567  0.7634  0.0112
  210MOL0     H28318   7.002   2.959   1.896 -1.7731 -1.6376 -3.1117
  210MOL0     H28319   6.920   2.815   1.906 -0.8047  1.7583  0.0464
  210MOL0     H28320   7.128   2.886   2.127 -1.1437  1.9045  1.8206
  210MOL0     H28321   7.073   2.726   2.091 -0.2708  0.0401  1.5362
  210MOL0     H28322   6.947   2.808   2.285 -1.7587 -3.7984 -1.7376
  210MOL0     H28323   6.845   2.798   2.153  0.5324  0.4351 -1.8788
  210MOL0     H28324   6.974   3.057   2.279 -0.0437  1.5749 -0.7624
  210MOL0     H28325   6.935   3.050   2.102  2.1095 -1.0571 -0.5049
  210MOL0     H28326   6.748   3.020   2.333 -0.4821  0.9303  0.7099
  210MOL0     H28327   6.698   2.992   2.167  0.1958  1.6259 -1.9979
  210MOL0     H28328   6.648   3.227   2.255 -0.2622 -1.2425  4.0403
  210MOL0     H28329   6.813   3.247   2.295 -1.9980 -0.6257  0.6095
  210MOL0     H28330   7.546   3.010   1.877  2.4642  0.2735  4.2609
  210MOL0     H28331   7.628   3.241   1.907  0.3389 -0.2087 -0.3936
  210MOL0     H28332   7.430   3.691   2.076  4.3563 -1.6710 -0.9737
  210MOL0     H28333   7.343   3.903   2.074 -2.1548 -0.7829  0.2016
  210MOL0     H28334   7.112   5.530   2.134 -0.0502 -0.3073  1.4375
  210MOL0     H28335   7.156   5.673   2.340  1.4382  2.5956  0.0895
  210MOL0     H28336   6.926   6.071   2.531  1.5927 -3.1652 -0.3020
  210MOL0     H28337   6.910   6.293   2.646 -0.4606 -1.9666 -0.0096
  210MOL0     H28338   7.290   6.581   2.661  0.9654  2.2459  0.1505
  210MOL0     H28339   7.293   6.468   2.795 -1.6041  0.6393  2.7884
  210MOL0     H28340   7.093   6.602   2.894  0.7957  0.0345 -0.2210
  210MOL0     H28341   7.135   6.725   2.774 -0.8996  1.2809  1.2729
  210MOL0     H28342   7.385   6.670   2.880 -0.8713 -2.1737 -2.6602
  210MOL0     H28343   7.292   6.636   3.021  2.8259  2.6720  1.5584
  210MOL0     H28344   7.157   6.840   3.000  0.9086 -0.4163  0.5465
  210MOL0     H28345   7.336   6.866   3.024  1.6241 -0.3723 -0.3817
  210MOL0     H28346   7.268   7.102   2.686 -2.3895  0.6199  0.0894
  210MOL0     H28347   7.320   6.350   2.592 -2.3409  1.8183 -0.6261
  210MOL0     H28348   7.408   6.083   2.391  0.8507 -1.1411  0.4983
  210MOL0     H28349   7.462   6.175   2.532 -0.2645 -0.1317  1.6178
  210MOL0     H28350   7.408   6.007   2.537 -0.6819 -0.5562 -2.5421
  211MOL0     O28351   0.706   8.358   9.109  0.0423  0.0293 -1.2683
  211MOL0     C28352   0.721   8.234   9.136  0.2700  0.2534 -0.2319
  211MOL0     O28353   0.645   8.163   9.218  0.1010  0.2305  0.7440
  211MOL0     C28354   0.566   8.218   9.309 -0.7618  0.0794  0.1750
  211MOL0     C28355   0.440   8.281   9.271 -0.2653  0.0870 -0.3977
  211MOL0     C28356   0.355   8.331   9.370  0.8179  0.0302 -0.1106
  211MOL0     C28357   0.388   8.326   9.499  0.2066  0.2166 -1.0023
  211MOL0     O28358   0.302   8.380   9.595  0.1632 -0.2945  0.4172
  211MOL0     C28359   0.347   8.419   9.721  0.7518 -0.2348 -0.5430
  211MOL0     C28360   0.216   8.465   9.796  0.2175  0.8810  0.2790
  211MOL0     C28361   0.243   8.482   9.949  0.0669  0.1382  0.0905
  211MOL0     C28362   0.277   8.349  10.025  1.3508  0.0400  0.6786
  211MOL0     C28363   0.325   8.388  10.166  0.0242 -0.3788 -0.3166
  211MOL0     C28364   0.384   8.265  10.234  0.7898  0.6962  0.3765
  211MOL0     C28365   0.422   8.293  10.383 -0.1855 -0.4555  0.0720
  211MOL0     C28366   0.452   8.173  10.466 -0.7680 -0.0366 -0.4442
  211MOL0     N28367   0.494   8.241  10.602  0.1394  0.5088  0.2012
  211MOL0     C28368   0.417   8.335  10.674  0.6625 -0.8897  1.2897
  211MOL0     C28369   0.500   8.369  10.771 -0.3789 -1.2478 -0.0232
  211MOL0     C28370   0.450   8.453  10.888  0.1090 -0.0125  0.2443
  211MOL0     C28371   0.441   8.596  10.837 -0.6519 -0.1615 -0.1410
  211MOL0     C28372   0.575   8.680  10.839 -0.7647 -0.8111  0.9828
  211MOL0     C28373   0.643   8.696  10.974  0.5289 -0.7363  0.1735
  211MOL0     O28374   0.563   8.803  11.022 -0.0039 -0.6972 -0.4018
  211MOL0     C28375   0.610   8.881  11.130  0.0460 -0.2363  0.7908
  211MOL0     C28376   0.528   8.985  11.187 -0.1534  0.7983 -0.7336
  211MOL0     C28377   0.583   9.062  11.283  1.0137  0.1277 -0.0804
  211MOL0     C28378   0.712   9.043  11.336  0.2730  0.2916  1.4190
  211MOL0     C28379   0.767   9.123  11.446  0.6429 -0.7843  0.3567
  211MOL0     O28380   0.681   9.217  11.507  0.2342 -0.0020 -0.0855
  211MOL0     C28381   0.710   9.299  11.607  0.3129 -0.2031 -0.7220
  211MOL0     C28382   0.804   9.256  11.704 -0.5196 -1.4192 -0.8586
  211MOL0     C28383   0.829   9.337  11.814 -0.2779 -0.3216 -0.4238
  211MOL0     C28384   0.745   9.455  11.842  0.4033  0.5757  0.4052
  211MOL0     O28385   0.737   9.534  11.954 -0.5536 -1.0102  0.5990
  211MOL0     C28386   0.857   9.550  12.028 -0.2961  0.5059  0.6408
  211MOL0     C28387   0.850   9.663  12.138 -0.2282 -0.4626  0.5943
  211MOL0     C28388   0.754   9.624  12.242 -0.0903  0.2358 -0.6130
  211MOL0     C28389   0.732   9.740  12.332 -0.8284 -0.0284  0.6498
  211MOL0     C28390   0.867   9.764  12.416 -0.0705  0.3490  0.3842
  211MOL0     C28391   0.843   9.841  12.544  0.2381  0.0435  0.1304
  211MOL0     C28392   0.869   9.996  12.552 -0.3225 -0.3307  0.2791
  211MOL0     C28393   0.805  10.071  12.435 -0.8633  0.7522 -0.4197
  211MOL0    Cl28394   0.651  10.140  12.466  0.2017 -0.2098 -0.7556
  211MOL0     C28395   0.656   9.491  11.745  0.3349  0.3780 -0.0692
  211MOL0     C28396   0.635   9.421  11.629 -0.4779  0.1172 -0.7101
  211MOL0     O28397   0.878   9.091  11.486  0.4488 -0.1054 -0.1626
  211MOL0     C28398   0.791   8.948  11.274  0.0367  0.0992 -0.9077
  211MOL0     C28399   0.735   8.864  11.187  0.7056 -0.9200  0.8512
  211MOL0     N28400   0.615   8.298  10.772 -0.3823 -0.1106  1.4843
  211MOL0     N28401   0.618   8.234  10.659 -0.5673 -0.5609 -0.0160
  211MOL0     C28402   0.513   8.275   9.533  0.2866  0.8234 -0.2721
  211MOL0     C28403   0.610   8.222   9.445  0.0057 -0.4302  1.2111
  211MOL0     C28404   0.817   8.154   9.042  0.2935 -0.1208 -0.6292
  211MOL0     C28405   0.791   8.015   9.033 -0.1663  0.0815 -0.4842
  211MOL0     C28406   0.868   7.934   8.962 -0.1887 -0.3365 -1.1812
  211MOL0     C28407   0.978   7.983   8.901  0.4765  0.4071 -0.2733
  211MOL0     O28408   1.057   7.890   8.831 -0.4765  0.1562 -0.4548
  211MOL0     C28409   1.099   7.926   8.696  0.3174 -0.1459 -0.0921
  211MOL0     C28410   1.118   7.802   8.605 -0.3527  0.7077 -0.6676
  211MOL0     C28411   1.233   7.722   8.676  0.2329 -0.0744  0.7265
  211MOL0     C28412   1.323   7.634   8.578 -0.7389 -0.7789  0.1735
  211MOL0     C28413   1.466   7.620   8.636 -1.0432  0.5453  0.4091
  211MOL0     C28414   1.571   7.602   8.683  0.6769  0.2257  0.1294
  211MOL0     C28415   1.004   8.119   8.908  0.6323 -0.4004  0.2464
  211MOL0     C28416   0.928   8.212   8.981  0.0008  0.3118  0.9021
  211MOL0     C28417   0.968   8.353   8.973  0.5557 -0.5909 -1.0595
  211MOL0     H28418   0.430   8.305   9.166 -0.1219  0.4278 -0.3374
  211MOL0     H28419   0.274   8.390   9.329  2.8566  1.8044 -1.8252
  211MOL0     H28420   0.390   8.333   9.774  1.2420  0.9405  1.0653
  211MOL0     H28421   0.429   8.492   9.711  1.2615 -0.5556  0.9670
  211MOL0     H28422   0.131   8.396   9.787 -0.1489  1.2008  1.1479
  211MOL0     H28423   0.186   8.564   9.760  2.4384  1.3279 -0.4863
  211MOL0     H28424   0.156   8.527   9.999 -0.3615 -0.9795  0.3754
  211MOL0     H28425   0.319   8.560   9.960  0.9186 -0.1082 -3.0522
  211MOL0     H28426   0.184   8.291  10.028  1.1671  0.2983  0.1324
  211MOL0     H28427   0.356   8.286   9.984  2.1270  0.4931  1.4566
  211MOL0     H28428   0.406   8.457  10.142  0.6739 -0.6077  1.1314
  211MOL0     H28429   0.250   8.442  10.226  1.2121 -0.8111  1.6372
  211MOL0     H28430   0.307   8.188  10.234  0.2776  1.1292 -2.1594
  211MOL0     H28431   0.472   8.230  10.178  0.8302  3.0172 -1.1554
  211MOL0     H28432   0.342   8.359  10.416  0.7650  2.0108 -2.2085
  211MOL0     H28433   0.509   8.358  10.371  0.0945 -1.2977 -3.9586
  211MOL0     H28434   0.369   8.104  10.484  0.6267 -1.7526 -0.3572
  211MOL0     H28435   0.536   8.116  10.426 -0.9213 -1.0420  0.6002
  211MOL0     H28436   0.319   8.373  10.647  1.5226  0.4240 -0.1981
  211MOL0     H28437   0.348   8.419  10.909  0.8578 -1.6070  1.4984
  211MOL0     H28438   0.520   8.444  10.971 -0.2415 -3.9383  0.2896
  211MOL0     H28439   0.385   8.600  10.744 -1.2396 -3.5013 -0.0580
  211MOL0     H28440   0.377   8.641  10.913  0.7707  0.3533  0.8103
  211MOL0     H28441   0.537   8.778  10.810 -2.6429 -1.9057 -0.5239
  211MOL0     H28442   0.642   8.634  10.766 -0.9137 -2.3972  1.7967
  211MOL0     H28443   0.747   8.724  10.951  0.8275 -1.1638  0.9629
  211MOL0     H28444   0.636   8.610  11.041 -1.4188 -0.0802  0.8589
  211MOL0     H28445   0.425   8.986  11.152 -0.4534  1.3923  0.1478
  211MOL0     H28446   0.521   9.147  11.306  0.0356 -0.4727 -0.4524
  211MOL0     H28447   0.872   9.171  11.708  2.9791  1.2184  1.7253
  211MOL0     H28448   0.900   9.302  11.888  0.5332 -1.1658 -1.5635
  211MOL0     H28449   0.876   9.456  12.080 -1.8055  1.5909  3.3419
  211MOL0     H28450   0.932   9.584  11.955  0.3785 -1.5877  0.3106
  211MOL0     H28451   0.951   9.674  12.178 -0.1110 -0.5570  0.3288
  211MOL0     H28452   0.829   9.755  12.084 -1.9071 -1.5097 -0.6307
  211MOL0     H28453   0.664   9.585  12.194 -0.0934  0.5206 -0.8445
  211MOL0     H28454   0.793   9.543  12.304 -0.1831 -0.0714 -0.9540
  211MOL0     H28455   0.653   9.719  12.404 -2.7296  1.3561 -0.9079
  211MOL0     H28456   0.703   9.822  12.265 -2.4863 -1.4781 -0.4807
  211MOL0     H28457   0.946   9.812  12.358 -0.7867  2.2185  0.8756
  211MOL0     H28458   0.905   9.665  12.440 -0.4326  0.6393  2.3838
  211MOL0     H28459   0.734   9.837  12.560  0.0224 -0.9421 -1.3560
  211MOL0     H28460   0.898   9.795  12.627  1.6417  0.7021 -0.4071
  211MOL0     H28461   0.974  10.026  12.549 -0.8722  1.7025 -0.3371
  211MOL0     H28462   0.833  10.035  12.648  2.7204 -1.2826  1.9122
  211MOL0     H28463   0.870  10.155  12.408  0.4621  0.0768  0.5504
  211MOL0     H28464   0.801  10.002  12.350  0.6225 -2.4206  1.8688
  211MOL0     H28465   0.589   9.575  11.761 -0.1457 -0.0279  0.0751
  211MOL0     H28466   0.555   9.440  11.559 -2.4506  0.2686  1.4798
  211MOL0     H28467   0.893   8.934  11.309 -0.5681 -0.7295  0.6154
  211MOL0     H28468   0.798   8.781  11.158 -0.0295 -0.6705 -1.7807
  211MOL0     H28469   0.542   8.273   9.637 -1.4012  0.6521  0.2154
  211MOL0     H28470   0.692   8.169   9.491 -1.9987 -3.6566  1.3406
  211MOL0     H28471   0.708   7.974   9.089  0.3438 -0.0489  0.1900
  211MOL0     H28472   0.841   7.829   8.962  0.2988 -0.4863  0.7994
  211MOL0     H28473   1.197   7.975   8.704  1.6039 -2.4828 -0.6815
  211MOL0     H28474   1.033   8.002   8.652 -1.2701 -0.7850  1.0971
  211MOL0     H28475   1.149   7.828   8.503  1.3259 -1.9395 -0.9241
  211MOL0     H28476   1.031   7.735   8.605  0.0548 -0.0607  3.6402
  211MOL0     H28477   1.187   7.650   8.743 -0.8890 -2.8282 -2.7044
  211MOL0     H28478   1.296   7.792   8.732  0.4769  0.3043 -0.0096
  211MOL0     H28479   1.282   7.533   8.567  3.0631 -2.3186 -1.9090
  211MOL0     H28480   1.323   7.696   8.488 -4.3835  3.5399  2.7007
  211MOL0     H28481   1.663   7.565   8.724 -0.7741 -3.0376  0.7765
  211MOL0     H28482   1.091   8.160   8.857  0.5099  1.2991  1.3291
  211MOL0     H28483   1.029   8.383   9.059 -3.0785  0.6449  1.2840
  211MOL0     H28484   1.041   8.372   8.893  3.5017  2.6710  2.0464
  211MOL0     H28485   0.884   8.421   8.964  1.1275 -0.0265 -2.4925
  212MOL0     O28486   7.640   1.590   6.450 -0.4492 -0.1859 -0.2717
  212MOL0     C28487   7.706   1.607   6.551  0.1911  0.0230 -0.1542
  212MOL0     O28488   7.760   1.505   6.620 -0.9546  1.0976  0.0022
  212MOL0     C28489   7.731   1.379   6.563 -0.4675  0.1827  0.7930
  212MOL0     C28490   7.614   1.315   6.595  1.5905  0.5816 -0.2693
  212MOL0     C28491   7.582   1.196   6.531 -0.0964 -0.4705  0.6426
  212MOL0     C28492   7.679   1.125   6.450  0.0904  1.0496 -0.2898
  212MOL0     O28493   7.637   1.013   6.388 -0.4247  0.9274  0.5633
  212MOL0     C28494   7.716   0.899   6.423  0.1450  0.1593  0.4582
  212MOL0     C28495   7.641   0.771   6.421  0.5021  0.9755 -0.4026
  212MOL0     C28496   7.579   0.735   6.287  0.3355  0.1426 -0.7540
  212MOL0     C28497   7.453   0.816   6.257  1.0511 -0.2818 -0.2034
  212MOL0     C28498   7.361   0.757   6.154  0.2996  0.7366  0.1437
  212MOL0     C28499   7.243   0.849   6.135  0.8814 -0.0582 -1.1078
  212MOL0     C28500   7.128   0.783   6.051 -0.5250 -0.0912  0.5079
  212MOL0     C28501   7.188   0.735   5.914 -0.3903 -0.1057  0.2712
  212MOL0     N28502   7.214   0.592   5.929 -0.3634 -0.5010  0.1785
  212MOL0     C28503   7.331   0.526   5.879  0.4303 -0.2606  0.3955
  212MOL0     C28504   7.306   0.399   5.896  0.4762 -0.4288  0.6163
  212MOL0     C28505   7.374   0.278   5.834  0.2836  0.1431 -0.1060
  212MOL0     C28506   7.433   0.200   5.946  0.1811  0.2898 -0.2212
  212MOL0     C28507   7.567   0.261   5.988 -0.6844 -0.1646  0.0009
  212MOL0     C28508   7.637   0.199   6.106  0.0886 -0.2934  1.0352
  212MOL0     O28509   7.712   0.089   6.056 -0.1600  0.1881  0.5607
  212MOL0     C28510   7.794   0.016   6.137  0.8696 -0.5751 -0.0155
  212MOL0     C28511   7.875  -0.100   6.094 -0.2824 -0.4417  0.3189
  212MOL0     C28512   7.958  -0.160   6.176 -0.3073  1.0974  0.1312
  212MOL0     C28513   7.994  -0.105   6.295  0.6060 -0.4631  0.7794
  212MOL0     C28514   8.094  -0.167   6.388  0.5631 -0.6026  0.6571
  212MOL0     O28515   8.177  -0.260   6.322  0.3471 -0.2995  0.2607
  212MOL0     C28516   8.274  -0.320   6.389  0.4798 -0.9237 -0.4604
  212MOL0     C28517   8.328  -0.272   6.509 -0.2937  0.9641 -0.0057
  212MOL0     C28518   8.431  -0.348   6.569 -0.3713 -0.3624  0.2799
  212MOL0     C28519   8.477  -0.467   6.514 -0.7978 -0.8635  0.0357
  212MOL0     O28520   8.572  -0.563   6.556 -0.0589 -0.2769 -0.2296
  212MOL0     C28521   8.602  -0.573   6.695 -0.2525 -0.2355 -0.0560
  212MOL0     C28522   8.732  -0.504   6.718 -0.0773 -0.9977  0.7419
  212MOL0     C28523   8.770  -0.520   6.872 -0.1171 -0.3178  0.3885
  212MOL0     C28524   8.888  -0.425   6.893 -0.8139 -0.1680 -0.1213
  212MOL0     C28525   8.999  -0.478   6.993  0.4653 -0.2560  0.3172
  212MOL0     C28526   8.961  -0.462   7.140 -0.0878 -0.4770  0.1153
  212MOL0     C28527   9.059  -0.526   7.241 -0.3381  0.2332  0.8768
  212MOL0     C28528   9.032  -0.473   7.376  0.9488  0.0651  0.0498
  212MOL0    Cl28529   9.161  -0.508   7.487 -0.5463  0.4712  0.5632
  212MOL0     C28530   8.423  -0.508   6.398  0.5401  0.3594  0.5035
  212MOL0     C28531   8.318  -0.436   6.336 -0.4221 -0.3725  0.3216
  212MOL0     O28532   8.097  -0.132   6.505 -0.1221  0.5640 -0.0227
  212MOL0     C28533   7.931   0.017   6.337  0.2581 -0.4417 -0.3079
  212MOL0     C28534   7.821   0.068   6.266 -0.5465  0.2299 -0.0384
  212MOL0     N28535   7.187   0.386   5.958 -0.3767  0.0632 -0.3217
  212MOL0     N28536   7.127   0.504   5.981 -0.3621  0.5700  0.1259
  212MOL0     C28537   7.798   1.191   6.420  0.4018  1.8667  0.5905
  212MOL0     C28538   7.827   1.317   6.478 -0.1636 -0.1533  0.0909
  212MOL0     C28539   7.729   1.744   6.588 -0.3579 -0.3359  0.1865
  212MOL0     C28540   7.623   1.831   6.614  0.0587  0.3632  0.0736
  212MOL0     C28541   7.648   1.960   6.652 -0.0992 -0.5863 -0.0471
  212MOL0     C28542   7.774   2.005   6.656 -0.8560 -0.2964  0.0773
  212MOL0     O28543   7.805   2.128   6.692  0.4270 -0.0795 -0.3313
  212MOL0     C28544   7.732   2.195   6.805 -0.0976  0.1949 -0.3891
  212MOL0     C28545   7.840   2.281   6.889 -0.6426  0.3852 -1.7473
  212MOL0     C28546   7.924   2.188   6.982  0.0160  0.2337  0.1538
  212MOL0     C28547   8.041   2.267   7.048 -0.1502  0.4624  0.2310
  212MOL0     C28548   8.146   2.186   7.104 -0.1048  0.1248 -0.1608
  212MOL0     C28549   8.244   2.147   7.171 -0.4800  0.0301  0.1783
  212MOL0     C28550   7.884   1.929   6.623  0.5751  0.9800 -0.5141
  212MOL0     C28551   7.863   1.791   6.599 -0.3201  0.8477 -1.1517
  212MOL0     C28552   7.983   1.709   6.555 -0.6902 -0.2831 -0.3993
  212MOL0     H28553   7.545   1.357   6.667 -1.0025 -1.1536 -1.5807
  212MOL0     H28554   7.482   1.155   6.545  0.7295 -1.9994  2.6316
  212MOL0     H28555   7.797   0.874   6.354 -2.6471 -2.2537 -2.2600
  212MOL0     H28556   7.756   0.906   6.525  1.7596 -1.3504 -0.0282
  212MOL0     H28557   7.562   0.771   6.496  2.2959 -1.3935  1.6755
  212MOL0     H28558   7.721   0.700   6.448 -0.5161 -0.0965 -0.1287
  212MOL0     H28559   7.552   0.629   6.296 -0.9902  0.4052 -1.4178
  212MOL0     H28560   7.662   0.736   6.216  1.0209  0.1885  0.0399
  212MOL0     H28561   7.403   0.824   6.354 -0.3910 -1.6861 -0.7892
  212MOL0     H28562   7.475   0.918   6.223  0.8020 -0.9757 -2.5948
  212MOL0     H28563   7.423   0.744   6.065  1.3823 -0.7132  1.0580
  212MOL0     H28564   7.330   0.658   6.190 -1.7488  0.5143 -1.9734
  212MOL0     H28565   7.211   0.892   6.230  0.3598 -0.2711 -1.1836
  212MOL0     H28566   7.292   0.930   6.081 -0.2201  1.2626 -0.1764
  212MOL0     H28567   7.053   0.861   6.034  0.8314  1.4095  1.0197
  212MOL0     H28568   7.079   0.704   6.107 -2.8388  2.1436  1.8346
  212MOL0     H28569   7.121   0.760   5.831  1.6237  0.0193 -1.3983
  212MOL0     H28570   7.283   0.784   5.891  0.3239 -0.9680  1.2931
  212MOL0     H28571   7.405   0.587   5.829 -0.2144  1.1702  1.1132
  212MOL0     H28572   7.303   0.215   5.779 -0.5919  2.1087 -1.3411
  212MOL0     H28573   7.454   0.304   5.763  0.4952 -2.6414 -1.0317
  212MOL0     H28574   7.369   0.190   6.034  2.1965 -0.0974  1.2505
  212MOL0     H28575   7.460   0.098   5.917  2.6794  0.0968  2.3800
  212MOL0     H28576   7.552   0.364   6.023  1.5427 -0.3349  1.6067
  212MOL0     H28577   7.629   0.253   5.899  0.1352 -1.2415  0.6538
  212MOL0     H28578   7.571   0.158   6.184 -0.4557  1.0340  1.3052
  212MOL0     H28579   7.710   0.267   6.150  1.5408  2.7505 -5.1205
  212MOL0     H28580   7.853  -0.150   6.000  0.2138 -1.4531  0.7233
  212MOL0     H28581   7.996  -0.255   6.141  3.1966  2.5275 -0.3920
  212MOL0     H28582   8.313  -0.182   6.568 -0.2238  2.0603 -1.6288
  212MOL0     H28583   8.474  -0.316   6.664  2.1291  3.5678 -1.8834
  212MOL0     H28584   8.522  -0.527   6.755  1.6349  0.1757  2.2892
  212MOL0     H28585   8.610  -0.677   6.728  2.7577 -0.4554 -1.1332
  212MOL0     H28586   8.805  -0.561   6.660 -0.7070 -0.1322 -0.9823
  212MOL0     H28587   8.739  -0.399   6.687 -0.6959 -1.1391  0.1093
  212MOL0     H28588   8.686  -0.495   6.938  0.5798  1.2317  0.7325
  212MOL0     H28589   8.801  -0.624   6.883  1.2506 -0.0699 -0.8162
  212MOL0     H28590   8.853  -0.326   6.922  0.9006  0.9082 -1.5095
  212MOL0     H28591   8.935  -0.409   6.795  0.0539  0.7965  0.4306
  212MOL0     H28592   9.084  -0.411   6.977 -2.2975  2.8093 -4.1420
  212MOL0     H28593   9.029  -0.581   6.971  2.8854  0.1326  1.5174
  212MOL0     H28594   8.956  -0.355   7.163  0.8392 -0.5261  0.5980
  212MOL0     H28595   8.857  -0.494   7.150 -0.6978  0.7100 -1.7581
  212MOL0     H28596   9.161  -0.500   7.211 -1.0145  0.6044 -1.2849
  212MOL0     H28597   9.061  -0.635   7.229  1.2650  0.3257 -0.0410
  212MOL0     H28598   9.020  -0.365   7.370 -2.5018 -0.2705 -1.9118
  212MOL0     H28599   8.941  -0.518   7.418  1.6367 -0.4502  1.0219
  212MOL0     H28600   8.439  -0.613   6.373  0.1370  0.5757 -0.7357
  212MOL0     H28601   8.267  -0.487   6.255 -1.8338 -1.3550  1.7604
  212MOL0     H28602   7.949   0.073   6.428 -1.1946 -3.2390  1.8956
  212MOL0     H28603   7.785   0.164   6.301 -2.7733  0.0460 -1.5699
  212MOL0     H28604   7.872   1.147   6.355 -0.5719 -0.7499  1.1186
  212MOL0     H28605   7.923   1.367   6.469 -0.6854  0.6970 -0.8926
  212MOL0     H28606   7.522   1.791   6.614  0.0442  0.3478  1.4607
  212MOL0     H28607   7.557   2.020   6.658 -0.0522 -0.2635 -2.0651
  212MOL0     H28608   7.686   2.118   6.868  0.6617 -0.6219 -0.7963
  212MOL0     H28609   7.661   2.266   6.763 -0.0036  0.4916 -0.0546
  212MOL0     H28610   7.804   2.365   6.950  2.4891  0.1460  0.6643
  212MOL0     H28611   7.906   2.326   6.814  2.8712  2.8713  2.3218
  212MOL0     H28612   7.966   2.102   6.927 -2.4328 -0.8429 -0.1752
  212MOL0     H28613   7.863   2.139   7.058 -0.5386 -1.6263 -1.3797
  212MOL0     H28614   8.078   2.337   6.972  0.7793 -0.2848 -0.0181
  212MOL0     H28615   7.990   2.324   7.127 -3.8386 -2.3785  0.1504
  212MOL0     H28616   8.333   2.129   7.228 -0.3494  0.9748  0.2951
  212MOL0     H28617   7.980   1.977   6.637  0.7201  0.1209  1.9268
  212MOL0     H28618   8.014   1.644   6.637  1.1091  1.4159  0.3410
  212MOL0     H28619   7.955   1.640   6.474 -2.0984 -0.5602  0.2910
  212MOL0     H28620   8.067   1.769   6.520  0.3770 -1.6540 -0.2885
  213MOL0     O28621   1.801   0.082  11.473  0.0787  0.0562 -0.6993
  213MOL0     C28622   1.882   0.101  11.561 -0.3031 -0.8065  0.6225
  213MOL0     O28623   2.004   0.040  11.565 -0.2938 -0.4575 -0.2656
  213MOL0     C28624   2.042  -0.039  11.457  0.0180 -0.7850  0.1107
  213MOL0     C28625   2.064   0.011  11.324 -0.0250 -0.1729  0.7352
  213MOL0     C28626   2.107  -0.070  11.219  0.0311 -0.2390 -0.1873
  213MOL0     C28627   2.141  -0.204  11.248  0.3163  0.7794 -0.1907
  213MOL0     O28628   2.196  -0.286  11.151 -0.4128  0.3227 -0.0984
  213MOL0     C28629   2.316  -0.225  11.093  0.2362 -0.5767 -0.4118
  213MOL0     C28630   2.403  -0.328  11.020 -0.1169 -1.0032 -0.4454
  213MOL0     C28631   2.332  -0.381  10.887  0.3940 -0.8662 -0.2886
  213MOL0     C28632   2.385  -0.363  10.738  0.7432 -0.6719  0.3038
  213MOL0     C28633   2.293  -0.424  10.635 -0.6479 -0.1657 -0.6588
  213MOL0     C28634   2.372  -0.431  10.500 -0.1894 -0.6503 -0.1524
  213MOL0     C28635   2.294  -0.489  10.382 -0.2654 -0.0670 -0.2787
  213MOL0     C28636   2.369  -0.613  10.318 -0.3212 -0.1138 -0.0973
  213MOL0     N28637   2.310  -0.647  10.187  0.3595 -0.1584  0.6261
  213MOL0     C28638   2.198  -0.725  10.174 -0.4863 -1.0259  0.8263
  213MOL0     C28639   2.192  -0.762  10.043  0.0139 -0.2770  0.1016
  213MOL0     C28640   2.095  -0.844   9.969  0.5929 -0.2806 -0.7275
  213MOL0     C28641   2.045  -0.960  10.074 -0.1871  0.0078 -0.4086
  213MOL0     C28642   1.984  -1.091  10.018  0.4962 -0.2620 -0.0586
  213MOL0     C28643   1.836  -1.102   9.994  0.5125  0.1917  0.0267
  213MOL0     O28644   1.781  -1.008   9.897  1.3245 -0.3319  0.1181
  213MOL0     C28645   1.783  -1.033   9.763  0.6257  0.8522  0.8688
  213MOL0     C28646   1.722  -0.940   9.683 -0.7744  0.0758  0.6880
  213MOL0     C28647   1.704  -0.973   9.552  0.6498  0.1014  1.0317
  213MOL0     C28648   1.759  -1.083   9.491  0.8577  0.4841 -0.8774
  213MOL0     C28649   1.740  -1.109   9.345  0.1503 -0.1785  0.0519
  213MOL0     O28650   1.799  -1.221   9.280  0.5350  0.1472 -0.5637
  213MOL0     C28651   1.782  -1.276   9.158  0.8698 -0.5810  0.7187
  213MOL0     C28652   1.662  -1.263   9.094 -0.1377 -0.4272 -0.4942
  213MOL0     C28653   1.640  -1.313   8.969  0.2488 -0.0028  0.1207
  213MOL0     C28654   1.735  -1.380   8.901 -0.7790 -0.5024  0.2383
  213MOL0     O28655   1.707  -1.431   8.779  0.3015 -0.0522  0.8595
  213MOL0     C28656   1.613  -1.378   8.690  0.6629  0.3705  0.3355
  213MOL0     C28657   1.467  -1.409   8.719  0.5412 -0.0332 -0.0557
  213MOL0     C28658   1.430  -1.557   8.766 -0.2134 -0.5156  0.2919
  213MOL0     C28659   1.281  -1.588   8.798 -0.3079 -0.1927 -0.1547
  213MOL0     C28660   1.252  -1.739   8.828  0.6452 -0.0707  0.0575
  213MOL0     C28661   1.298  -1.763   8.967 -0.3137 -0.6103 -0.2883
  213MOL0     C28662   1.232  -1.879   9.038  0.5368  0.1122  0.2043
  213MOL0     C28663   1.332  -1.985   9.057  0.9797 -0.2369  0.0481
  213MOL0    Cl28664   1.449  -1.935   9.186  0.4612  0.5946 -0.2792
  213MOL0     C28665   1.859  -1.403   8.963  0.3079  0.3364 -0.2173
  213MOL0     C28666   1.881  -1.339   9.093  0.5987 -0.4339  0.0650
  213MOL0     O28667   1.659  -1.032   9.287  0.4321 -0.7012  0.0320
  213MOL0     C28668   1.839  -1.174   9.572 -0.4923 -0.3859 -0.0297
  213MOL0     C28669   1.841  -1.150   9.710 -0.0797  0.0126 -0.0289
  213MOL0     N28670   2.298  -0.713   9.982 -0.7989 -0.1736 -0.4210
  213MOL0     N28671   2.368  -0.644  10.066  0.9460  0.4161  0.9156
  213MOL0     C28672   2.098  -0.256  11.373  0.3567  0.3261  0.0999
  213MOL0     C28673   2.053  -0.173  11.472  0.6137  0.0380  0.0438
  213MOL0     C28674   1.829   0.170  11.675  0.0483  0.3489 -0.7625
  213MOL0     C28675   1.726   0.272  11.663 -0.0738 -0.6577 -0.3419
  213MOL0     C28676   1.686   0.347  11.782  0.3204 -0.8007  0.3234
  213MOL0     C28677   1.752   0.330  11.902 -0.3144  0.4943 -0.3423
  213MOL0     O28678   1.722   0.401  12.019  0.2544 -0.0795  0.0013
  213MOL0     C28679   1.641   0.337  12.114  0.3048  0.3343  1.2250
  213MOL0     C28680   1.553   0.433  12.197 -1.3150 -0.1880 -0.1102
  213MOL0     C28681   1.474   0.357  12.306  0.0778 -0.4542  0.9371
  213MOL0     C28682   1.347   0.421  12.368  0.3409  0.0639 -0.3277
  213MOL0     C28683   1.389   0.546  12.441  0.9629  1.1675 -0.0581
  213MOL0     C28684   1.417   0.650  12.494 -0.0630  0.6360 -0.0064
  213MOL0     C28685   1.834   0.216  11.915 -0.5746 -0.0905 -0.4147
  213MOL0     C28686   1.878   0.143  11.806 -0.3326 -0.0389 -0.3334
  213MOL0     C28687   1.965   0.022  11.837 -0.6696  1.4446  0.1266
  213MOL0     H28688   2.042   0.114  11.299  0.1217  0.5442  3.3585
  213MOL0     H28689   2.108  -0.034  11.117 -2.3189 -1.7755 -0.8348
  213MOL0     H28690   2.284  -0.148  11.022 -0.5075 -1.7458 -1.3922
  213MOL0     H28691   2.375  -0.180  11.173  3.3148  0.1483 -2.8618
  213MOL0     H28692   2.430  -0.411  11.084  1.1866 -0.5500 -0.3879
  213MOL0     H28693   2.506  -0.301  10.996  1.1400 -3.7985  1.2558
  213MOL0     H28694   2.232  -0.336  10.881  0.4485 -0.7590 -5.8579
  213MOL0     H28695   2.323  -0.489  10.902 -1.6288 -0.4042  2.7459
  213MOL0     H28696   2.400  -0.255  10.725 -3.3292  0.0345  0.1808
  213MOL0     H28697   2.487  -0.402  10.735  1.1595  0.1587  2.1356
  213MOL0     H28698   2.262  -0.529  10.646  2.6678 -1.3185 -0.9756
  213MOL0     H28699   2.211  -0.354  10.619 -1.8711 -1.6505 -1.1385
  213MOL0     H28700   2.400  -0.327  10.476 -0.6887  0.6563  4.1040
  213MOL0     H28701   2.459  -0.496  10.515 -0.0443 -0.3648  0.2840
  213MOL0     H28702   2.278  -0.407  10.311 -1.8488 -1.4361 -1.6087
  213MOL0     H28703   2.192  -0.524  10.403 -1.0250  1.7635 -0.7815
  213MOL0     H28704   2.472  -0.575  10.312 -0.2079 -0.3917  0.0797
  213MOL0     H28705   2.374  -0.705  10.378  0.6560  0.0206  0.0438
  213MOL0     H28706   2.139  -0.756  10.260 -0.2564  0.5600  1.5848
  213MOL0     H28707   2.003  -0.787   9.958  0.3360 -0.3320  0.9073
  213MOL0     H28708   2.137  -0.878   9.874  1.4088 -0.4991 -0.3030
  213MOL0     H28709   2.131  -0.995  10.132 -0.6935  0.9198  0.9467
  213MOL0     H28710   1.975  -0.920  10.149  0.3949  1.0684 -0.4186
  213MOL0     H28711   2.001  -1.163  10.098  0.3619 -0.1487  0.0721
  213MOL0     H28712   2.045  -1.121   9.933 -2.3129  0.4731 -2.5159
  213MOL0     H28713   1.791  -1.093  10.093 -1.1196 -3.8648 -0.1626
  213MOL0     H28714   1.800  -1.202   9.967 -2.0053  0.5134  1.8685
  213MOL0     H28715   1.674  -0.852   9.725  1.3575  0.9710  1.4285
  213MOL0     H28716   1.663  -0.899   9.485  1.9516  0.0331  0.1295
  213MOL0     H28717   1.585  -1.203   9.141  1.4858 -0.2566  2.1384
  213MOL0     H28718   1.548  -1.293   8.915  2.2927  1.2021 -3.2563
  213MOL0     H28719   1.637  -1.272   8.673  0.0741  0.5076  0.3203
  213MOL0     H28720   1.626  -1.420   8.590 -0.8198 -1.3965  0.8391
  213MOL0     H28721   1.410  -1.351   8.792 -3.4693 -5.4777  1.8184
  213MOL0     H28722   1.418  -1.403   8.621  3.7905 -1.5947 -1.9428
  213MOL0     H28723   1.452  -1.625   8.683 -0.5938  1.1725 -1.2745
  213MOL0     H28724   1.494  -1.579   8.851 -0.8552 -2.4929  0.3113
  213MOL0     H28725   1.228  -1.548   8.710  5.3597  1.8368 -3.1524
  213MOL0     H28726   1.257  -1.520   8.880  0.0226  3.7343 -3.0249
  213MOL0     H28727   1.307  -1.800   8.756  2.6484 -0.7265  2.0384
  213MOL0     H28728   1.148  -1.768   8.817  0.2206  1.4237 -0.1558
  213MOL0     H28729   1.407  -1.765   8.978 -0.2441  2.1316  0.2448
  213MOL0     H28730   1.256  -1.682   9.027  1.8637  0.7802 -0.5176
  213MOL0     H28731   1.149  -1.917   8.978  1.0326 -0.9625  0.1713
  213MOL0     H28732   1.182  -1.861   9.134 -0.0765 -0.2697 -0.0447
  213MOL0     H28733   1.273  -2.070   9.094 -0.6200  0.9751  0.4038
  213MOL0     H28734   1.380  -2.017   8.964 -2.1812  0.7873 -2.1475
  213MOL0     H28735   1.934  -1.464   8.914  2.3283  3.0617 -0.7890
  213MOL0     H28736   1.967  -1.345   9.159  0.0509  2.7625  1.2365
  213MOL0     H28737   1.885  -1.256   9.518 -3.2592 -1.8831 -0.2795
  213MOL0     H28738   1.888  -1.222   9.775 -2.6436 -0.9665  0.8977
  213MOL0     H28739   2.104  -0.363  11.388  0.9353  0.2334 -0.7246
  213MOL0     H28740   2.032  -0.221  11.567  1.4729 -0.0112  0.2152
  213MOL0     H28741   1.668   0.301  11.576 -2.4929  0.1032  1.4046
  213MOL0     H28742   1.601   0.414  11.775  0.0267 -1.0606  1.2987
  213MOL0     H28743   1.703   0.275  12.180  0.6926 -0.3929  0.1965
  213MOL0     H28744   1.572   0.274  12.058  4.4905 -1.4324 -2.4708
  213MOL0     H28745   1.484   0.484  12.130  0.3841 -0.8309 -2.4994
  213MOL0     H28746   1.625   0.508  12.232 -1.7396  0.5655 -0.8278
  213MOL0     H28747   1.552   0.346  12.382  0.9663 -1.7875 -0.1178
  213MOL0     H28748   1.443   0.258  12.272 -0.0866 -1.1552  3.0096
  213MOL0     H28749   1.260   0.437  12.303  0.3291  4.1512  0.4764
  213MOL0     H28750   1.309   0.349  12.441  0.0744  2.6246  2.2504
  213MOL0     H28751   1.420   0.736  12.557 -3.2543  1.0347 -0.2375
  213MOL0     H28752   1.877   0.194  12.012 -1.8491  1.1591  0.4848
  213MOL0     H28753   1.937  -0.074  11.791 -1.0273  1.8304 -0.4715
  213MOL0     H28754   2.069   0.039  11.808  1.1003 -0.1487  4.6752
  213MOL0     H28755   1.965   0.007  11.945 -0.8624  0.7712  0.0381
  214MOL0     O28756   7.494  10.924   8.482 -0.1569 -0.0573  0.4201
  214MOL0     C28757   7.381  10.960   8.457 -0.5726 -0.6294 -0.2670
  214MOL0     O28758   7.271  10.946   8.533 -0.0954  0.0482  0.4853
  214MOL0     C28759   7.280  10.895   8.662  0.4034  0.2473  0.7960
  214MOL0     C28760   7.391  10.885   8.748  0.5061 -0.8371  0.3096
  214MOL0     C28761   7.376  10.844   8.876  0.5082 -0.2460 -0.4610
  214MOL0     C28762   7.247  10.820   8.910 -0.2132  0.1173 -0.5364
  214MOL0     O28763   7.216  10.757   9.028 -0.6026 -0.2425 -0.1279
  214MOL0     C28764   7.274  10.817   9.143 -0.6225 -0.3368 -0.4767
  214MOL0     C28765   7.181  10.785   9.250 -0.2236  0.1009 -0.1214
  214MOL0     C28766   7.040  10.846   9.229 -0.9119  0.2680 -0.1729
  214MOL0     C28767   7.022  11.002   9.225 -0.1286 -0.0989 -0.2988
  214MOL0     C28768   6.877  11.039   9.246 -0.5502  0.5077 -0.1476
  214MOL0     C28769   6.782  11.001   9.132 -0.4311  0.1533  0.3047
  214MOL0     C28770   6.805  11.070   8.994 -0.6880 -0.4642  0.3547
  214MOL0     C28771   6.731  10.990   8.881  0.4096  0.3640  0.0407
  214MOL0     N28772   6.586  11.037   8.867  0.0966 -0.9480 -1.2582
  214MOL0     C28773   6.485  11.021   8.965  0.1769 -0.1432 -0.2442
  214MOL0     C28774   6.381  11.085   8.910  0.2116  0.0436 -0.5936
  214MOL0     C28775   6.233  11.077   8.967 -0.7937 -0.1092  0.2562
  214MOL0     C28776   6.137  10.984   8.878 -0.1529  0.4551  0.9451
  214MOL0     C28777   6.116  11.054   8.734  0.1740 -0.3488  0.6410
  214MOL0     C28778   5.991  10.985   8.669 -0.1580  0.1288  0.2924
  214MOL0     O28779   5.892  11.086   8.645  0.1482  0.1575 -0.9343
  214MOL0     C28780   5.790  11.047   8.565  0.1287  0.0354 -1.0202
  214MOL0     C28781   5.749  11.145   8.476  0.7265 -0.2045  0.1599
  214MOL0     C28782   5.637  11.110   8.399 -0.7638  0.7143 -0.0409
  214MOL0     C28783   5.575  10.976   8.395 -0.9017 -0.1904 -0.9237
  214MOL0     C28784   5.471  10.943   8.310 -0.2480 -0.5925  0.3046
  214MOL0     O28785   5.406  10.826   8.339  0.2304 -0.3324 -0.3167
  214MOL0     C28786   5.330  10.768   8.242  0.4464  0.4492 -0.0205
  214MOL0     C28787   5.233  10.833   8.163  0.2128 -0.1110  0.4503
  214MOL0     C28788   5.157  10.773   8.068 -0.8094 -0.4404  1.1340
  214MOL0     C28789   5.196  10.643   8.037  0.0976  0.4841 -0.6181
  214MOL0     O28790   5.139  10.565   7.940  0.2409 -0.1989 -0.2044
  214MOL0     C28791   5.074  10.631   7.832  1.2870  0.1910  0.7156
  214MOL0     C28792   5.086  10.549   7.696  0.9256 -0.1400 -0.1858
  214MOL0     C28793   5.025  10.411   7.710  0.5326  0.6751  0.2863
  214MOL0     C28794   5.062  10.324   7.590  0.0723  0.1255  0.4188
  214MOL0     C28795   4.937  10.234   7.560  0.2088 -0.0568 -0.1772
  214MOL0     C28796   4.977  10.085   7.528  0.4688  0.2335  0.2638
  214MOL0     C28797   4.849  10.029   7.462 -0.1068  0.3964 -0.4927
  214MOL0     C28798   4.872   9.889   7.417 -0.7273  0.0368 -0.0892
  214MOL0    Cl28799   4.853   9.764   7.543 -0.4607 -0.2346  0.0655
  214MOL0     C28800   5.301  10.578   8.104 -0.4215 -0.4376  0.4726
  214MOL0     C28801   5.362  10.639   8.210 -0.4240  0.9226  0.1353
  214MOL0     O28802   5.450  11.018   8.212 -0.2565  0.5448 -0.1459
  214MOL0     C28803   5.624  10.880   8.498  0.0218 -0.4160 -0.6761
  214MOL0     C28804   5.728  10.920   8.579 -0.2687 -0.0317 -0.6863
  214MOL0     N28805   6.412  11.137   8.788 -0.1851 -0.4875 -0.2587
  214MOL0     N28806   6.542  11.106   8.763  0.9080  0.1991 -0.2737
  214MOL0     C28807   7.135  10.837   8.833 -0.1149 -0.3664  0.4225
  214MOL0     C28808   7.148  10.879   8.702 -0.4097 -0.2785 -0.0602
  214MOL0     C28809   7.347  11.037   8.326 -1.2095 -0.0356  0.1510
  214MOL0     C28810   7.244  11.135   8.325 -0.5552  0.4269  0.3649
  214MOL0     C28811   7.202  11.184   8.204  0.4249  0.4686  0.2390
  214MOL0     C28812   7.273  11.168   8.086  0.3389  0.2813  0.6465
  214MOL0     O28813   7.225  11.235   7.968 -0.6845 -0.2364 -0.1329
  214MOL0     C28814   7.135  11.159   7.883 -1.2090  0.3346 -0.8283
  214MOL0     C28815   7.115  11.232   7.744 -0.0182 -1.1420 -0.6516
  214MOL0     C28816   7.047  11.370   7.745  0.5126 -0.6470 -0.9517
  214MOL0     C28817   6.901  11.367   7.750 -0.0245 -0.3037  0.0821
  214MOL0     C28818   6.854  11.323   7.888 -0.1380 -0.0029  0.5162
  214MOL0     C28819   6.824  11.306   8.004 -0.0550  0.1632 -0.3123
  214MOL0     C28820   7.368  11.065   8.085 -1.0451 -0.1028 -0.5424
  214MOL0     C28821   7.412  11.000   8.205  0.2595 -0.4888  0.3221
  214MOL0     C28822   7.508  10.884   8.195  0.6037 -0.3230  0.3250
  214MOL0     H28823   7.493  10.902   8.717  1.1213 -0.9645  2.1493
  214MOL0     H28824   7.453  10.829   8.951 -2.3099 -1.5462  2.4496
  214MOL0     H28825   7.377  10.785   9.161 -0.4816  0.1310 -0.4433
  214MOL0     H28826   7.279  10.925   9.126 -1.8970 -0.7414 -4.1491
  214MOL0     H28827   7.229  10.831   9.337  3.9087 -0.6048 -1.7939
  214MOL0     H28828   7.185  10.678   9.273 -1.2955  0.5987  2.7572
  214MOL0     H28829   6.977  10.795   9.302 -0.7567 -0.3431 -0.4610
  214MOL0     H28830   7.004  10.818   9.130  0.7149 -1.0736 -0.4262
  214MOL0     H28831   7.077  11.047   9.308 -0.5498  1.5919 -0.8895
  214MOL0     H28832   7.067  11.052   9.138 -3.5638  2.2615 -0.8899
  214MOL0     H28833   6.848  11.009   9.347  0.3671  1.8503  0.5384
  214MOL0     H28834   6.870  11.148   9.251  0.2629  0.6715 -1.7610
  214MOL0     H28835   6.787  10.892   9.123 -1.0876  0.1308  0.1543
  214MOL0     H28836   6.679  11.019   9.164 -1.9566 -2.7129 -2.4212
  214MOL0     H28837   6.912  11.054   8.974 -0.6771 -1.2242  1.0112
  214MOL0     H28838   6.788  11.177   8.978  0.8224 -0.2567 -0.0277
  214MOL0     H28839   6.783  11.004   8.786  4.6342  0.3833  2.1309
  214MOL0     H28840   6.719  10.887   8.914 -0.6944 -0.2021 -1.9681
  214MOL0     H28841   6.491  10.967   9.059  0.0397  0.6234  0.2091
  214MOL0     H28842   6.254  11.034   9.066  2.3389  3.8481  1.5603
  214MOL0     H28843   6.188  11.176   8.982 -3.9826 -1.2746 -0.6882
  214MOL0     H28844   6.179  10.885   8.857 -0.6624  0.3633  0.3312
  214MOL0     H28845   6.041  10.972   8.928 -1.3043  0.9892 -1.0202
  214MOL0     H28846   6.203  11.042   8.668 -0.4898 -0.5370 -0.2177
  214MOL0     H28847   6.106  11.163   8.734 -0.2806 -0.3651 -0.7728
  214MOL0     H28848   5.950  10.909   8.735 -0.4661 -1.3610 -1.5191
  214MOL0     H28849   6.027  10.927   8.583  1.4386  1.5971 -0.1050
  214MOL0     H28850   5.809  11.235   8.468  2.9530 -1.5016  1.4772
  214MOL0     H28851   5.592  11.187   8.338 -4.4956 -3.0617 -2.5853
  214MOL0     H28852   5.221  10.940   8.171  1.6056  0.7967 -5.2565
  214MOL0     H28853   5.082  10.825   8.010 -1.8335  0.6829  3.3463
  214MOL0     H28854   4.968  10.638   7.861  1.0076  2.5663 -0.6659
  214MOL0     H28855   5.122  10.728   7.821  3.3680 -0.6993  1.5533
  214MOL0     H28856   5.034  10.599   7.614  1.2159 -3.6597 -2.7451
  214MOL0     H28857   5.188  10.532   7.662  0.0650 -3.6078 -1.3994
  214MOL0     H28858   5.071  10.360   7.796 -1.4986 -1.2131  0.3370
  214MOL0     H28859   4.922  10.412   7.745  1.6029 -1.0958  3.9903
  214MOL0     H28860   5.146  10.261   7.622 -0.6582 -0.3112  1.5562
  214MOL0     H28861   5.085  10.389   7.505  0.8834  0.9823  1.2651
  214MOL0     H28862   4.882  10.279   7.478  0.4752 -1.3153 -1.0718
  214MOL0     H28863   4.873  10.245   7.648  1.3488 -0.0102  0.6828
  214MOL0     H28864   5.070  10.068   7.473 -0.7779 -0.6738 -1.7056
  214MOL0     H28865   4.999  10.029   7.619 -0.4704  0.8517  0.8881
  214MOL0     H28866   4.830  10.098   7.379  3.5822  1.2250 -0.8376
  214MOL0     H28867   4.754  10.032   7.517 -0.3114 -0.1029 -0.8156
  214MOL0     H28868   4.812   9.849   7.335  1.9005 -0.5007 -1.8968
  214MOL0     H28869   4.977   9.879   7.386 -1.6519 -0.7469 -3.3257
  214MOL0     H28870   5.334  10.482   8.065 -1.8229 -1.7472  2.3428
  214MOL0     H28871   5.445  10.581   8.249 -0.7462 -2.2950 -3.3623
  214MOL0     H28872   5.578  10.782   8.507 -2.6264  0.7653 -0.4343
  214MOL0     H28873   5.747  10.841   8.652 -0.6210  1.1722  0.7605
  214MOL0     H28874   7.042  10.796   8.871 -1.8728  2.1592 -0.8982
  214MOL0     H28875   7.063  10.906   8.640 -1.0923  1.5707  1.5795
  214MOL0     H28876   7.184  11.150   8.414 -1.2170  2.2859 -0.3619
  214MOL0     H28877   7.118  11.252   8.215 -1.6955 -1.8237 -0.5196
  214MOL0     H28878   7.041  11.127   7.930 -0.2372 -1.0779  0.2140
  214MOL0     H28879   7.196  11.070   7.864  0.3325  0.1765  3.6131
  214MOL0     H28880   7.062  11.157   7.685  1.2126 -3.2229  0.7283
  214MOL0     H28881   7.210  11.247   7.692 -0.9094 -1.6529 -2.4973
  214MOL0     H28882   7.068  11.439   7.663  0.6381  2.4164  1.4905
  214MOL0     H28883   7.091  11.431   7.824  0.1401  0.4035 -1.5437
  214MOL0     H28884   6.858  11.462   7.716 -0.5974  1.0140  4.0374
  214MOL0     H28885   6.869  11.290   7.678  2.1647 -1.0344 -0.1846
  214MOL0     H28886   6.800  11.303   8.108  0.1310 -1.1351 -0.2988
  214MOL0     H28887   7.407  11.054   7.984  0.0925  0.2089 -0.1530
  214MOL0     H28888   7.542  10.875   8.091 -1.1622 -2.4759 -0.1295
  214MOL0     H28889   7.599  10.895   8.254 -0.6742  0.4084  2.2743
  214MOL0     H28890   7.464  10.788   8.223 -3.1202  1.7923  2.5485
  215MOL0     O28891   6.039   6.276  10.357  0.6887  0.0546  0.4633
  215MOL0     C28892   6.136   6.328  10.305  0.5275  0.7385 -0.2329
  215MOL0     O28893   6.199   6.295  10.186  0.6647  0.4377  0.3722
  215MOL0     C28894   6.142   6.188  10.123 -0.7014  0.2264  0.0117
  215MOL0     C28895   6.241   6.099  10.076  0.0361 -0.6089 -0.1255
  215MOL0     C28896   6.207   5.989  10.001  0.2440 -0.2763  0.4257
  215MOL0     C28897   6.079   5.975   9.958  0.4246  1.2141 -0.3441
  215MOL0     O28898   6.026   5.885   9.877 -0.8184 -0.5220 -0.4180
  215MOL0     C28899   6.122   5.834   9.774  0.3231  0.8604  0.2444
  215MOL0     C28900   6.111   5.925   9.647  0.1473  0.5521  0.9628
  215MOL0     C28901   6.255   5.942   9.586  0.0312 -0.3199  0.3709
  215MOL0     C28902   6.252   5.998   9.446  0.7824  0.1138  0.8961
  215MOL0     C28903   6.196   6.141   9.428  0.0119 -0.1088 -0.6640
  215MOL0     C28904   6.220   6.183   9.279 -0.7713  0.0508  0.3548
  215MOL0     C28905   6.128   6.299   9.249  0.0985 -0.2492 -0.4738
  215MOL0     C28906   6.150   6.369   9.112 -0.4411  0.4289 -0.1530
  215MOL0     N28907   6.268   6.455   9.110  0.5242 -0.4615 -0.0726
  215MOL0     C28908   6.302   6.567   9.180  0.1193  0.3310 -0.0471
  215MOL0     C28909   6.428   6.596   9.152 -0.8485  0.2561  0.0445
  215MOL0     C28910   6.514   6.705   9.210 -0.1220  0.6867  0.6526
  215MOL0     C28911   6.454   6.801   9.314  0.6275 -0.0926  0.2332
  215MOL0     C28912   6.554   6.893   9.379  0.2403 -0.2458 -0.1821
  215MOL0     C28913   6.485   6.982   9.484  0.6470 -0.0640 -1.2596
  215MOL0     O28914   6.574   7.065   9.559  0.3631  0.1652  0.8469
  215MOL0     C28915   6.546   7.197   9.581 -1.1120  0.4162  0.3496
  215MOL0     C28916   6.650   7.285   9.557 -0.2186 -0.9897 -0.9137
  215MOL0     C28917   6.628   7.425   9.570  0.2316  0.6089 -0.3268
  215MOL0     C28918   6.500   7.469   9.605  0.7508 -0.0444 -0.1063
  215MOL0     C28919   6.474   7.615   9.611  0.1104 -0.6138 -0.7730
  215MOL0     O28920   6.344   7.661   9.580  0.6501 -0.4633 -0.3359
  215MOL0     C28921   6.323   7.797   9.572 -0.3386  0.2115  0.3223
  215MOL0     C28922   6.404   7.900   9.504  1.2523 -0.1350 -0.7900
  215MOL0     C28923   6.356   8.032   9.502 -0.2573 -0.6281 -1.5038
  215MOL0     C28924   6.236   8.068   9.560 -0.2427  0.0644  0.3965
  215MOL0     O28925   6.210   8.201   9.551  0.3644 -0.0037  1.2673
  215MOL0     C28926   6.109   8.267   9.631  0.1774  0.3294 -0.1374
  215MOL0     C28927   6.088   8.411   9.581 -0.1646 -0.5075  0.5896
  215MOL0     C28928   6.065   8.413   9.434  0.6880  0.1626  0.1145
  215MOL0     C28929   6.006   8.541   9.381 -0.1386 -0.6553  1.1525
  215MOL0     C28930   6.102   8.661   9.360 -1.4090  0.5985 -0.4646
  215MOL0     C28931   6.031   8.775   9.302 -0.1382  1.3711  0.0054
  215MOL0     C28932   6.125   8.883   9.248 -0.0708  0.5642  0.0044
  215MOL0     C28933   6.214   8.840   9.125 -0.6553  0.9045 -0.2311
  215MOL0    Cl28934   6.293   8.963   9.030  0.2557 -0.3085  0.0786
  215MOL0     C28935   6.163   7.967   9.627  0.0671 -0.2194  0.5486
  215MOL0     C28936   6.205   7.833   9.623  0.3741 -0.0475 -0.0560
  215MOL0     O28937   6.567   7.696   9.611 -0.6108  0.5384  0.2162
  215MOL0     C28938   6.395   7.379   9.613 -0.7150  0.7731 -0.1212
  215MOL0     C28939   6.418   7.242   9.603  0.0321  0.2728 -0.5412
  215MOL0     N28940   6.483   6.492   9.074 -0.1187  0.1241  0.2032
  215MOL0     N28941   6.382   6.415   9.050 -0.5494 -0.3920 -0.4350
  215MOL0     C28942   5.977   6.049  10.021 -0.0542 -0.8858 -1.2548
  215MOL0     C28943   6.006   6.159  10.103  0.1663 -0.0610 -0.4612
  215MOL0     C28944   6.222   6.426  10.381  0.4331 -0.4316  0.6614
  215MOL0     C28945   6.345   6.474  10.328  0.0437  0.5776 -0.0336
  215MOL0     C28946   6.436   6.554  10.401 -0.5220  0.0578 -0.4954
  215MOL0     C28947   6.398   6.615  10.517 -0.0574 -0.0534 -0.3105
  215MOL0     O28948   6.473   6.717  10.571 -0.1889  0.0326 -0.1455
  215MOL0     C28949   6.410   6.845  10.600  0.0717  0.3657  0.5322
  215MOL0     C28950   6.443   6.944  10.488  0.6215  0.0847  0.2337
  215MOL0     C28951   6.429   6.898  10.346 -0.0290 -0.3448  0.5635
  215MOL0     C28952   6.292   6.852  10.307  0.2671  0.1868 -0.6671
  215MOL0     C28953   6.191   6.959  10.280  0.1063 -0.2859 -0.1139
  215MOL0     C28954   6.097   7.037  10.273 -0.0689  1.1133  0.2660
  215MOL0     C28955   6.282   6.570  10.582  0.2019  0.3760 -0.6318
  215MOL0     C28956   6.191   6.477  10.510 -0.6174  0.5343  0.3183
  215MOL0     C28957   6.049   6.452  10.569 -0.3296  0.2712  0.4718
  215MOL0     H28958   6.346   6.120  10.096 -0.2197  1.0476 -0.4431
  215MOL0     H28959   6.282   5.918   9.969 -1.5481 -1.8821 -0.4924
  215MOL0     H28960   6.222   5.817   9.816  1.8071  0.5599 -3.0855
  215MOL0     H28961   6.080   5.736   9.747 -1.5219  1.8502 -0.6849
  215MOL0     H28962   6.062   6.021   9.664 -2.8052 -0.1437 -2.4015
  215MOL0     H28963   6.052   5.870   9.574  0.9461 -0.1693  0.8354
  215MOL0     H28964   6.313   5.849   9.589  0.6441 -0.0092  4.5639
  215MOL0     H28965   6.314   6.010   9.648  0.1403  2.6326 -2.6516
  215MOL0     H28966   6.353   5.984   9.405  0.2978 -0.0248 -0.3070
  215MOL0     H28967   6.174   5.940   9.396 -2.1137  1.8301  3.1200
  215MOL0     H28968   6.092   6.120   9.453  0.6787 -1.5980  1.1006
  215MOL0     H28969   6.242   6.210   9.500 -0.5452 -1.9357  1.5909
  215MOL0     H28970   6.321   6.217   9.254  0.1447 -2.4583  0.3201
  215MOL0     H28971   6.212   6.103   9.205  2.9371 -1.1501  1.0360
  215MOL0     H28972   6.122   6.368   9.334 -0.9533 -2.2458  1.1561
  215MOL0     H28973   6.030   6.249   9.252  1.6154 -3.7705  4.7883
  215MOL0     H28974   6.135   6.296   9.031 -2.1925  2.4022 -1.7375
  215MOL0     H28975   6.059   6.430   9.108 -0.4187  0.4874  0.2423
  215MOL0     H28976   6.244   6.624   9.252  0.0117  0.2448 -0.0659
  215MOL0     H28977   6.606   6.674   9.260 -1.2401 -1.2583  1.6230
  215MOL0     H28978   6.545   6.770   9.127  1.3888 -1.1324 -0.2600
  215MOL0     H28979   6.375   6.866   9.274  0.8106 -0.2829 -0.4585
  215MOL0     H28980   6.408   6.741   9.393  1.9189 -0.0307  1.0537
  215MOL0     H28981   6.600   6.954   9.301  2.4070 -1.0435  0.4195
  215MOL0     H28982   6.631   6.833   9.427  0.8113  0.2858 -0.4291
  215MOL0     H28983   6.425   6.927   9.557  1.4893 -1.4787 -1.5963
  215MOL0     H28984   6.416   7.040   9.421 -0.2310 -0.8210 -1.0127
  215MOL0     H28985   6.747   7.247   9.525  1.8872  1.0538  2.4755
  215MOL0     H28986   6.706   7.497   9.547 -0.6562  0.9869 -2.3297
  215MOL0     H28987   6.500   7.872   9.462  1.5116 -0.9406  0.2897
  215MOL0     H28988   6.420   8.108   9.458  0.6458  0.1351  0.9672
  215MOL0     H28989   6.019   8.206   9.634  0.3540  0.1091  1.4647
  215MOL0     H28990   6.157   8.286   9.728  1.7397  0.1138 -0.8290
  215MOL0     H28991   6.007   8.460   9.635 -1.9996  1.6294 -3.6815
  215MOL0     H28992   6.163   8.486   9.608 -1.8751  1.0366  1.2767
  215MOL0     H28993   6.161   8.389   9.387  1.4037 -1.6684  2.3057
  215MOL0     H28994   5.994   8.333   9.411  2.8683 -1.3298 -1.9518
  215MOL0     H28995   5.915   8.576   9.430  0.4139  0.8282  1.1697
  215MOL0     H28996   5.971   8.519   9.280  0.2477 -2.0122  1.2888
  215MOL0     H28997   6.189   8.640   9.298 -1.4876  0.7007 -0.6102
  215MOL0     H28998   6.141   8.688   9.458 -2.3817 -2.8717  1.0435
  215MOL0     H28999   5.979   8.732   9.216  2.6401 -1.0759 -0.6359
  215MOL0     H29000   5.964   8.820   9.375  0.0476  1.8442 -0.1159
  215MOL0     H29001   6.196   8.910   9.327  1.6065  3.5511 -2.3386
  215MOL0     H29002   6.075   8.977   9.221 -1.4485  0.2893  1.4380
  215MOL0     H29003   6.294   8.781   9.171 -1.1967 -0.1321 -0.5965
  215MOL0     H29004   6.150   8.777   9.063 -0.1232  0.8222 -0.6979
  215MOL0     H29005   6.063   7.997   9.654 -1.8394 -1.8736 -3.6752
  215MOL0     H29006   6.153   7.759   9.683  1.0454 -1.3357 -1.0277
  215MOL0     H29007   6.296   7.418   9.634 -0.4369  1.6496 -0.4062
  215MOL0     H29008   6.341   7.169   9.624  1.1936 -0.7776  0.2535
  215MOL0     H29009   5.873   6.021  10.012 -1.3392  2.5068  1.1178
  215MOL0     H29010   5.928   6.228  10.134  0.5068 -0.2561  0.8860
  215MOL0     H29011   6.381   6.448  10.229 -1.2558  1.2580 -0.7134
  215MOL0     H29012   6.538   6.572  10.366  0.1990  0.5529  1.7143
  215MOL0     H29013   6.453   6.885  10.692  1.6470 -0.3709  0.1497
  215MOL0     H29014   6.302   6.835  10.618 -0.1791  1.5123 -0.2426
  215MOL0     H29015   6.544   6.981  10.511 -0.3837  2.3555  1.2986
  215MOL0     H29016   6.366   7.018  10.512  2.6780  2.9702 -1.4097
  215MOL0     H29017   6.517   6.841  10.314 -0.6769  0.5984 -3.5493
  215MOL0     H29018   6.457   6.988  10.290  3.9458 -0.9932  1.2059
  215MOL0     H29019   6.307   6.796  10.214 -0.6750 -3.4542  1.2019
  215MOL0     H29020   6.261   6.784  10.386  1.8746  0.5606  0.3335
  215MOL0     H29021   6.015   7.104  10.255 -1.0368 -0.4132 -1.2598
  215MOL0     H29022   6.255   6.618  10.676  1.4487  0.2265 -0.1812
  215MOL0     H29023   5.983   6.499  10.495  0.6008 -0.0736 -0.6126
  215MOL0     H29024   6.033   6.345  10.584  0.8231  0.1923  1.2047
  215MOL0     H29025   6.036   6.503  10.665 -2.6170  0.2878  0.2083
  216MOL0     O29026   9.921   5.224   5.547 -0.9525 -0.1123  0.2900
  216MOL0     C29027   9.848   5.154   5.610  0.2452 -0.4955 -0.4918
  216MOL0     O29028   9.735   5.090   5.568  0.6412  0.1035 -0.5671
  216MOL0     C29029   9.713   5.080   5.428 -0.1671 -0.4530  0.1622
  216MOL0     C29030   9.688   5.197   5.351 -0.1658  0.8737 -0.8450
  216MOL0     C29031   9.682   5.178   5.215 -0.3656  0.2333  0.0540
  216MOL0     C29032   9.675   5.055   5.155  0.0294  0.3578  0.4019
  216MOL0     O29033   9.679   5.036   5.013 -0.9379 -0.5087  0.0499
  216MOL0     C29034   9.566   4.975   4.949  0.8747  0.1585 -0.3913
  216MOL0     C29035   9.604   4.976   4.802  0.0736  0.2970  0.0949
  216MOL0     C29036   9.641   5.116   4.744 -0.2401  0.2121  0.9919
  216MOL0     C29037   9.515   5.176   4.685  0.5476 -0.6082  0.7213
  216MOL0     C29038   9.538   5.326   4.642  0.1143 -0.9315  0.6896
  216MOL0     C29039   9.407   5.374   4.589  0.1815 -0.6106 -0.2133
  216MOL0     C29040   9.410   5.526   4.569  0.8503 -0.3886 -0.6999
  216MOL0     C29041   9.292   5.587   4.483 -0.5346  0.0804  0.0399
  216MOL0     N29042   9.163   5.551   4.535  0.4255  0.1675  1.1468
  216MOL0     C29043   9.082   5.463   4.471  0.5017  0.3505  0.2102
  216MOL0     C29044   8.959   5.461   4.536 -1.0248  0.0684  0.2676
  216MOL0     C29045   8.840   5.365   4.511 -0.6175 -0.0736 -0.5273
  216MOL0     C29046   8.879   5.253   4.410  0.0506 -0.3054  1.4185
  216MOL0     C29047   8.769   5.155   4.403  0.4891  0.3302  0.1468
  216MOL0     C29048   8.631   5.194   4.362  0.2688 -0.1581 -0.7179
  216MOL0     O29049   8.610   5.183   4.226  0.2537 -0.8509  0.2550
  216MOL0     C29050   8.482   5.210   4.176  0.4938  0.7335  0.1274
  216MOL0     C29051   8.466   5.188   4.034 -0.0453 -0.3527 -0.1042
  216MOL0     C29052   8.341   5.174   3.973  0.1586  1.0110  0.5691
  216MOL0     C29053   8.227   5.224   4.046  0.5996  0.8840 -0.4412
  216MOL0     C29054   8.097   5.265   3.969 -0.2019 -0.6789 -0.8133
  216MOL0     O29055   7.997   5.321   4.035 -0.5558  0.4588  0.6910
  216MOL0     C29056   7.878   5.330   3.973 -0.1312  0.2858 -0.2509
  216MOL0     C29057   7.795   5.216   3.987  1.4651 -0.7038  0.7009
  216MOL0     C29058   7.671   5.217   3.928  0.3474  0.4557 -0.5206
  216MOL0     C29059   7.628   5.318   3.837  1.0390  0.0619 -1.1187
  216MOL0     O29060   7.505   5.318   3.781 -0.0346  0.4375 -0.6621
  216MOL0     C29061   7.417   5.212   3.779 -0.3411 -0.0246 -0.9611
  216MOL0     C29062   7.276   5.264   3.748  0.2976  0.6293  0.1562
  216MOL0     C29063   7.278   5.311   3.604  0.0369 -0.2155 -0.1138
  216MOL0     C29064   7.205   5.438   3.587 -0.1585  0.4136  0.3847
  216MOL0     C29065   7.230   5.493   3.445  0.6501 -0.1455 -1.0354
  216MOL0     C29066   7.148   5.621   3.438 -0.6223  0.3419  0.8140
  216MOL0     C29067   7.169   5.678   3.296 -0.0672  0.8368 -0.2817
  216MOL0     C29068   7.082   5.796   3.277 -0.0233  0.0369  0.0541
  216MOL0    Cl29069   7.139   5.944   3.351  0.0889 -0.0616 -0.3269
  216MOL0     C29070   7.708   5.435   3.824 -0.3111  0.0503  0.1894
  216MOL0     C29071   7.831   5.440   3.896 -0.0059  0.4075  0.2265
  216MOL0     O29072   8.096   5.233   3.851  0.5544 -0.4514 -0.1920
  216MOL0     C29073   8.233   5.259   4.187 -0.6592  0.6745  0.1247
  216MOL0     C29074   8.361   5.247   4.247 -0.4391 -0.5731  0.4513
  216MOL0     N29075   8.977   5.552   4.638 -0.5883 -0.1406  0.9608
  216MOL0     N29076   9.097   5.602   4.639  0.0820 -0.7211  0.1865
  216MOL0     C29077   9.693   4.937   5.232  0.2443 -1.1088 -0.6007
  216MOL0     C29078   9.717   4.955   5.367 -0.3524 -0.4425 -0.2463
  216MOL0     C29079   9.885   5.153   5.753  0.4916  0.6302 -0.2715
  216MOL0     C29080   9.844   5.035   5.824  0.1193  0.5973  0.1999
  216MOL0     C29081   9.859   5.022   5.963 -0.5110 -0.0214 -0.1305
  216MOL0     C29082   9.930   5.118   6.031 -0.6421  0.1220  0.4496
  216MOL0     O29083   9.928   5.101   6.164 -1.7167  0.0980 -0.7951
  216MOL0     C29084  10.057   5.135   6.233 -0.8779  0.1632 -0.4167
  216MOL0     C29085  10.175   5.047   6.179 -0.2659 -0.2477 -0.6870
  216MOL0     C29086  10.300   5.039   6.273  0.0872 -1.0508  0.2012
  216MOL0     C29087  10.358   5.182   6.295  0.0532 -0.8560 -0.3151
  216MOL0     C29088  10.448   5.244   6.197  0.9845  0.1270  0.4722
  216MOL0     C29089  10.538   5.291   6.125  0.0608 -0.0145 -0.1568
  216MOL0     C29090   9.981   5.238   5.966  0.0755 -0.0281 -0.3014
  216MOL0     C29091   9.956   5.256   5.829  0.6365 -0.2581  0.5641
  216MOL0     C29092   9.997   5.393   5.777 -0.6477 -0.4474 -0.0010
  216MOL0     H29093   9.699   5.291   5.404  1.3375 -0.2804  1.0523
  216MOL0     H29094   9.667   5.268   5.156  1.7260  0.1723 -0.6323
  216MOL0     H29095   9.548   4.874   4.988  0.5349  0.9730  1.6951
  216MOL0     H29096   9.484   5.044   4.969  1.9849  1.1652  0.9068
  216MOL0     H29097   9.525   4.938   4.736 -2.2921  3.1974  1.0422
  216MOL0     H29098   9.688   4.907   4.792  1.1135  1.5782 -0.3148
  216MOL0     H29099   9.718   5.120   4.666  0.8654  0.9297  2.0698
  216MOL0     H29100   9.673   5.183   4.825  1.3928 -1.3095  1.6974
  216MOL0     H29101   9.492   5.114   4.598  1.7366 -0.4973  0.3137
  216MOL0     H29102   9.436   5.167   4.760  0.6166  1.0043  1.0119
  216MOL0     H29103   9.568   5.388   4.726  1.2739 -1.3209  0.5757
  216MOL0     H29104   9.614   5.331   4.563  0.2744 -2.8027  0.6721
  216MOL0     H29105   9.403   5.326   4.491  2.7183 -0.7790 -0.2971
  216MOL0     H29106   9.322   5.343   4.651 -1.1706 -1.7306 -2.4887
  216MOL0     H29107   9.500   5.558   4.515  0.6145 -3.4936 -3.2361
  216MOL0     H29108   9.419   5.574   4.666  0.2615  1.6276 -1.6035
  216MOL0     H29109   9.305   5.695   4.474  1.4102 -0.1180  0.1870
  216MOL0     H29110   9.302   5.548   4.381 -1.4480 -0.2384  0.0581
  216MOL0     H29111   9.105   5.390   4.395 -0.8994 -0.9620  0.9817
  216MOL0     H29112   8.801   5.324   4.604 -0.4110  3.2650  1.1884
  216MOL0     H29113   8.755   5.426   4.480 -1.5917 -0.4473  1.2625
  216MOL0     H29114   8.894   5.300   4.312  2.2756  1.5225  2.5418
  216MOL0     H29115   8.964   5.194   4.445 -1.0867 -2.1476  1.2253
  216MOL0     H29116   8.761   5.121   4.507 -4.1761  0.3352 -0.0271
  216MOL0     H29117   8.811   5.071   4.347  2.5218 -0.4379  2.5900
  216MOL0     H29118   8.610   5.301   4.376  0.2835 -0.1999 -0.3853
  216MOL0     H29119   8.551   5.141   4.415  0.2927  2.4089  2.1647
  216MOL0     H29120   8.551   5.160   3.972  0.4323 -0.2160  0.4709
  216MOL0     H29121   8.330   5.147   3.869  4.0083  1.5196 -0.1353
  216MOL0     H29122   7.823   5.127   4.043  4.6728 -0.2725 -0.0058
  216MOL0     H29123   7.602   5.140   3.960  1.1574  0.2350  0.7723
  216MOL0     H29124   7.454   5.135   3.712 -1.4080 -0.8792 -0.5885
  216MOL0     H29125   7.408   5.178   3.883  0.4670  1.6984 -0.2805
  216MOL0     H29126   7.192   5.194   3.749 -1.5700  2.3421 -5.1455
  216MOL0     H29127   7.257   5.338   3.827  1.8291  0.6730  0.5229
  216MOL0     H29128   7.384   5.327   3.580  0.4784  1.9674  2.7556
  216MOL0     H29129   7.246   5.234   3.533 -0.7367 -0.8822  0.9353
  216MOL0     H29130   7.250   5.513   3.653  1.2317 -1.7315  1.9834
  216MOL0     H29131   7.099   5.432   3.614 -0.3388  0.4645 -0.2858
  216MOL0     H29132   7.190   5.412   3.384  3.3193 -3.7988  1.5817
  216MOL0     H29133   7.338   5.503   3.432  0.8289 -3.1741 -2.9951
  216MOL0     H29134   7.041   5.604   3.454 -1.9429  3.1158 -3.3986
  216MOL0     H29135   7.188   5.687   3.516 -1.3277  2.0023 -0.1806
  216MOL0     H29136   7.143   5.598   3.226  0.7934  1.4427 -1.3147
  216MOL0     H29137   7.276   5.695   3.282  0.1019 -0.1399 -0.2612
  216MOL0     H29138   7.091   5.800   3.168 -3.9113 -3.7697 -0.6645
  216MOL0     H29139   6.979   5.774   3.304 -0.8766  2.7549 -0.7078
  216MOL0     H29140   7.665   5.509   3.758 -4.5780 -0.8461  1.6394
  216MOL0     H29141   7.887   5.532   3.884  1.8111 -0.7676 -0.7568
  216MOL0     H29142   8.145   5.287   4.244 -0.4694  2.6019 -0.4544
  216MOL0     H29143   8.359   5.243   4.355 -2.0166 -4.9976  0.4606
  216MOL0     H29144   9.683   4.842   5.180  0.2010 -0.4039 -1.9152
  216MOL0     H29145   9.728   4.868   5.430 -1.3230 -0.5472 -0.2070
  216MOL0     H29146   9.793   4.955   5.770 -0.0470  0.8139  0.0286
  216MOL0     H29147   9.821   4.932   6.011 -1.5410  0.4055 -0.1061
  216MOL0     H29148  10.049   5.121   6.341 -4.0969 -0.4698 -0.6481
  216MOL0     H29149  10.081   5.239   6.206  0.0915 -0.5079 -2.3302
  216MOL0     H29150  10.213   5.096   6.089  3.3381  1.8050  1.6815
  216MOL0     H29151  10.150   4.942   6.161  2.2715 -1.5694  2.5222
  216MOL0     H29152  10.374   4.966   6.240 -0.3396 -1.0451 -0.8237
  216MOL0     H29153  10.274   5.017   6.377  2.0167  0.2102  1.0075
  216MOL0     H29154  10.273   5.248   6.314  0.4588 -0.7791  1.4907
  216MOL0     H29155  10.411   5.187   6.391 -1.4813  0.9516  0.5212
  216MOL0     H29156  10.620   5.331   6.069 -0.9429  0.3227 -1.4313
  216MOL0     H29157  10.034   5.314   6.022 -0.2043 -0.9694  1.2928
  216MOL0     H29158  10.092   5.385   5.724  1.1233 -0.3016  2.9151
  216MOL0     H29159   9.922   5.438   5.712  1.4709  2.2801 -0.7421
  216MOL0     H29160  10.014   5.463   5.860  1.5700  0.5155 -1.1737
  217MOL0     O29161   0.153   0.159   2.345  0.0207 -0.2636 -0.6374
  217MOL0     C29162   0.075   0.066   2.325  0.9559 -0.2682 -0.5849
  217MOL0     O29163   0.067  -0.013   2.209  0.9631 -0.1799 -0.6934
  217MOL0     C29164   0.147   0.009   2.111 -0.1179 -1.4617 -0.6628
  217MOL0     C29165   0.257  -0.076   2.102  0.5519 -0.9596  0.2082
  217MOL0     C29166   0.332  -0.064   1.984  0.1624  1.1146 -0.2731
  217MOL0     C29167   0.311   0.038   1.892 -0.6786 -0.6108 -0.3593
  217MOL0     O29168   0.367   0.040   1.769 -0.1828  0.3439 -0.7905
  217MOL0     C29169   0.506  -0.007   1.772 -0.4209 -0.8414 -0.0099
  217MOL0     C29170   0.595   0.070   1.675 -0.6449  0.4803 -0.2994
  217MOL0     C29171   0.551   0.023   1.530 -0.7756  0.6439 -0.3784
  217MOL0     C29172   0.593   0.119   1.421 -0.4177  0.2335  0.3725
  217MOL0     C29173   0.487   0.219   1.380 -0.0004 -0.1819  0.4646
  217MOL0     C29174   0.524   0.297   1.256 -0.2513  0.1099  0.3128
  217MOL0     C29175   0.414   0.411   1.233  0.3179  0.0414 -0.2146
  217MOL0     C29176   0.462   0.519   1.135 -1.2217  1.2034 -0.0353
  217MOL0     N29177   0.577   0.602   1.188  0.3360  0.2935  0.4578
  217MOL0     C29178   0.577   0.643   1.323  0.1154 -0.4617  0.0294
  217MOL0     C29179   0.646   0.760   1.312 -0.5202 -0.4664 -0.8870
  217MOL0     C29180   0.696   0.841   1.433 -1.2810 -0.0350  0.0106
  217MOL0     C29181   0.780   0.961   1.391  0.6985  0.1454 -0.1101
  217MOL0     C29182   0.806   1.064   1.506  0.6883  0.2865 -1.2824
  217MOL0     C29183   0.876   1.184   1.450 -0.4175 -0.0866 -0.9974
  217MOL0     O29184   1.012   1.147   1.434  0.0610  0.1050  0.5219
  217MOL0     C29185   1.116   1.230   1.427  0.4109 -0.1933 -0.0385
  217MOL0     C29186   1.228   1.165   1.360  0.3676 -1.1238 -0.5331
  217MOL0     C29187   1.352   1.232   1.348  0.1579 -0.2848 -0.2249
  217MOL0     C29188   1.371   1.367   1.408  0.1420  0.3458 -1.0384
  217MOL0     C29189   1.505   1.428   1.390  0.8520 -1.1264  0.0035
  217MOL0     O29190   1.588   1.380   1.300  0.0810 -0.4803  0.0763
  217MOL0     C29191   1.720   1.438   1.288  0.5537  0.0900 -0.1477
  217MOL0     C29192   1.773   1.477   1.167 -0.2241 -0.0874  0.4157
  217MOL0     C29193   1.903   1.521   1.157 -0.4592 -1.1418 -0.2011
  217MOL0     C29194   1.989   1.534   1.267 -0.3633  0.4979 -0.0517
  217MOL0     O29195   2.113   1.579   1.251  0.3675 -0.0991  0.7034
  217MOL0     C29196   2.172   1.648   1.361  0.5333  0.4189 -0.0167
  217MOL0     C29197   2.304   1.713   1.308  0.5253  0.4481 -0.1064
  217MOL0     C29198   2.277   1.833   1.208  0.1423 -0.8768  0.5010
  217MOL0     C29199   2.212   1.957   1.274  0.4696  0.8578 -0.4660
  217MOL0     C29200   2.169   2.053   1.168 -0.2805  0.1593 -0.0384
  217MOL0     C29201   2.284   2.091   1.071  0.1310  0.0667 -0.3793
  217MOL0     C29202   2.414   2.159   1.124  0.1360 -1.1911  0.3479
  217MOL0     C29203   2.389   2.290   1.177 -1.0564  0.2198  0.7091
  217MOL0    Cl29204   2.542   2.348   1.221 -0.0950  0.3985 -0.2636
  217MOL0     C29205   1.945   1.476   1.389 -0.1646 -0.2333 -0.6769
  217MOL0     C29206   1.813   1.438   1.400 -0.2003  0.5247 -0.6835
  217MOL0     O29207   1.513   1.539   1.439 -1.0857  0.7535 -0.0088
  217MOL0     C29208   1.256   1.424   1.462 -0.3982 -0.6442 -1.0286
  217MOL0     C29209   1.135   1.359   1.484 -0.5081  0.4759  0.4112
  217MOL0     N29210   0.660   0.806   1.177  0.5747 -1.0804  1.0612
  217MOL0     N29211   0.613   0.711   1.109  0.4279  0.0379 -0.5664
  217MOL0     C29212   0.202   0.122   1.902 -0.7890  0.6394 -0.7951
  217MOL0     C29213   0.116   0.110   2.012 -0.2153 -0.2494 -0.7038
  217MOL0     C29214  -0.030   0.047   2.436 -0.0088 -0.6013 -0.3548
  217MOL0     C29215  -0.151   0.007   2.396  0.4683  0.0326  0.2185
  217MOL0     C29216  -0.264  -0.003   2.475  0.8331 -0.9107 -0.8983
  217MOL0     C29217  -0.252   0.025   2.607 -0.5688  0.0423 -0.2614
  217MOL0     O29218  -0.356   0.002   2.700 -0.3025  0.4543  0.5179
  217MOL0     C29219  -0.483   0.072   2.666 -0.2689 -0.0449 -0.7744
  217MOL0     C29220  -0.460   0.225   2.683  0.6672  1.1527  0.1836
  217MOL0     C29221  -0.417   0.276   2.819  0.1141 -0.9213  0.3314
  217MOL0     C29222  -0.435   0.426   2.844 -0.3966 -0.4056  0.6755
  217MOL0     C29223  -0.314   0.492   2.808  0.4570 -0.2846  0.1522
  217MOL0     C29224  -0.210   0.543   2.781  0.0859 -0.2129  0.4640
  217MOL0     C29225  -0.119   0.052   2.656  0.8138 -0.7887  0.7839
  217MOL0     C29226  -0.009   0.071   2.575 -0.4866 -0.1927 -0.8304
  217MOL0     C29227   0.113   0.133   2.637  0.3571  1.1580 -0.6428
  217MOL0     H29228   0.263  -0.168   2.160 -0.7038 -1.3678 -0.2690
  217MOL0     H29229   0.412  -0.135   1.965  1.6338  2.7924 -0.6837
  217MOL0     H29230   0.542   0.006   1.874 -3.5410  0.7616  1.0227
  217MOL0     H29231   0.501  -0.113   1.745 -1.8805 -1.0059  0.8004
  217MOL0     H29232   0.701   0.045   1.680 -0.7421 -0.3894 -1.8062
  217MOL0     H29233   0.577   0.174   1.702 -2.0570  0.3118 -0.4937
  217MOL0     H29234   0.444   0.001   1.529 -0.6881  0.1555 -1.5701
  217MOL0     H29235   0.603  -0.070   1.505 -0.6102  0.9204 -1.0775
  217MOL0     H29236   0.683   0.171   1.455 -0.3600  0.6102 -0.3318
  217MOL0     H29237   0.618   0.055   1.335  0.1334  1.3232 -0.3016
  217MOL0     H29238   0.386   0.180   1.366 -0.2196  0.4547  0.2431
  217MOL0     H29239   0.480   0.290   1.463  1.0181  1.3754 -0.7220
  217MOL0     H29240   0.621   0.345   1.272  0.3887 -1.0141 -0.0138
  217MOL0     H29241   0.528   0.224   1.174 -1.0011 -0.8218  1.0871
  217MOL0     H29242   0.407   0.458   1.332 -1.2848  0.0092 -0.2910
  217MOL0     H29243   0.318   0.375   1.196  0.3310 -0.6513  0.4037
  217MOL0     H29244   0.486   0.476   1.037 -3.5735 -0.2418 -0.0464
  217MOL0     H29245   0.380   0.589   1.116 -0.9567  0.7200 -3.7652
  217MOL0     H29246   0.556   0.586   1.413  1.7478 -0.5875  0.3605
  217MOL0     H29247   0.616   0.884   1.494  1.7931  3.2973  2.0834
  217MOL0     H29248   0.763   0.774   1.488 -0.8708  0.1961 -0.2047
  217MOL0     H29249   0.883   0.933   1.366  0.2291 -3.4113  1.3026
  217MOL0     H29250   0.730   1.004   1.304  2.1276  2.1447 -0.0041
  217MOL0     H29251   0.868   1.027   1.588 -5.0992 -0.0980  3.6271
  217MOL0     H29252   0.708   1.086   1.548 -0.8905 -2.4911 -3.1621
  217MOL0     H29253   0.864   1.277   1.506 -2.0401 -3.2738  4.7490
  217MOL0     H29254   0.830   1.195   1.352  0.6125 -1.9749 -1.7480
  217MOL0     H29255   1.207   1.065   1.321 -2.1644 -0.9310  0.1497
  217MOL0     H29256   1.433   1.189   1.291  0.8771  0.1076  0.4825
  217MOL0     H29257   1.708   1.483   1.080 -3.0592  2.9878  2.4478
  217MOL0     H29258   1.926   1.547   1.054  2.0928  1.4924  0.8993
  217MOL0     H29259   2.112   1.726   1.407 -2.9319 -2.0098 -0.0305
  217MOL0     H29260   2.204   1.570   1.431 -2.3047  0.4641  1.4570
  217MOL0     H29261   2.367   1.751   1.389 -0.9611  1.4493  0.6235
  217MOL0     H29262   2.357   1.637   1.250 -2.5982 -0.6147 -1.7973
  217MOL0     H29263   2.377   1.870   1.183  0.3755 -0.1146  2.3797
  217MOL0     H29264   2.218   1.800   1.122  0.9750 -1.4276  0.1219
  217MOL0     H29265   2.287   2.010   1.334  0.8257 -3.2706  3.2716
  217MOL0     H29266   2.123   1.936   1.334 -0.2932 -2.9654 -2.5838
  217MOL0     H29267   2.120   2.137   1.218 -0.1752 -1.1696  2.4399
  217MOL0     H29268   2.092   2.012   1.102 -2.4844  2.6445  0.8185
  217MOL0     H29269   2.315   2.002   1.016  0.7644 -0.0008  0.0809
  217MOL0     H29270   2.243   2.157   0.994  1.1340  1.1304 -0.0297
  217MOL0     H29271   2.479   2.165   1.036  0.7459  0.0358  0.8644
  217MOL0     H29272   2.450   2.090   1.201  2.3589  1.6438  2.0545
  217MOL0     H29273   2.366   2.354   1.091  0.2518 -3.4827 -2.7051
  217MOL0     H29274   2.309   2.294   1.251 -1.8835  3.7691 -0.1940
  217MOL0     H29275   2.011   1.466   1.474  0.8450  0.3464 -1.3698
  217MOL0     H29276   1.779   1.393   1.493 -0.6869 -0.1152 -1.1606
  217MOL0     H29277   1.263   1.530   1.481 -1.1778 -0.1328 -3.2575
  217MOL0     H29278   1.054   1.400   1.544 -2.8178 -4.4207  1.1606
  217MOL0     H29279   0.189   0.197   1.825  0.6914  0.0182 -1.6832
  217MOL0     H29280   0.032   0.176   2.031 -1.8064 -1.7532 -2.2038
  217MOL0     H29281  -0.161  -0.031   2.295 -1.1268 -2.4771  1.2126
  217MOL0     H29282  -0.368  -0.023   2.449 -0.0325  1.8648  0.0562
  217MOL0     H29283  -0.569   0.030   2.719 -1.4186  1.1654 -1.6233
  217MOL0     H29284  -0.510   0.069   2.560  1.4171  1.9889 -1.3319
  217MOL0     H29285  -0.558   0.269   2.661 -0.5441 -2.1734 -1.8739
  217MOL0     H29286  -0.385   0.260   2.613  0.0021  3.1190  0.3916
  217MOL0     H29287  -0.312   0.252   2.835  0.0390 -0.2260  2.1169
  217MOL0     H29288  -0.476   0.220   2.893  0.8306 -0.1831  1.4890
  217MOL0     H29289  -0.509   0.482   2.785 -1.8674 -2.5670  0.3641
  217MOL0     H29290  -0.467   0.441   2.947 -1.4061 -1.1323  0.4799
  217MOL0     H29291  -0.119   0.592   2.751  2.9137 -4.3100  1.5943
  217MOL0     H29292  -0.108   0.074   2.762 -1.4848  2.3859  0.5388
  217MOL0     H29293   0.206   0.081   2.610 -1.7242 -2.7995 -1.0525
  217MOL0     H29294   0.123   0.240   2.618 -1.4757  1.0334 -2.7421
  217MOL0     H29295   0.108   0.135   2.746 -0.0658 -0.7834 -0.5888
  218MOL0     O29296   2.681   0.576   3.932  0.8245  0.0838 -0.2598
  218MOL0     C29297   2.783   0.614   3.866  0.9221 -0.5104 -0.4708
  218MOL0     O29298   2.821   0.739   3.853  0.6123  0.3513  0.0389
  218MOL0     C29299   2.740   0.836   3.906  0.4369 -0.4788 -1.0023
  218MOL0     C29300   2.658   0.927   3.829  0.6991  0.3151  0.5516
  218MOL0     C29301   2.561   1.015   3.878 -0.5894  0.7124  0.0543
  218MOL0     C29302   2.544   1.016   4.016 -0.0034  0.0190  0.8914
  218MOL0     O29303   2.447   1.093   4.078  0.0961  0.1876 -0.8145
  218MOL0     C29304   2.349   1.179   4.002 -0.0294 -0.5193  0.6379
  218MOL0     C29305   2.412   1.309   3.953 -1.1396  0.6871  0.6299
  218MOL0     C29306   2.407   1.414   4.064 -0.1357 -0.4950 -0.2834
  218MOL0     C29307   2.551   1.451   4.106  0.0364 -0.2813  0.1525
  218MOL0     C29308   2.544   1.567   4.213 -0.1691  0.5768  0.0752
  218MOL0     C29309   2.467   1.527   4.340  0.8569 -0.6644 -0.6097
  218MOL0     C29310   2.451   1.649   4.436 -0.5650  0.4385 -0.4030
  218MOL0     C29311   2.424   1.609   4.571 -0.9711  0.8648 -0.5728
  218MOL0     N29312   2.279   1.588   4.595 -0.0378 -0.2865  0.6834
  218MOL0     C29313   2.182   1.681   4.613  0.6103 -0.5541 -0.3586
  218MOL0     C29314   2.068   1.614   4.583  0.9310 -0.7640  0.9376
  218MOL0     C29315   1.933   1.681   4.555 -0.0350  0.1126 -0.2057
  218MOL0     C29316   1.826   1.601   4.493 -0.3857  0.9325 -0.3643
  218MOL0     C29317   1.710   1.688   4.453  0.3068  0.0997  0.4372
  218MOL0     C29318   1.605   1.606   4.373 -0.6447  0.1247 -0.1430
  218MOL0     O29319   1.534   1.517   4.462 -0.0243  0.2182  0.5453
  218MOL0     C29320   1.411   1.465   4.442  1.3476 -0.2248 -0.6683
  218MOL0     C29321   1.362   1.397   4.550  1.1333 -0.1776 -0.7687
  218MOL0     C29322   1.232   1.345   4.555  0.1513 -0.7268 -1.1312
  218MOL0     C29323   1.138   1.361   4.448 -0.0344  0.2895  0.2905
  218MOL0     C29324   0.993   1.313   4.450 -0.0139  0.1392  0.6131
  218MOL0     O29325   0.954   1.249   4.559  0.1331  0.6108  0.2706
  218MOL0     C29326   0.845   1.159   4.541  0.6697  0.0270  0.1640
  218MOL0     C29327   0.715   1.207   4.538 -0.1332 -0.5831 -0.6848
  218MOL0     C29328   0.603   1.119   4.512  0.1439 -1.7677  0.5808
  218MOL0     C29329   0.632   0.982   4.482  0.7438  0.6727  0.0607
  218MOL0     O29330   0.531   0.895   4.448 -0.6536 -0.6927  0.6357
  218MOL0     C29331   0.413   0.946   4.373 -0.4981 -0.6785  0.6002
  218MOL0     C29332   0.286   0.877   4.422 -0.1563  0.8401  0.7357
  218MOL0     C29333   0.251   0.910   4.563  0.3557  1.1484 -0.4992
  218MOL0     C29334   0.144   0.816   4.625  0.6851  0.3438  0.1454
  218MOL0     C29335   0.040   0.891   4.699  0.1189  0.6133  0.2271
  218MOL0     C29336  -0.044   0.810   4.787 -0.0032  0.1503 -0.1860
  218MOL0     C29337  -0.148   0.744   4.701 -0.1537  0.2974 -0.0409
  218MOL0     C29338  -0.191   0.610   4.750  0.5210  0.2776  0.0932
  218MOL0    Cl29339  -0.293   0.631   4.894  0.0631 -0.2984 -0.3831
  218MOL0     C29340   0.764   0.933   4.502 -0.0798  0.0780  1.0342
  218MOL0     C29341   0.872   1.022   4.524  0.4505 -0.3053  0.3233
  218MOL0     O29342   0.929   1.324   4.345 -0.1347  0.7826 -0.1927
  218MOL0     C29343   1.189   1.441   4.339 -0.5032  0.5619 -0.2611
  218MOL0     C29344   1.322   1.491   4.335  0.9215  0.2800 -0.9102
  218MOL0     N29345   2.102   1.478   4.565  0.4343  0.4326  0.2551
  218MOL0     N29346   2.225   1.474   4.549 -0.5294 -0.7484 -0.0856
  218MOL0     C29347   2.624   0.941   4.096 -0.5437 -1.1017 -0.1666
  218MOL0     C29348   2.722   0.849   4.047  0.4234  0.3864  0.4111
  218MOL0     C29349   2.880   0.512   3.812 -0.3232  0.5850  0.2095
  218MOL0     C29350   3.014   0.511   3.854 -0.3972  0.1682 -1.1159
  218MOL0     C29351   3.098   0.411   3.828  0.4648  0.8125  0.3358
  218MOL0     C29352   3.062   0.312   3.739  0.1092 -0.3410 -1.1009
  218MOL0     O29353   3.142   0.215   3.692 -0.1415  0.1377 -0.2805
  218MOL0     C29354   3.283   0.192   3.728  0.6746  0.5387  0.1675
  218MOL0     C29355   3.310   0.084   3.836  0.1181 -1.5188 -0.2834
  218MOL0     C29356   3.246  -0.048   3.779  0.1516 -0.4735  0.6026
  218MOL0     C29357   3.293  -0.164   3.865  0.3637 -0.3706 -0.1360
  218MOL0     C29358   3.249  -0.295   3.815 -0.3127 -0.6761 -0.0861
  218MOL0     C29359   3.215  -0.406   3.769 -0.6158 -1.0771 -0.2158
  218MOL0     C29360   2.928   0.302   3.705 -0.0206  1.0614  0.1623
  218MOL0     C29361   2.835   0.398   3.745 -0.3570 -0.2941  0.0016
  218MOL0     C29362   2.688   0.369   3.711 -0.4985 -0.6066  0.6254
  218MOL0     H29363   2.674   0.919   3.722  0.2949  0.2490  0.4953
  218MOL0     H29364   2.503   1.081   3.815 -1.9960  0.8171  1.4239
  218MOL0     H29365   2.318   1.125   3.912  2.4187  3.4109 -2.8876
  218MOL0     H29366   2.258   1.197   4.061 -0.2856  0.0090  0.0911
  218MOL0     H29367   2.354   1.349   3.870 -3.5395 -3.5414 -0.0152
  218MOL0     H29368   2.514   1.289   3.918 -1.8201 -0.1181 -0.9708
  218MOL0     H29369   2.339   1.394   4.147 -1.6740  3.9676 -0.1491
  218MOL0     H29370   2.370   1.512   4.030 -1.1885 -0.5346  0.6975
  218MOL0     H29371   2.606   1.370   4.155 -0.4818 -2.3582 -2.4653
  218MOL0     H29372   2.615   1.490   4.026 -0.3675  1.3381  0.5918
  218MOL0     H29373   2.649   1.593   4.228  0.0414 -0.0895 -0.2121
  218MOL0     H29374   2.495   1.643   4.152  0.9862  0.2916 -1.2599
  218MOL0     H29375   2.369   1.483   4.322  1.0751 -0.6582 -1.9010
  218MOL0     H29376   2.539   1.456   4.381 -0.4851 -0.9614  1.3615
  218MOL0     H29377   2.392   1.735   4.403  1.6338  2.1009 -0.3033
  218MOL0     H29378   2.549   1.699   4.445 -1.4828  2.2008  0.4718
  218MOL0     H29379   2.490   1.529   4.605 -0.3783  0.7097 -2.0014
  218MOL0     H29380   2.464   1.689   4.633 -0.1068  0.7749 -1.0120
  218MOL0     H29381   2.191   1.788   4.628 -1.3369 -0.5701  1.2961
  218MOL0     H29382   1.906   1.711   4.656 -0.4626  0.7321 -0.4961
  218MOL0     H29383   1.959   1.777   4.507 -3.1263  0.7849 -0.7372
  218MOL0     H29384   1.865   1.560   4.399 -2.0259 -0.1966 -0.6081
  218MOL0     H29385   1.796   1.528   4.569  3.6872  0.0928  0.7025
  218MOL0     H29386   1.751   1.776   4.404  0.8873  1.4986  3.2404
  218MOL0     H29387   1.655   1.723   4.541 -4.2962 -0.6137 -1.8792
  218MOL0     H29388   1.658   1.535   4.307 -0.9908 -2.5476  2.2440
  218MOL0     H29389   1.534   1.662   4.312  0.0277 -2.0005 -3.1397
  218MOL0     H29390   1.420   1.406   4.642 -1.4758  5.1448  0.7723
  218MOL0     H29391   1.205   1.306   4.653  3.7739 -1.8019 -0.3938
  218MOL0     H29392   0.691   1.309   4.566 -0.0856 -1.2493  2.0774
  218MOL0     H29393   0.506   1.167   4.516  1.0684  0.5886 -2.2284
  218MOL0     H29394   0.393   1.054   4.373 -0.8917 -0.6893  3.1435
  218MOL0     H29395   0.432   0.925   4.268  2.3492 -2.0364  1.3111
  218MOL0     H29396   0.193   0.900   4.368  1.4072  0.0398 -2.5985
  218MOL0     H29397   0.312   0.771   4.414  1.8113  1.3902 -0.8325
  218MOL0     H29398   0.341   0.920   4.624  0.9975  1.2231 -1.4541
  218MOL0     H29399   0.211   1.012   4.571  0.3274  1.2827 -2.1345
  218MOL0     H29400   0.176   0.729   4.683 -3.1547 -1.5197 -0.2085
  218MOL0     H29401   0.102   0.770   4.535  0.4588  3.9238 -1.7610
  218MOL0     H29402  -0.025   0.942   4.627 -0.4630  1.4549  1.3024
  218MOL0     H29403   0.090   0.973   4.751 -0.7126  1.1006  0.2829
  218MOL0     H29404   0.016   0.743   4.851 -0.3203  0.2111  0.1817
  218MOL0     H29405  -0.096   0.871   4.861 -0.5641 -1.4624  0.8196
  218MOL0     H29406  -0.112   0.731   4.598 -0.8770 -1.0350 -0.1507
  218MOL0     H29407  -0.235   0.810   4.697 -2.3659 -2.3414  1.2946
  218MOL0     H29408  -0.246   0.572   4.663  0.0778  1.1279 -0.0121
  218MOL0     H29409  -0.106   0.545   4.774 -0.6232 -1.9464 -1.5897
  218MOL0     H29410   0.770   0.826   4.486 -1.7195 -0.6128  4.2002
  218MOL0     H29411   0.975   0.994   4.503  0.6559 -0.1428  1.1008
  218MOL0     H29412   1.126   1.466   4.255 -1.0812 -0.0153 -0.0075
  218MOL0     H29413   1.359   1.539   4.245  0.2139 -0.3424 -1.5492
  218MOL0     H29414   2.586   0.930   4.197 -0.3237  1.3381  0.2469
  218MOL0     H29415   2.768   0.787   4.123 -1.1730  0.0294  1.1054
  218MOL0     H29416   3.048   0.590   3.920 -2.8314  1.7089 -1.5648
  218MOL0     H29417   3.203   0.419   3.852  0.6338  1.3913 -0.5246
  218MOL0     H29418   3.335   0.284   3.756  1.1440 -0.3601  2.5467
  218MOL0     H29419   3.327   0.162   3.632  1.5633  3.0461 -0.2811
  218MOL0     H29420   3.252   0.115   3.924 -1.5454  1.6755 -2.3338
  218MOL0     H29421   3.418   0.078   3.852  0.8225  0.1659 -3.5936
  218MOL0     H29422   3.281  -0.071   3.678  0.6621 -2.0164  1.1028
  218MOL0     H29423   3.138  -0.033   3.775  0.1557 -0.6924 -0.4960
  218MOL0     H29424   3.401  -0.164   3.884  0.3301  1.5167  0.2525
  218MOL0     H29425   3.238  -0.149   3.958 -3.1382  0.2733 -2.1622
  218MOL0     H29426   3.188  -0.499   3.724 -2.9165  0.5818 -2.5979
  218MOL0     H29427   2.903   0.214   3.646  2.2804  1.5604 -1.6729
  218MOL0     H29428   2.641   0.452   3.657 -1.2207 -2.6335 -2.1046
  218MOL0     H29429   2.684   0.279   3.649  1.5821  0.1200 -0.7037
  218MOL0     H29430   2.636   0.348   3.804 -2.3537  0.4115 -0.1356
  219MOL0     O29431  11.504   8.982   1.594 -0.1468 -0.1896 -0.0173
  219MOL0     C29432  11.607   9.028   1.638 -0.4915  0.3835 -0.3134
  219MOL0     O29433  11.734   8.987   1.601  0.1403 -0.4596  0.2585
  219MOL0     C29434  11.736   8.861   1.552 -0.7174 -0.7516 -0.0042
  219MOL0     C29435  11.703   8.756   1.633  0.2835 -0.1997 -0.9317
  219MOL0     C29436  11.726   8.625   1.588 -0.3590 -0.3404  0.3278
  219MOL0     C29437  11.773   8.595   1.464 -0.5438  0.6001  0.7668
  219MOL0     O29438  11.781   8.464   1.417 -0.0255  0.4592  0.4568
  219MOL0     C29439  11.684   8.422   1.322 -0.1039  0.7740  0.8207
  219MOL0     C29440  11.661   8.279   1.338 -0.2575  0.2859  0.4272
  219MOL0     C29441  11.552   8.212   1.260  0.8077  0.6378  0.1846
  219MOL0     C29442  11.410   8.259   1.284 -0.9866  0.7778  0.9222
  219MOL0     C29443  11.304   8.185   1.200 -0.4241  0.0857  0.6617
  219MOL0     C29444  11.350   8.166   1.053  0.1272 -0.9975 -0.7189
  219MOL0     C29445  11.244   8.097   0.975 -0.2226 -0.0371  0.4913
  219MOL0     C29446  11.215   7.951   1.014 -0.5545 -0.2790 -0.5584
  219MOL0     N29447  11.141   7.880   0.917  0.1226  0.0758  1.0472
  219MOL0     C29448  11.182   7.843   0.791  0.2147  0.2320  0.2196
  219MOL0     C29449  11.063   7.795   0.738 -0.3132  1.0079 -0.3069
  219MOL0     C29450  11.037   7.723   0.612 -1.0651 -0.5723 -0.1379
  219MOL0     C29451  11.054   7.575   0.627 -0.3531  0.9302  0.4915
  219MOL0     C29452  11.198   7.542   0.671  0.4763  0.0728  0.4396
  219MOL0     C29453  11.243   7.398   0.637  0.2664 -0.2020  0.3260
  219MOL0     O29454  11.211   7.336   0.514 -0.1638 -0.2675 -0.0102
  219MOL0     C29455  11.281   7.218   0.484  0.5075 -0.1505  0.0458
  219MOL0     C29456  11.374   7.144   0.562 -0.0085  0.4704  0.3280
  219MOL0     C29457  11.437   7.028   0.510 -0.6213  0.1040 -0.7266
  219MOL0     C29458  11.400   6.979   0.381  0.5343 -1.2013  1.2888
  219MOL0     C29459  11.466   6.857   0.322 -0.1887  0.3597 -0.2666
  219MOL0     O29460  11.443   6.841   0.193 -0.5235  0.2051 -0.3056
  219MOL0     C29461  11.499   6.731   0.123  0.4161  0.0060 -1.0037
  219MOL0     C29462  11.405   6.671   0.041 -0.1832 -0.1816  0.2014
  219MOL0     C29463  11.458   6.567  -0.047 -0.7693  0.1393  0.2826
  219MOL0     C29464  11.589   6.532  -0.056 -0.6733 -0.5923 -0.2896
  219MOL0     O29465  11.637   6.432  -0.136 -0.0115  0.1678 -0.3644
  219MOL0     C29466  11.589   6.296  -0.110 -0.1703 -0.7948  0.0212
  219MOL0     C29467  11.650   6.204  -0.214 -0.4058  0.0754  0.0602
  219MOL0     C29468  11.615   6.236  -0.364 -0.2039 -0.1383 -0.1094
  219MOL0     C29469  11.563   6.113  -0.430 -0.5928  0.4148  0.9461
  219MOL0     C29470  11.548   6.137  -0.581 -0.4237  1.1671 -1.4220
  219MOL0     C29471  11.441   6.230  -0.632  1.1670  0.1156 -0.3150
  219MOL0     C29472  11.426   6.213  -0.785  0.3501 -0.5267  0.4804
  219MOL0     C29473  11.353   6.087  -0.831  0.5158 -1.4215 -0.2696
  219MOL0    Cl29474  11.361   6.062  -1.004 -0.3612 -0.1175  0.1515
  219MOL0     C29475  11.680   6.594   0.029  0.0896 -0.4002 -0.0881
  219MOL0     C29476  11.634   6.688   0.121  0.7577 -0.3467 -1.0672
  219MOL0     O29477  11.548   6.796   0.389  0.2044  0.2018 -0.2270
  219MOL0     C29478  11.303   7.048   0.309 -0.3618  0.0745  0.9698
  219MOL0     C29479  11.248   7.163   0.356 -0.0170  0.8490 -0.4694
  219MOL0     N29480  10.962   7.812   0.820  0.1638 -0.5126  0.2507
  219MOL0     N29481  11.009   7.865   0.927 -0.4352  0.4357 -0.3577
  219MOL0     C29482  11.805   8.701   1.377  0.1744  0.2727 -0.2279
  219MOL0     C29483  11.774   8.836   1.418 -0.8180 -0.3601 -0.0078
  219MOL0     C29484  11.601   9.103   1.765 -0.4395 -0.8707  0.2722
  219MOL0     C29485  11.715   9.130   1.842 -0.0212  0.3316  0.2948
  219MOL0     C29486  11.701   9.208   1.959 -0.1018 -0.4273  0.6225
  219MOL0     C29487  11.584   9.265   2.006 -1.0023 -0.3180  1.3933
  219MOL0     O29488  11.589   9.350   2.116 -0.0085  0.0969 -0.5233
  219MOL0     C29489  11.499   9.465   2.141  0.8761  0.7410  0.3697
  219MOL0     C29490  11.581   9.582   2.177 -0.8509 -0.3565  0.0591
  219MOL0     C29491  11.508   9.714   2.165  0.1898 -0.0246 -0.5763
  219MOL0     C29492  11.581   9.855   2.172  0.3882  0.5355 -0.3281
  219MOL0     C29493  11.603   9.908   2.307  0.3123 -0.0528  0.8699
  219MOL0     C29494  11.614   9.946   2.421 -0.0511 -0.7449 -0.1429
  219MOL0     C29495  11.472   9.255   1.925 -0.6083  0.0011  0.0768
  219MOL0     C29496  11.481   9.178   1.814  0.4952 -0.2720 -0.0753
  219MOL0     C29497  11.351   9.178   1.736  0.0109 -0.1741 -0.2261
  219MOL0     H29498  11.666   8.776   1.732  0.8368 -1.7561 -0.3757
  219MOL0     H29499  11.707   8.542   1.655  0.2785 -1.6151 -1.0018
  219MOL0     H29500  11.599   8.483   1.354 -1.0537 -0.9588  1.7714
  219MOL0     H29501  11.707   8.450   1.219 -0.2761  1.9928  1.1016
  219MOL0     H29502  11.659   8.252   1.444 -2.0013 -1.3386  0.0510
  219MOL0     H29503  11.751   8.230   1.302 -0.5363  0.3952 -0.4510
  219MOL0     H29504  11.579   8.108   1.279  2.3505  0.9557 -0.0727
  219MOL0     H29505  11.575   8.232   1.155 -0.9410 -0.2039 -0.3924
  219MOL0     H29506  11.373   8.241   1.385 -2.4667 -1.0903  0.1023
  219MOL0     H29507  11.397   8.366   1.265 -0.8925  0.5990 -0.2123
  219MOL0     H29508  11.274   8.091   1.248 -1.6633 -0.0230 -0.2622
  219MOL0     H29509  11.203   8.227   1.206  1.0067  3.7201  1.4472
  219MOL0     H29510  11.388   8.261   1.014  1.0381 -2.2296 -2.9973
  219MOL0     H29511  11.425   8.087   1.044  0.9435 -0.3926  0.5066
  219MOL0     H29512  11.280   8.106   0.872  1.7842  3.5582  1.3375
  219MOL0     H29513  11.143   8.139   0.986 -0.9378 -0.4593 -3.1532
  219MOL0     H29514  11.315   7.918   1.043 -0.7030  0.5922  1.0628
  219MOL0     H29515  11.158   7.950   1.107 -0.1468  0.8180 -0.2888
  219MOL0     H29516  11.283   7.858   0.756  1.3600 -2.9433  1.7782
  219MOL0     H29517  10.935   7.741   0.575 -0.4987  1.2276 -0.9231
  219MOL0     H29518  11.120   7.750   0.546 -0.9230 -0.8480 -0.0745
  219MOL0     H29519  10.977   7.542   0.697 -2.0529  4.3773  0.4918
  219MOL0     H29520  11.039   7.515   0.537  0.8842 -1.4792  1.8016
  219MOL0     H29521  11.217   7.569   0.776  4.8247 -0.2970 -0.0994
  219MOL0     H29522  11.256   7.602   0.601 -0.5135  0.7506  0.1889
  219MOL0     H29523  11.219   7.326   0.716  3.5317 -1.9466 -0.0766
  219MOL0     H29524  11.351   7.402   0.654 -0.2425  0.7624  4.7253
  219MOL0     H29525  11.407   7.187   0.656  0.3788  0.0908  0.3712
  219MOL0     H29526  11.517   6.973   0.557 -0.6390  2.3220  2.2089
  219MOL0     H29527  11.298   6.686   0.041 -0.0766  0.6932  1.6370
  219MOL0     H29528  11.392   6.519  -0.118  0.2522 -2.1011  0.7494
  219MOL0     H29529  11.597   6.257  -0.008  1.1457 -3.8742 -1.1293
  219MOL0     H29530  11.480   6.291  -0.118 -0.4627 -1.7631  3.0441
  219MOL0     H29531  11.757   6.219  -0.197 -1.1214  2.7619  3.3450
  219MOL0     H29532  11.613   6.102  -0.198 -1.4722  0.3477 -0.5959
  219MOL0     H29533  11.552   6.326  -0.360  2.9541  2.1948  0.9158
  219MOL0     H29534  11.710   6.272  -0.403  2.1879 -0.5387  4.5690
  219MOL0     H29535  11.466   6.090  -0.384 -0.2990 -2.4854  0.3205
  219MOL0     H29536  11.631   6.031  -0.405  0.5757  0.8903 -0.5897
  219MOL0     H29537  11.557   6.037  -0.624 -1.4922 -0.2997  1.4530
  219MOL0     H29538  11.636   6.194  -0.614  0.1481  2.6427  2.1461
  219MOL0     H29539  11.352   6.202  -0.574  0.9373 -0.1311 -0.7904
  219MOL0     H29540  11.468   6.334  -0.609  0.2652  0.0054  1.4834
  219MOL0     H29541  11.527   6.226  -0.826  2.6410  3.5480  6.0028
  219MOL0     H29542  11.373   6.303  -0.817  0.3039 -1.1551 -1.3205
  219MOL0     H29543  11.410   6.006  -0.786  2.9314  1.3331  2.0519
  219MOL0     H29544  11.251   6.086  -0.791  0.1952 -0.6853 -1.0265
  219MOL0     H29545  11.777   6.549   0.045 -0.2293 -0.9743  0.2260
  219MOL0     H29546  11.710   6.730   0.186 -0.9072  4.2460 -1.7159
  219MOL0     H29547  11.274   7.022   0.207 -2.2853  1.3941  1.1315
  219MOL0     H29548  11.172   7.218   0.301 -0.0994 -1.9826 -3.4889
  219MOL0     H29549  11.843   8.692   1.275 -2.0562  1.4608 -1.2573
  219MOL0     H29550  11.803   8.918   1.352  1.0193 -0.3307  0.7711
  219MOL0     H29551  11.807   9.088   1.802 -1.0775 -0.7757 -1.0517
  219MOL0     H29552  11.781   9.223   2.031  3.1625 -0.5063 -2.6749
  219MOL0     H29553  11.432   9.435   2.222  2.4948  0.4004  1.6406
  219MOL0     H29554  11.434   9.499   2.060  0.9229  0.1650  0.0819
  219MOL0     H29555  11.675   9.592   2.123 -0.8950  1.0831  0.1983
  219MOL0     H29556  11.595   9.567   2.285  1.9916  0.2681 -0.1516
  219MOL0     H29557  11.421   9.720   2.230 -0.4429  2.2425 -1.5070
  219MOL0     H29558  11.461   9.713   2.066 -1.6261 -2.9542  0.2098
  219MOL0     H29559  11.677   9.851   2.120  0.2896 -3.9269 -0.5289
  219MOL0     H29560  11.508   9.915   2.117 -1.9178 -1.5946  0.2756
  219MOL0     H29561  11.637   9.979   2.520  2.8987  0.4586 -1.1104
  219MOL0     H29562  11.380   9.299   1.962 -2.1969 -4.7189  2.7194
  219MOL0     H29563  11.270   9.221   1.794 -0.5115 -1.5848  0.1399
  219MOL0     H29564  11.361   9.233   1.642  2.9206  2.7859  1.6130
  219MOL0     H29565  11.306   9.079   1.727 -2.2352  0.6273  1.4164
  220MOL0     O29566   8.199  11.322   8.986 -0.4813  0.2217 -0.0978
  220MOL0     C29567   8.153  11.331   9.097  0.7392  0.4119  0.2640
  220MOL0     O29568   8.035  11.388   9.126 -0.1648 -0.2195 -0.2116
  220MOL0     C29569   7.968  11.465   9.040 -0.2635 -0.7487  0.6857
  220MOL0     C29570   8.018  11.536   8.939  1.0145 -0.7087  0.6892
  220MOL0     C29571   7.931  11.612   8.858 -0.6483 -0.1104  0.9563
  220MOL0     C29572   7.798  11.603   8.866 -0.7724 -0.3745 -0.4882
  220MOL0     O29573   7.701  11.677   8.795 -0.2516  0.0739 -0.1847
  220MOL0     C29574   7.682  11.807   8.833  0.2480 -0.3145 -0.6610
  220MOL0     C29575   7.624  11.862   8.696 -0.8639 -0.1248 -0.4661
  220MOL0     C29576   7.580  12.007   8.707  0.1770  0.7274 -0.1420
  220MOL0     C29577   7.455  12.024   8.793  0.0608  0.0344  1.2992
  220MOL0     C29578   7.379  12.147   8.774 -0.7021 -0.8974 -0.4441
  220MOL0     C29579   7.256  12.152   8.862  0.5692  0.2942  0.7689
  220MOL0     C29580   7.208  12.298   8.890 -1.3208 -0.0207  0.3554
  220MOL0     C29581   7.187  12.377   8.761  1.0326 -0.1943  0.6232
  220MOL0     N29582   7.127  12.514   8.795  0.2558  0.3879  0.7677
  220MOL0     C29583   7.191  12.635   8.796  0.7290 -1.0881 -0.6017
  220MOL0     C29584   7.088  12.726   8.814  0.7558 -0.3440  1.0377
  220MOL0     C29585   7.098  12.882   8.804  0.0364  0.2553 -0.0085
  220MOL0     C29586   6.991  12.936   8.705 -0.0201 -0.1708 -0.5209
  220MOL0     C29587   6.994  13.094   8.709 -0.6517  0.7748 -0.3831
  220MOL0     C29588   6.877  13.146   8.626  0.5798  0.0379  0.5387
  220MOL0     O29589   6.751  13.161   8.696  0.7512  0.3723 -0.2910
  220MOL0     C29590   6.629  13.156   8.632 -0.4907  0.2524 -0.6761
  220MOL0     C29591   6.519  13.134   8.708  1.3305 -0.2252 -0.7535
  220MOL0     C29592   6.384  13.140   8.652  0.7465  0.7415  0.6534
  220MOL0     C29593   6.362  13.156   8.514  0.9327  0.4541  0.2323
  220MOL0     C29594   6.225  13.147   8.444  0.2405 -0.2975 -0.1297
  220MOL0     O29595   6.116  13.139   8.524 -0.5000  0.2617  0.3323
  220MOL0     C29596   5.992  13.149   8.462  0.0907  0.1649  0.1322
  220MOL0     C29597   5.905  13.246   8.514 -0.2067 -0.2024  1.3624
  220MOL0     C29598   5.782  13.267   8.446 -1.2188 -0.1115 -0.2260
  220MOL0     C29599   5.746  13.185   8.334 -0.4256 -0.1006  0.2746
  220MOL0     O29600   5.624  13.195   8.273 -0.2749 -0.7508 -0.2061
  220MOL0     C29601   5.522  13.281   8.320 -0.1488 -0.1530  0.3264
  220MOL0     C29602   5.397  13.265   8.245  0.6282  0.2507  0.7562
  220MOL0     C29603   5.280  13.361   8.291  0.1077 -0.4017 -0.4111
  220MOL0     C29604   5.224  13.355   8.433 -0.2215  0.5108  0.2533
  220MOL0     C29605   5.086  13.431   8.434  0.5624 -0.3924 -0.5502
  220MOL0     C29606   4.971  13.347   8.367 -0.9948 -0.6967 -0.1367
  220MOL0     C29607   4.893  13.292   8.489  0.0121  0.4928  0.0936
  220MOL0     C29608   4.809  13.171   8.447  0.1540 -0.4395 -0.1936
  220MOL0    Cl29609   4.768  13.050   8.582 -0.2802 -0.0489  0.3320
  220MOL0     C29610   5.834  13.084   8.288 -0.1918  0.0020  0.3465
  220MOL0     C29611   5.959  13.065   8.350 -0.4254 -0.2207  0.0727
  220MOL0     O29612   6.222  13.153   8.319 -0.0900 -0.5062 -0.7618
  220MOL0     C29613   6.475  13.185   8.440 -0.2213  0.2248 -0.8343
  220MOL0     C29614   6.606  13.179   8.496 -0.9138 -0.8217  0.1159
  220MOL0     N29615   6.971  12.650   8.825  0.9744 -0.2744  0.0223
  220MOL0     N29616   6.994  12.532   8.824  0.0936  0.3482  0.1262
  220MOL0     C29617   7.750  11.526   8.969  0.3902 -0.2788  0.3004
  220MOL0     C29618   7.830  11.458   9.060  0.0402  0.3035  0.8520
  220MOL0     C29619   8.225  11.265   9.202 -0.7289  0.1832 -0.1627
  220MOL0     C29620   8.212  11.128   9.234 -0.6479  0.6891 -0.1396
  220MOL0     C29621   8.290  11.055   9.323 -0.0358  0.4952 -0.5548
  220MOL0     C29622   8.386  11.125   9.403 -0.0975  1.2371  0.9907
  220MOL0     O29623   8.454  11.037   9.487 -0.4429  0.9647 -0.0243
  220MOL0     C29624   8.559  11.079   9.585 -0.0281 -0.1356  0.8801
  220MOL0     C29625   8.654  10.969   9.612  0.6319  0.4812 -0.0992
  220MOL0     C29626   8.741  10.918   9.498 -0.0473  0.0493  0.3043
  220MOL0     C29627   8.806  10.788   9.539  0.1722  0.5624  0.1417
  220MOL0     C29628   8.923  10.759   9.457 -1.1596 -0.4751  0.3309
  220MOL0     C29629   9.022  10.730   9.402 -0.5270 -0.5285  0.7295
  220MOL0     C29630   8.409  11.264   9.371  0.0356  0.1916  1.4142
  220MOL0     C29631   8.327  11.332   9.279  0.9174 -0.1229  0.6181
  220MOL0     C29632   8.359  11.481   9.262 -0.0683 -0.0600  0.4584
  220MOL0     H29633   8.123  11.552   8.916  1.2523 -2.1062  0.7013
  220MOL0     H29634   7.966  11.661   8.768 -1.2551 -2.8575 -0.8973
  220MOL0     H29635   7.606  11.799   8.912  1.3796  2.8469  0.9025
  220MOL0     H29636   7.768  11.867   8.864 -0.8740  2.1612 -1.9932
  220MOL0     H29637   7.539  11.803   8.660 -1.6091  0.1506  0.7823
  220MOL0     H29638   7.692  11.864   8.610 -1.1136  0.7282 -0.6509
  220MOL0     H29639   7.566  12.039   8.603 -0.4544 -0.6127 -0.5060
  220MOL0     H29640   7.663  12.065   8.746  0.1189  0.4997  0.3206
  220MOL0     H29641   7.380  11.947   8.773  1.8396 -1.1813 -1.1910
  220MOL0     H29642   7.478  12.004   8.898  1.7228 -2.3519  0.5542
  220MOL0     H29643   7.449  12.225   8.806 -0.4763 -1.8312  1.4663
  220MOL0     H29644   7.351  12.149   8.668  0.4076 -1.3285 -0.7666
  220MOL0     H29645   7.171  12.090   8.833  0.4982  1.8127 -2.7429
  220MOL0     H29646   7.278  12.106   8.959  1.4278 -0.5507  0.1965
  220MOL0     H29647   7.296  12.345   8.937  0.5975 -2.4840 -0.5315
  220MOL0     H29648   7.115  12.301   8.947  0.0156  2.1694  2.6246
  220MOL0     H29649   7.283  12.374   8.707  0.9306  0.4204  0.4052
  220MOL0     H29650   7.110  12.329   8.701 -1.4274  3.7309  0.3081
  220MOL0     H29651   7.298  12.649   8.786  0.7655 -2.1255 -1.8850
  220MOL0     H29652   7.078  12.929   8.901 -4.6074 -0.7818 -0.2119
  220MOL0     H29653   7.196  12.914   8.770 -1.3038  3.3128 -1.3591
  220MOL0     H29654   7.006  12.894   8.605 -1.0469 -0.4468 -0.5681
  220MOL0     H29655   6.896  12.897   8.741 -0.0840  1.1378  0.8502
  220MOL0     H29656   7.092  13.121   8.669 -0.1757  3.8356  2.3861
  220MOL0     H29657   6.980  13.137   8.809 -5.3795 -1.4743  0.2061
  220MOL0     H29658   6.865  13.081   8.539  0.5836  1.7689 -0.8224
  220MOL0     H29659   6.897  13.242   8.576  2.1282 -0.2221  0.6126
  220MOL0     H29660   6.538  13.106   8.811 -2.4274 -0.9850 -0.1269
  220MOL0     H29661   6.303  13.126   8.723  0.3271 -1.9963 -0.2520
  220MOL0     H29662   5.948  13.314   8.587  2.9523  0.4205 -0.8455
  220MOL0     H29663   5.720  13.350   8.480 -0.5916 -0.3301  1.5899
  220MOL0     H29664   5.511  13.264   8.427 -3.5289  0.0606  0.1240
  220MOL0     H29665   5.548  13.387   8.307 -1.8539  0.2299 -0.1607
  220MOL0     H29666   5.428  13.277   8.140 -3.7135 -1.6617 -1.0211
  220MOL0     H29667   5.355  13.167   8.269 -4.2149  2.3251  1.8825
  220MOL0     H29668   5.322  13.462   8.285 -1.2550  0.1838 -0.3186
  220MOL0     H29669   5.191  13.341   8.231 -0.5249 -0.5559  0.5753
  220MOL0     H29670   5.298  13.406   8.495  2.8177  1.0731 -3.4569
  220MOL0     H29671   5.215  13.253   8.472  2.0125  1.0837  2.5569
  220MOL0     H29672   5.099  13.523   8.376  0.0429 -0.6284 -1.0437
  220MOL0     H29673   5.068  13.471   8.535 -0.0267  3.3708 -1.9567
  220MOL0     H29674   4.907  13.419   8.314 -0.2661  0.0716  0.0017
  220MOL0     H29675   4.999  13.260   8.307  0.3100 -0.0012 -0.5669
  220MOL0     H29676   4.823  13.355   8.544  0.5371  0.2891  1.0256
  220MOL0     H29677   4.966  13.244   8.555 -0.3316  2.9479  2.4341
  220MOL0     H29678   4.717  13.215   8.407  2.0253  3.3164 -0.8328
  220MOL0     H29679   4.868  13.116   8.373  2.5093  2.8526 -0.9933
  220MOL0     H29680   5.798  13.015   8.212  0.3668 -0.5525  0.5806
  220MOL0     H29681   6.021  12.986   8.310 -1.4130 -1.7229  1.3784
  220MOL0     H29682   6.472  13.186   8.332 -0.5401 -2.8271 -0.9372
  220MOL0     H29683   6.689  13.206   8.430  0.8550 -0.6917  2.2770
  220MOL0     H29684   7.643  11.524   8.988  0.3189  1.4759  0.2453
  220MOL0     H29685   7.797  11.388   9.136  3.4512 -4.7149 -1.7051
  220MOL0     H29686   8.145  11.069   9.173 -0.2181  1.0862 -1.0076
  220MOL0     H29687   8.262  10.951   9.339 -1.2521  0.6996 -1.1737
  220MOL0     H29688   8.511  11.102   9.681 -0.6824 -0.8705  0.7337
  220MOL0     H29689   8.606  11.168   9.542 -0.0016 -1.0492 -1.0636
  220MOL0     H29690   8.596  10.888   9.658  0.8097  0.0183 -0.6789
  220MOL0     H29691   8.726  11.007   9.685 -2.0283  3.7634  1.0725
  220MOL0     H29692   8.810  10.998   9.469 -0.5563  1.3096  2.3791
  220MOL0     H29693   8.681  10.893   9.410  0.9887 -2.7353  0.2824
  220MOL0     H29694   8.855  10.820   9.632  0.0321  0.9224  0.0931
  220MOL0     H29695   8.748  10.696   9.547  1.2935 -0.0916  1.0938
  220MOL0     H29696   9.106  10.688   9.350  0.1259  0.6638  0.7780
  220MOL0     H29697   8.489  11.312   9.427  1.4678 -0.3263 -0.1432
  220MOL0     H29698   8.464  11.512   9.263  0.2550 -1.0024 -0.6298
  220MOL0     H29699   8.316  11.523   9.170  2.5152  1.6723 -0.0677
  220MOL0     H29700   8.316  11.536   9.345  0.0267  2.4873 -1.0732
  221MOL0     O29701   3.544   7.961   8.421 -0.2342  0.5887 -0.2824
  221MOL0     C29702   3.461   7.872   8.412  0.3130 -1.0234 -0.4442
  221MOL0     O29703   3.472   7.767   8.330 -0.7438  0.2675  0.3367
  221MOL0     C29704   3.582   7.758   8.247 -0.2367  0.3356  0.4213
  221MOL0     C29705   3.634   7.630   8.249 -1.3273 -0.7478 -0.6330
  221MOL0     C29706   3.762   7.603   8.175  0.5371 -0.3252  0.4608
  221MOL0     C29707   3.821   7.711   8.108  1.0117  0.0474 -0.4980
  221MOL0     O29708   3.938   7.701   8.039  0.2564 -0.3601 -0.6790
  221MOL0     C29709   4.047   7.609   8.076 -0.2995 -0.2123 -0.9233
  221MOL0     C29710   4.160   7.628   7.974 -0.3281 -0.9099  0.3401
  221MOL0     C29711   4.232   7.761   7.977 -0.2774  0.5572  0.9108
  221MOL0     C29712   4.313   7.784   7.864  0.7403  0.2842  1.3214
  221MOL0     C29713   4.450   7.723   7.873 -0.3339  0.7529 -0.7086
  221MOL0     C29714   4.551   7.789   7.785  0.5197  0.4515  0.0137
  221MOL0     C29715   4.694   7.732   7.800  0.7403 -0.6448 -0.0801
  221MOL0     C29716   4.697   7.593   7.733  0.1024 -1.0741  0.1990
  221MOL0     N29717   4.689   7.585   7.587 -0.2153  0.6868  0.8335
  221MOL0     C29718   4.571   7.583   7.516 -0.9221  0.4900  0.2265
  221MOL0     C29719   4.599   7.563   7.385 -0.9895  0.0968 -0.5378
  221MOL0     C29720   4.517   7.556   7.258 -0.0447 -0.7242 -0.5271
  221MOL0     C29721   4.460   7.695   7.229  0.4661 -0.3522  0.5560
  221MOL0     C29722   4.418   7.713   7.080  0.1110  0.1939  0.4217
  221MOL0     C29723   4.534   7.762   6.999 -0.3933 -0.5286 -0.2587
  221MOL0     O29724   4.625   7.657   6.975  0.1798 -0.0189  0.4922
  221MOL0     C29725   4.739   7.698   6.911 -1.2099  0.3878  0.8453
  221MOL0     C29726   4.866   7.639   6.948  0.2068 -0.5654  0.1712
  221MOL0     C29727   4.986   7.683   6.890  0.2216  0.1812 -0.0391
  221MOL0     C29728   4.993   7.768   6.777  0.1351  0.3214 -0.1752
  221MOL0     C29729   5.120   7.805   6.706  0.0562 -0.0105 -0.5207
  221MOL0     O29730   5.100   7.864   6.587 -0.2222 -0.5388  0.4886
  221MOL0     C29731   5.210   7.892   6.507  0.8967 -0.4001 -0.0835
  221MOL0     C29732   5.252   8.027   6.489  0.0705  0.8903  0.0831
  221MOL0     C29733   5.367   8.054   6.413 -0.0516 -0.5897 -0.1330
  221MOL0     C29734   5.435   7.956   6.343  0.0687 -0.5403  1.0785
  221MOL0     O29735   5.546   7.999   6.279 -0.0516 -0.0223  0.1112
  221MOL0     C29736   5.620   7.877   6.232 -0.4431 -1.1663 -0.2000
  221MOL0     C29737   5.714   7.810   6.336  0.1252 -0.3014  0.3729
  221MOL0     C29738   5.774   7.917   6.427 -0.0377  0.1209  0.5302
  221MOL0     C29739   5.835   7.848   6.542  0.6204  0.6985 -0.5512
  221MOL0     C29740   5.886   7.928   6.665 -0.1614  1.0634  0.4721
  221MOL0     C29741   5.799   8.047   6.716 -0.5976 -0.3414 -0.0797
  221MOL0     C29742   5.684   8.000   6.798  0.2653  0.0940  0.4229
  221MOL0     C29743   5.636   8.088   6.900  0.3006 -0.4130 -0.1252
  221MOL0    Cl29744   5.747   8.118   7.038 -0.1894 -0.0811 -0.0266
  221MOL0     C29745   5.384   7.827   6.365 -0.2047  0.6640 -0.0793
  221MOL0     C29746   5.282   7.798   6.448 -0.4126  0.3464  1.3274
  221MOL0     O29747   5.227   7.756   6.748  0.8622  0.0812 -0.8332
  221MOL0     C29748   4.868   7.842   6.752 -0.3435  0.4707 -0.1834
  221MOL0     C29749   4.752   7.803   6.822  0.6706  0.0830  0.2968
  221MOL0     N29750   4.737   7.550   7.384  0.1681  0.9695  0.2593
  221MOL0     N29751   4.790   7.563   7.500  0.0929  0.1612 -1.0285
  221MOL0     C29752   3.755   7.836   8.090 -0.9542 -0.4610 -0.5077
  221MOL0     C29753   3.635   7.864   8.163  0.7211 -0.7214  0.8669
  221MOL0     C29754   3.353   7.875   8.517  0.4684 -0.3546  1.5997
  221MOL0     C29755   3.281   7.758   8.521  0.6886 -0.3456  0.2468
  221MOL0     C29756   3.183   7.740   8.613 -0.2633 -0.6592  0.5176
  221MOL0     C29757   3.156   7.847   8.709  0.1752 -0.6830 -0.4924
  221MOL0     O29758   3.051   7.848   8.801 -0.0579 -0.2320 -0.4800
  221MOL0     C29759   2.943   7.762   8.784  0.3105 -0.6199  0.2446
  221MOL0     C29760   2.941   7.660   8.895  0.2914  0.4765 -0.2385
  221MOL0     C29761   2.888   7.730   9.024  0.1680 -0.3758 -0.1498
  221MOL0     C29762   2.873   7.655   9.149 -0.1300 -1.1503  1.1435
  221MOL0     C29763   2.767   7.552   9.144  0.2473 -0.3835  0.4776
  221MOL0     C29764   2.668   7.481   9.162  0.9861 -0.6922 -0.7259
  221MOL0     C29765   3.227   7.962   8.706  0.2109  0.5033 -0.3477
  221MOL0     C29766   3.333   7.975   8.616 -0.4596  0.0313  0.8603
  221MOL0     C29767   3.422   8.099   8.634 -0.6156 -0.1758 -0.2422
  221MOL0     H29768   3.591   7.556   8.316  0.0769 -0.5328  0.5716
  221MOL0     H29769   3.814   7.508   8.182  1.2607  0.1127  1.2832
  221MOL0     H29770   4.083   7.628   8.177  1.8740  0.0763 -1.6827
  221MOL0     H29771   4.003   7.509   8.066 -1.4672  0.4693 -3.6199
  221MOL0     H29772   4.115   7.605   7.877 -3.7219 -0.8956  1.7830
  221MOL0     H29773   4.231   7.547   7.994 -0.0474 -0.0973  2.9833
  221MOL0     H29774   4.296   7.773   8.065 -0.9050  0.0357  1.4537
  221MOL0     H29775   4.157   7.841   7.988 -1.1087  0.3483 -2.3058
  221MOL0     H29776   4.249   7.744   7.785 -0.7439 -3.0584  3.9424
  221MOL0     H29777   4.325   7.891   7.847 -3.6927  0.5427 -1.7882
  221MOL0     H29778   4.488   7.730   7.975 -1.4688 -2.3281  0.0118
  221MOL0     H29779   4.442   7.619   7.839  2.8983  0.2787 -0.3081
  221MOL0     H29780   4.532   7.783   7.678 -1.9073 -0.4161  0.4493
  221MOL0     H29781   4.544   7.897   7.805 -0.9203  1.0344 -3.0560
  221MOL0     H29782   4.717   7.724   7.907  0.4161 -1.3588 -0.0619
  221MOL0     H29783   4.771   7.792   7.750  2.3637 -1.3671  1.4300
  221MOL0     H29784   4.795   7.551   7.760  1.5430  0.9494 -1.5231
  221MOL0     H29785   4.612   7.532   7.763  0.9248 -1.6544  1.4511
  221MOL0     H29786   4.472   7.600   7.558 -0.9831 -0.6200  0.5644
  221MOL0     H29787   4.573   7.515   7.174  2.9890 -3.7246  2.6303
  221MOL0     H29788   4.430   7.494   7.282 -1.1232  1.0695  0.4962
  221MOL0     H29789   4.377   7.730   7.291  0.1512  4.1043 -1.9173
  221MOL0     H29790   4.536   7.772   7.247 -1.4744  1.7134  0.4211
  221MOL0     H29791   4.342   7.791   7.073 -0.4927  0.1066  4.2824
  221MOL0     H29792   4.376   7.622   7.035 -1.1578 -0.2357  2.3462
  221MOL0     H29793   4.589   7.843   7.048 -1.8135 -0.2275  0.8865
  221MOL0     H29794   4.491   7.786   6.901 -0.7752 -0.4920 -0.0837
  221MOL0     H29795   4.875   7.561   7.023  2.2716  1.3161  2.0136
  221MOL0     H29796   5.079   7.631   6.909  1.3240  1.3344 -1.8918
  221MOL0     H29797   5.208   8.115   6.535 -0.5959  0.0171  1.1738
  221MOL0     H29798   5.404   8.156   6.404 -2.1272  0.2800  0.6787
  221MOL0     H29799   5.560   7.805   6.176 -0.9553 -0.4377 -0.6000
  221MOL0     H29800   5.690   7.905   6.153  0.2738  0.1071  0.8354
  221MOL0     H29801   5.660   7.741   6.401 -1.3885 -0.8541 -1.4015
  221MOL0     H29802   5.787   7.750   6.279 -0.0157  1.1735 -1.4461
  221MOL0     H29803   5.845   7.978   6.370  0.2610  2.1630  2.9089
  221MOL0     H29804   5.700   7.985   6.469  0.3518 -0.1603  1.7154
  221MOL0     H29805   5.919   7.787   6.507 -0.1695 -1.0813  0.5147
  221MOL0     H29806   5.757   7.783   6.582  2.4779 -1.5900 -0.3835
  221MOL0     H29807   5.980   7.972   6.632  1.3217 -0.8294  1.9574
  221MOL0     H29808   5.906   7.856   6.744 -1.7907 -1.5119 -1.2947
  221MOL0     H29809   5.864   8.104   6.782  0.3729 -1.2451 -0.2164
  221MOL0     H29810   5.763   8.116   6.639  0.2234  1.2394  0.9016
  221MOL0     H29811   5.695   7.897   6.835  3.1319  0.1701 -0.0414
  221MOL0     H29812   5.598   7.987   6.730  0.9139 -4.4334  0.1530
  221MOL0     H29813   5.615   8.187   6.858  2.3851  0.2230  0.2050
  221MOL0     H29814   5.538   8.054   6.936  1.2847 -1.2751  1.8616
  221MOL0     H29815   5.423   7.745   6.305 -2.4035 -0.4640 -0.0775
  221MOL0     H29816   5.238   7.699   6.441 -1.4138  0.8933 -1.4508
  221MOL0     H29817   4.862   7.926   6.684 -0.7857  4.5885  4.4311
  221MOL0     H29818   4.661   7.847   6.780 -0.9136  0.1561  3.4873
  221MOL0     H29819   3.789   7.906   8.015 -0.8634  0.7099  0.6002
  221MOL0     H29820   3.589   7.961   8.152  2.5800  0.0522 -0.6447
  221MOL0     H29821   3.303   7.674   8.455  0.6935 -0.4348  0.3623
  221MOL0     H29822   3.131   7.645   8.605 -2.0640  0.3979 -1.6074
  221MOL0     H29823   2.947   7.704   8.691  0.5439 -1.3977  0.7329
  221MOL0     H29824   2.846   7.812   8.782 -0.4410 -1.9227 -3.0681
  221MOL0     H29825   3.039   7.616   8.911  0.6483  0.8184 -1.3811
  221MOL0     H29826   2.879   7.577   8.861 -1.1458  1.7558 -0.8574
  221MOL0     H29827   2.790   7.775   9.002 -0.5154 -2.3585 -1.5330
  221MOL0     H29828   2.948   7.819   9.043 -2.7054  0.9624  4.1044
  221MOL0     H29829   2.973   7.615   9.169  1.4435  1.5783 -0.6696
  221MOL0     H29830   2.834   7.717   9.230 -3.2704  0.2626 -1.2383
  221MOL0     H29831   2.570   7.443   9.178  0.6708 -0.2945 -1.6549
  221MOL0     H29832   3.193   8.045   8.768 -0.9240 -0.4597  0.3614
  221MOL0     H29833   3.527   8.077   8.658 -0.8499  0.6727  1.7088
  221MOL0     H29834   3.416   8.161   8.544 -4.1706 -1.4673 -1.0276
  221MOL0     H29835   3.369   8.158   8.710  1.7206  0.6316  0.8697
  222MOL0     O29836   5.069   5.227  11.016 -0.1963  0.2943  0.7119
  222MOL0     C29837   5.116   5.175  11.117  0.0489  0.7863 -0.1587
  222MOL0     O29838   5.100   5.052  11.141  0.9978  0.1259 -0.4460
  222MOL0     C29839   5.022   4.976  11.050 -0.3783 -0.4153 -0.9397
  222MOL0     C29840   5.088   4.855  11.035  0.6966  0.0224  0.0382
  222MOL0     C29841   5.033   4.764  10.932 -1.0942 -0.4150  0.4187
  222MOL0     C29842   4.925   4.811  10.851 -1.1929 -0.3311 -0.4643
  222MOL0     O29843   4.879   4.725  10.754  0.6677 -1.5266 -0.5058
  222MOL0     C29844   4.891   4.581  10.762 -0.0316 -1.1777 -0.0968
  222MOL0     C29845   4.799   4.514  10.657  0.1382 -0.0223 -0.2928
  222MOL0     C29846   4.776   4.368  10.685  0.4397  0.8723  0.4545
  222MOL0     C29847   4.901   4.283  10.666 -0.4351  0.2655  0.7892
  222MOL0     C29848   4.872   4.140  10.695  0.8382 -0.1882  0.2557
  222MOL0     C29849   4.893   4.118  10.850  0.2969  0.9985  0.4054
  222MOL0     C29850   4.865   3.970  10.882  0.0145  0.9012  0.2571
  222MOL0     C29851   4.799   3.964  11.022  1.4896  0.7973  0.8528
  222MOL0     N29852   4.658   4.025  11.022 -0.2106 -0.0013 -0.0903
  222MOL0     C29853   4.627   4.146  11.079 -0.8146  0.7809 -0.5910
  222MOL0     C29854   4.498   4.167  11.051 -0.2806 -0.1539 -0.2422
  222MOL0     C29855   4.441   4.305  11.068 -0.9061  0.3342  0.1438
  222MOL0     C29856   4.287   4.296  11.098 -0.4419 -0.2846  0.5867
  222MOL0     C29857   4.228   4.436  11.113  0.3740 -0.1879 -0.7144
  222MOL0     C29858   4.288   4.529  11.220  0.1628  0.0236 -0.0920
  222MOL0     O29859   4.221   4.651  11.199  0.6063 -0.2440 -0.5350
  222MOL0     C29860   4.238   4.750  11.290  1.0021 -0.9656 -0.0402
  222MOL0     C29861   4.162   4.861  11.264 -0.0523 -0.0744  0.5105
  222MOL0     C29862   4.154   4.968  11.350 -0.1145 -0.2985  1.6562
  222MOL0     C29863   4.243   4.974  11.463  0.7031  0.0971  0.1657
  222MOL0     C29864   4.246   5.098  11.548  0.9475 -0.5752 -1.0798
  222MOL0     O29865   4.332   5.101  11.662  0.3710 -0.2653  0.1105
  222MOL0     C29866   4.355   5.222  11.714  0.1671 -0.1559  0.3269
  222MOL0     C29867   4.487   5.283  11.699  0.0706 -0.4826 -0.0431
  222MOL0     C29868   4.512   5.411  11.749 -0.0244  0.3057  0.2314
  222MOL0     C29869   4.408   5.474  11.810  0.6881  0.5114 -0.2916
  222MOL0     O29870   4.434   5.602  11.850  0.5761  0.1330  0.5662
  222MOL0     C29871   4.409   5.633  11.987 -0.4698 -0.4760 -0.0098
  222MOL0     C29872   4.371   5.786  12.009 -0.3114 -0.5310  0.5106
  222MOL0     C29873   4.232   5.818  11.970 -0.6281  0.6740  0.4310
  222MOL0     C29874   4.144   5.853  12.088 -0.2151  0.4977 -0.7686
  222MOL0     C29875   4.003   5.884  12.048  1.0438 -0.4503  0.1693
  222MOL0     C29876   3.901   5.923  12.155  0.1192  0.6019  0.2958
  222MOL0     C29877   3.915   6.058  12.214  0.3194  0.4817  0.1650
  222MOL0     C29878   3.830   6.067  12.340 -0.8360 -0.5928 -0.4783
  222MOL0    Cl29879   3.925   6.024  12.475 -0.6839  0.2642 -0.4402
  222MOL0     C29880   4.281   5.410  11.826 -0.6181 -0.2682 -0.4721
  222MOL0     C29881   4.261   5.281  11.791 -1.0514 -0.0153  0.6039
  222MOL0     O29882   4.160   5.183  11.532 -0.4176  0.3990  0.7007
  222MOL0     C29883   4.343   4.867  11.479 -0.5469 -0.2975  0.0554
  222MOL0     C29884   4.330   4.751  11.391  0.7073  0.0222 -0.3453
  222MOL0     N29885   4.447   4.050  10.981 -0.7255 -0.3545 -1.3410
  222MOL0     N29886   4.546   3.967  10.968  0.2681  0.2102  0.1588
  222MOL0     C29887   4.864   4.931  10.868  0.2255 -0.6826  0.2492
  222MOL0     C29888   4.913   5.017  10.972 -0.0614  0.0957 -0.2426
  222MOL0     C29889   5.212   5.244  11.203 -0.3707  0.3008  0.3942
  222MOL0     C29890   5.210   5.225  11.340 -0.4268  0.4884 -0.1096
  222MOL0     C29891   5.299   5.291  11.427 -0.1363 -1.1616  0.3179
  222MOL0     C29892   5.373   5.399  11.369 -0.7087  0.2504 -0.3624
  222MOL0     O29893   5.443   5.483  11.459 -0.5291  0.0413  1.0977
  222MOL0     C29894   5.361   5.586  11.514 -0.1584 -0.6445  0.1246
  222MOL0     C29895   5.414   5.625  11.651 -0.6929  0.9566 -0.1005
  222MOL0     C29896   5.338   5.740  11.713  0.2765 -1.0889  0.0014
  222MOL0     C29897   5.406   5.880  11.699 -0.6373 -0.2693  0.3335
  222MOL0     C29898   5.513   5.901  11.791 -0.9209 -0.2772  0.4536
  222MOL0     C29899   5.610   5.902  11.868 -0.7988  0.1460 -0.2840
  222MOL0     C29900   5.381   5.416  11.229 -0.0487  0.7664 -0.5889
  222MOL0     C29901   5.314   5.334  11.141  0.6197  0.6104 -0.5837
  222MOL0     C29902   5.349   5.325  10.995 -0.6726  0.1766  0.0233
  222MOL0     H29903   5.169   4.812  11.093  0.8782 -2.1714 -1.7047
  222MOL0     H29904   5.069   4.663  10.918 -2.0964 -0.5645 -1.5449
  222MOL0     H29905   4.994   4.551  10.741  0.2558 -0.6631  0.5312
  222MOL0     H29906   4.866   4.550  10.864 -2.0406  1.7635  0.4188
  222MOL0     H29907   4.838   4.537  10.557  1.6461  1.8242  0.6469
  222MOL0     H29908   4.709   4.576  10.665 -0.0510 -0.4885  1.4258
  222MOL0     H29909   4.698   4.347  10.611  1.0807 -0.0580  0.0175
  222MOL0     H29910   4.734   4.348  10.785  1.7144 -0.7195  0.7187
  222MOL0     H29911   4.940   4.282  10.564 -0.8534  0.3680  0.6244
  222MOL0     H29912   4.975   4.323  10.736 -0.3141  3.4157 -0.9674
  222MOL0     H29913   4.776   4.101  10.660  1.5854 -0.8999 -1.1025
  222MOL0     H29914   4.944   4.067  10.655  0.2902 -1.9763  2.3161
  222MOL0     H29915   4.994   4.151  10.877  0.8410  2.2110 -2.6514
  222MOL0     H29916   4.825   4.187  10.900 -1.5600 -1.9880  2.2916
  222MOL0     H29917   4.954   3.917  10.917  0.8240  3.8617  3.1487
  222MOL0     H29918   4.807   3.925  10.800  1.1113  0.5753 -0.3561
  222MOL0     H29919   4.778   3.859  11.042  0.5179  0.5195 -1.3078
  222MOL0     H29920   4.869   4.010  11.092  1.1301  1.9563  0.4791
  222MOL0     H29921   4.690   4.213  11.137 -0.2453 -2.2000  2.6057
  222MOL0     H29922   4.495   4.345  11.154 -0.6864 -2.7737  1.6005
  222MOL0     H29923   4.467   4.358  10.976  1.5380 -1.0178 -0.0281
  222MOL0     H29924   4.250   4.248  11.006 -4.1528  3.1851  0.0052
  222MOL0     H29925   4.255   4.240  11.186  0.7220  0.4950  1.5341
  222MOL0     H29926   4.122   4.414  11.128  0.7930 -1.4214  0.5613
  222MOL0     H29927   4.234   4.483  11.014  0.1105 -1.1173 -1.1822
  222MOL0     H29928   4.395   4.545  11.207  0.7257  0.4816  3.7889
  222MOL0     H29929   4.270   4.487  11.319 -2.2892 -0.7120 -0.7697
  222MOL0     H29930   4.096   4.858  11.178  0.2197  2.5298  0.1240
  222MOL0     H29931   4.096   5.057  11.330  2.0731  1.0628  1.0617
  222MOL0     H29932   4.565   5.221  11.657 -0.4330 -2.6782  2.0031
  222MOL0     H29933   4.607   5.463  11.744 -0.4187  1.1375  1.1729
  222MOL0     H29934   4.323   5.578  12.026 -1.1341  2.1848  2.6692
  222MOL0     H29935   4.499   5.609  12.044  1.3211  0.7724 -2.1408
  222MOL0     H29936   4.401   5.816  12.110  0.2190 -0.1598  0.2540
  222MOL0     H29937   4.443   5.836  11.943 -1.1687 -0.4934 -0.4190
  222MOL0     H29938   4.238   5.901  11.899  0.2574 -2.3782 -3.4005
  222MOL0     H29939   4.189   5.730  11.922  2.5773 -0.8998  0.1785
  222MOL0     H29940   4.190   5.943  12.129  0.3630  0.0622 -0.4369
  222MOL0     H29941   4.142   5.773  12.163  2.5874  0.3107 -0.7893
  222MOL0     H29942   3.967   5.784  12.023  0.5513 -0.0344 -0.8753
  222MOL0     H29943   3.995   5.941  11.954  1.3445  0.5776  0.7503
  222MOL0     H29944   3.798   5.926  12.117  0.4226  2.6871 -0.5039
  222MOL0     H29945   3.890   5.855  12.239 -1.0543 -0.9033 -1.0028
  222MOL0     H29946   3.879   6.128  12.139 -1.8880 -0.9416 -0.2075
  222MOL0     H29947   4.017   6.094  12.234  0.3135  0.0243  1.1008
  222MOL0     H29948   3.798   6.170  12.355 -1.6920 -0.8891 -0.1755
  222MOL0     H29949   3.740   6.006  12.342 -2.4493  1.6796  1.3174
  222MOL0     H29950   4.217   5.455  11.902 -0.1949  1.7757 -1.2656
  222MOL0     H29951   4.163   5.239  11.815 -2.3470  2.0315 -0.7395
  222MOL0     H29952   4.416   4.883  11.557 -0.1344 -0.9093 -0.1899
  222MOL0     H29953   4.397   4.671  11.420 -0.1830  0.0027  1.8533
  222MOL0     H29954   4.771   4.950  10.815 -1.2572 -0.2561  2.8446
  222MOL0     H29955   4.869   5.115  10.990  0.8678  0.7229 -1.2666
  222MOL0     H29956   5.143   5.155  11.390 -0.1075 -0.3049 -0.7633
  222MOL0     H29957   5.302   5.272  11.534  2.0303  2.6789  1.0965
  222MOL0     H29958   5.260   5.544  11.514  0.5639 -2.6213 -2.0159
  222MOL0     H29959   5.361   5.676  11.452  1.1700 -0.2301  0.6834
  222MOL0     H29960   5.519   5.651  11.641  0.2778 -2.0814  0.9054
  222MOL0     H29961   5.419   5.536  11.715  0.0070  1.7621  0.9835
  222MOL0     H29962   5.317   5.738  11.821 -2.2147  1.1522 -0.3374
  222MOL0     H29963   5.243   5.741  11.658 -1.1510  0.6365  2.2914
  222MOL0     H29964   5.444   5.898  11.598  4.5909  2.5770  2.3934
  222MOL0     H29965   5.336   5.963  11.718  1.1170  0.3785  5.7142
  222MOL0     H29966   5.687   5.904  11.943 -0.8258  2.1300 -0.2485
  222MOL0     H29967   5.457   5.485  11.194 -0.3662  0.9343 -0.9660
  222MOL0     H29968   5.443   5.375  10.969 -0.4412 -0.4007 -0.2637
  222MOL0     H29969   5.363   5.223  10.959 -2.2810 -0.4586  1.1281
  222MOL0     H29970   5.272   5.374  10.935 -2.1487  0.2834  1.9218
  223MOL0     O29971   5.903  10.650   3.948 -0.5729  0.2751 -0.0141
  223MOL0     C29972   5.941  10.537   3.954 -0.2871 -0.1323 -0.1676
  223MOL0     O29973   6.062  10.488   3.997  0.1762  0.0510  0.0134
  223MOL0     C29974   6.152  10.580   4.056 -0.6242  0.7021  0.2186
  223MOL0     C29975   6.287  10.545   4.032 -0.4329  0.1224 -0.8184
  223MOL0     C29976   6.387  10.630   4.080  1.1286 -0.5658 -0.8560
  223MOL0     C29977   6.353  10.737   4.167  0.4291 -0.0594  1.0900
  223MOL0     O29978   6.470  10.806   4.200  0.7513  0.1866  0.3099
  223MOL0     C29979   6.473  10.885   4.318  0.1745  0.0728 -0.4665
  223MOL0     C29980   6.569  10.828   4.424  0.5263  0.2186 -0.1075
  223MOL0     C29981   6.713  10.857   4.389  0.5805  0.2470 -0.0966
  223MOL0     C29982   6.803  10.796   4.505 -0.3404 -0.3047  0.5690
  223MOL0     C29983   6.941  10.789   4.452  0.2012 -0.1756 -0.0615
  223MOL0     C29984   7.043  10.764   4.569  0.0844  0.4855  0.8728
  223MOL0     C29985   7.179  10.786   4.506  0.6497  0.1228 -0.7148
  223MOL0     C29986   7.290  10.776   4.604 -0.3746  0.6272 -0.4284
  223MOL0     N29987   7.335  10.898   4.679  0.2954  0.9109  0.8823
  223MOL0     C29988   7.359  11.009   4.606  0.5202 -0.0061  0.0528
  223MOL0     C29989   7.412  11.097   4.695  0.5666 -0.1259  0.8645
  223MOL0     C29990   7.477  11.238   4.686  0.6245 -0.3888 -0.2571
  223MOL0     C29991   7.438  11.323   4.563  0.2184 -0.5784 -0.3432
  223MOL0     C29992   7.488  11.467   4.572  0.4605 -0.7970 -0.7270
  223MOL0     C29993   7.414  11.552   4.467  0.7421 -0.4861  0.3542
  223MOL0     O29994   7.503  11.549   4.350 -0.4933 -0.3860 -0.4552
  223MOL0     C29995   7.465  11.622   4.240  0.6100 -0.0536  1.6041
  223MOL0     C29996   7.537  11.743   4.211  1.5539 -0.1902  0.7474
  223MOL0     C29997   7.485  11.834   4.116  1.5049 -0.2865 -0.1026
  223MOL0     C29998   7.362  11.801   4.046  0.7180 -0.0471  0.0158
  223MOL0     C29999   7.296  11.879   3.929  0.3294  0.5247 -0.2967
  223MOL0     O30000   7.374  11.979   3.873 -0.2329  0.5952  0.0258
  223MOL0     C30001   7.336  12.058   3.772 -0.0208 -0.0387 -0.4498
  223MOL0     C30002   7.205  12.070   3.713  0.3736  0.2866 -0.0910
  223MOL0     C30003   7.185  12.145   3.603  0.4969  0.2044  0.5221
  223MOL0     C30004   7.279  12.228   3.546 -0.0491 -1.3307 -0.1775
  223MOL0     O30005   7.236  12.306   3.446 -0.3805 -0.5983 -0.2588
  223MOL0     C30006   7.329  12.369   3.359 -0.3056  0.4438 -0.3526
  223MOL0     C30007   7.417  12.289   3.254  0.4866 -0.3349 -0.3693
  223MOL0     C30008   7.327  12.238   3.135  0.3940  0.7233 -0.0224
  223MOL0     C30009   7.331  12.328   3.019  0.0107 -0.1064  0.0679
  223MOL0     C30010   7.213  12.293   2.925 -0.1255  1.0081  0.2128
  223MOL0     C30011   7.217  12.386   2.799  0.2554 -0.4352 -0.3983
  223MOL0     C30012   7.107  12.362   2.697  0.1031 -0.2222 -1.3684
  223MOL0     C30013   6.968  12.410   2.764  0.3511 -0.5733  0.7167
  223MOL0    Cl30014   6.929  12.588   2.777  0.3548  0.3907 -0.7089
  223MOL0     C30015   7.416  12.225   3.601  0.1958 -0.6056 -0.0534
  223MOL0     C30016   7.433  12.138   3.709 -0.8472 -0.4395 -0.1761
  223MOL0     O30017   7.185  11.845   3.888 -0.2524 -0.5294 -0.5550
  223MOL0     C30018   7.296  11.681   4.079 -0.6224  1.1203 -0.4015
  223MOL0     C30019   7.342  11.588   4.175 -0.1428 -0.1033 -1.0144
  223MOL0     N30020   7.406  11.040   4.825 -0.8492 -0.0549  0.9559
  223MOL0     N30021   7.369  10.915   4.806 -0.0573  0.3397 -0.4285
  223MOL0     C30022   6.217  10.755   4.199  0.1260 -0.3076 -0.4930
  223MOL0     C30023   6.122  10.683   4.142 -0.6063  0.4104  0.7765
  223MOL0     C30024   5.842  10.437   3.919  0.5522 -0.6150 -0.3391
  223MOL0     C30025   5.889  10.322   3.859  0.0227 -0.7636 -0.8393
  223MOL0     C30026   5.806  10.215   3.828 -0.0133 -0.3289 -1.1681
  223MOL0     C30027   5.670  10.225   3.846  0.2569  0.2681 -0.0578
  223MOL0     O30028   5.589  10.114   3.815  0.2763  0.3172  0.6427
  223MOL0     C30029   5.598  10.078   3.672 -0.1599 -0.4513 -0.3311
  223MOL0     C30030   5.600   9.928   3.691  0.1829  0.6245  0.2415
  223MOL0     C30031   5.458   9.871   3.736  0.1177 -0.0579 -0.4461
  223MOL0     C30032   5.357   9.859   3.627 -0.2781  0.6413  0.0782
  223MOL0     C30033   5.400   9.778   3.506  0.0252  0.2389  0.7097
  223MOL0     C30034   5.446   9.711   3.409 -0.3890  0.3124 -0.7933
  223MOL0     C30035   5.616  10.338   3.900  0.1797 -0.6970  0.2011
  223MOL0     C30036   5.695  10.444   3.941 -0.4484  0.5276  0.2773
  223MOL0     C30037   5.630  10.568   3.994  0.8234 -0.3822  0.2711
  223MOL0     H30038   6.301  10.453   3.976 -2.2074 -2.1461  2.1769
  223MOL0     H30039   6.492  10.605   4.066  0.6342 -1.7246 -2.7720
  223MOL0     H30040   6.505  10.987   4.294 -0.3461  1.0762  2.6483
  223MOL0     H30041   6.379  10.897   4.371  1.5718  1.9181  1.8067
  223MOL0     H30042   6.567  10.719   4.433  1.2589  0.2510  0.6053
  223MOL0     H30043   6.541  10.882   4.515  0.5353  6.0633 -3.0792
  223MOL0     H30044   6.730  10.965   4.388 -1.2307  0.5937  1.4418
  223MOL0     H30045   6.741  10.805   4.297  1.3285 -1.5076  1.0784
  223MOL0     H30046   6.797  10.862   4.592 -0.1685 -3.4153  3.1237
  223MOL0     H30047   6.763  10.705   4.550  0.5009  0.2934  2.6334
  223MOL0     H30048   6.954  10.714   4.374  0.9750  0.9954 -1.0865
  223MOL0     H30049   6.972  10.883   4.405  2.0842 -1.0963 -0.7660
  223MOL0     H30050   7.037  10.843   4.645  3.4977  1.1694  0.6125
  223MOL0     H30051   7.024  10.671   4.623 -0.0139  0.5562  0.9621
  223MOL0     H30052   7.182  10.887   4.463 -0.3922  1.2117  1.5720
  223MOL0     H30053   7.182  10.710   4.428 -4.3537  1.5001 -2.6493
  223MOL0     H30054   7.252  10.718   4.688  1.7633 -1.7044 -0.9607
  223MOL0     H30055   7.383  10.738   4.561 -0.3057  1.0599 -0.6724
  223MOL0     H30056   7.349  11.025   4.499 -2.1067  0.5745  0.3064
  223MOL0     H30057   7.446  11.291   4.776  1.4708  0.8480 -0.6751
  223MOL0     H30058   7.586  11.234   4.692  0.5784  0.2935  2.0631
  223MOL0     H30059   7.470  11.287   4.465 -0.6846  2.4606 -1.8748
  223MOL0     H30060   7.329  11.321   4.554 -0.0180  0.3341  1.8009
  223MOL0     H30061   7.596  11.478   4.562  0.1255  3.4852 -1.2976
  223MOL0     H30062   7.454  11.506   4.669  3.5807 -0.0051  0.1479
  223MOL0     H30063   7.401  11.652   4.509  1.1704  0.6532 -2.0594
  223MOL0     H30064   7.318  11.522   4.426 -0.1214 -1.1989  2.7066
  223MOL0     H30065   7.632  11.755   4.262  2.0048  1.8037 -0.4432
  223MOL0     H30066   7.519  11.937   4.104 -1.1554  0.7154  0.3126
  223MOL0     H30067   7.115  12.028   3.758 -1.0391  1.0097 -2.1146
  223MOL0     H30068   7.085  12.154   3.562  1.2400 -3.4789 -2.6794
  223MOL0     H30069   7.271  12.445   3.307 -0.4240  1.9511  1.8481
  223MOL0     H30070   7.400  12.429   3.417  1.5417 -0.5707 -1.4433
  223MOL0     H30071   7.490  12.356   3.209  1.2137 -0.9076 -0.0469
  223MOL0     H30072   7.477  12.208   3.296 -2.2528 -2.2090  0.1972
  223MOL0     H30073   7.355  12.138   3.103  3.1754  1.3048  0.3624
  223MOL0     H30074   7.222  12.236   3.165 -0.4291  0.4494 -2.6530
  223MOL0     H30075   7.425  12.327   2.962  0.1328  0.6155  0.2404
  223MOL0     H30076   7.314  12.429   3.057  1.0531 -0.3343  1.2023
  223MOL0     H30077   7.125  12.309   2.988 -2.4450 -1.6853 -2.0423
  223MOL0     H30078   7.228  12.187   2.903 -2.9995 -0.0590  2.6991
  223MOL0     H30079   7.210  12.491   2.831 -3.2557 -0.7896  0.3996
  223MOL0     H30080   7.317  12.375   2.756  0.5340 -1.5805  0.4870
  223MOL0     H30081   7.091  12.260   2.660 -4.4636  0.5589 -2.1601
  223MOL0     H30082   7.131  12.414   2.604 -3.1137  0.4508 -1.9537
  223MOL0     H30083   6.896  12.358   2.700  0.8750 -3.4729  2.3374
  223MOL0     H30084   6.932  12.372   2.859 -0.8041 -1.4752 -0.0542
  223MOL0     H30085   7.506  12.276   3.569  1.1758 -2.9730 -1.3414
  223MOL0     H30086   7.533  12.138   3.753 -0.7267 -2.8619 -0.3094
  223MOL0     H30087   7.207  11.645   4.029 -0.5595 -1.2419  1.0509
  223MOL0     H30088   7.292  11.500   4.214 -2.2740  0.6984 -1.7898
  223MOL0     H30089   6.189  10.837   4.263 -0.8527 -1.2697  0.3603
  223MOL0     H30090   6.025  10.706   4.186 -2.2929  0.0407 -2.4074
  223MOL0     H30091   5.992  10.316   3.827  0.4911 -0.1793  0.4821
  223MOL0     H30092   5.843  10.127   3.777  2.6678  0.9687 -1.6046
  223MOL0     H30093   5.687  10.112   3.619  1.9462  1.0363  3.7469
  223MOL0     H30094   5.505  10.102   3.620 -0.0973  0.8598  0.1263
  223MOL0     H30095   5.675   9.903   3.766 -1.8660 -2.4049  1.4602
  223MOL0     H30096   5.635   9.884   3.597 -2.5434 -0.3228 -0.4247
  223MOL0     H30097   5.413   9.937   3.810  2.0535  2.5677 -1.4364
  223MOL0     H30098   5.467   9.773   3.783  5.0175  0.4277  0.1841
  223MOL0     H30099   5.262   9.822   3.666 -2.4786  4.0762 -1.4408
  223MOL0     H30100   5.334   9.962   3.598 -2.1906  0.3371  0.3830
  223MOL0     H30101   5.521   9.683   3.337  1.9347  4.0600 -0.1499
  223MOL0     H30102   5.508  10.345   3.904  0.0397 -2.7776  1.2936
  223MOL0     H30103   5.532  10.547   4.037 -0.1865  1.7296 -0.8525
  223MOL0     H30104   5.681  10.616   4.077 -0.8977  2.4190 -0.1809
  223MOL0     H30105   5.641  10.645   3.917  3.2745  1.1290  2.0258
  224MOL0     O30106   9.113  10.703  10.833  0.5321  0.1668  0.5029
  224MOL0     C30107   9.216  10.696  10.904 -0.1879  0.6474  0.5520
  224MOL0     O30108   9.344  10.670  10.854  0.0436  0.0976  0.6008
  224MOL0     C30109   9.362  10.687  10.716  0.8277  0.9445 -0.6353
  224MOL0     C30110   9.392  10.579  10.635  0.2470  0.2407  0.1159
  224MOL0     C30111   9.404  10.590  10.491  0.4276  0.4517 -0.1531
  224MOL0     C30112   9.393  10.715  10.431 -0.2167 -0.8916  0.0456
  224MOL0     O30113   9.398  10.724  10.294 -0.0477 -0.8344  0.0477
  224MOL0     C30114   9.422  10.849  10.231  0.1194  0.8199  0.4114
  224MOL0     C30115   9.446  10.817  10.085  0.0494 -0.9541  0.6194
  224MOL0     C30116   9.550  10.712  10.044 -0.8593 -0.8536 -0.4961
  224MOL0     C30117   9.691  10.749  10.105  0.1736  0.3351 -0.0357
  224MOL0     C30118   9.800  10.675  10.029 -0.0444 -0.3364  0.2807
  224MOL0     C30119   9.915  10.630  10.118  0.0121  0.2993  0.3836
  224MOL0     C30120   9.880  10.500  10.199 -0.4083  0.9217  0.2897
  224MOL0     C30121   9.860  10.377  10.118  0.2625 -0.1014 -0.4332
  224MOL0     N30122   9.778  10.280  10.198 -0.7107  0.0869 -0.3958
  224MOL0     C30123   9.636  10.268  10.191  0.3294 -0.2786 -0.2745
  224MOL0     C30124   9.624  10.168  10.284 -0.2867 -0.0165  0.6855
  224MOL0     C30125   9.498  10.106  10.323  0.5446  0.1444  0.2272
  224MOL0     C30126   9.404  10.206  10.391  0.1933 -0.0955  0.9824
  224MOL0     C30127   9.301  10.133  10.472  0.0125 -0.1379 -0.2779
  224MOL0     C30128   9.354  10.068  10.604 -0.9762 -0.3489 -0.9789
  224MOL0     O30129   9.433  10.170  10.672 -0.1078  0.5209  0.1707
  224MOL0     C30130   9.502  10.124  10.776 -0.7316 -0.5626 -1.5851
  224MOL0     C30131   9.556  10.223  10.867 -0.0581 -0.1678  0.4219
  224MOL0     C30132   9.598  10.192  10.991  0.0903 -0.0267  0.4609
  224MOL0     C30133   9.607  10.062  11.034  0.0939  0.4537  0.1148
  224MOL0     C30134   9.667  10.040  11.167  1.1263 -0.2051 -0.4731
  224MOL0     O30135   9.652   9.907  11.221  0.0660 -0.8527  0.0533
  224MOL0     C30136   9.696   9.900  11.353  0.0424 -0.1914 -0.9756
  224MOL0     C30137   9.610   9.924  11.461 -0.3475  0.1210 -0.0994
  224MOL0     C30138   9.667   9.923  11.592 -0.2405 -0.4742  0.3242
  224MOL0     C30139   9.807   9.898  11.617 -0.1933  0.1985  0.1353
  224MOL0     O30140   9.853   9.898  11.743 -0.0569 -0.2727 -0.2513
  224MOL0     C30141   9.774   9.867  11.859  0.6793 -0.1947 -0.6201
  224MOL0     C30142   9.735   9.723  11.857 -1.1237  0.2961 -0.7985
  224MOL0     C30143   9.873   9.643  11.885 -0.0618  0.3545 -0.4206
  224MOL0     C30144   9.874   9.501  11.824  0.6477  0.5735  0.0257
  224MOL0     C30145   9.754   9.408  11.871  0.1812  0.4123 -0.1118
  224MOL0     C30146   9.723   9.290  11.776  0.0400 -0.0793  0.9113
  224MOL0     C30147   9.595   9.221  11.805  0.4596  0.5495  1.0191
  224MOL0     C30148   9.547   9.156  11.679  0.5260  0.2285  0.7951
  224MOL0    Cl30149   9.383   9.104  11.701  0.0494  0.1814  0.3685
  224MOL0     C30150   9.886   9.860  11.503 -0.5604 -0.1626  0.5674
  224MOL0     C30151   9.833   9.862  11.377 -0.5226 -0.7633 -0.4087
  224MOL0     O30152   9.704  10.136  11.233  1.3632 -0.1549  0.2734
  224MOL0     C30153   9.574   9.953  10.945  0.0363 -0.8585 -0.7712
  224MOL0     C30154   9.520   9.986  10.819 -0.3834 -0.3038  0.3961
  224MOL0     N30155   9.742  10.121  10.336  0.0980 -0.5664  0.4597
  224MOL0     N30156   9.833  10.192  10.286  0.8732 -0.1510  0.0044
  224MOL0     C30157   9.375  10.827  10.514 -0.2603 -0.9933 -0.0963
  224MOL0     C30158   9.357  10.809  10.652  0.5700 -0.2338 -0.8133
  224MOL0     C30159   9.195  10.707  11.047  0.2580 -0.7010  0.7247
  224MOL0     C30160   9.199  10.829  11.108 -0.2620 -0.4158 -0.0464
  224MOL0     C30161   9.176  10.835  11.246  0.5957 -0.3265 -0.6167
  224MOL0     C30162   9.148  10.719  11.314  0.5920 -0.3511  0.2551
  224MOL0     O30163   9.133  10.734  11.445 -0.5441 -0.2364 -0.6374
  224MOL0     C30164   9.130  10.611  11.524 -0.3413  1.0801 -0.4433
  224MOL0     C30165   9.115  10.634  11.677 -0.5043 -0.0730  0.3671
  224MOL0     C30166   8.994  10.704  11.738 -0.0133 -1.1218  0.9560
  224MOL0     C30167   8.996  10.861  11.710  0.4646 -0.5282  0.2514
  224MOL0     C30168   8.910  10.928  11.801 -0.2898 -0.2328  0.0466
  224MOL0     C30169   8.836  10.992  11.878  0.4463  0.1238  0.0220
  224MOL0     C30170   9.152  10.601  11.248 -0.8490  0.2166 -0.0466
  224MOL0     C30171   9.195  10.591  11.119  0.3306  0.3812  0.7873
  224MOL0     C30172   9.224  10.460  11.043  0.2261  0.0475  0.3003
  224MOL0     H30173   9.401  10.481  10.678  3.5218 -0.4923 -1.8537
  224MOL0     H30174   9.392  10.511  10.418  1.7742 -1.7630  1.8526
  224MOL0     H30175   9.327  10.904  10.226 -0.0217  0.4557 -3.6520
  224MOL0     H30176   9.510  10.907  10.261  1.3308 -1.1565  0.8751
  224MOL0     H30177   9.447  10.908  10.025 -0.4849 -0.3054  1.5871
  224MOL0     H30178   9.354  10.767  10.054 -0.5895  0.7455 -0.3678
  224MOL0     H30179   9.563  10.712   9.935  1.5633  0.6616 -0.2808
  224MOL0     H30180   9.511  10.615  10.076 -1.3317 -0.8682 -1.0787
  224MOL0     H30181   9.704  10.857  10.108 -1.9787  0.6604 -0.3017
  224MOL0     H30182   9.703  10.724  10.211  1.8279  0.5955 -0.1486
  224MOL0     H30183   9.760  10.599   9.961 -0.8184  0.5224 -0.2516
  224MOL0     H30184   9.847  10.747   9.960  0.1788  1.3641  2.1156
  224MOL0     H30185  10.013  10.614  10.073  0.4830  1.9939  0.7320
  224MOL0     H30186   9.945  10.708  10.188 -3.1691  3.3751 -1.3487
  224MOL0     H30187   9.793  10.524  10.260  1.0142  0.9278  2.4333
  224MOL0     H30188   9.972  10.485  10.257 -0.9002  0.4416  0.9622
  224MOL0     H30189   9.802  10.391  10.026 -0.5939 -0.2067  0.0769
  224MOL0     H30190   9.954  10.323  10.100  1.0435  0.7987  0.8435
  224MOL0     H30191   9.556  10.313  10.133  1.3005 -0.2372 -1.6245
  224MOL0     H30192   9.451  10.050  10.242 -1.2738  0.7478  0.8281
  224MOL0     H30193   9.523  10.026  10.393  0.9150  0.9720  1.0638
  224MOL0     H30194   9.457  10.277  10.455  0.8821 -0.4906  0.8600
  224MOL0     H30195   9.351  10.254  10.309 -1.8321 -2.1815  0.9776
  224MOL0     H30196   9.256  10.058  10.406  0.6777 -0.5395 -0.2825
  224MOL0     H30197   9.227  10.208  10.501  1.2404  0.4962  1.3294
  224MOL0     H30198   9.416   9.983  10.576 -3.1003 -1.2357 -3.3859
  224MOL0     H30199   9.270  10.023  10.658 -1.5042 -0.1101 -1.5952
  224MOL0     H30200   9.556  10.327  10.837 -1.3687 -0.5402 -1.0200
  224MOL0     H30201   9.629  10.281  11.045 -1.6909  0.2458  1.0779
  224MOL0     H30202   9.508   9.959  11.446 -0.1069  0.8621 -0.0602
  224MOL0     H30203   9.593   9.953  11.666 -3.5423 -4.0684 -1.1873
  224MOL0     H30204   9.834   9.893  11.946 -1.6256  2.1835  0.4008
  224MOL0     H30205   9.681   9.924  11.869 -0.1797 -1.7856  1.3860
  224MOL0     H30206   9.666   9.700  11.939 -0.4056 -3.6902 -1.1399
  224MOL0     H30207   9.694   9.686  11.763  0.4152  0.6178 -1.6373
  224MOL0     H30208   9.954   9.698  11.838 -1.4237  0.6819 -2.5244
  224MOL0     H30209   9.888   9.625  11.992  3.7880 -0.6674 -0.9929
  224MOL0     H30210   9.962   9.441  11.852  1.2521  2.3101  2.1653
  224MOL0     H30211   9.874   9.496  11.715 -0.5573 -0.3605  0.0524
  224MOL0     H30212   9.668   9.475  11.881  0.4663  0.7471  0.1097
  224MOL0     H30213   9.768   9.371  11.973 -2.3099 -0.7814 -0.1245
  224MOL0     H30214   9.721   9.340  11.678  1.4408 -2.1436 -0.2559
  224MOL0     H30215   9.800   9.215  11.793  0.2687 -0.1872 -0.4894
  224MOL0     H30216   9.523   9.295  11.840  0.3019  1.3125 -0.8186
  224MOL0     H30217   9.606   9.147  11.886  2.8552  1.1972  1.3737
  224MOL0     H30218   9.548   9.231  11.600 -0.1462 -0.3298  0.2382
  224MOL0     H30219   9.614   9.073  11.653 -1.5897 -1.9076  1.6979
  224MOL0     H30220   9.992   9.837  11.500 -0.2360  0.8999  2.3164
  224MOL0     H30221   9.894   9.850  11.288 -3.2800  0.1509 -2.5756
  224MOL0     H30222   9.561   9.851  10.979  0.4346  0.1992  3.1324
  224MOL0     H30223   9.495   9.912  10.743  0.0139  0.8669 -0.8997
  224MOL0     H30224   9.376  10.931  10.486  0.2119 -0.5126  1.5765
  224MOL0     H30225   9.347  10.893  10.720 -0.1977 -3.4202  3.4066
  224MOL0     H30226   9.226  10.916  11.050  5.0113 -2.0736 -0.6939
  224MOL0     H30227   9.186  10.932  11.292 -1.3792 -0.1202 -0.5777
  224MOL0     H30228   9.223  10.555  11.517 -0.9940 -0.0322 -0.5165
  224MOL0     H30229   9.046  10.545  11.498 -0.0442  0.0425  1.0903
  224MOL0     H30230   9.201  10.698  11.701 -0.9227 -0.4053  3.1210
  224MOL0     H30231   9.124  10.540  11.732 -1.6434 -0.5748 -0.2823
  224MOL0     H30232   8.991  10.680  11.845  1.6865  0.1886  1.3458
  224MOL0     H30233   8.898  10.664  11.702  0.3661 -1.1145 -0.1005
  224MOL0     H30234   9.098  10.901  11.710  0.9769 -1.7415  1.6445
  224MOL0     H30235   8.962  10.873  11.607 -0.0665  0.7070  0.5614
  224MOL0     H30236   8.763  11.050  11.931  0.8450 -0.2728  1.0311
  224MOL0     H30237   9.130  10.507  11.298  3.8093 -1.7490 -1.1580
  224MOL0     H30238   9.144  10.425  10.977 -0.2578  1.8909 -0.1487
  224MOL0     H30239   9.321  10.461  10.992  0.1055  2.5897  0.0315
  224MOL0     H30240   9.235  10.380  11.117 -1.0153  0.6280  1.1375
  225MOL0     O30241  10.346   6.047   5.652  0.5097  0.6442 -0.7400
  225MOL0     C30242  10.426   6.128   5.677 -0.3921 -0.4131  0.6243
  225MOL0     O30243  10.563   6.110   5.655  0.4193 -0.0178  0.3486
  225MOL0     C30244  10.597   5.989   5.608  0.2490 -0.2315  0.2975
  225MOL0     C30245  10.573   5.953   5.466 -0.7667  0.9679 -0.4122
  225MOL0     C30246  10.589   5.818   5.427  0.6540 -0.1486 -0.0163
  225MOL0     C30247  10.630   5.720   5.517 -0.1158 -0.0964  0.7306
  225MOL0     O30248  10.674   5.596   5.487  0.2240  0.2717 -0.7649
  225MOL0     C30249  10.610   5.534   5.373 -0.0128  0.7778  0.0962
  225MOL0     C30250  10.660   5.396   5.337  1.3867  0.8093 -0.9776
  225MOL0     C30251  10.815   5.395   5.322  0.7600 -0.4299  0.5325
  225MOL0     C30252  10.875   5.492   5.209 -0.2341 -0.7251  0.6537
  225MOL0     C30253  10.821   5.463   5.065  0.4435  0.0279 -0.4252
  225MOL0     C30254  10.845   5.320   5.014 -0.8667 -0.5014 -0.1871
  225MOL0     C30255  10.785   5.303   4.875  0.5376 -0.6844 -0.1354
  225MOL0     C30256  10.743   5.154   4.855  0.3777 -0.1390 -0.1579
  225MOL0     N30257  10.661   5.133   4.736  0.0868  0.1858 -0.7485
  225MOL0     C30258  10.718   5.141   4.608 -0.3027  0.6974 -0.7684
  225MOL0     C30259  10.628   5.071   4.533 -0.1802  0.4396  0.2774
  225MOL0     C30260  10.622   5.049   4.376  0.3008 -0.0762 -0.8707
  225MOL0     C30261  10.692   4.920   4.338  0.4492 -0.3272 -0.3475
  225MOL0     C30262  10.652   4.780   4.391 -0.8548  0.8946 -0.5113
  225MOL0     C30263  10.507   4.753   4.373 -0.4146  0.8552 -0.3837
  225MOL0     O30264  10.490   4.611   4.413  0.4141  0.8628 -0.1318
  225MOL0     C30265  10.454   4.576   4.549  0.6174  0.1546 -0.0242
  225MOL0     C30266  10.421   4.449   4.588  0.4643  0.1892  0.5461
  225MOL0     C30267  10.392   4.415   4.709 -0.1953  0.3889 -0.2899
  225MOL0     C30268  10.397   4.503   4.815  0.0703 -0.3657  0.2582
  225MOL0     C30269  10.395   4.444   4.953 -0.5303  0.5606  0.0456
  225MOL0     O30270  10.382   4.305   4.956 -0.2306 -0.5123  0.6255
  225MOL0     C30271  10.409   4.252   5.080 -0.1987  0.2548  0.1716
  225MOL0     C30272  10.549   4.245   5.136 -0.2233 -0.5621  0.6990
  225MOL0     C30273  10.564   4.164   5.253  0.0651  0.3082 -0.2135
  225MOL0     C30274  10.459   4.109   5.332 -0.4254  0.5863 -0.7826
  225MOL0     O30275  10.488   4.041   5.452  0.0065  0.1671 -0.0015
  225MOL0     C30276  10.548   3.911   5.432  0.3845  0.0006 -0.3098
  225MOL0     C30277  10.451   3.825   5.527  0.4169 -0.0784  0.0112
  225MOL0     C30278  10.301   3.828   5.482 -0.2282 -0.9520  0.3171
  225MOL0     C30279  10.234   3.705   5.530  0.2093 -0.2155  0.2474
  225MOL0     C30280  10.084   3.707   5.504  0.1676  0.3349  0.4888
  225MOL0     C30281  10.036   3.678   5.358 -0.1657  0.3505 -0.0253
  225MOL0     C30282   9.889   3.692   5.365 -0.4695  0.9369 -0.1149
  225MOL0     C30283   9.844   3.682   5.216  1.0738  0.0116 -0.0015
  225MOL0    Cl30284   9.657   3.708   5.191 -0.0179 -0.1034  0.4079
  225MOL0     C30285  10.324   4.115   5.278  0.9398 -0.3329 -0.2677
  225MOL0     C30286  10.304   4.185   5.161 -0.4087 -0.1849 -0.2281
  225MOL0     O30287  10.399   4.513   5.054  0.0336 -1.7011 -0.2176
  225MOL0     C30288  10.401   4.635   4.779 -0.4906 -0.2945 -0.0417
  225MOL0     C30289  10.428   4.675   4.646 -0.8237  0.0527 -0.3262
  225MOL0     N30290  10.513   5.041   4.602 -0.7216 -0.1830 -0.2198
  225MOL0     N30291  10.537   5.079   4.721  0.8663  0.0934  0.0906
  225MOL0     C30292  10.651   5.754   5.646  0.5622  0.9834 -0.6593
  225MOL0     C30293  10.638   5.888   5.695  0.4455  0.2083 -0.3945
  225MOL0     C30294  10.369   6.254   5.736  0.1512  1.2231  0.9688
  225MOL0     C30295  10.251   6.311   5.693  0.3027  0.3346 -0.8049
  225MOL0     C30296  10.211   6.434   5.733  0.7687  0.2553  0.4920
  225MOL0     C30297  10.289   6.519   5.811 -0.3374  1.4646 -0.5783
  225MOL0     O30298  10.238   6.640   5.825 -0.3876 -0.0719  0.0439
  225MOL0     C30299  10.321   6.737   5.900  1.2766  0.5919 -0.8194
  225MOL0     C30300  10.237   6.865   5.918 -0.5533  0.3016 -0.6930
  225MOL0     C30301  10.129   6.853   6.039 -0.1328 -0.2681 -0.4051
  225MOL0     C30302  10.002   6.768   6.001 -0.6295 -0.3906  0.7551
  225MOL0     C30303   9.894   6.807   6.088 -0.6397 -0.3179 -1.2005
  225MOL0     C30304   9.804   6.829   6.162 -0.6191 -0.6618  0.1056
  225MOL0     C30305  10.420   6.476   5.842  0.1427  0.2389 -0.1954
  225MOL0     C30306  10.463   6.338   5.805 -0.5587 -0.4135 -0.4860
  225MOL0     C30307  10.585   6.293   5.872  0.4896 -0.6619  0.3001
  225MOL0     H30308  10.548   6.028   5.392  0.0819 -0.2932 -2.0330
  225MOL0     H30309  10.570   5.792   5.323 -3.6629  1.6631  0.0874
  225MOL0     H30310  10.515   5.498   5.414  0.3974 -0.4629 -0.0160
  225MOL0     H30311  10.596   5.595   5.283 -0.1488 -1.8055 -1.7266
  225MOL0     H30312  10.598   5.360   5.254 -2.8268  0.7515  1.8845
  225MOL0     H30313  10.639   5.326   5.419 -1.1181  1.3737 -1.0505
  225MOL0     H30314  10.838   5.294   5.286 -2.0344 -0.7186 -0.6840
  225MOL0     H30315  10.870   5.414   5.415 -0.1769  2.0852  0.6346
  225MOL0     H30316  10.855   5.598   5.229  1.3822  0.4197 -2.8840
  225MOL0     H30317  10.984   5.483   5.215  0.0987  1.5610 -0.6750
  225MOL0     H30318  10.714   5.479   5.078  0.3419 -0.9483  0.0343
  225MOL0     H30319  10.851   5.540   4.994 -2.9043 -1.1950 -3.4312
  225MOL0     H30320  10.953   5.302   5.016  0.1635  4.4602  1.3367
  225MOL0     H30321  10.796   5.258   5.091 -2.2867  1.0134  0.2084
  225MOL0     H30322  10.854   5.338   4.798  0.3507  0.8948  0.3760
  225MOL0     H30323  10.695   5.366   4.868 -1.1637 -2.9292  0.2978
  225MOL0     H30324  10.831   5.090   4.846 -1.0526 -2.5149  1.6825
  225MOL0     H30325  10.687   5.129   4.945 -2.9535  3.8997 -0.7890
  225MOL0     H30326  10.815   5.181   4.578  1.3127 -2.0120  0.3940
  225MOL0     H30327  10.519   5.040   4.343 -0.3319 -1.2432  1.2137
  225MOL0     H30328  10.654   5.144   4.334 -1.9477  1.3660  0.4884
  225MOL0     H30329  10.682   4.912   4.229 -1.3691 -0.8285 -0.1690
  225MOL0     H30330  10.799   4.930   4.360  0.1235  1.6868  0.5357
  225MOL0     H30331  10.683   4.774   4.495 -0.4247 -1.3822 -0.7254
  225MOL0     H30332  10.718   4.707   4.341  1.6377  0.0431  3.5735
  225MOL0     H30333  10.483   4.755   4.267 -0.0834 -1.0935 -0.5213
  225MOL0     H30334  10.442   4.823   4.426  1.8735  2.2847  0.7171
  225MOL0     H30335  10.427   4.370   4.514 -1.6956  0.2642  0.2075
  225MOL0     H30336  10.362   4.313   4.728  0.9276  0.4444  2.2295
  225MOL0     H30337  10.635   4.291   5.088  1.3348  0.0898  3.8544
  225MOL0     H30338  10.667   4.159   5.289 -0.0079  1.8394  0.2446
  225MOL0     H30339  10.543   3.884   5.326 -1.8600  1.8451 -0.7504
  225MOL0     H30340  10.648   3.916   5.477 -0.4367  4.3048  1.5317
  225MOL0     H30341  10.489   3.724   5.543  0.6481 -0.0334 -0.2485
  225MOL0     H30342  10.474   3.869   5.625  1.2519 -0.9766  0.2263
  225MOL0     H30343  10.267   3.918   5.533 -0.1968 -0.8724  0.1978
  225MOL0     H30344  10.293   3.838   5.373  1.2306  2.1175  0.4049
  225MOL0     H30345  10.240   3.704   5.640  4.7991  0.7962  0.2049
  225MOL0     H30346  10.264   3.609   5.488 -3.4494 -2.4531  2.2231
  225MOL0     H30347  10.042   3.804   5.534  3.2320  2.0262 -0.2477
  225MOL0     H30348  10.033   3.630   5.562  1.0275 -0.9788 -0.4456
  225MOL0     H30349  10.077   3.755   5.292 -2.8850  0.3281 -1.9392
  225MOL0     H30350  10.050   3.576   5.321 -1.3507  0.0501  0.3234
  225MOL0     H30351   9.855   3.781   5.418 -0.3184  0.4949  0.7404
  225MOL0     H30352   9.843   3.606   5.414  1.4762 -0.5778 -0.8140
  225MOL0     H30353   9.905   3.751   5.157  2.0345 -1.4622 -0.8277
  225MOL0     H30354   9.870   3.580   5.186  1.3449 -0.3960  1.4980
  225MOL0     H30355  10.242   4.075   5.336  1.3610 -1.7982 -0.6305
  225MOL0     H30356  10.201   4.179   5.130 -0.7060 -0.3731  0.7683
  225MOL0     H30357  10.402   4.703   4.864  1.3931 -1.9738  1.3523
  225MOL0     H30358  10.455   4.778   4.626 -0.0367 -0.3404 -1.3525
  225MOL0     H30359  10.689   5.689   5.724 -1.3000  1.6301  0.8789
  225MOL0     H30360  10.646   5.915   5.800 -2.4256 -0.5853  0.1329
  225MOL0     H30361  10.196   6.240   5.632  0.7415 -0.6490 -0.0610
  225MOL0     H30362  10.112   6.476   5.714  0.5713  0.1356  1.2427
  225MOL0     H30363  10.399   6.759   5.828  1.9152  2.5489  0.3977
  225MOL0     H30364  10.377   6.702   5.987  1.0300  1.9284 -0.0987
  225MOL0     H30365  10.185   6.902   5.830 -1.6935  1.3530  0.3799
  225MOL0     H30366  10.311   6.945   5.933  1.8701 -2.0077  0.6331
  225MOL0     H30367  10.106   6.958   6.058  2.4232  0.1106  1.0590
  225MOL0     H30368  10.170   6.808   6.130  0.5692  1.2361  0.0559
  225MOL0     H30369   9.978   6.768   5.894  2.4902 -0.0937 -0.0569
  225MOL0     H30370  10.028   6.664   6.024 -1.0620 -0.1250  2.5201
  225MOL0     H30371   9.715   6.855   6.216 -2.3069  1.4140 -3.3018
  225MOL0     H30372  10.493   6.536   5.896  1.9345 -1.8126 -0.2002
  225MOL0     H30373  10.582   6.194   5.919 -0.2436  0.2994  2.4370
  225MOL0     H30374  10.676   6.302   5.811 -0.3990 -4.0107 -1.7738
  225MOL0     H30375  10.602   6.361   5.957  0.3962 -1.0773  0.6549
  226MOL0     O30376   4.395   9.771   1.263  0.5543 -0.3947 -0.3334
  226MOL0     C30377   4.366   9.660   1.305 -0.4403  0.6226 -0.0853
  226MOL0     O30378   4.456   9.570   1.351  0.0677 -0.2999  0.5412
  226MOL0     C30379   4.593   9.577   1.349  0.6114  1.1219 -0.2337
  226MOL0     C30380   4.671   9.681   1.391 -0.5068 -0.5427  0.6805
  226MOL0     C30381   4.810   9.668   1.412 -0.3231  0.7492  0.3429
  226MOL0     C30382   4.881   9.549   1.388  0.8111  0.1084  0.2448
  226MOL0     O30383   5.011   9.541   1.422  0.3525 -0.9376  0.0186
  226MOL0     C30384   5.090   9.533   1.304 -0.0542  0.0917  0.3000
  226MOL0     C30385   5.240   9.543   1.349 -1.3146 -0.1526  0.2297
  226MOL0     C30386   5.280   9.652   1.446  1.2287  0.3483 -0.0576
  226MOL0     C30387   5.311   9.611   1.590 -0.7818  1.0691 -0.3184
  226MOL0     C30388   5.197   9.583   1.689 -0.1377 -0.3706  0.0084
  226MOL0     C30389   5.155   9.711   1.767 -0.1224 -0.5090  0.1088
  226MOL0     C30390   5.014   9.685   1.838  0.3468  0.1246  0.3814
  226MOL0     C30391   4.993   9.822   1.908 -0.2891 -0.2351  1.0902
  226MOL0     N30392   4.862   9.855   1.975 -0.0232  0.5195  0.0321
  226MOL0     C30393   4.753   9.768   1.952 -0.0051 -0.0664  0.7274
  226MOL0     C30394   4.646   9.854   1.964  0.1644 -0.0631  0.2723
  226MOL0     C30395   4.497   9.809   1.951  0.1000 -0.4586  0.2267
  226MOL0     C30396   4.475   9.747   1.819 -0.0949  0.2450  0.3319
  226MOL0     C30397   4.328   9.720   1.789  0.0661 -0.1541  1.0281
  226MOL0     C30398   4.274   9.826   1.685  0.3492 -0.3430  0.0450
  226MOL0     O30399   4.290   9.965   1.724  0.5118  0.7698  0.3470
  226MOL0     C30400   4.202  10.013   1.809  0.7093 -0.5232  0.6976
  226MOL0     C30401   4.237  10.132   1.865 -0.4682 -0.0549 -0.2083
  226MOL0     C30402   4.150  10.195   1.946  1.0307 -1.1122 -0.5628
  226MOL0     C30403   4.011  10.146   1.963 -0.2179 -0.7440 -0.0143
  226MOL0     C30404   3.907  10.228   2.028  1.2038 -1.1564 -0.2964
  226MOL0     O30405   3.931  10.367   2.038 -0.0331 -0.1010 -0.4960
  226MOL0     C30406   3.848  10.431   2.129  0.8230  0.4938  0.1481
  226MOL0     C30407   3.827  10.399   2.265 -0.1330  0.3477 -0.1823
  226MOL0     C30408   3.740  10.470   2.349 -0.9121 -0.4614  0.0559
  226MOL0     C30409   3.667  10.579   2.289 -0.2171  0.3015 -0.3143
  226MOL0     O30410   3.574  10.654   2.351 -0.2059  0.2352  0.1425
  226MOL0     C30411   3.598  10.667   2.489 -0.9535 -0.1372 -0.3382
  226MOL0     C30412   3.509  10.771   2.558 -0.2758 -0.0702  0.1712
  226MOL0     C30413   3.468  10.887   2.467 -0.2316 -1.8710 -0.1033
  226MOL0     C30414   3.351  10.967   2.522 -0.6515 -0.1674 -0.1365
  226MOL0     C30415   3.318  11.094   2.446 -0.0391 -0.8648  0.1805
  226MOL0     C30416   3.218  11.068   2.336 -0.1016  0.5596 -0.0297
  226MOL0     C30417   3.176  11.200   2.261  0.0225 -0.2875 -0.5964
  226MOL0     C30418   3.085  11.175   2.146 -0.1214  1.2046 -0.0040
  226MOL0    Cl30419   3.181  11.094   2.026  0.1687  0.0631  0.1806
  226MOL0     C30420   3.687  10.611   2.151  0.3723  0.6490 -1.2370
  226MOL0     C30421   3.772  10.537   2.070 -0.0019 -0.3935 -0.4201
  226MOL0     O30422   3.809  10.174   2.075  0.2952  0.1302  0.0377
  226MOL0     C30423   3.981  10.020   1.911 -0.0242 -0.3846  0.3028
  226MOL0     C30424   4.077   9.952   1.837 -0.0336  0.1704  0.0676
  226MOL0     N30425   4.695   9.975   2.003  0.6733 -0.5865 -0.2424
  226MOL0     N30426   4.823   9.974   2.022  0.0188  0.2164 -0.1362
  226MOL0     C30427   4.805   9.436   1.336  0.5780 -0.1972  0.4666
  226MOL0     C30428   4.668   9.457   1.316 -0.2553 -0.1157 -0.0594
  226MOL0     C30429   4.225   9.623   1.326  1.3531 -0.1187 -0.9022
  226MOL0     C30430   4.139   9.726   1.373 -0.1766  0.6943 -0.3236
  226MOL0     C30431   3.999   9.707   1.376 -0.2389 -0.3254 -0.3241
  226MOL0     C30432   3.946   9.576   1.350 -0.8365 -0.9655 -0.2713
  226MOL0     O30433   3.813   9.539   1.354  0.1541  0.3080  0.8502
  226MOL0     C30434   3.723   9.630   1.411  0.0112  0.3712 -0.5715
  226MOL0     C30435   3.730   9.625   1.568 -0.9593  0.3343  0.0616
  226MOL0     C30436   3.718   9.491   1.635 -0.1137 -0.1230  0.6172
  226MOL0     C30437   3.587   9.422   1.600 -0.7559  0.1579  0.0492
  226MOL0     C30438   3.600   9.272   1.587 -0.4184 -1.3168  0.0990
  226MOL0     C30439   3.588   9.148   1.572  0.5079  0.1505  0.7988
  226MOL0     C30440   4.028   9.476   1.296  0.1023  0.3131  0.1912
  226MOL0     C30441   4.170   9.498   1.277 -0.1591  0.4928  0.2312
  226MOL0     C30442   4.246   9.392   1.204  1.1665  0.4969 -0.4224
  226MOL0     H30443   4.623   9.774   1.419 -0.2350 -0.1232 -0.2096
  226MOL0     H30444   4.865   9.750   1.458  0.3140 -0.0175  0.9724
  226MOL0     H30445   5.072   9.443   1.244  0.4539  0.2662 -0.1299
  226MOL0     H30446   5.071   9.626   1.250 -0.7469  1.4339  2.6942
  226MOL0     H30447   5.317   9.554   1.273  1.3914  0.5494  2.9174
  226MOL0     H30448   5.252   9.451   1.407 -0.1985  0.0103  0.2692
  226MOL0     H30449   5.194   9.720   1.446 -0.1718 -1.2126 -3.1620
  226MOL0     H30450   5.366   9.711   1.412  1.2623 -0.5683 -1.6176
  226MOL0     H30451   5.367   9.519   1.575 -2.9179 -0.1705 -1.2642
  226MOL0     H30452   5.384   9.682   1.629 -1.2527  0.2488  2.2617
  226MOL0     H30453   5.106   9.560   1.632  0.1497 -2.7042  0.4183
  226MOL0     H30454   5.211   9.495   1.752 -4.1794 -0.4817  1.0234
  226MOL0     H30455   5.236   9.728   1.839 -0.9251 -0.1651  0.9562
  226MOL0     H30456   5.148   9.799   1.703  1.8160 -1.5860 -1.6725
  226MOL0     H30457   5.006   9.607   1.915 -0.8796  0.1695  0.3168
  226MOL0     H30458   4.946   9.663   1.755  3.7659  1.1656 -2.9677
  226MOL0     H30459   5.075   9.836   1.978  3.1521 -1.1135 -2.3810
  226MOL0     H30460   5.005   9.907   1.839 -0.8499  1.3881  2.9232
  226MOL0     H30461   4.748   9.668   1.909 -2.1903  0.1703  0.2874
  226MOL0     H30462   4.471   9.740   2.031 -0.8594 -1.3100 -0.7813
  226MOL0     H30463   4.448   9.904   1.971  2.6986  0.2204  4.6338
  226MOL0     H30464   4.510   9.821   1.748 -0.0749  0.6522  0.7596
  226MOL0     H30465   4.528   9.653   1.804  0.2237 -0.0786  2.9434
  226MOL0     H30466   4.268   9.718   1.881  2.2994  1.8634  2.6813
  226MOL0     H30467   4.323   9.626   1.734 -1.9034  1.1887 -1.2747
  226MOL0     H30468   4.173   9.794   1.659  0.7907 -4.2625  2.4021
  226MOL0     H30469   4.329   9.817   1.591  0.0072  1.1468 -0.3299
  226MOL0     H30470   4.338  10.162   1.842  0.6276 -4.7394 -2.7442
  226MOL0     H30471   4.184  10.291   1.986 -0.1004 -1.3804  1.1262
  226MOL0     H30472   3.897  10.323   2.297  0.3665  0.7213 -0.3853
  226MOL0     H30473   3.754  10.451   2.455  2.5531 -2.6083 -0.6268
  226MOL0     H30474   3.588  10.573   2.545 -1.9174 -1.6488 -2.8763
  226MOL0     H30475   3.696  10.711   2.508 -0.9475 -0.8087  1.3285
  226MOL0     H30476   3.430  10.723   2.616  0.0708 -1.2678 -0.3116
  226MOL0     H30477   3.575  10.821   2.629 -1.1309  0.4266  0.6384
  226MOL0     H30478   3.557  10.951   2.461  0.6514 -2.9451  0.9211
  226MOL0     H30479   3.439  10.856   2.367 -1.0030 -1.2527 -0.0778
  226MOL0     H30480   3.374  10.998   2.625 -0.3214 -0.8146 -0.0157
  226MOL0     H30481   3.260  10.906   2.528 -0.8502  0.1194 -0.1914
  226MOL0     H30482   3.408  11.143   2.410  0.1526  1.3174  3.2015
  226MOL0     H30483   3.276  11.161   2.522  2.9875  0.4405  0.8292
  226MOL0     H30484   3.271  11.003   2.265  2.1434  1.7731  0.4428
  226MOL0     H30485   3.132  11.011   2.373  0.6004 -1.5566 -1.4342
  226MOL0     H30486   3.258  11.265   2.228 -2.2823  2.0460 -2.0679
  226MOL0     H30487   3.126  11.272   2.327  0.0109  1.8968 -2.8712
  226MOL0     H30488   2.998  11.118   2.180  0.9556  1.2679  3.2045
  226MOL0     H30489   3.053  11.272   2.108 -1.9050  1.3961  1.8183
  226MOL0     H30490   3.629  10.696   2.118  2.8515  3.4809  1.1770
  226MOL0     H30491   3.771  10.576   1.969 -4.2024  1.4380  0.1405
  226MOL0     H30492   3.881   9.978   1.912  0.4886 -1.6459  0.3995
  226MOL0     H30493   4.039   9.868   1.779 -1.0160  0.6170  0.0451
  226MOL0     H30494   4.853   9.347   1.296  1.4024  0.3334  0.2533
  226MOL0     H30495   4.615   9.383   1.256  0.3173  0.7784 -1.7323
  226MOL0     H30496   4.182   9.822   1.399  1.6443 -0.2051  0.1820
  226MOL0     H30497   3.932   9.790   1.399  0.2509  0.2541 -0.9265
  226MOL0     H30498   3.618   9.609   1.387  0.4279 -1.3962 -0.9413
  226MOL0     H30499   3.723   9.730   1.367 -0.0861 -0.0138 -1.4690
  226MOL0     H30500   3.653   9.698   1.596  0.8518  3.6841 -2.8601
  226MOL0     H30501   3.818   9.673   1.612  0.3192 -2.1346  0.4139
  226MOL0     H30502   3.722   9.511   1.742 -4.0522 -0.4277  0.9406
  226MOL0     H30503   3.807   9.432   1.608 -1.3093 -1.5732 -0.3065
  226MOL0     H30504   3.516   9.447   1.679 -1.5316  1.2109 -0.9480
  226MOL0     H30505   3.535   9.455   1.509 -0.0376 -0.1097 -0.4682
  226MOL0     H30506   3.569   9.043   1.564  0.1268  0.2611  0.1627
  226MOL0     H30507   3.980   9.383   1.267 -1.7788  1.5281 -0.7816
  226MOL0     H30508   4.164   9.325   1.175 -1.0334  2.7536  0.2344
  226MOL0     H30509   4.290   9.431   1.112 -3.6443  2.1061 -2.3384
  226MOL0     H30510   4.312   9.338   1.273  0.0369  0.5936  0.7591
  227MOL0     O30511   3.095   4.426   7.421  0.1274  0.4425  0.5130
  227MOL0     C30512   3.111   4.322   7.477 -0.7484  0.3741 -0.2718
  227MOL0     O30513   3.163   4.206   7.425 -0.3151  0.4955 -0.4618
  227MOL0     C30514   3.216   4.207   7.298  0.0052 -0.4395 -0.0773
  227MOL0     C30515   3.330   4.283   7.270  0.5978 -0.6760  0.3052
  227MOL0     C30516   3.381   4.291   7.143 -0.0746  0.2021 -0.8106
  227MOL0     C30517   3.327   4.216   7.041  0.0441  0.4463 -0.1912
  227MOL0     O30518   3.377   4.205   6.916 -0.0952  0.2886  0.6911
  227MOL0     C30519   3.509   4.257   6.888  0.0204 -0.2028  0.4183
  227MOL0     C30520   3.527   4.262   6.735 -0.1568 -0.7690  0.2943
  227MOL0     C30521   3.528   4.128   6.675  0.0662 -0.5863 -0.8769
  227MOL0     C30522   3.587   4.122   6.535  0.0499  0.2022  0.8309
  227MOL0     C30523   3.544   3.990   6.456 -0.4715 -0.1876 -0.5336
  227MOL0     C30524   3.581   3.991   6.299 -0.3791 -0.4517 -0.8806
  227MOL0     C30525   3.503   3.882   6.231  0.0568  0.3668  0.7904
  227MOL0     C30526   3.524   3.733   6.272  0.0766 -0.8533  0.4231
  227MOL0     N30527   3.540   3.652   6.151 -0.1132  0.7873  0.0599
  227MOL0     C30528   3.554   3.518   6.145 -0.3775  0.8728  0.7942
  227MOL0     C30529   3.516   3.482   6.017  0.5792 -0.2173 -0.8896
  227MOL0     C30530   3.489   3.350   5.944  0.7134 -0.5665 -0.0584
  227MOL0     C30531   3.380   3.263   6.010 -0.4415  0.0336 -1.4313
  227MOL0     C30532   3.390   3.131   5.948 -0.0422  0.4881  0.0598
  227MOL0     C30533   3.277   3.029   5.974  0.7899 -0.9093 -0.1114
  227MOL0     O30534   3.271   2.994   6.114  0.9777 -0.7853  0.5816
  227MOL0     C30535   3.158   2.912   6.139 -1.9061 -0.1457  0.6384
  227MOL0     C30536   3.184   2.777   6.158 -0.4158  0.9735  0.2066
  227MOL0     C30537   3.073   2.699   6.172  0.2432  0.6004  0.6026
  227MOL0     C30538   2.949   2.750   6.185 -0.2114  0.3875 -0.2815
  227MOL0     C30539   2.834   2.651   6.164  1.5985 -0.4864  0.4094
  227MOL0     O30540   2.712   2.712   6.156 -0.1674  0.0519 -0.1058
  227MOL0     C30541   2.601   2.650   6.199  0.7328 -0.3179 -0.4199
  227MOL0     C30542   2.587   2.574   6.307 -0.8475 -0.1244 -0.8270
  227MOL0     C30543   2.471   2.511   6.350 -0.5142  0.2383 -0.0864
  227MOL0     C30544   2.355   2.528   6.280  0.7763  1.0862 -0.5272
  227MOL0     O30545   2.238   2.471   6.319 -0.0542  0.0136 -0.3034
  227MOL0     C30546   2.217   2.337   6.263 -0.8111  0.0079  0.5441
  227MOL0     C30547   2.117   2.256   6.349  0.0919  0.2368 -0.2476
  227MOL0     C30548   2.170   2.243   6.494 -0.1696  0.4014 -0.2120
  227MOL0     C30549   2.092   2.162   6.601 -0.2089 -0.6519  0.0649
  227MOL0     C30550   2.082   2.214   6.743 -0.0984 -0.0283 -0.2893
  227MOL0     C30551   1.957   2.161   6.813  0.2947  0.3486 -0.3467
  227MOL0     C30552   1.967   2.014   6.874  0.5308 -0.2766  0.4528
  227MOL0     C30553   1.836   1.953   6.893  0.4453 -0.4033  0.1354
  227MOL0    Cl30554   1.745   2.031   7.031  0.2932  0.0681  0.0407
  227MOL0     C30555   2.368   2.602   6.166 -0.0159  0.7173 -0.5745
  227MOL0     C30556   2.486   2.660   6.129 -0.3953 -0.4057  0.3309
  227MOL0     O30557   2.855   2.528   6.178 -0.0233 -0.2063  0.3225
  227MOL0     C30558   2.931   2.885   6.172 -0.4750 -1.0682  0.8633
  227MOL0     C30559   3.035   2.972   6.144 -0.2957 -0.0373  0.2498
  227MOL0     N30560   3.513   3.600   5.943 -0.4421  0.3683  0.3801
  227MOL0     N30561   3.540   3.702   6.019  0.0354  0.1020 -0.1730
  227MOL0     C30562   3.206   4.146   7.063  0.3724 -0.5934  0.7533
  227MOL0     C30563   3.152   4.137   7.193  0.6555 -0.4562 -0.0282
  227MOL0     C30564   3.073   4.323   7.624  1.6897  0.6490 -0.8088
  227MOL0     C30565   3.103   4.205   7.697 -0.5387 -0.7700 -0.5423
  227MOL0     C30566   3.060   4.195   7.829 -0.7743 -0.2314 -0.0361
  227MOL0     C30567   2.995   4.294   7.901 -0.1315 -0.5309 -0.3773
  227MOL0     O30568   2.939   4.288   8.026  0.4572  0.5949 -0.5115
  227MOL0     C30569   2.953   4.159   8.097 -0.1880  0.4752  0.3756
  227MOL0     C30570   2.863   4.159   8.215 -1.1138  0.4083 -0.8491
  227MOL0     C30571   2.846   4.019   8.276 -0.8437 -0.4118  0.4339
  227MOL0     C30572   2.712   3.954   8.250 -0.0723 -0.4611 -0.2828
  227MOL0     C30573   2.686   3.902   8.115  0.0393 -0.0311 -0.1392
  227MOL0     C30574   2.647   3.859   8.003 -0.8248  0.7712  0.7047
  227MOL0     C30575   2.983   4.415   7.825 -0.3434  0.5945 -0.0517
  227MOL0     C30576   3.019   4.437   7.691  0.1744 -0.7442  0.0613
  227MOL0     C30577   2.994   4.571   7.637 -0.2815 -0.3616 -0.1039
  227MOL0     H30578   3.379   4.340   7.348  4.8581 -2.4736 -0.8048
  227MOL0     H30579   3.474   4.347   7.135  1.6043 -2.4246 -1.0051
  227MOL0     H30580   3.526   4.354   6.935  2.4326  0.3513 -1.4040
  227MOL0     H30581   3.580   4.179   6.913 -1.1215 -1.9404 -1.4276
  227MOL0     H30582   3.617   4.318   6.708 -1.1797  1.1319  0.6315
  227MOL0     H30583   3.444   4.321   6.696  0.9603  1.0787  0.6157
  227MOL0     H30584   3.423   4.098   6.666 -0.5024  0.3873  1.7511
  227MOL0     H30585   3.576   4.057   6.743  1.5435  2.9789  2.0996
  227MOL0     H30586   3.554   4.206   6.473 -1.8373 -1.8156 -1.1411
  227MOL0     H30587   3.695   4.125   6.549  0.0031  0.6932  1.0901
  227MOL0     H30588   3.596   3.907   6.505 -1.9235 -1.2507 -0.7204
  227MOL0     H30589   3.436   3.969   6.456 -0.4726 -0.1841 -0.3992
  227MOL0     H30590   3.534   4.083   6.265  0.1883  0.4181  0.5926
  227MOL0     H30591   3.682   3.983   6.259 -0.1563 -4.2433  0.0445
  227MOL0     H30592   3.534   3.907   6.129  0.9763  1.6082  1.3526
  227MOL0     H30593   3.397   3.906   6.241 -0.8024 -3.6129  3.0318
  227MOL0     H30594   3.613   3.730   6.336 -1.4793  1.7605  3.0122
  227MOL0     H30595   3.443   3.701   6.339 -0.1518 -2.4024 -0.5527
  227MOL0     H30596   3.573   3.450   6.227  1.9214  1.5586  0.8821
  227MOL0     H30597   3.450   3.367   5.843 -2.8482 -1.3917  1.0437
  227MOL0     H30598   3.588   3.304   5.948  0.0681 -1.9850  0.2731
  227MOL0     H30599   3.410   3.251   6.115 -1.6753 -1.8011 -1.2470
  227MOL0     H30600   3.280   3.306   5.997  0.1737  1.9770 -0.2148
  227MOL0     H30601   3.482   3.077   5.974  0.5052  1.4962  0.2671
  227MOL0     H30602   3.395   3.148   5.840  1.3712 -1.3869 -0.2339
  227MOL0     H30603   3.302   2.938   5.919 -1.4259 -1.3646 -0.4580
  227MOL0     H30604   3.186   3.078   5.938  2.2020 -0.2429 -3.1221
  227MOL0     H30605   3.287   2.741   6.164 -0.9296 -0.3019  2.5987
  227MOL0     H30606   3.078   2.594   6.196 -1.6086  0.7803  1.9661
  227MOL0     H30607   2.674   2.548   6.366 -1.5077  0.3730  0.4006
  227MOL0     H30608   2.466   2.439   6.431  2.5234  0.1698  0.1516
  227MOL0     H30609   2.171   2.344   6.164 -0.2726  1.2142  0.3582
  227MOL0     H30610   2.317   2.294   6.271  1.1820  4.3893  2.6582
  227MOL0     H30611   2.021   2.307   6.364  1.3957  1.9587  3.4347
  227MOL0     H30612   2.094   2.157   6.310  1.8842 -0.4647  0.4133
  227MOL0     H30613   2.270   2.198   6.493 -0.1577  0.4145  0.1678
  227MOL0     H30614   2.195   2.344   6.529  4.3707 -1.5518  3.1990
  227MOL0     H30615   2.112   2.054   6.599 -2.4446 -1.5162  6.0226
  227MOL0     H30616   1.993   2.173   6.557 -0.0873  2.6862  0.3889
  227MOL0     H30617   2.070   2.323   6.743 -2.0827 -0.2078 -1.5076
  227MOL0     H30618   2.173   2.188   6.799  0.5975 -0.1358 -1.4419
  227MOL0     H30619   1.958   2.224   6.903 -1.5679  0.6821 -0.5231
  227MOL0     H30620   1.862   2.182   6.763  0.3986  1.0372 -0.2687
  227MOL0     H30621   2.025   2.020   6.966  1.8786  1.5239 -0.4375
  227MOL0     H30622   2.022   1.953   6.801 -0.0571  0.1778 -0.3890
  227MOL0     H30623   1.791   1.986   6.799  2.2825 -0.3151 -0.7689
  227MOL0     H30624   1.840   1.844   6.896  0.7912 -0.3783  1.2703
  227MOL0     H30625   2.287   2.610   6.094  1.7836 -0.7492 -2.8719
  227MOL0     H30626   2.485   2.713   6.034 -1.8109  2.0930  1.6550
  227MOL0     H30627   2.828   2.919   6.181 -0.4462 -1.2145  1.8994
  227MOL0     H30628   3.037   3.079   6.128  0.7064 -0.2386 -1.1574
  227MOL0     H30629   3.153   4.104   6.978 -1.5819  4.0833 -0.6592
  227MOL0     H30630   3.061   4.082   7.216  0.1390  0.5479  0.3549
  227MOL0     H30631   3.155   4.123   7.650  1.4483  0.4415 -0.5742
  227MOL0     H30632   3.082   4.097   7.871 -0.2463  0.8029  2.2882
  227MOL0     H30633   3.056   4.144   8.130 -0.8355 -1.1637  1.8135
  227MOL0     H30634   2.931   4.073   8.033  1.7743 -1.6043  2.3119
  227MOL0     H30635   2.769   4.205   8.183 -0.8022  1.0655 -0.8407
  227MOL0     H30636   2.898   4.232   8.289 -1.6289 -1.3942  1.2820
  227MOL0     H30637   2.853   4.023   8.385 -2.8719  3.3806  0.6186
  227MOL0     H30638   2.922   3.954   8.231  0.2237  3.0626 -3.3822
  227MOL0     H30639   2.683   3.875   8.320 -2.4012  0.9469  0.4762
  227MOL0     H30640   2.634   4.026   8.279 -0.5090  0.0472 -2.5089
  227MOL0     H30641   2.611   3.802   7.920 -4.2265  1.0869  1.8382
  227MOL0     H30642   2.938   4.492   7.886  0.2835  1.9386 -1.2317
  227MOL0     H30643   2.923   4.580   7.554 -0.6347  2.4238  0.4035
  227MOL0     H30644   2.956   4.637   7.716  0.8166 -0.4067  0.4831
  227MOL0     H30645   3.088   4.619   7.608 -0.6065  0.0354 -0.5199
  228MOL0     O30646   5.483   6.401   2.192  0.3248  0.1688 -0.5083
  228MOL0     C30647   5.588   6.459   2.195  0.3414 -0.4447  0.1279
  228MOL0     O30648   5.655   6.505   2.091 -0.6923  0.8576 -1.0552
  228MOL0     C30649   5.609   6.470   1.975  0.5513  1.1175  0.4268
  228MOL0     C30650   5.656   6.354   1.914 -0.4021  0.4894 -0.6004
  228MOL0     C30651   5.613   6.305   1.796  0.5074 -0.4325  0.0341
  228MOL0     C30652   5.519   6.375   1.724  0.4504 -0.1937  1.0196
  228MOL0     O30653   5.493   6.337   1.592 -0.2429  0.0866 -0.2439
  228MOL0     C30654   5.362   6.320   1.546  0.7444 -0.6622  0.1864
  228MOL0     C30655   5.343   6.246   1.407  0.2597 -0.2468 -0.5705
  228MOL0     C30656   5.200   6.247   1.365  0.1060  0.3315  0.5399
  228MOL0     C30657   5.134   6.119   1.428  0.1059 -0.1026  0.5482
  228MOL0     C30658   5.037   6.154   1.547  0.1420 -0.8594 -0.6199
  228MOL0     C30659   4.936   6.039   1.580  0.0584  0.0900 -0.0600
  228MOL0     C30660   4.819   6.116   1.625 -0.0268 -0.1909  1.1401
  228MOL0     C30661   4.720   6.012   1.662 -1.0767 -0.0686  0.0346
  228MOL0     N30662   4.586   6.075   1.669 -0.4712 -0.2449 -0.0071
  228MOL0     C30663   4.525   6.131   1.778 -0.3152 -0.2340 -1.5297
  228MOL0     C30664   4.411   6.196   1.741  0.7931  0.0081 -0.3040
  228MOL0     C30665   4.310   6.258   1.835 -0.0891 -0.7816 -0.3234
  228MOL0     C30666   4.253   6.162   1.941 -1.0262  0.2141  0.1830
  228MOL0     C30667   4.341   6.148   2.069 -0.5627  0.0435 -0.4721
  228MOL0     C30668   4.271   6.087   2.187 -0.2346 -0.8552  0.5331
  228MOL0     O30669   4.255   5.947   2.160  0.4654  0.4093  0.0766
  228MOL0     C30670   4.254   5.855   2.270 -1.0809  0.7911 -0.1560
  228MOL0     C30671   4.378   5.832   2.334  0.7533 -0.4579 -0.1190
  228MOL0     C30672   4.379   5.739   2.443  0.3770 -0.0318 -0.0609
  228MOL0     C30673   4.258   5.684   2.488  0.5794 -0.8650  1.2220
  228MOL0     C30674   4.258   5.602   2.605 -0.0881  1.6870  0.1819
  228MOL0     O30675   4.150   5.516   2.625  0.4254  0.0191  0.1898
  228MOL0     C30676   4.093   5.481   2.744 -0.8291  0.5189 -0.7203
  228MOL0     C30677   4.143   5.524   2.869 -0.2961 -0.2896 -1.0100
  228MOL0     C30678   4.081   5.483   2.993 -0.2004 -0.0279 -0.0571
  228MOL0     C30679   3.953   5.426   2.992  0.1199  0.5190  0.0126
  228MOL0     O30680   3.898   5.405   3.113 -0.0182 -0.7660 -0.0381
  228MOL0     C30681   3.791   5.314   3.130  0.8764  0.7216 -0.0652
  228MOL0     C30682   3.777   5.280   3.275  0.1543  0.5154 -0.3602
  228MOL0     C30683   3.633   5.213   3.307 -0.0690 -0.2930  1.2246
  228MOL0     C30684   3.519   5.316   3.301 -0.9526  0.0035  0.3922
  228MOL0     C30685   3.389   5.245   3.338 -0.0269  0.6832  0.2618
  228MOL0     C30686   3.340   5.151   3.235 -0.1764  0.0866 -0.3657
  228MOL0     C30687   3.210   5.087   3.282 -0.3267 -0.0606 -0.8165
  228MOL0     C30688   3.143   4.999   3.170 -1.4273  0.9041 -0.3051
  228MOL0    Cl30689   3.260   4.881   3.089 -0.1465  0.2123 -0.6049
  228MOL0     C30690   3.897   5.394   2.866 -0.3909 -1.3128  0.4975
  228MOL0     C30691   3.961   5.420   2.744 -1.0356 -0.4331  0.1190
  228MOL0     O30692   4.353   5.610   2.674 -0.2987  0.6217 -0.5316
  228MOL0     C30693   4.136   5.713   2.418  0.2553 -0.8438  0.0170
  228MOL0     C30694   4.144   5.797   2.309  0.2016  0.5360 -0.4390
  228MOL0     N30695   4.402   6.178   1.601  0.3677  0.3262 -0.2850
  228MOL0     N30696   4.508   6.105   1.560 -0.9130 -0.4224 -0.0775
  228MOL0     C30697   5.466   6.494   1.780  0.3811 -0.8513 -0.5567
  228MOL0     C30698   5.508   6.541   1.907 -0.9268 -0.4019  0.5213
  228MOL0     C30699   5.638   6.471   2.333  1.1165 -1.7014 -0.2725
  228MOL0     C30700   5.744   6.559   2.361 -0.4951  0.4096 -0.7140
  228MOL0     C30701   5.778   6.583   2.496  0.3185  0.5239 -0.0540
  228MOL0     C30702   5.720   6.519   2.603 -0.7881  0.2420 -0.2211
  228MOL0     O30703   5.758   6.563   2.728 -0.2425 -0.7847 -0.6417
  228MOL0     C30704   5.674   6.536   2.844  0.1721 -0.9631 -0.4690
  228MOL0     C30705   5.738   6.622   2.965  0.3929 -0.0202  0.6216
  228MOL0     C30706   5.860   6.561   3.038  0.2258  0.3651 -0.2016
  228MOL0     C30707   5.812   6.446   3.125 -0.1831  0.7950 -0.3370
  228MOL0     C30708   5.928   6.417   3.220  0.7944 -0.7824  0.0871
  228MOL0     C30709   6.032   6.382   3.273 -0.4412 -0.7626  0.7673
  228MOL0     C30710   5.629   6.424   2.580  0.9919  0.6503  0.6049
  228MOL0     C30711   5.577   6.400   2.444 -0.2024  0.0535  0.5531
  228MOL0     C30712   5.478   6.282   2.436  0.7292 -0.3739  0.2456
  228MOL0     H30713   5.724   6.307   1.984 -1.4501  0.9160  0.7254
  228MOL0     H30714   5.661   6.213   1.763  2.6097  0.8795 -0.6961
  228MOL0     H30715   5.297   6.258   1.609 -3.4286  3.2519  0.2200
  228MOL0     H30716   5.315   6.419   1.537 -1.7359 -1.8928 -1.5986
  228MOL0     H30717   5.389   6.147   1.419  0.8298 -0.0344 -0.9206
  228MOL0     H30718   5.399   6.294   1.326 -0.9731  2.0184 -0.1696
  228MOL0     H30719   5.183   6.256   1.258  0.1915 -1.9988  0.2886
  228MOL0     H30720   5.146   6.329   1.414  0.3069  0.6683  0.2065
  228MOL0     H30721   5.076   6.072   1.347  0.0989  1.2013 -0.2382
  228MOL0     H30722   5.214   6.054   1.463  1.2264  1.6881  1.4602
  228MOL0     H30723   5.100   6.189   1.629 -1.6353  0.8939  0.0699
  228MOL0     H30724   4.985   6.244   1.512 -2.0567 -1.6878  0.3567
  228MOL0     H30725   4.925   5.974   1.492 -0.1966 -1.5305  1.1325
  228MOL0     H30726   4.982   5.969   1.650  0.8357 -4.0387 -4.1908
  228MOL0     H30727   4.783   6.164   1.534 -2.2351 -0.9515  1.5636
  228MOL0     H30728   4.844   6.191   1.701  0.6744 -0.3494  1.0735
  228MOL0     H30729   4.717   5.940   1.580 -0.1226  0.0145 -0.0864
  228MOL0     H30730   4.749   5.954   1.750 -1.1796  0.4474  0.4124
  228MOL0     H30731   4.570   6.114   1.875 -3.6539 -0.0298  0.1801
  228MOL0     H30732   4.364   6.334   1.892  1.2492 -1.5760 -0.5006
  228MOL0     H30733   4.233   6.320   1.790  1.4342  1.2242 -0.2860
  228MOL0     H30734   4.158   6.197   1.980 -1.0365 -0.6805  1.0139
  228MOL0     H30735   4.239   6.061   1.901 -1.6492 -0.0132  0.9653
  228MOL0     H30736   4.367   6.248   2.105  0.5044 -1.1917  2.4692
  228MOL0     H30737   4.423   6.077   2.054 -2.9755 -3.0132 -0.1958
  228MOL0     H30738   4.168   6.125   2.194  0.7966  2.1768  0.6616
  228MOL0     H30739   4.335   6.103   2.274 -1.9880 -3.9820  2.6119
  228MOL0     H30740   4.467   5.887   2.305  1.2906  0.1768  2.4544
  228MOL0     H30741   4.478   5.732   2.487  1.2849  1.8165 -1.6539
  228MOL0     H30742   4.240   5.571   2.879  0.0565 -1.3762  1.0881
  228MOL0     H30743   4.130   5.511   3.085 -0.4393  0.6869 -0.1379
  228MOL0     H30744   3.702   5.367   3.094  0.7433 -0.5330 -1.6752
  228MOL0     H30745   3.797   5.221   3.073 -2.6154  0.6640 -0.6098
  228MOL0     H30746   3.863   5.218   3.302  0.3698  0.8608 -0.2443
  228MOL0     H30747   3.798   5.372   3.330  2.1205 -0.6754  1.0223
  228MOL0     H30748   3.613   5.140   3.228 -0.1118 -0.9266  1.8166
  228MOL0     H30749   3.634   5.168   3.406 -0.8795 -0.4996  1.1454
  228MOL0     H30750   3.517   5.362   3.201  2.8556 -1.2911 -0.4570
  228MOL0     H30751   3.548   5.393   3.372 -2.7422 -1.6050  3.0408
  228MOL0     H30752   3.319   5.328   3.348 -0.4207  0.5107 -0.9956
  228MOL0     H30753   3.407   5.187   3.429 -1.8257  1.2956  1.0619
  228MOL0     H30754   3.317   5.211   3.146 -3.0118  1.8026  1.3491
  228MOL0     H30755   3.418   5.080   3.205  0.3867  1.4502 -2.3405
  228MOL0     H30756   3.143   5.171   3.299  0.5986  0.5520 -0.1059
  228MOL0     H30757   3.239   5.032   3.371  0.1634  1.5159  0.0304
  228MOL0     H30758   3.063   4.935   3.209 -1.1369  1.3797  1.1135
  228MOL0     H30759   3.112   5.067   3.090 -0.2472  1.8749  0.0410
  228MOL0     H30760   3.804   5.338   2.875 -0.6552 -0.9738 -0.0722
  228MOL0     H30761   3.920   5.389   2.649  1.4060 -0.5967 -0.9539
  228MOL0     H30762   4.041   5.671   2.448 -1.5973  1.9828 -1.3876
  228MOL0     H30763   4.057   5.809   2.245  0.8830  0.6285 -1.3704
  228MOL0     H30764   5.402   6.551   1.713  4.7739  2.9340 -2.0330
  228MOL0     H30765   5.474   6.632   1.954 -2.1945  1.2997 -3.2842
  228MOL0     H30766   5.798   6.617   2.287 -0.5100  0.5781 -0.5929
  228MOL0     H30767   5.843   6.663   2.530  0.2947  0.8818 -0.8282
  228MOL0     H30768   5.664   6.435   2.885 -1.8758 -0.8395 -0.5462
  228MOL0     H30769   5.575   6.575   2.816  1.5899  1.0834 -3.0677
  228MOL0     H30770   5.661   6.659   3.034  1.4879 -3.6162  4.0976
  228MOL0     H30771   5.772   6.712   2.912  4.2458 -1.3566  0.5103
  228MOL0     H30772   5.901   6.645   3.094  0.1675 -0.7129  1.5725
  228MOL0     H30773   5.933   6.529   2.963 -0.0766 -2.0985  0.4665
  228MOL0     H30774   5.717   6.468   3.176 -0.5557 -1.2835 -0.0506
  228MOL0     H30775   5.784   6.358   3.066  2.5363 -0.9587  0.8051
  228MOL0     H30776   6.116   6.332   3.316 -0.9716 -1.0749  1.4662
  228MOL0     H30777   5.581   6.376   2.665 -1.0278  0.8831 -0.3695
  228MOL0     H30778   5.464   6.229   2.530 -3.0682  0.2585  0.1915
  228MOL0     H30779   5.375   6.311   2.410  0.7866 -1.1702 -0.9929
  228MOL0     H30780   5.497   6.210   2.355  0.0282  1.9143 -2.1056
  229MOL0     O30781   4.519   1.028  10.407 -0.3390 -0.3517 -0.4678
  229MOL0     C30782   4.477   1.136  10.447  0.1663  0.2179  0.0606
  229MOL0     O30783   4.515   1.259  10.395  0.6617  0.5645 -0.1131
  229MOL0     C30784   4.556   1.254  10.264 -0.0449  0.5101 -0.2396
  229MOL0     C30785   4.674   1.305  10.227  0.4867  0.6009  0.4662
  229MOL0     C30786   4.721   1.314  10.095 -0.1709 -0.5478 -0.3338
  229MOL0     C30787   4.641   1.286   9.992 -0.6359  0.6192 -0.5340
  229MOL0     O30788   4.672   1.306   9.864 -0.0732 -0.5707  0.8829
  229MOL0     C30789   4.719   1.432   9.831 -1.1582 -0.6191  0.6779
  229MOL0     C30790   4.870   1.424   9.795 -0.6973  0.2071  0.5123
  229MOL0     C30791   4.909   1.567   9.737  0.4073 -0.4173  0.1214
  229MOL0     C30792   4.924   1.678   9.837  1.3463  0.1412 -0.9589
  229MOL0     C30793   4.964   1.805   9.773 -0.0112  0.8452  0.1037
  229MOL0     C30794   4.934   1.925   9.857 -0.0635 -1.1016  0.0713
  229MOL0     C30795   4.787   1.955   9.871  0.1576 -1.0662 -0.2470
  229MOL0     C30796   4.761   2.065   9.982 -0.0388 -0.7112  1.0746
  229MOL0     N30797   4.619   2.099  10.003 -0.1641  0.1887  0.3178
  229MOL0     C30798   4.517   2.018  10.025 -0.0618 -0.7399 -0.6007
  229MOL0     C30799   4.419   2.098  10.069 -0.0464  1.1911  0.5272
  229MOL0     C30800   4.287   2.049  10.118 -0.5844  0.9520 -0.1283
  229MOL0     C30801   4.247   1.913  10.078 -0.1046  0.0179 -0.3310
  229MOL0     C30802   4.094   1.895  10.125  0.5706  0.1761  0.3244
  229MOL0     C30803   4.085   1.850  10.268 -0.5161 -0.2492  0.1551
  229MOL0     O30804   4.076   1.961  10.359 -0.1213  0.8228 -0.7441
  229MOL0     C30805   3.952   2.022  10.391  1.1435 -0.1677  0.1478
  229MOL0     C30806   3.832   1.975  10.341  0.0928 -0.3871  1.0985
  229MOL0     C30807   3.714   2.037  10.378 -0.0121  0.2942 -0.0953
  229MOL0     C30808   3.713   2.138  10.481  1.2660 -0.3157 -0.5836
  229MOL0     C30809   3.580   2.185  10.535 -0.3998  0.0218  0.4904
  229MOL0     O30810   3.470   2.168  10.459 -0.2482 -0.2637 -0.8387
  229MOL0     C30811   3.353   2.215  10.499  0.6048  0.2439  0.1340
  229MOL0     C30812   3.335   2.349  10.549  0.0393  0.3858 -0.0663
  229MOL0     C30813   3.214   2.396  10.585  1.1272  0.3811  0.3031
  229MOL0     C30814   3.101   2.313  10.585 -0.6151  0.6278 -0.3480
  229MOL0     O30815   2.980   2.357  10.619  0.0825 -1.0851 -0.1078
  229MOL0     C30816   2.968   2.486  10.686  0.4292  0.1538  0.4829
  229MOL0     C30817   2.825   2.521  10.721 -1.0138 -0.5714 -0.0262
  229MOL0     C30818   2.785   2.460  10.857  0.2561 -0.0985 -0.6522
  229MOL0     C30819   2.657   2.540  10.904  0.8416  0.0584 -0.0174
  229MOL0     C30820   2.616   2.532  11.048 -0.9803 -0.0322 -0.3525
  229MOL0     C30821   2.696   2.622  11.135  0.2834  0.1287  0.0341
  229MOL0     C30822   2.647   2.634  11.279  0.4225  0.8440  0.1608
  229MOL0     C30823   2.722   2.732  11.367 -1.2860  0.0732  0.4851
  229MOL0    Cl30824   2.643   2.729  11.529  0.1630  0.1976  0.3415
  229MOL0     C30825   3.116   2.181  10.537 -0.1890  0.1895 -0.8179
  229MOL0     C30826   3.241   2.135  10.488  0.4609  0.4131 -1.4098
  229MOL0     O30827   3.593   2.236  10.645  0.9449  0.1676 -0.0549
  229MOL0     C30828   3.836   2.186  10.530  0.0821 -0.0979 -0.0812
  229MOL0     C30829   3.951   2.137  10.474 -0.6934 -1.4017  0.2926
  229MOL0     N30830   4.461   2.224  10.061 -0.1625 -0.4212 -0.8172
  229MOL0     N30831   4.580   2.224  10.030  0.2607 -0.1967 -1.2959
  229MOL0     C30832   4.510   1.255  10.024  0.4622 -1.1716 -0.3192
  229MOL0     C30833   4.463   1.241  10.158 -0.3339  0.7474  0.6777
  229MOL0     C30834   4.400   1.134  10.566 -0.1065 -0.0332 -0.0190
  229MOL0     C30835   4.312   1.232  10.582  0.4401 -0.3822  0.5292
  229MOL0     C30836   4.237   1.248  10.690  0.2046  0.6089 -0.2053
  229MOL0     C30837   4.239   1.160  10.790  0.2335  0.5719  0.2017
  229MOL0     O30838   4.168   1.198  10.903  0.3546 -0.1538  0.0535
  229MOL0     C30839   4.177   1.128  11.028  0.3494 -0.7274  0.1558
  229MOL0     C30840   4.072   1.015  11.050 -0.8437 -0.0638  0.2999
  229MOL0     C30841   4.095   0.933  11.169 -0.0629 -1.7502  1.0407
  229MOL0     C30842   3.998   0.816  11.175 -0.6789  0.7684 -0.3546
  229MOL0     C30843   3.962   0.787  11.319  0.6405 -0.2705 -0.5848
  229MOL0     C30844   3.928   0.752  11.429  0.7747 -0.1753  0.4493
  229MOL0     C30845   4.323   1.047  10.780 -0.2269 -0.4421  0.7370
  229MOL0     C30846   4.408   1.037  10.665 -0.2672 -0.4888  0.0729
  229MOL0     C30847   4.506   0.920  10.669  0.4658  0.0001 -0.5475
  229MOL0     H30848   4.740   1.312  10.313 -0.7184 -1.4739  1.6561
  229MOL0     H30849   4.825   1.343  10.087 -0.3798  2.0865  3.5847
  229MOL0     H30850   4.663   1.471   9.745  0.1670  0.7162  0.3693
  229MOL0     H30851   4.704   1.505   9.911  1.9082  1.0793 -0.1361
  229MOL0     H30852   4.884   1.344   9.722 -0.5353 -1.9591  2.7703
  229MOL0     H30853   4.937   1.404   9.880  0.6861 -0.0047 -0.5906
  229MOL0     H30854   4.826   1.602   9.675 -1.2166  0.7520  2.7708
  229MOL0     H30855   4.999   1.564   9.675  0.6347  0.2051  0.4123
  229MOL0     H30856   4.839   1.684   9.905  1.1363 -1.1788 -1.0620
  229MOL0     H30857   5.008   1.650   9.901  0.1028 -2.6158 -0.3615
  229MOL0     H30858   5.072   1.803   9.762  0.7962 -1.3080  5.2563
  229MOL0     H30859   4.905   1.813   9.681  1.0077  1.1104 -0.5401
  229MOL0     H30860   4.980   1.910   9.955 -1.0461 -2.4518  0.3660
  229MOL0     H30861   4.980   2.012   9.811 -1.1550 -2.1992 -3.3846
  229MOL0     H30862   4.729   1.868   9.901  0.8352 -1.2621  0.5260
  229MOL0     H30863   4.757   1.992   9.772 -0.5442 -0.1313  0.3005
  229MOL0     H30864   4.808   2.032  10.075 -1.1553  1.1126  2.3479
  229MOL0     H30865   4.809   2.153   9.939 -1.4159  0.2130  1.3889
  229MOL0     H30866   4.516   1.912  10.001 -1.1330 -0.6809 -0.8893
  229MOL0     H30867   4.303   2.055  10.227  0.2697  0.0011 -0.1915
  229MOL0     H30868   4.211   2.123  10.092 -1.2174  0.2943 -0.1647
  229MOL0     H30869   4.264   1.894   9.972  2.3904  1.0521 -0.1708
  229MOL0     H30870   4.303   1.841  10.138  0.1750  1.4331  1.1718
  229MOL0     H30871   4.040   1.820  10.066 -0.6786 -3.3529  5.3744
  229MOL0     H30872   4.052   1.994  10.105  3.6433  0.8872 -4.2530
  229MOL0     H30873   4.167   1.787  10.304  0.1577  0.8992  0.6741
  229MOL0     H30874   4.000   1.787  10.294  0.6056 -2.2360 -0.7829
  229MOL0     H30875   3.817   1.890  10.274 -0.2953  0.0490  0.6224
  229MOL0     H30876   3.616   2.018  10.336 -1.0994  0.6249  2.1513
  229MOL0     H30877   3.420   2.416  10.551  1.3297 -1.0966 -1.6519
  229MOL0     H30878   3.211   2.502  10.605 -2.0704  0.4968 -0.2993
  229MOL0     H30879   3.030   2.478  10.775 -0.3268  0.7899  1.0791
  229MOL0     H30880   3.011   2.566  10.624 -2.1099  0.4479 -1.0354
  229MOL0     H30881   2.841   2.628  10.735 -1.0414  0.0421 -3.7134
  229MOL0     H30882   2.756   2.508  10.637 -2.9167 -2.8542  1.7794
  229MOL0     H30883   2.748   2.358  10.845  0.4031 -0.4897  1.7047
  229MOL0     H30884   2.871   2.458  10.925  0.3113  0.4076 -0.7056
  229MOL0     H30885   2.567   2.506  10.852  0.1301 -0.9836  1.7702
  229MOL0     H30886   2.669   2.649  10.898 -2.4860  0.4654 -1.8994
  229MOL0     H30887   2.630   2.431  11.089 -2.7370  0.0502  0.5583
  229MOL0     H30888   2.510   2.561  11.056 -1.6882 -1.8779 -2.1740
  229MOL0     H30889   2.800   2.592  11.153 -1.1230 -4.1137  2.6588
  229MOL0     H30890   2.698   2.726  11.101 -2.5839 -0.2800 -1.6817
  229MOL0     H30891   2.637   2.537  11.329 -0.2722 -0.0975 -1.6879
  229MOL0     H30892   2.545   2.671  11.266 -0.2733 -1.0001  0.0567
  229MOL0     H30893   2.826   2.702  11.386 -0.6061  1.0394 -1.4336
  229MOL0     H30894   2.722   2.818  11.300  1.2273 -1.4957 -1.7574
  229MOL0     H30895   3.030   2.115  10.538 -0.8614  1.0286  0.8445
  229MOL0     H30896   3.251   2.033  10.454  1.0190  0.0253 -0.1389
  229MOL0     H30897   3.837   2.267  10.603 -1.1023 -0.2444  0.1144
  229MOL0     H30898   4.049   2.170  10.508 -0.3844  0.0781 -1.8365
  229MOL0     H30899   4.439   1.244   9.942 -1.7513 -1.5863  1.5543
  229MOL0     H30900   4.358   1.214  10.164 -0.0780 -0.8920 -1.2181
  229MOL0     H30901   4.313   1.319  10.517  1.2518  1.0931  2.4190
  229MOL0     H30902   4.171   1.334  10.705 -1.1236 -0.3109 -0.5599
  229MOL0     H30903   4.155   1.204  11.104  0.2720  0.0151 -0.5833
  229MOL0     H30904   4.278   1.089  11.045 -0.5134 -2.2134  2.2879
  229MOL0     H30905   4.061   0.946  10.966 -1.1661 -0.3070  0.5403
  229MOL0     H30906   3.974   1.062  11.064 -0.7816  1.5758 -3.4335
  229MOL0     H30907   4.076   1.012  11.242 -1.0183  0.6667 -1.6180
  229MOL0     H30908   4.203   0.918  11.167 -0.1303 -2.4359 -1.6498
  229MOL0     H30909   3.900   0.829  11.127 -1.1737 -1.5677 -0.0990
  229MOL0     H30910   4.047   0.730  11.128  0.3691 -0.7808  3.2651
  229MOL0     H30911   3.887   0.722  11.523  0.4521 -0.4008  0.2402
  229MOL0     H30912   4.340   0.974  10.859  2.4939 -1.2787 -0.4936
  229MOL0     H30913   4.502   0.893  10.774  2.8233 -1.1330 -0.6750
  229MOL0     H30914   4.470   0.843  10.600 -3.4188  1.5769 -0.5109
  229MOL0     H30915   4.612   0.944  10.653  0.3134  1.5467  0.5540
  230MOL0     O30916  10.640  10.639   4.719  0.1733  0.0858  0.0352
  230MOL0     C30917  10.646  10.764   4.713  0.7553  0.5517  1.3026
  230MOL0     O30918  10.719  10.832   4.610 -0.5397  0.5472  0.4225
  230MOL0     C30919  10.784  10.756   4.499 -0.4810 -1.0393 -0.7247
  230MOL0     C30920  10.717  10.738   4.371 -0.7628 -1.4607 -0.2837
  230MOL0     C30921  10.778  10.656   4.276 -0.8906  0.5755 -0.2234
  230MOL0     C30922  10.895  10.594   4.308 -0.3003 -0.2510  0.7930
  230MOL0     O30923  10.952  10.527   4.208  0.0137  0.5913  0.0293
  230MOL0     C30924  11.037  10.408   4.224  0.1955  0.8866  0.4440
  230MOL0     C30925  11.042  10.308   4.105  0.0052 -0.5605 -1.1289
  230MOL0     C30926  11.151  10.195   4.143  1.2841 -0.0983  0.1443
  230MOL0     C30927  11.156  10.090   4.028  0.3101  0.3439 -0.1626
  230MOL0     C30928  11.185  10.145   3.887  0.5411  0.6894 -0.3918
  230MOL0     C30929  11.319  10.214   3.881  0.2446 -0.5602  0.5564
  230MOL0     C30930  11.382  10.231   3.738 -0.1596 -1.0867  0.3272
  230MOL0     C30931  11.521  10.294   3.734  0.1587 -0.0812 -1.6006
  230MOL0     N30932  11.589  10.257   3.610 -0.3545  0.1211 -0.4438
  230MOL0     C30933  11.718  10.248   3.578 -0.2084 -0.3846  0.6689
  230MOL0     C30934  11.732  10.214   3.441 -0.1928 -0.2749 -0.2314
  230MOL0     C30935  11.856  10.199   3.364 -0.5141 -0.6615 -0.2161
  230MOL0     C30936  11.909  10.329   3.334 -0.9218 -0.1338 -0.3744
  230MOL0     C30937  11.829  10.413   3.237 -0.4762 -0.4944  1.3616
  230MOL0     C30938  11.779  10.343   3.106  0.1074 -0.4700 -0.3812
  230MOL0     O30939  11.861  10.248   3.034 -1.2752  0.2838 -0.2270
  230MOL0     C30940  11.793  10.158   2.956 -0.8354  0.3375 -0.5334
  230MOL0     C30941  11.882  10.058   2.911  0.1124 -0.2639  0.2376
  230MOL0     C30942  11.816   9.953   2.834  0.9657 -0.4685  0.1850
  230MOL0     C30943  11.685   9.940   2.802  1.0809  0.5950  0.7219
  230MOL0     C30944  11.648   9.823   2.739  0.1493 -0.8163  0.2402
  230MOL0     O30945  11.517   9.819   2.700 -0.4239  0.5249 -0.2231
  230MOL0     C30946  11.450   9.711   2.632 -0.5416 -0.6431 -0.2978
  230MOL0     C30947  11.371   9.739   2.524  0.3714 -0.5844 -0.1547
  230MOL0     C30948  11.306   9.634   2.457 -0.5754 -0.1010 -0.1894
  230MOL0     C30949  11.311   9.504   2.502  0.1520 -0.6912 -0.0678
  230MOL0     O30950  11.236   9.407   2.424  0.5340  0.2717 -0.8376
  230MOL0     C30951  11.253   9.270   2.463 -0.0095  0.4104  0.6437
  230MOL0     C30952  11.159   9.193   2.367 -0.6051  0.0027 -0.1247
  230MOL0     C30953  11.016   9.209   2.402  0.6786 -0.1530  1.3354
  230MOL0     C30954  10.933   9.161   2.281  0.7508 -0.5516  0.3407
  230MOL0     C30955  10.780   9.175   2.310  0.3018  0.4125 -0.2265
  230MOL0     C30956  10.686   9.130   2.195  0.9121  0.4837  0.3372
  230MOL0     C30957  10.549   9.098   2.247 -0.0310 -1.1468 -0.2072
  230MOL0     C30958  10.466   9.068   2.126  0.4686  0.4331  0.2925
  230MOL0    Cl30959  10.412   9.218   2.043  0.0878 -0.1046  0.2603
  230MOL0     C30960  11.400   9.479   2.609  0.5586  0.0635 -0.5793
  230MOL0     C30961  11.467   9.573   2.675 -0.1389 -1.2080 -0.7976
  230MOL0     O30962  11.725   9.724   2.721 -0.2168 -0.9160 -0.2846
  230MOL0     C30963  11.598  10.040   2.847  0.1730 -0.7083 -0.6453
  230MOL0     C30964  11.653  10.151   2.921  0.0196 -0.0523  0.4000
  230MOL0     N30965  11.609  10.191   3.401  0.6882 -0.2631 -0.1221
  230MOL0     N30966  11.524  10.206   3.502  0.0549 -0.3429  0.3672
  230MOL0     C30967  10.961  10.601   4.428  0.5798 -0.4792  0.0471
  230MOL0     C30968  10.903  10.685   4.528 -0.3176 -0.8205  1.0091
  230MOL0     C30969  10.574  10.842   4.811  0.5432 -0.5302  0.1417
  230MOL0     C30970  10.597  10.814   4.942 -0.2203  0.7062 -0.3445
  230MOL0     C30971  10.537  10.883   5.046  1.1477 -0.0826  0.5980
  230MOL0     C30972  10.454  10.998   5.014 -1.2606  0.0744 -0.2721
  230MOL0     O30973  10.378  11.065   5.104  0.3473  0.2297 -0.5440
  230MOL0     C30974  10.438  11.091   5.235  0.2025 -1.1110  1.3930
  230MOL0     C30975  10.415  11.239   5.251  0.6334  0.8207  0.6834
  230MOL0     C30976  10.261  11.257   5.295  0.5173  0.1735  0.7789
  230MOL0     C30977  10.211  11.398   5.286 -0.5979  0.7371  0.2167
  230MOL0     C30978  10.144  11.426   5.408  0.1267  0.0401 -0.7083
  230MOL0     C30979  10.097  11.433   5.519  0.0534 -0.6077  0.3162
  230MOL0     C30980  10.436  11.024   4.875  1.8041  0.8922 -0.9060
  230MOL0     C30981  10.484  10.944   4.765 -0.2139  1.2252 -1.2144
  230MOL0     C30982  10.429  10.974   4.631 -1.0444 -0.7886  1.2684
  230MOL0     H30983  10.635  10.804   4.343  0.3088 -0.2836 -0.7713
  230MOL0     H30984  10.736  10.619   4.182  0.0706  0.0068 -0.4390
  230MOL0     H30985  11.129  10.449   4.265 -1.0499  4.2597  0.1353
  230MOL0     H30986  10.990  10.351   4.305  0.2522  0.4352  0.1644
  230MOL0     H30987  11.082  10.363   4.019  0.5970  1.7398  0.5014
  230MOL0     H30988  10.948  10.265   4.070  0.2629 -1.7080 -0.4755
  230MOL0     H30989  11.119  10.138   4.231 -0.7996  0.2005 -0.3481
  230MOL0     H30990  11.251  10.238   4.150  0.7454  1.1566  0.3102
  230MOL0     H30991  11.222  10.005   4.045 -1.0012 -0.4766  1.0423
  230MOL0     H30992  11.054  10.051   4.037 -1.0205  3.6633  0.7286
  230MOL0     H30993  11.188  10.061   3.816 -1.6617 -0.1900  0.4599
  230MOL0     H30994  11.098  10.197   3.847 -2.1461 -2.7786  0.4782
  230MOL0     H30995  11.313  10.313   3.927 -3.5135  0.2293 -1.2370
  230MOL0     H30996  11.388  10.159   3.946 -1.3039 -0.9556  1.9392
  230MOL0     H30997  11.323  10.301   3.679 -0.3410 -0.8010  0.8376
  230MOL0     H30998  11.383  10.134   3.688 -1.5011 -0.6505 -0.5735
  230MOL0     H30999  11.517  10.401   3.759 -1.8240  0.0497 -2.3306
  230MOL0     H31000  11.579  10.253   3.817 -1.8055  0.9893  0.3760
  230MOL0     H31001  11.793  10.273   3.653 -0.4951 -1.4696  1.3291
  230MOL0     H31002  11.929  10.144   3.424 -0.1066  0.6243  0.5099
  230MOL0     H31003  11.828  10.145   3.273 -2.8330  0.9456 -0.5538
  230MOL0     H31004  11.923  10.387   3.425 -0.4866  0.4830 -0.8258
  230MOL0     H31005  12.015  10.322   3.305 -0.6859 -2.7901  0.7751
  230MOL0     H31006  11.876  10.505   3.202 -1.5089 -0.6049 -0.4307
  230MOL0     H31007  11.742  10.459   3.283 -0.3363  1.8739 -0.5119
  230MOL0     H31008  11.737  10.419   3.039  0.0514  0.3287  0.5379
  230MOL0     H31009  11.689  10.286   3.131 -0.4147  0.1684 -0.7624
  230MOL0     H31010  11.989  10.042   2.921 -0.1117 -1.5598  0.7319
  230MOL0     H31011  11.882   9.881   2.786  1.1901 -0.4342  0.4389
  230MOL0     H31012  11.342   9.836   2.484  0.0198 -0.3420  0.6755
  230MOL0     H31013  11.241   9.654   2.372 -3.4209 -1.0792  1.5824
  230MOL0     H31014  11.350   9.222   2.449  0.0324  0.7763 -0.3785
  230MOL0     H31015  11.216   9.256   2.565 -0.0108 -1.6231  0.3981
  230MOL0     H31016  11.173   9.227   2.264  0.8786 -3.4339 -1.1930
  230MOL0     H31017  11.171   9.084   2.370 -2.7951 -0.3248  3.7947
  230MOL0     H31018  10.998   9.161   2.498 -3.2291  3.0793  2.5164
  230MOL0     H31019  10.999   9.315   2.423  0.0395 -0.1028  0.6082
  230MOL0     H31020  10.963   9.058   2.260  1.5749  0.2070 -2.5966
  230MOL0     H31021  10.953   9.227   2.196 -0.2668  0.0209  0.5226
  230MOL0     H31022  10.756   9.281   2.321  0.8205  0.7176 -1.7259
  230MOL0     H31023  10.763   9.116   2.401  3.8246 -1.0677 -0.3582
  230MOL0     H31024  10.690   9.198   2.110  1.2615 -1.4553 -1.2707
  230MOL0     H31025  10.713   9.030   2.160  0.8804  0.4338  0.4527
  230MOL0     H31026  10.493   9.180   2.291 -1.5041 -2.5950  0.7448
  230MOL0     H31027  10.562   9.019   2.322  3.2584  2.3057  3.2835
  230MOL0     H31028  10.518   8.995   2.063 -1.4327 -2.6081  1.9375
  230MOL0     H31029  10.377   9.009   2.154  2.1556 -2.4038  0.1259
  230MOL0     H31030  11.419   9.381   2.651  0.7409  1.4870  3.0594
  230MOL0     H31031  11.539   9.541   2.749 -0.8320 -2.1084 -0.4932
  230MOL0     H31032  11.490  10.038   2.837  0.0105  4.0922 -2.7113
  230MOL0     H31033  11.588  10.230   2.958 -2.2111 -0.9098 -1.4596
  230MOL0     H31034  11.049  10.543   4.450  0.5487 -0.9304 -0.9356
  230MOL0     H31035  10.942  10.690   4.629 -1.1341 -0.4902  1.3195
  230MOL0     H31036  10.676  10.740   4.953  0.0840  0.9229 -1.0265
  230MOL0     H31037  10.545  10.856   5.151 -2.8708 -0.3289  1.0010
  230MOL0     H31038  10.545  11.068   5.242  0.1867 -2.2260 -0.8154
  230MOL0     H31039  10.385  11.034   5.312 -0.7355 -2.7164 -0.3312
  230MOL0     H31040  10.448  11.281   5.156  3.5441  1.1677  1.7553
  230MOL0     H31041  10.476  11.290   5.326  0.0861  3.0403 -0.3078
  230MOL0     H31042  10.264  11.235   5.402 -1.9236  1.4902  1.2059
  230MOL0     H31043  10.185  11.192   5.252  0.8067 -1.7500  2.9777
  230MOL0     H31044  10.302  11.459   5.283 -0.5019  0.5622 -1.9283
  230MOL0     H31045  10.154  11.406   5.193  0.6617  0.1092 -0.6342
  230MOL0     H31046  10.066  11.430   5.621 -0.8661  0.3593  0.0768
  230MOL0     H31047  10.375  11.110   4.847 -0.5758 -0.2040  0.5644
  230MOL0     H31048  10.330  10.939   4.602 -0.5789 -0.9545 -0.1922
  230MOL0     H31049  10.401  11.079   4.619 -1.3692 -1.0871 -1.0123
  230MOL0     H31050  10.497  10.943   4.552 -1.4017 -2.4247  1.5570
  231MOL0     O31051   0.760   4.411   7.185 -0.8282  0.1951 -0.0251
  231MOL0     C31052   0.766   4.472   7.079  0.5767  0.1259 -0.0378
  231MOL0     O31053   0.679   4.571   7.038  0.3781 -0.9388 -0.1270
  231MOL0     C31054   0.574   4.621   7.106  0.4480  0.4101  0.1674
  231MOL0     C31055   0.511   4.723   7.030 -0.4195 -0.6590 -0.1825
  231MOL0     C31056   0.384   4.767   7.073  0.4442  0.3003  0.7629
  231MOL0     C31057   0.321   4.718   7.190 -1.2319 -0.8630  0.6610
  231MOL0     O31058   0.203   4.770   7.213  0.5404 -0.1506 -0.5841
  231MOL0     C31059   0.129   4.724   7.323  0.0651  0.7853  0.5314
  231MOL0     C31060  -0.011   4.781   7.330  0.3410  0.3953  0.7441
  231MOL0     C31061  -0.017   4.937   7.322  0.1181  0.1438 -0.0657
  231MOL0     C31062  -0.164   4.989   7.340  0.0070 -0.3476 -0.2763
  231MOL0     C31063  -0.263   4.944   7.223 -0.2199  0.2797 -0.3925
  231MOL0     C31064  -0.392   5.025   7.248  0.1135  0.3677  1.3270
  231MOL0     C31065  -0.481   5.019   7.118  0.0477  0.1747 -1.2183
  231MOL0     C31066  -0.423   5.113   7.016  0.6039 -1.1506 -0.2333
  231MOL0     N31067  -0.443   5.253   7.060  0.6037 -0.0577  0.4275
  231MOL0     C31068  -0.548   5.329   7.037  0.2603 -0.5146 -0.0949
  231MOL0     C31069  -0.519   5.449   7.089 -0.4640  0.1786 -0.2671
  231MOL0     C31070  -0.608   5.575   7.093  0.2920  0.7736  0.2149
  231MOL0     C31071  -0.663   5.618   7.231 -0.2107  0.9616  1.2541
  231MOL0     C31072  -0.759   5.741   7.219  0.1050  0.3129 -0.7756
  231MOL0     C31073  -0.689   5.860   7.163  0.0737 -0.0380 -0.3827
  231MOL0     O31074  -0.652   5.851   7.027  0.0360 -1.0657 -0.5028
  231MOL0     C31075  -0.598   5.970   6.987 -0.2477  0.2836  1.1225
  231MOL0     C31076  -0.674   6.057   6.913  0.1058 -0.6391  0.2787
  231MOL0     C31077  -0.612   6.174   6.860  0.3832 -0.6249  0.2281
  231MOL0     C31078  -0.473   6.186   6.874 -0.5358 -0.5349 -0.4660
  231MOL0     C31079  -0.420   6.312   6.825 -0.4501 -0.3918 -0.7432
  231MOL0     O31080  -0.285   6.336   6.851 -0.6240 -0.2033 -0.1671
  231MOL0     C31081  -0.212   6.443   6.806 -0.3650  1.1003 -0.0332
  231MOL0     C31082  -0.195   6.448   6.667  0.5829  0.8080 -0.4971
  231MOL0     C31083  -0.107   6.553   6.626  1.2753  0.3755  0.1080
  231MOL0     C31084  -0.053   6.643   6.716  0.8535  0.4213  0.3664
  231MOL0     O31085   0.015   6.753   6.658  0.1774 -0.0556 -0.1279
  231MOL0     C31086   0.128   6.804   6.729  0.0485  0.7632 -0.0595
  231MOL0     C31087   0.225   6.876   6.636 -0.5421  0.2968  0.8603
  231MOL0     C31088   0.329   6.943   6.735  0.4138  0.6289  0.5059
  231MOL0     C31089   0.429   7.014   6.644  0.1958 -0.1754 -0.9431
  231MOL0     C31090   0.568   7.034   6.717  0.5387 -0.7229 -0.5115
  231MOL0     C31091   0.558   7.119   6.842 -0.8535  1.3706  0.1320
  231MOL0     C31092   0.709   7.103   6.907  0.4692  0.2625 -0.3080
  231MOL0     C31093   0.758   7.249   6.956  1.6105  0.1432 -0.4894
  231MOL0    Cl31094   0.636   7.314   7.068 -0.2770 -0.0352 -0.1849
  231MOL0     C31095  -0.084   6.631   6.849 -0.5804  0.3303  0.2773
  231MOL0     C31096  -0.163   6.532   6.897 -0.2956 -0.0096  0.2814
  231MOL0     O31097  -0.491   6.384   6.764  0.0150 -0.4006 -0.9111
  231MOL0     C31098  -0.403   6.089   6.935 -0.3131  0.1911  0.0390
  231MOL0     C31099  -0.461   5.978   6.993 -1.2717  0.3431 -0.8325
  231MOL0     N31100  -0.388   5.451   7.132 -0.6827 -0.3968  0.4212
  231MOL0     N31101  -0.347   5.328   7.128  0.0832 -0.4100  0.0145
  231MOL0     C31102   0.398   4.629   7.270  0.3075 -0.2119  0.0497
  231MOL0     C31103   0.511   4.580   7.229 -0.2281  0.1832 -0.0350
  231MOL0     C31104   0.857   4.430   6.977  1.4596 -0.2968  0.4566
  231MOL0     C31105   0.821   4.456   6.837  0.6250 -0.3607 -0.7426
  231MOL0     C31106   0.878   4.390   6.730  0.1465  0.4532 -0.6149
  231MOL0     C31107   0.975   4.296   6.753  0.4136 -0.2470 -0.4065
  231MOL0     O31108   1.035   4.252   6.642 -0.5304 -0.1989  0.7011
  231MOL0     C31109   1.169   4.223   6.638  0.1011 -0.0253 -0.1001
  231MOL0     C31110   1.176   4.071   6.623  0.5093  0.0961 -0.0915
  231MOL0     C31111   1.309   4.013   6.664 -0.2639  0.2079 -0.3270
  231MOL0     C31112   1.306   3.864   6.654 -0.3822 -0.2365 -1.0576
  231MOL0     C31113   1.244   3.799   6.778 -0.6393 -0.6005 -0.1213
  231MOL0     C31114   1.202   3.765   6.886 -0.3956 -0.5184 -0.2546
  231MOL0     C31115   1.019   4.277   6.892  0.1537  0.0436 -0.2287
  231MOL0     C31116   0.961   4.347   7.003 -1.1250 -0.2537 -0.0956
  231MOL0     C31117   1.014   4.312   7.131  0.2702 -0.2606 -0.0675
  231MOL0     H31118   0.551   4.765   6.938 -3.0384  2.7502  0.0063
  231MOL0     H31119   0.344   4.857   7.027  0.1173 -1.4231 -2.5299
  231MOL0     H31120   0.119   4.615   7.316 -2.5570  0.7913  2.4581
  231MOL0     H31121   0.168   4.764   7.417  2.8051 -3.8393  1.6611
  231MOL0     H31122  -0.065   4.745   7.417  1.1102  0.6239  1.3269
  231MOL0     H31123  -0.059   4.733   7.244 -1.0545  2.2294  0.4376
  231MOL0     H31124   0.033   4.968   7.230  3.3417 -0.6222  1.2504
  231MOL0     H31125   0.037   4.992   7.400 -2.0728 -0.8389  2.3071
  231MOL0     H31126  -0.213   4.956   7.433 -0.7514 -1.0471 -0.9091
  231MOL0     H31127  -0.160   5.098   7.344 -1.3340 -0.2795 -0.1642
  231MOL0     H31128  -0.208   4.970   7.132 -1.7830 -1.1954 -1.8553
  231MOL0     H31129  -0.269   4.835   7.229 -0.0691  0.1269 -2.4223
  231MOL0     H31130  -0.450   4.987   7.332  0.2002 -2.8675  0.0680
  231MOL0     H31131  -0.363   5.129   7.267  0.8264  1.2365 -3.3357
  231MOL0     H31132  -0.589   5.029   7.132  0.0155 -1.0694 -0.4108
  231MOL0     H31133  -0.476   4.920   7.071  1.2846 -2.8067  4.3332
  231MOL0     H31134  -0.320   5.089   6.990  0.8212 -2.5500  1.6751
  231MOL0     H31135  -0.479   5.092   6.925 -0.8861  0.8546  0.1439
  231MOL0     H31136  -0.649   5.302   7.006  0.8139 -1.2030 -1.3505
  231MOL0     H31137  -0.546   5.656   7.053  2.3755 -0.7422  0.2435
  231MOL0     H31138  -0.695   5.556   7.029  1.8715 -0.9717 -1.5408
  231MOL0     H31139  -0.720   5.536   7.276  1.1301 -0.1875  0.9253
  231MOL0     H31140  -0.592   5.649   7.307  0.6785  3.4819 -0.4484
  231MOL0     H31141  -0.792   5.747   7.323  0.4274 -0.0005 -0.6522
  231MOL0     H31142  -0.847   5.703   7.165 -1.7324 -1.0244  2.8299
  231MOL0     H31143  -0.598   5.869   7.224  0.2300 -2.9273 -0.0621
  231MOL0     H31144  -0.752   5.947   7.184 -1.1894 -1.3186  1.4136
  231MOL0     H31145  -0.782   6.045   6.908 -0.4222  2.0480  2.4875
  231MOL0     H31146  -0.668   6.249   6.806  1.1767  1.8212  2.5273
  231MOL0     H31147  -0.228   6.375   6.593  2.5691 -0.2880 -0.3772
  231MOL0     H31148  -0.097   6.576   6.520 -0.5089  2.0636  0.2436
  231MOL0     H31149   0.093   6.863   6.815 -0.3739 -0.4308  0.6146
  231MOL0     H31150   0.190   6.725   6.773 -3.3737 -1.3560  1.4263
  231MOL0     H31151   0.272   6.812   6.561 -1.4039  0.8805 -0.1913
  231MOL0     H31152   0.162   6.952   6.588 -3.6075 -3.3136 -1.4054
  231MOL0     H31153   0.272   7.020   6.788 -2.4438 -0.4403 -0.8362
  231MOL0     H31154   0.354   6.858   6.799 -2.8493 -0.3090  0.7037
  231MOL0     H31155   0.392   7.102   6.592  0.2317 -0.6781 -1.8295
  231MOL0     H31156   0.453   6.941   6.566 -2.7730  0.8148 -2.9083
  231MOL0     H31157   0.617   7.086   6.634  0.6116  2.3022  1.2730
  231MOL0     H31158   0.644   6.955   6.724  2.8162  1.3490 -0.5337
  231MOL0     H31159   0.529   7.220   6.812  1.5874  1.1302 -3.7252
  231MOL0     H31160   0.488   7.073   6.912 -0.9289  0.7846 -0.3189
  231MOL0     H31161   0.784   7.065   6.836  0.2051 -0.1590 -0.3634
  231MOL0     H31162   0.710   7.037   6.993 -0.1814 -0.3670 -0.7702
  231MOL0     H31163   0.856   7.244   7.004  1.2746  0.7811  0.2800
  231MOL0     H31164   0.755   7.328   6.880 -0.4350 -1.8191 -2.6327
  231MOL0     H31165  -0.048   6.702   6.922  2.2664 -1.6523  0.9885
  231MOL0     H31166  -0.176   6.533   7.005  1.9580 -0.9325  0.6165
  231MOL0     H31167  -0.297   6.110   6.949 -0.7674  2.4593  0.3622
  231MOL0     H31168  -0.404   5.897   7.039  0.5402  1.0848 -1.6874
  231MOL0     H31169   0.349   4.587   7.358 -3.4351  0.0678 -1.7197
  231MOL0     H31170   0.544   4.494   7.288 -0.0625  0.0419 -0.3285
  231MOL0     H31171   0.750   4.534   6.807  3.7875  2.5350 -1.3427
  231MOL0     H31172   0.840   4.408   6.630 -1.0526 -1.4252 -0.5463
  231MOL0     H31173   1.219   4.262   6.727  0.4374 -1.7064  0.4649
  231MOL0     H31174   1.217   4.274   6.553  2.1565  0.8509  1.5027
  231MOL0     H31175   1.153   4.050   6.518  4.9535  2.6258 -1.8453
  231MOL0     H31176   1.104   4.043   6.701 -1.3173  1.3122 -1.2575
  231MOL0     H31177   1.340   4.037   6.766  2.1610 -0.7305 -0.7615
  231MOL0     H31178   1.382   4.060   6.597  1.9806 -0.1112  1.7371
  231MOL0     H31179   1.254   3.829   6.565 -1.0874 -0.3316 -0.6165
  231MOL0     H31180   1.410   3.830   6.652 -0.5581 -1.0511  0.8380
  231MOL0     H31181   1.140   3.728   6.965 -1.1613 -2.2396 -1.5724
  231MOL0     H31182   1.101   4.210   6.919  0.9646 -0.8448 -4.2170
  231MOL0     H31183   1.030   4.399   7.195 -0.3566  1.3393 -2.0082
  231MOL0     H31184   0.941   4.241   7.171 -2.4349  3.0883  1.4279
  231MOL0     H31185   1.114   4.266   7.130  0.2300 -0.4847  1.8932
  232MOL0     O31186   5.700  10.697   8.103 -0.0004  0.4403 -0.2400
  232MOL0     C31187   5.787  10.735   8.016 -0.1117  0.5249  0.7892
  232MOL0     O31188   5.907  10.680   7.992  0.0901  0.1261  0.4700
  232MOL0     C31189   5.941  10.559   8.053  0.1891  1.4626  0.2061
  232MOL0     C31190   5.855  10.458   8.091  0.2789  0.1024 -0.3260
  232MOL0     C31191   5.914  10.333   8.146  0.3493  0.3712 -0.8220
  232MOL0     C31192   6.057  10.313   8.165  0.7942 -0.9674 -0.8513
  232MOL0     O31193   6.110  10.204   8.210 -0.0859 -0.0722 -0.0467
  232MOL0     C31194   6.236  10.215   8.279  0.8471  0.4333 -0.1984
  232MOL0     C31195   6.228  10.094   8.367  0.8858 -0.0660 -0.7575
  232MOL0     C31196   6.318  10.107   8.490 -0.5419  0.4236  0.8795
  232MOL0     C31197   6.358   9.977   8.546  0.1771 -0.2462 -0.8409
  232MOL0     C31198   6.502   9.973   8.602 -0.3646 -0.3582  0.6360
  232MOL0     C31199   6.524  10.081   8.714 -0.0111  0.2640 -0.1395
  232MOL0     C31200   6.655  10.057   8.794 -0.0397 -1.7466  0.1299
  232MOL0     C31201   6.636   9.977   8.914 -0.0541  1.2300  0.3917
  232MOL0     N31202   6.757   9.986   9.003 -0.2449 -0.3601  0.1228
  232MOL0     C31203   6.886   9.974   8.963  0.2747  0.2708  0.6372
  232MOL0     C31204   6.955  10.012   9.072  0.1865  0.0384 -1.0093
  232MOL0     C31205   7.098  10.008   9.060  0.3770 -0.1631 -0.8395
  232MOL0     C31206   7.173  10.002   9.195 -0.0310  0.3162  0.6605
  232MOL0     C31207   7.326   9.969   9.163  0.1333 -0.7342 -0.6147
  232MOL0     C31208   7.415   9.962   9.288  1.1184  0.0334  0.9624
  232MOL0     O31209   7.550   9.969   9.235  0.3896  0.6307 -0.1715
  232MOL0     C31210   7.610   9.853   9.205  0.5294  0.5668  1.1344
  232MOL0     C31211   7.737   9.870   9.167  0.3265 -0.4337  0.2991
  232MOL0     C31212   7.819   9.759   9.127  0.5531 -0.1062  0.3399
  232MOL0     C31213   7.767   9.624   9.113  0.7250  0.1989  0.8244
  232MOL0     C31214   7.845   9.516   9.041  1.0731 -0.7759  0.1855
  232MOL0     O31215   7.931   9.548   8.938  0.1840 -0.8028 -0.4512
  232MOL0     C31216   8.052   9.477   8.936  0.3385  0.8068 -0.1469
  232MOL0     C31217   8.172   9.533   8.976  1.0613  0.1779  0.2059
  232MOL0     C31218   8.292   9.458   8.964 -0.2169 -0.3747  0.6705
  232MOL0     C31219   8.286   9.327   8.917 -0.9279 -0.0237 -0.1321
  232MOL0     O31220   8.400   9.254   8.882 -0.0182 -0.3509 -0.0806
  232MOL0     C31221   8.520   9.252   8.967  0.3798  0.1793 -0.2883
  232MOL0     C31222   8.630   9.154   8.904 -0.5385 -0.1655  0.0561
  232MOL0     C31223   8.580   9.003   8.913  0.7900 -0.3750  0.1676
  232MOL0     C31224   8.676   8.918   8.836  0.1371  0.2376  0.4301
  232MOL0     C31225   8.599   8.777   8.825 -0.6112  0.1133 -0.1865
  232MOL0     C31226   8.657   8.695   8.719 -0.3312 -0.0405  0.2863
  232MOL0     C31227   8.809   8.650   8.739 -0.1369  0.1843  0.3132
  232MOL0     C31228   8.816   8.525   8.827  0.2352  0.6721  0.3981
  232MOL0    Cl31229   8.999   8.478   8.824  0.6369  0.7025 -0.2147
  232MOL0     C31230   8.164   9.265   8.893  0.4709 -0.1553 -0.6075
  232MOL0     C31231   8.047   9.341   8.901  0.2009  1.2937  0.6079
  232MOL0     O31232   7.826   9.405   9.077  0.9007 -0.7008 -0.1295
  232MOL0     C31233   7.630   9.612   9.156 -0.1023 -0.1381 -0.6564
  232MOL0     C31234   7.553   9.726   9.199  1.4200  1.2571  0.1874
  232MOL0     N31235   6.866  10.049   9.175 -0.5733 -0.2455 -0.5754
  232MOL0     N31236   6.748  10.031   9.134  1.1004 -0.5020  1.0781
  232MOL0     C31237   6.136  10.427   8.116  0.6388 -0.3178 -0.2489
  232MOL0     C31238   6.078  10.535   8.059 -0.2850 -0.0377  0.0573
  232MOL0     C31239   5.755  10.851   7.933 -0.3679 -0.6116 -0.1096
  232MOL0     C31240   5.870  10.925   7.890 -0.4251 -0.6644 -0.1766
  232MOL0     C31241   5.864  11.044   7.823  0.4544  0.9420  0.1465
  232MOL0     C31242   5.734  11.086   7.784 -1.0208  0.0831  1.0952
  232MOL0     O31243   5.712  11.199   7.709 -0.2489 -0.5879  0.3394
  232MOL0     C31244   5.644  11.184   7.574  0.6352 -0.2188 -0.3478
  232MOL0     C31245   5.522  11.291   7.573 -0.5240  0.4287  0.0438
  232MOL0     C31246   5.436  11.269   7.461  0.3233 -0.7142 -0.2410
  232MOL0     C31247   5.296  11.335   7.453 -0.1195  0.2937  0.2608
  232MOL0     C31248   5.302  11.483   7.460 -0.4541  0.2178 -1.6527
  232MOL0     C31249   5.327  11.603   7.475  0.0399  0.0362  0.7751
  232MOL0     C31250   5.621  11.006   7.815  1.3482  1.2132  0.1326
  232MOL0     C31251   5.628  10.899   7.897  0.1980  0.2731  0.1373
  232MOL0     C31252   5.499  10.837   7.938 -0.3018 -0.2217  0.5667
  232MOL0     H31253   5.749  10.475   8.082  0.0810 -1.8453 -2.5798
  232MOL0     H31254   5.835  10.261   8.162 -1.9753  3.1455  1.2013
  232MOL0     H31255   6.318  10.208   8.207  1.3890 -0.9118  0.5156
  232MOL0     H31256   6.236  10.308   8.336 -2.0652  1.5196 -1.7540
  232MOL0     H31257   6.264  10.013   8.303 -2.6683  0.0856 -3.2126
  232MOL0     H31258   6.129  10.054   8.392  1.8122 -2.5030 -0.7387
  232MOL0     H31259   6.280  10.179   8.563 -1.7135  2.0363 -1.1917
  232MOL0     H31260   6.412  10.147   8.453  1.2860 -0.8844  3.7959
  232MOL0     H31261   6.279   9.963   8.619  0.9347  0.1236  0.0665
  232MOL0     H31262   6.345   9.898   8.471  1.4633 -2.7908  1.4605
  232MOL0     H31263   6.517   9.871   8.637 -1.4001 -1.0046 -0.7454
  232MOL0     H31264   6.569   9.988   8.517  0.7985  3.2147  1.9744
  232MOL0     H31265   6.511  10.183   8.676 -3.1670 -0.3690 -1.0056
  232MOL0     H31266   6.442  10.061   8.782  0.6452  1.5472  1.0750
  232MOL0     H31267   6.677  10.156   8.835  2.4921 -1.7855 -0.9266
  232MOL0     H31268   6.731  10.021   8.724 -0.2657 -0.6154 -0.7133
  232MOL0     H31269   6.558  10.024   8.974  0.7054  3.0205  0.0382
  232MOL0     H31270   6.605   9.872   8.907 -0.1467  1.2557  0.4051
  232MOL0     H31271   6.919   9.954   8.861 -1.0448  2.1737 -0.2371
  232MOL0     H31272   7.135   9.920   9.005  2.0860 -1.7665  2.5733
  232MOL0     H31273   7.144  10.095   9.011  3.7265 -2.6396 -2.5562
  232MOL0     H31274   7.144  10.093   9.249  0.5793  1.2370 -0.4982
  232MOL0     H31275   7.122   9.923   9.250 -0.7004  0.4546  0.2474
  232MOL0     H31276   7.360  10.039   9.086  0.8341  0.2128  0.5370
  232MOL0     H31277   7.341   9.873   9.113  2.0382  0.0321 -1.6102
  232MOL0     H31278   7.398   9.871   9.347  0.6760 -0.9248 -0.5837
  232MOL0     H31279   7.389  10.053   9.343 -0.8625  1.1759 -1.6625
  232MOL0     H31280   7.779   9.969   9.186 -2.6199  1.2940 -1.3682
  232MOL0     H31281   7.924   9.775   9.102  1.0275 -2.1141  0.8924
  232MOL0     H31282   8.167   9.629   9.027 -0.0126 -0.8575  2.1902
  232MOL0     H31283   8.380   9.513   8.996 -1.4652  1.9254  0.3958
  232MOL0     H31284   8.554   9.351   8.998  0.7999  0.9269 -2.9300
  232MOL0     H31285   8.479   9.193   9.050 -0.0181 -0.0906 -0.6727
  232MOL0     H31286   8.647   9.186   8.801  0.1648 -2.1843 -0.5131
  232MOL0     H31287   8.727   9.168   8.953 -2.1758  2.1493  2.9670
  232MOL0     H31288   8.568   8.969   9.016 -0.2893  1.3257  0.6554
  232MOL0     H31289   8.486   9.008   8.856  0.6306  0.0299  0.4600
  232MOL0     H31290   8.771   8.912   8.890 -1.3112  3.2098  3.7827
  232MOL0     H31291   8.693   8.951   8.733 -3.9692 -2.4025 -1.3655
  232MOL0     H31292   8.494   8.795   8.798 -0.7547 -2.6443 -1.8106
  232MOL0     H31293   8.597   8.727   8.923 -2.6691  1.7388  0.6921
  232MOL0     H31294   8.589   8.609   8.711 -0.0619 -0.0971 -2.3534
  232MOL0     H31295   8.646   8.741   8.620 -1.4699 -3.3463 -1.2930
  232MOL0     H31296   8.882   8.723   8.774  2.4813 -2.5511  0.9479
  232MOL0     H31297   8.853   8.611   8.647  1.1028  0.2250  0.8641
  232MOL0     H31298   8.787   8.552   8.929  0.8656  0.4077  0.6570
  232MOL0     H31299   8.751   8.442   8.796  1.3521  0.7212 -2.4172
  232MOL0     H31300   8.162   9.160   8.864 -0.4660 -0.7142  1.3414
  232MOL0     H31301   7.951   9.305   8.867 -0.2595  2.1578  0.9579
  232MOL0     H31302   7.570   9.522   9.152 -2.0024  1.0722 -0.6682
  232MOL0     H31303   7.457   9.695   9.239  0.3653  1.2035 -2.1883
  232MOL0     H31304   6.243  10.430   8.132  0.5280  0.3073  0.4045
  232MOL0     H31305   6.153  10.609   8.032  0.2977 -0.1381  1.3418
  232MOL0     H31306   5.972  10.906   7.923 -1.0440 -1.4500  1.3814
  232MOL0     H31307   5.954  11.100   7.797  1.1775  0.3789  1.3645
  232MOL0     H31308   5.601  11.084   7.570 -1.6179  0.7169 -3.7297
  232MOL0     H31309   5.721  11.203   7.499  3.4681 -0.0401  2.3655
  232MOL0     H31310   5.567  11.391   7.568 -2.5647  1.4528  1.0628
  232MOL0     H31311   5.453  11.284   7.658 -0.1156 -0.5187  0.3086
  232MOL0     H31312   5.431  11.160   7.470 -2.2329 -0.7558 -1.2990
  232MOL0     H31313   5.482  11.297   7.365 -1.7135  1.6417 -0.6182
  232MOL0     H31314   5.234  11.301   7.370  0.2849 -1.9000  0.7993
  232MOL0     H31315   5.241  11.293   7.538 -0.6204 -0.2653 -0.3340
  232MOL0     H31316   5.347  11.708   7.485 -0.7052  0.3345 -0.6164
  232MOL0     H31317   5.521  11.040   7.788  1.1576  1.6767  1.3389
  232MOL0     H31318   5.493  10.800   8.041 -0.2880  1.2639  1.1209
  232MOL0     H31319   5.417  10.909   7.934 -1.5299 -1.5108  1.7198
  232MOL0     H31320   5.483  10.754   7.868  1.2808  0.4368 -0.6461
  233MOL0     O31321   7.464  11.278   9.117  0.3326  0.7619  0.0798
  233MOL0     C31322   7.342  11.285   9.116  0.2271  0.2068  0.2331
  233MOL0     O31323   7.264  11.285   9.227  0.3598 -0.0008  0.6679
  233MOL0     C31324   7.313  11.275   9.352  0.0443 -0.3883  0.6677
  233MOL0     C31325   7.394  11.165   9.403  0.5933 -0.0705  0.4518
  233MOL0     C31326   7.441  11.178   9.534  0.0100 -0.2176 -0.6573
  233MOL0     C31327   7.398  11.279   9.623  1.5359  0.1138 -0.7977
  233MOL0     O31328   7.434  11.297   9.756 -0.3509 -0.8426 -0.1788
  233MOL0     C31329   7.509  11.197   9.829  0.5247 -0.0709  0.2259
  233MOL0     C31330   7.526  11.249   9.969 -0.6546 -0.9257 -0.7659
  233MOL0     C31331   7.567  11.132  10.065 -0.0087 -0.2526  0.0188
  233MOL0     C31332   7.715  11.094  10.062 -0.4508  0.5591  0.2626
  233MOL0     C31333   7.752  10.998  10.171  1.1140  0.8720 -0.1490
  233MOL0     C31334   7.900  10.975  10.183  0.8622  0.2051 -0.1084
  233MOL0     C31335   7.960  10.900  10.306  0.8384  0.3563  0.5752
  233MOL0     C31336   7.905  10.756  10.327  0.5687 -0.7345 -0.0327
  233MOL0     N31337   7.959  10.668  10.231  0.5074  0.8986  0.2109
  233MOL0     C31338   7.908  10.540  10.209 -0.0988  0.4853 -1.1562
  233MOL0     C31339   7.980  10.483  10.109 -0.1455  0.0755  0.2650
  233MOL0     C31340   7.964  10.344  10.055 -0.5308 -0.0389 -0.5520
  233MOL0     C31341   8.054  10.314   9.936 -0.3890  0.0858  0.6355
  233MOL0     C31342   7.989  10.376   9.808 -0.2857  0.3478 -0.2351
  233MOL0     C31343   7.997  10.293   9.682  0.8169 -1.2340  0.0430
  233MOL0     O31344   8.138  10.277   9.642  0.0903  0.1623  0.2739
  233MOL0     C31345   8.174  10.174   9.562  0.3855  0.1622 -1.1045
  233MOL0     C31346   8.077  10.106   9.485 -0.5157  0.1428 -0.0460
  233MOL0     C31347   8.118   9.995   9.410 -0.4643 -0.1083  0.5564
  233MOL0     C31348   8.248   9.947   9.424  0.1083  0.7321  0.3463
  233MOL0     C31349   8.308   9.821   9.349  0.2327  0.2746  0.2088
  233MOL0     O31350   8.438   9.789   9.375  0.1272  0.2566  0.5277
  233MOL0     C31351   8.489   9.677   9.308 -0.7484  0.9785  0.4852
  233MOL0     C31352   8.445   9.542   9.333 -0.1539 -0.8603  0.1494
  233MOL0     C31353   8.522   9.429   9.291  0.8836 -0.2350  0.1596
  233MOL0     C31354   8.643   9.450   9.222 -0.1186 -0.4008 -1.0729
  233MOL0     O31355   8.732   9.346   9.202  0.8102 -0.5575 -0.2034
  233MOL0     C31356   8.737   9.245   9.306 -0.1146 -1.1077  0.1630
  233MOL0     C31357   8.868   9.176   9.318  0.6760  0.3072 -1.3523
  233MOL0     C31358   8.972   9.250   9.403  0.1984 -0.3651  0.0906
  233MOL0     C31359   8.945   9.214   9.549 -0.7182 -0.3280  0.7882
  233MOL0     C31360   9.013   9.315   9.641  0.0466 -0.1006 -0.2810
  233MOL0     C31361   9.022   9.267   9.784  0.0922  0.6123 -1.1434
  233MOL0     C31362   9.100   9.372   9.870 -0.4750  0.0190  1.0608
  233MOL0     C31363   9.123   9.329  10.010 -0.5915  0.4259 -0.4805
  233MOL0    Cl31364   8.968   9.332  10.104  0.4841 -0.2622  0.1304
  233MOL0     C31365   8.684   9.583   9.196 -0.4300  0.0672  0.0811
  233MOL0     C31366   8.610   9.696   9.238 -0.0772  0.2740 -0.5925
  233MOL0     O31367   8.238   9.760   9.268  0.8800 -0.6483  0.4570
  233MOL0     C31368   8.344  10.006   9.508 -0.4740 -0.3029  0.4986
  233MOL0     C31369   8.304  10.121   9.581 -0.2795  0.1558  0.1159
  233MOL0     N31370   8.074  10.580  10.079 -0.8432  0.0452  0.5121
  233MOL0     N31371   8.061  10.689  10.148  0.6755  0.0011  0.0458
  233MOL0     C31372   7.318  11.381   9.573 -0.4352  0.6552  0.2115
  233MOL0     C31373   7.282  11.381   9.435  0.8496  0.2472 -0.1295
  233MOL0     C31374   7.273  11.263   8.982  0.7644 -0.2284 -0.4792
  233MOL0     C31375   7.131  11.265   8.980  1.1637  0.1042  0.0647
  233MOL0     C31376   7.069  11.261   8.862  0.8272 -0.1202 -0.9322
  233MOL0     C31377   7.124  11.222   8.741  0.7578  0.2477  0.5302
  233MOL0     O31378   7.058  11.199   8.623  0.3154  0.2264  0.7052
  233MOL0     C31379   6.910  11.193   8.613 -0.0318  0.5639  0.5246
  233MOL0     C31380   6.861  11.256   8.494  0.5063 -0.6345 -0.1512
  233MOL0     C31381   6.903  11.406   8.458 -0.2318 -0.4340 -0.6100
  233MOL0     C31382   6.812  11.509   8.528  0.1188 -0.9629  0.6928
  233MOL0     C31383   6.666  11.498   8.487 -0.5194  0.1774 -0.2321
  233MOL0     C31384   6.550  11.525   8.455 -0.3198 -0.6617 -0.3366
  233MOL0     C31385   7.261  11.201   8.740 -0.5580  0.3167 -0.5565
  233MOL0     C31386   7.338  11.226   8.860 -0.6589 -0.3711  0.8251
  233MOL0     C31387   7.493  11.229   8.829 -0.5242  0.2147 -0.8446
  233MOL0     H31388   7.430  11.079   9.347  0.4103  0.3608 -0.3367
  233MOL0     H31389   7.501  11.094   9.568 -0.2416  0.2505  1.0404
  233MOL0     H31390   7.452  11.104   9.828  1.6259 -1.0389  4.8937
  233MOL0     H31391   7.612  11.179   9.797  0.6330  1.6718 -0.5824
  233MOL0     H31392   7.427  11.294   9.984 -0.7464 -0.8104 -1.6253
  233MOL0     H31393   7.596  11.332   9.977 -1.6751 -0.2233  3.8649
  233MOL0     H31394   7.502  11.047  10.044 -0.5578 -0.5233  2.4873
  233MOL0     H31395   7.545  11.155  10.170 -0.2199 -1.8864  0.3586
  233MOL0     H31396   7.726  11.056   9.960 -0.4199  2.9015 -0.6576
  233MOL0     H31397   7.769  11.187  10.081 -0.9023  0.8100  0.3150
  233MOL0     H31398   7.723  11.033  10.270 -3.7986 -3.1925  0.2467
  233MOL0     H31399   7.701  10.902  10.155  3.6747 -0.1761 -3.1724
  233MOL0     H31400   7.937  10.935  10.088 -2.6880  0.6999 -1.8797
  233MOL0     H31401   7.943  11.075  10.180  1.2292  0.0306 -0.9147
  233MOL0     H31402   7.942  10.955  10.398  0.6364 -1.3283  1.5883
  233MOL0     H31403   8.066  10.881  10.287  0.7196 -1.5591  1.5357
  233MOL0     H31404   7.915  10.717  10.428 -1.8120 -0.5690  0.3240
  233MOL0     H31405   7.798  10.748  10.306 -0.0063 -1.1425  2.7048
  233MOL0     H31406   7.833  10.487  10.268  2.1239  0.8523  2.2909
  233MOL0     H31407   7.986  10.266  10.129 -1.9684  0.5013  0.5035
  233MOL0     H31408   7.861  10.330  10.020  0.5294  0.5263 -4.3576
  233MOL0     H31409   8.155  10.358   9.941 -0.1746 -0.1486 -0.9142
  233MOL0     H31410   8.066  10.205   9.929  0.6395  0.2646 -1.2641
  233MOL0     H31411   8.036  10.475   9.801  1.1691 -0.0325  2.4768
  233MOL0     H31412   7.885  10.394   9.834 -0.6467  0.8951 -1.9620
  233MOL0     H31413   7.934  10.339   9.606  1.5658 -0.0394  0.1268
  233MOL0     H31414   7.959  10.196   9.716  0.2940 -0.2098  2.6385
  233MOL0     H31415   7.979  10.149   9.464 -0.1712  0.4921 -1.0217
  233MOL0     H31416   8.056   9.944   9.336  1.4150 -1.9939  0.1618
  233MOL0     H31417   8.355   9.508   9.384 -0.2159 -1.6465 -0.4742
  233MOL0     H31418   8.474   9.334   9.310  0.1178  0.1542  0.1932
  233MOL0     H31419   8.711   9.292   9.402 -0.1920  0.9252 -0.7950
  233MOL0     H31420   8.663   9.168   9.282 -1.2835 -0.1174  0.4781
  233MOL0     H31421   8.870   9.075   9.360 -1.8419  0.2762 -1.1315
  233MOL0     H31422   8.896   9.165   9.213  0.8129  1.2507 -1.4220
  233MOL0     H31423   9.078   9.224   9.392 -0.2836 -3.6933  2.0579
  233MOL0     H31424   8.970   9.360   9.396 -1.0097 -0.3858 -0.1641
  233MOL0     H31425   8.989   9.116   9.566 -2.8084 -1.3012  0.8434
  233MOL0     H31426   8.841   9.207   9.583 -0.3863 -1.2701  1.6605
  233MOL0     H31427   8.949   9.403   9.630 -0.4323 -0.6070 -1.7174
  233MOL0     H31428   9.111   9.346   9.604  0.6731 -2.2990 -0.6080
  233MOL0     H31429   8.923   9.247   9.825  0.1152  0.2507 -1.2577
  233MOL0     H31430   9.073   9.171   9.793 -0.3876  0.4899  0.6124
  233MOL0     H31431   9.047   9.468   9.875  1.3973  1.1058  1.0632
  233MOL0     H31432   9.200   9.389   9.827 -1.6671  2.6388 -1.0040
  233MOL0     H31433   9.164   9.227  10.015 -1.3326  0.0301 -1.8528
  233MOL0     H31434   9.199   9.394  10.054 -0.0931 -1.1319  1.0527
  233MOL0     H31435   8.775   9.609   9.143 -1.5894  2.4425 -0.8987
  233MOL0     H31436   8.654   9.793   9.218  1.0489 -0.3311 -1.1838
  233MOL0     H31437   8.443   9.964   9.518 -0.0439  0.3665 -0.6968
  233MOL0     H31438   8.371  10.163   9.655 -0.1132  0.0013  0.0550
  233MOL0     H31439   7.289  11.458   9.643  1.9739  1.2708  0.6310
  233MOL0     H31440   7.224  11.465   9.397 -1.6380 -0.9670  0.7244
  233MOL0     H31441   7.068  11.300   9.061  1.5382  2.9608 -0.7641
  233MOL0     H31442   6.962  11.277   8.872  0.9305  0.2582 -0.4066
  233MOL0     H31443   6.863  11.231   8.704 -0.1365 -0.6091  0.9800
  233MOL0     H31444   6.891  11.085   8.613  0.5550  0.4522 -0.2595
  233MOL0     H31445   6.752  11.255   8.482  0.1818  1.7312  1.8392
  233MOL0     H31446   6.900  11.186   8.420  0.9730 -0.9515  0.3835
  233MOL0     H31447   6.903  11.410   8.348  1.4835 -2.0674 -0.7321
  233MOL0     H31448   7.010  11.414   8.479  0.4818 -3.8741 -2.2321
  233MOL0     H31449   6.810  11.492   8.636 -0.5482 -3.0698  0.3931
  233MOL0     H31450   6.862  11.604   8.509  2.2809 -2.1824 -0.0609
  233MOL0     H31451   6.454  11.564   8.429 -0.1650  0.0782  0.1752
  233MOL0     H31452   7.328  11.179   8.657  1.0512 -1.2246  1.0581
  233MOL0     H31453   7.541  11.313   8.881  0.6312 -1.7538  1.5067
  233MOL0     H31454   7.532  11.135   8.869 -0.5000  1.1270  1.4687
  233MOL0     H31455   7.508  11.245   8.722  2.5271 -0.6293 -0.6398
  234MOL0     O31456   9.202   8.346   0.793  0.8335 -0.0766  0.6541
  234MOL0     C31457   9.112   8.260   0.813  0.4795  1.3596  0.6152
  234MOL0     O31458   9.117   8.125   0.780 -0.6617  0.1874  0.1307
  234MOL0     C31459   9.156   8.088   0.655 -0.6585 -0.1450 -0.6485
  234MOL0     C31460   9.151   8.163   0.536  0.4017  0.1446  0.2982
  234MOL0     C31461   9.178   8.108   0.414  0.8211  0.4078  0.5237
  234MOL0     C31462   9.222   7.977   0.403  0.1009  1.5466  0.6852
  234MOL0     O31463   9.235   7.916   0.282  0.1420 -0.3318  0.7958
  234MOL0     C31464   9.233   7.999   0.159  0.2147  0.1903  0.0632
  234MOL0     C31465   9.305   7.945   0.032 -0.4013 -0.9677 -0.4490
  234MOL0     C31466   9.457   7.948   0.028  0.1996  0.4731  0.1013
  234MOL0     C31467   9.521   7.863   0.137  0.4374 -0.1220 -0.9490
  234MOL0     C31468   9.670   7.850   0.132 -0.7062 -0.5765  1.0336
  234MOL0     C31469   9.723   7.754   0.034 -0.1138  0.7368  0.0617
  234MOL0     C31470   9.852   7.682   0.086 -1.1081 -0.6833  0.2064
  234MOL0     C31471   9.902   7.601  -0.034 -0.2112  0.4134  0.0026
  234MOL0     N31472   9.894   7.458  -0.015  0.4635 -0.3474 -0.0854
  234MOL0     C31473   9.989   7.364  -0.058 -0.4722 -0.0655  0.4892
  234MOL0     C31474   9.940   7.240  -0.011  0.2212 -0.2616  0.6658
  234MOL0     C31475  10.007   7.109  -0.020  0.1980 -0.8010 -0.3123
  234MOL0     C31476  10.109   7.112   0.097  0.6123  0.7090 -0.9050
  234MOL0     C31477  10.223   7.015   0.090 -0.1187  0.6900  0.2227
  234MOL0     C31478  10.192   6.862   0.098 -0.4822 -0.5859  0.3200
  234MOL0     O31479  10.285   6.807   0.190  0.9099  0.3487 -0.0396
  234MOL0     C31480  10.258   6.688   0.244  0.4744 -0.8901  0.7023
  234MOL0     C31481  10.298   6.658   0.377  0.0464  0.4905  0.0952
  234MOL0     C31482  10.268   6.533   0.433  0.2992 -0.7606  0.0662
  234MOL0     C31483  10.188   6.443   0.367  0.0757 -0.1118  0.2044
  234MOL0     C31484  10.165   6.316   0.432 -0.3465 -0.3486 -0.3223
  234MOL0     O31485  10.141   6.200   0.354  0.1835  0.1611 -0.4819
  234MOL0     C31486  10.117   6.087   0.424 -0.2934 -0.0348 -0.1612
  234MOL0     C31487   9.991   6.027   0.419 -0.0161 -0.6296  0.2532
  234MOL0     C31488   9.972   5.899   0.476 -0.2905  0.0629  0.1656
  234MOL0     C31489  10.073   5.839   0.553 -0.2858 -0.1417  1.1130
  234MOL0     O31490  10.057   5.715   0.614 -0.5641 -0.0668  1.1182
  234MOL0     C31491   9.926   5.656   0.617 -0.3632 -0.6194  0.1605
  234MOL0     C31492   9.910   5.532   0.698 -0.1785 -0.2259  0.5209
  234MOL0     C31493  10.000   5.414   0.648 -0.6360 -0.3488  0.3257
  234MOL0     C31494  10.157   5.456   0.656  0.4393 -0.7589  0.6003
  234MOL0     C31495  10.231   5.335   0.700  0.2640  0.0094 -0.2211
  234MOL0     C31496  10.389   5.361   0.708 -0.1109 -0.4658  0.1317
  234MOL0     C31497  10.456   5.259   0.786 -0.0372  0.5873 -0.5005
  234MOL0     C31498  10.609   5.264   0.768 -1.2483  0.0797  0.0011
  234MOL0    Cl31499  10.660   5.277   0.596  0.5069  0.2612  0.2742
  234MOL0     C31500  10.200   5.887   0.550 -0.6465 -1.0344  0.6282
  234MOL0     C31501  10.230   6.008   0.483 -0.1563 -0.3318 -0.3199
  234MOL0     O31502  10.170   6.316   0.556  0.1495 -0.6029 -0.2022
  234MOL0     C31503  10.149   6.472   0.235 -0.2557 -0.3306 -0.2467
  234MOL0     C31504  10.186   6.588   0.172 -0.1365 -0.5791 -0.7079
  234MOL0     N31505   9.818   7.263   0.048  0.2624 -0.1647  0.5229
  234MOL0     N31506   9.795   7.394   0.056  0.0208  0.1920  0.3772
  234MOL0     C31507   9.226   7.899   0.523  0.2894  0.0189  0.2875
  234MOL0     C31508   9.201   7.957   0.649  0.1031  0.7510 -0.3581
  234MOL0     C31509   8.986   8.295   0.888  0.2033 -0.1895 -0.5499
  234MOL0     C31510   8.999   8.372   0.996  0.0110 -0.2448 -0.2798
  234MOL0     C31511   8.909   8.394   1.089  0.0303 -0.6261 -0.6760
  234MOL0     C31512   8.780   8.338   1.068 -0.5400  0.1272 -0.0927
  234MOL0     O31513   8.679   8.356   1.158  0.5289 -0.0027 -0.7100
  234MOL0     C31514   8.543   8.319   1.143  0.0742 -0.6664  0.1280
  234MOL0     C31515   8.535   8.178   1.194 -0.9886 -0.5367 -0.0357
  234MOL0     C31516   8.393   8.118   1.181  0.3542 -0.3603 -0.4590
  234MOL0     C31517   8.372   7.988   1.268 -1.3407  0.6659 -0.1520
  234MOL0     C31518   8.463   7.875   1.219 -0.4657  0.2986  0.0341
  234MOL0     C31519   8.533   7.782   1.185  0.7216  0.8776  0.0611
  234MOL0     C31520   8.752   8.282   0.948 -0.5224  0.7378 -0.5820
  234MOL0     C31521   8.854   8.256   0.859 -0.1631  0.4430 -0.2252
  234MOL0     C31522   8.825   8.181   0.721  0.8232  0.3962  0.1097
  234MOL0     H31523   9.111   8.264   0.536  3.0836  1.3748 -2.3559
  234MOL0     H31524   9.160   8.166   0.324 -1.8017  2.0115  1.9611
  234MOL0     H31525   9.128   8.012   0.131 -0.4919 -3.0839  0.6924
  234MOL0     H31526   9.282   8.095   0.177  2.0787 -0.5911 -0.5831
  234MOL0     H31527   9.285   8.018  -0.047  3.2246  2.5191  1.4945
  234MOL0     H31528   9.264   7.848   0.001 -2.5797  0.3682 -2.0573
  234MOL0     H31529   9.491   8.051   0.041 -2.5065  1.1103  3.5818
  234MOL0     H31530   9.478   7.914  -0.074  1.5363  1.8513 -0.0997
  234MOL0     H31531   9.488   7.918   0.226 -2.7922 -0.5857 -1.7252
  234MOL0     H31532   9.476   7.763   0.132 -1.9574  0.8005  0.2752
  234MOL0     H31533   9.717   7.949   0.127 -0.6116 -0.6260  0.9472
  234MOL0     H31534   9.693   7.819   0.235 -0.1090  1.8296  1.6986
  234MOL0     H31535   9.647   7.677   0.019  1.0679 -0.6534  0.9555
  234MOL0     H31536   9.737   7.819  -0.053 -1.3959  0.2229 -0.5474
  234MOL0     H31537   9.835   7.618   0.173 -1.0504  1.2547  1.7366
  234MOL0     H31538   9.933   7.749   0.116 -2.0279 -0.7674  3.1570
  234MOL0     H31539   9.848   7.618  -0.127 -1.5374 -1.1518  0.4325
  234MOL0     H31540  10.010   7.614  -0.044  0.0784 -0.8614  1.1016
  234MOL0     H31541  10.084   7.392  -0.103 -0.4185  0.1422  0.7293
  234MOL0     H31542   9.939   7.024  -0.018 -0.4525 -0.3495 -1.6886
  234MOL0     H31543  10.062   7.098  -0.114  2.3715 -1.1250  0.9532
  234MOL0     H31544  10.144   7.215   0.106  1.1744  0.4413  0.3348
  234MOL0     H31545  10.053   7.093   0.190 -0.0802  0.9240 -1.2720
  234MOL0     H31546  10.270   7.033   0.187  1.4207 -2.7015  0.2474
  234MOL0     H31547  10.298   7.033   0.012 -0.6326  2.0504  0.0118
  234MOL0     H31548  10.217   6.831  -0.004  2.9055  0.5664  0.6807
  234MOL0     H31549  10.088   6.855   0.130 -0.7572 -0.4391 -0.5174
  234MOL0     H31550  10.362   6.727   0.432 -1.6883 -0.1549  3.1432
  234MOL0     H31551  10.323   6.507   0.523 -0.3218 -1.3224  0.2954
  234MOL0     H31552   9.908   6.063   0.358  0.2574 -1.3207 -0.5411
  234MOL0     H31553   9.873   5.860   0.458  0.0088 -0.7946  0.3421
  234MOL0     H31554   9.856   5.725   0.666  1.3723  0.0928  1.7568
  234MOL0     H31555   9.881   5.636   0.519 -2.6063  1.6994  0.5928
  234MOL0     H31556   9.934   5.556   0.802  3.2709 -2.4332  0.4276
  234MOL0     H31557   9.806   5.500   0.696 -0.7247  1.4773  0.2753
  234MOL0     H31558   9.991   5.325   0.710  0.0634 -3.1512 -3.2285
  234MOL0     H31559   9.982   5.375   0.547  1.1328  1.2798 -0.6726
  234MOL0     H31560  10.167   5.522   0.742  1.9950 -0.6256  0.3598
  234MOL0     H31561  10.202   5.505   0.569  0.8633  3.0755  2.7994
  234MOL0     H31562  10.225   5.256   0.624  1.3577 -0.9189  0.6084
  234MOL0     H31563  10.194   5.300   0.797  0.1874  1.5547  0.3346
  234MOL0     H31564  10.427   5.358   0.605  2.7400 -1.5245  1.1076
  234MOL0     H31565  10.398   5.459   0.755 -0.3682  0.9136 -2.4824
  234MOL0     H31566  10.428   5.157   0.756  1.1610 -0.6006  2.1096
  234MOL0     H31567  10.429   5.272   0.891 -1.1068  3.4308 -1.0348
  234MOL0     H31568  10.641   5.356   0.818  3.2295 -0.8328 -0.8450
  234MOL0     H31569  10.662   5.180   0.813 -3.0412 -1.4615 -0.6274
  234MOL0     H31570  10.281   5.825   0.588 -1.2234 -0.5998  2.6948
  234MOL0     H31571  10.334   6.040   0.487 -0.8492  2.2323  3.7479
  234MOL0     H31572  10.091   6.398   0.179 -0.4065 -0.5275  0.1637
  234MOL0     H31573  10.170   6.608   0.066 -2.5699  2.6616  0.1234
  234MOL0     H31574   9.247   7.794   0.506  0.0098 -0.1122  0.7260
  234MOL0     H31575   9.203   7.895   0.738 -3.8356 -0.9660 -1.2784
  234MOL0     H31576   9.100   8.409   1.009  1.1070 -3.1027  0.0612
  234MOL0     H31577   8.943   8.447   1.178 -1.5752  1.4800 -1.2232
  234MOL0     H31578   8.508   8.333   1.040  0.0455 -2.5450 -0.1587
  234MOL0     H31579   8.477   8.376   1.209 -0.3484 -0.2643 -0.6229
  234MOL0     H31580   8.572   8.168   1.296  3.6647  0.5931 -1.3677
  234MOL0     H31581   8.601   8.117   1.131 -2.6841 -4.3913  1.6161
  234MOL0     H31582   8.374   8.099   1.075  0.2067 -1.8439 -0.2025
  234MOL0     H31583   8.326   8.191   1.228  0.4408  0.2950 -1.3437
  234MOL0     H31584   8.394   7.993   1.375 -0.6082  1.5082 -0.3329
  234MOL0     H31585   8.269   7.950   1.265 -1.2237  0.2012  1.0143
  234MOL0     H31586   8.599   7.711   1.140 -1.5512 -0.8220 -0.8502
  234MOL0     H31587   8.653   8.243   0.926 -0.1046 -1.0075  0.4071
  234MOL0     H31588   8.883   8.234   0.646  0.3656  0.3958 -0.2492
  234MOL0     H31589   8.843   8.074   0.734 -0.9891  0.0795  0.2900
  234MOL0     H31590   8.720   8.176   0.689  1.0620 -1.2710 -0.4947
  235MOL0     O31591   0.634   0.668   3.176 -0.2822 -0.8870 -0.1309
  235MOL0     C31592   0.703   0.743   3.251 -0.1118  0.1779 -0.0652
  235MOL0     O31593   0.692   0.879   3.243  0.3238 -0.1722  0.2586
  235MOL0     C31594   0.653   0.946   3.133  0.9278 -0.2974  0.1593
  235MOL0     C31595   0.590   1.067   3.165 -0.3047  0.2694 -0.0563
  235MOL0     C31596   0.555   1.151   3.065  0.0327 -0.5548  0.9622
  235MOL0     C31597   0.607   1.135   2.941 -0.4572  0.0791 -0.0634
  235MOL0     O31598   0.580   1.227   2.839  0.3009 -0.7112 -0.2151
  235MOL0     C31599   0.681   1.251   2.744  0.0813 -0.7580 -0.4940
  235MOL0     C31600   0.630   1.202   2.611  0.0629  0.9094 -0.4418
  235MOL0     C31601   0.737   1.153   2.507  0.5824 -0.7218 -0.5327
  235MOL0     C31602   0.659   1.135   2.377  0.1098 -0.7190 -2.0037
  235MOL0     C31603   0.756   1.082   2.274  0.0961  0.4016  0.0203
  235MOL0     C31604   0.816   1.184   2.174  0.1168 -0.6134 -0.0218
  235MOL0     C31605   0.718   1.227   2.054 -0.0051  0.2372  0.1477
  235MOL0     C31606   0.708   1.105   1.960 -0.4599  0.9135  0.5603
  235MOL0     N31607   0.624   1.123   1.842  0.1094 -0.1817  0.1859
  235MOL0     C31608   0.596   1.242   1.785 -0.1619 -0.1216 -1.1850
  235MOL0     C31609   0.508   1.213   1.690  0.3914  1.2988  0.5431
  235MOL0     C31610   0.416   1.307   1.616  0.2089 -0.6689  0.2771
  235MOL0     C31611   0.440   1.463   1.629 -0.1960 -0.0155 -0.0919
  235MOL0     C31612   0.306   1.541   1.610  0.4422 -0.0677 -0.3546
  235MOL0     C31613   0.338   1.689   1.638  0.1831 -0.3798 -0.1636
  235MOL0     O31614   0.334   1.734   1.773 -0.4315  0.2758  0.0172
  235MOL0     C31615   0.368   1.858   1.808 -0.0771 -0.4461 -0.3589
  235MOL0     C31616   0.414   1.874   1.939  0.0768 -0.4657  0.1441
  235MOL0     C31617   0.470   1.990   1.987 -0.6761  0.2026 -0.2990
  235MOL0     C31618   0.489   2.101   1.906 -0.7588  0.7279 -0.4014
  235MOL0     C31619   0.548   2.223   1.977 -0.2664 -0.0461  0.8547
  235MOL0     O31620   0.631   2.214   2.083  0.6144  0.1608  0.4410
  235MOL0     C31621   0.674   2.329   2.142 -0.1614  0.7103 -0.2848
  235MOL0     C31622   0.692   2.327   2.283  0.9041  0.3881 -0.3264
  235MOL0     C31623   0.728   2.444   2.355  0.3060  0.3316  0.2724
  235MOL0     C31624   0.760   2.564   2.287  0.2096 -0.1498 -0.6613
  235MOL0     O31625   0.800   2.672   2.358  0.2944 -0.0147  0.3579
  235MOL0     C31626   0.788   2.806   2.303 -0.3901  0.2368  1.1132
  235MOL0     C31627   0.925   2.851   2.245  0.2050  0.6343  0.4942
  235MOL0     C31628   1.035   2.885   2.347 -0.0694 -0.0071  0.3705
  235MOL0     C31629   1.183   2.833   2.326  0.0539  0.3118 -0.0004
  235MOL0     C31630   1.244   2.897   2.201 -0.5785  0.1006 -0.7184
  235MOL0     C31631   1.266   3.052   2.207 -0.0286  0.4661  0.5615
  235MOL0     C31632   1.341   3.089   2.075 -1.0162  0.2748  0.3783
  235MOL0     C31633   1.315   3.229   2.007  0.7894  0.2774 -0.2311
  235MOL0    Cl31634   1.340   3.357   2.121 -0.6186 -0.1415 -0.1361
  235MOL0     C31635   0.749   2.556   2.154  0.0821  0.3667 -0.0553
  235MOL0     C31636   0.710   2.442   2.085 -1.1241 -0.5656 -0.1997
  235MOL0     O31637   0.507   2.327   1.919  0.1156  0.0585  0.0256
  235MOL0     C31638   0.447   2.091   1.771  0.0463 -0.1057 -0.1466
  235MOL0     C31639   0.388   1.972   1.726 -0.4813  0.8310 -0.2780
  235MOL0     N31640   0.487   1.071   1.692 -0.8350 -0.6853  0.0988
  235MOL0     N31641   0.567   1.025   1.776 -0.4201 -0.5592 -1.2095
  235MOL0     C31642   0.661   1.015   2.905 -0.1908  0.1022 -0.1495
  235MOL0     C31643   0.681   0.918   3.000 -0.4332  0.2091  0.1927
  235MOL0     C31644   0.788   0.689   3.363  0.4377  0.3652 -0.0852
  235MOL0     C31645   0.815   0.555   3.364  0.7258 -0.4278  0.1289
  235MOL0     C31646   0.864   0.495   3.480 -0.2042 -0.0721 -0.2189
  235MOL0     C31647   0.900   0.561   3.592 -0.0459 -0.0425  0.6255
  235MOL0     O31648   0.957   0.487   3.690  0.1701 -0.6173 -0.1632
  235MOL0     C31649   0.941   0.525   3.837  0.4159  0.4201 -0.3788
  235MOL0     C31650   0.796   0.514   3.878 -0.3213  0.1134 -0.7134
  235MOL0     C31651   0.733   0.378   3.850  0.5595  0.2553 -0.2249
  235MOL0     C31652   0.578   0.370   3.872 -0.8739 -0.3096  0.3217
  235MOL0     C31653   0.548   0.424   4.004  0.8605  0.8386  0.6354
  235MOL0     C31654   0.532   0.472   4.113  0.2975 -0.0374  0.3028
  235MOL0     C31655   0.875   0.693   3.591 -0.0241 -0.3256 -0.3972
  235MOL0     C31656   0.816   0.763   3.481  0.4492  0.4909 -0.2696
  235MOL0     C31657   0.807   0.907   3.491 -0.6718  1.1431  1.2639
  235MOL0     H31658   0.579   1.080   3.272 -0.1217  1.3616 -0.1622
  235MOL0     H31659   0.501   1.238   3.099 -2.7601 -1.2202 -1.3582
  235MOL0     H31660   0.706   1.357   2.729  2.8567 -1.2318  0.2366
  235MOL0     H31661   0.777   1.211   2.777  0.7784 -1.1942 -2.8409
  235MOL0     H31662   0.577   1.284   2.562  0.4231  0.6675 -1.2498
  235MOL0     H31663   0.556   1.123   2.629 -0.9126  1.7335 -0.7184
  235MOL0     H31664   0.782   1.062   2.549  1.4279 -0.0613  0.0209
  235MOL0     H31665   0.812   1.232   2.502  0.3810 -0.5999 -1.8671
  235MOL0     H31666   0.571   1.073   2.394  1.5514 -2.0911  1.5466
  235MOL0     H31667   0.621   1.235   2.357  0.3503  0.0169  0.8520
  235MOL0     H31668   0.847   1.030   2.304  3.0421  2.8132 -3.8230
  235MOL0     H31669   0.697   1.013   2.214 -1.4180  0.2887  1.5579
  235MOL0     H31670   0.852   1.275   2.223  2.5594 -0.4341 -1.9688
  235MOL0     H31671   0.910   1.148   2.132  2.0797  2.4921  1.3368
  235MOL0     H31672   0.768   1.308   2.002 -0.7969 -0.5287 -1.8983
  235MOL0     H31673   0.626   1.274   2.090  1.9736  3.2360  1.6165
  235MOL0     H31674   0.806   1.093   1.912 -0.9976  2.0967 -0.8792
  235MOL0     H31675   0.669   1.016   2.012  0.4400  1.2103  1.7891
  235MOL0     H31676   0.622   1.340   1.824 -1.0814 -0.5885  0.6941
  235MOL0     H31677   0.420   1.277   1.511  0.0642  1.8947 -0.5069
  235MOL0     H31678   0.316   1.293   1.659 -0.4824  0.5509 -0.8786
  235MOL0     H31679   0.484   1.484   1.727 -0.5144 -1.6297  0.4372
  235MOL0     H31680   0.507   1.498   1.550 -0.3685  2.0211  0.6229
  235MOL0     H31681   0.231   1.511   1.684 -0.2657 -0.5320 -1.2378
  235MOL0     H31682   0.272   1.525   1.507  0.6219 -1.3856 -0.2231
  235MOL0     H31683   0.250   1.734   1.593 -2.2918 -2.0809  2.5782
  235MOL0     H31684   0.429   1.730   1.594  0.5672  0.5954  1.4450
  235MOL0     H31685   0.411   1.788   2.005 -0.8027  1.6482  3.0611
  235MOL0     H31686   0.500   1.990   2.092 -0.4753 -1.5329 -0.3230
  235MOL0     H31687   0.657   2.234   2.325 -1.5709  1.3573 -0.0535
  235MOL0     H31688   0.729   2.446   2.463 -0.2763  0.1892  0.2815
  235MOL0     H31689   0.713   2.815   2.224  1.2976  1.2614 -0.4312
  235MOL0     H31690   0.745   2.875   2.377 -4.7301 -2.7587  1.7817
  235MOL0     H31691   0.974   2.771   2.189  0.6784 -0.4248  2.3284
  235MOL0     H31692   0.908   2.936   2.179 -4.1558 -1.5646 -1.6459
  235MOL0     H31693   1.044   2.994   2.348 -3.7769  0.4390 -0.7415
  235MOL0     H31694   0.984   2.854   2.439 -4.9095  0.5213 -1.7957
  235MOL0     H31695   1.172   2.724   2.331 -1.4074  0.3732 -1.2552
  235MOL0     H31696   1.234   2.849   2.422 -0.2473  1.0958  0.0379
  235MOL0     H31697   1.178   2.874   2.117 -2.1100  1.9428 -0.1089
  235MOL0     H31698   1.337   2.843   2.186 -0.5191 -0.2355  0.7066
  235MOL0     H31699   1.170   3.105   2.217  0.2750  1.2392 -0.4529
  235MOL0     H31700   1.333   3.061   2.292  1.7481 -2.5919 -0.3748
  235MOL0     H31701   1.323   3.006   2.005  0.7174 -2.8469  3.3178
  235MOL0     H31702   1.447   3.087   2.102 -1.2616 -1.6016  1.3680
  235MOL0     H31703   1.351   3.238   1.905 -2.6702  0.5230 -1.5837
  235MOL0     H31704   1.207   3.232   1.989  0.8496 -0.8539 -0.8488
  235MOL0     H31705   0.764   2.645   2.094 -2.7180  1.8069  1.1931
  235MOL0     H31706   0.699   2.456   1.978 -2.7148 -3.5209 -0.5241
  235MOL0     H31707   0.457   2.172   1.700 -1.0943  0.9288  0.8291
  235MOL0     H31708   0.362   1.964   1.621 -5.1897  0.4990  0.7218
  235MOL0     H31709   0.689   0.997   2.802  2.7853  2.3832  0.1013
  235MOL0     H31710   0.752   0.840   2.977  0.7279  1.6907 -1.4878
  235MOL0     H31711   0.800   0.485   3.282 -0.2328 -0.0275 -0.0466
  235MOL0     H31712   0.870   0.388   3.462  0.6152  0.0675 -0.8429
  235MOL0     H31713   0.983   0.624   3.857  2.4723 -0.1416 -1.5820
  235MOL0     H31714   1.003   0.456   3.894  2.2107  2.8332  0.7783
  235MOL0     H31715   0.739   0.591   3.825  0.5560  0.5058 -1.0888
  235MOL0     H31716   0.782   0.534   3.984  0.8114 -1.0902 -0.3108
  235MOL0     H31717   0.775   0.304   3.919  1.4464 -0.4225 -1.4493
  235MOL0     H31718   0.761   0.344   3.750  1.0066  0.5408 -0.1977
  235MOL0     H31719   0.526   0.421   3.790 -0.6253 -0.9861 -0.2678
  235MOL0     H31720   0.544   0.266   3.866 -0.8670 -0.2379 -2.0815
  235MOL0     H31721   0.507   0.538   4.193  2.1814  1.2222 -0.1058
  235MOL0     H31722   0.934   0.733   3.673 -1.7036  3.1559 -0.7135
  235MOL0     H31723   0.879   0.956   3.425  0.8153  1.5099  3.0891
  235MOL0     H31724   0.706   0.949   3.494 -1.8267 -1.2425 -0.5006
  235MOL0     H31725   0.838   0.929   3.593 -2.9967 -0.3123  2.3598
  236MOL0     O31726   0.838   5.896   6.898  0.3721  0.2232 -0.9867
  236MOL0     C31727   0.916   5.822   6.953 -0.1285  0.5109 -0.3879
  236MOL0     O31728   0.997   5.857   7.053 -0.0134 -0.8011  0.3840
  236MOL0     C31729   0.999   5.977   7.134 -0.4218 -0.3878 -0.3017
  236MOL0     C31730   1.098   5.969   7.231 -0.4813  0.1944  0.8394
  236MOL0     C31731   1.106   6.075   7.326 -0.1640  0.3335 -0.9089
  236MOL0     C31732   1.002   6.172   7.350  0.0198  0.5372  0.3627
  236MOL0     O31733   1.019   6.269   7.451 -0.0871  0.7379  0.7704
  236MOL0     C31734   0.931   6.370   7.465  0.7665 -0.3896  0.2040
  236MOL0     C31735   0.965   6.458   7.587  0.6294 -1.5940 -0.1946
  236MOL0     C31736   1.083   6.551   7.568  0.6098  0.5678  0.5138
  236MOL0     C31737   1.107   6.621   7.706 -0.8937 -0.0041 -0.2109
  236MOL0     C31738   1.238   6.702   7.718  0.0069 -0.7049 -0.0387
  236MOL0     C31739   1.224   6.859   7.695  0.0042  0.0244  1.1534
  236MOL0     C31740   1.158   6.880   7.557  0.3721  0.3662  0.1741
  236MOL0     C31741   1.160   7.030   7.511 -0.5937 -0.4250  0.6126
  236MOL0     N31742   1.071   7.129   7.571 -0.2225 -0.0801 -0.5344
  236MOL0     C31743   0.973   7.100   7.666  0.2525 -0.8252 -0.2881
  236MOL0     C31744   0.904   7.215   7.690  1.2363  0.8382  0.3999
  236MOL0     C31745   0.776   7.222   7.781  1.0136 -0.0565  0.0216
  236MOL0     C31746   0.666   7.308   7.707  0.3889 -0.1573 -0.0295
  236MOL0     C31747   0.525   7.306   7.768 -0.1902  0.2998 -0.5293
  236MOL0     C31748   0.518   7.290   7.925 -0.0786  0.7661  1.0225
  236MOL0     O31749   0.385   7.325   7.973 -0.6222  0.4275  0.2684
  236MOL0     C31750   0.284   7.226   7.975 -0.0410 -0.0361  0.3020
  236MOL0     C31751   0.306   7.088   8.016  0.5351 -0.2039  1.2531
  236MOL0     C31752   0.197   7.001   8.013  0.9532  0.5025  0.2832
  236MOL0     C31753   0.076   7.031   7.949  1.1843 -0.5216  0.3137
  236MOL0     C31754  -0.028   6.920   7.928 -0.0156 -0.5263  0.1640
  236MOL0     O31755  -0.138   6.960   7.847  0.1505  0.0777 -0.5845
  236MOL0     C31756  -0.227   6.867   7.798 -0.7959  0.4014  0.1849
  236MOL0     C31757  -0.361   6.907   7.786 -0.7223 -0.3208 -0.2723
  236MOL0     C31758  -0.456   6.823   7.732 -0.4593 -0.4036  0.2971
  236MOL0     C31759  -0.421   6.689   7.714 -0.4072 -0.8229 -0.1315
  236MOL0     O31760  -0.514   6.599   7.666 -0.7870  0.0824 -0.4313
  236MOL0     C31761  -0.500   6.582   7.525 -0.6292 -0.5937  0.3153
  236MOL0     C31762  -0.630   6.605   7.452 -0.1404  0.3033 -0.6204
  236MOL0     C31763  -0.675   6.750   7.450 -0.1736 -0.5940  0.3460
  236MOL0     C31764  -0.813   6.763   7.397 -0.1658 -0.8197 -0.4322
  236MOL0     C31765  -0.847   6.915   7.407 -0.4299 -0.1448  0.5867
  236MOL0     C31766  -0.990   6.940   7.353  0.2101 -0.2769  0.8154
  236MOL0     C31767  -1.099   6.862   7.425 -0.2841 -0.0573 -0.6886
  236MOL0     C31768  -1.233   6.923   7.420 -0.3177 -0.0524 -0.1009
  236MOL0    Cl31769  -1.369   6.818   7.466  0.3444  0.2682  0.1348
  236MOL0     C31770  -0.284   6.645   7.731  0.7074 -0.3196 -0.7955
  236MOL0     C31771  -0.185   6.738   7.760 -0.8367 -1.0299 -0.0827
  236MOL0     O31772  -0.012   6.808   7.980  0.0960  0.3090 -0.1850
  236MOL0     C31773   0.054   7.166   7.898  0.4213  0.4250  0.1937
  236MOL0     C31774   0.155   7.265   7.921  0.0480  0.7999 -0.1672
  236MOL0     N31775   0.957   7.310   7.619 -0.0215 -0.9512 -0.4750
  236MOL0     N31776   1.055   7.264   7.544  0.1791  0.4667 -0.1833
  236MOL0     C31777   0.894   6.164   7.255 -0.7521 -0.7803  0.1211
  236MOL0     C31778   0.896   6.069   7.156  0.6391  0.7056  0.3316
  236MOL0     C31779   0.930   5.686   6.897  0.6355 -0.6608 -0.2187
  236MOL0     C31780   0.833   5.650   6.794 -0.1163 -0.7968  0.7724
  236MOL0     C31781   0.834   5.525   6.742 -0.0996 -0.0134 -0.2327
  236MOL0     C31782   0.927   5.423   6.777 -0.0514 -0.2584  0.4305
  236MOL0     O31783   0.928   5.304   6.723  0.6531 -0.0738  0.4456
  236MOL0     C31784   1.047   5.267   6.643 -0.7859 -1.3427  0.1032
  236MOL0     C31785   1.046   5.124   6.602 -0.2665  0.0286 -0.4056
  236MOL0     C31786   0.931   5.095   6.504  0.3537 -0.2512  0.1509
  236MOL0     C31787   0.901   5.185   6.379 -0.6766 -0.1305 -0.7133
  236MOL0     C31788   1.028   5.212   6.305  0.0151 -0.3770  0.3640
  236MOL0     C31789   1.142   5.209   6.256  0.1623 -0.5278 -0.2889
  236MOL0     C31790   1.024   5.465   6.871  0.4224  0.1293  0.6510
  236MOL0     C31791   1.030   5.591   6.929 -1.1111  0.6123 -0.2181
  236MOL0     C31792   1.139   5.614   7.037  1.5220 -0.0347  0.6831
  236MOL0     H31793   1.151   5.875   7.232  0.3229  0.6433  1.1737
  236MOL0     H31794   1.189   6.083   7.396  1.7322  0.0888 -3.0268
  236MOL0     H31795   0.931   6.435   7.377 -2.3067  0.7378  0.8854
  236MOL0     H31796   0.831   6.331   7.486  0.6211 -1.0283 -1.5502
  236MOL0     H31797   0.992   6.404   7.678 -1.5177 -1.2211  0.6973
  236MOL0     H31798   0.884   6.529   7.603 -0.3167 -1.6025 -3.9296
  236MOL0     H31799   1.059   6.628   7.494 -0.5072  1.1949  1.4812
  236MOL0     H31800   1.166   6.492   7.529 -0.4738 -0.6945  0.0728
  236MOL0     H31801   1.025   6.691   7.725  0.1758  1.5333 -1.0395
  236MOL0     H31802   1.126   6.544   7.781  3.5135  1.5092  0.4948
  236MOL0     H31803   1.288   6.705   7.815  1.4657  1.2793 -0.7928
  236MOL0     H31804   1.313   6.655   7.655  0.9186 -0.6998  1.0015
  236MOL0     H31805   1.166   6.907   7.774 -1.8619  0.8987 -0.6416
  236MOL0     H31806   1.321   6.908   7.686  0.3018 -0.6315  0.6157
  236MOL0     H31807   1.055   6.844   7.552 -0.3996  2.5264 -0.3624
  236MOL0     H31808   1.217   6.818   7.489  0.1733  0.9009 -0.4909
  236MOL0     H31809   1.254   7.063   7.555 -1.8120  0.0383  3.0363
  236MOL0     H31810   1.148   7.042   7.403 -1.1593  1.6297  0.8668
  236MOL0     H31811   0.955   7.001   7.707  5.4953 -1.8972  0.0352
  236MOL0     H31812   0.733   7.128   7.816 -0.2756  0.5046  0.0012
  236MOL0     H31813   0.819   7.276   7.866  1.7372  0.7285 -0.8188
  236MOL0     H31814   0.705   7.410   7.702 -1.3244  0.5385  0.0874
  236MOL0     H31815   0.659   7.269   7.605  0.8977 -1.9487  0.5794
  236MOL0     H31816   0.460   7.234   7.716  1.6629 -2.0008  0.1806
  236MOL0     H31817   0.483   7.406   7.755  1.7816  1.2511  0.1546
  236MOL0     H31818   0.603   7.339   7.974  1.1240 -0.6424  0.4179
  236MOL0     H31819   0.538   7.184   7.942 -0.4257  0.8534  2.0410
  236MOL0     H31820   0.400   7.061   8.063 -0.3292 -0.6068  2.8406
  236MOL0     H31821   0.218   6.904   8.056  1.3522  0.8276  0.8306
  236MOL0     H31822  -0.378   7.012   7.807  0.2885 -0.3322  0.7164
  236MOL0     H31823  -0.559   6.854   7.713 -0.2198  0.1305 -0.1455
  236MOL0     H31824  -0.416   6.637   7.482  0.6235 -1.9167  1.0163
  236MOL0     H31825  -0.466   6.479   7.518  1.4185 -0.2382  3.2987
  236MOL0     H31826  -0.613   6.585   7.346  0.7550 -1.1416 -0.2201
  236MOL0     H31827  -0.710   6.539   7.486  2.8632 -2.1351  2.4514
  236MOL0     H31828  -0.682   6.784   7.553 -1.5009 -0.1767  0.1370
  236MOL0     H31829  -0.605   6.817   7.398 -1.1955  0.9375  0.8833
  236MOL0     H31830  -0.875   6.705   7.467  0.4205  0.7641  1.4926
  236MOL0     H31831  -0.833   6.728   7.296 -0.6094 -1.6120 -0.0851
  236MOL0     H31832  -0.779   6.971   7.342 -0.0369  0.0051  1.1270
  236MOL0     H31833  -0.833   6.951   7.509 -1.5586 -0.0992  0.7377
  236MOL0     H31834  -1.001   7.049   7.363  0.8969 -0.1607  0.3743
  236MOL0     H31835  -0.989   6.909   7.248  0.5516 -1.7751  1.2492
  236MOL0     H31836  -1.067   6.852   7.529  2.5757  1.2672 -1.3292
  236MOL0     H31837  -1.111   6.762   7.384 -2.0871 -0.0604 -0.2179
  236MOL0     H31838  -1.230   7.013   7.483  2.4579 -0.8999  1.1271
  236MOL0     H31839  -1.249   6.954   7.316 -1.3013 -1.9157 -0.5432
  236MOL0     H31840  -0.256   6.542   7.709 -1.0316 -0.9191 -0.3329
  236MOL0     H31841  -0.086   6.695   7.772 -1.3679 -2.2081  0.2739
  236MOL0     H31842  -0.046   7.186   7.861  0.5052 -3.3664 -2.6356
  236MOL0     H31843   0.145   7.369   7.893 -0.8152  0.3976 -1.4526
  236MOL0     H31844   0.828   6.250   7.244  0.4513 -0.0378 -1.8703
  236MOL0     H31845   0.821   6.078   7.079  0.4170 -1.3079  0.2601
  236MOL0     H31846   0.749   5.714   6.772 -1.6818 -2.0118  2.8227
  236MOL0     H31847   0.754   5.505   6.672  2.2388  0.1254 -3.1240
  236MOL0     H31848   1.137   5.275   6.704  0.9904 -0.3958 -2.4816
  236MOL0     H31849   1.065   5.336   6.560  0.2819 -2.8306 -0.9612
  236MOL0     H31850   1.039   5.059   6.689 -1.5005 -0.1303 -0.6079
  236MOL0     H31851   1.139   5.095   6.551  0.2632  0.8599  0.0659
  236MOL0     H31852   0.835   5.098   6.558  0.9270  0.7532  1.1607
  236MOL0     H31853   0.955   4.992   6.477  0.8972 -0.3343  0.9117
  236MOL0     H31854   0.818   5.142   6.324 -1.7793 -1.4417  1.8223
  236MOL0     H31855   0.864   5.281   6.418  1.3268  0.6068 -0.4667
  236MOL0     H31856   1.245   5.215   6.227 -0.6730 -0.7442 -3.8478
  236MOL0     H31857   1.101   5.391   6.890  1.6555  0.7618 -1.5219
  236MOL0     H31858   1.169   5.512   7.062 -0.4317 -0.9219 -0.3528
  236MOL0     H31859   1.226   5.666   6.995  0.1222  0.7922 -1.3718
  236MOL0     H31860   1.104   5.672   7.122 -0.5024  1.5803 -1.1313
  237MOL0     O31861   1.895   2.669   2.444 -0.3554 -0.5703  0.0679
  237MOL0     C31862   1.813   2.657   2.538  0.1143 -0.2860  0.4278
  237MOL0     O31863   1.835   2.699   2.665  0.1807 -0.0789  0.0266
  237MOL0     C31864   1.960   2.722   2.712 -0.6212  0.4137 -0.2269
  237MOL0     C31865   1.966   2.677   2.843 -0.4694 -0.3802  0.0128
  237MOL0     C31866   2.076   2.712   2.923  0.5312  0.6473 -0.8100
  237MOL0     C31867   2.185   2.789   2.878  0.2934  0.6245 -0.5973
  237MOL0     O31868   2.296   2.808   2.955 -0.4398 -0.4502  0.4264
  237MOL0     C31869   2.394   2.892   2.896 -0.2454  0.1489 -0.6940
  237MOL0     C31870   2.480   2.920   3.014 -0.4512  0.2359  0.2119
  237MOL0     C31871   2.625   2.956   2.975 -1.5530 -0.8322 -0.0899
  237MOL0     C31872   2.711   2.836   2.934  0.1470 -0.1506  0.7332
  237MOL0     C31873   2.864   2.854   2.937 -0.3776 -0.0279  0.4663
  237MOL0     C31874   2.912   2.911   2.799 -0.1439  0.6165 -0.9374
  237MOL0     C31875   2.847   2.864   2.670 -0.5498  0.1003  0.3445
  237MOL0     C31876   2.936   2.906   2.542  0.0257  0.4732 -0.1939
  237MOL0     N31877   2.970   3.054   2.534  0.0323  0.4844  0.3101
  237MOL0     C31878   3.089   3.110   2.580 -0.3846  0.1871  0.3562
  237MOL0     C31879   3.092   3.230   2.540 -1.0011 -1.0451  0.1019
  237MOL0     C31880   3.216   3.323   2.554  0.2142 -0.1389  0.4337
  237MOL0     C31881   3.198   3.408   2.675  0.4900 -0.2793  0.0875
  237MOL0     C31882   3.322   3.504   2.696 -0.2365 -0.1195  0.4168
  237MOL0     C31883   3.322   3.629   2.625 -0.3171 -0.4524 -0.7196
  237MOL0     O31884   3.419   3.723   2.665  0.1196  1.2100 -0.2524
  237MOL0     C31885   3.410   3.788   2.787 -0.0283 -0.5862  0.4275
  237MOL0     C31886   3.527   3.839   2.837  0.5476  0.3706  0.0943
  237MOL0     C31887   3.525   3.892   2.964  0.2682 -0.1887 -0.2491
  237MOL0     C31888   3.405   3.909   3.040  0.0710 -0.7546 -0.4826
  237MOL0     C31889   3.419   3.959   3.185  0.3775  1.2223 -0.6133
  237MOL0     O31890   3.537   4.010   3.221 -0.6653  0.2751 -0.2278
  237MOL0     C31891   3.565   4.077   3.338 -0.2479  0.5102 -0.0026
  237MOL0     C31892   3.668   4.028   3.420  0.0589  0.3046  0.2749
  237MOL0     C31893   3.695   4.096   3.541 -0.3382  0.3004 -0.5674
  237MOL0     C31894   3.611   4.194   3.593  0.7385 -0.2850  0.5343
  237MOL0     O31895   3.656   4.250   3.711  0.0302  0.2831  0.2236
  237MOL0     C31896   3.559   4.311   3.797 -1.4288 -0.7139  0.2643
  237MOL0     C31897   3.488   4.194   3.862 -0.1214 -0.7246 -0.1871
  237MOL0     C31898   3.573   4.120   3.965 -0.4834 -0.3384 -0.5579
  237MOL0     C31899   3.588   3.963   3.925  0.7813  0.7974  0.2015
  237MOL0     C31900   3.679   3.879   4.019 -0.3816  0.2901  0.5343
  237MOL0     C31901   3.599   3.832   4.137 -0.4301  0.7866  0.2568
  237MOL0     C31902   3.686   3.750   4.235  0.2922 -0.5232 -0.3712
  237MOL0     C31903   3.660   3.755   4.385  0.7041 -0.5966  1.2440
  237MOL0    Cl31904   3.761   3.633   4.453 -0.4864  0.0757 -0.2474
  237MOL0     C31905   3.505   4.238   3.519  0.5404 -0.1225 -0.9848
  237MOL0     C31906   3.481   4.182   3.396  0.0343 -0.6403 -0.1313
  237MOL0     O31907   3.314   3.955   3.250 -0.3445 -0.0495 -0.3260
  237MOL0     C31908   3.293   3.855   2.992  0.1308  0.7688  0.1861
  237MOL0     C31909   3.289   3.794   2.866  1.0039 -0.7314  0.4288
  237MOL0     N31910   2.968   3.258   2.478 -0.6188  0.9167 -0.7113
  237MOL0     N31911   2.899   3.152   2.471 -0.0341 -0.3923 -0.5456
  237MOL0     C31912   2.186   2.811   2.735  0.4523  0.0987  0.0837
  237MOL0     C31913   2.069   2.784   2.655 -0.5074  0.8718 -0.7722
  237MOL0     C31914   1.685   2.588   2.495 -0.1810 -0.0477 -0.5197
  237MOL0     C31915   1.624   2.524   2.604  0.2424 -1.2909  0.4300
  237MOL0     C31916   1.506   2.453   2.578 -0.2229 -0.4453 -0.6818
  237MOL0     C31917   1.452   2.441   2.452  0.6245  0.0100  0.5076
  237MOL0     O31918   1.351   2.353   2.446  0.8630  0.5762  0.5344
  237MOL0     C31919   1.219   2.418   2.457  0.2655 -0.0084 -0.1202
  237MOL0     C31920   1.098   2.334   2.470  0.3592 -0.1782 -0.1392
  237MOL0     C31921   1.072   2.285   2.613  0.0419 -0.7837  0.1742
  237MOL0     C31922   0.986   2.162   2.643 -0.0859  0.6481  1.0794
  237MOL0     C31923   0.940   2.156   2.780 -0.3745  1.0255  0.6736
  237MOL0     C31924   0.929   2.148   2.901  0.9211  0.2999  0.6251
  237MOL0     C31925   1.512   2.509   2.354 -0.6236  1.1733  0.0541
  237MOL0     C31926   1.624   2.591   2.370 -0.0658 -0.0941 -0.4573
  237MOL0     C31927   1.676   2.666   2.252 -0.0829 -0.1580  0.5950
  237MOL0     H31928   1.878   2.619   2.870 -0.7101 -0.8011 -1.5779
  237MOL0     H31929   2.078   2.684   3.028 -0.9439 -0.6295 -1.0836
  237MOL0     H31930   2.448   2.839   2.818 -1.4682 -2.2399 -0.0224
  237MOL0     H31931   2.341   2.981   2.863 -4.3077 -2.2869 -1.3886
  237MOL0     H31932   2.493   2.835   3.082 -1.1875 -0.5784 -0.6385
  237MOL0     H31933   2.435   3.007   3.061 -1.4561 -1.3553  2.3475
  237MOL0     H31934   2.664   3.010   3.062 -0.9291  3.1831 -2.6053
  237MOL0     H31935   2.623   3.027   2.892  2.4611  3.1697  2.7685
  237MOL0     H31936   2.700   2.772   3.022 -1.4727  3.1435  3.1150
  237MOL0     H31937   2.671   2.783   2.846  0.4301 -0.3850  0.7413
  237MOL0     H31938   2.892   2.932   3.009  2.4757 -0.4237 -0.0767
  237MOL0     H31939   2.928   2.766   2.941  0.8772  0.4672 -3.6018
  237MOL0     H31940   2.912   3.020   2.791 -2.5344  0.8676  1.2440
  237MOL0     H31941   3.008   2.863   2.776 -1.1327 -1.0829 -1.7702
  237MOL0     H31942   2.748   2.911   2.669 -1.4232 -1.5424  2.2564
  237MOL0     H31943   2.847   2.755   2.677  0.7097 -0.0561 -1.5478
  237MOL0     H31944   3.032   2.856   2.558 -0.0012  1.3517  3.8454
  237MOL0     H31945   2.884   2.880   2.449  1.5276 -1.1554 -0.6344
  237MOL0     H31946   3.168   3.059   2.634 -1.0701 -0.7034  0.5481
  237MOL0     H31947   3.299   3.254   2.572 -0.8168 -0.9930  2.1732
  237MOL0     H31948   3.229   3.386   2.466 -0.9667  2.4855  2.0340
  237MOL0     H31949   3.101   3.454   2.653 -0.3530 -1.2156  1.6825
  237MOL0     H31950   3.178   3.353   2.767  2.0995 -2.6992 -0.9143
  237MOL0     H31951   3.419   3.456   2.681  0.2931  0.9866  0.1788
  237MOL0     H31952   3.312   3.543   2.798  2.3822  0.4747  0.5362
  237MOL0     H31953   3.225   3.680   2.624  0.1238  0.6197  1.9073
  237MOL0     H31954   3.352   3.613   2.521  1.6530  2.8599 -0.8208
  237MOL0     H31955   3.618   3.826   2.780  0.3922  0.3520 -0.1542
  237MOL0     H31956   3.617   3.942   2.995 -0.8518  0.6594  1.8672
  237MOL0     H31957   3.732   3.951   3.378  2.9678  1.1997  2.6962
  237MOL0     H31958   3.782   4.072   3.602  0.4961  3.3611 -0.4149
  237MOL0     H31959   3.608   4.371   3.874 -2.6603  3.2455 -1.7796
  237MOL0     H31960   3.485   4.371   3.744 -1.3572 -2.3108 -1.7741
  237MOL0     H31961   3.408   4.243   3.919  1.9319  2.8075 -0.1007
  237MOL0     H31962   3.428   4.131   3.795 -2.0165 -1.0591  1.6942
  237MOL0     H31963   3.673   4.165   3.970  0.2777 -1.6871 -2.4537
  237MOL0     H31964   3.529   4.119   4.065  2.9802  0.0141  1.1169
  237MOL0     H31965   3.618   3.963   3.820 -1.6276 -3.3460 -0.7367
  237MOL0     H31966   3.485   3.927   3.918 -0.9912  5.3087 -0.6790
  237MOL0     H31967   3.759   3.936   4.067 -1.3174  0.0413  2.5280
  237MOL0     H31968   3.717   3.791   3.965 -1.1671 -0.7486  1.6019
  237MOL0     H31969   3.565   3.922   4.191 -1.4348  1.0503 -0.7784
  237MOL0     H31970   3.513   3.773   4.104  1.9441 -1.9645 -1.5255
  237MOL0     H31971   3.791   3.780   4.232 -0.5684  2.9353 -2.1440
  237MOL0     H31972   3.680   3.647   4.198  0.8268 -0.2355 -1.2904
  237MOL0     H31973   3.679   3.855   4.426 -0.9845  0.5631 -0.6509
  237MOL0     H31974   3.554   3.727   4.394  1.4077 -4.2623 -0.0997
  237MOL0     H31975   3.430   4.311   3.548 -0.5204 -1.5010 -0.1443
  237MOL0     H31976   3.401   4.228   3.340 -0.0267 -1.4073 -0.6830
  237MOL0     H31977   3.205   3.858   3.055 -0.2382  1.8547 -0.3448
  237MOL0     H31978   3.191   3.757   2.840  0.7854  1.6933 -2.7985
  237MOL0     H31979   2.274   2.860   2.695  0.5611 -1.6132 -1.9153
  237MOL0     H31980   2.077   2.816   2.551 -1.8173  0.5641 -0.9827
  237MOL0     H31981   1.651   2.525   2.709  0.8595  4.5438  0.5389
  237MOL0     H31982   1.469   2.390   2.659  1.1638 -0.6351 -0.1768
  237MOL0     H31983   1.203   2.456   2.355  0.6648  1.1087  0.2152
  237MOL0     H31984   1.220   2.500   2.529 -0.5541 -1.3225  1.4499
  237MOL0     H31985   1.127   2.245   2.414  1.8599 -0.5445  1.1800
  237MOL0     H31986   1.014   2.381   2.417  0.2775  1.1131  1.0712
  237MOL0     H31987   1.020   2.369   2.661  0.3893  1.3934 -2.9856
  237MOL0     H31988   1.170   2.276   2.660 -0.5653  2.1539  2.3169
  237MOL0     H31989   0.902   2.159   2.572  0.0545 -1.5220  0.9388
  237MOL0     H31990   1.047   2.077   2.612  3.1076  2.8644  0.7897
  237MOL0     H31991   0.902   2.117   3.000 -1.6749  3.9783  1.2616
  237MOL0     H31992   1.458   2.503   2.260 -1.9106 -0.2809  0.8455
  237MOL0     H31993   1.668   2.774   2.270 -0.8020  0.2417 -1.7411
  237MOL0     H31994   1.776   2.640   2.216 -0.1924 -1.3710  1.1356
  237MOL0     H31995   1.613   2.646   2.165 -2.1925  2.1865  1.4374
  238MOL0     O31996   4.691   6.802   9.836 -0.1472 -0.5506 -0.6081
  238MOL0     C31997   4.591   6.868   9.834  0.0869  0.0387 -0.1809
  238MOL0     O31998   4.589   6.999   9.799 -0.3262  0.3799  0.1934
  238MOL0     C31999   4.680   7.089   9.849 -0.1197 -0.5851  0.4067
  238MOL0     C32000   4.804   7.057   9.908 -0.6938  0.2156 -1.1105
  238MOL0     C32001   4.899   7.161   9.935 -0.5919  0.9272  0.1530
  238MOL0     C32002   4.870   7.297   9.910 -0.4246  0.5103  0.7005
  238MOL0     O32003   4.949   7.393   9.958  0.3390 -0.1313  0.8759
  238MOL0     C32004   5.085   7.362   9.987 -0.8617 -0.1523 -0.1664
  238MOL0     C32005   5.140   7.491  10.060 -0.0115  0.6800  0.3434
  238MOL0     C32006   5.264   7.469  10.143 -0.6199  0.1520  0.3049
  238MOL0     C32007   5.379   7.571  10.110 -0.2832  1.1174 -0.3721
  238MOL0     C32008   5.512   7.560  10.191  0.0827  0.2405 -0.0528
  238MOL0     C32009   5.510   7.648  10.317 -0.0782 -0.4930 -0.1893
  238MOL0     C32010   5.630   7.615  10.406 -0.4357  0.0667 -0.1273
  238MOL0     C32011   5.751   7.651  10.331 -0.8653 -0.1176  0.3044
  238MOL0     N32012   5.875   7.617  10.402 -0.1560 -1.0675  0.3215
  238MOL0     C32013   5.930   7.493  10.402 -0.0080  0.1155 -0.4591
  238MOL0     C32014   6.035   7.508  10.491 -0.7735  1.0730 -0.3714
  238MOL0     C32015   6.141   7.398  10.518 -0.4079  0.1568  0.6868
  238MOL0     C32016   6.272   7.450  10.448 -0.9401 -0.0171  0.2071
  238MOL0     C32017   6.393   7.392  10.529 -0.3653 -0.2372 -1.3041
  238MOL0     C32018   6.525   7.415  10.457  0.6567  0.2618 -0.1014
  238MOL0     O32019   6.632   7.368  10.534 -0.0662  0.2038 -0.2457
  238MOL0     C32020   6.734   7.462  10.552 -0.3660  0.1122  0.1284
  238MOL0     C32021   6.831   7.476  10.455 -0.7639 -0.8578  0.1753
  238MOL0     C32022   6.934   7.561  10.469  0.1604 -0.8188 -0.5019
  238MOL0     C32023   6.947   7.649  10.584  0.1317  0.1923  0.1217
  238MOL0     C32024   7.077   7.729  10.612  0.6006  0.1524 -0.3575
  238MOL0     O32025   7.103   7.758  10.745 -0.7125 -0.3716  0.3490
  238MOL0     C32026   7.223   7.811  10.772  0.3429  0.5566  0.7698
  238MOL0     C32027   7.236   7.949  10.763 -1.1916  0.1814  0.4324
  238MOL0     C32028   7.362   8.011  10.789 -0.6771  0.0210  0.1656
  238MOL0     C32029   7.472   7.938  10.821 -0.8570  0.1335  0.8318
  238MOL0     O32030   7.590   7.986  10.846  0.2297 -0.2891  0.0015
  238MOL0     C32031   7.696   7.937  10.762  0.3400  0.5665 -0.2909
  238MOL0     C32032   7.797   8.049  10.743 -0.1228  0.5310 -0.2517
  238MOL0     C32033   7.736   8.169  10.660 -0.3992  0.0380  0.6051
  238MOL0     C32034   7.646   8.252  10.748  0.2045  1.5618  0.6844
  238MOL0     C32035   7.681   8.401  10.735 -0.3847  0.2274 -0.5612
  238MOL0     C32036   7.590   8.500  10.813 -0.0017  0.7354 -0.7350
  238MOL0     C32037   7.556   8.617  10.725 -0.1933 -1.1388  0.8539
  238MOL0     C32038   7.470   8.726  10.789 -0.0217  0.1521 -0.4393
  238MOL0    Cl32039   7.344   8.669  10.906  0.2554  0.1470  0.3220
  238MOL0     C32040   7.459   7.804  10.846  0.6999 -0.0514 -0.5044
  238MOL0     C32041   7.342   7.741  10.806 -0.4672 -0.4438 -0.2866
  238MOL0     O32042   7.123   7.779  10.507 -0.0287 -0.0922 -0.3861
  238MOL0     C32043   6.848   7.630  10.683  0.1494 -2.1629 -1.0627
  238MOL0     C32044   6.741   7.540  10.659  0.4252 -0.3267 -0.3935
  238MOL0     N32045   6.030   7.634  10.546 -0.6871  0.5261 -0.7859
  238MOL0     N32046   5.936   7.695  10.494  0.1774 -0.2413  0.4376
  238MOL0     C32047   4.738   7.333   9.869  0.5442 -0.4514 -0.0749
  238MOL0     C32048   4.644   7.227   9.840 -0.4988  0.5456  0.2672
  238MOL0     C32049   4.470   6.799   9.868  0.3529 -1.1524 -0.9445
  238MOL0     C32050   4.350   6.856   9.816 -0.2309  0.2320 -0.7816
  238MOL0     C32051   4.230   6.796   9.836 -1.0318 -0.4486  0.2224
  238MOL0     C32052   4.230   6.670   9.903  0.3088 -0.1264 -1.1403
  238MOL0     O32053   4.114   6.602   9.914  0.4170 -0.3613  0.4601
  238MOL0     C32054   4.108   6.464   9.955 -0.6086 -0.0356 -0.4031
  238MOL0     C32055   3.978   6.395   9.904 -0.6069 -0.0511 -0.0229
  238MOL0     C32056   3.865   6.447   9.995 -0.3409  0.0946  0.1569
  238MOL0     C32057   3.719   6.404   9.953 -1.5747  0.7181  0.2009
  238MOL0     C32058   3.689   6.477   9.836  0.4001 -0.3164  1.5870
  238MOL0     C32059   3.651   6.543   9.741 -0.2624  0.3001  0.8049
  238MOL0     C32060   4.339   6.621   9.976 -0.4414 -0.0773 -0.4569
  238MOL0     C32061   4.467   6.686   9.951  1.2141  1.0306 -0.7065
  238MOL0     C32062   4.582   6.614  10.011  0.3001 -0.8003 -0.3025
  238MOL0     H32063   4.845   6.960   9.934  0.3801  0.2400 -2.6249
  238MOL0     H32064   4.995   7.128   9.974 -0.8484 -2.3635 -1.6445
  238MOL0     H32065   5.084   7.294  10.072 -1.6402  2.2659  1.8590
  238MOL0     H32066   5.157   7.330   9.911  4.4611  3.8407  2.5300
  238MOL0     H32067   5.066   7.534  10.127  0.4435 -1.0402  2.0272
  238MOL0     H32068   5.153   7.566   9.980 -3.0436 -1.0172 -1.9663
  238MOL0     H32069   5.291   7.363  10.139  0.3543  0.3222  1.5966
  238MOL0     H32070   5.233   7.491  10.245  1.5805  1.3867  0.7820
  238MOL0     H32071   5.399   7.552  10.004 -3.5109 -1.5613 -0.6387
  238MOL0     H32072   5.322   7.664  10.122 -0.9459  0.8594 -1.4075
  238MOL0     H32073   5.523   7.457  10.228  0.5370  0.1040 -0.5525
  238MOL0     H32074   5.590   7.579  10.117  0.7659 -2.9374 -0.2898
  238MOL0     H32075   5.516   7.757  10.310 -0.6555 -0.4232  0.3321
  238MOL0     H32076   5.419   7.621  10.372  0.7998 -0.1092  1.5234
  238MOL0     H32077   5.647   7.514  10.444  1.4215  0.9981  1.7304
  238MOL0     H32078   5.627   7.676  10.497 -1.3891 -5.5590  4.1590
  238MOL0     H32079   5.764   7.601  10.234  1.6688 -3.1549  2.0135
  238MOL0     H32080   5.753   7.760  10.325 -2.3607 -0.0690  0.2164
  238MOL0     H32081   5.904   7.402  10.348  3.0099 -1.1011 -0.0892
  238MOL0     H32082   6.140   7.389  10.627 -4.4990  2.0623  1.0022
  238MOL0     H32083   6.108   7.306  10.470  1.1746  0.0238 -0.1947
  238MOL0     H32084   6.296   7.417  10.347 -2.3110  2.3367 -0.9652
  238MOL0     H32085   6.285   7.559  10.445  1.2569 -0.1086  2.8230
  238MOL0     H32086   6.382   7.284  10.545  0.7969 -0.3303 -1.0809
  238MOL0     H32087   6.386   7.435  10.629 -0.6136  1.2348 -1.9284
  238MOL0     H32088   6.525   7.520  10.428  0.2325  0.5446  0.8482
  238MOL0     H32089   6.522   7.357  10.365 -2.6945 -2.7590  1.6442
  238MOL0     H32090   6.844   7.407  10.373  1.6147  0.3158 -0.5151
  238MOL0     H32091   7.019   7.564  10.402  0.7057 -0.2885  0.1982
  238MOL0     H32092   7.159   8.021  10.735 -1.1984 -1.1243 -3.3539
  238MOL0     H32093   7.365   8.119  10.779  0.9102  0.0717  0.7841
  238MOL0     H32094   7.751   7.850  10.798 -0.6951  0.1192  0.2387
  238MOL0     H32095   7.664   7.916  10.659  1.5535  1.2087 -0.8291
  238MOL0     H32096   7.830   8.076  10.843 -0.7794  1.7487 -0.3485
  238MOL0     H32097   7.879   8.000  10.689 -2.2691 -1.2235 -2.1547
  238MOL0     H32098   7.822   8.230  10.631 -1.1108  0.6327 -0.3219
  238MOL0     H32099   7.686   8.138  10.567  1.0635  1.7924 -0.8652
  238MOL0     H32100   7.641   8.231  10.855  1.9143  0.9608  0.6686
  238MOL0     H32101   7.551   8.239  10.696  0.9440 -0.6199 -0.2201
  238MOL0     H32102   7.676   8.418  10.627  2.2828 -1.9031 -1.1292
  238MOL0     H32103   7.783   8.421  10.768 -0.2512 -0.3644 -0.5939
  238MOL0     H32104   7.490   8.457  10.825  1.0285 -1.3253  1.3125
  238MOL0     H32105   7.644   8.513  10.907  0.8602 -0.3502 -1.0560
  238MOL0     H32106   7.498   8.583  10.638 -1.8525  1.1608  0.9691
  238MOL0     H32107   7.656   8.648  10.692  0.3835 -4.7363 -1.3419
  238MOL0     H32108   7.537   8.788  10.850 -0.3844 -0.0579  0.1795
  238MOL0     H32109   7.419   8.794  10.721  0.7868 -0.4518 -1.6874
  238MOL0     H32110   7.543   7.743  10.878  1.0646  0.6247 -0.1542
  238MOL0     H32111   7.347   7.633  10.816 -0.3560 -0.3832  0.3357
  238MOL0     H32112   6.850   7.689  10.774 -2.3075  1.7058 -3.2518
  238MOL0     H32113   6.672   7.534  10.742 -0.8713  0.1490 -1.4082
  238MOL0     H32114   4.717   7.438   9.854 -1.8647 -0.6754  1.2915
  238MOL0     H32115   4.545   7.243   9.799 -0.7898 -4.6806 -1.8888
  238MOL0     H32116   4.347   6.951   9.765 -2.0123  0.5375 -0.1512
  238MOL0     H32117   4.143   6.848   9.797 -1.5106 -2.3119 -1.3640
  238MOL0     H32118   4.127   6.453  10.062  1.9903 -1.8876 -0.9419
  238MOL0     H32119   4.189   6.410   9.905 -0.5156  0.5490 -0.8888
  238MOL0     H32120   3.990   6.287   9.910  1.3180  0.1760  1.1288
  238MOL0     H32121   3.956   6.414   9.798  3.6762 -0.0042 -1.1039
  238MOL0     H32122   3.865   6.556   9.995  3.3602  0.2155  0.0637
  238MOL0     H32123   3.889   6.413  10.096  2.3842 -2.0259 -1.0640
  238MOL0     H32124   3.712   6.298   9.928  2.0428 -0.0220  1.6935
  238MOL0     H32125   3.655   6.410  10.041 -1.2774 -1.3612  0.5956
  238MOL0     H32126   3.633   6.591   9.647 -1.2621 -1.9888 -0.2299
  238MOL0     H32127   4.328   6.535  10.042  1.2047  0.1313  0.1236
  238MOL0     H32128   4.646   6.674  10.076 -0.2149 -0.7720  0.1878
  238MOL0     H32129   4.549   6.532  10.076  0.1381 -1.3515 -1.0586
  238MOL0     H32130   4.632   6.570   9.925  0.1158 -0.4143 -0.6118
  239MOL0     O32131   4.110   5.324   6.512  0.0598 -0.7698  0.0054
  239MOL0     C32132   4.048   5.395   6.428  0.4563  0.7378  0.2997
  239MOL0     O32133   4.014   5.530   6.441  0.8181 -0.3953 -0.9974
  239MOL0     C32134   4.084   5.599   6.534  0.0993 -0.6741  0.3717
  239MOL0     C32135   4.013   5.697   6.612  0.4001 -0.5693  1.3713
  239MOL0     C32136   4.070   5.773   6.709 -0.2574  1.1485 -0.1678
  239MOL0     C32137   4.200   5.762   6.732 -0.3317  0.5342  0.1265
  239MOL0     O32138   4.255   5.855   6.825 -0.3596 -0.5630  0.1722
  239MOL0     C32139   4.378   5.842   6.892  1.1953  0.8175  0.3341
  239MOL0     C32140   4.469   5.946   6.826  0.1460 -0.2448  0.4540
  239MOL0     C32141   4.613   5.928   6.873 -0.1535 -0.3423 -0.4774
  239MOL0     C32142   4.707   6.037   6.837 -1.6914 -1.1745 -0.1179
  239MOL0     C32143   4.849   6.017   6.899 -0.6547  0.2217  0.1499
  239MOL0     C32144   4.918   5.878   6.873  0.0284 -0.5082 -0.5487
  239MOL0     C32145   4.955   5.861   6.733 -0.5374  0.2729  0.4353
  239MOL0     C32146   5.057   5.941   6.671 -0.6590  0.0215  0.1587
  239MOL0     N32147   5.092   5.897   6.537 -0.6143 -0.2203 -0.3635
  239MOL0     C32148   5.222   5.843   6.517  0.5839 -0.5743  0.0171
  239MOL0     C32149   5.220   5.831   6.387  0.6672  0.6989 -0.1054
  239MOL0     C32150   5.333   5.768   6.315 -0.3338 -0.6903 -0.5193
  239MOL0     C32151   5.400   5.653   6.386 -1.1307  0.7667  0.3066
  239MOL0     C32152   5.516   5.603   6.294  0.1488  0.2159 -0.0140
  239MOL0     C32153   5.588   5.483   6.351  0.1109  0.0883 -0.4793
  239MOL0     O32154   5.502   5.371   6.323 -0.2042  0.0428 -0.5292
  239MOL0     C32155   5.549   5.240   6.331  0.0389  0.5497 -1.0599
  239MOL0     C32156   5.446   5.149   6.380 -0.1797  0.2306 -0.6125
  239MOL0     C32157   5.469   5.011   6.376 -0.7016 -0.6481  0.0896
  239MOL0     C32158   5.587   4.961   6.316  0.4412 -1.2705  0.0997
  239MOL0     C32159   5.592   4.817   6.290 -0.4784 -0.3236  0.6017
  239MOL0     O32160   5.492   4.740   6.326  0.0494  0.6215 -0.7173
  239MOL0     C32161   5.477   4.605   6.292 -0.6374 -0.3646  0.2305
  239MOL0     C32162   5.401   4.520   6.382 -0.3554 -0.3225 -0.2324
  239MOL0     C32163   5.371   4.390   6.347  0.2879  0.0834  0.0955
  239MOL0     C32164   5.412   4.330   6.229  1.4791 -1.0728  0.3371
  239MOL0     O32165   5.384   4.203   6.196  0.2009  1.6797  0.3713
  239MOL0     C32166   5.476   4.118   6.127 -0.1953  0.1951  0.2853
  239MOL0     C32167   5.582   4.074   6.240 -0.3416  0.3423  0.4629
  239MOL0     C32168   5.671   3.954   6.190  0.0295 -0.5689 -0.3467
  239MOL0     C32169   5.753   3.892   6.310  0.8065 -0.2455  0.6351
  239MOL0     C32170   5.846   3.788   6.248  1.3393 -0.6947  0.1673
  239MOL0     C32171   5.962   3.751   6.348  1.3394 -0.1484  0.2145
  239MOL0     C32172   6.042   3.628   6.280 -0.7785  1.0256 -0.7885
  239MOL0     C32173   6.168   3.578   6.358  0.0255 -1.3504  0.2717
  239MOL0    Cl32174   6.300   3.707   6.354 -0.7673 -0.0889  0.4248
  239MOL0     C32175   5.467   4.414   6.134 -1.1190  0.1358  0.8527
  239MOL0     C32176   5.503   4.546   6.169 -0.4029 -0.2165  0.5833
  239MOL0     O32177   5.691   4.775   6.231 -0.5995  0.0089  0.1758
  239MOL0     C32178   5.678   5.053   6.258  0.2288  0.8116 -1.0794
  239MOL0     C32179   5.669   5.187   6.276  0.0841  0.4578  0.0642
  239MOL0     N32180   5.103   5.874   6.335  0.1307 -0.8205  0.2212
  239MOL0     N32181   5.034   5.929   6.420  0.1717  0.0515  0.3236
  239MOL0     C32182   4.280   5.667   6.669 -0.0219 -0.2719 -0.1353
  239MOL0     C32183   4.221   5.588   6.564 -0.5256 -0.0726  0.9703
  239MOL0     C32184   4.000   5.322   6.307 -0.5436  0.0180 -0.9868
  239MOL0     C32185   3.868   5.355   6.271  0.8213  0.3438  0.2166
  239MOL0     C32186   3.794   5.284   6.177 -0.0383  0.1210  0.2337
  239MOL0     C32187   3.865   5.189   6.103  0.1373  0.5852 -0.7736
  239MOL0     O32188   3.811   5.099   6.016 -0.1715 -0.6502 -0.0137
  239MOL0     C32189   3.690   5.114   5.942  0.2660  0.1909  0.1706
  239MOL0     C32190   3.706   5.216   5.830  0.9501  0.2607  0.4699
  239MOL0     C32191   3.796   5.167   5.720 -0.1989  0.3869  0.4072
  239MOL0     C32192   3.768   5.249   5.595  0.1787 -0.6257 -0.7358
  239MOL0     C32193   3.836   5.198   5.472  0.0719  0.0994 -0.0361
  239MOL0     C32194   3.873   5.148   5.370  0.3079  1.3115 -0.3712
  239MOL0     C32195   3.986   5.159   6.143  0.3691 -0.0156  0.5264
  239MOL0     C32196   4.059   5.221   6.240 -0.2771 -0.1437  0.1981
  239MOL0     C32197   4.195   5.176   6.258  0.0275 -0.4021  0.0479
  239MOL0     H32198   3.906   5.715   6.602 -0.1580 -2.9705  2.1953
  239MOL0     H32199   4.013   5.846   6.766 -2.3641 -0.0774 -0.5933
  239MOL0     H32200   4.361   5.864   6.998  0.7228  0.7716  0.2717
  239MOL0     H32201   4.418   5.741   6.883 -1.2400 -0.1265 -0.8429
  239MOL0     H32202   4.438   6.051   6.831 -0.0918  0.2454 -5.1323
  239MOL0     H32203   4.452   5.933   6.719 -4.9622 -2.2798  1.2137
  239MOL0     H32204   4.643   5.826   6.847  0.7797 -0.1757 -0.0964
  239MOL0     H32205   4.607   5.927   6.983  0.9214 -2.1665 -0.3895
  239MOL0     H32206   4.735   6.041   6.731 -3.5885  3.4702 -0.7141
  239MOL0     H32207   4.667   6.130   6.879  1.6439  1.1743 -1.6276
  239MOL0     H32208   4.910   6.099   6.860  2.2598 -2.7066 -2.0882
  239MOL0     H32209   4.847   6.023   7.008  0.2961 -1.8177  0.3310
  239MOL0     H32210   5.005   5.872   6.939  1.3363 -0.1650 -2.1854
  239MOL0     H32211   4.850   5.800   6.910  0.5693 -0.5941  0.2998
  239MOL0     H32212   4.862   5.891   6.684 -0.7857 -0.2041  0.6164
  239MOL0     H32213   4.983   5.760   6.703  0.1648  0.9039 -1.1973
  239MOL0     H32214   5.020   6.045   6.671 -3.5524 -0.8364  2.7588
  239MOL0     H32215   5.148   5.936   6.730 -0.2631 -0.6061 -0.4988
  239MOL0     H32216   5.288   5.806   6.594 -1.8170 -4.3851  0.5062
  239MOL0     H32217   5.283   5.739   6.223 -1.0716  0.6676 -0.5783
  239MOL0     H32218   5.399   5.850   6.287  1.7789 -0.7266  3.5043
  239MOL0     H32219   5.433   5.678   6.488 -2.6253 -2.3718  1.6901
  239MOL0     H32220   5.324   5.575   6.392  2.0788 -2.5454  2.7643
  239MOL0     H32221   5.589   5.685   6.298 -2.1335  2.4960  6.0075
  239MOL0     H32222   5.470   5.587   6.197 -1.1204 -2.9997  0.9866
  239MOL0     H32223   5.615   5.508   6.454 -1.0324  0.7074 -0.3121
  239MOL0     H32224   5.683   5.465   6.298 -1.3828 -1.2488 -2.8723
  239MOL0     H32225   5.349   5.186   6.409 -1.3014 -3.0692  0.2910
  239MOL0     H32226   5.396   4.952   6.430 -1.5967  0.6092  0.2952
  239MOL0     H32227   5.365   4.558   6.477 -1.8488 -1.1747 -0.4360
  239MOL0     H32228   5.312   4.322   6.407  1.8169 -0.1938  1.3424
  239MOL0     H32229   5.417   4.035   6.087 -0.4105  0.9455 -1.0367
  239MOL0     H32230   5.521   4.157   6.035 -0.6774 -1.1130 -0.5491
  239MOL0     H32231   5.648   4.157   6.268  0.1091 -0.3357  1.4288
  239MOL0     H32232   5.526   4.036   6.326 -0.5123 -1.2841 -0.3330
  239MOL0     H32233   5.612   3.870   6.152  1.1360 -0.9889 -1.1993
  239MOL0     H32234   5.738   3.991   6.112  0.7837  1.6316  1.2544
  239MOL0     H32235   5.680   3.843   6.374 -2.6369 -2.9028 -4.5756
  239MOL0     H32236   5.813   3.966   6.364 -3.3185  1.0282  3.9830
  239MOL0     H32237   5.889   3.823   6.153 -1.4813 -2.3616 -1.8843
  239MOL0     H32238   5.780   3.702   6.233 -0.3632  0.5437  0.2334
  239MOL0     H32239   6.030   3.836   6.360  1.6670 -0.0794 -1.7721
  239MOL0     H32240   5.928   3.726   6.449  0.5157 -0.0969 -0.0465
  239MOL0     H32241   6.062   3.655   6.176 -0.1190  2.5180 -0.3036
  239MOL0     H32242   5.971   3.546   6.267  2.6384 -2.2913 -0.0279
  239MOL0     H32243   6.136   3.552   6.460 -0.0741  0.3977  0.7175
  239MOL0     H32244   6.187   3.482   6.309 -1.6484 -0.8981 -1.3941
  239MOL0     H32245   5.488   4.399   6.029 -0.8864  1.0248  0.7632
  239MOL0     H32246   5.548   4.607   6.091  1.9351 -3.4377 -0.8031
  239MOL0     H32247   5.772   5.015   6.221  0.1855 -2.2001  1.4835
  239MOL0     H32248   5.747   5.253   6.238  0.0277 -0.9364 -2.6837
  239MOL0     H32249   4.385   5.654   6.696 -0.5851  0.8054  2.9864
  239MOL0     H32250   4.272   5.511   6.507 -0.8677  0.6086 -0.2848
  239MOL0     H32251   3.798   5.411   6.332  0.0999 -1.4792  1.1452
  239MOL0     H32252   3.686   5.289   6.171 -0.1425 -1.5703  0.1681
  239MOL0     H32253   3.617   5.167   6.004 -0.2574  1.7288 -1.6889
  239MOL0     H32254   3.649   5.022   5.898  3.5623 -0.1701 -2.6142
  239MOL0     H32255   3.753   5.303   5.877 -0.9257  0.6661  1.6963
  239MOL0     H32256   3.608   5.251   5.795  0.4946 -1.5261 -0.1625
  239MOL0     H32257   3.793   5.060   5.697  1.3368  0.2732  0.5781
  239MOL0     H32258   3.901   5.183   5.748 -0.0887 -0.9656  0.8342
  239MOL0     H32259   3.664   5.242   5.561  0.3028  0.4711 -1.3863
  239MOL0     H32260   3.788   5.356   5.602  1.1216 -0.8995  2.7496
  239MOL0     H32261   3.910   5.093   5.286  0.9547  1.1456  0.0197
  239MOL0     H32262   4.034   5.084   6.081 -0.6926 -0.6674  0.4715
  239MOL0     H32263   4.208   5.089   6.192 -1.5634 -1.7442  1.3970
  239MOL0     H32264   4.258   5.264   6.245 -1.3301  0.3021 -2.4828
  239MOL0     H32265   4.196   5.144   6.362  0.6687 -0.5007  0.0124
  240MOL0     O32266   1.564  10.369  10.276 -0.2815  0.3229  0.8278
  240MOL0     C32267   1.452  10.419  10.256  1.1511  0.1936 -0.1806
  240MOL0     O32268   1.388  10.492  10.353  0.0776  0.2995  0.9652
  240MOL0     C32269   1.454  10.530  10.466 -0.5233 -0.2481  0.5841
  240MOL0     C32270   1.388  10.515  10.596 -1.2106  0.2882 -0.0946
  240MOL0     C32271   1.448  10.550  10.713 -0.2796 -0.2847 -0.5677
  240MOL0     C32272   1.578  10.607  10.715 -0.1952  0.2026  1.7011
  240MOL0     O32273   1.618  10.657  10.839 -0.8103  0.2348  0.1510
  240MOL0     C32274   1.718  10.758  10.854 -0.2628  0.8598 -1.3624
  240MOL0     C32275   1.689  10.836  10.985 -0.5114 -0.5218  0.1979
  240MOL0     C32276   1.573  10.931  10.957 -0.6421 -0.4149 -0.2557
  240MOL0     C32277   1.565  11.038  11.067  0.3580 -0.0599 -0.1092
  240MOL0     C32278   1.667  11.149  11.055  1.1203  0.0682 -0.4653
  240MOL0     C32279   1.660  11.233  11.183 -1.1654 -0.3757 -0.4036
  240MOL0     C32280   1.744  11.353  11.174  0.0505 -0.3949 -0.2611
  240MOL0     C32281   1.680  11.470  11.108  1.1998 -0.0265 -0.4213
  240MOL0     N32282   1.763  11.589  11.120 -0.3721  0.3203  0.2099
  240MOL0     C32283   1.737  11.702  11.193 -0.5540 -0.6439  0.7854
  240MOL0     C32284   1.839  11.791  11.154  0.3473  0.4481 -0.4022
  240MOL0     C32285   1.850  11.928  11.212 -0.6005 -0.9792  1.0992
  240MOL0     C32286   1.947  12.012  11.120  0.7065  0.4504 -0.0880
  240MOL0     C32287   1.896  12.058  10.977 -1.2847 -0.4620  0.4700
  240MOL0     C32288   1.771  12.149  10.989 -0.4987  0.0580 -0.4675
  240MOL0     O32289   1.800  12.262  11.081  0.4278  0.2355 -0.4215
  240MOL0     C32290   1.698  12.354  11.095 -0.0001  0.0108 -0.5801
  240MOL0     C32291   1.663  12.453  11.001 -0.4687  0.4672 -1.1523
  240MOL0     C32292   1.567  12.550  11.037  0.0946  0.6652 -0.4948
  240MOL0     C32293   1.504  12.546  11.162 -0.8836  0.1986 -0.3461
  240MOL0     C32294   1.416  12.659  11.205 -0.4253  0.3381  0.1905
  240MOL0     O32295   1.329  12.632  11.306  0.1336 -0.7065  0.2713
  240MOL0     C32296   1.236  12.728  11.329  0.5158  0.1810 -0.1207
  240MOL0     C32297   1.106  12.716  11.291  0.7345 -0.4862  1.2570
  240MOL0     C32298   1.008  12.805  11.338 -0.2839 -0.3469  0.1226
  240MOL0     C32299   1.043  12.918  11.413 -0.7191  0.1466 -0.2169
  240MOL0     O32300   0.960  13.007  11.453  0.1211 -0.4150 -0.4886
  240MOL0     C32301   0.853  12.952  11.543 -0.4206 -0.2192 -1.1339
  240MOL0     C32302   0.867  13.018  11.678  0.4604  0.5732  0.0257
  240MOL0     C32303   0.844  13.173  11.651 -1.2832 -0.2103 -0.6769
  240MOL0     C32304   0.818  13.248  11.779  0.7927  0.2873  0.2324
  240MOL0     C32305   0.806  13.401  11.746  0.0331  0.4552  0.7630
  240MOL0     C32306   0.749  13.484  11.866  0.3040  1.2724 -0.0723
  240MOL0     C32307   0.855  13.508  11.983  0.1953  0.7598 -0.1919
  240MOL0     C32308   0.968  13.602  11.954 -0.6825 -0.3263  0.5766
  240MOL0    Cl32309   0.910  13.767  11.916 -0.3129  0.0231  0.1653
  240MOL0     C32310   1.178  12.944  11.444  0.4516 -0.2827 -0.3842
  240MOL0     C32311   1.269  12.842  11.407  0.4507  0.6031  0.5292
  240MOL0     O32312   1.414  12.753  11.125  0.7387 -0.9283  0.1657
  240MOL0     C32313   1.551  12.454  11.255  0.1558 -0.0916 -0.4324
  240MOL0     C32314   1.637  12.360  11.225 -0.0725 -0.5183  0.7840
  240MOL0     N32315   1.923  11.717  11.061 -0.1586  0.4796  0.7557
  240MOL0     N32316   1.880  11.597  11.048  0.2935 -0.3800 -0.0563
  240MOL0     C32317   1.646  10.623  10.591 -0.0388 -0.4413 -0.1611
  240MOL0     C32318   1.585  10.580  10.468  0.5426  0.1758 -0.3816
  240MOL0     C32319   1.401  10.402  10.114  0.6777  0.4955  0.4509
  240MOL0     C32320   1.467  10.463  10.011  0.0654 -0.3462  0.3040
  240MOL0     C32321   1.421  10.441   9.880  0.1654  0.4794 -0.1833
  240MOL0     C32322   1.300  10.370   9.853 -0.5348 -0.4811 -0.1695
  240MOL0     O32323   1.244  10.340   9.726  0.0756 -0.2041 -0.4173
  240MOL0     C32324   1.335  10.359   9.613 -1.1675  0.3407 -0.1316
  240MOL0     C32325   1.285  10.275   9.492  0.2752  0.0643 -0.0282
  240MOL0     C32326   1.370  10.312   9.367  0.4413  0.5911 -0.3930
  240MOL0     C32327   1.301  10.256   9.239  0.2595  0.7408  0.0818
  240MOL0     C32328   1.305  10.106   9.240  0.2279  0.3156 -0.5228
  240MOL0     C32329   1.317   9.984   9.240  0.2777  0.7384  0.0392
  240MOL0     C32330   1.226  10.334   9.965 -0.0584  0.3906  0.6217
  240MOL0     C32331   1.277  10.343  10.090 -0.9654  0.9785  0.7152
  240MOL0     C32332   1.185  10.284  10.196  0.2838 -0.4706 -0.4262
  240MOL0     H32333   1.290  10.470  10.596 -0.5296 -1.4554  2.5011
  240MOL0     H32334   1.395  10.522  10.803 -0.1369 -0.5257 -0.5553
  240MOL0     H32335   1.817  10.711  10.857 -1.0727 -0.8878  1.4003
  240MOL0     H32336   1.716  10.841  10.782 -0.0596  1.5251 -0.6165
  240MOL0     H32337   1.770  10.905  11.011  0.0773 -0.1933 -2.2416
  240MOL0     H32338   1.687  10.770  11.072  0.4458  0.1267  0.7288
  240MOL0     H32339   1.482  10.871  10.953 -2.8247  2.7378 -2.5767
  240MOL0     H32340   1.581  10.985  10.862 -2.3097  1.9486  0.8374
  240MOL0     H32341   1.462  11.074  11.082  1.1225  1.3681  2.2009
  240MOL0     H32342   1.580  10.991  11.164 -1.8595  1.8143  1.2478
  240MOL0     H32343   1.770  11.121  11.032  0.3949 -1.0832 -2.5919
  240MOL0     H32344   1.628  11.208  10.971  1.5322 -0.0373 -0.7266
  240MOL0     H32345   1.563  11.276  11.209  1.2865  2.9551  4.7058
  240MOL0     H32346   1.691  11.168  11.265  0.1290  1.5741  0.7059
  240MOL0     H32347   1.845  11.338  11.133  0.3876 -6.1636  1.7324
  240MOL0     H32348   1.768  11.385  11.276 -0.3615 -2.7699  0.6480
  240MOL0     H32349   1.678  11.444  11.002 -0.4460 -3.3386  0.3134
  240MOL0     H32350   1.576  11.487  11.139  1.1090  0.6874 -1.0764
  240MOL0     H32351   1.650  11.729  11.252  0.7488  4.7923  0.7898
  240MOL0     H32352   1.755  11.979  11.230  0.0643  1.3009 -1.0971
  240MOL0     H32353   1.902  11.916  11.307  3.0087  3.8321  0.1498
  240MOL0     H32354   1.982  12.097  11.179  0.0896 -0.3251  1.4653
  240MOL0     H32355   2.027  11.939  11.109  0.2974  0.2239 -1.8867
  240MOL0     H32356   1.868  11.971  10.916 -1.9974 -2.3966  3.3367
  240MOL0     H32357   1.979  12.114  10.933 -0.5437 -1.4695  0.5232
  240MOL0     H32358   1.700  12.076  11.029 -0.8903  0.5566 -0.2531
  240MOL0     H32359   1.742  12.181  10.888 -0.2495  3.3322  0.3864
  240MOL0     H32360   1.700  12.461  10.899  1.4207  3.4466 -0.3824
  240MOL0     H32361   1.537  12.627  10.967 -3.5755 -0.8474 -0.8164
  240MOL0     H32362   1.078  12.632  11.227 -1.9766  0.3846  1.1826
  240MOL0     H32363   0.911  12.776  11.299 -0.0034  0.7926 -1.5094
  240MOL0     H32364   0.755  12.987  11.509  1.0477  5.3343 -0.6143
  240MOL0     H32365   0.854  12.844  11.563  1.6601 -0.1815 -0.7649
  240MOL0     H32366   0.779  12.985  11.735 -1.4605  3.4452 -1.0622
  240MOL0     H32367   0.961  12.992  11.727  0.6231  2.9613  1.0998
  240MOL0     H32368   0.929  13.222  11.602 -0.1658 -1.2073  0.1959
  240MOL0     H32369   0.759  13.198  11.587 -3.1947  0.6114  2.0110
  240MOL0     H32370   0.890  13.232  11.860 -0.6942  1.7348  1.9244
  240MOL0     H32371   0.728  13.203  11.822 -0.7538  1.1584 -1.9201
  240MOL0     H32372   0.747  13.420  11.656 -2.5393 -2.8726  1.5356
  240MOL0     H32373   0.904  13.445  11.728  1.0695 -1.2800  1.9282
  240MOL0     H32374   0.716  13.579  11.823  1.2174  1.3926 -0.5348
  240MOL0     H32375   0.664  13.430  11.910 -0.0412 -0.9144 -3.0646
  240MOL0     H32376   0.892  13.410  12.017 -2.4795 -0.7785 -1.4614
  240MOL0     H32377   0.799  13.562  12.059  0.7456  0.8770  0.1391
  240MOL0     H32378   1.018  13.617  12.051 -1.9721  0.2900  1.1724
  240MOL0     H32379   1.037  13.560  11.880 -3.1524  0.3180 -2.2762
  240MOL0     H32380   1.219  13.032  11.493 -0.1341 -0.0023 -0.3878
  240MOL0     H32381   1.364  12.851  11.458  1.2098  0.9160 -0.8948
  240MOL0     H32382   1.505  12.459  11.353 -0.7417 -0.9431 -0.7968
  240MOL0     H32383   1.662  12.284  11.297 -1.4983  1.1722  3.2027
  240MOL0     H32384   1.736  10.684  10.578 -1.8568  2.4744 -0.0047
  240MOL0     H32385   1.635  10.606  10.375  1.2840  0.0353 -0.0352
  240MOL0     H32386   1.560  10.517  10.027 -0.6173  0.3265  2.2011
  240MOL0     H32387   1.470  10.467   9.787 -2.5788 -2.0772 -2.5585
  240MOL0     H32388   1.437  10.330   9.640 -1.8594 -1.3725  0.8164
  240MOL0     H32389   1.342  10.466   9.590  0.0252  0.3143  0.0471
  240MOL0     H32390   1.181  10.307   9.486 -0.0744 -0.7804  1.1078
  240MOL0     H32391   1.285  10.168   9.514 -1.4047  0.2673  1.1388
  240MOL0     H32392   1.474  10.278   9.377 -0.4702 -1.7623  2.0470
  240MOL0     H32393   1.371  10.422   9.362  0.3870  0.6198  0.1314
  240MOL0     H32394   1.200  10.298   9.247  0.1933  0.5129  0.5117
  240MOL0     H32395   1.341  10.291   9.144  1.1622 -0.1068  0.1322
  240MOL0     H32396   1.318   9.877   9.244 -0.0340  0.7685  1.9798
  240MOL0     H32397   1.125  10.297   9.952 -0.0379  0.2339  0.8945
  240MOL0     H32398   1.079  10.302  10.179  0.4080  0.8945  0.1176
  240MOL0     H32399   1.199  10.175  10.199  2.1888 -0.3932 -2.9093
  240MOL0     H32400   1.210  10.330  10.292  2.6787 -1.8128 -0.3232
  241MOL0     O32401   2.526   4.695   5.951 -0.6863  0.2730 -0.1604
  241MOL0     C32402   2.561   4.796   5.884  0.1116 -0.4364  0.1648
  241MOL0     O32403   2.598   4.793   5.754 -0.1181  0.0042  0.1268
  241MOL0     C32404   2.605   4.676   5.688  0.0656 -0.3544  0.2304
  241MOL0     C32405   2.492   4.606   5.659 -0.0532  0.0533  0.3111
  241MOL0     C32406   2.480   4.503   5.565 -1.2716 -0.0096 -0.7220
  241MOL0     C32407   2.598   4.474   5.494  0.2923  1.3379  0.7822
  241MOL0     O32408   2.589   4.393   5.380 -0.9444  0.4059 -0.7051
  241MOL0     C32409   2.705   4.303   5.356  0.5244 -0.3482 -0.7568
  241MOL0     C32410   2.671   4.198   5.261 -0.3180 -0.6041 -0.2010
  241MOL0     C32411   2.659   4.247   5.116  0.3626  0.4281 -0.1199
  241MOL0     C32412   2.526   4.197   5.048 -0.3326 -0.1932  0.0941
  241MOL0     C32413   2.400   4.267   5.123  0.0574 -0.3653  0.0466
  241MOL0     C32414   2.392   4.409   5.079  0.5943 -0.0123 -0.8816
  241MOL0     C32415   2.266   4.475   5.133 -0.6829 -0.6353 -0.1937
  241MOL0     C32416   2.256   4.470   5.284 -0.0652 -0.6732  0.5766
  241MOL0     N32417   2.129   4.527   5.331 -1.1419  0.3019 -0.2351
  241MOL0     C32418   2.012   4.498   5.279 -0.8398  0.1010 -0.6499
  241MOL0     C32419   1.925   4.542   5.373  0.1939  0.5138 -0.3427
  241MOL0     C32420   1.769   4.515   5.368 -0.1203  0.3495  0.2571
  241MOL0     C32421   1.688   4.640   5.308  0.5491  1.0264 -0.0346
  241MOL0     C32422   1.723   4.701   5.166 -0.8946  0.1092 -0.6403
  241MOL0     C32423   1.685   4.623   5.047 -0.3787  0.1552  0.2381
  241MOL0     O32424   1.752   4.496   5.053  0.3319 -0.2901 -0.3418
  241MOL0     C32425   1.751   4.439   4.930  0.2600 -0.7461  0.7119
  241MOL0     C32426   1.689   4.323   4.909 -0.2143  0.7273  0.9066
  241MOL0     C32427   1.689   4.255   4.784 -0.5829  0.1007  1.0214
  241MOL0     C32428   1.746   4.312   4.670 -0.0512 -0.9502 -0.0547
  241MOL0     C32429   1.743   4.250   4.532  1.0007 -0.0245  0.4025
  241MOL0     O32430   1.631   4.170   4.494  0.3858 -0.4104  0.6262
  241MOL0     C32431   1.652   4.109   4.368  0.0162 -0.4640  0.4790
  241MOL0     C32432   1.760   4.019   4.337 -0.5969 -0.3797 -0.7468
  241MOL0     C32433   1.770   3.948   4.219  0.2576  0.3749 -1.0052
  241MOL0     C32434   1.671   3.959   4.120 -0.1681  0.5306  0.1942
  241MOL0     O32435   1.678   3.873   4.010  0.2698 -0.6152 -0.5403
  241MOL0     C32436   1.566   3.872   3.919 -0.5205 -0.2082 -0.5611
  241MOL0     C32437   1.610   3.759   3.826  0.0423 -0.0197 -0.4189
  241MOL0     C32438   1.473   3.702   3.772 -0.4521 -0.9228  0.3659
  241MOL0     C32439   1.510   3.605   3.659 -0.2595  0.8719 -0.2985
  241MOL0     C32440   1.394   3.577   3.567 -0.5054  0.6492  0.7020
  241MOL0     C32441   1.431   3.496   3.438  0.2898 -0.0900 -0.1679
  241MOL0     C32442   1.537   3.389   3.445  1.2158 -0.4284  0.5103
  241MOL0     C32443   1.504   3.280   3.343  0.0677 -0.4224 -1.1253
  241MOL0    Cl32444   1.372   3.175   3.413 -0.3430  0.0535  0.1162
  241MOL0     C32445   1.566   4.058   4.152  0.8779  1.4523  1.2915
  241MOL0     C32446   1.561   4.122   4.263 -0.1597  0.2100 -0.1173
  241MOL0     O32447   1.841   4.275   4.458  0.1061 -0.2764 -0.5875
  241MOL0     C32448   1.821   4.430   4.690 -0.1907  0.4973 -0.5616
  241MOL0     C32449   1.818   4.494   4.815  0.1732 -0.6621  0.2850
  241MOL0     N32450   1.991   4.632   5.462  0.0065 -0.2757 -1.2646
  241MOL0     N32451   2.122   4.629   5.430  0.4658  0.2864  0.0981
  241MOL0     C32452   2.710   4.548   5.523 -0.5036  0.0224 -0.8240
  241MOL0     C32453   2.721   4.644   5.620 -0.4453 -0.2525 -0.8277
  241MOL0     C32454   2.574   4.925   5.944 -0.7082  0.1546  0.5381
  241MOL0     C32455   2.523   5.033   5.878  0.2504 -0.6269  0.9390
  241MOL0     C32456   2.542   5.163   5.937  0.0372 -0.0121  0.1465
  241MOL0     C32457   2.589   5.179   6.067 -0.0653 -0.1384  0.4959
  241MOL0     O32458   2.602   5.302   6.135 -0.1572  0.6000 -0.0679
  241MOL0     C32459   2.487   5.382   6.157  0.1370  0.3918  0.7355
  241MOL0     C32460   2.522   5.483   6.263 -0.2759 -0.3433  0.3575
  241MOL0     C32461   2.573   5.419   6.392 -0.4688 -0.5357 -0.6601
  241MOL0     C32462   2.647   5.520   6.485  0.5047 -0.1060  0.0109
  241MOL0     C32463   2.682   5.460   6.611  0.5808 -0.1157  0.1791
  241MOL0     C32464   2.709   5.410   6.714 -0.4315  1.1784 -0.7390
  241MOL0     C32465   2.629   5.065   6.132  0.6863 -0.8967 -0.1417
  241MOL0     C32466   2.625   4.938   6.076  0.8230  0.5570  0.0637
  241MOL0     C32467   2.672   4.833   6.163 -0.2614  0.4043 -0.2399
  241MOL0     H32468   2.403   4.654   5.700 -0.3299 -1.6742  1.8728
  241MOL0     H32469   2.385   4.453   5.548 -1.1883 -0.8827  1.1668
  241MOL0     H32470   2.785   4.367   5.317 -1.6388  2.5864 -0.7182
  241MOL0     H32471   2.728   4.250   5.449 -0.4189  1.0820  0.3547
  241MOL0     H32472   2.585   4.143   5.300 -1.3717 -1.5032 -3.4500
  241MOL0     H32473   2.746   4.118   5.256 -3.2417 -3.5364 -4.3548
  241MOL0     H32474   2.741   4.202   5.060 -1.7613 -0.7413 -2.5114
  241MOL0     H32475   2.657   4.356   5.112 -0.5609  0.4657  0.8873
  241MOL0     H32476   2.520   4.231   4.944  1.6142  0.0781  0.0350
  241MOL0     H32477   2.515   4.088   5.049 -3.6413  0.0131 -0.3371
  241MOL0     H32478   2.308   4.212   5.103 -1.3162  0.9987  2.2112
  241MOL0     H32479   2.430   4.264   5.228 -0.4648  1.6366  0.2880
  241MOL0     H32480   2.475   4.467   5.121 -0.3212 -0.9759  2.5431
  241MOL0     H32481   2.399   4.430   4.972 -4.7415 -1.2505 -1.7253
  241MOL0     H32482   2.181   4.427   5.082  0.0340 -1.6085 -0.5032
  241MOL0     H32483   2.261   4.582   5.109  0.1413 -0.1918  1.4612
  241MOL0     H32484   2.260   4.367   5.319  0.9776 -0.4977  1.0247
  241MOL0     H32485   2.341   4.526   5.324  2.5570 -3.6227 -0.4730
  241MOL0     H32486   2.002   4.426   5.198  1.2743 -1.3900  0.3016
  241MOL0     H32487   1.733   4.427   5.314 -2.3426 -0.4449  2.7955
  241MOL0     H32488   1.731   4.496   5.469  0.0345 -1.4653 -0.0007
  241MOL0     H32489   1.580   4.622   5.316 -0.3373  5.3434  0.2299
  241MOL0     H32490   1.698   4.718   5.385  0.8434  1.1633 -0.2121
  241MOL0     H32491   1.832   4.710   5.168 -0.5602 -2.8480  0.1713
  241MOL0     H32492   1.686   4.803   5.156 -2.5016 -0.4773 -1.0733
  241MOL0     H32493   1.713   4.681   4.959  1.1289  0.2449  0.7357
  241MOL0     H32494   1.577   4.605   5.052 -0.6736  2.0343  2.0483
  241MOL0     H32495   1.638   4.275   4.992 -0.4475  1.8340  1.4259
  241MOL0     H32496   1.643   4.157   4.776  0.0103 -0.1119  0.1703
  241MOL0     H32497   1.834   4.009   4.416 -0.6094 -0.2880 -0.7238
  241MOL0     H32498   1.859   3.885   4.214  1.3592  1.8897 -1.4573
  241MOL0     H32499   1.480   3.843   3.980 -0.7887  0.0888 -0.7933
  241MOL0     H32500   1.555   3.968   3.868  1.5069  0.2622 -0.2038
  241MOL0     H32501   1.667   3.807   3.746 -0.7548  0.1315 -0.9136
  241MOL0     H32502   1.675   3.687   3.875 -1.1093  0.0581  1.3410
  241MOL0     H32503   1.419   3.651   3.852  0.9321 -0.1685  1.8161
  241MOL0     H32504   1.405   3.778   3.731 -1.9322 -1.4810  1.6810
  241MOL0     H32505   1.550   3.513   3.703  1.4768  1.9004  0.3674
  241MOL0     H32506   1.595   3.645   3.603  3.0217  0.2377  3.7843
  241MOL0     H32507   1.355   3.673   3.534  0.0443  0.0926 -1.7420
  241MOL0     H32508   1.318   3.518   3.619 -1.2765  0.5706 -0.4769
  241MOL0     H32509   1.338   3.444   3.411 -1.1380 -0.6055  4.7554
  241MOL0     H32510   1.456   3.571   3.362 -3.5570  2.5421  0.8495
  241MOL0     H32511   1.532   3.337   3.540  0.0132 -0.6192  0.3570
  241MOL0     H32512   1.639   3.429   3.446  1.1002 -0.0909  2.5898
  241MOL0     H32513   1.466   3.316   3.248 -2.7953  1.4302  0.5800
  241MOL0     H32514   1.596   3.220   3.344 -0.2241 -0.8972 -1.7784
  241MOL0     H32515   1.481   4.067   4.086  0.7004  0.9446  1.4420
  241MOL0     H32516   1.477   4.186   4.288 -0.4896  0.6742 -2.2377
  241MOL0     H32517   1.853   4.489   4.605 -1.8609  2.5181  0.1327
  241MOL0     H32518   1.870   4.589   4.812  0.9741 -0.9688  2.6488
  241MOL0     H32519   2.807   4.537   5.476 -1.3748 -0.7544 -2.5234
  241MOL0     H32520   2.807   4.704   5.648 -1.4839 -0.0735  2.3924
  241MOL0     H32521   2.456   5.038   5.793  2.1318  3.7675 -0.5409
  241MOL0     H32522   2.500   5.252   5.892 -1.9392 -0.0193  1.8047
  241MOL0     H32523   2.396   5.329   6.187  0.8614 -1.3713  0.0050
  241MOL0     H32524   2.472   5.429   6.059  1.2534 -1.6118 -0.4859
  241MOL0     H32525   2.429   5.527   6.302  0.4783 -0.8117  2.8654
  241MOL0     H32526   2.598   5.553   6.229  1.0741 -2.4244 -1.0890
  241MOL0     H32527   2.655   5.348   6.374 -0.2871 -0.3379 -0.6101
  241MOL0     H32528   2.487   5.379   6.446 -2.7043 -0.2676 -3.7768
  241MOL0     H32529   2.732   5.565   6.433 -0.4166  1.9302  0.1730
  241MOL0     H32530   2.578   5.601   6.512 -3.0590 -2.6783 -0.6953
  241MOL0     H32531   2.733   5.368   6.810 -0.1692 -0.0877 -1.3342
  241MOL0     H32532   2.669   5.081   6.232 -0.8717 -1.2016  0.5575
  241MOL0     H32533   2.742   4.880   6.233  1.2974 -2.7278  0.4837
  241MOL0     H32534   2.588   4.791   6.220 -1.0735  0.0663 -1.6566
  241MOL0     H32535   2.723   4.748   6.116 -1.2970 -3.7867  5.1568
  242MOL0     O32536   0.186   3.080   6.494  0.2876 -0.1440 -0.7688
  242MOL0     C32537   0.154   3.050   6.381  0.8934  0.1540  1.0289
  242MOL0     O32538   0.037   3.086   6.321 -0.0513 -0.6842  0.3481
  242MOL0     C32539  -0.048   3.156   6.400 -0.3593 -0.7579  0.7595
  242MOL0     C32540  -0.147   3.090   6.462  0.3733  0.9507  0.6620
  242MOL0     C32541  -0.220   3.162   6.563  0.1845 -0.7807  0.3694
  242MOL0     C32542  -0.202   3.295   6.596 -0.2716 -0.4921  0.6135
  242MOL0     O32543  -0.297   3.357   6.680 -0.2348  0.1152 -0.4230
  242MOL0     C32544  -0.413   3.400   6.613  0.4678  0.1446  0.2448
  242MOL0     C32545  -0.528   3.412   6.707 -0.5828 -0.1117 -0.1082
  242MOL0     C32546  -0.658   3.337   6.676  0.4437  0.2346  0.3022
  242MOL0     C32547  -0.733   3.390   6.548 -0.2727 -0.3927  0.3656
  242MOL0     C32548  -0.857   3.295   6.518 -0.6205  0.5888  0.4551
  242MOL0     C32549  -0.985   3.331   6.575  0.1245  0.1771 -0.8928
  242MOL0     C32550  -1.097   3.218   6.564 -0.0705 -0.1663 -1.1970
  242MOL0     C32551  -1.224   3.226   6.655  0.5875  0.8353 -0.0621
  242MOL0     N32552  -1.216   3.251   6.797 -0.4485 -0.4518 -0.8664
  242MOL0     C32553  -1.152   3.162   6.880  0.9611 -1.0745 -0.3031
  242MOL0     C32554  -1.133   3.222   7.002 -0.9744  0.3407 -1.2022
  242MOL0     C32555  -1.062   3.162   7.123  0.2699  0.1727  0.3635
  242MOL0     C32556  -0.954   3.255   7.185  0.2274 -0.4929 -0.1381
  242MOL0     C32557  -0.850   3.298   7.083 -0.7773 -0.0007  0.3027
  242MOL0     C32558  -0.710   3.233   7.099 -0.2865 -0.2311 -0.4101
  242MOL0     O32559  -0.641   3.256   7.228 -0.0641  0.0409 -0.5663
  242MOL0     C32560  -0.527   3.172   7.261 -0.5185 -0.0107  0.0987
  242MOL0     C32561  -0.457   3.097   7.165 -0.8509  0.7188  0.5447
  242MOL0     C32562  -0.355   3.002   7.203 -0.2290  0.8447 -0.8814
  242MOL0     C32563  -0.311   2.991   7.338  0.0036 -1.3280  0.6357
  242MOL0     C32564  -0.205   2.893   7.382 -0.4432  0.6155 -0.2758
  242MOL0     O32565  -0.187   2.866   7.514 -0.4327 -0.7965  0.4633
  242MOL0     C32566  -0.086   2.765   7.538 -0.5876  0.1997 -0.4233
  242MOL0     C32567  -0.138   2.635   7.554 -0.0600 -0.3339  0.2224
  242MOL0     C32568  -0.049   2.526   7.570  0.6138 -0.0863  0.2314
  242MOL0     C32569   0.084   2.549   7.592  0.2919 -0.2711 -0.9104
  242MOL0     O32570   0.154   2.443   7.639  0.4506  0.1634 -0.4724
  242MOL0     C32571   0.285   2.455   7.702  0.3796 -0.1500  0.3596
  242MOL0     C32572   0.344   2.315   7.733 -0.0814 -0.9822  0.8592
  242MOL0     C32573   0.494   2.338   7.791  0.4707  0.9947 -0.1227
  242MOL0     C32574   0.566   2.208   7.827  0.3293 -0.5073  1.5114
  242MOL0     C32575   0.714   2.228   7.859  0.2618  0.0671 -0.2618
  242MOL0     C32576   0.800   2.292   7.748 -0.3090 -0.8188  0.4952
  242MOL0     C32577   0.802   2.217   7.612 -0.7463  0.5249 -0.2094
  242MOL0     C32578   0.943   2.236   7.543 -0.8199  0.8841 -0.3715
  242MOL0    Cl32579   0.952   2.174   7.376 -0.2721  0.4709 -0.0904
  242MOL0     C32580   0.132   2.680   7.594 -0.7392  0.4845 -1.4727
  242MOL0     C32581   0.050   2.786   7.552  0.0686  0.8096 -0.3872
  242MOL0     O32582  -0.132   2.856   7.293 -0.0336  0.3259 -0.7402
  242MOL0     C32583  -0.384   3.066   7.432 -0.1235  0.4152 -0.8743
  242MOL0     C32584  -0.488   3.156   7.397 -0.1952  0.0372 -0.4661
  242MOL0     N32585  -1.185   3.350   6.988 -0.4269  1.2742  0.8713
  242MOL0     N32586  -1.235   3.368   6.862  0.1549 -0.5065 -0.7332
  242MOL0     C32587  -0.104   3.361   6.519 -0.9013  0.3010  0.6555
  242MOL0     C32588  -0.017   3.293   6.428 -0.1946  0.4024 -0.4074
  242MOL0     C32589   0.248   2.965   6.300 -0.0671  0.0815 -1.0997
  242MOL0     C32590   0.295   2.843   6.372 -0.1704 -0.8696  0.6573
  242MOL0     C32591   0.394   2.764   6.309  0.4041 -0.5290  0.2750
  242MOL0     C32592   0.438   2.795   6.185 -1.1786  0.2254 -0.2224
  242MOL0     O32593   0.546   2.725   6.122  0.0089 -0.0281  0.0683
  242MOL0     C32594   0.600   2.609   6.187  1.1921 -0.7331  0.3041
  242MOL0     C32595   0.704   2.530   6.093  0.4286  0.4371  0.1204
  242MOL0     C32596   0.848   2.588   6.088  0.8061 -0.2495  0.2733
  242MOL0     C32597   0.931   2.518   6.208 -0.5964 -0.1515 -0.2640
  242MOL0     C32598   0.990   2.395   6.161 -0.6106 -0.1015  0.8338
  242MOL0     C32599   1.023   2.292   6.110 -0.2852  0.2894 -0.3524
  242MOL0     C32600   0.393   2.906   6.122  0.3935  0.5639  0.6585
  242MOL0     C32601   0.291   2.990   6.175 -0.5789 -0.1251  0.1130
  242MOL0     C32602   0.267   3.115   6.081 -0.3060 -0.1012 -0.3484
  242MOL0     H32603  -0.183   2.995   6.424 -0.4030  1.2271  0.7022
  242MOL0     H32604  -0.294   3.112   6.626 -0.5624 -0.6959 -0.4224
  242MOL0     H32605  -0.401   3.492   6.556  1.3029 -2.5315 -4.3725
  242MOL0     H32606  -0.434   3.323   6.538  1.1211 -0.7643  0.9621
  242MOL0     H32607  -0.544   3.520   6.714  1.5043  0.1804  0.8356
  242MOL0     H32608  -0.489   3.390   6.806 -0.9738  2.0985  0.6033
  242MOL0     H32609  -0.714   3.343   6.769  1.7551  1.1322  1.0570
  242MOL0     H32610  -0.635   3.231   6.662  1.4435  0.5159 -0.3151
  242MOL0     H32611  -0.767   3.494   6.558 -0.6868 -0.2836 -1.7485
  242MOL0     H32612  -0.668   3.381   6.460  1.5833  1.7350  1.4163
  242MOL0     H32613  -0.862   3.299   6.408 -0.5083  2.7162  0.4931
  242MOL0     H32614  -0.821   3.199   6.556  0.0401  0.5012 -0.3410
  242MOL0     H32615  -0.953   3.332   6.680  4.9077 -4.9218 -1.8059
  242MOL0     H32616  -1.028   3.427   6.544  2.0259  0.8813 -1.5547
  242MOL0     H32617  -1.046   3.124   6.588 -0.9748 -0.5453 -0.7177
  242MOL0     H32618  -1.133   3.209   6.461  3.0263 -2.1047 -2.2889
  242MOL0     H32619  -1.279   3.309   6.611  1.5753  0.9977 -1.0618
  242MOL0     H32620  -1.283   3.136   6.634  3.1618 -1.0755  0.3089
  242MOL0     H32621  -1.127   3.056   6.870 -0.5586 -1.6784  1.6440
  242MOL0     H32622  -1.140   3.143   7.198 -0.3965  0.9539 -0.1077
  242MOL0     H32623  -1.021   3.065   7.093  3.4625  1.5059  0.0666
  242MOL0     H32624  -0.998   3.339   7.241  1.7387 -0.5716  1.2565
  242MOL0     H32625  -0.906   3.199   7.266 -1.3157 -0.7756  0.6247
  242MOL0     H32626  -0.836   3.406   7.089 -0.4206 -0.0149 -0.2219
  242MOL0     H32627  -0.898   3.283   6.986  2.7892 -0.8872 -1.4525
  242MOL0     H32628  -0.636   3.250   7.019  3.0010 -2.5162  1.8823
  242MOL0     H32629  -0.725   3.125   7.088  2.7325 -0.5819 -2.5415
  242MOL0     H32630  -0.484   3.090   7.060 -0.4935  2.1284  0.3361
  242MOL0     H32631  -0.302   2.937   7.134  0.7784  0.1202  0.5259
  242MOL0     H32632  -0.246   2.629   7.560 -0.0789  0.7065  1.3421
  242MOL0     H32633  -0.078   2.421   7.561 -0.5488  0.3973 -3.1507
  242MOL0     H32634   0.360   2.497   7.634  0.8531 -0.8334  0.4548
  242MOL0     H32635   0.267   2.514   7.792 -0.0619  0.9888 -0.4531
  242MOL0     H32636   0.273   2.268   7.801  1.4753 -3.2295  1.0288
  242MOL0     H32637   0.349   2.265   7.636 -2.3610  1.1868 -0.4946
  242MOL0     H32638   0.550   2.405   7.726 -0.9089  2.0322 -0.2971
  242MOL0     H32639   0.483   2.394   7.885 -1.8360  0.3658  0.0452
  242MOL0     H32640   0.547   2.155   7.733 -1.5775  1.4135  0.7423
  242MOL0     H32641   0.506   2.169   7.910  1.5413 -1.1248  2.1158
  242MOL0     H32642   0.763   2.139   7.899 -1.3111 -0.2140  1.1911
  242MOL0     H32643   0.718   2.297   7.943  0.1447  0.2789 -0.4270
  242MOL0     H32644   0.754   2.390   7.732 -1.7394 -1.5205  0.1455
  242MOL0     H32645   0.902   2.314   7.783 -1.3534  1.9535  2.1631
  242MOL0     H32646   0.730   2.258   7.541 -3.0886  2.3107  2.9339
  242MOL0     H32647   0.772   2.116   7.641 -1.8415  1.5248  2.4769
  242MOL0     H32648   0.984   2.337   7.553  1.7559  0.2185 -2.8281
  242MOL0     H32649   1.004   2.160   7.593  0.4833 -0.5855 -3.8156
  242MOL0     H32650   0.226   2.724   7.625 -1.2437 -1.0458  2.8765
  242MOL0     H32651   0.091   2.886   7.542  1.3445  0.1569 -2.3285
  242MOL0     H32652  -0.369   3.054   7.539  1.4593  2.1276 -0.8615
  242MOL0     H32653  -0.545   3.203   7.477 -4.1108 -1.4064 -2.1782
  242MOL0     H32654  -0.088   3.468   6.531  3.3765 -0.0807 -0.0152
  242MOL0     H32655   0.064   3.342   6.375 -1.9618  0.3080 -3.4102
  242MOL0     H32656   0.267   2.825   6.475  0.0043  1.2731  1.1127
  242MOL0     H32657   0.422   2.687   6.379  4.2974  1.7676  1.5481
  242MOL0     H32658   0.516   2.541   6.203 -1.5567  2.1793 -0.7440
  242MOL0     H32659   0.640   2.635   6.285 -0.5106  0.3683  0.7414
  242MOL0     H32660   0.669   2.531   5.990  2.1867  2.2555 -0.5231
  242MOL0     H32661   0.722   2.424   6.112  0.9207  0.6190  0.7260
  242MOL0     H32662   0.851   2.697   6.094  0.2821 -0.3120  3.4545
  242MOL0     H32663   0.894   2.558   5.993  1.8774 -0.1401  0.7401
  242MOL0     H32664   1.018   2.582   6.230  0.4456 -1.1838 -1.2141
  242MOL0     H32665   0.867   2.519   6.296 -0.6257  0.0509 -0.2855
  242MOL0     H32666   1.062   2.198   6.073  1.0924  0.8873 -0.4770
  242MOL0     H32667   0.431   2.935   6.025 -2.9471 -0.0790 -0.9958
  242MOL0     H32668   0.209   3.105   5.989  0.7492  0.7125 -1.1263
  242MOL0     H32669   0.226   3.197   6.140  2.6137  1.3230 -0.1554
  242MOL0     H32670   0.361   3.159   6.046 -0.3099  0.6723  0.5781
  243MOL0     O32671   4.844   6.942   0.597 -0.0973  0.8020  0.3967
  243MOL0     C32672   4.883   6.878   0.689 -0.0941  0.4374  0.8554
  243MOL0     O32673   4.813   6.783   0.751  0.9061  0.4496 -0.9579
  243MOL0     C32674   4.688   6.733   0.712  0.3859 -0.0643 -0.3688
  243MOL0     C32675   4.594   6.786   0.623  0.8090  0.6156  0.2961
  243MOL0     C32676   4.473   6.728   0.592 -0.1065  0.4239 -1.1671
  243MOL0     C32677   4.426   6.619   0.668 -1.3440 -0.6555 -0.7657
  243MOL0     O32678   4.305   6.571   0.634  0.1173  0.0117 -0.4423
  243MOL0     C32679   4.234   6.505   0.742  0.3816 -0.1383  0.6591
  243MOL0     C32680   4.240   6.350   0.724 -0.7174  0.6362 -0.4704
  243MOL0     C32681   4.365   6.279   0.757  0.0473  0.4431 -0.0637
  243MOL0     C32682   4.346   6.137   0.761 -0.8517  0.5995 -0.2166
  243MOL0     C32683   4.477   6.069   0.802 -0.2248 -0.0058  0.3462
  243MOL0     C32684   4.522   6.085   0.960  0.3556 -0.4523  0.2643
  243MOL0     C32685   4.662   6.020   0.988  0.3530  0.6695  0.1793
  243MOL0     C32686   4.687   6.040   1.141 -0.4996  0.2775  1.1045
  243MOL0     N32687   4.717   6.177   1.184  0.5347  0.3436  0.3755
  243MOL0     C32688   4.651   6.255   1.274  0.4280 -0.2794 -0.1238
  243MOL0     C32689   4.726   6.360   1.308 -0.4591  0.4063 -0.0530
  243MOL0     C32690   4.699   6.462   1.413  0.1548  0.1285  0.7189
  243MOL0     C32691   4.647   6.423   1.555 -0.0205 -0.6205  0.5402
  243MOL0     C32692   4.619   6.553   1.640  0.0073 -0.4174 -0.3203
  243MOL0     C32693   4.535   6.665   1.579  0.2939 -1.0926 -0.7776
  243MOL0     O32694   4.402   6.631   1.523 -0.3701  0.2580 -0.2032
  243MOL0     C32695   4.320   6.732   1.477 -0.6487  0.0227  0.2892
  243MOL0     C32696   4.333   6.866   1.508 -0.0504 -0.4251 -0.6855
  243MOL0     C32697   4.233   6.968   1.489  0.1068 -0.1450 -0.6764
  243MOL0     C32698   4.121   6.935   1.407  0.2635  0.0094  0.0159
  243MOL0     C32699   4.021   7.035   1.357 -0.3507  0.7670  0.2269
  243MOL0     O32700   4.069   7.158   1.325 -0.5919  0.4241 -0.2511
  243MOL0     C32701   3.976   7.251   1.273  0.1525 -0.9853  0.1223
  243MOL0     C32702   3.848   7.283   1.339 -0.1421  0.1502 -0.2150
  243MOL0     C32703   3.761   7.376   1.285  0.3715  0.1765 -0.5001
  243MOL0     C32704   3.795   7.426   1.159 -0.4456 -0.1668 -0.1748
  243MOL0     O32705   3.716   7.512   1.100  0.6324 -0.0752 -0.6699
  243MOL0     C32706   3.762   7.624   1.030  0.5357  0.2935 -0.1177
  243MOL0     C32707   3.727   7.583   0.891 -0.6070 -0.0535  0.3328
  243MOL0     C32708   3.805   7.672   0.793  0.3185  0.5517 -0.1012
  243MOL0     C32709   3.747   7.811   0.804  0.4322 -0.8049 -0.1928
  243MOL0     C32710   3.819   7.893   0.707  0.7783  0.9010 -0.8509
  243MOL0     C32711   3.763   8.039   0.720  0.4150 -0.7508 -0.0643
  243MOL0     C32712   3.803   8.136   0.609  0.3328 -1.0836 -0.3369
  243MOL0     C32713   3.955   8.156   0.607  0.3490 -0.2255 -0.2785
  243MOL0    Cl32714   4.000   8.221   0.754 -0.0693  0.1878  0.0314
  243MOL0     C32715   3.919   7.405   1.096 -0.0248  0.3398 -0.4315
  243MOL0     C32716   4.009   7.319   1.149 -0.6193  0.4435 -0.5341
  243MOL0     O32717   3.908   6.996   1.336 -0.1476  0.3966 -0.4220
  243MOL0     C32718   4.106   6.796   1.374  0.3478  0.4358 -0.2034
  243MOL0     C32719   4.201   6.708   1.405  0.0592  0.4587  0.1192
  243MOL0     N32720   4.851   6.327   1.252  0.0154 -1.3654 -1.2205
  243MOL0     N32721   4.844   6.229   1.168 -0.2524 -0.8748 -0.7265
  243MOL0     C32722   4.516   6.570   0.766 -0.4437  0.2845 -0.0351
  243MOL0     C32723   4.642   6.624   0.786 -0.2469  0.4353 -0.1487
  243MOL0     C32724   5.008   6.910   0.755  0.7561 -0.9401  0.2368
  243MOL0     C32725   5.031   6.873   0.894  0.0535  0.5843  0.2142
  243MOL0     C32726   5.149   6.896   0.961  0.4248  0.3838  0.6455
  243MOL0     C32727   5.249   6.958   0.900  0.4972  0.4066  0.5327
  243MOL0     O32728   5.374   6.984   0.944 -1.0940 -0.0128 -0.0575
  243MOL0     C32729   5.399   6.988   1.089 -0.3450 -0.7596  1.3553
  243MOL0     C32730   5.506   7.089   1.120  0.9343 -0.3205 -0.0631
  243MOL0     C32731   5.632   7.069   1.029  0.2806 -0.1217 -0.9927
  243MOL0     C32732   5.701   6.931   1.063 -0.2857  0.1491  0.0244
  243MOL0     C32733   5.826   6.908   0.989  0.2841  0.3589  0.8615
  243MOL0     C32734   5.931   6.917   0.936  0.3501  0.6009  0.0665
  243MOL0     C32735   5.231   7.000   0.768  0.1331  0.9099  0.9224
  243MOL0     C32736   5.117   6.978   0.694  0.4378 -0.3227  0.7177
  243MOL0     C32737   5.102   7.022   0.553 -0.7338 -0.2859  0.4878
  243MOL0     H32738   4.614   6.882   0.575 -2.6180  1.2235 -0.2264
  243MOL0     H32739   4.403   6.769   0.520 -0.4057  1.0913 -0.5152
  243MOL0     H32740   4.271   6.523   0.844 -1.2652 -0.4394  1.3421
  243MOL0     H32741   4.133   6.546   0.749  0.4517  0.0998  0.2755
  243MOL0     H32742   4.196   6.314   0.630  1.9156 -2.7700 -0.6179
  243MOL0     H32743   4.172   6.310   0.799  0.9520  0.4668  1.0209
  243MOL0     H32744   4.405   6.304   0.856  2.7762 -2.1302 -0.3636
  243MOL0     H32745   4.432   6.317   0.679 -1.3141  3.4753  0.1201
  243MOL0     H32746   4.262   6.114   0.828 -0.9108 -0.0714 -0.5070
  243MOL0     H32747   4.316   6.099   0.663 -0.2096 -1.3587  0.2903
  243MOL0     H32748   4.459   5.962   0.790 -1.3230  0.3470 -1.5228
  243MOL0     H32749   4.556   6.114   0.742  0.9992 -2.2432  0.1999
  243MOL0     H32750   4.519   6.192   0.983 -1.4347  0.3683 -3.1567
  243MOL0     H32751   4.446   6.031   1.018  3.2037 -3.1746  1.7936
  243MOL0     H32752   4.736   6.084   0.939 -0.1391  1.1884  0.1009
  243MOL0     H32753   4.667   5.915   0.960 -2.3111 -0.6073  3.6528
  243MOL0     H32754   4.598   6.017   1.199  0.2460  2.6575  3.3918
  243MOL0     H32755   4.775   5.978   1.159  1.7057  2.2500 -1.8836
  243MOL0     H32756   4.553   6.222   1.307  0.4450 -1.4653 -1.1886
  243MOL0     H32757   4.786   6.528   1.422  0.1014  0.2717  0.2565
  243MOL0     H32758   4.626   6.532   1.370 -2.8251 -3.0207  0.1834
  243MOL0     H32759   4.553   6.371   1.534 -0.6650  0.4088  0.8049
  243MOL0     H32760   4.718   6.358   1.607 -0.0834 -0.8254  0.3739
  243MOL0     H32761   4.710   6.600   1.678  0.2816 -0.9968 -0.2551
  243MOL0     H32762   4.560   6.521   1.726  0.6882  4.1150  2.1651
  243MOL0     H32763   4.594   6.706   1.497 -0.5059 -0.1977 -0.9291
  243MOL0     H32764   4.517   6.744   1.653  0.3419 -0.5587 -1.3195
  243MOL0     H32765   4.405   6.911   1.576 -1.8358  2.3384 -0.3996
  243MOL0     H32766   4.254   7.073   1.509  1.2458 -0.0148 -2.3117
  243MOL0     H32767   3.816   7.236   1.432  0.5421  1.5363  0.7617
  243MOL0     H32768   3.667   7.414   1.322  1.2682  1.6075  0.4407
  243MOL0     H32769   3.707   7.712   1.065 -1.8266 -1.1694  0.1165
  243MOL0     H32770   3.864   7.650   1.058  0.7940 -0.9494  0.1397
  243MOL0     H32771   3.748   7.480   0.862  2.0850  0.3117  0.7274
  243MOL0     H32772   3.620   7.601   0.876 -0.4129  1.2677  0.4148
  243MOL0     H32773   3.910   7.686   0.820  0.3167  0.5904 -0.1138
  243MOL0     H32774   3.798   7.632   0.692  0.7899  0.3152 -0.0448
  243MOL0     H32775   3.764   7.852   0.904 -1.8783  2.2833 -0.8904
  243MOL0     H32776   3.640   7.812   0.778  0.1755  2.0105  0.5779
  243MOL0     H32777   3.800   7.849   0.609 -2.7044 -2.5824  1.0675
  243MOL0     H32778   3.926   7.890   0.732  0.3548 -1.8956  1.1612
  243MOL0     H32779   3.657   8.022   0.698 -0.3862  2.3916  0.8325
  243MOL0     H32780   3.764   8.083   0.820 -0.4583  2.2513 -1.2599
  243MOL0     H32781   3.752   8.232   0.620  2.0811 -0.3733  2.4896
  243MOL0     H32782   3.781   8.093   0.510  0.3779 -0.2026 -0.7441
  243MOL0     H32783   4.016   8.067   0.590  0.1504 -0.5058  0.4548
  243MOL0     H32784   3.983   8.220   0.522  1.4302  1.2774  1.1587
  243MOL0     H32785   3.949   7.456   1.005 -0.1080 -1.5047 -1.5447
  243MOL0     H32786   4.095   7.291   1.090 -0.4332 -0.7206  0.2558
  243MOL0     H32787   4.011   6.765   1.333 -0.1964 -0.7862  1.8232
  243MOL0     H32788   4.184   6.609   1.363  0.2636  1.6425 -3.0169
  243MOL0     H32789   4.489   6.498   0.842  4.7078  0.0465  1.9553
  243MOL0     H32790   4.701   6.585   0.869 -0.1679 -1.8097 -1.1674
  243MOL0     H32791   4.971   6.819   0.966  2.1081  0.3333  1.8493
  243MOL0     H32792   5.161   6.861   1.063  0.3114 -1.4517  0.0574
  243MOL0     H32793   5.425   6.887   1.123 -0.2237 -2.1793 -2.5366
  243MOL0     H32794   5.314   7.023   1.149 -0.4104  2.0091 -0.1801
  243MOL0     H32795   5.535   7.086   1.226 -2.2337  2.1517  1.0594
  243MOL0     H32796   5.472   7.192   1.106  1.6233 -0.1624 -0.5957
  243MOL0     H32797   5.705   7.145   1.056  0.8513 -1.3372  1.1807
  243MOL0     H32798   5.597   7.067   0.926  1.5133 -1.2343 -1.4242
  243MOL0     H32799   5.730   6.946   1.168 -1.2483  1.4006  0.1372
  243MOL0     H32800   5.630   6.849   1.049 -0.9307  0.5432  0.8630
  243MOL0     H32801   6.026   6.918   0.887  0.7340 -0.5861  0.7430
  243MOL0     H32802   5.309   7.032   0.700 -0.0107 -0.3519  0.1227
  243MOL0     H32803   5.059   6.941   0.494  0.2024 -1.2496  1.0902
  243MOL0     H32804   5.054   7.119   0.537  1.3354  1.0251  1.7519
  243MOL0     H32805   5.194   7.052   0.502 -3.4143  4.9244 -2.0260
  244MOL0     O32806   4.964   2.838   8.346 -0.2872  0.0446  0.7432
  244MOL0     C32807   4.862   2.777   8.310 -0.4170 -0.8782  0.6994
  244MOL0     O32808   4.740   2.827   8.328  0.8845  1.0765  0.2053
  244MOL0     C32809   4.734   2.938   8.407  0.0975  0.1986 -1.5442
  244MOL0     C32810   4.730   3.074   8.363  1.3564 -0.0065  1.0757
  244MOL0     C32811   4.723   3.185   8.448 -0.3980 -0.6590 -0.0214
  244MOL0     C32812   4.710   3.158   8.581  0.7529 -0.3570 -0.1776
  244MOL0     O32813   4.678   3.260   8.660  0.3570 -0.1385  0.1204
  244MOL0     C32814   4.784   3.290   8.754  0.9114  0.0848  0.2797
  244MOL0     C32815   4.736   3.360   8.886 -0.4936 -0.5644  0.7431
  244MOL0     C32816   4.689   3.246   8.984  0.0811 -0.9238  0.8308
  244MOL0     C32817   4.638   3.292   9.122 -0.2912  0.0240 -0.2603
  244MOL0     C32818   4.624   3.175   9.223  0.2231  0.2522 -0.1956
  244MOL0     C32819   4.543   3.064   9.153  0.4674  0.6295 -1.1566
  244MOL0     C32820   4.397   3.099   9.106 -0.1377 -0.3320  1.5019
  244MOL0     C32821   4.312   3.161   9.209 -0.6427  0.3861  1.0686
  244MOL0     N32822   4.173   3.167   9.160  0.3613 -0.0064  0.4560
  244MOL0     C32823   4.130   3.185   9.035 -0.5726  0.0902  0.3124
  244MOL0     C32824   3.998   3.186   9.042  0.1848 -0.1718 -0.2843
  244MOL0     C32825   3.904   3.193   8.923  0.4712  0.4114 -0.5696
  244MOL0     C32826   3.917   3.063   8.839 -0.6841  1.3930  0.9989
  244MOL0     C32827   4.010   3.085   8.718 -0.1852  0.7133 -0.0717
  244MOL0     C32828   3.993   2.967   8.619  0.3806  0.1838  0.0106
  244MOL0     O32829   4.004   2.845   8.692 -0.1942 -0.3839 -0.1477
  244MOL0     C32830   4.121   2.792   8.732  0.8619  0.2046 -0.3272
  244MOL0     C32831   4.249   2.852   8.737 -0.1401 -0.5938 -0.3193
  244MOL0     C32832   4.350   2.807   8.827 -0.2193  0.1560  0.9080
  244MOL0     C32833   4.337   2.686   8.901 -0.0716  0.5116  0.0372
  244MOL0     C32834   4.457   2.626   8.965  0.7372 -1.3672  0.2547
  244MOL0     O32835   4.576   2.703   8.972 -0.2199 -0.4826 -0.5394
  244MOL0     C32836   4.690   2.632   9.016 -0.5718 -0.5283  0.1767
  244MOL0     C32837   4.727   2.521   8.938  0.5437  0.8834  1.0427
  244MOL0     C32838   4.844   2.453   8.967 -0.0484 -0.2160 -0.5450
  244MOL0     C32839   4.915   2.491   9.093 -0.4169 -0.8076 -0.4651
  244MOL0     O32840   5.026   2.424   9.147  0.3224  0.5039  0.8685
  244MOL0     C32841   5.108   2.343   9.056  0.2759 -0.1135  1.4624
  244MOL0     C32842   5.050   2.198   9.071 -0.1133 -0.2340 -0.5143
  244MOL0     C32843   5.117   2.101   8.984 -0.0481  0.4022  0.4669
  244MOL0     C32844   5.032   2.005   8.917 -0.6444 -0.2926 -0.2004
  244MOL0     C32845   5.109   1.906   8.830 -0.5402  0.9590 -0.1175
  244MOL0     C32846   5.161   1.778   8.905 -0.3022  0.5599 -0.5824
  244MOL0     C32847   5.246   1.696   8.803  0.6819 -0.7555 -0.8279
  244MOL0     C32848   5.268   1.552   8.860 -0.4885  0.1237  0.2202
  244MOL0    Cl32849   5.374   1.478   8.731 -0.0809 -0.0118 -0.1743
  244MOL0     C32850   4.864   2.583   9.178  0.3461 -0.1564  0.6821
  244MOL0     C32851   4.748   2.657   9.139 -0.0666  0.6496 -0.7895
  244MOL0     O32852   4.443   2.509   8.994  0.6003  0.4169 -0.2384
  244MOL0     C32853   4.220   2.607   8.864 -0.5924 -0.9119  0.3503
  244MOL0     C32854   4.121   2.665   8.789 -0.2380  0.0026 -0.6820
  244MOL0     N32855   3.964   3.177   9.179  0.2349 -0.0481  0.3860
  244MOL0     N32856   4.068   3.164   9.245  0.3456 -0.1624  0.5455
  244MOL0     C32857   4.724   3.033   8.631  0.0663 -0.7685  0.7723
  244MOL0     C32858   4.731   2.919   8.544 -0.1871  0.0825 -0.1524
  244MOL0     C32859   4.893   2.661   8.215  0.3274 -0.3309 -0.1016
  244MOL0     C32860   4.804   2.627   8.110 -0.1889  0.2435 -0.6262
  244MOL0     C32861   4.832   2.505   8.033  0.8128 -0.7631  1.2358
  244MOL0     C32862   4.943   2.433   8.062 -0.3066  0.1325 -0.1853
  244MOL0     O32863   4.968   2.313   8.003  0.1749  0.7222 -0.8140
  244MOL0     C32864   4.868   2.244   7.933 -0.0144 -0.5553  0.0205
  244MOL0     C32865   4.739   2.200   8.017  0.1479 -0.1268 -0.3709
  244MOL0     C32866   4.749   2.069   8.088 -0.1769  0.1521  0.0174
  244MOL0     C32867   4.611   2.021   8.145  0.2262 -0.2557 -1.5880
  244MOL0     C32868   4.589   2.080   8.283  0.2492 -0.6732  0.1067
  244MOL0     C32869   4.562   2.111   8.400 -0.4020 -0.5073  0.8689
  244MOL0     C32870   5.032   2.470   8.165 -0.1795 -0.1509 -0.2789
  244MOL0     C32871   5.008   2.585   8.241  0.0375  0.8657 -0.5049
  244MOL0     C32872   5.124   2.630   8.329 -0.0299  0.5031  0.2292
  244MOL0     H32873   4.735   3.092   8.256  3.3424  0.6286  1.2357
  244MOL0     H32874   4.738   3.286   8.413  2.8387 -1.1532 -0.4079
  244MOL0     H32875   4.832   3.201   8.795  4.4393  2.5379  2.0417
  244MOL0     H32876   4.867   3.340   8.703  1.3261  0.6577  1.4797
  244MOL0     H32877   4.646   3.419   8.870 -0.8110 -1.2221  0.0040
  244MOL0     H32878   4.811   3.416   8.943 -3.5232  1.5033  2.9611
  244MOL0     H32879   4.765   3.168   8.997  0.3428 -0.6339  1.0430
  244MOL0     H32880   4.601   3.198   8.940  0.4400 -1.2223  0.4303
  244MOL0     H32881   4.709   3.359   9.172  1.8645 -2.0602 -0.3833
  244MOL0     H32882   4.547   3.344   9.091  0.7992  0.0938 -3.7551
  244MOL0     H32883   4.722   3.145   9.263  1.7035  2.2075 -2.0615
  244MOL0     H32884   4.566   3.204   9.311  0.3564  0.4228 -0.1622
  244MOL0     H32885   4.608   3.023   9.076 -0.0265  0.0865 -1.2990
  244MOL0     H32886   4.542   2.981   9.225  1.3960  2.8723  1.6506
  244MOL0     H32887   4.346   3.009   9.070  0.1671  1.0505 -3.0091
  244MOL0     H32888   4.404   3.167   9.021  4.2118  0.5768  2.3589
  244MOL0     H32889   4.306   3.101   9.300 -1.5823 -2.5969 -0.8125
  244MOL0     H32890   4.363   3.255   9.233  1.3667 -0.4968  0.4281
  244MOL0     H32891   4.185   3.202   8.942  2.1516 -0.2195  1.7433
  244MOL0     H32892   3.811   3.187   8.981  0.4072 -0.7435 -0.7568
  244MOL0     H32893   3.905   3.289   8.872 -0.6821 -0.1601 -1.7107
  244MOL0     H32894   3.971   2.988   8.898 -4.1772 -0.1453  2.4670
  244MOL0     H32895   3.815   3.035   8.811  0.2325 -1.5925  0.1832
  244MOL0     H32896   4.115   3.085   8.745 -0.7821 -3.0278  3.2023
  244MOL0     H32897   3.981   3.172   8.658 -0.3535 -0.7163 -2.2091
  244MOL0     H32898   4.075   2.964   8.547  2.1511  2.5265  1.7509
  244MOL0     H32899   3.891   2.964   8.580 -1.1661  3.0429  3.2888
  244MOL0     H32900   4.269   2.948   8.691  2.1124 -0.6318  0.4510
  244MOL0     H32901   4.437   2.871   8.835 -0.8047  1.3068 -1.1405
  244MOL0     H32902   4.658   2.492   8.860  0.0506  1.5021  1.2394
  244MOL0     H32903   4.888   2.380   8.899  1.0363 -1.4689  1.4033
  244MOL0     H32904   5.108   2.374   8.951 -3.3272  1.3827  1.7778
  244MOL0     H32905   5.212   2.338   9.092  0.2208 -0.8731  1.5327
  244MOL0     H32906   5.063   2.176   9.178  1.0390  4.6902  0.6161
  244MOL0     H32907   4.941   2.208   9.064 -0.3055 -0.6549  1.2739
  244MOL0     H32908   5.172   2.166   8.915 -1.1041  2.1395  1.1800
  244MOL0     H32909   5.197   2.047   9.035 -1.4469 -2.2589 -0.0117
  244MOL0     H32910   4.969   2.066   8.853 -2.6538  1.0701  2.8332
  244MOL0     H32911   4.971   1.952   8.991  1.0951 -0.0286  1.5079
  244MOL0     H32912   5.196   1.954   8.784  0.5970 -0.1071  0.8155
  244MOL0     H32913   5.055   1.869   8.743  1.2052 -0.4003 -0.6878
  244MOL0     H32914   5.226   1.813   8.985 -0.6052  4.3675 -1.8374
  244MOL0     H32915   5.072   1.732   8.950 -0.2384  1.5262  0.5620
  244MOL0     H32916   5.335   1.756   8.780  0.0585 -0.9068 -4.1285
  244MOL0     H32917   5.190   1.699   8.709 -0.5467 -1.1086 -0.1273
  244MOL0     H32918   5.332   1.556   8.948  0.5116  0.8525 -0.5147
  244MOL0     H32919   5.173   1.500   8.874 -0.6344 -0.6948 -3.0568
  244MOL0     H32920   4.922   2.597   9.269  3.3007 -0.5310 -1.0076
  244MOL0     H32921   4.715   2.740   9.202  1.4597 -0.7169  1.9797
  244MOL0     H32922   4.213   2.508   8.909  0.0023 -1.4221 -0.6398
  244MOL0     H32923   4.031   2.604   8.787  1.0444 -1.9918 -1.7906
  244MOL0     H32924   4.716   3.018   8.738 -3.5997  3.0775  1.3014
  244MOL0     H32925   4.734   2.821   8.591 -1.7258  0.3241  0.5152
  244MOL0     H32926   4.719   2.689   8.083 -0.7799 -0.1560  0.2679
  244MOL0     H32927   4.769   2.487   7.947 -0.6973  1.9357  1.6296
  244MOL0     H32928   4.917   2.157   7.887 -1.7891 -1.0405 -1.0632
  244MOL0     H32929   4.842   2.311   7.850  0.1798  0.8094  1.0317
  244MOL0     H32930   4.657   2.203   7.945 -1.6559 -0.4991  1.5907
  244MOL0     H32931   4.714   2.278   8.089  0.3054 -0.8671  0.4874
  244MOL0     H32932   4.831   2.091   8.158 -0.2682  1.6153 -0.3049
  244MOL0     H32933   4.783   2.002   8.009  0.1534  1.5372 -1.0638
  244MOL0     H32934   4.538   2.034   8.064 -1.0992  1.6191 -0.1665
  244MOL0     H32935   4.619   1.913   8.161  1.1567  0.0762  0.4248
  244MOL0     H32936   4.549   2.149   8.500  2.8615 -1.6337  1.8628
  244MOL0     H32937   5.111   2.397   8.179 -1.5803 -1.7141 -0.1421
  244MOL0     H32938   5.085   2.654   8.428 -1.5712 -2.1951  0.3728
  244MOL0     H32939   5.194   2.547   8.343 -2.1288 -0.9385  2.9378
  244MOL0     H32940   5.167   2.723   8.291 -2.1605  1.7054  0.5615
  245MOL0     O32941   3.121   7.704  11.231 -1.1921 -0.6982 -0.8436
  245MOL0     C32942   3.196   7.795  11.255 -0.5216  0.5150 -0.1427
  245MOL0     O32943   3.167   7.885  11.351 -0.1737 -0.0705  0.1430
  245MOL0     C32944   3.234   8.002  11.355 -0.2553 -0.2998 -0.3582
  245MOL0     C32945   3.369   8.017  11.394 -0.3174  0.1134 -0.0933
  245MOL0     C32946   3.431   8.135  11.409 -0.4319  0.8497 -0.4181
  245MOL0     C32947   3.367   8.250  11.374 -0.1048 -0.2916  0.2216
  245MOL0     O32948   3.422   8.371  11.382 -0.5766  0.1484 -0.0024
  245MOL0     C32949   3.560   8.382  11.399  0.0895  0.5781 -0.7168
  245MOL0     C32950   3.602   8.535  11.390  0.5501  0.1586 -0.5426
  245MOL0     C32951   3.748   8.550  11.330  0.3061 -1.2210 -0.0655
  245MOL0     C32952   3.808   8.686  11.384  0.2175  0.8175  0.7015
  245MOL0     C32953   3.954   8.705  11.329  1.3039 -0.2405  0.3584
  245MOL0     C32954   4.057   8.647  11.428  0.4351  0.0239 -0.5163
  245MOL0     C32955   4.202   8.684  11.390  0.0709  0.7099  0.5026
  245MOL0     C32956   4.234   8.626  11.253  0.3327  0.1989  0.1224
  245MOL0     N32957   4.220   8.483  11.238  1.8543  0.0504 -0.1131
  245MOL0     C32958   4.106   8.427  11.202  0.0467  0.7555 -0.1515
  245MOL0     C32959   4.138   8.301  11.215 -0.9207 -0.2278  0.3202
  245MOL0     C32960   4.039   8.193  11.198 -0.1463  0.6523  0.8399
  245MOL0     C32961   4.023   8.109  11.324  0.4262 -0.5590 -0.4724
  245MOL0     C32962   3.945   7.983  11.307 -0.1592 -0.4457  0.7328
  245MOL0     C32963   3.937   7.896  11.430 -0.0453 -0.4996  0.3469
  245MOL0     O32964   4.064   7.841  11.458  0.0285 -0.1285 -0.5220
  245MOL0     C32965   4.118   7.741  11.382 -0.5711 -0.3874 -1.4004
  245MOL0     C32966   4.056   7.621  11.379  0.0759 -0.8091 -0.2233
  245MOL0     C32967   4.104   7.510  11.300 -0.9921 -0.0322  0.4293
  245MOL0     C32968   4.221   7.518  11.221  0.4202 -1.1542 -0.3136
  245MOL0     C32969   4.268   7.409  11.135 -0.4055 -0.5156  0.6753
  245MOL0     O32970   4.366   7.446  11.059  0.0762  0.4903  0.3001
  245MOL0     C32971   4.425   7.353  10.990 -0.3503 -0.6059  0.0128
  245MOL0     C32972   4.554   7.311  11.021 -1.1759 -0.1068 -0.0019
  245MOL0     C32973   4.624   7.224  10.920  0.2590 -0.2366  1.4013
  245MOL0     C32974   4.551   7.183  10.813 -1.6173  0.7936  0.7586
  245MOL0     O32975   4.594   7.092  10.704  0.5215  0.0124 -0.3744
  245MOL0     C32976   4.694   6.990  10.731 -0.1049  0.3227  0.3615
  245MOL0     C32977   4.839   7.052  10.707  0.7820 -0.4365 -0.0240
  245MOL0     C32978   4.934   6.938  10.674  0.2309 -0.3004  0.4014
  245MOL0     C32979   4.940   6.823  10.778 -0.3194  0.4668 -0.9264
  245MOL0     C32980   4.959   6.866  10.915 -0.2511  0.6195  0.6949
  245MOL0     C32981   5.101   6.929  10.949  0.6628  0.2547  0.4904
  245MOL0     C32982   5.125   6.973  11.093 -0.1147  0.1164  0.0683
  245MOL0     C32983   5.038   7.092  11.147 -1.1657 -0.5056 -0.0024
  245MOL0    Cl32984   5.114   7.230  11.062 -0.1326  0.4692 -0.0122
  245MOL0     C32985   4.426   7.227  10.789 -0.5723  0.4514  0.5102
  245MOL0     C32986   4.357   7.302  10.887 -0.7569  0.3721  0.4302
  245MOL0     O32987   4.201   7.301  11.121 -0.0007 -0.0879  1.1904
  245MOL0     C32988   4.287   7.652  11.229  0.5107 -0.6091  0.1117
  245MOL0     C32989   4.236   7.757  11.310 -0.7521  0.8137  0.2165
  245MOL0     N32990   4.263   8.285  11.263 -0.2354  0.6164 -0.2665
  245MOL0     N32991   4.318   8.397  11.274  0.0603 -0.3187  0.0702
  245MOL0     C32992   3.236   8.255  11.336 -0.5092  0.0270 -0.6279
  245MOL0     C32993   3.164   8.128  11.322  0.3683  0.3913  0.2661
  245MOL0     C32994   3.312   7.819  11.180  0.2529  1.0739 -0.1655
  245MOL0     C32995   3.323   7.916  11.080  0.8600  0.0548  0.1321
  245MOL0     C32996   3.445   7.945  11.018 -0.0534  0.3368  0.1487
  245MOL0     C32997   3.558   7.866  11.032 -0.3629  0.1749 -1.3488
  245MOL0     O32998   3.673   7.892  10.960  0.6147 -0.4625  0.2437
  245MOL0     C32999   3.807   7.854  10.998  0.3783  0.3719  0.6221
  245MOL0     C33000   3.843   7.713  10.934 -0.3152  0.2050 -0.6694
  245MOL0     C33001   3.996   7.676  10.955 -0.4659  0.2789  0.7822
  245MOL0     C33002   4.050   7.591  10.840  0.4648 -0.1924 -0.6250
  245MOL0     C33003   4.002   7.454  10.841  0.4491  0.2281  0.4965
  245MOL0     C33004   3.974   7.334  10.827  0.4401 -1.0642 -0.4655
  245MOL0     C33005   3.560   7.764  11.136  0.2780 -0.3254  0.5041
  245MOL0     C33006   3.436   7.731  11.204 -0.7894 -0.0856  0.2969
  245MOL0     C33007   3.428   7.610  11.289 -0.6853 -0.7485 -0.3244
  245MOL0     H33008   3.438   7.937  11.419  0.1213  0.6365  0.3957
  245MOL0     H33009   3.527   8.130  11.459  0.9875  0.5924 -2.9902
  245MOL0     H33010   3.590   8.340  11.495  0.6678 -1.1508 -1.6088
  245MOL0     H33011   3.614   8.318  11.328  0.6184  0.9701 -0.6729
  245MOL0     H33012   3.595   8.568  11.494  1.4524 -1.2673 -0.0156
  245MOL0     H33013   3.528   8.578  11.321  0.0907 -2.4389 -1.7868
  245MOL0     H33014   3.751   8.546  11.221  2.3051 -1.6517 -0.0363
  245MOL0     H33015   3.817   8.471  11.363  2.5593  0.7862  0.3415
  245MOL0     H33016   3.749   8.774  11.357  0.8402  0.0920 -3.7519
  245MOL0     H33017   3.807   8.677  11.493 -1.0267  0.0625  0.6459
  245MOL0     H33018   3.959   8.669  11.226  0.6630  0.2675  0.1388
  245MOL0     H33019   3.970   8.812  11.312  2.7412 -0.1407  2.0779
  245MOL0     H33020   4.031   8.689  11.526  0.0324  0.2035 -0.6946
  245MOL0     H33021   4.040   8.542  11.450 -0.9002  0.2023 -0.6150
  245MOL0     H33022   4.268   8.641  11.466 -1.1660 -2.4034 -0.0447
  245MOL0     H33023   4.208   8.793  11.393  3.4807  0.6769 -0.8617
  245MOL0     H33024   4.161   8.669  11.184 -1.9290 -0.9803  1.6757
  245MOL0     H33025   4.340   8.648  11.237  0.7237 -0.9413  1.0476
  245MOL0     H33026   4.010   8.465  11.170 -1.5258 -2.8223 -0.1951
  245MOL0     H33027   3.940   8.231  11.169 -0.7277 -0.9182  0.6344
  245MOL0     H33028   4.055   8.126  11.112 -2.8820 -0.8661  1.4060
  245MOL0     H33029   4.123   8.077  11.355  0.2947 -2.9460 -2.2092
  245MOL0     H33030   3.994   8.165  11.413  4.9381 -0.8218  1.4813
  245MOL0     H33031   3.989   7.935  11.218  1.0151 -0.4150  1.2798
  245MOL0     H33032   3.841   8.006  11.281  0.1837 -0.6659 -0.9335
  245MOL0     H33033   3.864   7.817  11.408 -1.0558  1.1289 -2.7649
  245MOL0     H33034   3.897   7.954  11.514  1.5496  1.1401  0.0261
  245MOL0     H33035   3.970   7.618  11.446  2.2597  0.2459  2.8192
  245MOL0     H33036   4.048   7.418  11.308 -1.6233  0.5408  4.5207
  245MOL0     H33037   4.588   7.324  11.123 -0.2446  0.1513 -0.3407
  245MOL0     H33038   4.726   7.190  10.926  0.1428 -1.1974 -0.8862
  245MOL0     H33039   4.684   6.943  10.830 -2.2949  3.9419  2.0842
  245MOL0     H33040   4.686   6.915  10.652  1.5188  1.5571 -1.0525
  245MOL0     H33041   4.833   7.120  10.622  3.4021  0.7089  0.6127
  245MOL0     H33042   4.868   7.120  10.787  0.1861 -0.6721  0.4002
  245MOL0     H33043   4.928   6.889  10.576  2.9078 -1.8819  0.9300
  245MOL0     H33044   5.038   6.973  10.676  0.0168  0.3194  2.2780
  245MOL0     H33045   5.019   6.760  10.736 -0.1154  0.5304 -0.6415
  245MOL0     H33046   4.849   6.762  10.773 -1.2382  1.7446 -0.3827
  245MOL0     H33047   4.946   6.778  10.979 -2.6856  1.1513  1.0278
  245MOL0     H33048   4.880   6.930  10.954 -0.1552 -0.3150  2.5305
  245MOL0     H33049   5.167   6.844  10.928  0.6614  0.3540  0.0876
  245MOL0     H33050   5.119   7.012  10.881  1.2522 -2.0659 -2.3466
  245MOL0     H33051   5.231   6.998  11.105 -0.0131  0.0937 -0.7291
  245MOL0     H33052   5.097   6.883  11.149 -0.8974  0.5665  0.4094
  245MOL0     H33053   4.933   7.071  11.124 -0.8478  0.0778 -2.1819
  245MOL0     H33054   5.045   7.118  11.253  0.3070  1.3433 -0.4954
  245MOL0     H33055   4.378   7.192  10.698  1.7868  4.7806 -2.7736
  245MOL0     H33056   4.255   7.328  10.861 -0.5537 -0.5911 -1.5723
  245MOL0     H33057   4.382   7.674  11.181  1.4912  1.8220  2.8631
  245MOL0     H33058   4.295   7.847  11.328 -0.0578  0.3337  0.3580
  245MOL0     H33059   3.195   8.350  11.305  3.2259  1.5204 -1.5169
  245MOL0     H33060   3.062   8.127  11.285  0.2152 -1.5095  0.6303
  245MOL0     H33061   3.243   7.987  11.062 -0.6163 -1.7935 -1.1106
  245MOL0     H33062   3.448   8.023  10.943  5.5164  0.2417 -0.0820
  245MOL0     H33063   3.813   7.852  11.107 -2.5780 -1.1674  0.8756
  245MOL0     H33064   3.881   7.929  10.969 -1.6788  2.0452 -0.6678
  245MOL0     H33065   3.817   7.710  10.828 -1.1750  1.0767 -0.4930
  245MOL0     H33066   3.773   7.641  10.978  1.6645 -0.7618  1.1007
  245MOL0     H33067   4.003   7.632  11.055  4.7854  0.4930  0.7734
  245MOL0     H33068   4.054   7.769  10.947  0.0856 -0.0715  0.6619
  245MOL0     H33069   4.021   7.635  10.744  1.1733  0.4282 -0.5584
  245MOL0     H33070   4.159   7.589  10.847  0.5543 -1.0448 -2.0171
  245MOL0     H33071   3.932   7.237  10.811  0.5628 -0.8038 -2.6312
  245MOL0     H33072   3.642   7.709  11.179  0.5993 -1.2476 -1.2157
  245MOL0     H33073   3.528   7.566  11.293  0.0467  0.8464  3.1389
  245MOL0     H33074   3.403   7.649  11.388 -0.3926  3.4043 -1.7020
  245MOL0     H33075   3.338   7.556  11.260 -2.3976  1.5122  0.4719
  246MOL0     O33076   9.864   3.777   3.877 -0.2854  0.0642  0.5252
  246MOL0     C33077   9.823   3.667   3.925 -0.1941  0.0730 -0.9311
  246MOL0     O33078   9.718   3.650   4.009  0.4822 -0.2904 -0.7786
  246MOL0     C33079   9.653   3.772   4.042 -0.0720  0.0257 -0.3212
  246MOL0     C33080   9.688   3.827   4.165  1.0832  0.1782 -0.1708
  246MOL0     C33081   9.625   3.938   4.204  1.1436 -0.7081  0.2369
  246MOL0     C33082   9.516   4.001   4.141 -0.5336  0.4230  0.2324
  246MOL0     O33083   9.468   4.118   4.198  0.0406  0.3482 -0.4172
  246MOL0     C33084   9.387   4.200   4.116 -0.7722 -0.3289 -0.0684
  246MOL0     C33085   9.342   4.325   4.194  0.3999  0.4007 -0.2134
  246MOL0     C33086   9.441   4.447   4.199  0.0116  0.4053  0.1661
  246MOL0     C33087   9.363   4.574   4.252  0.6944  0.4126  0.5311
  246MOL0     C33088   9.447   4.700   4.290  0.3466  0.6362 -0.1096
  246MOL0     C33089   9.354   4.781   4.375  0.3234 -0.7686 -0.7499
  246MOL0     C33090   9.436   4.905   4.422 -0.5147  0.4753 -0.1382
  246MOL0     C33091   9.479   4.995   4.298 -0.2157  0.0298  0.6879
  246MOL0     N33092   9.362   5.065   4.252 -0.2743 -0.0402 -1.1972
  246MOL0     C33093   9.292   5.053   4.136 -0.1347  0.3713  0.0690
  246MOL0     C33094   9.180   5.132   4.142 -0.7163  0.1570 -0.2349
  246MOL0     C33095   9.073   5.137   4.043  0.0712 -0.4340  0.7726
  246MOL0     C33096   9.015   5.002   3.981 -0.1036 -0.0188 -0.1432
  246MOL0     C33097   8.994   4.896   4.093  0.3898 -0.2366 -0.6242
  246MOL0     C33098   8.993   4.760   4.035  0.1484  0.1703 -0.2113
  246MOL0     O33099   9.110   4.735   3.960  0.0546 -0.4181 -0.1544
  246MOL0     C33100   9.152   4.612   3.923 -0.4645  0.6999  0.4453
  246MOL0     C33101   9.071   4.499   3.919  0.1444  0.8616  0.2363
  246MOL0     C33102   9.116   4.379   3.872 -0.1538  0.0400  0.0254
  246MOL0     C33103   9.255   4.364   3.840 -0.3182  0.3129  0.3137
  246MOL0     C33104   9.307   4.231   3.795 -0.3682  0.4454  0.0151
  246MOL0     O33105   9.422   4.234   3.718 -0.1455  0.5591 -0.6392
  246MOL0     C33106   9.456   4.107   3.667 -0.6240  0.0532  0.1929
  246MOL0     C33107   9.559   4.038   3.730  0.1083 -0.7192  0.1824
  246MOL0     C33108   9.623   3.925   3.669  0.5547 -0.6880  1.5940
  246MOL0     C33109   9.559   3.867   3.560 -0.0351  0.7788 -0.6037
  246MOL0     O33110   9.611   3.755   3.495  0.5200 -0.0763 -0.6617
  246MOL0     C33111   9.625   3.634   3.572  0.4039 -0.6547  0.9258
  246MOL0     C33112   9.552   3.514   3.494  0.6539  0.3648 -0.0336
  246MOL0     C33113   9.639   3.450   3.379 -0.6722  0.6424  0.0763
  246MOL0     C33114   9.746   3.341   3.441  0.0779 -0.2388  0.8899
  246MOL0     C33115   9.850   3.278   3.337  0.0235 -0.6217 -0.3318
  246MOL0     C33116   9.975   3.224   3.411  0.0580 -0.0006  0.3787
  246MOL0     C33117  10.078   3.150   3.315  0.9449 -0.0172 -0.6123
  246MOL0     C33118  10.034   3.011   3.264 -0.5484 -0.2965  0.5777
  246MOL0    Cl33119  10.072   2.864   3.365  0.2859  0.0376  0.0055
  246MOL0     C33120   9.447   3.927   3.497  0.1316 -0.1131  0.1026
  246MOL0     C33121   9.401   4.046   3.547 -0.0993 -0.5385 -0.6123
  246MOL0     O33122   9.246   4.126   3.827  0.0173 -0.3494  0.0546
  246MOL0     C33123   9.338   4.474   3.844 -0.0643  0.1435  0.2846
  246MOL0     C33124   9.286   4.597   3.882  1.2143  1.4650  0.3777
  246MOL0     N33125   9.181   5.195   4.265 -1.3068  0.6810  0.4506
  246MOL0     N33126   9.290   5.158   4.325  0.0865 -0.2211  0.0901
  246MOL0     C33127   9.473   3.937   4.025  0.1340 -1.2710 -0.4710
  246MOL0     C33128   9.538   3.829   3.968  0.4871  0.1600 -0.0405
  246MOL0     C33129   9.876   3.536   3.884 -0.5731 -0.1184  0.1256
  246MOL0     C33130   9.821   3.413   3.922  0.4100  0.8784 -0.3609
  246MOL0     C33131   9.873   3.291   3.876  0.4604 -0.3567  0.5336
  246MOL0     C33132   9.994   3.283   3.812 -0.7311 -1.1602  0.4785
  246MOL0     O33133  10.046   3.167   3.775  0.2218  0.0341  0.1844
  246MOL0     C33134  10.165   3.140   3.698  0.4025 -0.8387 -0.4464
  246MOL0     C33135  10.293   3.165   3.783  0.0902 -0.3608 -0.5893
  246MOL0     C33136  10.422   3.129   3.705 -0.4196 -0.2846  0.3886
  246MOL0     C33137  10.537   3.217   3.755  0.0350  0.3875 -0.1858
  246MOL0     C33138  10.542   3.339   3.674 -0.2960 -0.0413 -0.5991
  246MOL0     C33139  10.566   3.427   3.592  0.1960 -0.4436 -0.1363
  246MOL0     C33140  10.058   3.404   3.782 -0.2246 -0.1474  0.2238
  246MOL0     C33141  10.001   3.529   3.810  0.3709  0.4619  0.5463
  246MOL0     C33142  10.078   3.655   3.776 -0.4023 -0.2659  0.1673
  246MOL0     H33143   9.773   3.785   4.218  2.0800  3.1639  0.7872
  246MOL0     H33144   9.658   3.975   4.301 -2.1221  0.3447  1.0968
  246MOL0     H33145   9.442   4.229   4.026  3.4443 -4.9784  0.5271
  246MOL0     H33146   9.295   4.153   4.080 -0.2506  0.9549 -3.4459
  246MOL0     H33147   9.314   4.294   4.295 -1.2081 -0.2829 -0.8338
  246MOL0     H33148   9.250   4.366   4.153  0.6672  0.9297 -0.2911
  246MOL0     H33149   9.499   4.454   4.107 -0.7452 -5.6882 -1.2141
  246MOL0     H33150   9.520   4.421   4.269  2.4942 -1.8824 -3.1768
  246MOL0     H33151   9.295   4.605   4.173  0.6662  2.9018  1.4452
  246MOL0     H33152   9.306   4.536   4.337  3.1570 -0.0412  2.0930
  246MOL0     H33153   9.535   4.675   4.349  1.1761  1.1314 -1.1040
  246MOL0     H33154   9.480   4.755   4.202  1.4655 -1.2430 -0.9211
  246MOL0     H33155   9.272   4.815   4.311 -0.2894  1.1470  0.9299
  246MOL0     H33156   9.313   4.722   4.458  4.2596 -0.2765  1.8109
  246MOL0     H33157   9.527   4.865   4.467  0.1332 -2.7618 -3.7382
  246MOL0     H33158   9.380   4.966   4.493 -0.7994 -1.1303  1.0524
  246MOL0     H33159   9.551   5.073   4.327  0.7424 -0.5804  0.0213
  246MOL0     H33160   9.531   4.933   4.224 -1.0739  0.6137 -0.4195
  246MOL0     H33161   9.298   4.997   4.043 -0.0527 -0.2425  0.4346
  246MOL0     H33162   8.984   5.186   4.084 -1.7293 -1.2063 -1.9607
  246MOL0     H33163   9.102   5.201   3.959 -3.8633  0.3080 -0.2119
  246MOL0     H33164   8.912   5.021   3.949 -0.8701  2.2840  3.1375
  246MOL0     H33165   9.077   4.964   3.899 -1.2652  1.3708 -1.7323
  246MOL0     H33166   8.909   4.921   4.158 -1.1699 -0.8877 -2.3336
  246MOL0     H33167   9.076   4.895   4.165 -0.3309  1.2476  0.2642
  246MOL0     H33168   8.917   4.751   3.957 -1.3251 -1.1880  1.3083
  246MOL0     H33169   8.971   4.684   4.110 -1.4831  3.0956  2.5198
  246MOL0     H33170   8.967   4.498   3.950 -0.3383  3.5440 -0.9610
  246MOL0     H33171   9.038   4.306   3.855 -0.4074  0.3221 -0.0325
  246MOL0     H33172   9.615   4.095   3.803 -2.5020  1.3782  0.7182
  246MOL0     H33173   9.717   3.899   3.716  1.1754  2.9044  2.6503
  246MOL0     H33174   9.730   3.606   3.580  1.4065  1.5107 -2.4975
  246MOL0     H33175   9.575   3.645   3.669  1.0018  0.5538  1.1180
  246MOL0     H33176   9.532   3.437   3.569 -0.9385  1.7323  1.0194
  246MOL0     H33177   9.463   3.558   3.448  1.1202 -0.1469 -1.4857
  246MOL0     H33178   9.574   3.398   3.308 -2.3737  0.5558  1.6140
  246MOL0     H33179   9.697   3.529   3.333  1.2155  0.7198  2.3983
  246MOL0     H33180   9.703   3.262   3.504 -0.2187  0.7569  1.9650
  246MOL0     H33181   9.799   3.398   3.518 -0.4186  4.3221 -1.7619
  246MOL0     H33182   9.890   3.358   3.274  2.4035  0.3822  2.2159
  246MOL0     H33183   9.805   3.205   3.270 -1.4800 -0.8667  0.8723
  246MOL0     H33184  10.017   3.306   3.470 -2.7540  1.2286  0.8551
  246MOL0     H33185   9.948   3.152   3.489  0.6681 -0.3672  0.2567
  246MOL0     H33186  10.182   3.139   3.346 -0.2254 -2.3828  3.3242
  246MOL0     H33187  10.068   3.203   3.220 -0.9004 -3.5263 -2.5612
  246MOL0     H33188   9.926   3.008   3.253 -0.5023 -0.2932  0.0782
  246MOL0     H33189  10.083   3.000   3.166  1.6878  2.7924  1.1754
  246MOL0     H33190   9.404   3.887   3.407 -2.0016  4.7884 -1.4137
  246MOL0     H33191   9.332   4.120   3.510 -0.9252  0.7057  2.9716
  246MOL0     H33192   9.424   4.460   3.779 -1.5510  2.9108 -2.5653
  246MOL0     H33193   9.349   4.684   3.866  0.3773  1.9785 -0.2431
  246MOL0     H33194   9.373   3.972   3.998 -0.4764 -2.2337  0.4566
  246MOL0     H33195   9.503   3.785   3.875  3.6456 -2.2814 -0.2553
  246MOL0     H33196   9.737   3.400   3.990 -0.0507 -0.0144 -1.0809
  246MOL0     H33197   9.807   3.205   3.875  1.2389 -0.9621  0.2983
  246MOL0     H33198  10.162   3.217   3.620  0.0867 -0.4643 -0.0704
  246MOL0     H33199  10.146   3.037   3.669  1.6980 -1.2916  0.2572
  246MOL0     H33200  10.275   3.101   3.870  3.3951  1.9339  2.1032
  246MOL0     H33201  10.281   3.267   3.821 -3.6624 -0.8995  0.0356
  246MOL0     H33202  10.413   3.133   3.596  4.5188  0.9443 -0.2145
  246MOL0     H33203  10.449   3.024   3.716  1.0893 -0.2106 -1.9813
  246MOL0     H33204  10.521   3.238   3.861 -1.1838  0.5930 -0.4040
  246MOL0     H33205  10.626   3.155   3.741 -0.6313 -1.2640  2.3012
  246MOL0     H33206  10.572   3.511   3.525 -3.2196 -0.4086 -0.5531
  246MOL0     H33207  10.156   3.401   3.736 -0.1005 -1.9976  0.5540
  246MOL0     H33208  10.024   3.717   3.703  0.4212  0.6302  0.3081
  246MOL0     H33209  10.111   3.708   3.866  1.0351  1.4453 -1.2728
  246MOL0     H33210  10.172   3.634   3.724  1.4630  2.4564  2.1299
  247MOL0     O33211   8.135   2.351   3.318  0.0306  0.2214 -0.4821
  247MOL0     C33212   8.084   2.254   3.368 -0.1798 -0.3095  0.4649
  247MOL0     O33213   8.155   2.164   3.437 -1.0458  0.0513  0.3897
  247MOL0     C33214   8.114   2.032   3.470 -0.9435  0.6149  0.3343
  247MOL0     C33215   8.024   1.944   3.403  0.6185 -1.2286 -0.5365
  247MOL0     C33216   8.013   1.803   3.431 -0.1403 -0.3451 -0.1508
  247MOL0     C33217   8.095   1.755   3.537 -1.0039 -0.4895  0.7102
  247MOL0     O33218   8.076   1.625   3.575  0.0590  0.7168  0.6865
  247MOL0     C33219   7.960   1.604   3.647  0.0635 -0.8325 -0.0658
  247MOL0     C33220   7.977   1.481   3.727 -0.1085  0.5979 -0.8558
  247MOL0     C33221   8.089   1.493   3.834  0.4008  0.2837 -0.0550
  247MOL0     C33222   8.073   1.614   3.931  0.1925 -0.0684 -0.1822
  247MOL0     C33223   8.196   1.626   4.018  0.2056 -0.9105 -0.3318
  247MOL0     C33224   8.174   1.730   4.133 -0.5166  0.6034  0.1417
  247MOL0     C33225   8.307   1.755   4.216  0.3323 -0.5968 -0.2229
  247MOL0     C33226   8.319   1.902   4.259  0.4391  0.3095 -0.5552
  247MOL0     N33227   8.247   1.925   4.390  0.0639 -0.3188 -0.0588
  247MOL0     C33228   8.320   1.940   4.509  0.1738 -0.2840  0.2518
  247MOL0     C33229   8.213   1.968   4.591 -0.1130  0.5030  0.0822
  247MOL0     C33230   8.232   1.996   4.733 -0.1227  0.0810 -0.3183
  247MOL0     C33231   8.137   2.102   4.784  0.7348 -1.3936 -0.4808
  247MOL0     C33232   8.010   2.055   4.841 -0.6067  0.1366  0.6343
  247MOL0     C33233   8.008   1.985   4.970  0.7007 -1.0559 -1.4825
  247MOL0     O33234   7.946   2.079   5.062  0.5535  0.7914 -0.3211
  247MOL0     C33235   8.027   2.179   5.115  0.2209 -0.2395 -0.5027
  247MOL0     C33236   8.159   2.164   5.149  0.2207  0.5997 -0.1160
  247MOL0     C33237   8.224   2.258   5.225  0.5680 -0.2483 -0.1966
  247MOL0     C33238   8.164   2.385   5.251 -0.5280  0.1657 -0.9141
  247MOL0     C33239   8.219   2.480   5.338 -0.3663  0.5583 -0.3450
  247MOL0     O33240   8.153   2.595   5.363  0.7053  0.3262 -0.0352
  247MOL0     C33241   8.184   2.680   5.464  0.0103  0.0662 -0.2821
  247MOL0     C33242   8.119   2.669   5.578  0.7138  0.2075 -0.2851
  247MOL0     C33243   8.141   2.754   5.684 -0.7214  0.6295  0.3397
  247MOL0     C33244   8.241   2.852   5.665 -0.0657  1.0199 -0.0652
  247MOL0     O33245   8.294   2.940   5.758  0.3321 -0.1709  0.7546
  247MOL0     C33246   8.194   2.990   5.853 -0.2491 -0.0309 -0.7066
  247MOL0     C33247   8.178   2.919   5.993 -0.2137  0.5245 -0.5255
  247MOL0     C33248   8.316   2.904   6.079 -0.3265 -0.3119 -0.8688
  247MOL0     C33249   8.396   3.042   6.089  0.2946 -0.1974  0.2701
  247MOL0     C33250   8.317   3.146   6.170 -0.0794 -1.0645  0.0988
  247MOL0     C33251   8.420   3.253   6.199 -0.1491 -0.1095 -0.5924
  247MOL0     C33252   8.367   3.360   6.296 -0.2311 -0.1120  0.1283
  247MOL0     C33253   8.454   3.486   6.309 -0.3940 -0.9248  0.9357
  247MOL0    Cl33254   8.371   3.621   6.407  0.5533 -0.0062 -0.3294
  247MOL0     C33255   8.295   2.873   5.541  0.0492  0.5640 -0.2524
  247MOL0     C33256   8.262   2.788   5.445 -0.7800  0.4416  0.2153
  247MOL0     O33257   8.323   2.447   5.382  0.2233 -0.0511 -0.4805
  247MOL0     C33258   8.031   2.409   5.203 -1.5345 -0.6132 -0.4512
  247MOL0     C33259   7.966   2.305   5.142 -0.2689  1.0108 -0.0232
  247MOL0     N33260   8.096   1.963   4.528  1.4425  0.5423 -0.3884
  247MOL0     N33261   8.112   1.941   4.400  0.3820 -0.1823 -0.3590
  247MOL0     C33262   8.187   1.840   3.603  0.3987  0.1083  0.0988
  247MOL0     C33263   8.195   1.975   3.569 -0.8893 -0.1947 -0.9734
  247MOL0     C33264   7.936   2.239   3.350  1.1849 -0.2753  0.3369
  247MOL0     C33265   7.846   2.270   3.455 -0.1274 -0.5400  0.2423
  247MOL0     C33266   7.708   2.248   3.451 -0.9145  0.8544 -1.0373
  247MOL0     C33267   7.648   2.222   3.328  0.3541 -0.4866  0.1857
  247MOL0     O33268   7.517   2.222   3.319 -0.1619 -0.1133 -0.3311
  247MOL0     C33269   7.450   2.096   3.326  0.1067 -1.4572  0.5314
  247MOL0     C33270   7.309   2.142   3.361 -1.5294 -0.1549  0.0632
  247MOL0     C33271   7.295   2.179   3.511 -0.1533  0.8125  0.5324
  247MOL0     C33272   7.153   2.243   3.527 -0.4393  0.8318 -0.2231
  247MOL0     C33273   7.151   2.321   3.653  0.4395  0.0853  0.5921
  247MOL0     C33274   7.151   2.366   3.759 -0.2466 -0.4979 -1.1292
  247MOL0     C33275   7.735   2.210   3.214  0.0341  0.1949  0.0068
  247MOL0     C33276   7.875   2.219   3.228 -0.6598  0.2348  0.6479
  247MOL0     C33277   7.947   2.209   3.098  0.1849 -0.3288 -0.1282
  247MOL0     H33278   7.969   1.975   3.315  0.0337  1.3648  0.6504
  247MOL0     H33279   7.949   1.735   3.377  2.1371 -0.3669 -3.0932
  247MOL0     H33280   7.935   1.687   3.713 -1.0395 -0.7321 -0.5735
  247MOL0     H33281   7.893   1.595   3.561  0.0291 -1.5052  0.0202
  247MOL0     H33282   7.995   1.391   3.669 -1.1882  0.1614 -0.5273
  247MOL0     H33283   7.885   1.461   3.783 -0.2240  1.7155 -0.6073
  247MOL0     H33284   8.188   1.495   3.786 -0.2995  1.8397 -1.5394
  247MOL0     H33285   8.074   1.412   3.906 -1.8430 -0.4657 -1.2674
  247MOL0     H33286   8.067   1.710   3.878  0.0959 -0.2917 -0.5762
  247MOL0     H33287   7.985   1.605   3.994 -0.7040  0.2818 -1.3583
  247MOL0     H33288   8.231   1.539   4.075  0.0227  1.1880  3.2795
  247MOL0     H33289   8.276   1.668   3.955 -1.8740  2.7853 -0.7868
  247MOL0     H33290   8.138   1.820   4.080  0.8775  0.4356 -1.1469
  247MOL0     H33291   8.094   1.703   4.203 -1.2211  1.3245 -0.3589
  247MOL0     H33292   8.392   1.721   4.157  0.9914  0.6771 -0.0561
  247MOL0     H33293   8.287   1.696   4.306 -1.4634 -0.3516 -0.4263
  247MOL0     H33294   8.423   1.927   4.283 -0.2825 -0.4114  4.6066
  247MOL0     H33295   8.262   1.962   4.188 -0.3357  0.5416  0.2431
  247MOL0     H33296   8.424   1.931   4.537 -0.4517 -1.7074  2.4470
  247MOL0     H33297   8.208   1.906   4.791 -0.2486 -0.7277 -1.5933
  247MOL0     H33298   8.330   2.038   4.759 -0.7188  0.9103  0.6619
  247MOL0     H33299   8.188   2.166   4.858  0.3466  0.1112 -1.4596
  247MOL0     H33300   8.113   2.155   4.692  1.7536 -0.5739 -0.2994
  247MOL0     H33301   7.975   1.987   4.763 -1.7266  1.0539  0.2987
  247MOL0     H33302   7.953   2.147   4.857  0.9717  1.7887 -2.4378
  247MOL0     H33303   8.106   1.941   4.991  0.9302  0.5057  1.0495
  247MOL0     H33304   7.940   1.899   4.964  0.4397 -1.4579  3.3862
  247MOL0     H33305   8.206   2.066   5.144 -1.3533 -0.3786  2.3302
  247MOL0     H33306   8.320   2.228   5.267 -1.7462  0.4277  6.8994
  247MOL0     H33307   8.044   2.594   5.596  1.9743 -1.4990 -1.8217
  247MOL0     H33308   8.090   2.746   5.780  1.6507 -0.6793  1.5718
  247MOL0     H33309   8.213   3.097   5.868  1.2532  0.0690 -2.9339
  247MOL0     H33310   8.100   2.991   5.798 -0.7561 -4.1723 -0.2629
  247MOL0     H33311   8.108   2.977   6.053 -0.0469  1.9609 -1.6717
  247MOL0     H33312   8.147   2.815   5.977  1.2858  0.0992 -0.8508
  247MOL0     H33313   8.304   2.871   6.183  1.6084 -1.8355 -1.0611
  247MOL0     H33314   8.384   2.827   6.041  0.5429 -0.3718  0.7179
  247MOL0     H33315   8.408   3.079   5.986  2.0056 -1.7548 -0.1325
  247MOL0     H33316   8.498   3.021   6.123  1.0192 -0.4929 -1.9451
  247MOL0     H33317   8.296   3.104   6.268 -1.7462 -0.3766  0.0835
  247MOL0     H33318   8.227   3.186   6.121  0.0643 -0.2877  0.4447
  247MOL0     H33319   8.504   3.201   6.246 -0.0121 -2.9283 -3.6158
  247MOL0     H33320   8.445   3.299   6.104  1.2886 -2.4904 -1.4442
  247MOL0     H33321   8.353   3.323   6.398 -1.7345  0.8339  0.2976
  247MOL0     H33322   8.266   3.386   6.264 -0.3221  1.5196  1.5934
  247MOL0     H33323   8.543   3.454   6.363  0.4085 -2.3961 -1.1287
  247MOL0     H33324   8.483   3.524   6.210  0.3694 -1.0545  1.1088
  247MOL0     H33325   8.381   2.934   5.516 -0.2994  0.4087 -1.9500
  247MOL0     H33326   8.313   2.809   5.351 -3.3171 -0.0772 -1.4036
  247MOL0     H33327   7.986   2.508   5.203  2.9910  1.7007 -0.6783
  247MOL0     H33328   7.863   2.314   5.108  0.3209  1.2318 -1.8885
  247MOL0     H33329   8.243   1.791   3.681 -1.3357  0.4026  1.5918
  247MOL0     H33330   8.257   2.039   3.631  1.9325 -2.1527 -1.5664
  247MOL0     H33331   7.891   2.318   3.541  3.1025 -2.5049 -0.1736
  247MOL0     H33332   7.642   2.258   3.536  2.0105 -2.6984  2.0012
  247MOL0     H33333   7.486   2.023   3.399 -2.8415 -0.0148  3.7055
  247MOL0     H33334   7.441   2.052   3.226 -1.3996 -0.6403  0.2729
  247MOL0     H33335   7.235   2.069   3.327 -0.3269 -1.0510 -0.7285
  247MOL0     H33336   7.277   2.230   3.304 -0.6142  0.5193  0.5501
  247MOL0     H33337   7.374   2.251   3.536  0.3544  0.6630 -0.5588
  247MOL0     H33338   7.322   2.094   3.575  3.3385 -0.8075 -2.6631
  247MOL0     H33339   7.126   2.307   3.443 -0.8063  1.0430  0.0491
  247MOL0     H33340   7.075   2.166   3.526 -0.5042  0.8669 -2.4499
  247MOL0     H33341   7.161   2.415   3.854  2.7174  0.5434 -1.8731
  247MOL0     H33342   7.683   2.200   3.119 -1.6854  0.3079  0.8788
  247MOL0     H33343   8.042   2.155   3.103  1.4942  1.8757  0.0302
  247MOL0     H33344   7.882   2.199   3.010 -1.3056  1.3422  0.7181
  247MOL0     H33345   7.980   2.312   3.085  2.1154 -0.6511  1.6960
  248MOL0     O33346   6.702  10.389   0.796 -0.6805  0.5811 -0.0712
  248MOL0     C33347   6.710  10.265   0.810  0.5248 -0.2923  0.8268
  248MOL0     O33348   6.630  10.194   0.890  0.1054  0.1555  0.5542
  248MOL0     C33349   6.531  10.248   0.969  0.4702  0.6801  0.9767
  248MOL0     C33350   6.546  10.363   1.039  0.1367  0.3877 -1.4476
  248MOL0     C33351   6.441  10.408   1.125 -0.0270  0.1583  0.4929
  248MOL0     C33352   6.319  10.339   1.122  0.8668  0.6671  0.2675
  248MOL0     O33353   6.205  10.376   1.190 -0.4306 -0.4127 -0.3527
  248MOL0     C33354   6.164  10.508   1.173  0.6374 -0.5982 -0.8888
  248MOL0     C33355   6.058  10.553   1.267  0.3251 -0.7457 -0.9379
  248MOL0     C33356   6.000  10.688   1.219 -0.8324 -0.6601  0.2519
  248MOL0     C33357   5.882  10.723   1.298  0.1905 -0.3199 -0.6600
  248MOL0     C33358   5.797  10.817   1.206  0.2754  0.5191  0.0277
  248MOL0     C33359   5.643  10.843   1.244 -0.3075  0.7533 -0.0534
  248MOL0     C33360   5.567  10.901   1.126 -0.5953 -1.2496 -0.0216
  248MOL0     C33361   5.421  10.900   1.153  0.0053 -0.1334 -0.5839
  248MOL0     N33362   5.367  10.773   1.119 -0.1883  0.7983  0.3178
  248MOL0     C33363   5.338  10.669   1.203 -0.2719  0.6042 -0.2802
  248MOL0     C33364   5.252  10.586   1.133 -0.1888 -0.2603  0.3931
  248MOL0     C33365   5.179  10.469   1.198  1.2019  0.3867 -0.0303
  248MOL0     C33366   5.041  10.512   1.265  0.2663  0.0003 -0.5286
  248MOL0     C33367   4.957  10.616   1.183  0.1504 -0.5734 -0.5546
  248MOL0     C33368   4.828  10.660   1.269  0.1498  0.3940  0.4414
  248MOL0     O33369   4.734  10.740   1.191 -0.7141  0.0780 -0.1252
  248MOL0     C33370   4.634  10.822   1.244 -0.4523 -0.0135 -0.3776
  248MOL0     C33371   4.540  10.879   1.157 -0.3655 -0.7948 -0.4024
  248MOL0     C33372   4.462  10.981   1.193  0.0700 -0.0695 -1.5042
  248MOL0     C33373   4.459  11.015   1.330  1.1713  0.4361  0.2502
  248MOL0     C33374   4.356  11.112   1.376  0.5135 -0.4802 -0.2032
  248MOL0     O33375   4.259  11.142   1.286  0.5389 -0.2003  0.3332
  248MOL0     C33376   4.154  11.229   1.305 -1.0854 -1.3529  0.1132
  248MOL0     C33377   4.185  11.352   1.352 -0.1117 -0.6945 -0.1651
  248MOL0     C33378   4.091  11.448   1.382 -0.4228 -0.3909  0.7240
  248MOL0     C33379   3.956  11.425   1.355  0.3418  0.8448  0.0532
  248MOL0     O33380   3.857  11.516   1.361  0.4124  0.2894 -0.3105
  248MOL0     C33381   3.886  11.641   1.429 -1.0939 -0.6428 -0.3168
  248MOL0     C33382   3.754  11.724   1.449  0.2205 -0.0379 -0.4934
  248MOL0     C33383   3.792  11.866   1.463 -0.2799 -0.6458  0.1831
  248MOL0     C33384   3.666  11.949   1.457  0.3467 -1.0131 -0.8541
  248MOL0     C33385   3.673  12.101   1.438 -0.6037 -0.3531 -0.1297
  248MOL0     C33386   3.543  12.163   1.374  0.0220 -0.0306  1.3513
  248MOL0     C33387   3.518  12.313   1.401  0.3932  0.1106 -0.1941
  248MOL0     C33388   3.380  12.338   1.456  0.4810  0.1748 -0.9420
  248MOL0    Cl33389   3.276  12.323   1.315 -0.4176  0.2376 -0.4895
  248MOL0     C33390   3.919  11.294   1.305 -0.8877  0.0399 -0.6267
  248MOL0     C33391   4.025  11.201   1.293 -1.2735  0.1950 -0.4111
  248MOL0     O33392   4.373  11.174   1.486 -0.1079 -1.0207 -0.0783
  248MOL0     C33393   4.544  10.953   1.423  0.1102 -0.3678  0.1513
  248MOL0     C33394   4.643  10.858   1.385 -0.6834 -0.3516  0.0260
  248MOL0     N33395   5.234  10.642   1.013 -1.1072  0.4723 -0.0239
  248MOL0     N33396   5.302  10.748   1.006 -0.6614 -0.9637  0.3013
  248MOL0     C33397   6.308  10.221   1.046  0.2264 -0.0592 -0.0861
  248MOL0     C33398   6.418  10.165   0.982 -0.0559 -0.4496  0.0835
  248MOL0     C33399   6.805  10.208   0.713 -0.2934  0.0008 -0.0108
  248MOL0     C33400   6.923  10.273   0.687 -0.3305  0.7469 -0.1511
  248MOL0     C33401   7.008  10.230   0.586 -0.3111  0.3627  0.5019
  248MOL0     C33402   6.982  10.123   0.509  0.1213  1.2945  0.4262
  248MOL0     O33403   7.064  10.082   0.408  0.4050  0.5192  0.2932
  248MOL0     C33404   7.068   9.950   0.365 -0.4222  0.2595 -0.9038
  248MOL0     C33405   7.199   9.887   0.414 -0.1263 -0.3294 -0.3983
  248MOL0     C33406   7.203   9.737   0.400  0.2022 -0.4552  0.1582
  248MOL0     C33407   7.309   9.668   0.487  0.5229  0.2975 -0.3295
  248MOL0     C33408   7.440   9.716   0.457 -1.0694  0.6654  0.3828
  248MOL0     C33409   7.552   9.772   0.443  0.4046  1.1479  0.5254
  248MOL0     C33410   6.867  10.050   0.538 -0.2132  0.1921 -0.4723
  248MOL0     C33411   6.779  10.091   0.638  0.0871  0.8184  0.3497
  248MOL0     C33412   6.658  10.012   0.671  0.2503  0.4328 -0.0000
  248MOL0     H33413   6.642  10.407   1.018  1.2319 -2.7836 -3.9565
  248MOL0     H33414   6.442  10.497   1.187 -1.1072 -1.3247  2.7988
  248MOL0     H33415   6.256  10.567   1.182 -1.4636  2.8974 -0.7206
  248MOL0     H33416   6.140  10.538   1.071 -1.6056  3.3810  0.5928
  248MOL0     H33417   6.097  10.547   1.369 -1.5480 -2.1050 -0.2337
  248MOL0     H33418   5.975  10.482   1.270  0.8853 -1.6558 -3.7514
  248MOL0     H33419   5.979  10.659   1.115  1.8291  0.4295 -0.6744
  248MOL0     H33420   6.078  10.764   1.215  0.3836 -1.8273  1.1457
  248MOL0     H33421   5.831  10.632   1.330  0.5726  0.1132  1.3522
  248MOL0     H33422   5.915  10.792   1.377 -0.5632  1.0383 -1.5037
  248MOL0     H33423   5.843  10.915   1.192  2.0467 -0.4203 -1.2351
  248MOL0     H33424   5.795  10.778   1.103  0.2873  1.6171 -0.3986
  248MOL0     H33425   5.590  10.750   1.266 -0.6232  1.0907  0.6174
  248MOL0     H33426   5.632  10.911   1.329  2.4741 -0.5066  1.4377
  248MOL0     H33427   5.593  10.848   1.033  0.2680  1.3940 -1.3851
  248MOL0     H33428   5.587  11.005   1.098 -1.9352 -0.9496  0.0533
  248MOL0     H33429   5.401  10.925   1.257  0.1644  0.2380 -0.6425
  248MOL0     H33430   5.363  10.971   1.094 -1.4937 -0.0409  0.9354
  248MOL0     H33431   5.370  10.662   1.306 -0.0823 -1.9429 -0.4413
  248MOL0     H33432   5.175  10.393   1.120 -0.3734 -0.0432  0.4405
  248MOL0     H33433   5.238  10.438   1.285  1.2781  0.9356  0.1168
  248MOL0     H33434   4.975  10.425   1.280 -0.2310  0.7579  2.0961
  248MOL0     H33435   5.063  10.551   1.364  1.1006 -0.1642 -0.6428
  248MOL0     H33436   4.933  10.577   1.083 -1.2717 -0.0273 -0.4501
  248MOL0     H33437   5.013  10.708   1.164 -0.6959  1.2549  4.3214
  248MOL0     H33438   4.879  10.716   1.348  1.3769 -0.1778  0.0808
  248MOL0     H33439   4.776  10.584   1.327 -1.2104  1.1871  0.2992
  248MOL0     H33440   4.532  10.848   1.054  1.9559 -1.4441 -0.4462
  248MOL0     H33441   4.398  11.026   1.118 -5.0250 -0.2461  2.1835
  248MOL0     H33442   4.287  11.381   1.375  1.0523 -3.1801 -1.7741
  248MOL0     H33443   4.130  11.537   1.430  1.1208 -0.8242  0.3039
  248MOL0     H33444   3.931  11.617   1.526  2.4062  1.5565 -1.2148
  248MOL0     H33445   3.957  11.700   1.370 -0.2312 -1.6000 -0.2557
  248MOL0     H33446   3.688  11.700   1.365 -1.3066  0.4201  0.5405
  248MOL0     H33447   3.704  11.693   1.541 -1.3447 -3.6672 -2.3582
  248MOL0     H33448   3.842  11.872   1.560  4.1084 -2.2204 -1.7070
  248MOL0     H33449   3.865  11.908   1.393  0.2724  1.3698  1.8752
  248MOL0     H33450   3.614  11.930   1.552  1.6886  0.2374  0.1859
  248MOL0     H33451   3.601  11.916   1.375 -0.1079  0.2594 -1.0314
  248MOL0     H33452   3.767  12.121   1.387 -0.8734  1.5528  0.0477
  248MOL0     H33453   3.692  12.148   1.535  1.1848 -2.2613  0.5144
  248MOL0     H33454   3.531  12.147   1.266 -1.2160  2.5099  1.0465
  248MOL0     H33455   3.465  12.097   1.414 -0.5523 -1.3117 -1.6352
  248MOL0     H33456   3.515  12.364   1.305 -4.7905 -2.9905 -2.1100
  248MOL0     H33457   3.590  12.355   1.472 -2.7404  0.9001  2.8466
  248MOL0     H33458   3.358  12.274   1.542 -1.4425  1.0569 -0.7456
  248MOL0     H33459   3.365  12.437   1.499  1.0805 -0.8137  1.7684
  248MOL0     H33460   3.817  11.280   1.274 -2.4401  3.3024  2.2569
  248MOL0     H33461   4.003  11.097   1.269  1.8690 -0.2757 -1.6889
  248MOL0     H33462   4.539  10.987   1.526  0.7892  0.5984 -0.1161
  248MOL0     H33463   4.710  10.810   1.455 -3.6905 -4.9367  0.1890
  248MOL0     H33464   6.217  10.163   1.036  1.5392 -2.4860  0.9555
  248MOL0     H33465   6.408  10.077   0.919 -0.4235  0.2985 -0.9242
  248MOL0     H33466   6.947  10.362   0.744  0.2373 -1.7199  3.8421
  248MOL0     H33467   7.097  10.291   0.580 -0.3445  0.4752  1.1041
  248MOL0     H33468   7.062   9.941   0.256 -0.4118  0.0318 -0.8864
  248MOL0     H33469   6.996   9.877   0.402  1.0231 -0.8296 -0.1340
  248MOL0     H33470   7.198   9.913   0.521 -2.8257 -0.6680 -0.2774
  248MOL0     H33471   7.290   9.935   0.376 -0.9161  2.7861  1.3154
  248MOL0     H33472   7.227   9.710   0.297 -1.9997 -1.8833 -0.0498
  248MOL0     H33473   7.109   9.686   0.424  0.4501 -0.2035  1.8076
  248MOL0     H33474   7.285   9.693   0.591 -1.8341 -1.2139 -0.4415
  248MOL0     H33475   7.290   9.561   0.477 -3.2937  0.7461  0.4002
  248MOL0     H33476   7.653   9.802   0.421  1.9275 -2.9049  1.1204
  248MOL0     H33477   6.839   9.963   0.480  0.4276  0.6382 -1.4953
  248MOL0     H33478   6.573  10.081   0.671  0.1104  0.5797  4.2714
  248MOL0     H33479   6.634   9.936   0.597 -0.2457 -1.1006  1.6511
  248MOL0     H33480   6.664   9.955   0.764 -0.3310 -0.6821 -0.6374
  249MOL0     O33481   9.881   6.759  10.626 -0.7695  0.9087 -0.2958
  249MOL0     C33482   9.887   6.841  10.718 -0.3763  0.7850  0.0887
  249MOL0     O33483   9.939   6.828  10.844 -0.5933  0.7495  0.0028
  249MOL0     C33484   9.998   6.716  10.891  0.5412 -0.0563 -0.8535
  249MOL0     C33485   9.962   6.676  11.019 -0.2826 -0.0304 -0.8413
  249MOL0     C33486  10.014   6.556  11.062 -0.1299  0.4356 -0.0985
  249MOL0     C33487  10.078   6.469  10.973 -0.2632 -0.2075  0.0577
  249MOL0     O33488  10.125   6.340  11.002  0.1721 -0.7051 -0.7260
  249MOL0     C33489  10.070   6.276  11.117 -0.2583  0.3784  0.2546
  249MOL0     C33490  10.065   6.116  11.124 -0.8781 -0.2745  0.0505
  249MOL0     C33491  10.210   6.066  11.101  0.3243 -0.1496  0.9955
  249MOL0     C33492  10.219   5.922  11.136 -0.1998 -0.3676  0.9462
  249MOL0     C33493  10.351   5.852  11.111  0.1450  0.0377  0.2264
  249MOL0     C33494  10.458   5.886  11.218  0.3166  0.1121 -0.9730
  249MOL0     C33495  10.451   5.789  11.335 -0.5757 -0.2813 -0.2368
  249MOL0     C33496  10.578   5.811  11.417 -0.3554 -0.2357 -0.1119
  249MOL0     N33497  10.617   5.700  11.514 -0.7533 -0.1098 -0.0485
  249MOL0     C33498  10.742   5.672  11.561  0.1901 -0.1822  0.2889
  249MOL0     C33499  10.728   5.561  11.632 -0.2897  0.7271 -0.0579
  249MOL0     C33500  10.843   5.495  11.701 -0.1615  1.0687 -0.4300
  249MOL0     C33501  10.824   5.500  11.857 -0.9231 -0.1091 -1.4025
  249MOL0     C33502  10.930   5.399  11.920  0.3143  0.6167 -0.2475
  249MOL0     C33503  11.083   5.409  11.877  0.0611  0.6538  0.3422
  249MOL0     O33504  11.140   5.534  11.898  0.0935 -0.3904  0.3931
  249MOL0     C33505  11.263   5.539  11.930 -0.1822  0.4786 -0.7688
  249MOL0     C33506  11.370   5.544  11.848  0.1459 -0.3565  0.1554
  249MOL0     C33507  11.496   5.554  11.900  0.3539 -0.4849  0.1516
  249MOL0     C33508  11.514   5.573  12.034  0.2915  1.6355 -0.1897
  249MOL0     C33509  11.650   5.616  12.085  0.1983  0.8251 -1.4519
  249MOL0     O33510  11.758   5.595  12.008  1.6100 -0.4435  0.2604
  249MOL0     C33511  11.880   5.610  12.072 -1.5502 -0.1937  0.1349
  249MOL0     C33512  11.910   5.531  12.181 -0.2804 -0.4132 -0.0561
  249MOL0     C33513  12.040   5.544  12.243  0.3579 -1.0172  1.1391
  249MOL0     C33514  12.144   5.627  12.180  0.3704 -0.8384  0.7044
  249MOL0     O33515  12.260   5.626  12.250  0.4232 -1.2531 -0.2964
  249MOL0     C33516  12.363   5.704  12.194 -0.1390  0.0630 -0.5664
  249MOL0     C33517  12.350   5.850  12.239  0.3357 -0.1727  0.8186
  249MOL0     C33518  12.432   5.953  12.162 -0.3165  0.0314  0.5346
  249MOL0     C33519  12.433   6.084  12.235 -0.1725 -0.5853  1.0297
  249MOL0     C33520  12.520   6.202  12.182  0.1626 -0.4658  0.2075
  249MOL0     C33521  12.467   6.263  12.054  0.5993  0.2739 -0.2187
  249MOL0     C33522  12.552   6.393  12.016  1.0461  0.9500 -0.1262
  249MOL0     C33523  12.511   6.453  11.881  0.9990  0.5559 -0.1019
  249MOL0    Cl33524  12.339   6.428  11.837  0.0502  0.2310  0.1634
  249MOL0     C33525  12.106   5.692  12.058 -0.4279  0.5643  0.8256
  249MOL0     C33526  11.977   5.684  11.998 -0.9594  0.6733  0.0636
  249MOL0     O33527  11.649   5.661  12.204 -0.0129  0.5133 -0.9111
  249MOL0     C33528  11.406   5.541  12.120 -1.1128 -0.3058 -0.1396
  249MOL0     C33529  11.286   5.517  12.069  0.3229 -1.1062  0.1921
  249MOL0     N33530  10.590   5.529  11.634 -0.5847  0.4573  0.8520
  249MOL0     N33531  10.525   5.608  11.558 -0.3612  0.3721  1.0046
  249MOL0     C33532  10.125   6.517  10.857  0.1869  0.3281 -1.1704
  249MOL0     C33533  10.086   6.637  10.810  0.1924 -0.2451 -1.4658
  249MOL0     C33534   9.840   6.978  10.693  0.5418  0.6803  0.5341
  249MOL0     C33535   9.791   7.054  10.797  0.5324 -0.4823 -0.8270
  249MOL0     C33536   9.753   7.186  10.775 -0.9637 -1.3162  0.0309
  249MOL0     C33537   9.752   7.236  10.645 -0.4836 -0.3157 -0.6355
  249MOL0     O33538   9.725   7.368  10.619  0.2427  0.0953  1.1659
  249MOL0     C33539   9.597   7.385  10.549  0.0647 -1.0254 -0.8762
  249MOL0     C33540   9.598   7.502  10.460  0.0652 -0.0562 -0.3889
  249MOL0     C33541   9.566   7.631  10.537 -0.2959  0.3237  0.0365
  249MOL0     C33542   9.417   7.634  10.584  0.4355 -0.4018  0.6283
  249MOL0     C33543   9.381   7.776  10.609 -0.3089 -0.1322  0.3416
  249MOL0     C33544   9.350   7.895  10.619  0.0626  0.1598  0.7784
  249MOL0     C33545   9.768   7.152  10.544  0.1118  0.7565 -0.0063
  249MOL0     C33546   9.822   7.026  10.554 -1.3994  1.4368  0.1462
  249MOL0     C33547   9.886   6.965  10.436 -0.0647  0.2801  0.1210
  249MOL0     H33548   9.897   6.730  11.087 -0.0239 -0.1561 -0.4935
  249MOL0     H33549  10.008   6.523  11.165  0.8170 -2.0759 -0.7549
  249MOL0     H33550  10.126   6.317  11.202 -0.3011  0.7834  0.0872
  249MOL0     H33551   9.967   6.312  11.122 -1.5201 -2.5449 -1.7913
  249MOL0     H33552   9.992   6.077  11.054 -0.7345 -0.4489 -0.0013
  249MOL0     H33553  10.029   6.088  11.224  0.2399 -0.1990  0.4958
  249MOL0     H33554  10.271   6.115  11.177  0.6611  0.3828  0.3893
  249MOL0     H33555  10.256   6.086  11.004 -2.2921 -0.1219 -0.3475
  249MOL0     H33556  10.204   5.921  11.244  2.2279  0.0113  1.3593
  249MOL0     H33557  10.143   5.862  11.085 -0.3428  1.2664 -0.8829
  249MOL0     H33558  10.345   5.743  11.110  1.2636 -0.0513 -1.6125
  249MOL0     H33559  10.394   5.874  11.013  0.8568 -1.0634  0.2713
  249MOL0     H33560  10.558   5.867  11.176  0.9722  0.3353  0.4465
  249MOL0     H33561  10.457   5.992  11.244  0.8751 -0.0621 -0.2101
  249MOL0     H33562  10.452   5.684  11.303  5.0015 -1.2754  1.9425
  249MOL0     H33563  10.364   5.802  11.400 -1.2572 -0.2074 -1.1403
  249MOL0     H33564  10.667   5.825  11.356 -0.9788  0.6953 -0.8339
  249MOL0     H33565  10.568   5.900  11.480 -0.0075 -0.3493  0.1089
  249MOL0     H33566  10.836   5.725  11.547 -1.0309  1.5363 -2.4649
  249MOL0     H33567  10.864   5.399  11.652 -1.3535  1.8466 -2.5686
  249MOL0     H33568  10.940   5.544  11.688  1.7138 -1.8406  1.2853
  249MOL0     H33569  10.838   5.601  11.896  0.3279 -0.3482 -1.1732
  249MOL0     H33570  10.720   5.476  11.883 -1.0352  2.3254  0.8611
  249MOL0     H33571  10.890   5.297  11.921  1.0993  0.2975 -0.3088
  249MOL0     H33572  10.927   5.414  12.029 -3.4078 -4.6996  0.7879
  249MOL0     H33573  11.094   5.385  11.771  0.8085 -1.1215  0.7950
  249MOL0     H33574  11.142   5.327  11.919  0.5520 -1.8095 -4.4688
  249MOL0     H33575  11.361   5.550  11.740  1.0695  0.4060  0.1071
  249MOL0     H33576  11.581   5.573  11.835 -1.0302 -1.8380 -2.1847
  249MOL0     H33577  11.837   5.464  12.226 -1.3945 -0.9249 -2.4960
  249MOL0     H33578  12.072   5.504  12.339  0.4376  0.8488  1.9268
  249MOL0     H33579  12.461   5.665  12.222 -1.1086 -2.6620 -0.6934
  249MOL0     H33580  12.361   5.683  12.086  3.6005 -1.5535 -0.4435
  249MOL0     H33581  12.244   5.873  12.229  0.6525  0.3025 -2.3857
  249MOL0     H33582  12.378   5.853  12.345  1.8623  2.4903  0.4366
  249MOL0     H33583  12.536   5.930  12.135  0.5645 -0.0402  3.6553
  249MOL0     H33584  12.376   5.976  12.071  0.3373  1.6957  0.5135
  249MOL0     H33585  12.464   6.080  12.340  1.6359  2.5529  0.7326
  249MOL0     H33586  12.330   6.120  12.229  0.2347  0.4827 -0.0424
  249MOL0     H33587  12.624   6.171  12.167  0.2726 -0.3348  0.6573
  249MOL0     H33588  12.513   6.274  12.264 -2.2321  1.6670 -1.7001
  249MOL0     H33589  12.442   6.189  11.976 -3.9824  2.1439 -0.8705
  249MOL0     H33590  12.375   6.315  12.081  2.5012  2.4265  2.7145
  249MOL0     H33591  12.660   6.376  12.022  1.0944  1.2180 -0.2390
  249MOL0     H33592  12.527   6.468  12.092 -1.5135 -0.7729  0.8812
  249MOL0     H33593  12.534   6.560  11.881 -1.8008  1.2422 -0.3020
  249MOL0     H33594  12.568   6.404  11.802  0.2451 -0.8119  0.1845
  249MOL0     H33595  12.180   5.741  11.995 -0.9522 -0.2247 -0.4578
  249MOL0     H33596  11.967   5.711  11.893  3.6719 -1.3651 -1.1416
  249MOL0     H33597  11.431   5.566  12.222  3.8277  2.9985 -1.7791
  249MOL0     H33598  11.203   5.521  12.140 -0.2855  2.0970 -0.5225
  249MOL0     H33599  10.187   6.457  10.790  1.1772  0.4281 -0.3690
  249MOL0     H33600  10.122   6.669  10.713  2.8145 -0.2963 -0.5939
  249MOL0     H33601   9.793   7.018  10.899  2.9730  0.8358 -0.3424
  249MOL0     H33602   9.730   7.252  10.858  1.1384 -1.2387  0.6197
  249MOL0     H33603   9.520   7.383  10.627 -0.0812 -2.0247 -1.0338
  249MOL0     H33604   9.583   7.305  10.476  1.5024  0.6674 -3.1612
  249MOL0     H33605   9.520   7.489  10.385  0.5789 -2.0438 -0.6385
  249MOL0     H33606   9.702   7.507  10.427  1.8388 -2.0179  4.0128
  249MOL0     H33607   9.577   7.706  10.458  0.7991  1.0234  0.8249
  249MOL0     H33608   9.639   7.638  10.618  1.8092 -2.4706 -1.4623
  249MOL0     H33609   9.360   7.599  10.498 -2.5828  1.8442  1.5330
  249MOL0     H33610   9.402   7.567  10.669 -2.6127 -3.1226 -1.8127
  249MOL0     H33611   9.339   8.001  10.627  2.2035  0.4268  0.8332
  249MOL0     H33612   9.761   7.188  10.442  2.7205 -2.7404 -1.6425
  249MOL0     H33613   9.914   7.032  10.355  0.0363 -1.5047 -1.3848
  249MOL0     H33614   9.983   6.917  10.452 -0.4460 -1.1308 -1.5478
  249MOL0     H33615   9.819   6.889  10.396 -0.4196  0.5663  0.1684
  250MOL0     O33616   5.791   3.132   9.324 -0.0152 -0.0738  0.1971
  250MOL0     C33617   5.882   3.207   9.343 -0.2727 -0.3876  0.2335
  250MOL0     O33618   5.869   3.330   9.403 -0.8407 -0.0798 -0.4469
  250MOL0     C33619   5.747   3.396   9.393  0.1367 -0.0548  0.4454
  250MOL0     C33620   5.751   3.514   9.329 -0.3745 -0.0926 -0.5073
  250MOL0     C33621   5.655   3.611   9.329  0.4631 -0.3570 -0.6205
  250MOL0     C33622   5.531   3.581   9.393 -0.1689  0.0404 -0.0825
  250MOL0     O33623   5.429   3.671   9.403  0.7172 -0.0887 -0.8552
  250MOL0     C33624   5.473   3.799   9.446 -0.8223 -0.5693 -0.5238
  250MOL0     C33625   5.348   3.891   9.435  0.8749 -0.1305 -0.0463
  250MOL0     C33626   5.312   3.952   9.300 -0.1021 -0.5088  0.3351
  250MOL0     C33627   5.170   3.989   9.291  1.2426 -0.4170 -0.0802
  250MOL0     C33628   5.138   4.076   9.166 -0.2115 -1.1268 -0.1427
  250MOL0     C33629   5.025   4.018   9.075 -0.9333 -0.1330 -0.1526
  250MOL0     C33630   5.023   4.089   8.942 -0.1010 -0.0831  0.4382
  250MOL0     C33631   5.058   3.987   8.827  0.3601 -0.1052  0.2326
  250MOL0     N33632   5.045   4.039   8.687  0.9177 -0.1988 -0.0572
  250MOL0     C33633   4.940   4.107   8.629  0.5653 -0.5031  0.5483
  250MOL0     C33634   4.984   4.148   8.510 -0.3639  0.4220  0.1347
  250MOL0     C33635   4.915   4.243   8.421  0.8140  0.2300  0.3359
  250MOL0     C33636   4.823   4.165   8.337  0.6950  0.0595  0.3288
  250MOL0     C33637   4.888   4.075   8.227  0.2305  0.1418  0.1130
  250MOL0     C33638   4.787   4.030   8.122 -0.2508  0.2120 -0.6896
  250MOL0     O33639   4.752   4.144   8.039  0.1406  0.7485  0.0991
  250MOL0     C33640   4.706   4.102   7.916  0.0774  0.9338  0.6956
  250MOL0     C33641   4.715   4.191   7.822 -0.3556  0.3660  0.4585
  250MOL0     C33642   4.698   4.147   7.688  0.6699  0.5089  0.0969
  250MOL0     C33643   4.641   4.018   7.666 -0.4609 -0.0499 -0.2922
  250MOL0     C33644   4.614   3.976   7.531  0.1271  0.4596 -0.0597
  250MOL0     O33645   4.556   3.846   7.508  1.0828  0.2009  0.1486
  250MOL0     C33646   4.547   3.804   7.381 -0.1741  0.3733 -0.0126
  250MOL0     C33647   4.656   3.745   7.318  0.4212 -0.0611  0.6556
  250MOL0     C33648   4.624   3.696   7.183  0.0949  0.0318 -0.4114
  250MOL0     C33649   4.499   3.720   7.116  0.9205 -0.0062  0.2515
  250MOL0     O33650   4.469   3.686   6.992 -0.8117  0.4236  0.1766
  250MOL0     C33651   4.577   3.617   6.921  0.4005  0.4202 -0.4102
  250MOL0     C33652   4.533   3.583   6.779 -0.7371 -0.7398 -0.2035
  250MOL0     C33653   4.402   3.512   6.777  1.0359  0.3138 -1.1886
  250MOL0     C33654   4.369   3.486   6.636  0.5509 -0.4758  0.0833
  250MOL0     C33655   4.237   3.410   6.616 -0.4828  0.3219  0.6175
  250MOL0     C33656   4.238   3.364   6.469  0.0697 -0.6432 -0.5476
  250MOL0     C33657   4.111   3.277   6.422 -0.4794  0.5040  0.0274
  250MOL0     C33658   4.134   3.230   6.276 -0.4247 -0.2347 -0.0627
  250MOL0    Cl33659   4.150   3.362   6.161  0.1165  0.2222 -0.1631
  250MOL0     C33660   4.392   3.789   7.177  0.1904  0.4160 -0.1150
  250MOL0     C33661   4.422   3.843   7.308 -0.2495 -0.9619  0.1999
  250MOL0     O33662   4.662   4.041   7.444 -0.5962  0.0127  0.5273
  250MOL0     C33663   4.613   3.934   7.771  0.0682  0.2003  0.3555
  250MOL0     C33664   4.643   3.977   7.896  0.0454 -0.2723  0.2981
  250MOL0     N33665   5.105   4.088   8.497 -0.3371  0.1258 -0.0103
  250MOL0     N33666   5.147   4.028   8.608 -0.5369 -1.1304 -0.2378
  250MOL0     C33667   5.517   3.445   9.437 -0.0179 -0.0593 -0.1909
  250MOL0     C33668   5.626   3.361   9.442 -0.6666  0.4063  1.0208
  250MOL0     C33669   6.019   3.148   9.309  0.6448 -0.3718 -0.6263
  250MOL0     C33670   6.024   3.018   9.252  0.0653  0.0772 -0.2071
  250MOL0     C33671   6.151   2.974   9.207  0.0846 -0.2955 -0.6611
  250MOL0     C33672   6.270   3.037   9.245 -1.1292  0.2089 -0.6880
  250MOL0     O33673   6.388   2.984   9.194 -0.1779  0.8042  0.1449
  250MOL0     C33674   6.496   3.073   9.153  0.1393  0.1115  0.6921
  250MOL0     C33675   6.616   2.994   9.119 -0.4384  0.0477  0.3332
  250MOL0     C33676   6.674   2.911   9.234  0.0709  0.0046  0.7739
  250MOL0     C33677   6.820   2.902   9.221  0.1771 -0.9866  0.0992
  250MOL0     C33678   6.885   2.816   9.317 -0.0902 -0.2326  0.1215
  250MOL0     C33679   6.939   2.742   9.393  0.0462  1.1606  0.8423
  250MOL0     C33680   6.260   3.159   9.316 -0.0613  0.8864  0.9178
  250MOL0     C33681   6.139   3.225   9.333 -0.3194  0.2916 -0.0062
  250MOL0     C33682   6.147   3.361   9.399 -1.2629  1.1968 -0.4297
  250MOL0     H33683   5.843   3.534   9.274  0.4904 -2.7596 -0.1682
  250MOL0     H33684   5.676   3.705   9.280 -1.5586  0.0438 -0.7865
  250MOL0     H33685   5.510   3.790   9.549 -3.1441 -0.5499  0.3533
  250MOL0     H33686   5.555   3.851   9.395  0.5387  0.8466  2.7827
  250MOL0     H33687   5.360   3.981   9.497 -0.4405  0.7095 -0.9478
  250MOL0     H33688   5.266   3.835   9.482  0.6712  0.5143  0.3844
  250MOL0     H33689   5.330   3.875   9.224 -4.5442 -1.6428  0.1442
  250MOL0     H33690   5.376   4.040   9.290 -1.1857  0.5950  2.5473
  250MOL0     H33691   5.109   3.898   9.296  2.5763 -1.3143  0.7425
  250MOL0     H33692   5.148   4.047   9.381  0.5613  0.7826 -0.9998
  250MOL0     H33693   5.109   4.175   9.203  1.7210 -0.2866 -0.7124
  250MOL0     H33694   5.230   4.079   9.107  1.7547 -1.0937  2.6998
  250MOL0     H33695   5.045   3.911   9.066  1.4514  0.1453  1.0228
  250MOL0     H33696   4.929   4.041   9.122 -0.3282  1.1878  0.4974
  250MOL0     H33697   5.097   4.169   8.944  1.2591 -1.2591 -0.6611
  250MOL0     H33698   4.926   4.132   8.916 -0.2542 -2.4965 -4.0913
  250MOL0     H33699   5.159   3.948   8.839  0.5778 -0.1728 -1.5316
  250MOL0     H33700   4.991   3.901   8.824  0.1496  0.0823 -1.2499
  250MOL0     H33701   4.846   4.145   8.668  0.3616 -0.6075  0.1608
  250MOL0     H33702   4.871   4.331   8.471  2.3246  0.4906  1.2765
  250MOL0     H33703   4.981   4.292   8.349 -0.8684  3.7645  0.9753
  250MOL0     H33704   4.755   4.114   8.406 -0.3863 -1.0229 -1.4660
  250MOL0     H33705   4.772   4.243   8.280  1.5022  2.2009  2.4054
  250MOL0     H33706   4.921   3.987   8.283  0.0862  1.0285  1.6531
  250MOL0     H33707   4.980   4.115   8.185  0.2600  2.2317  1.9791
  250MOL0     H33708   4.704   3.991   8.181  0.6638  2.0287  1.9822
  250MOL0     H33709   4.830   3.949   8.062 -2.1359 -0.0785 -1.7226
  250MOL0     H33710   4.760   4.287   7.848 -2.5441  1.1125  1.7214
  250MOL0     H33711   4.719   4.212   7.603 -0.6786 -0.8666 -1.3739
  250MOL0     H33712   4.757   3.743   7.358  0.5924  1.4492  0.3578
  250MOL0     H33713   4.711   3.650   7.137 -0.7467 -0.5038 -1.5146
  250MOL0     H33714   4.669   3.675   6.913  0.9119 -0.3158  0.1238
  250MOL0     H33715   4.587   3.519   6.968  1.5476  1.1566  0.9372
  250MOL0     H33716   4.531   3.668   6.710  0.6719  0.5671  1.2823
  250MOL0     H33717   4.604   3.509   6.741  0.1562  1.2266 -2.6144
  250MOL0     H33718   4.393   3.418   6.833 -0.6310  1.4194  0.5381
  250MOL0     H33719   4.316   3.566   6.819  0.1538  0.5155 -3.1594
  250MOL0     H33720   4.439   3.417   6.588 -0.1685  0.3400 -2.2787
  250MOL0     H33721   4.367   3.578   6.577 -1.8105 -1.0432 -0.8349
  250MOL0     H33722   4.146   3.469   6.629 -0.6589  0.3345 -0.5839
  250MOL0     H33723   4.220   3.325   6.683 -2.4486 -0.9643 -1.4066
  250MOL0     H33724   4.239   3.451   6.404 -0.7954 -1.9377 -2.4017
  250MOL0     H33725   4.326   3.306   6.440 -1.5793 -2.6090 -1.9413
  250MOL0     H33726   4.023   3.339   6.443  0.1423  0.7009  2.3471
  250MOL0     H33727   4.102   3.190   6.488  1.3312 -1.6414 -2.3813
  250MOL0     H33728   4.218   3.161   6.261 -0.5603 -0.8732  1.7843
  250MOL0     H33729   4.039   3.181   6.255 -0.7863 -1.9129  4.3303
  250MOL0     H33730   4.297   3.811   7.129  0.6413 -1.5610 -2.0888
  250MOL0     H33731   4.339   3.878   7.368  0.2802 -2.1473  1.6881
  250MOL0     H33732   4.579   3.835   7.741  3.6317 -0.4504 -2.0850
  250MOL0     H33733   4.626   3.902   7.973 -0.3800 -0.9353 -0.4330
  250MOL0     H33734   5.422   3.410   9.476  1.2416 -3.2974  0.2963
  250MOL0     H33735   5.624   3.257   9.475  1.1744 -0.1164 -0.3222
  250MOL0     H33736   5.929   2.970   9.232 -1.9378  2.4212  2.8177
  250MOL0     H33737   6.169   2.883   9.151  2.2577  0.1941 -0.8576
  250MOL0     H33738   6.511   3.135   9.242 -3.8402  0.5263  1.2493
  250MOL0     H33739   6.448   3.138   9.079  2.4160  0.1921 -0.7945
  250MOL0     H33740   6.692   3.064   9.084 -1.5397  1.1313  0.0508
  250MOL0     H33741   6.585   2.927   9.038 -0.2849  2.6603 -2.0200
  250MOL0     H33742   6.632   2.810   9.232 -2.8904  1.1343 -1.5627
  250MOL0     H33743   6.653   2.956   9.332  0.5987  1.2235  0.3444
  250MOL0     H33744   6.843   2.872   9.118 -5.4780 -3.2086 -0.8773
  250MOL0     H33745   6.857   3.003   9.243  0.3326 -0.9253 -0.4304
  250MOL0     H33746   6.996   2.667   9.444 -0.8670 -3.5554 -4.1429
  250MOL0     H33747   6.355   3.208   9.334  0.2831  0.4043  0.4445
  250MOL0     H33748   6.147   3.351   9.508 -1.4881  3.1205 -0.2252
  250MOL0     H33749   6.241   3.408   9.368  1.4489 -2.0533  2.0297
  250MOL0     H33750   6.072   3.435   9.370 -1.9452  0.8062  0.3025
  251MOL0     O33751   0.398  10.163   4.294  0.1508 -0.4151  0.2447
  251MOL0     C33752   0.494  10.201   4.226  0.6167  0.1725 -0.2646
  251MOL0     O33753   0.521  10.329   4.198  0.4670 -0.5159 -0.7419
  251MOL0     C33754   0.448  10.426   4.260  0.1240  0.8928  1.0259
  251MOL0     C33755   0.307  10.423   4.248  0.0256 -0.4114 -0.6159
  251MOL0     C33756   0.223  10.512   4.308 -0.0550 -0.5475 -0.1606
  251MOL0     C33757   0.278  10.613   4.379  0.3780 -1.2413  0.3008
  251MOL0     O33758   0.188  10.709   4.421 -0.2151 -0.3632 -0.5511
  251MOL0     C33759   0.206  10.841   4.380  1.4960  0.7993  1.2379
  251MOL0     C33760   0.176  10.935   4.494  0.5695  0.1833 -0.2541
  251MOL0     C33761   0.181  11.076   4.436  0.0697 -0.5919 -0.4071
  251MOL0     C33762   0.060  11.125   4.352  0.4714  0.5766  0.2733
  251MOL0     C33763   0.096  11.211   4.232 -0.1233 -0.6390 -0.4563
  251MOL0     C33764  -0.026  11.260   4.150 -0.2946  0.1964 -0.3688
  251MOL0     C33765  -0.144  11.333   4.232 -0.1515 -0.0676 -0.3104
  251MOL0     C33766  -0.230  11.404   4.140  0.3861 -0.6338  0.1266
  251MOL0     N33767  -0.168  11.520   4.071  0.5162 -0.2504  0.0367
  251MOL0     C33768  -0.139  11.645   4.124  0.2808  0.0162  0.3817
  251MOL0     C33769  -0.112  11.723   4.021  1.0332 -0.5359 -0.8261
  251MOL0     C33770  -0.073  11.869   4.051 -0.4667 -0.2026 -0.9899
  251MOL0     C33771   0.041  11.886   4.152 -0.1379  0.1365  0.6082
  251MOL0     C33772   0.170  11.826   4.124  0.2405  0.6488 -0.5693
  251MOL0     C33773   0.262  11.854   4.245  0.4665  0.3809 -1.5691
  251MOL0     O33774   0.218  11.868   4.379  0.1269 -0.0846  0.3372
  251MOL0     C33775   0.179  11.762   4.456  0.1662  0.3812  0.5028
  251MOL0     C33776   0.176  11.779   4.598  0.8397 -0.1894 -1.0033
  251MOL0     C33777   0.136  11.675   4.687  0.6481 -0.0683  0.1186
  251MOL0     C33778   0.104  11.546   4.627  0.0672 -0.0833 -0.5297
  251MOL0     C33779   0.054  11.438   4.721 -0.2703 -0.2479  0.8791
  251MOL0     O33780  -0.010  11.334   4.669 -0.0597 -0.0195 -0.1399
  251MOL0     C33781  -0.066  11.246   4.755  1.1183  0.0639  0.1590
  251MOL0     C33782  -0.147  11.294   4.859  0.5439  0.8628 -0.4881
  251MOL0     C33783  -0.190  11.183   4.943  0.3708 -0.4486 -0.2160
  251MOL0     C33784  -0.153  11.044   4.923  0.1618 -0.7097 -0.2937
  251MOL0     O33785  -0.207  10.942   5.004 -0.3052  0.1815 -0.0790
  251MOL0     C33786  -0.186  10.940   5.141 -0.5666 -0.5058 -0.0931
  251MOL0     C33787  -0.242  10.815   5.213 -0.1775 -0.1340 -0.4890
  251MOL0     C33788  -0.176  10.676   5.167 -0.2607  0.0300 -0.9720
  251MOL0     C33789  -0.038  10.658   5.220 -0.3281  0.2706 -0.7942
  251MOL0     C33790   0.017  10.514   5.181 -0.7793  0.3469 -0.2494
  251MOL0     C33791   0.157  10.471   5.241 -0.0978 -0.9353  0.5839
  251MOL0     C33792   0.194  10.321   5.221  0.3284  0.6475  0.2783
  251MOL0     C33793   0.337  10.261   5.268  0.2334 -0.1797 -0.7186
  251MOL0    Cl33794   0.333  10.277   5.451  0.1055 -0.1204  0.0393
  251MOL0     C33795  -0.065  11.012   4.821  0.3450  0.2841  0.0704
  251MOL0     C33796  -0.022  11.115   4.738 -0.6129  0.3336 -0.5910
  251MOL0     O33797   0.086  11.453   4.843 -0.4547 -0.2182 -0.5272
  251MOL0     C33798   0.107  11.527   4.490 -0.3986  0.6139  1.2562
  251MOL0     C33799   0.138  11.634   4.406 -1.3456 -0.3835 -0.1015
  251MOL0     N33800  -0.125  11.654   3.909 -0.7327  0.5725  0.4621
  251MOL0     N33801  -0.178  11.539   3.937  0.3944 -0.0127 -0.5268
  251MOL0     C33802   0.418  10.623   4.400  0.2038 -0.0828 -0.3214
  251MOL0     C33803   0.499  10.522   4.345  0.2737 -0.3517  0.2720
  251MOL0     C33804   0.587  10.106   4.162 -0.0830  0.6013  0.3798
  251MOL0     C33805   0.722  10.153   4.153  0.2763  0.1581 -0.3278
  251MOL0     C33806   0.822  10.073   4.098 -0.2209  1.0400  0.4223
  251MOL0     C33807   0.796   9.940   4.047 -0.0112 -0.4159 -0.2495
  251MOL0     O33808   0.888   9.848   3.994  1.0218 -0.5322 -0.1004
  251MOL0     C33809   1.028   9.864   4.012 -0.2497  0.3737  1.1488
  251MOL0     C33810   1.079   9.959   3.899 -0.2845  0.6778  0.2618
  251MOL0     C33811   1.203  10.039   3.942  0.0764  0.2779  0.0979
  251MOL0     C33812   1.337   9.965   3.956  0.8535  1.1445 -0.1885
  251MOL0     C33813   1.446  10.058   3.948  0.6004  0.2332  0.6031
  251MOL0     C33814   1.526  10.144   3.934 -0.5204  0.4947  0.2826
  251MOL0     C33815   0.656   9.898   4.043  0.0373 -0.1130 -0.9191
  251MOL0     C33816   0.557   9.979   4.104  0.2075 -0.0690 -0.0961
  251MOL0     C33817   0.413   9.933   4.093 -0.1564 -0.5034  0.7910
  251MOL0     H33818   0.278  10.345   4.179 -0.7260  0.1415 -0.9396
  251MOL0     H33819   0.116  10.496   4.318 -0.1334  1.0724  2.7397
  251MOL0     H33820   0.309  10.864   4.353  0.6913  2.1165 -0.9953
  251MOL0     H33821   0.135  10.853   4.297  1.9286 -1.9303  0.3561
  251MOL0     H33822   0.251  10.935   4.573  0.3353  1.4071 -0.0095
  251MOL0     H33823   0.087  10.904   4.550  2.2286 -1.9444  1.3693
  251MOL0     H33824   0.272  11.081   4.376 -0.6865 -4.0361 -2.0871
  251MOL0     H33825   0.196  11.157   4.508  0.1306  1.7083 -2.8264
  251MOL0     H33826   0.015  11.041   4.299  0.3569  2.0753 -2.1425
  251MOL0     H33827  -0.011  11.175   4.417  1.8454  2.2229  0.5831
  251MOL0     H33828   0.131  11.307   4.272  0.9199 -1.6193  1.0689
  251MOL0     H33829   0.177  11.168   4.173  1.0914  0.0981  0.6287
  251MOL0     H33830   0.011  11.337   4.082 -2.4602  2.5951  0.9612
  251MOL0     H33831  -0.059  11.176   4.088  0.7617 -0.4530 -0.0951
  251MOL0     H33832  -0.110  11.398   4.312  1.0795  2.5680 -2.7948
  251MOL0     H33833  -0.202  11.255   4.282 -1.9960  1.3899 -0.0868
  251MOL0     H33834  -0.271  11.327   4.074 -1.2642 -0.4019  0.8393
  251MOL0     H33835  -0.309  11.447   4.201  2.7965  1.6607  1.8549
  251MOL0     H33836  -0.146  11.676   4.227  2.8070 -0.2932  0.7057
  251MOL0     H33837  -0.049  11.914   3.954 -0.9792 -1.6223 -1.8089
  251MOL0     H33838  -0.167  11.914   4.084 -1.4366  0.0691 -3.8532
  251MOL0     H33839   0.068  11.993   4.155  0.5264  0.0112 -0.5303
  251MOL0     H33840   0.006  11.860   4.253 -0.0372 -2.3334  0.0583
  251MOL0     H33841   0.199  11.860   4.024 -2.0529 -0.8001 -1.8041
  251MOL0     H33842   0.154  11.718   4.121  2.5531  0.2538 -1.6503
  251MOL0     H33843   0.294  11.957   4.229 -1.8825  1.0350 -2.5581
  251MOL0     H33844   0.349  11.788   4.235  0.8485  1.2202 -4.6099
  251MOL0     H33845   0.210  11.877   4.630  3.0575 -1.4106  0.6414
  251MOL0     H33846   0.126  11.694   4.793  0.2805  3.0191 -0.3710
  251MOL0     H33847  -0.184  11.396   4.859  1.7475  1.3199 -0.6973
  251MOL0     H33848  -0.246  11.214   5.030 -1.3254 -0.9342 -1.0825
  251MOL0     H33849  -0.078  10.941   5.158 -0.7279 -2.7337  1.3477
  251MOL0     H33850  -0.234  11.027   5.188  0.0256  0.6990 -1.6166
  251MOL0     H33851  -0.230  10.818   5.322  0.6108 -3.6316 -0.3649
  251MOL0     H33852  -0.348  10.803   5.188 -0.2957 -2.4016  0.7751
  251MOL0     H33853  -0.227  10.587   5.205  0.2689 -0.1947 -0.7857
  251MOL0     H33854  -0.189  10.682   5.059  1.3070  0.6021 -1.1475
  251MOL0     H33855  -0.022  10.661   5.328  4.8990 -1.0804 -1.2768
  251MOL0     H33856   0.041  10.724   5.183  0.8752  0.2827  1.6221
  251MOL0     H33857   0.007  10.496   5.074 -0.2318  2.2234 -0.6527
  251MOL0     H33858  -0.042  10.429   5.217 -0.8665  0.2008 -0.7261
  251MOL0     H33859   0.238  10.532   5.198  1.4343 -0.7979  3.4358
  251MOL0     H33860   0.154  10.497   5.347  2.2657  0.7216  0.3317
  251MOL0     H33861   0.203  10.308   5.112 -1.1861 -1.5820  0.3655
  251MOL0     H33862   0.112  10.259   5.258 -1.1019  1.2382 -1.7137
  251MOL0     H33863   0.347  10.152   5.267 -0.7612 -0.3336  1.2054
  251MOL0     H33864   0.429  10.312   5.238  1.0144  0.1552  1.9413
  251MOL0     H33865  -0.027  10.913   4.800  2.8985  0.5738  2.6831
  251MOL0     H33866   0.050  11.089   4.661 -0.1279 -1.4296  0.4008
  251MOL0     H33867   0.079  11.433   4.444  3.7870 -1.3061  2.1038
  251MOL0     H33868   0.140  11.612   4.299  0.0092 -3.0651  0.3719
  251MOL0     H33869   0.441  10.706   4.466 -2.5967  2.6445 -2.4134
  251MOL0     H33870   0.606  10.535   4.357  0.3795  1.4371 -2.0010
  251MOL0     H33871   0.753  10.254   4.177 -0.1910  0.7321 -1.9782
  251MOL0     H33872   0.919  10.114   4.123 -0.8122  1.6671  1.7754
  251MOL0     H33873   1.081   9.768   4.006  2.6614  1.8625  1.3888
  251MOL0     H33874   1.046   9.909   4.110  1.8694  2.3750 -0.0685
  251MOL0     H33875   1.004  10.036   3.876 -1.2053 -0.2694 -0.0093
  251MOL0     H33876   1.090   9.903   3.806 -0.6452  1.4777 -0.2776
  251MOL0     H33877   1.180  10.105   4.027 -0.8203  3.2398 -2.2730
  251MOL0     H33878   1.214  10.120   3.870 -1.4729  1.8129  1.4779
  251MOL0     H33879   1.336   9.912   4.052 -1.4284 -0.7967 -1.1635
  251MOL0     H33880   1.356   9.896   3.873  1.3994  0.5233  0.4276
  251MOL0     H33881   1.592  10.227   3.917  2.1807 -1.7270 -0.9621
  251MOL0     H33882   0.645   9.801   3.996  1.7209  0.9389 -3.7380
  251MOL0     H33883   0.398   9.883   3.997 -0.3281 -3.1113  2.0931
  251MOL0     H33884   0.398   9.856   4.170 -1.5051 -0.0611  0.9973
  251MOL0     H33885   0.331  10.005   4.090 -0.8624 -1.3200 -0.2596
  252MOL0     O33886  11.225  11.088  10.088 -0.5275  0.4446 -0.7049
  252MOL0     C33887  11.262  10.966  10.094  0.0537 -0.1801 -0.8025
  252MOL0     O33888  11.188  10.855  10.117  0.0029  0.0509  0.9977
  252MOL0     C33889  11.047  10.870  10.126 -0.3698 -0.4761 -0.2845
  252MOL0     C33890  10.979  10.933  10.233 -0.0089 -0.0635  0.1947
  252MOL0     C33891  10.842  10.936  10.252 -0.8493  0.4203 -1.1019
  252MOL0     C33892  10.760  10.866  10.165 -0.7522 -0.6949 -0.2517
  252MOL0     O33893  10.626  10.844  10.181  0.0234 -0.0599  0.3091
  252MOL0     C33894  10.558  10.928  10.269  0.7659  0.1441  0.2709
  252MOL0     C33895  10.414  10.930  10.223  0.0269 -0.0986  0.9415
  252MOL0     C33896  10.308  10.967  10.331  0.6014  0.0994 -0.5826
  252MOL0     C33897  10.180  10.894  10.306 -0.2108  0.2722 -0.7504
  252MOL0     C33898  10.094  10.910  10.434  0.4178 -0.6879 -0.5089
  252MOL0     C33899  10.053  11.066  10.461 -1.0037 -0.1395  0.3894
  252MOL0     C33900   9.965  11.070  10.589 -0.1078 -0.4353 -0.0121
  252MOL0     C33901   9.955  11.211  10.643 -0.5307  0.3183  0.9111
  252MOL0     N33902   9.887  11.301  10.551  0.2810 -0.4284 -0.4417
  252MOL0     C33903   9.958  11.393  10.485  0.1644  0.2064 -0.1730
  252MOL0     C33904   9.869  11.468  10.435 -0.3596  0.0843 -0.4973
  252MOL0     C33905   9.885  11.582  10.346 -0.5305 -0.3975 -0.5585
  252MOL0     C33906   9.957  11.693  10.422  1.0599 -0.2716  0.0859
  252MOL0     C33907   9.869  11.750  10.543 -0.5493 -0.0017 -0.1794
  252MOL0     C33908   9.750  11.837  10.502 -0.2914 -0.1179 -0.0486
  252MOL0     O33909   9.702  11.908  10.618  0.6374 -0.3849 -0.5681
  252MOL0     C33910   9.607  12.016  10.602 -0.6292  0.3234  0.7079
  252MOL0     C33911   9.555  12.081  10.707 -0.2272 -0.5445  0.1768
  252MOL0     C33912   9.467  12.187  10.706 -0.0667 -0.6758  0.9372
  252MOL0     C33913   9.431  12.232  10.573 -0.5349  0.1780 -1.3853
  252MOL0     C33914   9.326  12.334  10.554  0.8368  0.1102  0.1865
  252MOL0     O33915   9.279  12.400  10.666 -0.5206  0.4966 -0.6468
  252MOL0     C33916   9.161  12.478  10.660  0.9028  0.2821 -0.3202
  252MOL0     C33917   9.158  12.588  10.744 -0.8042  0.4962 -0.5002
  252MOL0     C33918   9.045  12.666  10.747 -0.7342  0.3202  0.5366
  252MOL0     C33919   8.937  12.630  10.665  0.0373 -1.0820  0.2577
  252MOL0     O33920   8.835  12.718  10.670 -0.2176  0.5607  0.6289
  252MOL0     C33921   8.846  12.809  10.567  0.5333 -0.1209  0.1399
  252MOL0     C33922   8.717  12.897  10.578 -0.0350 -0.1534 -0.0462
  252MOL0     C33923   8.718  13.023  10.484  0.0783  0.4009  0.4138
  252MOL0     C33924   8.575  13.049  10.451 -0.2671 -0.0266  0.1453
  252MOL0     C33925   8.538  13.143  10.336  0.1267 -0.4391  0.1652
  252MOL0     C33926   8.417  13.235  10.355 -1.0492  0.2962  0.7050
  252MOL0     C33927   8.286  13.169  10.410 -0.1004  1.3916 -0.4039
  252MOL0     C33928   8.154  13.249  10.376 -0.4292 -1.0848  0.0908
  252MOL0    Cl33929   8.176  13.426  10.381 -0.1192  0.2210  0.9151
  252MOL0     C33930   8.935  12.517  10.587  0.2144  0.0109 -0.6037
  252MOL0     C33931   9.042  12.434  10.590 -0.7603 -0.0630 -0.4806
  252MOL0     O33932   9.273  12.342  10.447  0.3579 -0.7804  0.4064
  252MOL0     C33933   9.478  12.164  10.462 -0.4378  0.1117  0.0961
  252MOL0     C33934   9.564  12.060  10.477 -0.1721  0.5397  0.1752
  252MOL0     N33935   9.746  11.419  10.466  0.4587 -0.7391  0.1189
  252MOL0     N33936   9.756  11.318  10.540 -0.3833 -0.2192 -0.4094
  252MOL0     C33937  10.827  10.792  10.066  1.0935 -0.1374 -0.1088
  252MOL0     C33938  10.966  10.790  10.048 -0.4867  0.7664  0.0188
  252MOL0     C33939  11.407  10.937  10.088  0.3913 -0.6594  0.1957
  252MOL0     C33940  11.466  10.904   9.966 -0.3299  0.0918  0.4274
  252MOL0     C33941  11.602  10.899   9.960 -0.3010  0.2995 -0.0648
  252MOL0     C33942  11.679  10.917  10.075 -0.6507 -0.2561  0.2596
  252MOL0     O33943  11.819  10.923  10.062 -0.3237  0.6411 -0.4572
  252MOL0     C33944  11.880  11.041  10.106 -0.1053  0.2789 -0.0475
  252MOL0     C33945  12.025  11.041  10.073 -0.1073 -0.3055 -0.6075
  252MOL0     C33946  12.062  11.001   9.928 -0.2229 -0.5386  0.4679
  252MOL0     C33947  12.190  11.063   9.883 -0.0319 -0.2838  0.6571
  252MOL0     C33948  12.300  11.031   9.965  0.0629 -0.4788 -0.0257
  252MOL0     C33949  12.383  11.012  10.049  0.8042  0.3626 -0.5238
  252MOL0     C33950  11.616  10.933  10.198  0.0056  0.0156  0.1511
  252MOL0     C33951  11.480  10.942  10.208 -0.0974 -0.6415  0.5571
  252MOL0     C33952  11.418  10.967  10.332 -0.0890 -0.2911 -0.0615
  252MOL0     H33953  11.050  10.986  10.296  2.5637  1.2928 -3.5433
  252MOL0     H33954  10.818  11.004  10.333  2.1530  1.0403 -0.6196
  252MOL0     H33955  10.564  10.878  10.367  3.4101 -2.1988 -0.9483
  252MOL0     H33956  10.609  11.023  10.282  0.0144  0.6469 -0.4248
  252MOL0     H33957  10.388  10.832  10.182 -1.9572  0.9921 -0.6018
  252MOL0     H33958  10.404  11.000  10.139 -3.3046 -3.2346 -1.5488
  252MOL0     H33959  10.271  11.069  10.328 -2.8452 -0.8999  1.8149
  252MOL0     H33960  10.346  10.952  10.432  0.3552 -1.3614 -0.6763
  252MOL0     H33961  10.129  10.941  10.221 -0.6879  0.3445 -0.4243
  252MOL0     H33962  10.211  10.790  10.296  1.7097  0.7760 -0.6256
  252MOL0     H33963   9.999  10.858  10.422 -0.2590  0.4249 -0.1131
  252MOL0     H33964  10.137  10.860  10.522  2.9542  1.2118 -0.5450
  252MOL0     H33965  10.144  11.125  10.480 -0.5153 -1.0314  0.8857
  252MOL0     H33966   9.990  11.114  10.386  0.8576 -2.1022 -2.6336
  252MOL0     H33967  10.015  11.004  10.660  3.0547  0.8636 -0.8300
  252MOL0     H33968   9.870  11.023  10.563  0.5148 -0.6977 -1.9776
  252MOL0     H33969   9.900  11.191  10.736  4.1505  1.9665  4.4308
  252MOL0     H33970  10.053  11.253  10.669 -0.0682  0.7651 -1.3001
  252MOL0     H33971  10.065  11.411  10.477  0.2386  1.0924  2.1169
  252MOL0     H33972   9.945  11.561  10.258 -0.2897  0.5207 -0.6157
  252MOL0     H33973   9.782  11.615  10.330 -1.6962 -2.6874  1.4657
  252MOL0     H33974  10.056  11.660  10.456  1.1392  0.5614  0.6794
  252MOL0     H33975   9.988  11.775  10.357 -1.0270 -0.7699 -1.6376
  252MOL0     H33976   9.936  11.796  10.616 -1.3311 -0.3169  0.7620
  252MOL0     H33977   9.824  11.669  10.602 -1.8584  1.3046  0.6713
  252MOL0     H33978   9.679  11.764  10.462  1.9452 -1.6224 -1.4224
  252MOL0     H33979   9.791  11.901  10.423  0.6122 -1.8579 -1.0379
  252MOL0     H33980   9.580  12.039  10.804  4.4161 -0.5864 -0.8136
  252MOL0     H33981   9.426  12.246  10.787 -3.2806 -0.2594 -0.7982
  252MOL0     H33982   9.242  12.612  10.808 -0.3096  0.7116 -1.2071
  252MOL0     H33983   9.031  12.733  10.831  1.0222  1.1363  0.2185
  252MOL0     H33984   8.937  12.868  10.583  1.4234 -1.6194  0.7795
  252MOL0     H33985   8.857  12.758  10.471 -1.1132  1.0847 -0.7417
  252MOL0     H33986   8.625  12.838  10.566  1.0844 -2.3545  1.4560
  252MOL0     H33987   8.716  12.940  10.678 -2.6225  0.1851 -0.1572
  252MOL0     H33988   8.752  13.112  10.537 -1.2796  2.0996 -1.4090
  252MOL0     H33989   8.769  13.010  10.388 -1.4121  0.2653 -0.3895
  252MOL0     H33990   8.533  13.069  10.550  2.4466 -0.1753  1.4111
  252MOL0     H33991   8.527  12.955  10.421  1.7060 -0.4297 -2.0349
  252MOL0     H33992   8.521  13.082  10.248  2.2641 -0.5494 -0.2313
  252MOL0     H33993   8.620  13.208  10.303 -0.0816 -0.6287 -0.7463
  252MOL0     H33994   8.446  13.323  10.413  2.7032 -0.9111  0.8965
  252MOL0     H33995   8.383  13.278  10.261  1.3480  1.2260  0.1951
  252MOL0     H33996   8.287  13.154  10.518  2.5514 -2.1237 -0.7172
  252MOL0     H33997   8.276  13.067  10.371  1.2598  0.8253  0.6573
  252MOL0     H33998   8.112  13.227  10.277 -2.5206  0.4013  0.5846
  252MOL0     H33999   8.070  13.230  10.443  0.5903 -0.3727  1.6316
  252MOL0     H34000   8.856  12.511  10.513 -1.6090  3.4052  0.8125
  252MOL0     H34001   9.045  12.344  10.530  1.5846  0.1912 -0.8282
  252MOL0     H34002   9.451  12.195  10.361  1.0958 -0.5293 -0.5361
  252MOL0     H34003   9.592  12.013  10.383 -1.9194  2.6443 -1.5112
  252MOL0     H34004  10.771  10.725  10.002  2.4330  1.2956 -2.9971
  252MOL0     H34005  11.013  10.730   9.971 -4.3655 -0.9826 -1.3002
  252MOL0     H34006  11.408  10.879   9.878  1.1414 -0.2357 -0.4834
  252MOL0     H34007  11.657  10.879   9.869  1.7540 -0.3685  1.2579
  252MOL0     H34008  11.869  11.065  10.213 -0.9917  2.5550 -0.5941
  252MOL0     H34009  11.836  11.121  10.045  1.2730  0.5167 -0.7555
  252MOL0     H34010  12.076  10.982  10.150 -2.2825 -0.4891  0.7735
  252MOL0     H34011  12.052  11.146  10.088 -0.1287  0.1250 -3.0370
  252MOL0     H34012  11.991  11.039   9.854  0.7854  1.9736  0.6857
  252MOL0     H34013  12.066  10.893   9.918  1.2544 -0.3850 -1.0169
  252MOL0     H34014  12.212  11.030   9.781 -0.9710  0.9015  0.0514
  252MOL0     H34015  12.175  11.171   9.884 -2.0720 -0.5316  2.0108
  252MOL0     H34016  12.457  11.014  10.127 -2.0018  4.6125  2.4744
  252MOL0     H34017  11.673  10.948  10.289  0.1729  1.6978 -0.1958
  252MOL0     H34018  11.327  10.913  10.360  1.3743 -4.0840 -1.8757
  252MOL0     H34019  11.492  10.950  10.410 -0.5094  0.0495  0.4199
  252MOL0     H34020  11.381  11.070  10.332 -1.2107 -0.6455  2.0719
  253MOL0     O34021   4.816   7.269   4.442 -0.8221 -1.4190 -0.0963
  253MOL0     C34022   4.711   7.219   4.475  0.3587  0.5376 -0.2268
  253MOL0     O34023   4.628   7.151   4.391 -0.8732  1.1544  0.0800
  253MOL0     C34024   4.648   7.142   4.253  0.0210 -0.5911 -0.1440
  253MOL0     C34025   4.696   7.248   4.184  0.1987 -0.8468  0.3734
  253MOL0     C34026   4.719   7.236   4.045 -0.5731 -0.9609 -0.7381
  253MOL0     C34027   4.673   7.130   3.972  0.2951  0.1631  0.6365
  253MOL0     O34028   4.646   7.142   3.835 -0.4602 -0.2762 -0.8667
  253MOL0     C34029   4.713   7.253   3.763 -0.7187  0.8888  0.6529
  253MOL0     C34030   4.679   7.229   3.610 -0.4111  0.3601 -1.6477
  253MOL0     C34031   4.760   7.310   3.501 -0.1753  0.4656 -0.0385
  253MOL0     C34032   4.888   7.253   3.448 -1.2126  0.1796  0.0524
  253MOL0     C34033   4.973   7.347   3.357 -0.4703 -0.5333 -0.5790
  253MOL0     C34034   5.093   7.276   3.319  0.4157 -0.6555  0.0600
  253MOL0     C34035   5.189   7.244   3.432  0.7915  1.4452 -0.9251
  253MOL0     C34036   5.337   7.249   3.386 -0.8560 -0.5536  0.3961
  253MOL0     N34037   5.401   7.382   3.409 -0.9001 -0.2438  0.4085
  253MOL0     C34038   5.479   7.428   3.509 -0.4625  0.5315 -0.1887
  253MOL0     C34039   5.526   7.552   3.480 -0.8143  0.2635 -0.5765
  253MOL0     C34040   5.590   7.646   3.576 -0.0845  1.1472  0.1403
  253MOL0     C34041   5.722   7.703   3.531 -0.8226  0.8695 -0.3852
  253MOL0     C34042   5.767   7.826   3.609 -0.5425 -0.2740  0.2824
  253MOL0     C34043   5.884   7.899   3.539 -0.0195 -0.6702  0.2732
  253MOL0     O34044   5.884   8.032   3.595  0.3138  0.6321  0.7802
  253MOL0     C34045   5.787   8.117   3.560 -0.0054 -0.0510 -0.6010
  253MOL0     C34046   5.701   8.102   3.452  1.0611 -0.5289  0.1634
  253MOL0     C34047   5.608   8.195   3.413  0.0978  0.2429  0.5027
  253MOL0     C34048   5.593   8.311   3.479  0.4292 -0.2238  0.0981
  253MOL0     C34049   5.482   8.397   3.447  0.4174  0.2364 -0.8809
  253MOL0     O34050   5.483   8.524   3.504 -0.0112 -0.1919  0.8173
  253MOL0     C34051   5.378   8.612   3.504 -1.3151  1.0403 -0.9384
  253MOL0     C34052   5.242   8.576   3.496 -0.2730  0.0850 -0.9382
  253MOL0     C34053   5.140   8.680   3.492 -0.3491 -0.0524  0.7317
  253MOL0     C34054   5.172   8.819   3.475 -0.1995 -0.1365  0.3899
  253MOL0     O34055   5.081   8.916   3.450  0.3599 -0.4305  0.1800
  253MOL0     C34056   4.940   8.880   3.444 -0.8908 -0.2502 -0.7965
  253MOL0     C34057   4.869   9.017   3.429  0.4067  0.0774  0.2270
  253MOL0     C34058   4.722   8.981   3.380 -0.2256 -0.8083  0.1903
  253MOL0     C34059   4.648   8.908   3.493  0.1960  0.4694 -0.6151
  253MOL0     C34060   4.501   8.904   3.450 -0.1067 -1.2544 -1.1464
  253MOL0     C34061   4.424   8.829   3.562 -0.5459 -0.7109 -0.2373
  253MOL0     C34062   4.279   8.839   3.524  0.0593 -0.3280  0.6849
  253MOL0     C34063   4.188   8.800   3.641  0.2859  0.6677 -0.4114
  253MOL0    Cl34064   4.032   8.883   3.610  0.4754  0.0630  0.4283
  253MOL0     C34065   5.305   8.849   3.459 -0.1219  0.2431  0.8439
  253MOL0     C34066   5.405   8.748   3.474  0.1663 -0.3978 -0.1425
  253MOL0     O34067   5.394   8.350   3.385 -0.1712 -0.0747  0.2163
  253MOL0     C34068   5.680   8.336   3.587 -1.3988  0.9092 -1.0971
  253MOL0     C34069   5.776   8.235   3.620 -0.5163 -0.4994 -0.0657
  253MOL0     N34070   5.479   7.576   3.351 -0.4219 -0.4770 -0.7666
  253MOL0     N34071   5.411   7.473   3.312  0.2455  0.2841  0.8698
  253MOL0     C34072   4.602   7.033   4.049  0.6866  0.0598  0.8389
  253MOL0     C34073   4.593   7.038   4.187 -0.3931  0.2240 -0.5320
  253MOL0     C34074   4.690   7.241   4.623  0.5621  0.2563 -0.0286
  253MOL0     C34075   4.796   7.233   4.709 -0.4718 -0.0815 -0.0299
  253MOL0     C34076   4.793   7.273   4.846  0.6642  0.0145  0.5366
  253MOL0     C34077   4.674   7.311   4.905  0.1047 -0.0078 -0.4822
  253MOL0     O34078   4.656   7.361   5.033 -0.5543  0.0986  0.2982
  253MOL0     C34079   4.703   7.278   5.141  0.1603 -0.4031 -0.1289
  253MOL0     C34080   4.686   7.370   5.258 -0.0977  0.7090 -0.1396
  253MOL0     C34081   4.717   7.280   5.387  0.4315 -0.6181  1.0808
  253MOL0     C34082   4.806   7.365   5.480  0.9658 -0.3825  0.2037
  253MOL0     C34083   4.734   7.458   5.553 -0.1261 -0.4337  0.4279
  253MOL0     C34084   4.676   7.546   5.610 -0.4507  0.2329  0.1711
  253MOL0     C34085   4.565   7.311   4.824  0.2384  0.5388 -0.1034
  253MOL0     C34086   4.569   7.282   4.682 -0.8129 -1.0339  0.1303
  253MOL0     C34087   4.434   7.273   4.609  1.0740  0.3705  0.8861
  253MOL0     H34088   4.733   7.334   4.239 -1.2191  0.2038 -0.2630
  253MOL0     H34089   4.763   7.322   3.997  1.2597 -1.1613  0.4923
  253MOL0     H34090   4.700   7.359   3.789 -0.9736  0.9353  0.3396
  253MOL0     H34091   4.821   7.238   3.772 -0.7489  0.5053  0.4199
  253MOL0     H34092   4.572   7.240   3.593 -1.2257 -5.6028 -2.6644
  253MOL0     H34093   4.702   7.127   3.578  2.1004  0.6685 -1.0894
  253MOL0     H34094   4.779   7.408   3.547 -0.0078  0.5975 -0.3863
  253MOL0     H34095   4.689   7.314   3.418 -1.0382 -2.9941  0.3780
  253MOL0     H34096   4.943   7.229   3.539 -1.4806 -3.4493 -0.5942
  253MOL0     H34097   4.856   7.166   3.389 -1.4505  1.2698 -1.5144
  253MOL0     H34098   4.918   7.368   3.265  0.9457 -0.3591 -1.4149
  253MOL0     H34099   5.005   7.439   3.407  1.8276 -1.5733 -0.0369
  253MOL0     H34100   5.064   7.187   3.262  0.7243 -1.4435  1.0947
  253MOL0     H34101   5.147   7.350   3.259  0.4514  0.9311  1.9301
  253MOL0     H34102   5.173   7.141   3.464  0.7655  0.6205 -3.4135
  253MOL0     H34103   5.166   7.312   3.515 -0.9805  1.6919 -1.5686
  253MOL0     H34104   5.399   7.171   3.431 -1.4944 -0.2736  1.8155
  253MOL0     H34105   5.344   7.240   3.277  4.4956  2.3976  0.1483
  253MOL0     H34106   5.493   7.387   3.608  0.3450  1.6680  0.1898
  253MOL0     H34107   5.522   7.731   3.580 -2.1424 -0.4146  0.2856
  253MOL0     H34108   5.609   7.600   3.674 -0.6586  0.4361 -0.0704
  253MOL0     H34109   5.793   7.622   3.545  0.5320  1.9370 -0.8768
  253MOL0     H34110   5.716   7.732   3.425  2.7931  2.9664 -0.1727
  253MOL0     H34111   5.794   7.798   3.711  3.3758 -2.7516 -1.2009
  253MOL0     H34112   5.691   7.904   3.619  0.5763  1.3269 -2.5162
  253MOL0     H34113   5.871   7.885   3.431 -1.9128  0.5812  0.2896
  253MOL0     H34114   5.966   7.831   3.564 -1.2139 -2.8030 -1.2637
  253MOL0     H34115   5.708   8.018   3.383 -0.6756 -1.4785  1.0721
  253MOL0     H34116   5.544   8.172   3.328 -1.2878 -1.2623  1.8939
  253MOL0     H34117   5.222   8.471   3.511  2.2056 -0.4053 -0.5500
  253MOL0     H34118   5.043   8.636   3.472  0.0446 -0.8894  0.5998
  253MOL0     H34119   4.925   8.816   3.357 -0.8791  0.9525 -1.7010
  253MOL0     H34120   4.908   8.828   3.535 -2.7686 -0.5395 -1.5779
  253MOL0     H34121   4.862   9.074   3.522 -2.2840 -1.6077  1.1954
  253MOL0     H34122   4.927   9.080   3.361 -1.1314  1.2636 -0.0456
  253MOL0     H34123   4.664   9.071   3.358 -0.3329 -0.5659  1.3984
  253MOL0     H34124   4.734   8.917   3.293  2.6508  0.3111 -0.3481
  253MOL0     H34125   4.658   8.971   3.582  0.9195 -2.4331  1.5127
  253MOL0     H34126   4.699   8.815   3.520  2.1961  0.5084 -3.7176
  253MOL0     H34127   4.505   8.868   3.347 -1.9034  2.9981 -2.9603
  253MOL0     H34128   4.455   9.002   3.434  2.3640  0.2411  0.2531
  253MOL0     H34129   4.453   8.724   3.572 -2.3294 -1.1275  1.1712
  253MOL0     H34130   4.447   8.878   3.656  2.2912  1.5579 -1.9734
  253MOL0     H34131   4.277   8.795   3.424 -2.1372 -0.7856  0.9004
  253MOL0     H34132   4.257   8.942   3.495 -1.0165 -1.6023 -3.9603
  253MOL0     H34133   4.173   8.693   3.659 -0.2465  0.9703  1.1279
  253MOL0     H34134   4.237   8.836   3.732  3.0498 -0.7769 -1.1846
  253MOL0     H34135   5.335   8.952   3.441 -2.8366  0.9019 -0.5242
  253MOL0     H34136   5.508   8.781   3.463 -0.3668  1.7977  0.8718
  253MOL0     H34137   5.668   8.432   3.638 -2.7032  0.5451 -0.6615
  253MOL0     H34138   5.852   8.242   3.697 -0.3817 -1.2249 -0.1245
  253MOL0     H34139   4.544   6.957   3.998  1.5154  0.0004 -0.0502
  253MOL0     H34140   4.537   6.962   4.241  0.3683  1.3919  2.0821
  253MOL0     H34141   4.896   7.213   4.670 -0.4720  1.2806 -0.7653
  253MOL0     H34142   4.880   7.283   4.910 -0.1131 -0.9157  1.7980
  253MOL0     H34143   4.802   7.232   5.141 -1.7745 -5.3342  2.2182
  253MOL0     H34144   4.640   7.189   5.141  0.0162 -0.3078  0.4804
  253MOL0     H34145   4.587   7.414   5.272 -0.1263  0.7623 -0.5020
  253MOL0     H34146   4.767   7.442   5.248  0.7210  0.3589  2.8832
  253MOL0     H34147   4.788   7.203   5.357  3.4496  1.1903  3.0107
  253MOL0     H34148   4.629   7.237   5.435 -1.9808  0.8561 -1.6593
  253MOL0     H34149   4.855   7.306   5.558  0.7258  0.5587  1.0879
  253MOL0     H34150   4.886   7.411   5.422 -1.6855  2.9437 -1.2011
  253MOL0     H34151   4.637   7.630   5.664  2.3964  0.6104  1.8307
  253MOL0     H34152   4.470   7.314   4.876  0.3147 -1.6128  0.2749
  253MOL0     H34153   4.421   7.349   4.532 -1.3498  3.4667  4.0408
  253MOL0     H34154   4.419   7.170   4.574 -1.2795  0.6528  0.9514
  253MOL0     H34155   4.350   7.287   4.677  1.9572 -0.4280  2.2057
  254MOL0     O34156   0.246   6.063   3.015  0.5976  0.7355 -0.1292
  254MOL0     C34157   0.149   6.078   2.944  0.1700 -0.0547 -0.1193
  254MOL0     O34158   0.053   6.170   2.947  0.1696 -1.1939  0.2384
  254MOL0     C34159   0.031   6.262   3.051  0.3066  0.9717  0.0708
  254MOL0     C34160   0.134   6.300   3.147 -0.5241 -0.1485  0.0700
  254MOL0     C34161   0.097   6.386   3.243 -1.1348  0.3108  0.4880
  254MOL0     C34162  -0.032   6.448   3.252 -0.1345  1.5055  0.3687
  254MOL0     O34163  -0.059   6.522   3.358  0.4215 -0.7801 -0.8887
  254MOL0     C34164  -0.180   6.601   3.364 -0.1862  0.8112  0.1406
  254MOL0     C34165  -0.134   6.712   3.455  0.4739 -0.1119  0.3918
  254MOL0     C34166  -0.247   6.802   3.512  0.1156  0.4108  0.1649
  254MOL0     C34167  -0.189   6.938   3.574 -0.9610 -0.6416  0.3557
  254MOL0     C34168  -0.312   7.026   3.619 -0.3211  0.1178  0.1001
  254MOL0     C34169  -0.253   7.152   3.685  0.4800 -0.4273  0.3252
  254MOL0     C34170  -0.196   7.262   3.590  0.1779  0.8853  0.5915
  254MOL0     C34171  -0.071   7.316   3.666 -0.2327  0.0002 -0.1472
  254MOL0     N34172  -0.098   7.389   3.789  0.2696  0.1770 -0.0615
  254MOL0     C34173  -0.157   7.514   3.797  0.4547 -0.2984  0.6252
  254MOL0     C34174  -0.167   7.541   3.932  0.2926  0.7586 -0.3495
  254MOL0     C34175  -0.208   7.664   3.995  0.6868 -1.3792  0.2258
  254MOL0     C34176  -0.084   7.755   4.045  0.1841 -0.6079  0.3970
  254MOL0     C34177  -0.109   7.826   4.180 -0.5948 -0.2712  0.3447
  254MOL0     C34178   0.021   7.907   4.212 -0.1593  0.2879  1.0535
  254MOL0     O34179   0.140   7.826   4.249  0.8234 -0.0562 -0.3192
  254MOL0     C34180   0.258   7.888   4.283  0.5720 -0.5521  0.2628
  254MOL0     C34181   0.268   8.021   4.299 -0.1224 -0.5333  0.7740
  254MOL0     C34182   0.398   8.078   4.330  1.0524  0.1697 -0.1512
  254MOL0     C34183   0.511   7.992   4.349 -0.5512 -0.2839  0.0849
  254MOL0     C34184   0.641   8.062   4.382  0.4967 -0.1271 -0.9818
  254MOL0     O34185   0.744   7.986   4.431  0.3405  0.0315  0.4191
  254MOL0     C34186   0.836   8.046   4.519 -0.4424  0.5969  0.0306
  254MOL0     C34187   0.805   8.154   4.601  0.2372 -0.0559  0.4212
  254MOL0     C34188   0.904   8.224   4.672 -0.0663  0.1991  0.6520
  254MOL0     C34189   1.037   8.187   4.649  0.4568 -0.8045 -0.4879
  254MOL0     O34190   1.145   8.256   4.697 -0.4568  0.0988 -0.5424
  254MOL0     C34191   1.135   8.342   4.815 -0.0792  0.5004 -0.4701
  254MOL0     C34192   1.272   8.377   4.880 -0.0797  0.1918  0.1520
  254MOL0     C34193   1.327   8.249   4.953  0.0387 -0.3270 -0.2216
  254MOL0     C34194   1.465   8.289   5.010  1.5393  0.1167  1.0266
  254MOL0     C34195   1.583   8.274   4.906  0.9553 -0.1099  0.7937
  254MOL0     C34196   1.703   8.349   4.941 -0.3772  0.5184 -0.6729
  254MOL0     C34197   1.823   8.279   4.883 -0.3443 -0.3750 -0.5225
  254MOL0     C34198   1.955   8.363   4.893 -0.0903 -0.2880  0.3995
  254MOL0    Cl34199   1.996   8.414   5.053  0.5378  0.0059  0.1454
  254MOL0     C34200   1.067   8.074   4.576  0.3907  0.6251 -0.2615
  254MOL0     C34201   0.976   8.000   4.509  1.0301 -1.1619  0.5827
  254MOL0     O34202   0.650   8.175   4.343  0.4366 -0.0677  0.0467
  254MOL0     C34203   0.494   7.856   4.330  0.1373 -0.5501 -0.4401
  254MOL0     C34204   0.367   7.815   4.295  0.4176  0.3204  0.0138
  254MOL0     N34205  -0.126   7.425   4.004 -0.1852  0.3311  0.3626
  254MOL0     N34206  -0.074   7.342   3.913  0.3287 -0.3523 -0.1144
  254MOL0     C34207  -0.125   6.424   3.158 -0.0382 -0.0645 -0.3554
  254MOL0     C34208  -0.101   6.333   3.061  0.1451  0.2610 -1.1022
  254MOL0     C34209   0.137   5.982   2.829 -0.7231  0.0109 -0.3232
  254MOL0     C34210   0.174   5.848   2.865  0.5204 -1.4190 -1.0944
  254MOL0     C34211   0.149   5.742   2.775  0.2681 -0.8986 -0.3694
  254MOL0     C34212   0.085   5.775   2.647 -0.2311 -0.0710  0.9064
  254MOL0     O34213   0.043   5.683   2.556  0.1037  0.6261 -0.5235
  254MOL0     C34214   0.047   5.551   2.575 -0.2480 -0.1295 -0.1292
  254MOL0     C34215   0.014   5.477   2.435  0.0898  0.1300 -0.1014
  254MOL0     C34216   0.000   5.324   2.453 -0.6291 -0.2019  0.7963
  254MOL0     C34217  -0.137   5.283   2.492  0.4234  0.0280  0.4250
  254MOL0     C34218  -0.168   5.141   2.496 -0.7857 -0.5616 -0.7543
  254MOL0     C34219  -0.172   5.020   2.491 -0.2735  0.5293 -0.2916
  254MOL0     C34220   0.065   5.909   2.613  0.4055 -0.5373  0.3343
  254MOL0     C34221   0.086   6.013   2.698 -0.2368  0.1392 -0.3086
  254MOL0     C34222   0.071   6.157   2.650  0.0420  0.2751 -0.2972
  254MOL0     H34223   0.235   6.263   3.138 -0.0865  1.1056 -0.3106
  254MOL0     H34224   0.177   6.406   3.313  0.1158  1.2363 -1.1305
  254MOL0     H34225  -0.221   6.643   3.272 -0.2247 -1.0975 -0.7705
  254MOL0     H34226  -0.260   6.534   3.398  0.3254 -0.6850 -1.4398
  254MOL0     H34227  -0.075   6.783   3.397 -1.7697  0.8466 -0.8733
  254MOL0     H34228  -0.089   6.670   3.546  0.9306 -0.6400 -0.0740
  254MOL0     H34229  -0.306   6.745   3.585 -1.8507  0.4872 -1.2609
  254MOL0     H34230  -0.306   6.834   3.426  3.1932 -1.2790 -2.8072
  254MOL0     H34231  -0.117   6.909   3.651 -1.3410 -1.7321  0.3142
  254MOL0     H34232  -0.131   6.999   3.504  1.8544 -3.3386  0.0926
  254MOL0     H34233  -0.381   7.045   3.536 -0.9522  1.3762  0.8748
  254MOL0     H34234  -0.363   6.974   3.701 -0.5454 -0.9845 -0.7170
  254MOL0     H34235  -0.332   7.202   3.742  1.4990  0.7628  0.7147
  254MOL0     H34236  -0.180   7.127   3.762  0.6797  0.7122  0.5251
  254MOL0     H34237  -0.271   7.341   3.584  1.5880  2.1513 -2.2279
  254MOL0     H34238  -0.161   7.215   3.498 -1.1184 -0.5958  0.8083
  254MOL0     H34239  -0.009   7.230   3.692 -0.6631 -0.3896 -0.3859
  254MOL0     H34240  -0.030   7.390   3.596 -0.2723 -0.6514 -0.8666
  254MOL0     H34241  -0.182   7.581   3.716 -0.7899 -0.8957  0.4996
  254MOL0     H34242  -0.269   7.718   3.923  0.3840 -1.6446  0.2785
  254MOL0     H34243  -0.266   7.638   4.084  0.9116 -2.1094  0.1740
  254MOL0     H34244   0.006   7.693   4.048 -1.3812 -2.9925  2.1774
  254MOL0     H34245  -0.071   7.832   3.969  1.1978 -0.3060  0.8538
  254MOL0     H34246  -0.138   7.761   4.264 -3.5654  1.5438  0.8879
  254MOL0     H34247  -0.192   7.896   4.167  0.5161  0.6140 -2.7407
  254MOL0     H34248  -0.005   7.972   4.296  1.1145 -0.9419  2.4694
  254MOL0     H34249   0.051   7.966   4.125 -2.4190 -1.4344 -1.0402
  254MOL0     H34250   0.193   8.090   4.262  1.8950  0.5722 -1.6198
  254MOL0     H34251   0.400   8.184   4.355 -2.5162 -0.2268  2.5956
  254MOL0     H34252   0.703   8.190   4.613  0.6235  1.0325  0.6066
  254MOL0     H34253   0.875   8.305   4.738  1.2713  0.0143  1.4873
  254MOL0     H34254   1.100   8.439   4.779  0.4245  1.4557  1.4741
  254MOL0     H34255   1.071   8.307   4.896 -1.1342  1.8645 -0.6863
  254MOL0     H34256   1.347   8.421   4.814 -1.1893 -0.6467 -1.7502
  254MOL0     H34257   1.257   8.459   4.951 -1.5297 -0.7621  0.9901
  254MOL0     H34258   1.276   8.230   5.048  2.4211  1.0039  1.4361
  254MOL0     H34259   1.331   8.161   4.888 -0.0079 -1.6242  1.4596
  254MOL0     H34260   1.485   8.228   5.098  0.4075  2.7406  3.2591
  254MOL0     H34261   1.454   8.393   5.043  2.0301  0.9201 -1.1467
  254MOL0     H34262   1.548   8.285   4.803  0.2972 -1.9674  0.7772
  254MOL0     H34263   1.617   8.174   4.937 -0.2507 -1.1961 -1.2173
  254MOL0     H34264   1.702   8.457   4.924  2.5804  0.8425  0.4792
  254MOL0     H34265   1.729   8.341   5.047  1.8650 -1.9884 -1.3003
  254MOL0     H34266   1.796   8.272   4.777 -1.7652  0.7036 -0.2501
  254MOL0     H34267   1.835   8.183   4.933 -0.6767  0.2144  0.7332
  254MOL0     H34268   2.044   8.310   4.859  2.6704  2.6283  2.4446
  254MOL0     H34269   1.945   8.452   4.830  0.6570 -1.3072 -1.2197
  254MOL0     H34270   1.174   8.057   4.581  0.2019 -0.2081  1.8997
  254MOL0     H34271   1.014   7.920   4.447  0.7189  1.0714 -2.7637
  254MOL0     H34272   0.568   7.777   4.342 -0.4107 -0.9703  0.2859
  254MOL0     H34273   0.352   7.709   4.281 -0.1846  0.5546 -1.3250
  254MOL0     H34274  -0.221   6.475   3.152 -0.7532 -1.3014  0.2007
  254MOL0     H34275  -0.175   6.303   2.988 -0.6502  0.5095 -0.4155
  254MOL0     H34276   0.209   5.825   2.965  0.0397  2.0581 -0.0087
  254MOL0     H34277   0.155   5.638   2.806 -2.1350 -1.7485 -2.3629
  254MOL0     H34278  -0.029   5.520   2.647  0.5991 -0.3591  0.6966
  254MOL0     H34279   0.147   5.524   2.612 -0.8050 -1.2153  0.6116
  254MOL0     H34280   0.093   5.501   2.363 -0.1757 -0.6833 -0.6847
  254MOL0     H34281  -0.076   5.522   2.391  0.7641 -0.3432 -2.0798
  254MOL0     H34282   0.079   5.280   2.515  1.5921 -1.0197 -2.3592
  254MOL0     H34283   0.027   5.282   2.356 -0.4314  0.5032  0.5413
  254MOL0     H34284  -0.163   5.316   2.593  0.3096 -0.0198  0.4102
  254MOL0     H34285  -0.190   5.329   2.408  0.7762  0.8345  0.6218
  254MOL0     H34286  -0.155   4.914   2.483  0.4624  0.6107  0.0885
  254MOL0     H34287   0.037   5.924   2.509  2.0349 -0.5678 -0.1357
  254MOL0     H34288   0.165   6.211   2.659  0.0562  0.2675 -0.3990
  254MOL0     H34289   0.034   6.153   2.547  0.4294  0.6145 -0.4528
  254MOL0     H34290  -0.004   6.207   2.713 -0.2631 -1.5251  0.8289
  255MOL0     O34291   6.031   1.042   8.307  0.1347 -0.1868 -0.1495
  255MOL0     C34292   6.113   0.966   8.374  0.6206 -0.8724  0.5688
  255MOL0     O34293   6.097   0.832   8.381  0.5237 -0.5729 -0.0561
  255MOL0     C34294   5.967   0.785   8.350 -0.3911  0.3896  0.7414
  255MOL0     C34295   5.937   0.703   8.241 -1.0374  0.6225  0.1610
  255MOL0     C34296   5.811   0.640   8.213  0.1934 -0.5244 -0.8462
  255MOL0     C34297   5.707   0.665   8.306  0.4590  0.1027  0.2205
  255MOL0     O34298   5.581   0.604   8.293  0.7537  1.1314  0.2821
  255MOL0     C34299   5.588   0.473   8.351  0.0357  0.3584  0.5432
  255MOL0     C34300   5.460   0.402   8.302 -0.0540 -0.0043  0.2916
  255MOL0     C34301   5.486   0.360   8.149  1.1240 -0.1791 -0.0872
  255MOL0     C34302   5.464   0.485   8.063 -0.4205  0.3649 -0.0998
  255MOL0     C34303   5.420   0.443   7.924  0.6744 -1.0519 -0.1540
  255MOL0     C34304   5.533   0.368   7.848  0.9147 -0.9309  0.2789
  255MOL0     C34305   5.664   0.449   7.853 -0.0892 -0.0012  0.0301
  255MOL0     C34306   5.761   0.390   7.749  0.8300  0.4554 -0.6681
  255MOL0     N34307   5.708   0.401   7.616 -0.4290 -0.5412 -0.1797
  255MOL0     C34308   5.646   0.511   7.570  0.3368 -0.7843  0.1915
  255MOL0     C34309   5.568   0.472   7.464  0.0370  0.3285 -0.0632
  255MOL0     C34310   5.487   0.561   7.377 -0.8924 -0.0550  0.8387
  255MOL0     C34311   5.569   0.599   7.256 -0.3783  0.8453 -0.0142
  255MOL0     C34312   5.500   0.697   7.165 -0.0643  0.2649  0.1997
  255MOL0     C34313   5.387   0.650   7.062  0.4377  0.3181 -1.1588
  255MOL0     O34314   5.339   0.763   6.993 -0.6273  0.1360 -0.0287
  255MOL0     C34315   5.239   0.759   6.890 -0.7576  0.3787  0.9836
  255MOL0     C34316   5.187   0.877   6.846 -0.2859  0.2679  1.2593
  255MOL0     C34317   5.096   0.874   6.738 -0.1206  0.8649 -0.2418
  255MOL0     C34318   5.059   0.742   6.677  0.0532  0.2189 -0.5235
  255MOL0     C34319   4.979   0.738   6.559  0.6393 -1.0195  0.3753
  255MOL0     O34320   4.903   0.631   6.549 -0.4247  0.2693 -0.5753
  255MOL0     C34321   4.883   0.575   6.421  0.5765 -0.6206  0.3712
  255MOL0     C34322   4.782   0.483   6.410 -0.2579 -0.4720 -0.3934
  255MOL0     C34323   4.762   0.400   6.294  0.7056  0.5341  0.3007
  255MOL0     C34324   4.846   0.418   6.179 -0.3710  0.3405  0.0204
  255MOL0     O34325   4.839   0.344   6.058  0.3297 -0.0221 -0.6079
  255MOL0     C34326   4.803   0.203   6.057  0.1035 -0.6665 -0.4113
  255MOL0     C34327   4.792   0.153   5.904 -0.5740 -0.2464  0.1501
  255MOL0     C34328   4.721   0.253   5.811 -0.1317  0.1582 -0.4345
  255MOL0     C34329   4.715   0.196   5.668 -0.3324  0.1704  0.1016
  255MOL0     C34330   4.645   0.281   5.561 -0.0722 -0.0870 -0.3791
  255MOL0     C34331   4.501   0.331   5.604 -0.3278 -0.9135 -0.5388
  255MOL0     C34332   4.437   0.413   5.491 -0.8780  0.1251  0.8628
  255MOL0     C34333   4.440   0.326   5.362 -0.3682 -0.3514  0.0447
  255MOL0    Cl34334   4.391   0.154   5.367 -0.2122  0.4545  0.3009
  255MOL0     C34335   4.942   0.513   6.196 -0.4954 -0.2814  0.4592
  255MOL0     C34336   4.964   0.597   6.309 -0.8614  0.4583 -0.3731
  255MOL0     O34337   4.970   0.841   6.481  0.3387 -0.1330 -0.1254
  255MOL0     C34338   5.107   0.620   6.741 -0.2152  0.2279  0.5270
  255MOL0     C34339   5.191   0.635   6.843  1.0464  0.0152  0.1233
  255MOL0     N34340   5.572   0.335   7.467  0.0764  0.5651 -0.4080
  255MOL0     N34341   5.659   0.295   7.548 -0.4042 -0.2707  0.2818
  255MOL0     C34342   5.736   0.748   8.417  0.0431  1.2496 -0.1699
  255MOL0     C34343   5.862   0.802   8.439  0.7862 -0.3507  0.0290
  255MOL0     C34344   6.254   1.012   8.417 -0.5918 -0.7037 -0.0303
  255MOL0     C34345   6.351   0.914   8.408 -0.5398  0.0632  0.2011
  255MOL0     C34346   6.483   0.948   8.437  0.2586 -0.1877  0.1258
  255MOL0     C34347   6.522   1.080   8.459 -0.7581 -0.9127  0.0117
  255MOL0     O34348   6.651   1.116   8.463 -0.0330 -0.2455 -0.5001
  255MOL0     C34349   6.750   1.002   8.475  1.0334 -0.3277  0.0243
  255MOL0     C34350   6.888   1.061   8.486 -0.3134  0.5417 -0.6545
  255MOL0     C34351   6.996   0.971   8.411 -0.0163  0.0621  0.4252
  255MOL0     C34352   7.129   1.049   8.394  0.8990 -1.4928 -0.9334
  255MOL0     C34353   7.210   0.973   8.296  0.0726 -0.3986 -0.5753
  255MOL0     C34354   7.263   0.915   8.211 -0.6434  0.1336 -0.7635
  255MOL0     C34355   6.418   1.181   8.474 -0.9990 -0.2893  0.3608
  255MOL0     C34356   6.287   1.141   8.455  0.2129 -1.2887 -0.5430
  255MOL0     C34357   6.176   1.245   8.471 -0.5403  0.7683 -0.2427
  255MOL0     H34358   6.014   0.709   8.165  1.3339  2.0269  2.4652
  255MOL0     H34359   5.788   0.583   8.123 -1.1054 -0.5263 -0.5265
  255MOL0     H34360   5.671   0.416   8.306 -1.1642  1.0436 -2.8905
  255MOL0     H34361   5.606   0.477   8.458 -2.4355  1.6577  0.9718
  255MOL0     H34362   5.370   0.463   8.319  0.2295  0.0764  1.6281
  255MOL0     H34363   5.418   0.314   8.353 -1.0295  0.2125 -0.1170
  255MOL0     H34364   5.410   0.286   8.123 -1.4304  2.1837  0.2967
  255MOL0     H34365   5.582   0.310   8.130  1.1619 -1.4875  2.9846
  255MOL0     H34366   5.389   0.550   8.107  0.5144 -0.0702  2.2549
  255MOL0     H34367   5.557   0.539   8.044 -0.1424 -0.1309 -0.1847
  255MOL0     H34368   5.336   0.373   7.933 -0.8063  0.9791  5.2022
  255MOL0     H34369   5.392   0.529   7.862  0.7982 -2.0568 -1.6782
  255MOL0     H34370   5.554   0.268   7.886 -0.1822 -1.1626  0.2973
  255MOL0     H34371   5.490   0.363   7.748 -1.6794  2.2371  1.0571
  255MOL0     H34372   5.716   0.450   7.950  0.0019 -1.4397  0.0157
  255MOL0     H34373   5.652   0.555   7.826 -2.0397 -0.4525 -0.9864
  255MOL0     H34374   5.853   0.448   7.755  0.7706  0.8572 -2.8641
  255MOL0     H34375   5.780   0.285   7.774 -0.9028  0.4397  0.7718
  255MOL0     H34376   5.653   0.613   7.606  3.8636 -1.7666  2.7660
  255MOL0     H34377   5.401   0.502   7.342 -0.6007 -1.2442  2.0708
  255MOL0     H34378   5.457   0.654   7.426  0.8675  0.1242  1.6455
  255MOL0     H34379   5.659   0.644   7.299  0.4100 -0.8250  0.1341
  255MOL0     H34380   5.601   0.512   7.198  4.5038  1.3982  1.4223
  255MOL0     H34381   5.579   0.733   7.098 -0.8389  1.2967 -0.1814
  255MOL0     H34382   5.475   0.790   7.217 -1.6389  1.2221 -2.1378
  255MOL0     H34383   5.310   0.610   7.128  2.0540 -1.8100 -0.4611
  255MOL0     H34384   5.428   0.568   7.002 -0.0873 -1.2806  0.5517
  255MOL0     H34385   5.222   0.972   6.886  1.7703  0.3548 -0.5751
  255MOL0     H34386   5.045   0.961   6.699 -1.8020  1.1556  2.3872
  255MOL0     H34387   4.715   0.480   6.495 -2.0289  3.2542 -1.4597
  255MOL0     H34388   4.688   0.321   6.289  0.0020  0.7484  4.2378
  255MOL0     H34389   4.882   0.152   6.113  1.2221  1.3560 -0.0435
  255MOL0     H34390   4.714   0.184   6.117 -1.3024 -0.7420 -2.4260
  255MOL0     H34391   4.895   0.140   5.870  0.5828  1.8128  2.5237
  255MOL0     H34392   4.733   0.061   5.898 -0.0414 -0.5278 -0.8862
  255MOL0     H34393   4.624   0.277   5.856 -2.4333 -1.9892 -3.8082
  255MOL0     H34394   4.780   0.345   5.820  0.0161  0.0418 -0.1983
  255MOL0     H34395   4.647   0.110   5.666 -0.7085  0.4719 -0.6463
  255MOL0     H34396   4.816   0.177   5.632 -0.8791 -0.3447 -1.2285
  255MOL0     H34397   4.649   0.227   5.466 -0.1465 -3.9760  1.6071
  255MOL0     H34398   4.708   0.367   5.538  0.0012 -0.0938 -0.2032
  255MOL0     H34399   4.438   0.247   5.633  0.9157 -1.8045 -0.3534
  255MOL0     H34400   4.518   0.397   5.690  1.5173 -0.1337 -1.4254
  255MOL0     H34401   4.494   0.503   5.466 -2.0407  1.2921  2.2102
  255MOL0     H34402   4.337   0.453   5.512  0.0023  1.4430  2.9712
  255MOL0     H34403   4.368   0.377   5.298 -2.0698 -0.2498  1.9117
  255MOL0     H34404   4.538   0.318   5.314 -0.3074  0.2768  0.0646
  255MOL0     H34405   5.003   0.511   6.106 -0.7640 -2.8442  0.2550
  255MOL0     H34406   5.051   0.662   6.307  1.0922 -2.0247 -0.6028
  255MOL0     H34407   5.077   0.524   6.700 -1.2957  0.0132  1.7584
  255MOL0     H34408   5.223   0.540   6.886 -0.0994  0.0138  1.0188
  255MOL0     H34409   5.660   0.769   8.492  3.9922  2.4340  3.9474
  255MOL0     H34410   5.877   0.859   8.529 -1.2651 -3.0486  2.2848
  255MOL0     H34411   6.337   0.811   8.377  3.5311 -0.9198  1.0547
  255MOL0     H34412   6.553   0.865   8.431 -0.3887 -0.7496  0.1010
  255MOL0     H34413   6.754   0.938   8.386 -1.3932 -0.7397  0.1537
  255MOL0     H34414   6.725   0.942   8.563  0.5779  2.2944  1.7854
  255MOL0     H34415   6.910   1.081   8.591 -2.2432 -0.7252  0.0449
  255MOL0     H34416   6.897   1.158   8.437 -1.5546  0.3878 -1.2276
  255MOL0     H34417   6.945   0.952   8.316 -0.8530  2.3443  0.3478
  255MOL0     H34418   7.021   0.884   8.472  1.4564 -1.8566 -2.6525
  255MOL0     H34419   7.110   1.151   8.358  0.5215 -0.0345  2.9145
  255MOL0     H34420   7.165   1.049   8.497 -1.5406 -2.0370 -0.0137
  255MOL0     H34421   7.317   0.846   8.149  0.5042 -1.6431  1.9975
  255MOL0     H34422   6.445   1.284   8.492 -0.7423 -0.6506  2.2269
  255MOL0     H34423   6.215   1.340   8.509  0.1206 -0.5036  2.5103
  255MOL0     H34424   6.128   1.264   8.374  0.7782  1.4829 -0.7796
  255MOL0     H34425   6.090   1.214   8.531 -1.2111 -1.7788 -2.3555
  256MOL0     O34426   9.955   3.363   1.493 -0.7114  0.1548 -0.5336
  256MOL0     C34427   9.992   3.311   1.595  0.0569  0.2393 -0.2039
  256MOL0     O34428  10.113   3.242   1.616 -0.4759 -0.3530  0.6303
  256MOL0     C34429  10.211   3.264   1.521 -0.7461  0.4744  0.5631
  256MOL0     C34430  10.273   3.150   1.464  0.2707 -0.2303  0.2505
  256MOL0     C34431  10.365   3.173   1.366 -0.2822  0.1772 -0.2524
  256MOL0     C34432  10.417   3.294   1.329  0.3476  0.3032  0.0191
  256MOL0     O34433  10.529   3.293   1.252  0.4441 -0.4662 -0.4158
  256MOL0     C34434  10.592   3.419   1.240  0.0242  0.6582  0.4870
  256MOL0     C34435  10.716   3.384   1.173 -0.3372  0.6771  0.2704
  256MOL0     C34436  10.800   3.504   1.142 -0.1067 -0.9214  0.1752
  256MOL0     C34437  10.893   3.550   1.261  0.2771 -0.0266 -0.0045
  256MOL0     C34438  11.006   3.633   1.196  0.0974  0.1829 -0.0198
  256MOL0     C34439  11.107   3.700   1.284  0.2091 -0.4111 -0.3735
  256MOL0     C34440  11.202   3.600   1.356 -1.9253  0.0333 -0.6974
  256MOL0     C34441  11.306   3.688   1.424  0.6864  0.0482  1.0747
  256MOL0     N34442  11.414   3.623   1.491 -0.7153  0.2229 -0.1467
  256MOL0     C34443  11.554   3.647   1.479  0.6939 -0.1259 -0.3614
  256MOL0     C34444  11.623   3.546   1.544  0.3572  0.2551 -0.7146
  256MOL0     C34445  11.773   3.532   1.553 -0.2844  0.4205  0.1891
  256MOL0     C34446  11.839   3.670   1.551  0.7312 -0.6136 -0.0247
  256MOL0     C34447  11.987   3.653   1.559  0.4548 -0.5183  0.5780
  256MOL0     C34448  12.055   3.786   1.532 -0.5937  0.2439 -0.0365
  256MOL0     O34449  12.195   3.752   1.514  0.0815 -0.7176  0.2620
  256MOL0     C34450  12.281   3.849   1.570 -0.0759 -0.2542 -0.1361
  256MOL0     C34451  12.283   3.877   1.708  0.0388 -0.4901  0.2899
  256MOL0     C34452  12.376   3.970   1.771 -0.0611  0.4020  0.1459
  256MOL0     C34453  12.467   4.033   1.686 -0.2815  0.3579 -0.2300
  256MOL0     C34454  12.571   4.113   1.750  0.7209  0.0356  0.1736
  256MOL0     O34455  12.541   4.157   1.874 -0.4891  0.3819  1.0122
  256MOL0     C34456  12.638   4.221   1.948 -0.1795 -0.1718 -0.8118
  256MOL0     C34457  12.780   4.209   1.946  0.1533  1.0778 -0.3051
  256MOL0     C34458  12.865   4.273   2.030 -0.0071 -0.2976 -0.6509
  256MOL0     C34459  12.822   4.362   2.126  0.2733 -0.7051  0.2264
  256MOL0     O34460  12.909   4.397   2.232 -0.3718  0.2577  0.1237
  256MOL0     C34461  12.855   4.447   2.355  0.7607  0.6090  1.0064
  256MOL0     C34462  12.943   4.544   2.429 -0.1260 -0.8959 -0.1228
  256MOL0     C34463  12.874   4.567   2.562 -0.4036  0.2383  0.5563
  256MOL0     C34464  12.951   4.645   2.665 -0.4497  0.1915  0.2341
  256MOL0     C34465  12.868   4.715   2.765 -0.8636 -0.1660  0.1681
  256MOL0     C34466  12.776   4.626   2.845 -0.1990  1.6065 -0.0267
  256MOL0     C34467  12.701   4.709   2.944 -0.9662  0.0328 -0.6077
  256MOL0     C34468  12.678   4.630   3.069 -0.2961  0.0793  0.4457
  256MOL0    Cl34469  12.564   4.732   3.167 -0.2072 -0.2051 -0.1380
  256MOL0     C34470  12.680   4.385   2.125 -0.0035 -0.6854  0.2452
  256MOL0     C34471  12.592   4.309   2.044 -0.4416  1.1780 -0.0415
  256MOL0     O34472  12.667   4.147   1.687 -0.2767  0.3650  0.3894
  256MOL0     C34473  12.471   4.002   1.550  0.6364  0.5564 -0.8946
  256MOL0     C34474  12.384   3.903   1.503  0.0349 -0.0297 -0.0158
  256MOL0     N34475  11.521   3.461   1.589 -0.6935  0.2216 -0.5857
  256MOL0     N34476  11.410   3.501   1.551 -0.2686  0.3189  0.2911
  256MOL0     C34477  10.343   3.405   1.374  0.0739  0.1619  0.4068
  256MOL0     C34478  10.252   3.394   1.479 -0.1872 -0.0483 -0.5275
  256MOL0     C34479   9.885   3.326   1.697 -0.8283  0.7853  0.5962
  256MOL0     C34480   9.827   3.220   1.760  0.6578  0.5096 -0.4331
  256MOL0     C34481   9.728   3.227   1.859  0.9583 -0.1986  0.2831
  256MOL0     C34482   9.675   3.345   1.892  0.6117  0.1538 -0.4055
  256MOL0     O34483   9.561   3.357   1.978 -0.5692  0.5241  0.5484
  256MOL0     C34484   9.554   3.466   2.069 -0.1373 -0.4359 -0.8075
  256MOL0     C34485   9.594   3.427   2.216 -0.0229  0.5051  0.1766
  256MOL0     C34486   9.748   3.408   2.231  0.4160 -0.3169  1.1691
  256MOL0     C34487   9.788   3.387   2.374  0.0372 -0.3007 -0.2869
  256MOL0     C34488   9.778   3.512   2.449  1.0382 -0.5059  0.0495
  256MOL0     C34489   9.767   3.609   2.519  0.1020  0.3128  0.5658
  256MOL0     C34490   9.709   3.462   1.807 -0.1924  0.1247 -0.5594
  256MOL0     C34491   9.822   3.447   1.721 -0.0173 -0.5558  0.3106
  256MOL0     C34492   9.876   3.580   1.658  0.1214 -0.8825  0.6957
  256MOL0     H34493  10.236   3.055   1.503 -2.3268  1.6859  2.9454
  256MOL0     H34494  10.421   3.087   1.329 -0.2487 -0.5012  1.2699
  256MOL0     H34495  10.534   3.486   1.176  0.2834  0.2674 -0.1755
  256MOL0     H34496  10.620   3.465   1.335 -2.2059  4.2150 -0.3884
  256MOL0     H34497  10.696   3.323   1.084 -1.5677 -0.7641  1.4793
  256MOL0     H34498  10.772   3.312   1.233 -0.4113  2.0175  2.0356
  256MOL0     H34499  10.738   3.584   1.101  0.5727  0.4652  1.7299
  256MOL0     H34500  10.864   3.476   1.057  0.4160  4.1850 -1.4721
  256MOL0     H34501  10.839   3.614   1.332 -0.6280  0.2902 -0.9489
  256MOL0     H34502  10.949   3.470   1.309  2.7921  1.2095 -0.6990
  256MOL0     H34503  11.074   3.565   1.143  0.8406 -0.8065  2.0929
  256MOL0     H34504  10.951   3.701   1.130  1.2506 -0.9365 -2.2825
  256MOL0     H34505  11.154   3.780   1.225  0.0062  0.7407  0.9582
  256MOL0     H34506  11.048   3.761   1.353  0.7061  1.9343 -1.8859
  256MOL0     H34507  11.240   3.523   1.288 -4.6813 -2.6119  0.5234
  256MOL0     H34508  11.147   3.537   1.428 -1.1434  1.0523  0.8494
  256MOL0     H34509  11.362   3.740   1.345  0.0988  0.1113  0.6932
  256MOL0     H34510  11.267   3.765   1.490 -2.3392 -0.9270  0.6123
  256MOL0     H34511  11.595   3.737   1.434  0.5428 -1.3948 -3.3272
  256MOL0     H34512  11.788   3.480   1.647 -2.2293 -0.0737  0.2791
  256MOL0     H34513  11.819   3.471   1.475  1.4917 -0.0470  1.5537
  256MOL0     H34514  11.799   3.722   1.463 -3.1093 -0.7973  1.4462
  256MOL0     H34515  11.802   3.730   1.635  2.9788  3.0375 -1.3989
  256MOL0     H34516  12.016   3.587   1.477  0.7619 -0.4768  0.6546
  256MOL0     H34517  12.023   3.615   1.654  0.0792 -1.1022  0.4906
  256MOL0     H34518  12.031   3.859   1.610  1.1290 -0.6944  1.4541
  256MOL0     H34519  12.028   3.837   1.439  2.8519  1.4123 -0.5392
  256MOL0     H34520  12.207   3.823   1.765 -1.9141  1.8164  0.0462
  256MOL0     H34521  12.369   3.990   1.877  4.5796 -0.4032  0.8002
  256MOL0     H34522  12.823   4.139   1.875  1.0461  4.0315 -2.8979
  256MOL0     H34523  12.971   4.252   2.020  0.1285 -0.4897  0.9909
  256MOL0     H34524  12.765   4.501   2.326  0.9971  0.6758  0.3868
  256MOL0     H34525  12.827   4.359   2.413 -2.4041  1.6782  1.2853
  256MOL0     H34526  13.038   4.493   2.444 -1.0104 -2.1695  1.4759
  256MOL0     H34527  12.963   4.640   2.380  0.7785 -2.2034 -2.4776
  256MOL0     H34528  12.792   4.635   2.538 -0.8510 -0.7594 -0.8741
  256MOL0     H34529  12.846   4.478   2.618 -0.4310  0.4112  0.8173
  256MOL0     H34530  13.021   4.721   2.626 -0.1957  1.2356  2.5154
  256MOL0     H34531  13.029   4.583   2.711  0.0400  1.2643  0.8999
  256MOL0     H34532  12.809   4.788   2.709 -3.8196 -1.5117  1.2543
  256MOL0     H34533  12.938   4.771   2.827  1.3465 -2.0900 -0.4778
  256MOL0     H34534  12.700   4.565   2.795  1.0760 -3.2880  3.1924
  256MOL0     H34535  12.847   4.554   2.889  1.0886  1.1916 -2.5854
  256MOL0     H34536  12.606   4.741   2.899 -0.1900  0.6735 -1.8240
  256MOL0     H34537  12.755   4.798   2.978  2.3293 -1.8908 -0.4812
  256MOL0     H34538  12.630   4.535   3.045 -1.6317  1.2607 -1.9077
  256MOL0     H34539  12.772   4.597   3.114 -1.2007  0.4021  2.6754
  256MOL0     H34540  12.633   4.450   2.198  1.5336  0.6410  0.1236
  256MOL0     H34541  12.487   4.325   2.067 -0.5984  1.2591 -0.7986
  256MOL0     H34542  12.545   4.035   1.477  0.1163  0.3100 -1.5442
  256MOL0     H34543  12.375   3.874   1.399 -3.1442 -1.4642  0.5459
  256MOL0     H34544  10.371   3.503   1.336  0.3127 -0.1581 -0.2619
  256MOL0     H34545  10.218   3.491   1.516 -0.6755 -0.3195 -0.2596
  256MOL0     H34546   9.877   3.126   1.742  1.9436  1.1102 -0.1711
  256MOL0     H34547   9.681   3.143   1.909  0.8837 -0.3442 -0.0306
  256MOL0     H34548   9.456   3.513   2.063  0.3919  0.5071 -4.2260
  256MOL0     H34549   9.622   3.546   2.038  0.0110  0.0420  0.6602
  256MOL0     H34550   9.552   3.330   2.246 -1.5077  1.7484  2.4037
  256MOL0     H34551   9.553   3.508   2.277  1.8777 -0.7893  3.4640
  256MOL0     H34552   9.798   3.499   2.197 -3.6470  2.4019  1.8364
  256MOL0     H34553   9.780   3.324   2.169  1.3848  0.7331  0.1844
  256MOL0     H34554   9.725   3.312   2.423 -3.0298 -0.1315 -3.5892
  256MOL0     H34555   9.892   3.353   2.382  0.8741  2.0679 -0.2689
  256MOL0     H34556   9.769   3.703   2.571  1.1405 -0.2018  1.5059
  256MOL0     H34557   9.647   3.551   1.806 -1.9474 -1.0430 -1.6772
  256MOL0     H34558   9.873   3.660   1.732  0.7777  0.8496 -1.0800
  256MOL0     H34559   9.981   3.577   1.629  0.0407  0.3051  0.2155
  256MOL0     H34560   9.817   3.615   1.573 -0.3385  1.7752  2.0157
  257MOL0     O34561   0.043   1.267   3.277  0.5293 -0.8688  1.0341
  257MOL0     C34562   0.143   1.256   3.338 -1.0555  0.0376 -0.2826
  257MOL0     O34563   0.160   1.173   3.452  0.3667  0.6152  0.1012
  257MOL0     C34564   0.070   1.076   3.477  0.1698  0.9925 -0.2903
  257MOL0     C34565   0.130   0.956   3.499 -0.3489  1.1755  0.4248
  257MOL0     C34566   0.044   0.851   3.542 -0.1943  0.1890 -0.7186
  257MOL0     C34567  -0.087   0.858   3.560  1.0250 -0.6539  0.2921
  257MOL0     O34568  -0.171   0.753   3.600 -0.3925  0.1800 -0.2779
  257MOL0     C34569  -0.122   0.622   3.635 -0.0964  0.6530 -0.3102
  257MOL0     C34570  -0.244   0.545   3.704 -0.2533  0.4126 -1.4303
  257MOL0     C34571  -0.366   0.534   3.611  0.3003  0.0319  0.6260
  257MOL0     C34572  -0.485   0.432   3.637 -0.1309  0.2656  0.8350
  257MOL0     C34573  -0.447   0.283   3.632  0.4824 -0.6781 -0.4940
  257MOL0     C34574  -0.569   0.192   3.667  0.1937  0.3799  0.1274
  257MOL0     C34575  -0.535   0.046   3.658  0.9237 -0.2225 -0.8285
  257MOL0     C34576  -0.433   0.008   3.759 -0.0846  1.4427 -0.2478
  257MOL0     N34577  -0.434  -0.130   3.798  0.5376  0.0898  0.1406
  257MOL0     C34578  -0.422  -0.232   3.711  0.1419 -0.5567  0.4458
  257MOL0     C34579  -0.451  -0.342   3.781 -0.7164 -0.3020  0.9916
  257MOL0     C34580  -0.430  -0.478   3.724  0.0053 -0.1947  0.3280
  257MOL0     C34581  -0.309  -0.550   3.780 -0.3075 -0.1581  0.1458
  257MOL0     C34582  -0.323  -0.596   3.926 -0.4223  0.4884 -0.0474
  257MOL0     C34583  -0.198  -0.677   3.974 -0.7115 -0.8362  0.1659
  257MOL0     O34584  -0.079  -0.595   3.977 -0.2382  0.0925 -0.5144
  257MOL0     C34585   0.043  -0.645   3.948 -0.3615  0.0976  0.0209
  257MOL0     C34586   0.085  -0.768   4.001 -0.8451  0.7573 -0.4918
  257MOL0     C34587   0.217  -0.816   3.978 -0.1032 -0.1843 -0.6290
  257MOL0     C34588   0.308  -0.738   3.908  0.4137  0.5991  0.0911
  257MOL0     C34589   0.450  -0.782   3.907 -0.3675 -0.5371 -0.3164
  257MOL0     O34590   0.490  -0.884   3.982 -0.7695 -0.1840 -0.3533
  257MOL0     C34591   0.609  -0.953   3.938 -0.3380 -0.0201  0.2315
  257MOL0     C34592   0.731  -0.892   3.936 -0.0026  0.4506 -1.3570
  257MOL0     C34593   0.843  -0.947   3.871 -0.1157 -0.5449 -0.3686
  257MOL0     C34594   0.836  -1.073   3.810 -0.7268  0.0142 -0.3419
  257MOL0     O34595   0.939  -1.111   3.721 -0.5557 -0.0799  0.0812
  257MOL0     C34596   1.066  -1.141   3.775 -0.3390  0.1527 -0.7845
  257MOL0     C34597   1.178  -1.176   3.670 -0.5739 -0.3498  0.6819
  257MOL0     C34598   1.197  -1.065   3.562  0.0260 -0.2157  0.9031
  257MOL0     C34599   1.273  -1.110   3.439 -0.6959 -0.3557  0.3475
  257MOL0     C34600   1.285  -1.004   3.328 -0.2537 -0.5776 -0.5264
  257MOL0     C34601   1.351  -1.081   3.212  0.5922 -0.0352  0.4362
  257MOL0     C34602   1.375  -0.990   3.082  0.3206 -0.4327 -0.7199
  257MOL0     C34603   1.389  -1.082   2.953  0.4759 -0.8317 -0.4243
  257MOL0    Cl34604   1.504  -1.208   2.951  0.2652 -0.0267  0.4500
  257MOL0     C34605   0.711  -1.141   3.814 -0.3773  0.0077  0.8218
  257MOL0     C34606   0.596  -1.080   3.873 -0.2018  0.0478 -0.2787
  257MOL0     O34607   0.519  -0.732   3.820  0.3978 -0.8485 -0.5958
  257MOL0     C34608   0.263  -0.615   3.858 -0.2626 -0.1771  0.2847
  257MOL0     C34609   0.133  -0.568   3.878  0.8888 -0.0726 -1.2270
  257MOL0     N34610  -0.493  -0.307   3.902  0.4905  0.0592  0.6970
  257MOL0     N34611  -0.483  -0.179   3.915 -0.1107  0.5437 -0.2989
  257MOL0     C34612  -0.143   0.987   3.547  0.0677 -0.5302  0.4745
  257MOL0     C34613  -0.072   1.096   3.507 -1.2064  0.0037  0.0025
  257MOL0     C34614   0.266   1.330   3.279 -0.3392 -1.0081 -0.0062
  257MOL0     C34615   0.248   1.422   3.164 -0.2945 -0.0341 -0.3232
  257MOL0     C34616   0.362   1.487   3.107  0.2502 -0.6948 -0.6477
  257MOL0     C34617   0.475   1.496   3.181 -0.2776  0.1507 -1.2519
  257MOL0     O34618   0.572   1.581   3.135 -0.0142 -1.5455 -0.1649
  257MOL0     C34619   0.689   1.616   3.204 -0.4675 -0.2738 -0.5456
  257MOL0     C34620   0.767   1.716   3.118 -0.7101 -0.3154 -0.1001
  257MOL0     C34621   0.819   1.642   2.992  0.6065 -0.6088 -0.0904
  257MOL0     C34622   0.908   1.728   2.906 -0.1007 -1.2376 -0.0388
  257MOL0     C34623   0.941   1.669   2.781  0.3411  0.6816 -0.7905
  257MOL0     C34624   0.963   1.628   2.668 -0.1479 -0.0538 -0.3999
  257MOL0     C34625   0.488   1.411   3.299  1.1117  0.3809 -0.5700
  257MOL0     C34626   0.392   1.319   3.346  0.0731  1.1991  0.0215
  257MOL0     C34627   0.433   1.228   3.465  1.3579 -0.0465 -0.5288
  257MOL0     H34628   0.236   0.940   3.478 -0.7769  1.6106 -2.5110
  257MOL0     H34629   0.091   0.753   3.548 -0.3814  0.1161 -0.3926
  257MOL0     H34630  -0.087   0.565   3.548 -0.6315 -2.2486  1.2372
  257MOL0     H34631  -0.035   0.629   3.700  0.1143 -3.1833  0.0460
  257MOL0     H34632  -0.276   0.595   3.796 -0.4715  0.9354 -1.7891
  257MOL0     H34633  -0.205   0.447   3.733  0.0752 -0.2071 -3.7846
  257MOL0     H34634  -0.331   0.506   3.511  2.6915 -0.2321  1.4744
  257MOL0     H34635  -0.410   0.634   3.606 -2.7526 -1.2059  0.3613
  257MOL0     H34636  -0.519   0.452   3.739 -3.4433  0.4880 -0.2106
  257MOL0     H34637  -0.566   0.442   3.564 -1.4272  0.5860  2.2732
  257MOL0     H34638  -0.402   0.262   3.535 -1.5789  0.8971 -1.8871
  257MOL0     H34639  -0.371   0.260   3.708  0.6602  1.0475 -0.1016
  257MOL0     H34640  -0.602   0.223   3.766  2.5851 -2.5816  2.0262
  257MOL0     H34641  -0.650   0.208   3.596 -0.2012 -2.5364 -0.2256
  257MOL0     H34642  -0.496   0.035   3.556  0.6099  2.8195 -1.3717
  257MOL0     H34643  -0.622  -0.020   3.669  2.3529 -2.6116 -2.7411
  257MOL0     H34644  -0.337   0.039   3.716 -0.2236  2.8559  0.4082
  257MOL0     H34645  -0.440   0.057   3.857  1.5408  2.7179 -0.7170
  257MOL0     H34646  -0.384  -0.229   3.610  0.3756  1.6914  0.5502
  257MOL0     H34647  -0.512  -0.548   3.743  0.2742 -1.8978 -3.8079
  257MOL0     H34648  -0.428  -0.457   3.616 -1.9075 -2.2863 -0.1911
  257MOL0     H34649  -0.291  -0.645   3.729  1.6854  1.3386 -2.1883
  257MOL0     H34650  -0.222  -0.486   3.765 -0.1041 -0.2259  1.0036
  257MOL0     H34651  -0.411  -0.658   3.943  0.6692 -1.1364 -0.1119
  257MOL0     H34652  -0.332  -0.503   3.982  0.9238  1.8824 -2.0222
  257MOL0     H34653  -0.179  -0.768   3.917  1.5460 -1.4241  1.7162
  257MOL0     H34654  -0.232  -0.709   4.073  0.8069  2.6527  2.0078
  257MOL0     H34655   0.017  -0.836   4.051 -2.2479 -1.3878 -4.8108
  257MOL0     H34656   0.245  -0.913   4.018  0.9777 -0.0090 -0.9324
  257MOL0     H34657   0.749  -0.799   3.988  0.1781 -0.9111  1.1563
  257MOL0     H34658   0.940  -0.898   3.868 -0.7081  0.9845  2.4130
  257MOL0     H34659   1.095  -1.051   3.831  1.8605 -1.6029  1.1375
  257MOL0     H34660   1.052  -1.220   3.850  2.3035 -0.7984 -1.1530
  257MOL0     H34661   1.276  -1.185   3.718  0.2881  0.9004 -0.7756
  257MOL0     H34662   1.163  -1.271   3.617  5.1756 -0.1621 -1.9564
  257MOL0     H34663   1.096  -1.047   3.524 -0.4133 -1.6017  1.3204
  257MOL0     H34664   1.247  -0.973   3.593  1.4756  0.3874 -2.7598
  257MOL0     H34665   1.233  -1.202   3.396  1.9918 -1.4464 -0.0199
  257MOL0     H34666   1.372  -1.140   3.473 -0.9290 -1.2853  0.2333
  257MOL0     H34667   1.348  -0.920   3.359  1.1430 -0.6432 -2.9067
  257MOL0     H34668   1.186  -0.961   3.311 -0.0079 -0.4343 -1.7034
  257MOL0     H34669   1.432  -1.136   3.261  1.3013 -0.7186 -1.4158
  257MOL0     H34670   1.272  -1.154   3.191  0.6157 -0.4458  1.6659
  257MOL0     H34671   1.471  -0.938   3.085  1.8763 -3.1300  1.3385
  257MOL0     H34672   1.295  -0.917   3.069  0.7935  0.1814 -0.2976
  257MOL0     H34673   1.291  -1.127   2.935  0.3093 -1.5764  1.9220
  257MOL0     H34674   1.417  -1.009   2.876 -0.1947  0.9071  0.8985
  257MOL0     H34675   0.692  -1.237   3.767 -0.1785  1.2491 -2.0542
  257MOL0     H34676   0.501  -1.130   3.858  0.0302 -0.0038 -1.6918
  257MOL0     H34677   0.324  -0.534   3.819 -1.0911 -0.1580 -1.0133
  257MOL0     H34678   0.105  -0.473   3.834  1.7018  2.0601  2.4858
  257MOL0     H34679  -0.245   0.998   3.580  0.8050  2.5384  2.1579
  257MOL0     H34680  -0.114   1.194   3.488 -1.1828 -0.6176 -4.2771
  257MOL0     H34681   0.152   1.429   3.112 -0.8350  1.7150  0.8476
  257MOL0     H34682   0.351   1.552   3.021 -0.8205 -0.7081 -0.5321
  257MOL0     H34683   0.745   1.525   3.230  1.9814  1.0036 -1.0730
  257MOL0     H34684   0.664   1.671   3.295  1.7162 -0.2695  0.1064
  257MOL0     H34685   0.854   1.756   3.172 -2.0864  1.8420  0.6261
  257MOL0     H34686   0.707   1.801   3.087  1.7464  0.4435 -3.4613
  257MOL0     H34687   0.731   1.609   2.936 -0.8231  1.8775  0.5719
  257MOL0     H34688   0.880   1.561   3.034  3.7299  2.1179  1.1232
  257MOL0     H34689   0.852   1.820   2.886 -0.3942 -1.2042  0.8962
  257MOL0     H34690   0.997   1.759   2.962 -0.9972 -0.5430  1.0426
  257MOL0     H34691   0.981   1.620   2.563  0.2604 -0.0606 -0.3310
  257MOL0     H34692   0.576   1.427   3.360  0.4825 -2.2772  1.2621
  257MOL0     H34693   0.374   1.264   3.549 -0.4873 -0.8055 -1.4567
  257MOL0     H34694   0.404   1.123   3.464 -2.3593  0.8222  0.8255
  257MOL0     H34695   0.541   1.242   3.479  0.9463  2.7787  0.4725
  258MOL0     O34696   3.575   4.718   6.395 -0.6742 -1.0552  0.4016
  258MOL0     C34697   3.624   4.622   6.447 -0.2196  0.0863 -0.9836
  258MOL0     O34698   3.635   4.503   6.393 -0.7653 -0.0952 -0.6782
  258MOL0     C34699   3.584   4.477   6.272  0.3502  0.2188  0.8144
  258MOL0     C34700   3.443   4.492   6.250  0.0989 -0.7231  0.3165
  258MOL0     C34701   3.386   4.418   6.142 -0.2229 -0.0335 -1.1887
  258MOL0     C34702   3.461   4.343   6.053  0.9625 -0.5226  0.1132
  258MOL0     O34703   3.403   4.282   5.938 -0.2615 -0.4745 -0.2404
  258MOL0     C34704   3.370   4.144   5.969 -0.4243 -0.9064  0.4914
  258MOL0     C34705   3.360   4.071   5.835 -0.5537 -0.2303 -0.3863
  258MOL0     C34706   3.246   3.961   5.847 -0.7657  0.7212 -0.3157
  258MOL0     C34707   3.270   3.833   5.760 -0.1281  0.1465 -0.5959
  258MOL0     C34708   3.158   3.727   5.780  0.3649 -0.5641  0.3905
  258MOL0     C34709   3.185   3.581   5.738  0.6045 -0.6399  0.1365
  258MOL0     C34710   3.064   3.479   5.743 -0.0703 -0.4910  0.1145
  258MOL0     C34711   2.937   3.521   5.663  0.1234 -0.3015  0.1548
  258MOL0     N34712   2.826   3.421   5.658  0.0659  0.3862 -0.3268
  258MOL0     C34713   2.832   3.285   5.640  0.1665  0.3063  0.3651
  258MOL0     C34714   2.709   3.235   5.670  0.6142 -0.5416 -0.6657
  258MOL0     C34715   2.682   3.093   5.639  0.4138 -0.1839 -0.2627
  258MOL0     C34716   2.678   2.999   5.757  0.6627 -0.3596 -0.2480
  258MOL0     C34717   2.817   2.963   5.805 -0.2162 -0.3082 -0.9210
  258MOL0     C34718   2.911   2.877   5.713 -1.2966  0.1409 -0.2371
  258MOL0     O34719   2.842   2.767   5.652  0.0575 -0.0634 -0.2275
  258MOL0     C34720   2.822   2.655   5.726 -0.1985 -0.5967 -0.3993
  258MOL0     C34721   2.692   2.609   5.747  0.4980 -0.1089 -0.2188
  258MOL0     C34722   2.665   2.497   5.827  0.1921  0.5422  0.1254
  258MOL0     C34723   2.764   2.425   5.880 -0.1011 -0.3983 -0.0337
  258MOL0     C34724   2.732   2.321   5.971 -1.2729 -0.0381  0.1607
  258MOL0     O34725   2.633   2.346   6.047  0.3812 -0.7234 -0.4965
  258MOL0     C34726   2.581   2.242   6.114  1.1818 -0.4072  0.7907
  258MOL0     C34727   2.631   2.216   6.235 -0.5669 -0.6854 -1.0769
  258MOL0     C34728   2.578   2.116   6.310 -0.0765  0.6926 -0.6241
  258MOL0     C34729   2.465   2.037   6.261 -0.2176 -0.9035 -0.0802
  258MOL0     O34730   2.430   1.917   6.304 -0.1514  0.7839  0.0767
  258MOL0     C34731   2.483   1.867   6.434  0.1877 -0.3864  1.1964
  258MOL0     C34732   2.409   1.739   6.473 -0.0837  0.4861 -0.0686
  258MOL0     C34733   2.260   1.768   6.494  0.1807  1.3620 -0.1836
  258MOL0     C34734   2.182   1.642   6.528 -0.0606  0.3852 -0.2880
  258MOL0     C34735   2.042   1.677   6.539  0.3560 -0.6911 -0.1680
  258MOL0     C34736   1.939   1.564   6.577  0.2445 -0.2571  0.6472
  258MOL0     C34737   1.985   1.431   6.523 -0.2603  0.2559 -0.3347
  258MOL0     C34738   1.890   1.317   6.568  0.6501 -0.5077 -0.1791
  258MOL0    Cl34739   1.957   1.150   6.539  0.0575 -0.2126  0.0963
  258MOL0     C34740   2.421   2.065   6.136  0.1896  0.8502  0.8406
  258MOL0     C34741   2.476   2.167   6.060  0.0758 -0.8362 -0.0784
  258MOL0     O34742   2.808   2.224   5.983 -0.4813  0.1274 -0.1612
  258MOL0     C34743   2.896   2.463   5.850 -0.9965 -1.2315 -0.0974
  258MOL0     C34744   2.926   2.587   5.790  0.4432  0.0714  0.1553
  258MOL0     N34745   2.634   3.341   5.731  0.2800 -0.2821 -0.3378
  258MOL0     N34746   2.701   3.449   5.708  1.1642  1.1257  0.0550
  258MOL0     C34747   3.601   4.333   6.074 -0.9844 -0.7995  0.0283
  258MOL0     C34748   3.668   4.403   6.178 -0.5191  0.4010 -0.1814
  258MOL0     C34749   3.674   4.630   6.588  0.3952  0.0440 -0.8182
  258MOL0     C34750   3.583   4.688   6.681 -0.5442 -0.4918 -0.4842
  258MOL0     C34751   3.609   4.693   6.817 -0.1554  0.3097 -0.0146
  258MOL0     C34752   3.726   4.637   6.863 -0.4732 -0.1570  0.1188
  258MOL0     O34753   3.757   4.646   6.998  0.0859 -0.5966 -0.0949
  258MOL0     C34754   3.802   4.772   7.036  0.1274 -0.7958  0.7115
  258MOL0     C34755   3.870   4.762   7.169 -1.2972 -0.2463 -0.1428
  258MOL0     C34756   3.991   4.679   7.161  0.1298 -0.0651  0.2336
  258MOL0     C34757   4.012   4.597   7.293  0.6058 -0.1277  0.1856
  258MOL0     C34758   4.135   4.515   7.299 -0.8193 -0.9551 -0.4565
  258MOL0     C34759   4.240   4.466   7.330 -0.8981  0.4662  0.1539
  258MOL0     C34760   3.820   4.584   6.775 -0.8379 -0.4159  0.4908
  258MOL0     C34761   3.793   4.574   6.635  0.9251  0.0579  0.3838
  258MOL0     C34762   3.908   4.522   6.553  0.0861 -0.4081  0.1713
  258MOL0     H34763   3.387   4.550   6.323  1.8153 -1.0092  1.9209
  258MOL0     H34764   3.283   4.430   6.112  0.5925  3.1680 -3.0948
  258MOL0     H34765   3.443   4.091   6.030  2.6476  1.7999 -0.5516
  258MOL0     H34766   3.271   4.143   6.016 -0.2118  0.2142  0.9722
  258MOL0     H34767   3.460   4.026   5.829 -0.6859 -0.5706 -0.0695
  258MOL0     H34768   3.330   4.138   5.754  2.3388  3.0559  0.9907
  258MOL0     H34769   3.148   4.000   5.818 -2.1900 -3.8559 -2.7566
  258MOL0     H34770   3.241   3.926   5.951 -1.7631 -0.9069 -0.8734
  258MOL0     H34771   3.262   3.847   5.652 -1.7525 -0.3691 -0.5788
  258MOL0     H34772   3.367   3.787   5.784 -0.3961 -0.3589 -0.4526
  258MOL0     H34773   3.143   3.738   5.888  1.1525  0.3141  0.4176
  258MOL0     H34774   3.071   3.768   5.728  1.7830  1.1563 -0.7440
  258MOL0     H34775   3.224   3.562   5.637 -1.7498 -3.1900 -0.4088
  258MOL0     H34776   3.258   3.545   5.811 -1.0560 -1.5754  1.3886
  258MOL0     H34777   3.046   3.463   5.849 -2.6286 -1.6663 -0.4393
  258MOL0     H34778   3.097   3.387   5.694 -1.2641 -1.0943  0.4325
  258MOL0     H34779   2.905   3.617   5.704  0.8955 -0.7476  1.9225
  258MOL0     H34780   2.956   3.537   5.556  0.2842  0.1428  0.2475
  258MOL0     H34781   2.919   3.229   5.608  0.4635 -0.9193  3.0867
  258MOL0     H34782   2.578   3.089   5.605  0.9780  0.3723 -2.1840
  258MOL0     H34783   2.734   3.056   5.550 -1.0536  1.5007 -1.8885
  258MOL0     H34784   2.630   3.052   5.839 -0.0010 -0.0160 -0.8481
  258MOL0     H34785   2.612   2.918   5.724  0.5878  0.6982 -2.9466
  258MOL0     H34786   2.808   2.903   5.896 -0.8856 -0.5848 -1.1691
  258MOL0     H34787   2.872   3.053   5.837 -1.4461  0.4818 -0.9694
  258MOL0     H34788   3.001   2.847   5.768 -1.1237 -0.3731 -0.7808
  258MOL0     H34789   2.960   2.934   5.634  0.5168 -0.2082  0.5787
  258MOL0     H34790   2.612   2.671   5.707 -1.2418 -1.3040  1.2374
  258MOL0     H34791   2.560   2.474   5.844  0.2975  0.2281  0.3571
  258MOL0     H34792   2.713   2.268   6.285 -1.3024 -0.1034 -0.4595
  258MOL0     H34793   2.611   2.088   6.410 -3.1208  3.8489  1.4863
  258MOL0     H34794   2.590   1.849   6.420  0.3666  0.9308  0.6975
  258MOL0     H34795   2.461   1.941   6.511  2.2750  0.6132  0.9022
  258MOL0     H34796   2.426   1.660   6.399  3.3490 -0.1604  1.2005
  258MOL0     H34797   2.440   1.700   6.570 -3.2399 -1.2429  0.3725
  258MOL0     H34798   2.242   1.842   6.573 -0.1692 -0.2330  1.3103
  258MOL0     H34799   2.224   1.820   6.406  0.0979  0.9797 -0.3788
  258MOL0     H34800   2.222   1.596   6.619 -2.5727  0.8167  1.1334
  258MOL0     H34801   2.197   1.565   6.452  1.8855 -0.9069  1.3051
  258MOL0     H34802   2.004   1.719   6.445  1.7280 -0.5380 -0.6686
  258MOL0     H34803   2.030   1.753   6.617 -3.3463 -0.9116 -0.3247
  258MOL0     H34804   1.943   1.553   6.685 -3.2382  0.6052  1.0003
  258MOL0     H34805   1.839   1.597   6.546  1.2295  3.9898  1.2605
  258MOL0     H34806   2.074   1.401   6.580 -0.8505  3.3615  2.5862
  258MOL0     H34807   2.013   1.437   6.417  2.5635  3.1884  0.3870
  258MOL0     H34808   1.867   1.323   6.675 -0.7618 -1.6586 -0.3953
  258MOL0     H34809   1.797   1.334   6.514 -0.0328  0.4286  1.2317
  258MOL0     H34810   2.341   1.996   6.109  0.7176  1.0825 -1.5604
  258MOL0     H34811   2.444   2.221   5.971  4.1637  1.1581 -0.5891
  258MOL0     H34812   2.989   2.416   5.880  0.0118  0.8207  0.1254
  258MOL0     H34813   3.031   2.614   5.788  0.2441  0.8579 -0.1575
  258MOL0     H34814   3.668   4.292   5.999 -1.6530  2.4021 -2.5170
  258MOL0     H34815   3.772   4.379   6.198 -1.1957 -1.9571  0.8991
  258MOL0     H34816   3.486   4.719   6.643 -0.0720  1.0903 -0.4685
  258MOL0     H34817   3.539   4.741   6.885 -0.0131  1.4517 -0.6328
  258MOL0     H34818   3.716   4.839   7.041 -1.0488 -2.2100  0.2279
  258MOL0     H34819   3.883   4.814   6.976 -1.1911  0.8240  0.0059
  258MOL0     H34820   3.798   4.713   7.235 -0.2604 -0.0183  1.2003
  258MOL0     H34821   3.894   4.859   7.215 -0.4494 -1.1469  1.3955
  258MOL0     H34822   4.071   4.743   7.123  0.8547 -2.1168 -1.9225
  258MOL0     H34823   3.985   4.604   7.081 -0.0205  1.6482 -1.4342
  258MOL0     H34824   4.010   4.670   7.375 -1.3701  0.2459 -0.1241
  258MOL0     H34825   3.922   4.537   7.312  0.2239 -0.7091 -2.9293
  258MOL0     H34826   4.334   4.438   7.373 -1.0239 -0.2594 -0.0348
  258MOL0     H34827   3.911   4.557   6.829 -0.9346  1.3746  1.6326
  258MOL0     H34828   3.915   4.413   6.568 -1.1779 -0.7769 -1.5764
  258MOL0     H34829   3.901   4.531   6.445  1.8318  1.2207  0.1612
  258MOL0     H34830   3.993   4.577   6.593 -0.4817  0.5700  0.0555
  259MOL0     O34831   2.500   2.558   0.562  0.4672 -0.6551  0.2121
  259MOL0     C34832   2.553   2.505   0.661  0.4789  0.6986 -0.3061
  259MOL0     O34833   2.521   2.378   0.715  0.2296 -0.9382 -0.5664
  259MOL0     C34834   2.429   2.288   0.658  0.4467 -0.6760 -0.6944
  259MOL0     C34835   2.313   2.329   0.607 -0.0561 -0.2340  0.4184
  259MOL0     C34836   2.212   2.247   0.568  0.6980 -0.2048 -0.0363
  259MOL0     C34837   2.236   2.108   0.563 -0.4603  0.5201 -0.5214
  259MOL0     O34838   2.143   2.012   0.517  0.0595 -0.4569 -0.2877
  259MOL0     C34839   2.070   2.031   0.393 -0.0674 -0.2442 -0.3405
  259MOL0     C34840   1.954   1.926   0.403 -0.3786  0.3439 -0.0240
  259MOL0     C34841   2.002   1.781   0.365 -0.0633  0.2119  0.1696
  259MOL0     C34842   1.877   1.684   0.369  0.5661 -0.8454  0.1883
  259MOL0     C34843   1.927   1.546   0.355 -0.1861  0.2339  0.8879
  259MOL0     C34844   1.979   1.510   0.217 -0.2902  0.0878  0.3348
  259MOL0     C34845   2.050   1.377   0.226  0.7051 -0.3238  0.3380
  259MOL0     C34846   2.177   1.394   0.300 -0.1116  0.2882 -0.4084
  259MOL0     N34847   2.272   1.278   0.281 -0.1183 -0.1737 -0.8463
  259MOL0     C34848   2.317   1.229   0.154  0.1715  0.1983 -0.3871
  259MOL0     C34849   2.412   1.139   0.184  0.9945  0.8168  0.2547
  259MOL0     C34850   2.504   1.068   0.081  0.0426  0.2114  0.1198
  259MOL0     C34851   2.590   1.176   0.013  0.2165 -0.2349 -0.0419
  259MOL0     C34852   2.711   1.104  -0.048  0.0714 -0.4865 -0.6675
  259MOL0     C34853   2.786   1.202  -0.138 -0.2708  0.4752  0.6643
  259MOL0     O34854   2.878   1.275  -0.059 -0.0688 -1.0467  0.0023
  259MOL0     C34855   3.017   1.268  -0.050  0.3596  0.0478 -0.5396
  259MOL0     C34856   3.086   1.341   0.047 -0.7609  0.0921 -0.4123
  259MOL0     C34857   3.217   1.332   0.075 -1.0011  0.1484  0.3021
  259MOL0     C34858   3.290   1.240   0.003  0.2861  0.1112 -0.1010
  259MOL0     C34859   3.432   1.251   0.026 -1.2994  0.6861  0.4967
  259MOL0     O34860   3.506   1.267  -0.093  0.4277  0.1023 -0.5668
  259MOL0     C34861   3.644   1.281  -0.098  0.3242 -0.0394  0.0440
  259MOL0     C34862   3.717   1.183  -0.169  0.8735 -0.3158  0.6985
  259MOL0     C34863   3.859   1.202  -0.186 -0.5007 -0.1324 -0.2022
  259MOL0     C34864   3.919   1.320  -0.144 -0.9890  0.4828 -0.5688
  259MOL0     O34865   4.061   1.331  -0.168 -0.0125 -0.2248  1.0554
  259MOL0     C34866   4.110   1.466  -0.196  0.3861  0.0348  0.1004
  259MOL0     C34867   4.260   1.479  -0.173  0.5802 -0.1755  0.7000
  259MOL0     C34868   4.313   1.445  -0.038 -1.1487  0.0164  0.1317
  259MOL0     C34869   4.254   1.535   0.074  0.0625 -0.9727  0.4331
  259MOL0     C34870   4.335   1.545   0.205 -0.1212 -1.0638 -0.5881
  259MOL0     C34871   4.357   1.407   0.276  0.2754 -0.1158  0.2549
  259MOL0     C34872   4.393   1.412   0.423  0.1330  0.4309  0.3185
  259MOL0     C34873   4.343   1.302   0.515 -0.0264  0.3800  0.1226
  259MOL0    Cl34874   4.449   1.153   0.500  0.0474  0.0878  0.1117
  259MOL0     C34875   3.847   1.413  -0.062  0.0035  0.8452  0.1343
  259MOL0     C34876   3.708   1.393  -0.040  0.1562  1.0025 -0.2819
  259MOL0     O34877   3.477   1.269   0.140 -0.5583 -0.6853 -0.2329
  259MOL0     C34878   3.230   1.177  -0.111 -0.5143 -0.2931  0.2895
  259MOL0     C34879   3.096   1.185  -0.137 -1.1448  0.1885 -0.2784
  259MOL0     N34880   2.405   1.124   0.322  0.1498  0.6795 -0.0600
  259MOL0     N34881   2.347   1.216   0.379 -0.0455  0.9286  0.3631
  259MOL0     C34882   2.365   2.066   0.608 -0.3335 -0.0091 -0.7439
  259MOL0     C34883   2.451   2.152   0.668  0.2190 -0.6612 -0.0174
  259MOL0     C34884   2.663   2.578   0.730  0.2428  0.0893  0.4344
  259MOL0     C34885   2.692   2.718   0.697 -0.2621  0.2769 -0.1016
  259MOL0     C34886   2.786   2.798   0.758 -0.0488 -0.1956  0.1446
  259MOL0     C34887   2.884   2.732   0.841  1.0823  0.4644 -0.0754
  259MOL0     O34888   2.988   2.817   0.885 -0.6145  0.0448 -0.1169
  259MOL0     C34889   3.105   2.762   0.955 -1.5993  0.6849  0.8433
  259MOL0     C34890   3.221   2.854   0.941 -0.9687  0.7749 -0.3113
  259MOL0     C34891   3.342   2.823   1.033  0.0164 -0.9299 -0.0519
  259MOL0     C34892   3.475   2.862   0.965 -0.2444  0.5486 -0.7917
  259MOL0     C34893   3.585   2.854   1.066  1.6552  0.6493  0.5279
  259MOL0     C34894   3.668   2.866   1.153  0.1639  0.2747 -0.4214
  259MOL0     C34895   2.852   2.601   0.880 -0.0552  0.5386 -0.2738
  259MOL0     C34896   2.743   2.530   0.836  0.2126  0.5192  0.0284
  259MOL0     C34897   2.727   2.402   0.907  0.1486 -0.0605  0.4106
  259MOL0     H34898   2.299   2.437   0.609  2.0084  0.0761  2.5949
  259MOL0     H34899   2.124   2.291   0.521 -0.7984 -2.4090  0.5367
  259MOL0     H34900   2.027   2.131   0.388 -0.7027 -0.4549  0.5193
  259MOL0     H34901   2.125   2.014   0.300 -2.7792 -4.3686 -1.4698
  259MOL0     H34902   1.872   1.938   0.330 -0.3621 -1.9425 -0.4873
  259MOL0     H34903   1.919   1.918   0.506  0.6192 -2.7076  0.1662
  259MOL0     H34904   2.066   1.759   0.450  1.9753 -0.2717 -1.3922
  259MOL0     H34905   2.059   1.774   0.271 -3.1613 -1.0606 -1.7513
  259MOL0     H34906   1.837   1.686   0.471  0.6941 -2.6473  0.3047
  259MOL0     H34907   1.801   1.705   0.294  0.7396 -2.4710 -0.4769
  259MOL0     H34908   2.010   1.533   0.424  1.2033  2.2427 -0.2993
  259MOL0     H34909   1.838   1.485   0.376 -0.3423  0.7560  1.8072
  259MOL0     H34910   1.896   1.504   0.146 -0.9448 -1.9809  1.2148
  259MOL0     H34911   2.055   1.582   0.183  1.5097 -0.5467  2.7111
  259MOL0     H34912   2.070   1.346   0.123 -0.5987  1.1866 -0.4060
  259MOL0     H34913   1.980   1.304   0.269  0.1599 -0.7933 -1.2785
  259MOL0     H34914   2.229   1.483   0.263 -0.1077 -0.4112 -2.1710
  259MOL0     H34915   2.172   1.388   0.409  2.3417 -1.4155 -0.3142
  259MOL0     H34916   2.288   1.256   0.053  1.0468  1.8245 -0.2498
  259MOL0     H34917   2.576   1.007   0.135  2.1633  1.9698 -0.5961
  259MOL0     H34918   2.452   0.998   0.014 -0.1255 -0.8552  1.3166
  259MOL0     H34919   2.530   1.224  -0.065 -1.7184 -2.2422  0.0926
  259MOL0     H34920   2.614   1.248   0.092  0.5006 -1.4458  1.0022
  259MOL0     H34921   2.675   1.018  -0.106  1.9112 -1.4831 -0.4243
  259MOL0     H34922   2.776   1.061   0.028 -0.5492 -0.4649 -0.1173
  259MOL0     H34923   2.723   1.281  -0.181 -1.5806 -0.2498  1.1909
  259MOL0     H34924   2.835   1.151  -0.221  1.1851  1.4761  0.8659
  259MOL0     H34925   3.030   1.392   0.125 -0.7757  1.2717 -1.1686
  259MOL0     H34926   3.266   1.389   0.154 -0.3622 -2.5339  1.9729
  259MOL0     H34927   3.670   1.101  -0.222 -0.9758  0.6470  0.7782
  259MOL0     H34928   3.920   1.118  -0.218  0.4854  0.7160 -0.5663
  259MOL0     H34929   4.092   1.488  -0.302  1.2629  1.4910  0.2283
  259MOL0     H34930   4.050   1.542  -0.146 -0.9645 -0.4305 -0.7321
  259MOL0     H34931   4.301   1.419  -0.254  0.1388 -1.4574  1.4045
  259MOL0     H34932   4.285   1.585  -0.188 -2.8833  0.9432  1.8255
  259MOL0     H34933   4.287   1.342  -0.014  0.7205 -0.5138  0.0929
  259MOL0     H34934   4.422   1.455  -0.043 -0.9801 -0.9330  1.2863
  259MOL0     H34935   4.153   1.498   0.093 -0.0524 -0.1843  1.4847
  259MOL0     H34936   4.240   1.639   0.043  0.3966 -0.0259  3.1637
  259MOL0     H34937   4.285   1.612   0.276  4.2012  1.4612  0.4872
  259MOL0     H34938   4.430   1.599   0.191  0.6617 -1.0512  3.4804
  259MOL0     H34939   4.255   1.369   0.263  0.5055 -0.7414  0.2251
  259MOL0     H34940   4.430   1.347   0.220 -0.2297 -3.4014  2.8139
  259MOL0     H34941   4.348   1.507   0.454 -2.6422 -0.8892  0.6937
  259MOL0     H34942   4.502   1.419   0.428  0.0180  3.3802  0.3450
  259MOL0     H34943   4.340   1.348   0.614 -3.9182  1.9027 -0.5573
  259MOL0     H34944   4.238   1.281   0.494 -2.0528  6.4435  2.1511
  259MOL0     H34945   3.890   1.501  -0.015 -0.3524  1.4494 -0.6484
  259MOL0     H34946   3.641   1.471  -0.005  0.6516  2.6034 -2.6682
  259MOL0     H34947   3.301   1.125  -0.175 -0.0288 -0.3316  0.8455
  259MOL0     H34948   3.058   1.135  -0.225  0.9968  0.3160 -1.3357
  259MOL0     H34949   2.380   1.959   0.596 -0.2227 -0.1492  0.5678
  259MOL0     H34950   2.542   2.110   0.708 -0.6656 -1.7104  0.9534
  259MOL0     H34951   2.638   2.775   0.623  2.8901  1.8506 -1.4028
  259MOL0     H34952   2.793   2.906   0.747  0.8705 -0.3179 -0.5679
  259MOL0     H34953   3.133   2.670   0.902 -0.2924 -0.0998  2.8035
  259MOL0     H34954   3.078   2.743   1.059  0.4315 -1.4610  1.0448
  259MOL0     H34955   3.181   2.947   0.982 -0.3572 -0.3171  3.1457
  259MOL0     H34956   3.253   2.858   0.837  3.0626  0.9546  0.7712
  259MOL0     H34957   3.334   2.720   1.068 -2.1843 -0.4095  1.1848
  259MOL0     H34958   3.326   2.891   1.117 -2.4401  0.4193 -1.4857
  259MOL0     H34959   3.500   2.791   0.886 -0.8255  1.0480 -1.4328
  259MOL0     H34960   3.480   2.963   0.923  2.5385  0.3917 -1.0340
  259MOL0     H34961   3.752   2.879   1.219 -0.5224 -2.3725  1.1299
  259MOL0     H34962   2.913   2.557   0.958 -1.4404 -1.5464 -0.2772
  259MOL0     H34963   2.769   2.327   0.839 -0.2865  1.9418 -2.2507
  259MOL0     H34964   2.781   2.388   1.001  1.0766 -3.6905 -0.5156
  259MOL0     H34965   2.620   2.378   0.915  0.1398 -0.1421  0.0579
  260MOL0     O34966   6.363   8.686   3.645  0.7535  0.0931 -1.0017
  260MOL0     C34967   6.250   8.638   3.662  0.1229 -0.7325  1.0946
  260MOL0     O34968   6.204   8.544   3.582 -0.2938 -0.7909 -0.3716
  260MOL0     C34969   6.274   8.484   3.480 -0.4797 -0.8789 -0.4730
  260MOL0     C34970   6.215   8.463   3.352  0.3207  0.6821  0.6107
  260MOL0     C34971   6.291   8.403   3.247  0.0660 -0.5181  0.6838
  260MOL0     C34972   6.429   8.379   3.270  0.4638 -0.2245  0.1712
  260MOL0     O34973   6.519   8.353   3.169 -0.1246 -0.0093  0.5464
  260MOL0     C34974   6.494   8.231   3.100  1.0254  0.6779 -0.6820
  260MOL0     C34975   6.599   8.191   3.000 -0.2794 -0.0606  0.7275
  260MOL0     C34976   6.546   8.085   2.901  0.6564 -0.7882 -0.5209
  260MOL0     C34977   6.645   8.061   2.789  0.2591 -0.8867 -0.5366
  260MOL0     C34978   6.611   8.170   2.684 -1.1643  0.7227  0.5793
  260MOL0     C34979   6.732   8.201   2.599 -0.6539  0.2448 -1.1351
  260MOL0     C34980   6.845   8.266   2.670  0.3619  0.5066 -0.0075
  260MOL0     C34981   6.949   8.287   2.557 -0.1662  0.0750  0.1549
  260MOL0     N34982   7.052   8.380   2.589 -0.8893  0.0225  0.9892
  260MOL0     C34983   7.036   8.516   2.561  0.0230  0.2568  0.6595
  260MOL0     C34984   7.162   8.557   2.563  0.0860  0.5714 -0.0479
  260MOL0     C34985   7.226   8.696   2.532 -0.2822 -0.0554 -0.2936
  260MOL0     C34986   7.209   8.729   2.377  0.2387  0.4722 -0.0678
  260MOL0     C34987   7.232   8.630   2.263  0.5206  0.1749  0.0042
  260MOL0     C34988   7.252   8.676   2.122 -0.4969 -0.8341 -0.3119
  260MOL0     O34989   7.138   8.765   2.091 -0.7877  0.2348  0.2646
  260MOL0     C34990   7.009   8.702   2.088 -0.2126 -0.3391 -0.0261
  260MOL0     C34991   6.978   8.597   1.997  0.6428 -0.1933  1.2814
  260MOL0     C34992   6.845   8.543   1.985  1.0428 -0.3264  0.6086
  260MOL0     C34993   6.738   8.613   2.061 -0.1499  0.4381  0.7773
  260MOL0     C34994   6.593   8.597   2.042  0.3467 -0.2919  0.3059
  260MOL0     O34995   6.508   8.663   2.129 -0.4687 -0.7704  0.3385
  260MOL0     C34996   6.390   8.605   2.165  0.4421  0.2854 -0.9883
  260MOL0     C34997   6.384   8.503   2.259  0.0517 -0.1273 -0.1451
  260MOL0     C34998   6.253   8.468   2.318 -0.1830 -0.8615 -0.4808
  260MOL0     C34999   6.129   8.502   2.258  0.5848 -0.2019  1.2262
  260MOL0     O35000   6.016   8.454   2.312 -0.0674  0.2738  0.2865
  260MOL0     C35001   5.886   8.450   2.242  0.2371 -0.6576 -0.2836
  260MOL0     C35002   5.781   8.380   2.331  0.6820 -1.3198 -0.7457
  260MOL0     C35003   5.656   8.333   2.257  0.4033 -0.6393 -0.2701
  260MOL0     C35004   5.572   8.246   2.356 -0.0379  0.9604 -0.4258
  260MOL0     C35005   5.432   8.209   2.307  0.6860  0.4158 -1.3493
  260MOL0     C35006   5.435   8.099   2.198 -0.1696  0.3312 -0.1521
  260MOL0     C35007   5.439   8.150   2.050 -0.3221  0.3267  0.2764
  260MOL0     C35008   5.396   8.035   1.960 -0.0907  0.4781  0.0787
  260MOL0    Cl35009   5.346   8.091   1.801  0.2588 -0.7258 -0.3015
  260MOL0     C35010   6.136   8.606   2.157 -0.1218  0.1670  0.7965
  260MOL0     C35011   6.266   8.649   2.113  0.5717 -0.0777 -0.0381
  260MOL0     O35012   6.556   8.534   1.943 -0.1672  0.2736 -0.6204
  260MOL0     C35013   6.777   8.707   2.151  0.1805 -0.2712 -0.1500
  260MOL0     C35014   6.906   8.751   2.165 -0.4188 -0.6324  0.3222
  260MOL0     N35015   7.247   8.444   2.579 -0.0353  0.2440 -0.2601
  260MOL0     N35016   7.182   8.342   2.583 -0.7666  0.6516  1.1402
  260MOL0     C35017   6.487   8.387   3.403 -0.0961  0.1679 -0.0694
  260MOL0     C35018   6.402   8.443   3.501 -0.3207 -0.2969  0.5661
  260MOL0     C35019   6.158   8.703   3.761  0.2202 -0.8685 -0.3859
  260MOL0     C35020   6.219   8.787   3.856 -0.0636 -0.3450 -0.4183
  260MOL0     C35021   6.155   8.868   3.946 -0.0553  0.3997  0.1994
  260MOL0     C35022   6.021   8.856   3.956  0.0451 -0.0873  0.6208
  260MOL0     O35023   5.942   8.909   4.060 -0.8551  0.4803 -0.3260
  260MOL0     C35024   5.985   9.016   4.145 -0.5247 -0.4159 -0.1210
  260MOL0     C35025   5.968   9.148   4.062 -1.2010  0.7316 -0.2171
  260MOL0     C35026   5.834   9.217   4.076  0.6836 -0.2751 -0.2823
  260MOL0     C35027   5.731   9.154   3.989 -0.7603  0.1538 -0.4200
  260MOL0     C35028   5.607   9.232   4.003  0.6932 -0.7761  0.6245
  260MOL0     C35029   5.505   9.297   4.011  0.2567  1.2739 -0.2086
  260MOL0     C35030   5.959   8.772   3.864 -0.4058  0.8191  0.5378
  260MOL0     C35031   6.024   8.695   3.762 -0.5838  0.4667 -0.1222
  260MOL0     C35032   5.937   8.617   3.659 -0.7524 -1.2475  0.3322
  260MOL0     H35033   6.110   8.489   3.339  0.4019  1.0838  0.7372
  260MOL0     H35034   6.258   8.390   3.144  0.1601 -2.0202  0.8234
  260MOL0     H35035   6.484   8.147   3.169 -2.2049  1.4698 -0.0360
  260MOL0     H35036   6.395   8.232   3.054 -0.3123  0.2774  2.0198
  260MOL0     H35037   6.690   8.154   3.047  0.0540 -1.2650 -0.7714
  260MOL0     H35038   6.633   8.274   2.936 -0.0681  0.3233  1.3357
  260MOL0     H35039   6.452   8.110   2.852 -0.0338 -0.2112  1.0320
  260MOL0     H35040   6.530   7.995   2.960  1.1556  0.3472  1.4277
  260MOL0     H35041   6.740   8.067   2.842 -0.6809 -4.6119  1.9854
  260MOL0     H35042   6.645   7.963   2.741 -1.8475 -0.1812 -2.1449
  260MOL0     H35043   6.537   8.140   2.608 -2.7510  3.0129  1.1081
  260MOL0     H35044   6.585   8.269   2.722  0.1869  3.1377 -4.0470
  260MOL0     H35045   6.758   8.101   2.563 -3.4916  0.3419 -3.9359
  260MOL0     H35046   6.710   8.267   2.515 -0.4401 -0.4788 -1.7777
  260MOL0     H35047   6.890   8.212   2.754 -0.3806 -1.8699 -1.0736
  260MOL0     H35048   6.820   8.363   2.714 -1.8499  0.6101 -1.3806
  260MOL0     H35049   6.996   8.191   2.535  0.4191 -0.3076  2.7033
  260MOL0     H35050   6.897   8.322   2.468  0.6665  1.3535  0.1417
  260MOL0     H35051   6.946   8.568   2.531  0.7736  1.5470  0.5626
  260MOL0     H35052   7.172   8.767   2.595 -0.5641  0.2877 -0.9163
  260MOL0     H35053   7.329   8.689   2.568 -0.0191 -4.4199 -1.2908
  260MOL0     H35054   7.104   8.756   2.367  0.3392  1.6213  1.5716
  260MOL0     H35055   7.265   8.819   2.350 -0.1410  1.0052  0.8658
  260MOL0     H35056   7.144   8.566   2.263  1.2603 -0.8948 -1.0599
  260MOL0     H35057   7.315   8.575   2.308  1.0985  1.2769  0.3421
  260MOL0     H35058   7.265   8.602   2.043  0.1791  1.2599 -2.2871
  260MOL0     H35059   7.343   8.736   2.116 -0.4345  0.0408  5.0652
  260MOL0     H35060   7.064   8.556   1.945  2.0648  0.5585  2.9250
  260MOL0     H35061   6.821   8.456   1.925  1.0812  0.6078 -0.8089
  260MOL0     H35062   6.475   8.457   2.295 -0.8611 -0.9424  1.2525
  260MOL0     H35063   6.255   8.404   2.406  0.4376  2.4414  2.1067
  260MOL0     H35064   5.849   8.546   2.205  2.9147 -0.1440 -1.8209
  260MOL0     H35065   5.896   8.387   2.153 -5.0262 -3.2602  0.5425
  260MOL0     H35066   5.826   8.289   2.371  0.8842 -1.2109 -0.7275
  260MOL0     H35067   5.749   8.457   2.402 -0.8751 -0.1724 -2.5896
  260MOL0     H35068   5.590   8.412   2.219 -0.2560 -1.4067 -0.7591
  260MOL0     H35069   5.692   8.281   2.168  1.0019  1.6269 -1.4172
  260MOL0     H35070   5.564   8.305   2.448  2.7653  1.1156 -0.1934
  260MOL0     H35071   5.627   8.154   2.377  0.2784  1.0909 -0.6781
  260MOL0     H35072   5.386   8.296   2.258 -3.0009 -1.8479 -2.2938
  260MOL0     H35073   5.369   8.188   2.393  0.5616  1.9053 -1.0435
  260MOL0     H35074   5.517   8.030   2.218 -0.8493 -0.4852 -0.1370
  260MOL0     H35075   5.341   8.045   2.206  0.4593 -1.0267 -1.4583
  260MOL0     H35076   5.539   8.187   2.029  0.6399 -0.6900  2.7678
  260MOL0     H35077   5.365   8.231   2.042 -3.2291 -2.0973  0.6131
  260MOL0     H35078   5.483   7.968   1.953 -0.3695  0.0474  0.7162
  260MOL0     H35079   5.321   7.975   2.012  0.4740  1.2889  1.9256
  260MOL0     H35080   6.053   8.645   2.097  0.9457 -0.5939 -1.2920
  260MOL0     H35081   6.271   8.742   2.056  1.3358 -1.8900 -3.1934
  260MOL0     H35082   6.711   8.764   2.214  0.0381  0.8776 -1.2988
  260MOL0     H35083   6.920   8.834   2.234 -5.9021  0.7784  0.1822
  260MOL0     H35084   6.588   8.354   3.422 -0.8950 -3.3391 -1.1354
  260MOL0     H35085   6.445   8.464   3.598 -1.5786 -3.6937  2.0377
  260MOL0     H35086   6.326   8.802   3.855 -0.3172  2.4626  1.9458
  260MOL0     H35087   6.213   8.924   4.020  0.4934  1.4849 -1.0043
  260MOL0     H35088   6.090   8.995   4.169 -1.2854 -2.2399  1.9111
  260MOL0     H35089   5.939   9.023   4.244 -0.5314  0.7819 -0.1878
  260MOL0     H35090   5.978   9.126   3.955 -1.2869  2.2219 -0.5524
  260MOL0     H35091   6.041   9.221   4.097 -1.1583  0.5903 -0.0114
  260MOL0     H35092   5.827   9.324   4.054  0.4721 -0.1368  0.4145
  260MOL0     H35093   5.808   9.196   4.180  2.2602 -1.2395 -0.0475
  260MOL0     H35094   5.762   9.164   3.885  0.0386  0.1668 -0.1855
  260MOL0     H35095   5.717   9.052   4.027 -1.5488  1.0529  1.8775
  260MOL0     H35096   5.410   9.340   4.035  0.6903  3.2924 -1.7653
  260MOL0     H35097   5.852   8.760   3.869 -0.1241 -2.6468  0.7232
  260MOL0     H35098   5.968   8.512   3.655 -0.6816 -1.2636  1.0952
  260MOL0     H35099   5.830   8.609   3.676 -0.8047 -0.6729  0.2844
  260MOL0     H35100   5.965   8.650   3.558  0.3811  0.2367  1.0935
  261MOL0     O35101   1.839   9.762   1.887 -0.7539  0.3225 -0.1234
  261MOL0     C35102   1.803   9.869   1.927  0.2607  0.5617 -0.0250
  261MOL0     O35103   1.673   9.895   1.954 -0.2916  0.8177  0.2277
  261MOL0     C35104   1.576   9.801   1.924  0.6069  0.4710 -0.2684
  261MOL0     C35105   1.540   9.706   2.025  0.0010  0.7115  0.9355
  261MOL0     C35106   1.449   9.609   1.985  0.0388 -0.5103 -0.5571
  261MOL0     C35107   1.376   9.619   1.864  0.7246  0.5529  0.7598
  261MOL0     O35108   1.278   9.531   1.819  0.2673 -0.1822  0.0737
  261MOL0     C35109   1.225   9.429   1.906 -0.6876 -0.0266 -0.0005
  261MOL0     C35110   1.106   9.345   1.841 -0.2601 -0.4620 -0.0622
  261MOL0     C35111   0.971   9.415   1.848 -0.0848 -0.3029  0.6805
  261MOL0     C35112   0.860   9.346   1.760 -0.5342 -0.1202  0.6122
  261MOL0     C35113   0.802   9.228   1.827  0.0777  0.1588  0.0972
  261MOL0     C35114   0.665   9.190   1.771  0.7512 -0.5221 -0.5940
  261MOL0     C35115   0.671   9.124   1.631  0.8577 -0.5887  0.0098
  261MOL0     C35116   0.565   9.188   1.531  0.0543 -0.3772  0.7644
  261MOL0     N35117   0.604   9.315   1.462  0.2157  0.2603  0.1836
  261MOL0     C35118   0.735   9.346   1.415  0.5718 -1.2879  0.1473
  261MOL0     C35119   0.729   9.477   1.381  0.5907 -0.4047 -0.3107
  261MOL0     C35120   0.833   9.562   1.321 -0.5806 -0.2180  0.5345
  261MOL0     C35121   0.961   9.581   1.405  1.2021 -0.0328  1.5304
  261MOL0     C35122   1.059   9.472   1.369 -0.1293  0.9641  0.0938
  261MOL0     C35123   1.188   9.486   1.441  0.5971 -0.7926  0.4584
  261MOL0     O35124   1.282   9.379   1.413 -0.1638 -0.5373 -1.0375
  261MOL0     C35125   1.415   9.385   1.464 -0.0419 -0.3240 -0.3241
  261MOL0     C35126   1.504   9.280   1.432  0.7432 -0.2651  0.6077
  261MOL0     C35127   1.629   9.274   1.491  0.0088  0.2151 -0.3994
  261MOL0     C35128   1.671   9.366   1.594  0.7162  0.1984  1.1301
  261MOL0     C35129   1.807   9.359   1.649 -0.3487  1.3995  0.5276
  261MOL0     O35130   1.868   9.471   1.700  0.7074 -0.1488  0.6287
  261MOL0     C35131   2.006   9.479   1.718  0.3620  0.6619  0.7028
  261MOL0     C35132   2.054   9.541   1.835  0.7093  0.7228 -0.3021
  261MOL0     C35133   2.196   9.557   1.856 -0.0480  0.3586 -0.2125
  261MOL0     C35134   2.282   9.505   1.760 -0.5766  0.0898 -0.3231
  261MOL0     O35135   2.418   9.524   1.752 -0.3905  0.1741 -0.5815
  261MOL0     C35136   2.481   9.589   1.861 -0.7831  0.4271 -0.8515
  261MOL0     C35137   2.631   9.599   1.845 -0.2880  0.1438  0.9116
  261MOL0     C35138   2.708   9.476   1.784  0.0779  0.2765  0.8453
  261MOL0     C35139   2.735   9.486   1.633  0.0057 -0.3614 -0.0183
  261MOL0     C35140   2.771   9.350   1.571 -0.3766 -0.4128  0.1234
  261MOL0     C35141   2.630   9.282   1.531  0.6210 -0.3719 -0.7788
  261MOL0     C35142   2.639   9.172   1.419 -0.6222 -0.4369 -0.0604
  261MOL0     C35143   2.486   9.143   1.385 -0.5074  0.0591 -1.0157
  261MOL0    Cl35144   2.449   9.227   1.228  0.3478 -0.1676 -0.3091
  261MOL0     C35145   2.229   9.446   1.643 -1.1971 -0.5324  0.0045
  261MOL0     C35146   2.095   9.427   1.631  0.8983  0.0756 -0.0044
  261MOL0     O35147   1.858   9.248   1.653 -0.5493  0.3911 -0.3853
  261MOL0     C35148   1.580   9.475   1.613  0.1301  0.1246 -0.5856
  261MOL0     C35149   1.453   9.483   1.557  0.4520  0.0999  0.4565
  261MOL0     N35150   0.607   9.523   1.413 -0.2468 -0.4491  0.2065
  261MOL0     N35151   0.538   9.433   1.465  0.1869  0.3780  0.6846
  261MOL0     C35152   1.399   9.723   1.768 -0.4019 -1.5448  0.2196
  261MOL0     C35153   1.503   9.806   1.799 -0.3338  0.4473  0.2626
  261MOL0     C35154   1.901   9.984   1.943  0.1689  0.3515 -1.0339
  261MOL0     C35155   2.029   9.951   1.972 -0.8478  0.1721 -0.3645
  261MOL0     C35156   2.132  10.052   1.968  0.3037 -0.0875  0.1908
  261MOL0     C35157   2.109  10.183   1.942 -0.4179 -0.7678 -0.5177
  261MOL0     O35158   2.201  10.286   1.946 -0.0156  0.4017  0.4332
  261MOL0     C35159   2.336  10.254   1.904 -0.2741 -1.2944  0.3989
  261MOL0     C35160   2.426  10.220   2.022 -0.3761  0.9958 -0.4710
  261MOL0     C35161   2.576  10.181   1.986  0.7478  0.3244 -0.5200
  261MOL0     C35162   2.591  10.080   1.880  0.1326 -0.7732  0.2377
  261MOL0     C35163   2.694   9.981   1.910  1.0012  0.2240 -0.0985
  261MOL0     C35164   2.789   9.915   1.951 -0.5038 -0.4143  0.7033
  261MOL0     C35165   1.971  10.219   1.933 -0.3598 -0.3583  0.2739
  261MOL0     C35166   1.870  10.123   1.924 -0.2039 -0.1807 -0.4596
  261MOL0     C35167   1.725  10.171   1.897  0.0911  0.0520 -0.1829
  261MOL0     H35168   1.582   9.708   2.125  0.5760  1.0628  0.6924
  261MOL0     H35169   1.436   9.539   2.068  0.1120  1.3155  1.0554
  261MOL0     H35170   1.308   9.362   1.930 -0.1924  1.0667  1.5687
  261MOL0     H35171   1.197   9.486   1.995  1.5923  0.5780  0.3962
  261MOL0     H35172   1.091   9.257   1.904 -1.5812 -0.0981  0.1563
  261MOL0     H35173   1.133   9.316   1.738 -0.6494 -3.6450  0.6044
  261MOL0     H35174   0.999   9.510   1.800  1.3756 -1.3189 -0.5543
  261MOL0     H35175   0.945   9.435   1.952  3.5783 -3.8200  2.5505
  261MOL0     H35176   0.777   9.414   1.739 -1.4267 -1.0279  1.0960
  261MOL0     H35177   0.888   9.317   1.658 -0.1660 -1.5656  1.1010
  261MOL0     H35178   0.876   9.148   1.837 -0.5445 -0.3542  0.7090
  261MOL0     H35179   0.792   9.257   1.932  0.5326 -2.9840  1.1354
  261MOL0     H35180   0.622   9.113   1.836 -2.9298  0.4909 -1.6191
  261MOL0     H35181   0.597   9.275   1.766  2.0242  0.4557 -1.9750
  261MOL0     H35182   0.658   9.016   1.646  0.5256 -0.7519 -1.3328
  261MOL0     H35183   0.768   9.139   1.582  1.9940  2.3037  2.8184
  261MOL0     H35184   0.540   9.111   1.458 -1.0514 -0.4788  1.2224
  261MOL0     H35185   0.483   9.217   1.598  1.0510  1.3657  1.2933
  261MOL0     H35186   0.826   9.287   1.421  0.9795 -0.6515  0.2627
  261MOL0     H35187   0.851   9.526   1.219 -0.3725  4.0219 -1.1036
  261MOL0     H35188   0.777   9.652   1.296 -0.7112 -0.4066  0.1356
  261MOL0     H35189   1.005   9.677   1.377 -1.0607  1.2655  2.1772
  261MOL0     H35190   0.943   9.576   1.512 -2.3141  1.1784  1.1353
  261MOL0     H35191   1.070   9.469   1.260 -2.1187 -3.3075 -0.1918
  261MOL0     H35192   1.009   9.379   1.399  0.4801  0.9086  0.9858
  261MOL0     H35193   1.167   9.485   1.548  0.3543  0.3666  0.4367
  261MOL0     H35194   1.210   9.584   1.396 -4.2428  0.0442 -0.6675
  261MOL0     H35195   1.471   9.202   1.364  2.5944  3.0237 -4.7244
  261MOL0     H35196   1.691   9.189   1.466 -0.2810 -1.2571  3.2059
  261MOL0     H35197   1.981   9.594   1.896  1.2697  3.2474 -1.6958
  261MOL0     H35198   2.211   9.613   1.948 -4.5142  2.2995 -0.4005
  261MOL0     H35199   2.433   9.685   1.884  1.2168  0.9436  1.6555
  261MOL0     H35200   2.464   9.526   1.949  0.1743  0.0853 -0.8983
  261MOL0     H35201   2.649   9.681   1.775 -0.0322 -1.4491 -0.9827
  261MOL0     H35202   2.680   9.623   1.940  1.1125 -1.7850  0.7390
  261MOL0     H35203   2.805   9.454   1.828  1.4563  3.2954 -0.4278
  261MOL0     H35204   2.652   9.385   1.810  2.1610 -0.9432  1.2788
  261MOL0     H35205   2.820   9.554   1.630  0.3888 -0.8340  0.0617
  261MOL0     H35206   2.645   9.532   1.589  0.8671 -0.2463 -1.7298
  261MOL0     H35207   2.815   9.279   1.641  1.4897  0.1100 -0.4742
  261MOL0     H35208   2.836   9.360   1.484  1.6675 -2.6236  1.2833
  261MOL0     H35209   2.587   9.258   1.629 -0.5734  0.8922 -0.9562
  261MOL0     H35210   2.574   9.360   1.480  2.3267  0.6775 -1.1526
  261MOL0     H35211   2.697   9.081   1.433 -1.5311 -0.9108  0.8103
  261MOL0     H35212   2.683   9.223   1.333  1.0345 -0.3062  0.8330
  261MOL0     H35213   2.469   9.036   1.372 -1.6086  0.2486 -1.2238
  261MOL0     H35214   2.421   9.163   1.472  0.9040 -1.7299  0.5269
  261MOL0     H35215   2.304   9.424   1.567 -0.1234  1.7773  0.3062
  261MOL0     H35216   2.049   9.368   1.552 -2.2936  3.4144 -0.9536
  261MOL0     H35217   1.602   9.560   1.676 -0.3620  1.7267 -2.4691
  261MOL0     H35218   1.390   9.571   1.562 -1.7494 -0.9973 -3.9437
  261MOL0     H35219   1.341   9.743   1.679  2.2209 -1.3159 -1.5797
  261MOL0     H35220   1.541   9.885   1.734  2.6770 -0.1986  1.0826
  261MOL0     H35221   2.069   9.852   1.991 -1.6703  0.3440  2.7845
  261MOL0     H35222   2.232  10.027   2.003  0.8312  3.0871  1.2366
  261MOL0     H35223   2.387  10.336   1.852  1.6432 -1.3662  2.0409
  261MOL0     H35224   2.336  10.165   1.841  0.5735 -1.4566  0.6104
  261MOL0     H35225   2.387  10.128   2.067  1.7348 -1.6488 -3.5234
  261MOL0     H35226   2.417  10.305   2.089 -1.8045  1.6486 -1.4232
  261MOL0     H35227   2.635  10.143   2.069  0.2154 -0.1466 -0.3549
  261MOL0     H35228   2.611  10.277   1.945 -0.0096  1.5541  1.5344
  261MOL0     H35229   2.495  10.034   1.858 -0.6388 -0.0095  1.8544
  261MOL0     H35230   2.633  10.130   1.792  2.8691  0.5239  2.1124
  261MOL0     H35231   2.879   9.859   1.965  2.0287  2.2259 -2.9318
  261MOL0     H35232   1.940  10.322   1.922  0.4688  0.2770  3.0414
  261MOL0     H35233   1.725  10.280   1.895 -1.8392  0.0740 -0.0806
  261MOL0     H35234   1.688  10.123   1.806  0.3725  1.6912 -1.1970
  261MOL0     H35235   1.665  10.132   1.979 -0.2126  0.7966 -0.0450
  262MOL0     O35236  10.228   3.066   6.102  0.3928  0.2157  0.8018
  262MOL0     C35237  10.201   3.032   5.985  1.3628 -0.0839 -0.2778
  262MOL0     O35238  10.287   2.982   5.890 -0.0630  0.3040  1.0294
  262MOL0     C35239  10.427   2.993   5.910 -0.2410 -0.0375 -0.4980
  262MOL0     C35240  10.492   3.103   5.970 -0.7020  1.0052 -0.3684
  262MOL0     C35241  10.633   3.106   5.987 -1.1028  1.0292 -1.7206
  262MOL0     C35242  10.716   2.994   5.948 -0.0100  0.0765 -0.9244
  262MOL0     O35243  10.847   3.017   5.958 -0.4574  0.0020 -0.1454
  262MOL0     C35244  10.936   2.914   5.905  0.1340  0.1359  0.4504
  262MOL0     C35245  11.084   2.951   5.928  0.2524 -0.3327 -0.9465
  262MOL0     C35246  11.127   2.960   6.066 -0.1668 -0.1242 -0.0946
  262MOL0     C35247  11.265   3.026   6.077  0.0477 -0.3229  0.3037
  262MOL0     C35248  11.266   3.180   6.061 -0.1455 -1.3795 -0.1174
  262MOL0     C35249  11.173   3.246   6.158 -0.9206 -0.2420  0.1970
  262MOL0     C35250  11.189   3.404   6.137 -0.4313  0.4800 -0.1391
  262MOL0     C35251  11.087   3.490   6.205 -0.0083 -0.0523 -0.0322
  262MOL0     N35252  10.954   3.488   6.137 -0.4450 -0.7662 -0.4187
  262MOL0     C35253  10.926   3.569   6.037  0.5112  0.1564  0.2746
  262MOL0     C35254  10.796   3.554   6.009  1.1183 -0.7354 -1.5380
  262MOL0     C35255  10.717   3.640   5.915  0.2088 -1.0341 -0.3477
  262MOL0     C35256  10.693   3.567   5.782 -0.9188 -0.3085 -0.8042
  262MOL0     C35257  10.597   3.451   5.795 -0.5918  0.0108  0.2401
  262MOL0     C35258  10.466   3.492   5.842  0.3533 -0.3115 -0.4583
  262MOL0     O35259  10.379   3.376   5.852 -0.0020 -0.5153 -0.2983
  262MOL0     C35260  10.292   3.353   5.751 -0.4257 -0.8106  0.0372
  262MOL0     C35261  10.167   3.285   5.784  0.4732 -0.0977  0.5388
  262MOL0     C35262  10.081   3.252   5.679  0.1387 -0.3768  0.1117
  262MOL0     C35263  10.114   3.261   5.540  0.0014 -0.9212  0.5619
  262MOL0     C35264  10.026   3.227   5.423  0.2466  0.1954 -0.3418
  262MOL0     O35265   9.907   3.159   5.455  0.2934 -0.2163 -0.3084
  262MOL0     C35266   9.806   3.147   5.361  0.4853 -0.1075  0.1591
  262MOL0     C35267   9.786   3.209   5.233 -0.5477 -0.0025 -0.0671
  262MOL0     C35268   9.659   3.204   5.162 -0.4955  0.3641 -0.1923
  262MOL0     C35269   9.550   3.126   5.215 -0.6157  0.0122 -0.1258
  262MOL0     O35270   9.422   3.124   5.164  0.9301  0.5225 -0.5793
  262MOL0     C35271   9.403   3.157   5.027  0.9671 -1.1009 -0.1675
  262MOL0     C35272   9.249   3.184   5.035 -0.8947 -0.3815 -0.3544
  262MOL0     C35273   9.204   3.272   4.919 -0.1225 -0.4987 -0.5258
  262MOL0     C35274   9.224   3.428   4.930  0.5433  0.1595  0.0491
  262MOL0     C35275   9.140   3.495   5.046  0.5139 -1.0814  0.3481
  262MOL0     C35276   9.120   3.642   5.014 -0.5291  0.4186 -0.2786
  262MOL0     C35277   9.253   3.724   5.000  0.3832  0.1442  0.1846
  262MOL0     C35278   9.219   3.868   4.958 -0.6801  0.3451  0.2379
  262MOL0    Cl35279   9.115   3.958   5.070  0.1058  0.1314  0.5491
  262MOL0     C35280   9.578   3.052   5.327 -0.4984 -0.0095 -0.7649
  262MOL0     C35281   9.694   3.070   5.402  0.2700  0.6792  0.0545
  262MOL0     O35282  10.064   3.240   5.303 -0.4695  0.1067  0.1851
  262MOL0     C35283  10.235   3.331   5.515 -1.1126  0.5003  0.4337
  262MOL0     C35284  10.313   3.387   5.615  0.0615  0.4634  0.5609
  262MOL0     N35285  10.751   3.460   6.100  0.5192 -0.4913  1.2752
  262MOL0     N35286  10.849   3.417   6.166  0.5477  0.6757  0.6677
  262MOL0     C35287  10.650   2.887   5.887  0.3347 -1.2091  0.4398
  262MOL0     C35288  10.512   2.887   5.865 -0.5050 -0.1813 -1.0679
  262MOL0     C35289  10.052   3.032   5.952 -0.0233  0.5783  0.3407
  262MOL0     C35290  10.005   2.944   5.845 -1.4441 -0.6627 -0.0621
  262MOL0     C35291   9.876   2.939   5.801  0.1575 -0.3417  0.2642
  262MOL0     C35292   9.783   3.020   5.854  0.5011  0.1297 -0.7832
  262MOL0     O35293   9.653   3.017   5.808  0.6017  0.0398 -0.0017
  262MOL0     C35294   9.558   3.091   5.879  0.2259  0.5984 -0.1015
  262MOL0     C35295   9.436   3.010   5.840 -0.2412  0.1118  0.4647
  262MOL0     C35296   9.390   3.007   5.690 -0.5239 -0.0014  0.3037
  262MOL0     C35297   9.377   3.136   5.618  0.6001 -0.7371  0.3375
  262MOL0     C35298   9.280   3.229   5.676  0.7319  0.5720 -0.1710
  262MOL0     C35299   9.195   3.294   5.728  0.5573 -0.7767  0.3255
  262MOL0     C35300   9.824   3.106   5.961  0.1520 -0.8828  0.5939
  262MOL0     C35301   9.958   3.114   6.009  0.5695  0.0582 -1.3596
  262MOL0     C35302  10.001   3.223   6.112  0.6824  0.3388  0.0221
  262MOL0     H35303  10.430   3.192   5.978 -1.9363  0.7222 -4.4566
  262MOL0     H35304  10.679   3.193   6.032  0.3636  0.0519 -1.2747
  262MOL0     H35305  10.899   2.821   5.951 -3.8814  2.6933  3.0124
  262MOL0     H35306  10.919   2.905   5.797  1.3898  0.9311  0.1754
  262MOL0     H35307  11.097   3.044   5.872  1.4132  0.3301  0.3567
  262MOL0     H35308  11.137   2.869   5.877 -3.7050 -3.7203 -0.1005
  262MOL0     H35309  11.140   2.861   6.109 -1.4697  0.0378  0.7307
  262MOL0     H35310  11.047   3.005   6.126 -2.7729 -1.0017 -2.6752
  262MOL0     H35311  11.290   2.998   6.179 -3.0500 -1.8268  0.7864
  262MOL0     H35312  11.340   2.977   6.014 -0.9327 -2.6094  0.8233
  262MOL0     H35313  11.368   3.218   6.066 -0.4306 -0.7735  1.7871
  262MOL0     H35314  11.236   3.192   5.957 -2.1051  1.0233  0.6397
  262MOL0     H35315  11.069   3.221   6.138 -0.8958  0.4077 -0.8231
  262MOL0     H35316  11.201   3.205   6.256 -0.2613 -3.1835 -1.1291
  262MOL0     H35317  11.181   3.437   6.033  0.2791  4.3643  0.8867
  262MOL0     H35318  11.289   3.436   6.165 -1.2964  0.9938  2.7250
  262MOL0     H35319  11.079   3.461   6.310  3.0834 -1.4277 -0.0516
  262MOL0     H35320  11.121   3.593   6.193 -1.4014  0.1676 -2.8735
  262MOL0     H35321  10.989   3.646   5.994 -0.9620  0.5525 -1.2664
  262MOL0     H35322  10.623   3.668   5.964  0.1647 -1.6870 -0.0467
  262MOL0     H35323  10.779   3.729   5.902 -0.0607 -0.2648  2.8313
  262MOL0     H35324  10.656   3.647   5.717 -1.9031  0.6016  0.8122
  262MOL0     H35325  10.787   3.528   5.743 -0.6672 -0.0152 -0.4934
  262MOL0     H35326  10.637   3.385   5.873  0.5422  0.0488 -0.2785
  262MOL0     H35327  10.602   3.388   5.706 -0.6073 -2.0962  1.6568
  262MOL0     H35328  10.420   3.577   5.791 -1.9541 -1.6622 -0.7591
  262MOL0     H35329  10.472   3.537   5.941 -1.1712  1.9896 -1.3352
  262MOL0     H35330  10.134   3.267   5.886 -1.7368  0.4640 -0.0303
  262MOL0     H35331   9.987   3.204   5.704  1.6896 -4.1521 -0.7197
  262MOL0     H35332   9.864   3.265   5.183 -0.8382 -2.3944 -3.5034
  262MOL0     H35333   9.638   3.276   5.084 -2.3817  0.0767  0.0048
  262MOL0     H35334   9.451   3.252   5.000 -0.3658 -0.3206  0.1305
  262MOL0     H35335   9.430   3.075   4.960  2.9837 -1.5972  1.1672
  262MOL0     H35336   9.210   3.084   5.013  0.0005 -0.4874 -1.5669
  262MOL0     H35337   9.227   3.228   5.132  1.7305  0.3131  0.0158
  262MOL0     H35338   9.262   3.247   4.830  0.3841  2.5297 -1.1518
  262MOL0     H35339   9.096   3.261   4.909 -0.2914 -0.2918  0.8298
  262MOL0     H35340   9.205   3.471   4.831 -2.5109  0.8933  0.8579
  262MOL0     H35341   9.328   3.455   4.953  0.0881  0.9146  1.2912
  262MOL0     H35342   9.182   3.489   5.147 -0.4771  2.7898  1.1408
  262MOL0     H35343   9.042   3.447   5.048 -0.4506  0.8311  0.3897
  262MOL0     H35344   9.071   3.648   4.916 -1.0134 -3.1433 -0.3646
  262MOL0     H35345   9.051   3.685   5.087 -2.2199 -1.8298 -0.4603
  262MOL0     H35346   9.319   3.672   4.931 -0.7608 -1.3313  0.1684
  262MOL0     H35347   9.313   3.723   5.092  0.9239  1.2737 -0.1403
  262MOL0     H35348   9.315   3.920   4.958 -0.8533  0.6658 -0.0224
  262MOL0     H35349   9.175   3.872   4.858 -1.4768  0.1125  0.5710
  262MOL0     H35350   9.503   2.992   5.378 -1.6203  0.8479 -1.3376
  262MOL0     H35351   9.710   3.030   5.502  1.0352  0.8985  0.0227
  262MOL0     H35352  10.265   3.362   5.416  2.0578  1.2789  1.5066
  262MOL0     H35353  10.405   3.438   5.587 -0.1511 -0.8230 -3.0627
  262MOL0     H35354  10.701   2.801   5.845 -1.5812 -1.0446 -2.5650
  262MOL0     H35355  10.454   2.810   5.815  0.3322 -1.0267 -0.7661
  262MOL0     H35356  10.066   2.871   5.793  0.1229  0.3375  0.3016
  262MOL0     H35357   9.838   2.885   5.715 -0.2596  0.5899 -0.1527
  262MOL0     H35358   9.551   3.195   5.846  1.7661  0.4962 -0.8380
  262MOL0     H35359   9.570   3.085   5.988  0.7837 -1.5562 -0.2311
  262MOL0     H35360   9.352   3.054   5.895 -2.1781 -3.3611  0.5449
  262MOL0     H35361   9.448   2.906   5.871  0.2731  0.8407  2.9312
  262MOL0     H35362   9.293   2.957   5.699 -0.1081 -0.5652  2.0701
  262MOL0     H35363   9.466   2.945   5.642 -0.4409 -1.7999  2.5553
  262MOL0     H35364   9.464   3.198   5.592 -0.1646 -0.4833 -1.8580
  262MOL0     H35365   9.328   3.120   5.521 -0.0095  1.8837  0.1242
  262MOL0     H35366   9.113   3.348   5.771  0.2627 -0.8432 -0.1489
  262MOL0     H35367   9.755   3.185   5.990  1.8062  0.6490  0.5401
  262MOL0     H35368  10.004   3.181   6.213  0.5321 -2.7119 -1.1454
  262MOL0     H35369  10.088   3.282   6.079 -0.5475  1.1088 -2.0171
  262MOL0     H35370   9.925   3.301   6.127  1.5311  1.0094  1.0360
  263MOL0     O35371   5.773   3.705   0.129 -0.1672 -0.2247 -0.8482
  263MOL0     C35372   5.759   3.824   0.093 -0.4832 -0.0938 -0.3244
  263MOL0     O35373   5.655   3.909   0.107  0.8050  0.1894  0.3332
  263MOL0     C35374   5.550   3.855   0.176 -0.0624  0.4258  1.1296
  263MOL0     C35375   5.547   3.839   0.310  0.1075  0.1980  0.1124
  263MOL0     C35376   5.440   3.780   0.372 -0.9128  0.2440  0.3629
  263MOL0     C35377   5.323   3.749   0.301 -0.3554 -0.3378 -0.8111
  263MOL0     O35378   5.211   3.696   0.350 -0.2233  0.2848 -0.1190
  263MOL0     C35379   5.137   3.785   0.434  0.2025 -0.7150 -0.2196
  263MOL0     C35380   5.003   3.720   0.463  0.0811  0.5903 -0.3640
  263MOL0     C35381   4.932   3.658   0.339 -0.6413  0.3930  0.2626
  263MOL0     C35382   4.922   3.756   0.224  0.2562 -0.3583 -0.5962
  263MOL0     C35383   4.806   3.863   0.251 -0.8320  0.0756 -1.0385
  263MOL0     C35384   4.777   3.957   0.141 -0.4164 -0.9496  0.2386
  263MOL0     C35385   4.710   3.890   0.022 -0.8085  0.2035 -0.3293
  263MOL0     C35386   4.631   3.980  -0.075  0.0397 -0.0122 -0.1287
  263MOL0     N35387   4.512   4.046  -0.011  0.4376 -0.1197 -0.0674
  263MOL0     C35388   4.389   3.994  -0.015  0.7036 -0.1718 -0.9273
  263MOL0     C35389   4.293   4.085   0.004 -0.3381 -0.8166  0.4333
  263MOL0     C35390   4.147   4.067   0.029  0.1939 -0.0308  0.2816
  263MOL0     C35391   4.062   4.063  -0.097 -0.3233  0.3085  0.0802
  263MOL0     C35392   4.084   3.938  -0.182  0.1399 -0.4600 -0.3941
  263MOL0     C35393   4.112   3.956  -0.331  0.4961  0.6309  0.7259
  263MOL0     O35394   4.005   4.006  -0.413 -0.3618 -0.0784 -0.6179
  263MOL0     C35395   3.917   3.911  -0.468 -1.5796  0.7620  0.5749
  263MOL0     C35396   3.966   3.798  -0.542 -0.0372 -0.1895 -0.6774
  263MOL0     C35397   3.873   3.726  -0.615 -0.2188  0.0301 -0.0717
  263MOL0     C35398   3.737   3.742  -0.597  0.1217 -0.4221 -0.3140
  263MOL0     C35399   3.639   3.661  -0.655  0.3564 -0.0044 -1.1688
  263MOL0     O35400   3.532   3.636  -0.572 -0.2158 -0.4197  0.3324
  263MOL0     C35401   3.410   3.589  -0.618  0.6756  0.1334 -0.1266
  263MOL0     C35402   3.399   3.493  -0.711  0.4025 -0.3985  0.8160
  263MOL0     C35403   3.276   3.440  -0.770 -0.5839 -0.5664  0.0675
  263MOL0     C35404   3.159   3.501  -0.719 -0.0813 -0.0033 -0.5878
  263MOL0     O35405   3.027   3.481  -0.763  0.6121 -0.4961 -0.2064
  263MOL0     C35406   3.004   3.398  -0.885  0.2490 -0.0593 -0.4186
  263MOL0     C35407   3.021   3.455  -1.017  0.0446 -0.2015  0.8170
  263MOL0     C35408   2.977   3.371  -1.142 -0.2019 -0.6094  0.3941
  263MOL0     C35409   3.065   3.256  -1.186 -0.0077 -0.3383  0.0279
  263MOL0     C35410   3.014   3.159  -1.287  0.5965 -0.2851  0.6529
  263MOL0     C35411   2.978   3.228  -1.422  0.3495 -0.7809 -0.4430
  263MOL0     C35412   2.959   3.119  -1.531  0.0724 -1.2561 -0.6553
  263MOL0     C35413   2.888   3.185  -1.651 -0.2968  0.1472  0.4141
  263MOL0    Cl35414   2.830   3.058  -1.771 -0.1114 -0.1873  0.7141
  263MOL0     C35415   3.175   3.596  -0.614 -0.9083 -0.4706 -0.2770
  263MOL0     C35416   3.297   3.652  -0.567 -0.6177  1.0178  0.4277
  263MOL0     O35417   3.650   3.627  -0.769 -1.0371 -0.6146 -0.1937
  263MOL0     C35418   3.697   3.844  -0.509  0.1472 -0.8026  0.5522
  263MOL0     C35419   3.780   3.930  -0.441 -0.3634  0.1265 -0.4311
  263MOL0     N35420   4.360   4.204   0.009  0.4760  0.5582  0.2140
  263MOL0     N35421   4.483   4.180  -0.009  0.4730  0.7112  0.5455
  263MOL0     C35422   5.327   3.765   0.164 -0.5553  0.6860  0.1391
  263MOL0     C35423   5.439   3.813   0.098 -0.5186 -0.0157 -0.9674
  263MOL0     C35424   5.859   3.869  -0.006  0.2269  0.4834 -0.0580
  263MOL0     C35425   5.829   3.943  -0.113 -0.5755 -0.6091  0.2140
  263MOL0     C35426   5.913   3.967  -0.220 -0.5722  0.6457 -0.2970
  263MOL0     C35427   6.050   3.926  -0.217  1.3902 -0.1767  0.1832
  263MOL0     O35428   6.139   3.926  -0.317 -0.8284  0.2084 -0.0475
  263MOL0     C35429   6.124   4.028  -0.406 -0.1829  0.0607  0.2228
  263MOL0     C35430   6.115   4.174  -0.343  0.2122  0.0077 -0.2409
  263MOL0     C35431   6.253   4.198  -0.260  0.2819  0.4625  0.2691
  263MOL0     C35432   6.305   4.347  -0.243 -0.2467  1.0238 -0.9352
  263MOL0     C35433   6.324   4.402  -0.377 -0.6785  0.8277 -0.6267
  263MOL0     C35434   6.324   4.429  -0.490 -0.6093 -0.5955  0.1746
  263MOL0     C35435   6.086   3.865  -0.096  0.4045  0.4772 -0.3800
  263MOL0     C35436   5.994   3.840   0.012 -0.1006 -0.6334 -1.2583
  263MOL0     C35437   6.049   3.770   0.137 -0.6429  0.5056  0.7171
  263MOL0     H35438   5.635   3.871   0.365 -1.0054 -0.4927  2.4252
  263MOL0     H35439   5.434   3.765   0.480  2.1352 -1.5000  0.3970
  263MOL0     H35440   5.186   3.788   0.532  3.0465  2.5485 -1.5254
  263MOL0     H35441   5.124   3.883   0.387  0.5244 -0.0215  1.0632
  263MOL0     H35442   4.935   3.793   0.508  0.4834 -0.2479  1.7369
  263MOL0     H35443   5.016   3.644   0.541 -1.2531  0.6673 -0.0331
  263MOL0     H35444   4.832   3.625   0.369  0.1842 -0.7585  1.9330
  263MOL0     H35445   4.997   3.576   0.306 -1.4206 -0.2880  0.3744
  263MOL0     H35446   5.013   3.810   0.198  0.2493 -0.0575 -0.0146
  263MOL0     H35447   4.896   3.693   0.139 -1.5535 -1.1324  0.4702
  263MOL0     H35448   4.712   3.812   0.274  0.3558 -2.6840 -1.8487
  263MOL0     H35449   4.843   3.920   0.337  1.8369 -1.0599 -1.3315
  263MOL0     H35450   4.712   4.037   0.177  2.0083 -0.5020  4.2442
  263MOL0     H35451   4.870   3.990   0.093 -1.0475 -2.6408 -2.3544
  263MOL0     H35452   4.633   3.818   0.048  0.1465 -1.1642 -1.1620
  263MOL0     H35453   4.771   3.830  -0.046 -1.4161  0.0182 -0.7259
  263MOL0     H35454   4.696   4.057  -0.118 -0.4690  0.5730  0.1488
  263MOL0     H35455   4.594   3.922  -0.161 -2.0582  0.1224  0.6231
  263MOL0     H35456   4.368   3.887  -0.019  0.0256 -0.0024 -2.7677
  263MOL0     H35457   4.124   3.979   0.089  1.4174 -1.6631 -1.5296
  263MOL0     H35458   4.112   4.157   0.081  0.9882 -0.1781  1.0919
  263MOL0     H35459   3.959   4.075  -0.062 -0.9394 -1.5919 -0.8836
  263MOL0     H35460   4.089   4.146  -0.163 -0.7127 -1.8100 -2.9895
  263MOL0     H35461   4.004   3.867  -0.160  0.0534 -0.1056  0.4393
  263MOL0     H35462   4.180   3.896  -0.150  0.7034  1.0057 -0.1007
  263MOL0     H35463   4.152   3.859  -0.363 -1.1397 -0.2517  1.2744
  263MOL0     H35464   4.196   4.025  -0.319  0.8043  0.0630  2.0454
  263MOL0     H35465   4.068   3.763  -0.544  0.0747 -0.1885  1.7358
  263MOL0     H35466   3.892   3.638  -0.677 -1.8462 -0.2442 -0.2251
  263MOL0     H35467   3.495   3.462  -0.752  0.4682  2.3023 -1.3931
  263MOL0     H35468   3.286   3.365  -0.848  3.2120  1.2145 -1.3874
  263MOL0     H35469   3.074   3.315  -0.878  0.5890 -0.0839 -3.1652
  263MOL0     H35470   2.898   3.368  -0.889 -0.4598  2.3904 -1.6618
  263MOL0     H35471   2.973   3.553  -1.018 -1.0217 -0.6935 -1.4616
  263MOL0     H35472   3.126   3.485  -1.030  0.9771 -0.2581  6.0738
  263MOL0     H35473   2.877   3.331  -1.122  0.1909 -1.6157  0.3986
  263MOL0     H35474   2.964   3.439  -1.227 -0.8730 -1.2609 -0.0433
  263MOL0     H35475   3.084   3.189  -1.102 -2.2748 -1.0123  0.0787
  263MOL0     H35476   3.158   3.303  -1.218 -1.1324  0.9164 -1.5760
  263MOL0     H35477   2.920   3.130  -1.240 -0.7482  2.6486 -0.0024
  263MOL0     H35478   3.081   3.072  -1.295  0.5331 -0.2521 -0.4116
  263MOL0     H35479   2.875   3.264  -1.411  0.6390  0.4676 -1.5368
  263MOL0     H35480   3.036   3.312  -1.463 -1.2199 -0.4173 -2.0361
  263MOL0     H35481   2.889   3.044  -1.494 -1.2197  1.2844  2.5852
  263MOL0     H35482   3.059   3.078  -1.548  3.2411  4.5827  0.8650
  263MOL0     H35483   2.797   3.238  -1.620  0.0413  1.5493 -0.8763
  263MOL0     H35484   2.955   3.258  -1.697 -1.3842  0.0575 -1.4078
  263MOL0     H35485   3.086   3.630  -0.561 -1.8022 -2.2519 -0.5733
  263MOL0     H35486   3.320   3.734  -0.500  0.0787 -1.2580  3.1744
  263MOL0     H35487   3.591   3.860  -0.497  0.2042 -1.1957  1.6862
  263MOL0     H35488   3.756   4.020  -0.386 -2.8845  2.7108 -5.0398
  263MOL0     H35489   5.243   3.739   0.101 -0.2099  0.3228 -0.1760
  263MOL0     H35490   5.438   3.805  -0.010 -0.6264  1.9243 -1.1437
  263MOL0     H35491   5.727   3.973  -0.130 -0.1474  0.5582 -0.4173
  263MOL0     H35492   5.868   4.002  -0.312  0.1013 -0.2669 -0.9817
  263MOL0     H35493   6.040   4.026  -0.475  0.9906  0.4894 -1.2700
  263MOL0     H35494   6.207   4.040  -0.477 -0.0348  0.3341  0.4375
  263MOL0     H35495   6.038   4.189  -0.266 -1.9352 -2.4028 -1.7322
  263MOL0     H35496   6.107   4.260  -0.411 -0.6615  0.1460  0.0183
  263MOL0     H35497   6.340   4.142  -0.295 -0.3025 -0.1153 -0.2917
  263MOL0     H35498   6.243   4.148  -0.163 -0.1622 -3.2027 -1.5046
  263MOL0     H35499   6.250   4.416  -0.179 -2.4934 -1.3031 -0.2250
  263MOL0     H35500   6.405   4.332  -0.201  0.4915 -0.8616 -3.1020
  263MOL0     H35501   6.310   4.440  -0.595 -1.2163 -0.0287  0.3050
  263MOL0     H35502   6.186   3.824  -0.090  0.2015  0.1450  3.5440
  263MOL0     H35503   6.157   3.787   0.128 -0.6398 -0.5554 -3.2130
  263MOL0     H35504   6.021   3.810   0.235 -2.2793 -2.8837  1.7944
  263MOL0     H35505   6.040   3.662   0.123 -1.7268  0.8959 -2.5868
  264MOL0     O35506   2.305   4.641   7.079 -0.1628  0.0047  0.4568
  264MOL0     C35507   2.275   4.528   7.039 -0.8761 -0.6948 -0.2584
  264MOL0     O35508   2.175   4.500   6.948 -0.6627  0.1326 -0.0474
  264MOL0     C35509   2.136   4.584   6.851  0.1474 -0.5442 -0.4404
  264MOL0     C35510   2.116   4.722   6.863 -0.2298 -0.9676 -0.5359
  264MOL0     C35511   2.054   4.797   6.759 -0.6077  0.1921  0.8437
  264MOL0     C35512   1.995   4.734   6.648 -0.1971  0.9300 -0.3676
  264MOL0     O35513   1.945   4.815   6.545 -0.0135  0.2795  0.4935
  264MOL0     C35514   1.850   4.764   6.444  1.0295 -0.7419  0.5692
  264MOL0     C35515   1.722   4.725   6.522  0.6457 -0.1080  0.6030
  264MOL0     C35516   1.613   4.709   6.419  0.1949 -0.3748  0.2017
  264MOL0     C35517   1.637   4.639   6.288 -0.6007  0.0035 -0.1826
  264MOL0     C35518   1.538   4.703   6.178  0.2415 -0.2493  0.4141
  264MOL0     C35519   1.407   4.622   6.191 -0.6190  0.2323  0.1444
  264MOL0     C35520   1.285   4.698   6.142  0.4086  0.1270 -0.5140
  264MOL0     C35521   1.270   4.828   6.221 -0.1001 -0.0424 -0.5880
  264MOL0     N35522   1.260   4.815   6.364 -0.6150  1.1951 -0.4172
  264MOL0     C35523   1.152   4.768   6.433  0.0230  0.2035 -0.6994
  264MOL0     C35524   1.189   4.796   6.559 -0.1348  0.0062 -0.4216
  264MOL0     C35525   1.115   4.770   6.686  0.5941  0.4885  0.1562
  264MOL0     C35526   1.145   4.622   6.734 -0.5930  0.0847  1.5152
  264MOL0     C35527   1.299   4.605   6.786 -0.0246 -0.2949  0.2608
  264MOL0     C35528   1.319   4.595   6.943 -0.0455  0.7208  1.2429
  264MOL0     O35529   1.457   4.565   6.950  1.0535 -0.4859  0.3824
  264MOL0     C35530   1.541   4.663   6.987 -0.1867 -0.0661 -0.0350
  264MOL0     C35531   1.519   4.734   7.101 -0.3260  0.9311  0.0450
  264MOL0     C35532   1.605   4.842   7.138 -0.5622  0.3517  0.4316
  264MOL0     C35533   1.721   4.872   7.057 -0.1882 -0.3423  0.1852
  264MOL0     C35534   1.831   4.972   7.094 -0.8619 -0.9303 -0.0717
  264MOL0     O35535   1.960   4.953   7.056 -0.8612 -0.7654 -0.7667
  264MOL0     C35536   2.052   5.041   7.113 -0.0256  0.4229 -0.3585
  264MOL0     C35537   2.075   5.043   7.258 -0.6823  0.8015 -0.1201
  264MOL0     C35538   2.169   5.125   7.309 -0.1331 -1.4101 -0.4735
  264MOL0     C35539   2.269   5.178   7.222 -0.4743 -0.3112  0.1273
  264MOL0     O35540   2.366   5.260   7.279  1.0273  0.1970 -0.4221
  264MOL0     C35541   2.319   5.396   7.278 -0.3355 -0.2705 -0.5594
  264MOL0     C35542   2.417   5.484   7.205  0.4055 -0.4110 -0.5809
  264MOL0     C35543   2.569   5.477   7.260 -0.0888  0.3415 -0.5514
  264MOL0     C35544   2.660   5.564   7.177  0.0640 -0.0217 -0.9879
  264MOL0     C35545   2.804   5.570   7.234  0.2820  0.9005  0.5097
  264MOL0     C35546   2.795   5.643   7.367 -0.3823 -0.1897  0.2106
  264MOL0     C35547   2.933   5.682   7.418 -0.0839  0.1332  0.3869
  264MOL0     C35548   2.933   5.744   7.561  1.1980  0.0045  0.0934
  264MOL0    Cl35549   2.832   5.888   7.578  0.6690  0.4900 -0.4268
  264MOL0     C35550   2.249   5.180   7.086  1.3792  0.0357  0.2877
  264MOL0     C35551   2.142   5.106   7.029 -1.0531  0.5903 -0.0900
  264MOL0     O35552   1.788   5.068   7.160 -0.5213  0.8053  0.0510
  264MOL0     C35553   1.747   4.785   6.945 -0.1132  0.7701 -0.4462
  264MOL0     C35554   1.657   4.677   6.914 -0.4153 -1.1549 -0.0444
  264MOL0     N35555   1.311   4.856   6.564  0.9108 -0.2133  0.3709
  264MOL0     N35556   1.352   4.870   6.446  0.3316 -0.0187  0.3489
  264MOL0     C35557   2.014   4.595   6.643 -0.0072 -0.0107 -0.1950
  264MOL0     C35558   2.078   4.521   6.746  0.2474 -0.7481  1.2286
  264MOL0     C35559   2.359   4.408   7.074  0.6001 -0.1900  0.0358
  264MOL0     C35560   2.313   4.275   7.037 -0.2976 -1.2007 -1.1874
  264MOL0     C35561   2.389   4.155   7.049 -0.8073 -0.0942  0.2998
  264MOL0     C35562   2.523   4.175   7.071 -0.5830  0.4482  0.2823
  264MOL0     O35563   2.609   4.068   7.045 -0.0282  0.2460 -0.1785
  264MOL0     C35564   2.562   3.944   6.987  0.1788 -0.0663  0.8833
  264MOL0     C35565   2.669   3.838   7.004 -0.3556 -0.1780 -0.1034
  264MOL0     C35566   2.815   3.886   6.974 -0.3610 -0.2893  0.4164
  264MOL0     C35567   2.833   3.925   6.831 -0.0735  0.4579  0.3096
  264MOL0     C35568   2.980   3.933   6.807 -0.7228 -0.2778  0.0883
  264MOL0     C35569   3.092   3.952   6.773 -0.3299 -0.9531  0.4775
  264MOL0     C35570   2.567   4.295   7.123 -0.1554  0.3472 -0.2062
  264MOL0     C35571   2.487   4.414   7.129 -0.0832 -0.3628 -0.5009
  264MOL0     C35572   2.563   4.532   7.185  0.1717 -0.7952  0.4776
  264MOL0     H35573   2.136   4.774   6.956 -4.2069  1.0105 -0.5860
  264MOL0     H35574   2.041   4.904   6.772  0.7466  0.5277 -0.2854
  264MOL0     H35575   1.842   4.846   6.373  4.4032  1.3864  2.3951
  264MOL0     H35576   1.892   4.673   6.400 -0.5080 -1.5848  0.7700
  264MOL0     H35577   1.688   4.798   6.596 -0.3514  0.6641 -0.5805
  264MOL0     H35578   1.739   4.631   6.576 -1.8280  1.7011  5.0540
  264MOL0     H35579   1.597   4.815   6.397  0.6389  0.1873  2.4152
  264MOL0     H35580   1.516   4.678   6.461 -0.0074 -1.3171 -0.8935
  264MOL0     H35581   1.736   4.664   6.248  0.3022  3.7466  3.6775
  264MOL0     H35582   1.630   4.530   6.298 -2.3265 -0.2385 -2.9967
  264MOL0     H35583   1.520   4.809   6.195  1.1728  0.2785 -1.5949
  264MOL0     H35584   1.577   4.706   6.076  1.1104 -1.4828  0.6952
  264MOL0     H35585   1.413   4.526   6.139 -3.8112 -0.5788  1.0283
  264MOL0     H35586   1.390   4.581   6.291 -0.8646 -2.1580 -0.8256
  264MOL0     H35587   1.200   4.633   6.166  0.2337  0.3181 -0.6197
  264MOL0     H35588   1.296   4.705   6.034  1.0434 -0.8303 -0.5183
  264MOL0     H35589   1.345   4.906   6.208  1.6457 -0.9659  2.7779
  264MOL0     H35590   1.175   4.859   6.176 -0.2360 -2.6261 -2.3392
  264MOL0     H35591   1.063   4.717   6.397  0.7577 -1.5024 -0.1754
  264MOL0     H35592   1.152   4.849   6.752  1.8810  0.7328 -0.8020
  264MOL0     H35593   1.007   4.782   6.675  0.1493 -0.3962  2.7499
  264MOL0     H35594   1.076   4.607   6.818 -2.1172 -4.6747 -0.2812
  264MOL0     H35595   1.125   4.549   6.656 -1.2901 -0.2558  2.0085
  264MOL0     H35596   1.369   4.676   6.738  4.0682 -3.6630  0.6402
  264MOL0     H35597   1.336   4.517   6.733 -0.1388 -0.2408  0.0877
  264MOL0     H35598   1.261   4.518   6.995 -0.5142 -0.4940 -0.9397
  264MOL0     H35599   1.294   4.692   6.986 -0.2494  2.2829 -2.0595
  264MOL0     H35600   1.445   4.681   7.160  0.1057 -0.0939 -0.3100
  264MOL0     H35601   1.576   4.903   7.223  2.3901  1.5330  0.7210
  264MOL0     H35602   2.005   4.990   7.322 -1.9025  1.7644 -0.6174
  264MOL0     H35603   2.169   5.157   7.413 -1.6165 -1.9085 -0.3057
  264MOL0     H35604   2.215   5.401   7.243 -1.4476 -0.2003  2.3790
  264MOL0     H35605   2.313   5.440   7.378 -1.0349 -0.6890 -0.4039
  264MOL0     H35606   2.412   5.457   7.099  1.0904 -0.9705 -0.4759
  264MOL0     H35607   2.387   5.589   7.203 -0.4232 -0.4943  2.3785
  264MOL0     H35608   2.559   5.504   7.366 -0.7816  2.6891 -1.1592
  264MOL0     H35609   2.614   5.377   7.249  3.2006  1.8449 -2.3278
  264MOL0     H35610   2.617   5.664   7.171 -3.8890 -1.4428  0.3499
  264MOL0     H35611   2.659   5.522   7.076  0.2129 -4.2359  0.5633
  264MOL0     H35612   2.869   5.610   7.155  0.7100 -1.9273 -0.7055
  264MOL0     H35613   2.837   5.467   7.252 -1.4445  0.8441  4.2878
  264MOL0     H35614   2.724   5.724   7.346 -1.3395 -0.4624  2.1886
  264MOL0     H35615   2.745   5.581   7.442  2.6050 -2.9201  0.1558
  264MOL0     H35616   2.992   5.739   7.346  2.2227 -2.7507 -0.2068
  264MOL0     H35617   2.993   5.591   7.428  1.6155  0.8378 -2.3185
  264MOL0     H35618   2.892   5.668   7.627  4.3070 -0.3885  1.7437
  264MOL0     H35619   3.031   5.773   7.600  1.0338 -0.4263  0.8296
  264MOL0     H35620   2.310   5.250   7.030  1.5566  1.8196  2.5886
  264MOL0     H35621   2.135   5.103   6.921  0.7602 -2.2540 -0.2504
  264MOL0     H35622   1.834   4.801   6.884 -0.0088  0.8741 -0.2704
  264MOL0     H35623   1.675   4.605   6.834 -3.8053 -3.6006  1.1890
  264MOL0     H35624   1.967   4.537   6.564  0.8435  0.8208 -1.3436
  264MOL0     H35625   2.071   4.413   6.755 -1.7153 -0.6755  1.2089
  264MOL0     H35626   2.220   4.269   6.981 -0.5903  3.6620 -1.6291
  264MOL0     H35627   2.330   4.072   7.011 -3.6423  1.9045  0.0204
  264MOL0     H35628   2.546   3.955   6.880 -1.0937 -2.5342  0.7330
  264MOL0     H35629   2.463   3.914   7.024 -0.3457 -2.0858 -1.8946
  264MOL0     H35630   2.624   3.752   6.954 -0.6055 -1.2662  1.8784
  264MOL0     H35631   2.667   3.813   7.111 -2.4403 -2.0230 -0.4955
  264MOL0     H35632   2.879   3.800   6.999 -0.1792 -0.8723 -1.8414
  264MOL0     H35633   2.835   3.969   7.043  0.0314  1.1093 -1.3076
  264MOL0     H35634   2.782   3.847   6.774  3.0182 -0.3745 -1.6253
  264MOL0     H35635   2.786   4.019   6.800 -0.1637 -0.4551 -2.6520
  264MOL0     H35636   3.199   3.947   6.765 -0.3476 -2.3932  0.8744
  264MOL0     H35637   2.674   4.292   7.140 -0.0702  0.4038 -0.7148
  264MOL0     H35638   2.611   4.594   7.109  0.8330  0.2653  1.7106
  264MOL0     H35639   2.500   4.588   7.256  2.8657 -0.8005  3.0766
  264MOL0     H35640   2.651   4.497   7.240  0.3837  1.6041  1.8506
  265MOL0     O35641   5.991   4.853   7.841  0.7201  0.7384  1.4900
  265MOL0     C35642   6.101   4.883   7.792  1.0592  0.4754 -0.9258
  265MOL0     O35643   6.221   4.864   7.853 -0.0948  0.6505 -0.2526
  265MOL0     C35644   6.222   4.819   7.990  0.7328  0.0202  0.2630
  265MOL0     C35645   6.139   4.865   8.092 -0.1900 -0.6096 -0.4903
  265MOL0     C35646   6.152   4.819   8.227  0.7854  0.2688  0.6030
  265MOL0     C35647   6.236   4.710   8.255  0.2190 -0.4400  0.2952
  265MOL0     O35648   6.229   4.639   8.371 -0.5309  0.5569  0.2274
  265MOL0     C35649   6.127   4.672   8.466  0.1356  0.4021  0.2181
  265MOL0     C35650   6.122   4.554   8.567  0.1159  1.0882 -0.3902
  265MOL0     C35651   6.022   4.551   8.677 -0.2039 -0.1259  0.2440
  265MOL0     C35652   5.976   4.403   8.724 -0.1454  0.3179  0.1058
  265MOL0     C35653   5.903   4.408   8.862  0.0969  0.2777 -0.2959
  265MOL0     C35654   5.997   4.399   8.982 -0.1209 -0.6224  0.2605
  265MOL0     C35655   5.924   4.388   9.106 -0.2203 -0.2305 -0.4693
  265MOL0     C35656   6.007   4.354   9.232 -0.0230 -0.1050 -0.0655
  265MOL0     N35657   6.066   4.219   9.211  0.0827  0.4622  0.1199
  265MOL0     C35658   5.995   4.105   9.164  0.9411 -0.0624 -0.4317
  265MOL0     C35659   6.080   4.008   9.154  0.0462  0.1570  0.3582
  265MOL0     C35660   6.025   3.866   9.133 -0.0966  0.9496 -0.0635
  265MOL0     C35661   5.962   3.827   9.264 -0.3507 -0.2913 -0.3953
  265MOL0     C35662   6.050   3.813   9.385  0.1413  0.2521  0.3901
  265MOL0     C35663   5.988   3.726   9.498 -0.5791  0.1296  0.4114
  265MOL0     O35664   5.886   3.795   9.568  0.1929  0.3647  0.5688
  265MOL0     C35665   5.887   3.756   9.703 -0.3993 -0.8222  0.3732
  265MOL0     C35666   5.875   3.851   9.798  0.1370 -0.7993  0.6972
  265MOL0     C35667   5.863   3.825   9.939 -0.1501  0.1457 -0.2051
  265MOL0     C35668   5.846   3.692   9.978 -0.5129  0.0100  0.9214
  265MOL0     C35669   5.822   3.666  10.120  0.1599 -0.1896 -0.7382
  265MOL0     O35670   5.811   3.777  10.191  0.8668  0.3230 -0.5533
  265MOL0     C35671   5.791   3.762  10.328  0.1121 -0.8127 -0.4694
  265MOL0     C35672   5.672   3.717  10.381 -0.4196 -0.2609  0.2271
  265MOL0     C35673   5.664   3.710  10.521  0.6842  0.3345  0.0361
  265MOL0     C35674   5.763   3.744  10.607 -0.1998 -1.2321  0.2924
  265MOL0     O35675   5.746   3.759  10.736  0.0163  0.6283 -0.5070
  265MOL0     C35676   5.845   3.696  10.830 -0.7498  0.4064 -0.2780
  265MOL0     C35677   5.874   3.544  10.812  1.1951 -0.3645 -0.9172
  265MOL0     C35678   5.979   3.498  10.911 -0.3894  1.3356  0.0501
  265MOL0     C35679   5.932   3.459  11.050  0.1058  0.5238 -0.1237
  265MOL0     C35680   6.057   3.462  11.148  0.2014 -0.3929  0.4300
  265MOL0     C35681   6.032   3.434  11.295 -0.1552  0.0146 -0.0151
  265MOL0     C35682   5.908   3.497  11.351 -0.5759  0.4579 -0.0898
  265MOL0     C35683   5.866   3.433  11.487 -0.2530 -0.7320 -0.2325
  265MOL0    Cl35684   5.845   3.258  11.480 -0.5104 -0.0592  0.2961
  265MOL0     C35685   5.881   3.790  10.544 -0.1119 -0.0058 -0.0442
  265MOL0     C35686   5.894   3.805  10.407 -0.1710  0.3114  0.8627
  265MOL0     O35687   5.791   3.556  10.162  0.5158  0.8480 -0.3022
  265MOL0     C35688   5.859   3.598   9.878 -1.1598 -0.1262  0.3915
  265MOL0     C35689   5.876   3.619   9.745  0.3487 -0.4025 -0.5998
  265MOL0     N35690   6.208   4.059   9.177  0.5414 -1.0116 -0.6400
  265MOL0     N35691   6.200   4.184   9.210  0.4803  0.4710  0.2538
  265MOL0     C35692   6.327   4.672   8.158  0.2738  0.0586  0.0512
  265MOL0     C35693   6.319   4.723   8.025 -0.1954  0.5791  0.3193
  265MOL0     C35694   6.108   4.900   7.641  0.0461  0.4250 -0.2445
  265MOL0     C35695   5.984   4.917   7.579 -0.9198  0.2167  0.0934
  265MOL0     C35696   5.973   4.955   7.450  0.3516  1.5709 -0.0921
  265MOL0     C35697   6.080   4.963   7.363  0.8229  0.8077  0.1270
  265MOL0     O35698   6.057   4.978   7.227  0.4708 -0.5043  0.7132
  265MOL0     C35699   6.149   4.932   7.129  0.0046 -0.3968 -1.2577
  265MOL0     C35700   6.076   4.921   6.995 -0.2537  0.5064 -0.0114
  265MOL0     C35701   6.164   4.859   6.884 -0.2417  0.3951 -0.0224
  265MOL0     C35702   6.286   4.945   6.853  0.1217 -0.3931  0.3272
  265MOL0     C35703   6.252   5.082   6.808 -0.0153  0.1202  0.1693
  265MOL0     C35704   6.227   5.192   6.760 -0.6217  0.1159  0.5138
  265MOL0     C35705   6.204   4.950   7.420 -0.6893 -0.3247 -0.3180
  265MOL0     C35706   6.226   4.915   7.558  0.5008  0.1393  0.3993
  265MOL0     C35707   6.365   4.907   7.600 -0.7235  1.1386 -0.4394
  265MOL0     H35708   6.070   4.945   8.069  4.3029  4.4937  1.6185
  265MOL0     H35709   6.088   4.858   8.306 -0.5554  1.7412 -1.1232
  265MOL0     H35710   6.160   4.754   8.530 -0.6009 -0.1215  1.2985
  265MOL0     H35711   6.026   4.697   8.431 -0.3592 -3.2192 -1.3915
  265MOL0     H35712   6.220   4.532   8.612  0.1458 -1.5980 -1.5462
  265MOL0     H35713   6.085   4.482   8.493 -3.0118  4.8351 -2.8589
  265MOL0     H35714   5.935   4.602   8.634 -1.6302 -2.1862  0.4778
  265MOL0     H35715   6.056   4.607   8.764 -1.7242 -0.5994  1.1740
  265MOL0     H35716   5.900   4.368   8.654 -1.9927  2.6667  0.7905
  265MOL0     H35717   6.058   4.331   8.725  2.0313  2.6655  0.2797
  265MOL0     H35718   5.861   4.509   8.868  1.6889  0.9159  0.8170
  265MOL0     H35719   5.824   4.333   8.874 -0.6916  1.2720  1.0079
  265MOL0     H35720   6.060   4.311   8.966  0.8095 -0.0868  0.8941
  265MOL0     H35721   6.070   4.481   8.974  0.1602 -1.0175 -1.4277
  265MOL0     H35722   5.850   4.310   9.087  1.1643 -1.8176  0.2897
  265MOL0     H35723   5.889   4.489   9.127  0.4111 -0.0466 -0.2690
  265MOL0     H35724   6.085   4.428   9.249 -0.3569  0.5031 -1.0936
  265MOL0     H35725   5.929   4.363   9.308  0.5840  1.0141  0.4430
  265MOL0     H35726   5.887   4.094   9.159  0.8202  1.2476 -1.4880
  265MOL0     H35727   5.956   3.874   9.048  1.8621  1.5832 -1.6876
  265MOL0     H35728   6.108   3.798   9.114 -0.4524  0.2140  0.9475
  265MOL0     H35729   5.889   3.902   9.297 -1.7591 -3.0373  3.4187
  265MOL0     H35730   5.919   3.728   9.248  2.1955 -1.6769  0.8091
  265MOL0     H35731   6.062   3.915   9.423 -0.4211  0.8523 -0.9939
  265MOL0     H35732   6.151   3.781   9.356  0.3439  1.5402 -0.3815
  265MOL0     H35733   6.065   3.698   9.571 -1.4614  0.7744  1.6288
  265MOL0     H35734   5.953   3.634   9.452 -0.9715  0.5259 -0.0969
  265MOL0     H35735   5.855   3.956   9.778 -3.0799 -1.1861  1.3576
  265MOL0     H35736   5.870   3.910  10.006  1.5446 -0.5239  0.5262
  265MOL0     H35737   5.606   3.678  10.304 -1.0968 -1.2623  1.2946
  265MOL0     H35738   5.574   3.682  10.575  2.4530 -3.7124  1.2493
  265MOL0     H35739   5.943   3.742  10.819 -0.0439 -1.6541 -5.1764
  265MOL0     H35740   5.814   3.710  10.934  1.5360  1.0451  0.3728
  265MOL0     H35741   5.783   3.486  10.827  1.0701 -0.3021 -1.3928
  265MOL0     H35742   5.896   3.531  10.705 -1.8093 -3.5742 -1.3003
  265MOL0     H35743   6.035   3.418  10.863  2.1223  2.7325  0.4457
  265MOL0     H35744   6.048   3.584  10.902 -0.3650  1.0978 -3.2669
  265MOL0     H35745   5.897   3.357  11.065 -0.9482  1.0352  1.1861
  265MOL0     H35746   5.855   3.527  11.089 -0.7583  0.4175 -1.5834
  265MOL0     H35747   6.086   3.566  11.131 -0.8972 -0.3856 -1.8363
  265MOL0     H35748   6.135   3.397  11.107 -1.0435 -1.3926 -0.4570
  265MOL0     H35749   6.015   3.326  11.306  2.1215 -0.4119 -0.0201
  265MOL0     H35750   6.116   3.467  11.356  0.0303  0.4409 -0.4965
  265MOL0     H35751   5.824   3.477  11.284 -1.7550  1.4519  1.0245
  265MOL0     H35752   5.904   3.607  11.354 -1.8326  0.5796 -2.8570
  265MOL0     H35753   5.935   3.456  11.568 -0.1764 -0.9800 -0.2264
  265MOL0     H35754   5.768   3.477  11.511  0.5305  0.9177  0.0670
  265MOL0     H35755   5.962   3.822  10.609 -1.3318  1.8057  0.6786
  265MOL0     H35756   5.986   3.846  10.367  1.1134 -1.1032  2.2029
  265MOL0     H35757   5.852   3.497   9.916  2.7229  0.3644  3.0522
  265MOL0     H35758   5.872   3.529   9.684 -2.2156  1.3021 -3.1987
  265MOL0     H35759   6.398   4.592   8.181 -4.1906 -3.5782  2.9790
  265MOL0     H35760   6.389   4.692   7.948  0.1093  1.2423  0.3240
  265MOL0     H35761   5.887   4.904   7.626 -1.1142  0.2111 -0.2987
  265MOL0     H35762   5.876   4.974   7.403 -1.2195  0.4186  2.4809
  265MOL0     H35763   6.168   4.828   7.154  0.5105  0.3067  1.6393
  265MOL0     H35764   6.243   4.987   7.136  0.4430 -1.2482  5.1835
  265MOL0     H35765   6.033   5.014   6.959  1.1660  2.0936  2.1521
  265MOL0     H35766   5.992   4.854   7.014 -2.4271  3.3560  1.0688
  265MOL0     H35767   6.095   4.839   6.801 -0.6827 -3.0486  1.0181
  265MOL0     H35768   6.195   4.757   6.907 -0.9865 -0.1482 -1.2962
  265MOL0     H35769   6.338   4.937   6.949 -0.9190 -2.8519  0.7706
  265MOL0     H35770   6.337   4.888   6.775 -2.6641 -3.3801  0.4527
  265MOL0     H35771   6.178   5.276   6.715  2.4860  1.1921 -1.1754
  265MOL0     H35772   6.294   4.962   7.360 -0.5952 -1.3943 -0.4119
  265MOL0     H35773   6.432   4.976   7.549 -0.9694  2.7411  1.2960
  265MOL0     H35774   6.384   4.931   7.705  1.0936  0.8602 -0.6670
  265MOL0     H35775   6.405   4.806   7.586 -0.3779  1.1865  0.1731
  266MOL0     O35776   3.006   3.859   1.479  0.2454 -0.0641 -0.0194
  266MOL0     C35777   3.103   3.878   1.549 -0.2521  0.3339  0.0046
  266MOL0     O35778   3.113   3.829   1.675  0.5769 -0.5289  0.4876
  266MOL0     C35779   3.000   3.796   1.740  0.3715  0.7054  0.0040
  266MOL0     C35780   2.903   3.893   1.763  0.2997  1.2372  0.1588
  266MOL0     C35781   2.787   3.856   1.826 -0.6679 -0.1824 -0.4715
  266MOL0     C35782   2.748   3.730   1.865 -1.1075 -0.4589  0.0071
  266MOL0     O35783   2.630   3.707   1.923  0.2010  0.2736  0.6061
  266MOL0     C35784   2.545   3.817   1.971 -0.4115  0.2402  0.5747
  266MOL0     C35785   2.443   3.881   1.874  0.0992 -0.9197  0.5714
  266MOL0     C35786   2.360   3.767   1.816  0.4307  0.1183  0.6991
  266MOL0     C35787   2.246   3.820   1.718  0.8338 -0.4120  0.1282
  266MOL0     C35788   2.146   3.711   1.676 -0.9288 -0.4366 -0.1433
  266MOL0     C35789   2.018   3.779   1.631 -0.1755 -0.4782  0.0490
  266MOL0     C35790   1.906   3.676   1.635 -0.6069 -0.1054  0.2411
  266MOL0     C35791   1.775   3.742   1.582 -0.5557  0.0642  0.8484
  266MOL0     N35792   1.713   3.827   1.683  0.6585  0.6640  0.8997
  266MOL0     C35793   1.645   3.771   1.785  0.6992 -0.7448 -1.2909
  266MOL0     C35794   1.574   3.880   1.838  0.0261  0.4104  0.2646
  266MOL0     C35795   1.481   3.866   1.950  0.0936 -0.0359 -0.1405
  266MOL0     C35796   1.521   3.923   2.080  0.7579 -0.0984 -0.4754
  266MOL0     C35797   1.415   3.906   2.191  0.8544  0.5298  0.0272
  266MOL0     C35798   1.478   3.907   2.331  0.2293 -0.3075  0.4159
  266MOL0     O35799   1.547   4.031   2.356 -0.9216  0.8711 -0.0861
  266MOL0     C35800   1.577   4.064   2.490  0.1427 -0.1802  0.1181
  266MOL0     C35801   1.658   4.184   2.504  0.8301 -0.1769 -0.1587
  266MOL0     C35802   1.687   4.242   2.631 -0.7105 -0.5306  0.1786
  266MOL0     C35803   1.627   4.191   2.743  0.3487 -0.5785 -0.8087
  266MOL0     C35804   1.635   4.260   2.880  0.2219 -0.1544  0.2278
  266MOL0     O35805   1.729   4.360   2.896  0.3562 -0.2865  0.0333
  266MOL0     C35806   1.759   4.406   3.024 -0.2591 -0.8808  0.0112
  266MOL0     C35807   1.882   4.383   3.080  0.0403  1.0391 -0.7936
  266MOL0     C35808   1.910   4.428   3.203  0.0864 -0.0210 -0.0552
  266MOL0     C35809   1.817   4.507   3.281  0.2070  0.1691  0.4722
  266MOL0     O35810   1.846   4.572   3.393  0.0632 -0.5616 -0.1057
  266MOL0     C35811   1.971   4.534   3.454  0.5538  0.5523  0.1895
  266MOL0     C35812   2.005   4.599   3.589  0.1002 -0.7543 -0.8186
  266MOL0     C35813   1.890   4.578   3.691 -0.9797  1.0186  0.2852
  266MOL0     C35814   1.925   4.641   3.830  0.1451  0.0919 -0.4167
  266MOL0     C35815   1.810   4.608   3.921  0.0590 -0.3127 -0.7097
  266MOL0     C35816   1.774   4.470   3.955  0.2514 -0.0872 -0.1380
  266MOL0     C35817   1.712   4.448   4.099  0.2058  0.1249 -0.0230
  266MOL0     C35818   1.571   4.505   4.097 -0.1195 -0.8620  0.7926
  266MOL0    Cl35819   1.487   4.483   4.255 -0.3141  0.3549 -0.2459
  266MOL0     C35820   1.696   4.523   3.226 -0.0717 -1.3737 -0.2534
  266MOL0     C35821   1.662   4.470   3.103 -0.7197  0.2974  0.3368
  266MOL0     O35822   1.568   4.212   2.974  1.3461 -0.6132  0.0365
  266MOL0     C35823   1.560   4.062   2.737  0.4408  0.4471 -0.5571
  266MOL0     C35824   1.524   4.009   2.603 -0.0417  0.0320  0.1531
  266MOL0     N35825   1.613   3.999   1.779 -0.1744  0.3449 -0.1974
  266MOL0     N35826   1.696   3.962   1.689  0.0075  0.2855  0.2985
  266MOL0     C35827   2.844   3.633   1.838  0.4245  0.4506 -0.3404
  266MOL0     C35828   2.962   3.662   1.780  0.2238 -0.1702  0.5867
  266MOL0     C35829   3.225   3.941   1.495 -0.1828  0.5378 -0.8755
  266MOL0     C35830   3.349   3.880   1.528  0.4235 -0.7390 -0.0167
  266MOL0     C35831   3.472   3.935   1.492  0.9461 -0.6649  0.1641
  266MOL0     C35832   3.475   4.052   1.413  0.0414 -0.0132  1.1159
  266MOL0     O35833   3.607   4.083   1.372  0.4912 -0.1443 -0.0218
  266MOL0     C35834   3.625   4.211   1.306 -0.2062  0.4965  0.3857
  266MOL0     C35835   3.775   4.249   1.272  0.4479 -0.1378 -0.7920
  266MOL0     C35836   3.867   4.212   1.381 -0.0962 -0.2420  0.7560
  266MOL0     C35837   3.956   4.334   1.431  0.6485  0.5530  0.3605
  266MOL0     C35838   4.043   4.303   1.545  0.6276  0.7617 -0.5635
  266MOL0     C35839   4.120   4.277   1.641  0.4336 -0.4809  0.8193
  266MOL0     C35840   3.352   4.098   1.358  0.3776 -0.8786 -0.1867
  266MOL0     C35841   3.230   4.039   1.392  0.4755 -0.1030 -0.7848
  266MOL0     C35842   3.107   4.085   1.332  0.6676 -0.5421  0.4691
  266MOL0     H35843   2.918   3.994   1.724 -6.7046  1.8916 -2.2409
  266MOL0     H35844   2.720   3.942   1.833 -1.4858 -0.6499 -2.0877
  266MOL0     H35845   2.495   3.775   2.059 -0.2906 -0.4389  0.3294
  266MOL0     H35846   2.605   3.901   2.004 -0.8353  0.9533 -0.4249
  266MOL0     H35847   2.491   3.928   1.787 -2.6948 -1.0223 -1.1891
  266MOL0     H35848   2.383   3.956   1.927 -1.0853 -1.0793 -0.4833
  266MOL0     H35849   2.298   3.714   1.889  0.1238 -1.6164 -0.7500
  266MOL0     H35850   2.417   3.688   1.767 -2.2291 -0.0469 -2.5019
  266MOL0     H35851   2.188   3.902   1.762  0.9373  1.3949 -2.7810
  266MOL0     H35852   2.294   3.862   1.629  1.5666  1.8091  1.4843
  266MOL0     H35853   2.179   3.632   1.608 -2.4177  0.1246 -1.5931
  266MOL0     H35854   2.130   3.656   1.769 -1.2933  0.7069  0.4894
  266MOL0     H35855   1.989   3.861   1.696 -0.8148 -0.4307 -0.2909
  266MOL0     H35856   2.042   3.827   1.536  0.1981  0.1529  0.4534
  266MOL0     H35857   1.879   3.654   1.738 -1.2464  2.3597  0.6582
  266MOL0     H35858   1.929   3.583   1.582  0.0755  1.2642 -1.9888
  266MOL0     H35859   1.803   3.803   1.496  1.8216 -2.1727 -0.1030
  266MOL0     H35860   1.706   3.666   1.546 -2.0093  1.7859 -0.1345
  266MOL0     H35861   1.628   3.665   1.806  0.1761 -0.9054 -2.4573
  266MOL0     H35862   1.387   3.909   1.915  0.6791  0.8257 -0.6795
  266MOL0     H35863   1.445   3.766   1.975  1.4633 -0.5320 -0.0618
  266MOL0     H35864   1.615   3.879   2.116 -0.1230  0.1274  2.2896
  266MOL0     H35865   1.547   4.029   2.078  1.4950 -0.2551  0.2491
  266MOL0     H35866   1.359   3.812   2.182  1.9153 -0.1063 -0.1168
  266MOL0     H35867   1.337   3.983   2.192  0.7870  0.4892  2.1561
  266MOL0     H35868   1.544   3.820   2.338  2.2687  0.7129 -3.2724
  266MOL0     H35869   1.394   3.898   2.400 -0.2065 -0.6853 -0.1455
  266MOL0     H35870   1.704   4.226   2.415  0.6126  1.8896  0.6606
  266MOL0     H35871   1.758   4.321   2.654  1.0174 -2.0278  0.1955
  266MOL0     H35872   1.958   4.325   3.030  0.1081 -0.0420  0.5032
  266MOL0     H35873   2.007   4.399   3.242 -0.2088  1.1714  1.6964
  266MOL0     H35874   1.973   4.425   3.465  2.6461  0.6534  1.2025
  266MOL0     H35875   2.054   4.565   3.390 -0.0946  3.5519  0.6392
  266MOL0     H35876   2.103   4.570   3.628  1.3263  0.5145 -2.7319
  266MOL0     H35877   2.005   4.707   3.572 -0.2481 -0.1623  2.3580
  266MOL0     H35878   1.804   4.628   3.647 -1.3502 -1.2994 -1.8155
  266MOL0     H35879   1.870   4.471   3.698  1.2056  0.6522  2.3295
  266MOL0     H35880   1.931   4.750   3.820 -1.0181  0.5782  2.7889
  266MOL0     H35881   2.017   4.611   3.880 -1.0945 -1.4507  1.0344
  266MOL0     H35882   1.721   4.658   3.881 -2.7418 -2.5066  2.2972
  266MOL0     H35883   1.830   4.657   4.017 -1.8814 -1.7041  0.4775
  266MOL0     H35884   1.712   4.422   3.879  0.4627 -0.9164  0.1963
  266MOL0     H35885   1.869   4.416   3.948  2.0666  2.8115  0.3200
  266MOL0     H35886   1.779   4.473   4.182 -0.8557 -1.3008  1.3359
  266MOL0     H35887   1.694   4.341   4.110  2.4191 -0.3124 -0.1646
  266MOL0     H35888   1.579   4.613   4.085 -0.9891 -1.0352 -2.0531
  266MOL0     H35889   1.515   4.476   4.007  2.6009  4.1427 -3.0975
  266MOL0     H35890   1.616   4.574   3.279 -0.1092 -1.1496 -0.5203
  266MOL0     H35891   1.559   4.489   3.074  0.4075  1.7953 -3.2021
  266MOL0     H35892   1.510   4.007   2.816  0.2316 -1.0341 -1.6784
  266MOL0     H35893   1.456   3.925   2.608 -0.8502  0.4910 -1.9323
  266MOL0     H35894   2.831   3.526   1.847  0.6931  0.2741 -1.8236
  266MOL0     H35895   3.031   3.584   1.750  3.3914  2.3402  0.7326
  266MOL0     H35896   3.345   3.788   1.586  2.4155 -1.5962 -1.1439
  266MOL0     H35897   3.561   3.878   1.516  0.7550 -1.3189 -0.6196
  266MOL0     H35898   3.587   4.292   1.369 -0.4344  0.2060  0.6254
  266MOL0     H35899   3.566   4.213   1.214 -3.9701  0.8825  2.5678
  266MOL0     H35900   3.786   4.355   1.244  0.9727  0.3347  1.0761
  266MOL0     H35901   3.810   4.196   1.183  3.0085  3.6131 -2.2893
  266MOL0     H35902   3.938   4.135   1.349  0.1322  0.2981 -0.0703
  266MOL0     H35903   3.819   4.182   1.475  1.8464  1.9532  2.5617
  266MOL0     H35904   4.011   4.379   1.347 -0.4798 -1.4771 -1.5858
  266MOL0     H35905   3.884   4.411   1.458 -0.4892 -0.6937  0.9870
  266MOL0     H35906   4.195   4.257   1.715  2.1256 -0.6686 -0.8633
  266MOL0     H35907   3.345   4.190   1.302  0.6927  0.6566  2.1676
  266MOL0     H35908   3.099   4.174   1.268  1.7594  1.1462  2.5414
  266MOL0     H35909   3.056   3.994   1.298  0.2164 -0.8018  1.7786
  266MOL0     H35910   3.044   4.118   1.415 -1.8060  2.7185 -2.4022
  267MOL0     O35911   6.132   7.544   8.345 -0.1200 -0.0312 -0.1268
  267MOL0     C35912   6.039   7.559   8.267  0.2590  0.6063  0.2443
  267MOL0     O35913   5.969   7.677   8.246 -0.0338 -0.0592 -0.0121
  267MOL0     C35914   5.997   7.769   8.348 -1.3628 -0.5097 -0.0477
  267MOL0     C35915   6.092   7.870   8.339  0.6728 -0.1463 -0.3983
  267MOL0     C35916   6.093   7.976   8.427  0.4795 -0.1999 -0.2333
  267MOL0     C35917   6.005   7.987   8.529 -0.1678 -0.0059 -0.7031
  267MOL0     O35918   6.015   8.092   8.620 -1.3385 -0.1105 -0.7473
  267MOL0     C35919   5.983   8.056   8.759  0.5568 -0.7264 -0.5157
  267MOL0     C35920   6.053   8.156   8.856  0.1484 -0.1685 -0.3023
  267MOL0     C35921   6.012   8.123   9.002  0.1474  0.3077  0.0672
  267MOL0     C35922   6.100   8.191   9.108 -0.2745  0.3434  0.1339
  267MOL0     C35923   6.209   8.107   9.163 -0.0139 -0.2569 -1.1950
  267MOL0     C35924   6.338   8.100   9.083  0.5441  0.6619 -0.4967
  267MOL0     C35925   6.446   8.028   9.166 -0.1933 -0.9488  0.2965
  267MOL0     C35926   6.584   7.990   9.081  0.0162  0.2169  0.7527
  267MOL0     N35927   6.607   8.085   8.971 -1.2252 -0.7423 -0.2148
  267MOL0     C35928   6.539   8.088   8.850  0.3548 -0.2750  0.3208
  267MOL0     C35929   6.554   8.209   8.793 -0.0840  0.2298 -0.0825
  267MOL0     C35930   6.478   8.255   8.671 -0.2907 -0.3881  0.3753
  267MOL0     C35931   6.391   8.373   8.724 -0.1232 -0.2705  0.1707
  267MOL0     C35932   6.295   8.408   8.615  0.5387  0.0937  0.0773
  267MOL0     C35933   6.225   8.538   8.629 -0.9593 -0.2341 -0.4995
  267MOL0     O35934   6.123   8.547   8.721 -0.4164  0.2259 -0.8939
  267MOL0     C35935   6.080   8.665   8.764  0.7156  0.0374  0.0318
  267MOL0     C35936   5.975   8.659   8.857  0.2026 -0.1711  0.0340
  267MOL0     C35937   5.923   8.777   8.909  0.5806  0.2161 -1.3519
  267MOL0     C35938   5.963   8.901   8.881 -0.2776  0.2129  0.8845
  267MOL0     C35939   5.912   9.013   8.955  0.4349 -0.2425 -0.3397
  267MOL0     O35940   5.976   9.130   8.945  0.9158  0.4046 -0.7290
  267MOL0     C35941   5.917   9.242   8.986 -0.0344  0.5094  0.9003
  267MOL0     C35942   5.794   9.289   8.958  0.2653  0.2531 -0.1708
  267MOL0     C35943   5.738   9.388   9.034 -0.8990  0.2406  0.9644
  267MOL0     C35944   5.811   9.465   9.127  0.5924 -0.4725  1.1142
  267MOL0     O35945   5.738   9.569   9.196  0.1235  0.3080 -0.2575
  267MOL0     C35946   5.813   9.686   9.221  0.7903 -0.3912 -0.0556
  267MOL0     C35947   5.838   9.676   9.371 -0.2075 -0.3431  0.2779
  267MOL0     C35948   5.708   9.691   9.447 -0.0752 -0.1287 -0.1785
  267MOL0     C35949   5.707   9.625   9.585  0.1478 -0.2878  0.1432
  267MOL0     C35950   5.597   9.666   9.671  1.3188 -0.0397 -0.9444
  267MOL0     C35951   5.585   9.813   9.708 -0.1869  0.2618  0.3496
  267MOL0     C35952   5.698   9.854   9.808 -0.2535 -0.2431 -0.0634
  267MOL0     C35953   5.734   9.998   9.794  0.2192 -1.0335  0.0744
  267MOL0    Cl35954   5.583  10.096   9.827 -0.0471 -0.0636  0.1452
  267MOL0     C35955   5.948   9.425   9.137 -0.8457  0.2545  0.9188
  267MOL0     C35956   6.001   9.322   9.067  0.6398  0.0079 -0.5536
  267MOL0     O35957   5.811   8.992   9.029 -0.0949 -0.1720 -0.0066
  267MOL0     C35958   6.074   8.909   8.789 -0.4480 -0.4362 -0.1664
  267MOL0     C35959   6.133   8.792   8.735 -0.5185  0.0600 -0.3730
  267MOL0     N35960   6.650   8.277   8.878  0.3297  1.0771 -0.3181
  267MOL0     N35961   6.690   8.196   8.975  0.0291 -0.7071  0.1858
  267MOL0     C35962   5.910   7.884   8.545  0.6407 -0.6013  0.2301
  267MOL0     C35963   5.905   7.783   8.451  0.1318 -0.3123 -0.2993
  267MOL0     C35964   6.011   7.457   8.168 -0.4617  0.7311 -0.9491
  267MOL0     C35965   6.118   7.386   8.120  0.6958 -0.0153  0.2290
  267MOL0     C35966   6.086   7.283   8.027 -0.4199 -0.2926  0.1415
  267MOL0     C35967   5.958   7.246   7.980  0.4013 -0.9342  0.1493
  267MOL0     O35968   5.930   7.138   7.906 -0.2477  0.5587  0.1954
  267MOL0     C35969   6.034   7.079   7.830 -0.1939  1.0238 -0.5794
  267MOL0     C35970   5.991   6.949   7.770  0.5896  1.0186 -0.3837
  267MOL0     C35971   5.987   6.830   7.877  0.3870  0.6584  0.1647
  267MOL0     C35972   5.925   6.697   7.810 -0.0480 -0.3613 -0.3962
  267MOL0     C35973   5.993   6.648   7.689 -0.2557 -0.3216  0.7094
  267MOL0     C35974   6.049   6.597   7.592 -0.8867  1.0018  0.5820
  267MOL0     C35975   5.856   7.321   8.039  0.0447  0.2640  1.4683
  267MOL0     C35976   5.882   7.424   8.124  0.0886 -0.8358 -0.0401
  267MOL0     C35977   5.759   7.497   8.163 -0.3078  0.1598 -0.0513
  267MOL0     H35978   6.165   7.853   8.261  0.6962 -0.1685 -0.3721
  267MOL0     H35979   6.168   8.053   8.408  0.1602 -0.1139 -1.2400
  267MOL0     H35980   5.875   8.062   8.778  1.0152 -0.6983  2.6675
  267MOL0     H35981   6.015   7.957   8.791  3.5230  0.7750  1.6735
  267MOL0     H35982   6.021   8.256   8.827 -1.8424 -0.6419  0.0837
  267MOL0     H35983   6.161   8.142   8.845  0.3601 -2.3221  3.0554
  267MOL0     H35984   6.021   8.015   9.021 -1.5428  0.0134 -0.5854
  267MOL0     H35985   5.907   8.150   9.015  0.8598  2.6502  1.6269
  267MOL0     H35986   6.141   8.282   9.063  2.0732  1.6051  4.3065
  267MOL0     H35987   6.025   8.230   9.178 -1.5619  2.9914 -2.4727
  267MOL0     H35988   6.232   8.163   9.255 -0.0922 -0.7928 -0.8418
  267MOL0     H35989   6.162   8.015   9.199  1.1158  0.9957  4.5150
  267MOL0     H35990   6.307   8.047   8.993 -2.3394  1.6518 -0.2019
  267MOL0     H35991   6.369   8.201   9.054 -0.5568  0.6243 -1.9078
  267MOL0     H35992   6.407   7.937   9.212  0.6642 -3.0066 -2.7564
  267MOL0     H35993   6.469   8.092   9.251 -3.0318  3.1343 -1.6550
  267MOL0     H35994   6.665   7.986   9.154 -1.5144 -1.2684  2.4885
  267MOL0     H35995   6.568   7.888   9.045 -5.5271  0.1067  2.4947
  267MOL0     H35996   6.480   8.006   8.812 -0.8253  0.4513  0.5014
  267MOL0     H35997   6.551   8.288   8.596 -0.1918 -0.5015  0.4218
  267MOL0     H35998   6.426   8.168   8.631  0.9777 -1.1409  0.2895
  267MOL0     H35999   6.340   8.355   8.820  1.0602  2.1720  1.3393
  267MOL0     H36000   6.454   8.462   8.725  1.9103 -1.5008 -3.2654
  267MOL0     H36001   6.216   8.334   8.598  1.5078 -1.4575  1.9475
  267MOL0     H36002   6.351   8.406   8.522 -0.2605 -2.5265 -0.4303
  267MOL0     H36003   6.174   8.565   8.536 -0.2124 -0.8550 -1.1043
  267MOL0     H36004   6.308   8.608   8.639 -0.5794 -0.5750 -1.2212
  267MOL0     H36005   5.931   8.563   8.882  2.9048 -1.6844 -0.6406
  267MOL0     H36006   5.860   8.773   8.997  1.5224 -1.0876 -0.6782
  267MOL0     H36007   5.735   9.240   8.881 -0.1077  2.4720 -1.3834
  267MOL0     H36008   5.633   9.413   9.021 -0.9804  0.3475  1.7478
  267MOL0     H36009   5.906   9.697   9.165  1.4504  3.5788  1.4904
  267MOL0     H36010   5.747   9.770   9.199 -0.4464  0.1386  4.5857
  267MOL0     H36011   5.873   9.579   9.406  0.0997  0.0092  0.9578
  267MOL0     H36012   5.902   9.756   9.410 -0.5019 -0.4437  0.9791
  267MOL0     H36013   5.678   9.794   9.467  0.4503 -0.2540  1.4497
  267MOL0     H36014   5.626   9.638   9.398 -1.6310  0.5792  1.5818
  267MOL0     H36015   5.801   9.641   9.639  0.2905 -2.7316  0.7265
  267MOL0     H36016   5.692   9.518   9.569  2.5209 -0.3823 -2.0094
  267MOL0     H36017   5.597   9.609   9.765 -1.3403  1.1869 -0.0815
  267MOL0     H36018   5.500   9.636   9.629  1.9462 -3.7600 -0.0770
  267MOL0     H36019   5.573   9.876   9.620  0.0765 -0.5717 -0.2976
  267MOL0     H36020   5.487   9.824   9.755  0.5252  3.9400  1.2878
  267MOL0     H36021   5.790   9.795   9.797  2.5666  3.5254  1.1975
  267MOL0     H36022   5.669   9.844   9.913  2.0926  0.6934  0.7337
  267MOL0     H36023   5.816  10.023   9.862 -1.8676  0.8153  2.1082
  267MOL0     H36024   5.770  10.020   9.693  0.7799  3.7553  1.0447
  267MOL0     H36025   6.016   9.471   9.208  2.0171 -1.7504 -0.3127
  267MOL0     H36026   6.105   9.292   9.071  0.4747 -0.5263 -0.0032
  267MOL0     H36027   6.119   9.007   8.773  0.4999 -1.0066 -1.0971
  267MOL0     H36028   6.222   8.815   8.678 -3.1119  2.6533 -3.7608
  267MOL0     H36029   5.843   7.876   8.630  4.9625 -3.9258  3.8624
  267MOL0     H36030   5.830   7.707   8.471  1.3658 -1.0707  1.8201
  267MOL0     H36031   6.221   7.391   8.153  1.0818 -2.0987 -0.5447
  267MOL0     H36032   6.171   7.224   7.994 -0.6947 -0.2335 -0.7029
  267MOL0     H36033   6.123   7.051   7.887 -0.5976  1.4720  0.2736
  267MOL0     H36034   6.051   7.143   7.742 -1.7161  0.4838 -1.2928
  267MOL0     H36035   6.056   6.920   7.687  0.5995 -5.3403  1.3097
  267MOL0     H36036   5.890   6.969   7.735 -0.5214 -1.2349  1.2220
  267MOL0     H36037   5.919   6.856   7.958  0.2602 -1.3532  0.7578
  267MOL0     H36038   6.086   6.817   7.922  0.8267 -1.2112 -1.1918
  267MOL0     H36039   5.939   6.626   7.892  0.1179  0.1048 -0.0099
  267MOL0     H36040   5.821   6.717   7.782  1.0947  1.6920 -3.7103
  267MOL0     H36041   6.106   6.539   7.522 -0.4481  0.5366  1.3149
  267MOL0     H36042   5.759   7.288   8.003  1.1606 -1.1058 -0.5321
  267MOL0     H36043   5.777   7.543   8.261  0.8214  0.5226 -0.4168
  267MOL0     H36044   5.749   7.582   8.094 -0.0316  0.6105  0.4517
  267MOL0     H36045   5.668   7.436   8.172  0.2084 -0.4038  1.7370
  268MOL0     O36046   1.753  11.127   5.373 -0.5113  0.3072 -0.4941
  268MOL0     C36047   1.768  11.189   5.273 -0.3415 -0.5609 -0.2448
  268MOL0     O36048   1.858  11.166   5.170  0.0184 -0.0254 -0.4810
  268MOL0     C36049   1.967  11.074   5.170  0.7308 -0.2566  0.0715
  268MOL0     C36050   2.016  11.034   5.047  0.4852  0.5232 -0.2232
  268MOL0     C36051   2.126  10.946   5.034 -0.1846  0.2105  0.3144
  268MOL0     C36052   2.171  10.886   5.148  0.0312  0.8509  0.4933
  268MOL0     O36053   2.250  10.782   5.134 -0.8701 -0.9391 -0.1267
  268MOL0     C36054   2.179  10.656   5.133  0.9005  0.6337  0.1737
  268MOL0     C36055   2.274  10.553   5.188  0.5089 -0.5770  0.7745
  268MOL0     C36056   2.201  10.416   5.203  0.2905 -0.0759  1.2650
  268MOL0     C36057   2.170  10.368   5.059 -0.3118 -0.5907  0.3244
  268MOL0     C36058   2.093  10.237   5.056 -0.0774 -0.1692 -0.6493
  268MOL0     C36059   2.094  10.192   4.906  0.9126 -0.3882 -0.0782
  268MOL0     C36060   2.018  10.058   4.897 -0.4912 -0.7901 -0.2166
  268MOL0     C36061   2.030   9.994   4.752  0.7233 -0.0637 -0.0086
  268MOL0     N36062   2.170   9.977   4.705 -1.5133  0.1828 -0.0732
  268MOL0     C36063   2.234  10.028   4.589  0.2946  0.2709  0.0990
  268MOL0     C36064   2.335   9.945   4.575  0.2004  0.8452  0.2567
  268MOL0     C36065   2.434   9.952   4.469  0.3795 -0.1358  0.9866
  268MOL0     C36066   2.405   9.860   4.350  0.3410 -0.1240  0.7086
  268MOL0     C36067   2.272   9.896   4.284 -0.4135  0.4097  0.0853
  268MOL0     C36068   2.250   9.820   4.148 -0.2357 -0.6993  1.1770
  268MOL0     O36069   2.198   9.683   4.154 -0.6054  0.1737 -0.3042
  268MOL0     C36070   2.067   9.656   4.166  0.5467 -0.3230 -0.5467
  268MOL0     C36071   1.962   9.747   4.149  0.5372 -0.1594 -0.3197
  268MOL0     C36072   1.824   9.711   4.159 -0.0351  0.7684 -0.6431
  268MOL0     C36073   1.798   9.577   4.171 -0.2026  0.8753 -0.6592
  268MOL0     C36074   1.657   9.516   4.158  0.2469 -0.5125 -0.7894
  268MOL0     O36075   1.561   9.609   4.132  0.2611  0.0147 -0.4059
  268MOL0     C36076   1.429   9.563   4.123 -0.0084 -0.3819  0.0498
  268MOL0     C36077   1.353   9.540   4.243  0.1579  0.1393 -0.6794
  268MOL0     C36078   1.215   9.498   4.237  0.4696 -0.4262  0.3888
  268MOL0     C36079   1.158   9.487   4.108 -0.4102 -0.4375 -0.4629
  268MOL0     O36080   1.024   9.454   4.107 -0.1367 -0.1562 -0.1320
  268MOL0     C36081   0.952   9.473   3.990  0.1697 -0.0084  0.2471
  268MOL0     C36082   0.807   9.427   4.019 -0.1811 -0.4527  0.4671
  268MOL0     C36083   0.718   9.528   4.087  0.7621  0.4328 -0.3469
  268MOL0     C36084   0.590   9.457   4.150 -1.1369 -0.9462 -0.4022
  268MOL0     C36085   0.493   9.559   4.216  0.0209  0.2179  1.1207
  268MOL0     C36086   0.506   9.564   4.374  0.1854 -0.7467 -0.3129
  268MOL0     C36087   0.645   9.620   4.411 -0.7632  0.3315 -0.1654
  268MOL0     C36088   0.663   9.772   4.398  0.8140  0.1261  0.4179
  268MOL0    Cl36089   0.574   9.855   4.519  0.2952  0.1669  0.3936
  268MOL0     C36090   1.235   9.530   3.994  0.7538  0.4885  0.3770
  268MOL0     C36091   1.360   9.574   4.007 -0.1163 -0.4043 -0.7072
  268MOL0     O36092   1.643   9.398   4.168 -0.3832  0.4663 -0.2933
  268MOL0     C36093   1.901   9.484   4.189 -0.4369 -0.2526  0.0687
  268MOL0     C36094   2.036   9.520   4.194 -0.3721  0.3969  0.0017
  268MOL0     N36095   2.341   9.858   4.671 -0.4256 -0.1337  0.3834
  268MOL0     N36096   2.246   9.876   4.753  0.8739 -1.4110 -0.0275
  268MOL0     C36097   2.129  10.931   5.271 -1.2610 -0.9691 -0.5794
  268MOL0     C36098   2.027  11.026   5.287 -1.1283 -0.5488  0.1852
  268MOL0     C36099   1.683  11.305   5.250  0.0631 -0.7632  0.1078
  268MOL0     C36100   1.621  11.320   5.125 -0.6215  1.2508  0.3810
  268MOL0     C36101   1.535  11.420   5.095  0.3561 -0.5754  0.6851
  268MOL0     C36102   1.506  11.513   5.185 -0.3316 -0.9221  0.5532
  268MOL0     O36103   1.412  11.612   5.155 -0.8629 -0.0570  0.5618
  268MOL0     C36104   1.401  11.729   5.245 -0.3098  0.6220  0.6271
  268MOL0     C36105   1.331  11.845   5.172 -0.5134  0.2773 -0.1240
  268MOL0     C36106   1.370  11.975   5.240 -0.0877  0.0658 -0.4572
  268MOL0     C36107   1.286  12.089   5.189  0.1815  0.2512  0.1312
  268MOL0     C36108   1.315  12.207   5.276  0.0852 -0.5485 -0.2508
  268MOL0     C36109   1.338  12.312   5.333 -0.2157  0.5506  0.2339
  268MOL0     C36110   1.561  11.509   5.309  0.1493 -0.2851  0.6733
  268MOL0     C36111   1.654  11.404   5.344  0.2861  0.2335 -0.9934
  268MOL0     C36112   1.718  11.410   5.477  0.2429  0.4691  0.0004
  268MOL0     H36113   1.959  11.065   4.960 -2.9963 -2.4662  0.7143
  268MOL0     H36114   2.162  10.911   4.938  0.8274 -0.8424  1.0588
  268MOL0     H36115   2.081  10.658   5.182  1.7682  3.8227  2.1025
  268MOL0     H36116   2.169  10.646   5.025  0.0550 -0.8256  0.3594
  268MOL0     H36117   2.304  10.580   5.289  0.8109  0.2478  0.4729
  268MOL0     H36118   2.361  10.559   5.121 -1.9075  0.8968 -2.5157
  268MOL0     H36119   2.111  10.437   5.261  1.0807  0.5976  2.2951
  268MOL0     H36120   2.266  10.348   5.259  1.5696  0.1465  0.1188
  268MOL0     H36121   2.111  10.428   4.989  0.4780 -1.1549 -0.8698
  268MOL0     H36122   2.265  10.351   5.008  0.9586  2.4833  1.4543
  268MOL0     H36123   2.141  10.163   5.120 -2.3211 -0.6921  0.5506
  268MOL0     H36124   1.999  10.262   5.106 -0.4056 -0.9365 -0.8748
  268MOL0     H36125   2.050  10.272   4.845  1.3401 -1.6891 -2.2173
  268MOL0     H36126   2.197  10.182   4.871  1.1490  1.5901 -0.0482
  268MOL0     H36127   1.914  10.076   4.926 -0.8830 -1.1103 -1.3561
  268MOL0     H36128   2.065   9.989   4.968  1.2569 -0.0730 -0.6140
  268MOL0     H36129   1.982   9.895   4.756 -0.9331  0.7084  3.9573
  268MOL0     H36130   1.979  10.053   4.675  1.9423  1.0219 -0.0142
  268MOL0     H36131   2.204  10.106   4.521  2.3251  1.6162  0.6606
  268MOL0     H36132   2.437  10.054   4.430 -0.5623 -0.5506 -0.2258
  268MOL0     H36133   2.535   9.932   4.507  0.1376 -3.3950  0.2220
  268MOL0     H36134   2.488   9.855   4.279 -1.3591 -1.3980 -1.3200
  268MOL0     H36135   2.404   9.757   4.386  5.4397 -0.9527 -0.7939
  268MOL0     H36136   2.277  10.004   4.269  1.1488  0.2648 -0.6922
  268MOL0     H36137   2.179   9.893   4.341 -0.9603  1.7498 -0.6955
  268MOL0     H36138   2.337   9.803   4.083 -0.3984 -1.5717  1.1746
  268MOL0     H36139   2.188   9.887   4.087  1.4075  1.1118  1.3777
  268MOL0     H36140   1.984   9.851   4.125  3.2220 -0.8331 -1.1082
  268MOL0     H36141   1.747   9.786   4.146 -1.1804 -0.1011  0.7403
  268MOL0     H36142   1.396   9.535   4.343 -0.0882  1.3511 -0.5026
  268MOL0     H36143   1.166   9.470   4.330  1.5439  0.2065  1.1606
  268MOL0     H36144   0.948   9.577   3.956  2.2701  0.6479  1.8256
  268MOL0     H36145   0.999   9.419   3.907  1.8304  2.5836 -0.6567
  268MOL0     H36146   0.760   9.395   3.925 -2.1756  1.4342  0.7357
  268MOL0     H36147   0.809   9.341   4.087 -5.2068 -1.8708 -0.7542
  268MOL0     H36148   0.775   9.583   4.163 -1.4866 -1.2287  2.8044
  268MOL0     H36149   0.680   9.605   4.019  1.8627  1.7799  0.5156
  268MOL0     H36150   0.623   9.375   4.213  3.6680  1.5603  0.8188
  268MOL0     H36151   0.540   9.414   4.063  1.1302  0.5092 -2.5576
  268MOL0     H36152   0.386   9.540   4.199 -0.1983  3.3325 -2.0222
  268MOL0     H36153   0.502   9.655   4.165  0.0344 -1.0637 -1.4625
  268MOL0     H36154   0.431   9.638   4.403 -0.7809 -1.2431 -1.4883
  268MOL0     H36155   0.489   9.468   4.422  0.0610 -0.8175 -0.4973
  268MOL0     H36156   0.728   9.579   4.352 -0.5960  4.0987 -2.8856
  268MOL0     H36157   0.670   9.591   4.513  0.2613  0.3232 -0.4008
  268MOL0     H36158   0.765   9.796   4.429  0.9566  1.4656 -0.9824
  268MOL0     H36159   0.658   9.799   4.292  1.8221 -1.7645 -0.1687
  268MOL0     H36160   1.211   9.523   3.888  2.8535  2.1727 -0.2743
  268MOL0     H36161   1.414   9.599   3.917 -0.0838  3.9814  0.3345
  268MOL0     H36162   1.891   9.376   4.191 -0.6869 -0.2334 -0.0453
  268MOL0     H36163   2.118   9.448   4.195 -1.2584 -0.6669 -1.3489
  268MOL0     H36164   2.177  10.886   5.358  0.0062 -0.1896 -0.8474
  268MOL0     H36165   1.977  11.056   5.378 -0.0398  0.0065  0.6144
  268MOL0     H36166   1.647  11.255   5.042 -3.3851 -0.2805  0.6105
  268MOL0     H36167   1.494  11.448   4.999 -0.8311  3.0233  2.0773
  268MOL0     H36168   1.501  11.762   5.278  1.0913 -1.5981 -1.1070
  268MOL0     H36169   1.336  11.714   5.331 -1.7290  0.2914 -0.4805
  268MOL0     H36170   1.224  11.833   5.189 -0.3589 -0.9274  0.0853
  268MOL0     H36171   1.361  11.840   5.067  1.8479  4.5751  0.0947
  268MOL0     H36172   1.476  11.982   5.217 -0.5060  0.3505 -2.4830
  268MOL0     H36173   1.372  11.967   5.350  0.4937  0.8267 -0.4031
  268MOL0     H36174   1.297  12.105   5.082 -2.1518 -2.8614 -0.7316
  268MOL0     H36175   1.180  12.066   5.202 -0.0405  0.0188 -1.8358
  268MOL0     H36176   1.360  12.393   5.400  4.6649 -3.5087  4.5228
  268MOL0     H36177   1.544  11.578   5.391  0.0550  2.0487 -1.2074
  268MOL0     H36178   1.730  11.513   5.511  1.7855  1.3544 -2.8928
  268MOL0     H36179   1.651  11.353   5.542  0.0957 -3.0892 -2.9828
  268MOL0     H36180   1.815  11.360   5.469  0.0774  0.4635 -3.2209
  269MOL0     O36181   8.143   4.511   5.900  0.3007 -0.3280 -0.1812
  269MOL0     C36182   8.120   4.401   5.861  1.2268  1.0133  0.3351
  269MOL0     O36183   8.149   4.344   5.734 -0.4305  0.5640 -0.5877
  269MOL0     C36184   8.144   4.432   5.634 -0.4941  0.0711  0.6444
  269MOL0     C36185   8.035   4.487   5.573  0.1140  0.7278  0.1181
  269MOL0     C36186   8.041   4.576   5.465 -0.8656  0.3750 -0.3885
  269MOL0     C36187   8.167   4.624   5.424 -0.2074  0.4618  0.6216
  269MOL0     O36188   8.198   4.706   5.316  0.4814  0.0301  0.0761
  269MOL0     C36189   8.090   4.722   5.221  0.3120  0.3696 -0.1095
  269MOL0     C36190   8.106   4.777   5.079  0.4690  0.3389  0.3276
  269MOL0     C36191   8.157   4.925   5.083 -0.1816  0.0059  0.0949
  269MOL0     C36192   8.179   4.968   4.934 -0.4330  0.1025  0.5315
  269MOL0     C36193   8.142   5.119   4.913 -0.6292 -1.2502  1.6958
  269MOL0     C36194   8.152   5.142   4.765 -0.0539 -0.0433  0.1553
  269MOL0     C36195   8.109   5.288   4.733  1.1806 -0.3348 -0.3494
  269MOL0     C36196   8.117   5.321   4.595  0.6218 -0.1622  0.6311
  269MOL0     N36197   7.995   5.263   4.521 -0.0444  0.9825  0.4333
  269MOL0     C36198   7.863   5.283   4.529 -0.4784  0.2844 -0.7468
  269MOL0     C36199   7.800   5.208   4.443  0.7371  0.2324 -0.8022
  269MOL0     C36200   7.661   5.218   4.396  0.7575 -0.3496  0.2693
  269MOL0     C36201   7.564   5.191   4.520 -1.0403  0.6216  0.3297
  269MOL0     C36202   7.550   5.314   4.604 -0.9084 -0.0114  0.0602
  269MOL0     C36203   7.519   5.441   4.534  0.8695 -0.5949  1.0366
  269MOL0     O36204   7.419   5.526   4.598  0.5490  0.6488 -0.3997
  269MOL0     C36205   7.460   5.596   4.709 -0.3810 -0.3060 -0.2611
  269MOL0     C36206   7.555   5.691   4.708  0.3004  0.0966 -0.4551
  269MOL0     C36207   7.586   5.771   4.814  1.0702 -0.0744 -0.2653
  269MOL0     C36208   7.515   5.745   4.928  0.8967 -0.8974 -0.1673
  269MOL0     C36209   7.547   5.843   5.036 -0.4086  0.0421  0.6457
  269MOL0     O36210   7.651   5.931   5.026  0.0698 -0.4160 -0.6442
  269MOL0     C36211   7.664   6.018   5.132  0.2297 -0.2186  1.3910
  269MOL0     C36212   7.588   6.139   5.136 -0.0181 -0.5228 -0.0936
  269MOL0     C36213   7.610   6.237   5.241  0.7604  0.6949  0.5128
  269MOL0     C36214   7.717   6.230   5.330 -0.0858  0.0729 -0.2103
  269MOL0     O36215   7.719   6.300   5.448 -0.9099 -0.4155 -0.0449
  269MOL0     C36216   7.794   6.424   5.441  0.0600  0.5660 -0.4161
  269MOL0     C36217   7.771   6.515   5.553 -0.0665  0.9726 -0.5382
  269MOL0     C36218   7.810   6.447   5.690 -0.0105 -0.0400  1.4487
  269MOL0     C36219   7.889   6.526   5.798 -0.0790 -0.2095  0.4149
  269MOL0     C36220   7.922   6.452   5.931  0.0533 -0.8181  0.7150
  269MOL0     C36221   7.983   6.558   6.030 -0.2014 -0.1172 -0.1447
  269MOL0     C36222   8.050   6.485   6.140  0.4289 -0.3078  0.8096
  269MOL0     C36223   8.091   6.557   6.267  0.3715  0.5704  0.2638
  269MOL0    Cl36224   7.950   6.620   6.351  0.1128 -0.1155 -0.2070
  269MOL0     C36225   7.783   6.110   5.319 -0.0751  0.3222 -0.2321
  269MOL0     C36226   7.767   6.006   5.220  0.0806  0.6966 -0.0583
  269MOL0     O36227   7.482   5.820   5.138 -0.6267  0.4088 -0.5390
  269MOL0     C36228   7.419   5.645   4.941  0.2528  0.2340 -0.7256
  269MOL0     C36229   7.381   5.580   4.824  0.2658 -0.0204  0.2292
  269MOL0     N36230   7.902   5.141   4.382 -0.3490  0.2955  0.9255
  269MOL0     N36231   8.016   5.171   4.421  0.3649 -0.6819 -0.4939
  269MOL0     C36232   8.279   4.577   5.493 -0.6429 -0.0792  0.0798
  269MOL0     C36233   8.272   4.480   5.583  0.6741 -0.3293 -0.4041
  269MOL0     C36234   8.080   4.309   5.966 -0.2422 -1.0469 -0.9096
  269MOL0     C36235   8.111   4.346   6.101 -0.5850  0.6818 -0.3861
  269MOL0     C36236   8.072   4.264   6.206  0.5190 -1.5308 -0.5955
  269MOL0     C36237   7.986   4.147   6.183 -0.7322  0.2175 -0.5093
  269MOL0     O36238   7.965   4.075   6.303 -0.0685  0.2524  0.1935
  269MOL0     C36239   7.884   3.956   6.304 -0.4546  0.3492 -0.0251
  269MOL0     C36240   7.885   3.892   6.436 -0.2715 -0.5569 -0.0207
  269MOL0     C36241   8.022   3.827   6.477  0.1905  1.1620  0.0682
  269MOL0     C36242   8.163   3.902   6.481  0.0096 -0.4277 -0.6697
  269MOL0     C36243   8.146   4.030   6.543  0.4513  0.5872  0.2984
  269MOL0     C36244   8.165   4.141   6.594 -0.8347  0.0818 -0.7925
  269MOL0     C36245   7.949   4.110   6.043 -1.0423  0.3873 -0.6224
  269MOL0     C36246   7.987   4.202   5.949 -0.6198  0.3732  0.6305
  269MOL0     C36247   7.931   4.172   5.813 -0.2975  0.2317  0.4603
  269MOL0     H36248   7.936   4.464   5.611  0.4641  2.1551  2.0364
  269MOL0     H36249   7.953   4.630   5.431 -0.9264  0.6091  0.1251
  269MOL0     H36250   8.058   4.619   5.204  2.2774 -0.0821 -1.5013
  269MOL0     H36251   8.005   4.782   5.255  2.3089  3.6098 -0.3600
  269MOL0     H36252   8.014   4.762   5.022  0.0999 -2.3479  1.4527
  269MOL0     H36253   8.191   4.716   5.045  0.3084 -0.0216  0.5578
  269MOL0     H36254   8.241   4.926   5.153  0.0309 -0.0764 -0.1580
  269MOL0     H36255   8.078   4.987   5.127 -0.1227  0.4916 -0.4717
  269MOL0     H36256   8.283   4.956   4.903 -1.1829  2.1311 -3.4901
  269MOL0     H36257   8.121   4.907   4.864  2.2713  1.1742 -2.8807
  269MOL0     H36258   8.043   5.150   4.947 -0.5643  1.2962 -0.1569
  269MOL0     H36259   8.209   5.182   4.972  0.7460 -2.8069  1.8715
  269MOL0     H36260   8.257   5.126   4.740  0.7097  1.4898  2.1601
  269MOL0     H36261   8.086   5.068   4.717  0.4105  0.4700 -1.3253
  269MOL0     H36262   8.168   5.356   4.796 -0.5155  1.7518 -0.8914
  269MOL0     H36263   8.004   5.309   4.754  0.9745  0.2190 -1.8131
  269MOL0     H36264   8.122   5.429   4.580 -4.0051  0.4092  1.6567
  269MOL0     H36265   8.220   5.294   4.572  0.5067  1.6154 -2.5258
  269MOL0     H36266   7.821   5.351   4.602  2.2471  1.3206  0.0123
  269MOL0     H36267   7.653   5.320   4.357  0.6975 -0.9803 -1.4202
  269MOL0     H36268   7.661   5.149   4.312  2.3490  0.0644 -0.1077
  269MOL0     H36269   7.464   5.171   4.481 -1.0498 -0.8387  1.0223
  269MOL0     H36270   7.595   5.101   4.574  1.0689  1.5667  0.7985
  269MOL0     H36271   7.637   5.325   4.669 -0.6245  0.4458 -0.3884
  269MOL0     H36272   7.473   5.291   4.678 -1.1466  0.7094  0.0443
  269MOL0     H36273   7.462   5.421   4.443  5.3406 -2.1564 -1.7208
  269MOL0     H36274   7.615   5.489   4.514 -0.2684  3.1848  3.4089
  269MOL0     H36275   7.607   5.711   4.614  1.9049 -0.2524  0.3201
  269MOL0     H36276   7.659   5.851   4.813  0.2419  0.7283  0.9990
  269MOL0     H36277   7.500   6.153   5.074 -0.4581 -1.9729  0.1411
  269MOL0     H36278   7.543   6.322   5.229 -1.2489 -0.7225  1.1688
  269MOL0     H36279   7.900   6.401   5.430  0.1341  1.2111 -1.1295
  269MOL0     H36280   7.759   6.487   5.359 -1.7874  1.9276  1.3244
  269MOL0     H36281   7.829   6.607   5.541  1.3075  0.6098  2.4146
  269MOL0     H36282   7.664   6.537   5.560 -0.3029  0.1741 -1.3864
  269MOL0     H36283   7.715   6.423   5.738 -0.6069  2.7669  1.8698
  269MOL0     H36284   7.858   6.350   5.672  2.7604  1.7972 -2.6430
  269MOL0     H36285   7.839   6.620   5.824 -2.0782 -0.8333 -0.8878
  269MOL0     H36286   7.985   6.550   5.751 -0.3916  0.1104 -0.0703
  269MOL0     H36287   7.994   6.373   5.908  3.2844  2.3472 -1.1885
  269MOL0     H36288   7.831   6.402   5.964 -1.3207 -0.9462 -2.7841
  269MOL0     H36289   8.059   6.612   5.973 -2.8663  2.2221 -1.7808
  269MOL0     H36290   7.905   6.628   6.061 -0.3765 -1.5271  2.9037
  269MOL0     H36291   8.135   6.433   6.093  0.1285 -0.6549  0.6471
  269MOL0     H36292   7.977   6.413   6.177 -1.0442  1.3754  1.2938
  269MOL0     H36293   8.140   6.493   6.341  0.1075  1.7048  1.4537
  269MOL0     H36294   8.162   6.639   6.253  2.5327 -1.1686  0.6743
  269MOL0     H36295   7.860   6.085   5.390  0.5001  0.6653 -0.7236
  269MOL0     H36296   7.827   5.915   5.218  1.2463  1.4485 -0.3749
  269MOL0     H36297   7.362   5.640   5.033 -2.3913  0.1319 -2.2553
  269MOL0     H36298   7.300   5.508   4.815  1.8640 -1.6503 -2.0340
  269MOL0     H36299   8.376   4.606   5.454  1.1221 -1.7300  2.8920
  269MOL0     H36300   8.360   4.431   5.622 -0.2557 -0.0709  2.2277
  269MOL0     H36301   8.171   4.433   6.123 -1.2349  2.0055 -3.4202
  269MOL0     H36302   8.114   4.293   6.302 -1.6858 -0.6567  0.1785
  269MOL0     H36303   7.900   3.874   6.233  1.0688 -0.3878  1.1372
  269MOL0     H36304   7.780   3.991   6.294 -0.8314 -0.2216  1.6635
  269MOL0     H36305   7.803   3.821   6.445  3.4094 -5.4032 -0.4734
  269MOL0     H36306   7.868   3.976   6.504 -1.0498 -1.2629  0.6733
  269MOL0     H36307   8.034   3.748   6.402  3.4520  0.9011  0.7382
  269MOL0     H36308   8.009   3.769   6.568 -0.4595  1.6744  0.3078
  269MOL0     H36309   8.226   3.842   6.547 -1.4839  0.8071  2.0275
  269MOL0     H36310   8.213   3.910   6.384  0.1632  1.6279 -0.4702
  269MOL0     H36311   8.176   4.221   6.664 -0.2043 -1.1542  0.5891
  269MOL0     H36312   7.896   4.016   6.031  2.1037 -1.3952 -1.6785
  269MOL0     H36313   7.902   4.263   5.758 -0.3238  0.5000  0.9138
  269MOL0     H36314   8.005   4.111   5.761 -0.4039 -3.4449  4.1313
  269MOL0     H36315   7.844   4.107   5.821 -0.0794 -0.6890 -2.8621
  270MOL0     O36316   9.311   7.923   8.728 -0.9206  0.8987  0.6272
  270MOL0     C36317   9.253   7.829   8.779 -0.1301 -0.8130  0.6981
  270MOL0     O36318   9.298   7.705   8.803 -0.2197 -0.4386 -0.1548
  270MOL0     C36319   9.430   7.687   8.781  0.3162  1.0509  0.4105
  270MOL0     C36320   9.474   7.671   8.653  0.6464 -0.8171  0.4152
  270MOL0     C36321   9.615   7.668   8.631  0.4043  0.9457 -0.2661
  270MOL0     C36322   9.707   7.654   8.736 -0.2711 -0.0582 -0.3078
  270MOL0     O36323   9.842   7.641   8.718  0.3469  0.4447  0.4676
  270MOL0     C36324   9.874   7.501   8.715  0.5233  1.1912  0.0600
  270MOL0     C36325  10.011   7.503   8.777  0.2479 -0.4349  0.7103
  270MOL0     C36326  10.002   7.491   8.934  0.4091  0.2886  0.4174
  270MOL0     C36327  10.128   7.476   9.012 -0.8259 -0.7611  0.5262
  270MOL0     C36328  10.132   7.493   9.156  0.2015  0.2379  0.3445
  270MOL0     C36329  10.035   7.413   9.228  0.0965  0.3527  0.0176
  270MOL0     C36330  10.054   7.406   9.382  0.5382 -0.3733  0.0852
  270MOL0     C36331   9.940   7.319   9.431  0.6862  1.3846  0.1477
  270MOL0     N36332   9.961   7.282   9.573  0.7541  0.2672  0.7787
  270MOL0     C36333  10.055   7.194   9.614  0.1894 -0.1731  0.5311
  270MOL0     C36334  10.033   7.179   9.746  0.1597 -0.2127  0.5583
  270MOL0     C36335  10.143   7.112   9.828 -0.1470  0.4985 -0.7651
  270MOL0     C36336  10.141   7.170   9.971  0.4826  0.4026 -0.9873
  270MOL0     C36337  10.160   7.318  10.001 -0.6299  0.6500  0.6844
  270MOL0     C36338  10.309   7.376   9.995  0.2588 -0.1189  0.2262
  270MOL0     O36339  10.351   7.378  10.126 -0.3131  0.2387 -0.8904
  270MOL0     C36340  10.423   7.486  10.175  0.5538  1.3524 -0.7733
  270MOL0     C36341  10.525   7.443  10.264 -0.0501 -0.9955 -0.3320
  270MOL0     C36342  10.618   7.540  10.316  0.0492 -0.4300 -0.5961
  270MOL0     C36343  10.606   7.671  10.272  0.3792 -0.4589 -0.5179
  270MOL0     C36344  10.690   7.772  10.340 -0.6078  0.0569  0.2633
  270MOL0     O36345  10.789   7.739  10.427 -0.0463  0.4568 -0.1318
  270MOL0     C36346  10.845   7.838  10.497 -0.8093 -0.6495  0.4476
  270MOL0     C36347  10.913   7.941  10.437 -0.0094  1.0310 -0.7533
  270MOL0     C36348  10.980   8.029  10.520  0.0754  0.1483 -0.1248
  270MOL0     C36349  10.976   8.027  10.662  0.4771 -0.4686 -0.6740
  270MOL0     O36350  11.036   8.128  10.739  0.0377  0.2789 -0.7211
  270MOL0     C36351  10.961   8.251  10.723  0.0406  1.1018  0.9937
  270MOL0     C36352  11.027   8.362  10.800 -0.5535 -0.2552  0.1334
  270MOL0     C36353  11.009   8.351  10.952  0.2871 -0.0106 -0.7462
  270MOL0     C36354  11.044   8.486  11.027  0.8886  0.2583  0.3862
  270MOL0     C36355  11.010   8.488  11.168  0.5214  0.4357 -0.4393
  270MOL0     C36356  11.058   8.620  11.215  0.2354  0.6534  0.4385
  270MOL0     C36357  11.003   8.661  11.360 -0.5436  0.2137 -0.5423
  270MOL0     C36358  10.858   8.701  11.370 -0.6726  0.5252 -0.5972
  270MOL0    Cl36359  10.826   8.796  11.220 -0.1201  0.8601 -0.1894
  270MOL0     C36360  10.921   7.915  10.720 -0.2746  0.1411 -0.1882
  270MOL0     C36361  10.846   7.829  10.632 -0.5687  0.6006 -0.5678
  270MOL0     O36362  10.644   7.887  10.327  0.0220 -0.2704  0.0454
  270MOL0     C36363  10.515   7.705  10.170  0.0504  0.4186  0.2502
  270MOL0     C36364  10.419   7.614  10.126  0.8624  0.4799  0.2838
  270MOL0     N36365   9.913   7.244   9.772 -0.0738 -0.4286 -0.1354
  270MOL0     N36366   9.872   7.307   9.668 -0.1359 -1.0792  0.0076
  270MOL0     C36367   9.649   7.658   8.865  0.2111  0.1443 -0.6428
  270MOL0     C36368   9.512   7.671   8.890  0.0606 -0.3471  0.1518
  270MOL0     C36369   9.107   7.854   8.816 -0.3400 -0.1097  0.9511
  270MOL0     C36370   9.062   7.809   8.937  0.4388 -0.0373 -0.6362
  270MOL0     C36371   8.934   7.811   8.975  0.4891  0.1110  0.7671
  270MOL0     C36372   8.842   7.885   8.901 -0.3703 -0.0229 -0.2019
  270MOL0     O36373   8.713   7.885   8.929  0.4716  0.3786  0.0463
  270MOL0     C36374   8.672   7.867   9.062 -0.2506  0.7494 -0.3412
  270MOL0     C36375   8.530   7.902   9.095  0.3381 -0.2236 -0.2485
  270MOL0     C36376   8.429   7.797   9.050  0.4691 -0.0813  0.2866
  270MOL0     C36377   8.277   7.831   9.078 -0.3161  0.0887  0.4290
  270MOL0     C36378   8.244   7.891   9.210  0.2245 -0.4125 -0.1194
  270MOL0     C36379   8.252   7.949   9.319  0.4492 -0.1817 -0.1233
  270MOL0     C36380   8.892   7.954   8.790 -0.4477  0.1428 -0.5297
  270MOL0     C36381   9.021   7.942   8.741  0.3143  0.8749  0.4131
  270MOL0     C36382   9.053   8.017   8.617  0.9162 -0.4636  0.0082
  270MOL0     H36383   9.392   7.670   8.582 -2.0656 -2.8650  3.2853
  270MOL0     H36384   9.648   7.669   8.528  2.2666  2.5316  0.2917
  270MOL0     H36385   9.812   7.437   8.778 -1.0785  1.2723 -1.3638
  270MOL0     H36386   9.871   7.466   8.611  0.3993  0.2052  0.3837
  270MOL0     H36387  10.062   7.588   8.732 -1.7846  0.0681 -0.7814
  270MOL0     H36388  10.060   7.415   8.733  1.6698  1.1077 -0.9258
  270MOL0     H36389   9.942   7.404   8.961  3.2283 -2.0086 -0.2115
  270MOL0     H36390   9.952   7.583   8.969  1.0718  2.1447 -3.0866
  270MOL0     H36391  10.159   7.371   9.002  1.0868 -0.7150  4.2212
  270MOL0     H36392  10.204   7.539   8.965 -0.6839 -1.6605 -0.5244
  270MOL0     H36393  10.235   7.471   9.187  0.4764  1.2504  0.2116
  270MOL0     H36394  10.120   7.601   9.174  1.2944  1.2683 -3.8928
  270MOL0     H36395   9.930   7.443   9.225 -0.1565 -0.5098  0.2534
  270MOL0     H36396  10.057   7.312   9.193 -0.5637  0.3320 -0.3448
  270MOL0     H36397  10.040   7.502   9.432  1.3295  0.1272 -0.6281
  270MOL0     H36398  10.151   7.364   9.408 -1.3533 -3.8774  2.2719
  270MOL0     H36399   9.857   7.391   9.432  1.5574  2.7629 -3.8801
  270MOL0     H36400   9.924   7.234   9.364  4.0297  1.3145 -0.7073
  270MOL0     H36401  10.139   7.160   9.555  0.2762 -0.4752  0.8252
  270MOL0     H36402  10.116   7.006   9.827 -1.7175  0.8208  0.6960
  270MOL0     H36403  10.236   7.141   9.779 -1.7867  2.3742 -3.0107
  270MOL0     H36404  10.045   7.143  10.016 -0.2659  0.6684 -2.3817
  270MOL0     H36405  10.215   7.115  10.031  0.6047 -1.3127 -2.6433
  270MOL0     H36406  10.131   7.334  10.105  0.1683  1.4567  0.7949
  270MOL0     H36407  10.093   7.374   9.935 -1.3106 -1.5302 -0.5950
  270MOL0     H36408  10.301   7.468   9.937  1.2010 -0.2338 -0.0976
  270MOL0     H36409  10.381   7.308   9.948  3.4256  4.0023 -1.4980
  270MOL0     H36410  10.535   7.336  10.278 -1.6525 -2.0543 -5.1008
  270MOL0     H36411  10.698   7.517  10.386  1.0141  0.4295 -1.3868
  270MOL0     H36412  10.910   7.960  10.331  1.3676 -2.1269 -1.4537
  270MOL0     H36413  11.043   8.104  10.473 -0.2072  2.3069  2.6566
  270MOL0     H36414  10.957   8.274  10.616  0.8488 -3.9511 -0.4103
  270MOL0     H36415  10.858   8.236  10.755  0.0707  1.3183  1.1939
  270MOL0     H36416  11.133   8.361  10.775 -0.7411  0.7552 -0.7668
  270MOL0     H36417  10.996   8.457  10.756  1.8900 -0.6605 -2.7759
  270MOL0     H36418  10.912   8.318  10.991  0.7489 -2.3380 -1.3874
  270MOL0     H36419  11.077   8.272  10.985  0.7712  1.0292  0.8447
  270MOL0     H36420  10.994   8.569  10.976  1.4846  0.9399  0.8956
  270MOL0     H36421  11.152   8.492  11.015  0.9263  1.5373  1.2274
  270MOL0     H36422  11.061   8.416  11.234 -1.8232 -0.0650  0.9365
  270MOL0     H36423  10.903   8.468  11.175  0.4522 -0.1187 -2.5586
  270MOL0     H36424  11.167   8.614  11.226  0.2310  0.4804  0.3881
  270MOL0     H36425  11.050   8.693  11.133 -0.7639 -2.2441 -2.2121
  270MOL0     H36426  11.073   8.742  11.385 -2.8352  3.3043 -3.3304
  270MOL0     H36427  11.030   8.581  11.430 -1.8886 -0.7165 -1.0555
  270MOL0     H36428  10.798   8.610  11.372  0.5777 -0.3188  1.6779
  270MOL0     H36429  10.848   8.759  11.462  0.5564  0.9011 -0.6789
  270MOL0     H36430  10.913   7.896  10.827 -0.4867 -0.0787 -0.2406
  270MOL0     H36431  10.782   7.754  10.679 -3.7947  2.1232 -2.2241
  270MOL0     H36432  10.526   7.801  10.120  1.1078 -0.3457 -1.0621
  270MOL0     H36433  10.345   7.645  10.053  0.3716 -0.0874  0.5274
  270MOL0     H36434   9.711   7.660   8.954  0.1921  0.5917 -0.6396
  270MOL0     H36435   9.468   7.669   8.990 -2.0754  1.4465 -0.6718
  270MOL0     H36436   9.132   7.768   9.009  1.0364 -0.4049 -1.4197
  270MOL0     H36437   8.906   7.750   9.060 -2.8295 -1.1244 -1.0278
  270MOL0     H36438   8.744   7.918   9.128  1.8810 -0.7662 -1.3744
  270MOL0     H36439   8.669   7.767   9.106 -0.9194 -0.1237 -2.2888
  270MOL0     H36440   8.509   7.994   9.039 -0.0633 -0.1790 -0.0326
  270MOL0     H36441   8.512   7.932   9.199 -1.9804  0.6241 -0.8258
  270MOL0     H36442   8.457   7.705   9.101  0.0660  0.2211  1.0785
  270MOL0     H36443   8.435   7.763   8.946 -2.6962 -2.5927  0.7868
  270MOL0     H36444   8.246   7.893   8.993 -1.5028 -0.5725  0.3656
  270MOL0     H36445   8.227   7.734   9.069  1.7889 -1.5647  4.1850
  270MOL0     H36446   8.273   7.998   9.411  1.3708 -0.9665  0.1036
  270MOL0     H36447   8.831   8.029   8.741  0.9629  0.3548 -2.0946
  270MOL0     H36448   8.969   8.013   8.547  1.1613  0.4498 -0.3487
  270MOL0     H36449   9.066   8.122   8.646 -0.4162 -0.2302 -0.1865
  270MOL0     H36450   9.135   7.969   8.562  0.5410 -0.7599 -0.3015
  271MOL0     O36451  10.821   2.978   0.532 -0.3350 -1.2741 -0.0724
  271MOL0     C36452  10.758   2.962   0.423 -1.1582 -0.8078 -0.9290
  271MOL0     O36453  10.668   3.043   0.360 -0.1340 -0.1301  0.2926
  271MOL0     C36454  10.620   3.148   0.434  1.1766  0.2099  0.1532
  271MOL0     C36455  10.593   3.268   0.362 -0.1680  0.6498  0.9729
  271MOL0     C36456  10.523   3.378   0.421 -0.0975 -0.3715  0.7035
  271MOL0     C36457  10.489   3.364   0.559  0.0357  0.1579  0.8058
  271MOL0     O36458  10.434   3.477   0.617  0.5978  0.7394  0.4886
  271MOL0     C36459  10.469   3.493   0.760  0.4136  1.3836  0.6572
  271MOL0     C36460  10.455   3.643   0.802  0.4847  0.4635  0.2114
  271MOL0     C36461  10.591   3.708   0.767  0.8416 -0.4510 -0.1887
  271MOL0     C36462  10.570   3.860   0.783 -0.0052 -0.3764 -0.1622
  271MOL0     C36463  10.696   3.938   0.739  0.1624 -0.2229 -0.3106
  271MOL0     C36464  10.662   4.083   0.712  0.1109 -0.4872 -0.3628
  271MOL0     C36465  10.773   4.161   0.653  0.3253 -0.3665  0.0550
  271MOL0     C36466  10.734   4.312   0.638  0.3846  0.4217 -0.3416
  271MOL0     N36467  10.855   4.402   0.632  0.0121  0.1501 -0.4150
  271MOL0     C36468  10.954   4.410   0.533 -0.0354  0.0551  0.1722
  271MOL0     C36469  11.016   4.522   0.565  0.0620  1.2080 -0.0463
  271MOL0     C36470  11.130   4.585   0.497  0.6253 -0.4435  0.3339
  271MOL0     C36471  11.265   4.517   0.541 -0.5377  0.0747 -0.0745
  271MOL0     C36472  11.382   4.588   0.475 -0.8482 -0.1407 -0.2458
  271MOL0     C36473  11.415   4.727   0.537 -0.5141  0.6342  0.4819
  271MOL0     O36474  11.481   4.698   0.655  0.2063  0.1560 -0.0313
  271MOL0     C36475  11.452   4.759   0.777 -0.0428 -0.1668  0.1946
  271MOL0     C36476  11.346   4.849   0.806  0.4377  0.5987 -0.3007
  271MOL0     C36477  11.322   4.891   0.943 -0.8650  0.1816  1.1870
  271MOL0     C36478  11.396   4.851   1.054 -0.2834 -0.1753  0.2894
  271MOL0     C36479  11.363   4.884   1.200  0.0945 -0.0974 -0.3019
  271MOL0     O36480  11.287   4.989   1.215  0.0145 -0.7348 -0.4996
  271MOL0     C36481  11.281   5.052   1.329  0.2598 -0.2205  0.0448
  271MOL0     C36482  11.394   5.096   1.410  0.6470  0.0382 -0.2811
  271MOL0     C36483  11.371   5.177   1.521  0.3563 -0.3125 -0.4527
  271MOL0     C36484  11.243   5.228   1.548  0.8517 -1.5841 -0.8906
  271MOL0     O36485  11.239   5.333   1.641  0.1103  0.1133 -0.5984
  271MOL0     C36486  11.125   5.415   1.636 -0.7612  0.2646  0.6362
  271MOL0     C36487  11.110   5.505   1.753  0.3264 -0.0311 -0.8337
  271MOL0     C36488  10.973   5.575   1.768  0.3248 -0.1743  0.3747
  271MOL0     C36489  10.980   5.723   1.699  0.7679  0.3467 -0.6482
  271MOL0     C36490  10.834   5.765   1.674 -1.1623  0.2847 -0.8000
  271MOL0     C36491  10.814   5.917   1.666 -0.6058  0.5850 -0.1823
  271MOL0     C36492  10.828   5.993   1.793  0.3595  0.2165 -0.4073
  271MOL0     C36493  10.760   6.130   1.781  0.3160 -0.1907  0.1625
  271MOL0    Cl36494  10.577   6.128   1.771  0.1978 -0.1775 -0.4004
  271MOL0     C36495  11.131   5.200   1.469 -0.3335  1.5526 -0.1631
  271MOL0     C36496  11.159   5.116   1.360 -0.1167 -0.1880  0.3507
  271MOL0     O36497  11.422   4.818   1.285  0.2289 -0.0516  1.0523
  271MOL0     C36498  11.509   4.769   1.022  0.0313 -0.2180 -0.1584
  271MOL0     C36499  11.538   4.727   0.890  0.3313  0.2071 -0.3731
  271MOL0     N36500  10.963   4.576   0.678  0.7028 -0.2031  0.0871
  271MOL0     N36501  10.862   4.507   0.722  0.2660  1.1955  0.1739
  271MOL0     C36502  10.512   3.250   0.619  0.3715 -1.2618  0.1182
  271MOL0     C36503  10.571   3.143   0.561  0.3156  0.2969 -1.0504
  271MOL0     C36504  10.798   2.835   0.351  0.0900  0.1814 -1.1805
  271MOL0     C36505  10.911   2.755   0.405 -0.6733 -0.5161 -0.1616
  271MOL0     C36506  10.949   2.641   0.336 -0.0411  0.3308  0.4222
  271MOL0     C36507  10.898   2.604   0.217  0.3046  0.4138  0.6666
  271MOL0     O36508  10.924   2.491   0.144 -0.7560  0.2244 -0.3571
  271MOL0     C36509  11.021   2.407   0.199 -0.5076  0.1178 -1.8529
  271MOL0     C36510  11.032   2.282   0.118 -0.0430  0.3890  0.0650
  271MOL0     C36511  11.139   2.180   0.168 -0.4267 -0.5393 -0.3067
  271MOL0     C36512  11.099   2.123   0.302 -0.2938  0.3009 -0.7283
  271MOL0     C36513  11.184   2.004   0.321 -0.4449  0.5310  0.9742
  271MOL0     C36514  11.251   1.898   0.338  0.0325 -0.3964  0.7516
  271MOL0     C36515  10.787   2.673   0.172 -0.0229 -0.7290  0.1602
  271MOL0     C36516  10.736   2.789   0.234 -1.1978  0.0698  0.5186
  271MOL0     C36517  10.608   2.848   0.182  0.8539 -0.6422  0.0104
  271MOL0     H36518  10.611   3.288   0.256 -1.8930  1.0392  0.7296
  271MOL0     H36519  10.496   3.462   0.358  0.5338 -1.8760 -1.7029
  271MOL0     H36520  10.393   3.430   0.808  2.5910 -1.5558  0.5005
  271MOL0     H36521  10.571   3.462   0.783  0.2797  0.8978  0.6039
  271MOL0     H36522  10.439   3.645   0.910  1.8965  1.1360  0.4242
  271MOL0     H36523  10.368   3.694   0.759 -0.3792  1.8476  3.3319
  271MOL0     H36524  10.617   3.696   0.661 -1.6069 -1.9565 -0.6874
  271MOL0     H36525  10.666   3.683   0.842  0.6777  1.7341  0.7892
  271MOL0     H36526  10.491   3.889   0.713  2.7219  1.7126 -2.6594
  271MOL0     H36527  10.544   3.873   0.888  0.9772  1.6534 -0.1110
  271MOL0     H36528  10.763   3.951   0.825  0.0007  2.2660 -0.4872
  271MOL0     H36529  10.758   3.890   0.662 -0.2473  0.1244 -0.8668
  271MOL0     H36530  10.570   4.081   0.653 -2.2420  1.6390  2.8710
  271MOL0     H36531  10.641   4.132   0.807  0.5888 -2.2832  0.7045
  271MOL0     H36532  10.777   4.127   0.550  0.7659 -2.6945  0.7884
  271MOL0     H36533  10.864   4.155   0.714 -0.3322 -1.0442  1.0122
  271MOL0     H36534  10.668   4.323   0.551  2.4037 -0.5132 -2.0667
  271MOL0     H36535  10.665   4.342   0.718  1.1199  0.5248  0.2687
  271MOL0     H36536  10.967   4.338   0.453 -0.1414  0.7680 -0.4987
  271MOL0     H36537  11.120   4.582   0.388 -1.0463 -1.1111  0.4800
  271MOL0     H36538  11.137   4.694   0.511  2.8591 -0.4040 -0.6487
  271MOL0     H36539  11.272   4.508   0.649 -1.9105 -1.5480 -0.0874
  271MOL0     H36540  11.255   4.415   0.503 -1.2141 -0.7593  2.1891
  271MOL0     H36541  11.372   4.602   0.367  1.8019  1.1789 -0.4022
  271MOL0     H36542  11.469   4.522   0.483  0.1394  0.6696 -2.9451
  271MOL0     H36543  11.327   4.785   0.566  1.4020  5.2629 -1.9426
  271MOL0     H36544  11.476   4.779   0.463  1.7537 -2.0206  0.3198
  271MOL0     H36545  11.285   4.900   0.731 -3.3333 -2.5557  0.2675
  271MOL0     H36546  11.237   4.957   0.959  0.3120  1.4873  2.4589
  271MOL0     H36547  11.493   5.075   1.371  0.8163 -0.3520  0.3535
  271MOL0     H36548  11.454   5.212   1.582  0.8162  0.0330 -1.2654
  271MOL0     H36549  11.129   5.475   1.544 -0.8263 -0.7635 -0.0636
  271MOL0     H36550  11.033   5.356   1.642 -3.7445  4.5612  2.2426
  271MOL0     H36551  11.124   5.447   1.845 -1.2129 -0.3982 -0.8094
  271MOL0     H36552  11.178   5.590   1.744 -2.9788  2.9158 -0.3071
  271MOL0     H36553  10.884   5.517   1.740  0.9021 -2.1418  2.2918
  271MOL0     H36554  10.948   5.590   1.874 -2.2363  0.8195 -0.2862
  271MOL0     H36555  11.028   5.729   1.601 -0.4642  5.7479 -1.2576
  271MOL0     H36556  11.021   5.796   1.769 -0.3609 -0.1054  0.5244
  271MOL0     H36557  10.776   5.738   1.762 -2.2888 -1.5136 -2.0227
  271MOL0     H36558  10.784   5.708   1.596 -2.3985  3.0648 -2.1999
  271MOL0     H36559  10.879   5.968   1.595  1.9493 -0.5019  1.2507
  271MOL0     H36560  10.712   5.929   1.628 -0.9738  0.6593  0.7938
  271MOL0     H36561  10.933   6.006   1.820  0.1946  0.4704  0.1282
  271MOL0     H36562  10.788   5.953   1.887 -2.3533  2.2423 -0.5900
  271MOL0     H36563  10.785   6.191   1.869  2.3247 -3.3233  1.9506
  271MOL0     H36564  10.796   6.192   1.698 -1.0810  4.4994  2.6437
  271MOL0     H36565  11.028   5.231   1.480 -0.6745 -0.0922  1.6886
  271MOL0     H36566  11.087   5.097   1.280 -0.0467  0.5960  0.0917
  271MOL0     H36567  11.577   4.742   1.102  0.1519  1.7245  0.4485
  271MOL0     H36568  11.625   4.667   0.865  1.4172  0.1420  2.9904
  271MOL0     H36569  10.463   3.237   0.715 -0.4680 -0.0342 -0.1163
  271MOL0     H36570  10.582   3.048   0.611 -2.9644 -1.8000 -3.8539
  271MOL0     H36571  10.958   2.779   0.500 -0.7732 -1.6346  0.1794
  271MOL0     H36572  11.021   2.569   0.374 -2.3163 -1.3666  1.8254
  271MOL0     H36573  11.001   2.387   0.305  1.2139 -1.9200 -1.8494
  271MOL0     H36574  11.119   2.457   0.195 -1.3738  2.1455  0.1284
  271MOL0     H36575  11.060   2.311   0.016  2.4775 -2.2250 -0.1365
  271MOL0     H36576  10.936   2.229   0.112  1.3789 -2.4409  0.2424
  271MOL0     H36577  11.231   2.240   0.165 -1.2184  0.7086 -0.6002
  271MOL0     H36578  11.138   2.103   0.091  2.9056  0.6682 -1.7395
  271MOL0     H36579  11.109   2.199   0.380  0.0632  0.2641 -0.7345
  271MOL0     H36580  10.992   2.102   0.313 -0.2616  1.1428  1.8952
  271MOL0     H36581  11.287   1.797   0.346 -3.1011 -2.0419 -2.9295
  271MOL0     H36582  10.749   2.649   0.073 -1.1110  0.8289  0.1616
  271MOL0     H36583  10.617   2.950   0.142 -4.1584  0.5274  1.2134
  271MOL0     H36584  10.568   2.791   0.098  0.2425 -3.6701  2.1945
  271MOL0     H36585  10.530   2.851   0.259  1.4503  0.0852  0.6059
  272MOL0     O36586   3.908   5.903   6.375 -0.4484 -0.0854  0.0638
  272MOL0     C36587   3.827   5.952   6.455 -0.2946 -0.8193  0.1852
  272MOL0     O36588   3.691   5.922   6.464  0.5291 -0.2240 -0.3200
  272MOL0     C36589   3.627   5.843   6.369  0.3756 -0.1005 -1.4486
  272MOL0     C36590   3.670   5.731   6.318 -0.1870  0.7049  0.1241
  272MOL0     C36591   3.600   5.656   6.223 -0.7870 -0.1556  0.3201
  272MOL0     C36592   3.474   5.701   6.191  0.6467  1.3779  0.6450
  272MOL0     O36593   3.395   5.646   6.094  0.3337  0.9857 -0.2480
  272MOL0     C36594   3.448   5.548   6.002  0.0601 -0.6262  0.4024
  272MOL0     C36595   3.320   5.493   5.934 -0.6671  0.3426  0.1849
  272MOL0     C36596   3.362   5.396   5.819  1.2180 -0.6040 -0.4405
  272MOL0     C36597   3.246   5.370   5.727  0.3937 -0.3848  0.7158
  272MOL0     C36598   3.303   5.300   5.601 -1.5679  1.1649  0.9578
  272MOL0     C36599   3.357   5.157   5.624  0.5883 -0.5542 -0.3632
  272MOL0     C36600   3.414   5.094   5.501  0.2069 -0.1667  0.0254
  272MOL0     C36601   3.471   4.955   5.540 -0.2156 -0.0107  0.7133
  272MOL0     N36602   3.520   4.881   5.433  0.2393 -0.1904 -0.1249
  272MOL0     C36603   3.658   4.872   5.405 -0.8855  0.2892 -0.2527
  272MOL0     C36604   3.663   4.781   5.300 -0.1253 -0.3267 -0.1984
  272MOL0     C36605   3.795   4.720   5.235  0.3866  0.5612  0.3108
  272MOL0     C36606   3.871   4.645   5.340  0.9225 -0.1026 -0.2095
  272MOL0     C36607   3.817   4.504   5.377 -0.6462  0.1008  0.1968
  272MOL0     C36608   3.673   4.486   5.417  0.7130  0.4414 -1.3509
  272MOL0     O36609   3.676   4.354   5.484  0.1500  0.0032  0.1223
  272MOL0     C36610   3.556   4.279   5.461 -0.8779  0.2305  0.4825
  272MOL0     C36611   3.543   4.222   5.334 -0.3084  0.4010  0.6657
  272MOL0     C36612   3.429   4.163   5.311  0.1007 -0.0091 -0.4610
  272MOL0     C36613   3.314   4.168   5.391  0.5722 -0.2174 -0.6970
  272MOL0     C36614   3.198   4.087   5.350 -0.0861 -0.0315 -0.5798
  272MOL0     O36615   3.096   4.078   5.440  0.0397 -0.3884 -0.1433
  272MOL0     C36616   3.014   3.970   5.448 -0.0536 -0.6619 -0.2625
  272MOL0     C36617   2.890   4.008   5.506  0.8766  0.6651  0.1326
  272MOL0     C36618   2.791   3.902   5.505 -1.2839 -0.2427  0.0135
  272MOL0     C36619   2.819   3.787   5.443  0.7539  1.0489  0.8236
  272MOL0     O36620   2.714   3.697   5.464 -0.4405  0.3438 -0.1904
  272MOL0     C36621   2.710   3.581   5.387 -0.7120 -0.7464  0.5516
  272MOL0     C36622   2.585   3.501   5.392  0.8034 -0.5050 -0.4566
  272MOL0     C36623   2.607   3.370   5.310  0.2041 -0.1167 -0.2743
  272MOL0     C36624   2.464   3.315   5.286  0.0105 -0.0156 -1.1546
  272MOL0     C36625   2.484   3.188   5.201  0.3727 -0.0655  0.3466
  272MOL0     C36626   2.490   3.060   5.288 -0.0128 -0.5665  0.9807
  272MOL0     C36627   2.501   2.937   5.184 -0.3820 -0.2887 -0.6242
  272MOL0     C36628   2.503   2.807   5.262  0.2418 -0.2821 -0.3643
  272MOL0    Cl36629   2.642   2.791   5.379 -0.6168 -0.1720 -0.2028
  272MOL0     C36630   2.944   3.757   5.391  0.1210  0.5149  0.1271
  272MOL0     C36631   3.042   3.847   5.400 -0.5616  0.4596  0.2304
  272MOL0     O36632   3.191   4.037   5.231 -1.0012  0.1990 -0.2931
  272MOL0     C36633   3.323   4.239   5.521  0.0361  0.1272  0.7719
  272MOL0     C36634   3.452   4.273   5.561 -1.1832 -0.6573 -0.4180
  272MOL0     N36635   3.530   4.743   5.282 -0.4733  0.3012 -0.8421
  272MOL0     N36636   3.447   4.799   5.357  0.2549  1.0717  0.2477
  272MOL0     C36637   3.425   5.815   6.251 -0.1569  0.0089  0.0718
  272MOL0     C36638   3.492   5.891   6.339  0.0766 -0.1068  0.0763
  272MOL0     C36639   3.876   6.045   6.564  0.8820 -0.5055  0.8355
  272MOL0     C36640   3.806   6.043   6.685 -0.6388  0.3965  0.0825
  272MOL0     C36641   3.840   6.114   6.800  0.2187 -0.1915  0.3835
  272MOL0     C36642   3.945   6.204   6.796  0.4202 -0.1897  0.4979
  272MOL0     O36643   3.978   6.277   6.905  0.7431  0.4048 -0.2722
  272MOL0     C36644   4.038   6.204   7.017  0.5543  0.6455 -0.4831
  272MOL0     C36645   4.153   6.292   7.095 -0.0922 -0.5436  0.7339
  272MOL0     C36646   4.275   6.317   7.007  0.1766  0.1052 -0.4861
  272MOL0     C36647   4.370   6.411   7.077  0.8689  0.1879 -0.3415
  272MOL0     C36648   4.469   6.483   6.997  0.7159  0.6400 -0.1097
  272MOL0     C36649   4.552   6.551   6.940 -0.7134 -0.1583  0.2539
  272MOL0     C36650   4.019   6.210   6.681 -0.9776 -0.3453 -0.4573
  272MOL0     C36651   3.989   6.133   6.568 -0.6215 -0.7335 -0.9603
  272MOL0     C36652   4.074   6.162   6.441  0.2624 -0.0984  0.0868
  272MOL0     H36653   3.756   5.689   6.368 -0.1609  3.1769  2.3489
  272MOL0     H36654   3.642   5.565   6.181 -0.3332  0.5950 -0.9287
  272MOL0     H36655   3.531   5.589   5.944 -0.8555  2.5159  1.1524
  272MOL0     H36656   3.502   5.471   6.058  0.0796  1.8128  4.0511
  272MOL0     H36657   3.265   5.578   5.892  0.2560  0.8569  0.0038
  272MOL0     H36658   3.252   5.432   5.995 -1.1764 -2.1349 -2.6084
  272MOL0     H36659   3.395   5.299   5.858 -0.1285 -0.1064  2.1321
  272MOL0     H36660   3.436   5.443   5.754 -0.3246 -0.1803 -1.9566
  272MOL0     H36661   3.174   5.313   5.786  0.6479  0.3214  1.7300
  272MOL0     H36662   3.208   5.468   5.698  2.8887 -0.2902 -2.9778
  272MOL0     H36663   3.223   5.285   5.527 -1.2636 -2.7515  1.1993
  272MOL0     H36664   3.378   5.360   5.548 -1.9904  0.0039 -1.1162
  272MOL0     H36665   3.431   5.162   5.705 -0.3493 -2.5779  0.6859
  272MOL0     H36666   3.274   5.102   5.669 -0.1749  2.5994  2.5768
  272MOL0     H36667   3.478   5.171   5.457  1.5775 -0.6018  1.1785
  272MOL0     H36668   3.326   5.093   5.436  0.0090  1.6234  0.1984
  272MOL0     H36669   3.556   4.960   5.608 -0.0600 -0.1818  0.5293
  272MOL0     H36670   3.395   4.899   5.596  1.5001 -3.2846  0.0365
  272MOL0     H36671   3.733   4.917   5.470 -1.1080 -0.5523  0.6196
  272MOL0     H36672   3.776   4.649   5.155 -1.2991 -0.1083  1.2454
  272MOL0     H36673   3.851   4.792   5.175  2.2018 -3.0212 -2.6192
  272MOL0     H36674   3.973   4.634   5.303  1.1322  1.8969 -0.3077
  272MOL0     H36675   3.874   4.711   5.427  4.4001 -0.1920 -0.1050
  272MOL0     H36676   3.865   4.475   5.471 -3.0701  1.0843  1.8280
  272MOL0     H36677   3.832   4.429   5.299 -0.6869 -0.4036  0.6649
  272MOL0     H36678   3.605   4.501   5.332  0.8641  2.1814 -1.2111
  272MOL0     H36679   3.650   4.556   5.499 -0.4518 -1.8332  0.3780
  272MOL0     H36680   3.620   4.233   5.259  0.6655 -1.6468  1.2956
  272MOL0     H36681   3.429   4.109   5.217 -0.0783 -0.5825 -0.1320
  272MOL0     H36682   2.872   4.099   5.564  0.1385  1.0782 -0.7128
  272MOL0     H36683   2.693   3.922   5.546 -0.6051 -0.6406  1.8965
  272MOL0     H36684   2.728   3.621   5.287 -2.5208  2.2713  1.3205
  272MOL0     H36685   2.799   3.519   5.405  1.2562  1.7063 -0.1628
  272MOL0     H36686   2.564   3.480   5.497  0.3164  0.9096 -0.2428
  272MOL0     H36687   2.501   3.562   5.357  0.3805  0.2461  1.7065
  272MOL0     H36688   2.673   3.392   5.226  2.4816  0.7487  1.6311
  272MOL0     H36689   2.657   3.294   5.371 -0.7562  0.0738  0.7866
  272MOL0     H36690   2.393   3.391   5.253 -1.0992 -0.7000 -0.4049
  272MOL0     H36691   2.430   3.300   5.389 -1.5440  2.1035 -1.3034
  272MOL0     H36692   2.574   3.199   5.141 -0.5246 -0.2995 -1.0823
  272MOL0     H36693   2.397   3.175   5.136  1.3153 -1.8499 -0.6417
  272MOL0     H36694   2.581   3.062   5.349  0.3359 -1.0353  0.4778
  272MOL0     H36695   2.410   3.060   5.363  3.1145  2.6760  4.8030
  272MOL0     H36696   2.573   2.947   5.102 -2.6641 -1.2472 -2.8897
  272MOL0     H36697   2.408   2.927   5.126 -1.8643  1.0201  1.3885
  272MOL0     H36698   2.406   2.798   5.312  0.6282  2.2324  1.0138
  272MOL0     H36699   2.520   2.725   5.191 -0.0128  1.6462 -2.7821
  272MOL0     H36700   2.966   3.662   5.341 -1.8869  0.6015 -1.0119
  272MOL0     H36701   3.139   3.823   5.358  0.4026  1.9071  1.5488
  272MOL0     H36702   3.237   4.252   5.585  0.4633  2.2822  0.9789
  272MOL0     H36703   3.481   4.309   5.659  1.6085  3.0207 -2.3408
  272MOL0     H36704   3.321   5.839   6.232 -0.4495  0.1705  1.7841
  272MOL0     H36705   3.442   5.980   6.374 -0.3786  0.1260 -1.1009
  272MOL0     H36706   3.716   5.983   6.698  2.3810 -4.2986  2.5010
  272MOL0     H36707   3.786   6.093   6.891  0.4013 -6.0120 -0.4759
  272MOL0     H36708   4.070   6.106   6.980 -1.4673 -1.9072  3.7184
  272MOL0     H36709   3.964   6.184   7.095 -1.2816  1.8311 -1.8351
  272MOL0     H36710   4.181   6.229   7.180  1.0481 -0.2109  0.6113
  272MOL0     H36711   4.106   6.382   7.135  0.1167 -0.5255  0.9388
  272MOL0     H36712   4.244   6.360   6.912  3.1768 -1.6560 -2.4193
  272MOL0     H36713   4.324   6.222   6.986  1.7016  1.0091 -1.2422
  272MOL0     H36714   4.311   6.483   7.135  1.3976  1.1478 -0.9592
  272MOL0     H36715   4.426   6.349   7.148 -0.1386  2.2868  2.4946
  272MOL0     H36716   4.639   6.601   6.902  1.0666 -2.0808  1.5654
  272MOL0     H36717   4.097   6.285   6.676 -1.1605 -0.0675  0.7229
  272MOL0     H36718   4.156   6.232   6.457  0.9141 -1.0836  1.2580
  272MOL0     H36719   4.125   6.071   6.406  5.5298  2.1074  1.0738
  272MOL0     H36720   4.006   6.202   6.365 -1.2481 -1.3028  0.7489
  273MOL0     O36721   8.072   4.772   2.313 -0.1355  0.1409 -0.9104
  273MOL0     C36722   8.146   4.872   2.347  0.7770  0.5276  0.5538
  273MOL0     O36723   8.112   4.960   2.444 -0.0549 -0.1380 -0.9534
  273MOL0     C36724   7.975   4.973   2.471 -0.3105  0.6410 -0.3429
  273MOL0     C36725   7.934   5.016   2.593  0.0893  0.8518 -0.6766
  273MOL0     C36726   7.793   5.035   2.614  0.3479  0.7075  0.2261
  273MOL0     C36727   7.706   4.996   2.521  0.8580 -0.5757 -1.1943
  273MOL0     O36728   7.574   4.984   2.553  0.2788 -0.0495  0.3117
  273MOL0     C36729   7.487   5.005   2.442 -0.7451 -0.5954 -0.1259
  273MOL0     C36730   7.355   5.071   2.495  0.5831 -0.5343 -0.4236
  273MOL0     C36731   7.369   5.212   2.561 -0.7370 -0.7907 -0.4271
  273MOL0     C36732   7.407   5.322   2.454  0.5529 -0.6466 -0.5294
  273MOL0     C36733   7.496   5.435   2.514 -0.3427  0.7386 -0.7097
  273MOL0     C36734   7.516   5.534   2.409  0.3465  0.3758 -0.0602
  273MOL0     C36735   7.586   5.655   2.468 -1.3082 -0.2384  0.2934
  273MOL0     C36736   7.653   5.746   2.363 -0.1052 -0.2105  0.7487
  273MOL0     N36737   7.679   5.883   2.391 -0.0891  0.4055  0.8654
  273MOL0     C36738   7.696   5.973   2.292  0.0850  0.1360  0.4193
  273MOL0     C36739   7.722   6.089   2.355 -0.8604 -0.4814  0.1740
  273MOL0     C36740   7.793   6.206   2.296  0.3720  0.2474 -0.3856
  273MOL0     C36741   7.941   6.168   2.251 -0.1443 -0.0451 -0.6783
  273MOL0     C36742   7.991   6.247   2.134 -1.6733 -0.4022  0.4115
  273MOL0     C36743   7.918   6.206   2.003 -0.3354  0.2139  0.2905
  273MOL0     O36744   7.928   6.068   1.988 -0.4074  0.2751 -0.1540
  273MOL0     C36745   7.859   6.000   1.901  0.7757 -0.7120  0.3195
  273MOL0     C36746   7.780   6.053   1.801 -0.1109 -0.7531 -0.5904
  273MOL0     C36747   7.701   5.967   1.727 -0.9921  0.2199  0.0028
  273MOL0     C36748   7.699   5.831   1.737 -0.1277  0.3831 -0.4031
  273MOL0     C36749   7.608   5.754   1.655 -0.4841 -0.0791 -0.8175
  273MOL0     O36750   7.627   5.621   1.671  0.2316 -0.1189  0.6722
  273MOL0     C36751   7.575   5.528   1.593  0.0588  0.0085 -0.0728
  273MOL0     C36752   7.490   5.442   1.656 -0.8869 -0.2716  0.1748
  273MOL0     C36753   7.430   5.341   1.584  0.5829  0.5488 -0.0091
  273MOL0     C36754   7.462   5.323   1.451 -0.4891  0.8809  0.9912
  273MOL0     O36755   7.393   5.215   1.400  0.4009 -0.5292  0.1693
  273MOL0     C36756   7.464   5.127   1.305 -0.8270 -0.8658  0.5338
  273MOL0     C36757   7.381   4.993   1.316  0.2008 -0.0162  0.2469
  273MOL0     C36758   7.450   4.887   1.379 -0.0478  0.9655 -0.3460
  273MOL0     C36759   7.481   4.915   1.527  0.8778 -0.3340 -0.7305
  273MOL0     C36760   7.598   4.842   1.587  0.0934  0.0371  0.8044
  273MOL0     C36761   7.726   4.918   1.550  0.2996 -0.8650  0.6633
  273MOL0     C36762   7.864   4.838   1.539  0.3410  0.5833  0.3513
  273MOL0     C36763   7.905   4.790   1.681 -0.5586 -0.0532  0.9758
  273MOL0    Cl36764   8.052   4.689   1.668  0.2835  0.1945 -0.1247
  273MOL0     C36765   7.553   5.402   1.379 -0.1577 -0.6138  0.1805
  273MOL0     C36766   7.599   5.511   1.449 -0.3321  0.3521  0.0816
  273MOL0     O36767   7.524   5.802   1.583 -0.0473 -0.8751 -0.1292
  273MOL0     C36768   7.787   5.776   1.831  0.6988  0.2791  0.5105
  273MOL0     C36769   7.869   5.855   1.912 -0.0683  0.4865  0.1817
  273MOL0     N36770   7.743   6.065   2.499  0.1147  0.5114 -0.1557
  273MOL0     N36771   7.700   5.942   2.510  0.1583 -0.3572 -0.6591
  273MOL0     C36772   7.743   4.934   2.399 -0.6073 -0.6490  0.3447
  273MOL0     C36773   7.877   4.951   2.372  0.0165 -0.1179 -0.5616
  273MOL0     C36774   8.279   4.871   2.276 -0.0122 -0.3967  0.9662
  273MOL0     C36775   8.388   4.853   2.350 -1.2457 -0.3841 -1.1882
  273MOL0     C36776   8.515   4.852   2.277 -0.4083 -0.2333  0.5492
  273MOL0     C36777   8.516   4.871   2.140 -0.9650 -1.0674 -1.9216
  273MOL0     O36778   8.641   4.873   2.082 -0.1227  0.1408 -0.6429
  273MOL0     C36779   8.676   4.913   1.948 -0.1844  0.8085  0.2645
  273MOL0     C36780   8.692   4.801   1.841 -0.2187 -0.1960 -0.0799
  273MOL0     C36781   8.823   4.723   1.856  1.0198  0.8179 -0.5560
  273MOL0     C36782   8.823   4.605   1.748  0.9365 -0.3651 -0.2732
  273MOL0     C36783   8.797   4.650   1.611  0.2475  0.2573  0.4800
  273MOL0     C36784   8.778   4.680   1.493 -0.4785  0.4953 -0.1452
  273MOL0     C36785   8.407   4.866   2.070  1.1875 -0.3615 -0.1534
  273MOL0     C36786   8.283   4.879   2.131  0.3561  0.5132 -0.2899
  273MOL0     C36787   8.160   4.892   2.048  1.1369 -0.1162  0.7053
  273MOL0     H36788   8.005   5.035   2.673 -2.2108 -3.1835  2.7398
  273MOL0     H36789   7.755   5.059   2.712  1.6864  1.5443  0.5571
  273MOL0     H36790   7.529   5.082   2.376 -1.1829  0.9445  1.3557
  273MOL0     H36791   7.470   4.913   2.385  1.6617  1.7444 -5.3804
  273MOL0     H36792   7.313   4.993   2.558 -0.4258 -1.2304 -1.9152
  273MOL0     H36793   7.276   5.076   2.419 -1.7283 -1.6701  1.7843
  273MOL0     H36794   7.447   5.204   2.638  0.7725  2.6735 -1.3732
  273MOL0     H36795   7.275   5.244   2.606 -0.7355  0.4736 -1.2494
  273MOL0     H36796   7.478   5.284   2.380  4.6479  2.9136  1.1130
  273MOL0     H36797   7.315   5.367   2.415  0.8051  1.5506  1.1794
  273MOL0     H36798   7.435   5.475   2.596 -0.4107 -1.0212  0.1260
  273MOL0     H36799   7.591   5.397   2.551 -0.6852  1.1284  0.6294
  273MOL0     H36800   7.576   5.497   2.326  0.9261 -0.2200  0.6081
  273MOL0     H36801   7.413   5.553   2.375  0.1614 -2.4929 -1.4866
  273MOL0     H36802   7.666   5.625   2.536  0.3736 -0.5799 -1.7210
  273MOL0     H36803   7.520   5.713   2.534  3.7944  4.1312  2.3433
  273MOL0     H36804   7.744   5.694   2.330  0.6029  0.5125  1.5070
  273MOL0     H36805   7.583   5.752   2.279 -1.1233  0.1182  1.6003
  273MOL0     H36806   7.700   5.952   2.186 -4.1220 -1.6739  0.4336
  273MOL0     H36807   7.736   6.245   2.212  1.0343  0.0323 -0.9444
  273MOL0     H36808   7.800   6.291   2.364 -1.2511  0.6126 -0.6279
  273MOL0     H36809   8.018   6.187   2.327 -0.2578 -0.4458 -0.4582
  273MOL0     H36810   7.946   6.061   2.226 -0.9648 -0.3017  0.1623
  273MOL0     H36811   8.100   6.234   2.124 -1.1570  3.2675 -0.0306
  273MOL0     H36812   7.969   6.353   2.143 -0.4675  0.0627 -1.3808
  273MOL0     H36813   7.973   6.256   1.923  4.6594 -1.7050  2.0790
  273MOL0     H36814   7.816   6.244   2.002 -1.1557 -1.7665 -2.8048
  273MOL0     H36815   7.768   6.155   1.768 -0.1823 -1.3255 -2.4491
  273MOL0     H36816   7.628   6.023   1.669 -2.4073 -2.5200 -1.0276
  273MOL0     H36817   7.479   5.436   1.764  2.6487 -0.3010  0.6315
  273MOL0     H36818   7.365   5.271   1.635  3.4907  0.1428  3.5716
  273MOL0     H36819   7.475   5.177   1.208  0.6876  2.7171  2.3512
  273MOL0     H36820   7.569   5.110   1.334  0.0173  1.1495 -1.1163
  273MOL0     H36821   7.300   5.033   1.377  2.9344  2.0499  2.8779
  273MOL0     H36822   7.338   4.967   1.219 -0.5713  5.3270 -1.1496
  273MOL0     H36823   7.395   4.793   1.373 -0.4370  1.2536 -1.5925
  273MOL0     H36824   7.546   4.881   1.328  0.9440  0.2468  1.5092
  273MOL0     H36825   7.402   4.884   1.596  2.1343 -2.3271 -0.1158
  273MOL0     H36826   7.497   5.023   1.540 -2.0865 -0.0789  2.2828
  273MOL0     H36827   7.596   4.735   1.564 -0.5496 -0.4351  2.8113
  273MOL0     H36828   7.585   4.835   1.696 -0.8772  0.6062  0.7360
  273MOL0     H36829   7.710   4.972   1.457  0.2572  3.4122  2.9262
  273MOL0     H36830   7.749   4.987   1.631  0.9241 -1.1554  0.7429
  273MOL0     H36831   7.945   4.904   1.507  0.0364  0.6767 -0.2600
  273MOL0     H36832   7.854   4.752   1.472 -2.6079  0.6796  0.5532
  273MOL0     H36833   7.925   4.879   1.743  0.6177 -0.4016  1.1161
  273MOL0     H36834   7.827   4.730   1.729 -2.1125 -1.2592 -2.7486
  273MOL0     H36835   7.565   5.382   1.273 -2.5148 -0.7599 -0.1289
  273MOL0     H36836   7.657   5.585   1.395 -0.4693  1.1453  0.9970
  273MOL0     H36837   7.782   5.670   1.856  0.9742  0.7733  2.8633
  273MOL0     H36838   7.940   5.803   1.977  1.1949 -1.2665 -2.3893
  273MOL0     H36839   7.680   4.893   2.320 -0.2821  0.8375 -0.7252
  273MOL0     H36840   7.904   4.927   2.270 -0.1323 -1.7007 -0.2406
  273MOL0     H36841   8.388   4.843   2.458  0.2611 -0.8858 -1.2120
  273MOL0     H36842   8.605   4.842   2.336 -2.5060 -1.0570  3.8993
  273MOL0     H36843   8.761   4.981   1.956  1.5260 -1.1526 -0.2336
  273MOL0     H36844   8.595   4.982   1.924 -1.1964  0.2003  1.7317
  273MOL0     H36845   8.713   4.857   1.749  1.5808 -1.8616 -0.7424
  273MOL0     H36846   8.601   4.746   1.816  0.5779 -0.9775 -1.3553
  273MOL0     H36847   8.822   4.679   1.957  0.4386  0.9178 -0.5117
  273MOL0     H36848   8.917   4.774   1.835  3.4577 -2.8107  0.6210
  273MOL0     H36849   8.907   4.537   1.742 -0.4511 -2.2549  0.7760
  273MOL0     H36850   8.731   4.550   1.768 -1.6517  3.2927 -0.9774
  273MOL0     H36851   8.752   4.702   1.392 -2.2734  2.0865  0.5808
  273MOL0     H36852   8.402   4.862   1.961  1.1072  1.0589 -0.2178
  273MOL0     H36853   8.175   4.980   1.985 -1.6768 -0.8825 -1.2018
  273MOL0     H36854   8.135   4.812   1.978  0.1053  3.0039 -2.8350
  273MOL0     H36855   8.076   4.907   2.117  0.4761 -0.1881 -0.0656
  274MOL0     O36856   9.478  10.349   5.652  0.3462  0.2022 -0.0731
  274MOL0     C36857   9.556  10.320   5.566 -0.4748  0.8520  0.0563
  274MOL0     O36858   9.551  10.348   5.432  0.2537  0.2252 -0.0888
  274MOL0     C36859   9.475  10.445   5.370 -1.0124 -0.1262  0.3102
  274MOL0     C36860   9.468  10.567   5.438 -0.2341  0.2822 -0.1173
  274MOL0     C36861   9.391  10.669   5.387  0.2855 -0.6673  0.1499
  274MOL0     C36862   9.324  10.658   5.260  0.0934  0.3995  0.2561
  274MOL0     O36863   9.231  10.751   5.232  0.0922 -0.0673  0.7860
  274MOL0     C36864   9.110  10.701   5.168  0.1339  0.2801  0.2293
  274MOL0     C36865   9.010  10.810   5.187 -0.0301  0.1062  0.7423
  274MOL0     C36866   8.885  10.767   5.118 -0.2747 -0.3137  0.3320
  274MOL0     C36867   8.766  10.876   5.105  0.2497 -0.3860  0.2507
  274MOL0     C36868   8.807  11.004   5.024  0.5719 -0.0247 -0.1535
  274MOL0     C36869   8.685  11.079   4.962  0.0311 -0.1985 -0.2311
  274MOL0     C36870   8.571  11.112   5.065  0.1706  0.4203  0.6450
  274MOL0     C36871   8.599  11.226   5.169  0.7630  0.6852  0.2842
  274MOL0     N36872   8.486  11.306   5.219  0.5190  0.4018  0.3531
  274MOL0     C36873   8.463  11.345   5.347 -0.6510  0.3312 -0.0758
  274MOL0     C36874   8.337  11.386   5.360 -0.0142 -0.5655 -0.5164
  274MOL0     C36875   8.266  11.444   5.493 -0.4153  0.1826  0.7550
  274MOL0     C36876   8.294  11.583   5.531 -0.7595  0.3524  0.8670
  274MOL0     C36877   8.434  11.588   5.585 -0.3484 -0.7627  0.8602
  274MOL0     C36878   8.473  11.722   5.642  0.0211 -0.0645  0.6622
  274MOL0     O36879   8.602  11.726   5.689  0.7055 -0.0519  0.1457
  274MOL0     C36880   8.679  11.839   5.683  0.0793 -1.2443  0.8115
  274MOL0     C36881   8.649  11.969   5.641  0.2250 -0.1715 -0.6960
  274MOL0     C36882   8.750  12.073   5.650  0.3111 -0.3416  0.5030
  274MOL0     C36883   8.889  12.050   5.686  0.1192  0.3823 -1.3572
  274MOL0     C36884   8.993  12.152   5.700  1.3104  0.0788  2.0245
  274MOL0     O36885   8.934  12.278   5.707  0.3262  0.1241 -0.1642
  274MOL0     C36886   9.006  12.391   5.696 -0.2429  0.5867  0.2648
  274MOL0     C36887   9.042  12.460   5.809  0.1837 -0.3927 -0.8327
  274MOL0     C36888   9.086  12.596   5.795 -0.3217 -0.1330  0.4758
  274MOL0     C36889   9.134  12.637   5.667 -0.0885  0.0692 -0.4452
  274MOL0     O36890   9.209  12.752   5.640  0.0112 -1.0838 -0.3296
  274MOL0     C36891   9.236  12.847   5.746 -0.3653  0.1184  0.1013
  274MOL0     C36892   9.264  12.980   5.694  0.7854  0.4821  0.0727
  274MOL0     C36893   9.141  13.030   5.615  0.8531  0.0220 -0.1948
  274MOL0     C36894   9.016  13.058   5.705 -0.1078  0.8991  0.4399
  274MOL0     C36895   8.906  13.086   5.607  0.2905 -1.6413  0.4524
  274MOL0     C36896   8.775  13.106   5.690 -0.2941 -0.1190 -0.3912
  274MOL0     C36897   8.709  12.966   5.712 -1.1760 -0.6249  0.9702
  274MOL0     C36898   8.587  12.975   5.790  0.0369  0.7105  0.6519
  274MOL0    Cl36899   8.444  13.024   5.686  0.1035 -0.5037  0.0328
  274MOL0     C36900   9.111  12.559   5.556 -0.5436  0.2897 -0.9854
  274MOL0     C36901   9.039  12.439   5.570  0.9910  0.0553 -0.2516
  274MOL0     O36902   9.113  12.122   5.721 -0.6762  0.0536  0.0950
  274MOL0     C36903   8.912  11.919   5.727 -0.0450  0.9222 -0.0779
  274MOL0     C36904   8.811  11.820   5.722  0.2169  0.9878 -0.7322
  274MOL0     N36905   8.288  11.402   5.232 -0.7612 -0.1178 -0.3289
  274MOL0     N36906   8.378  11.355   5.144 -0.3765  0.3775  0.1475
  274MOL0     C36907   9.341  10.543   5.192  0.2767  0.2743  1.0798
  274MOL0     C36908   9.410  10.439   5.248 -0.0659  1.4256 -0.2830
  274MOL0     C36909   9.674  10.240   5.603 -1.4900  0.0964  0.0201
  274MOL0     C36910   9.750  10.180   5.503 -0.7087 -0.0684  0.5236
  274MOL0     C36911   9.848  10.082   5.526 -0.0075 -0.4542 -0.4811
  274MOL0     C36912   9.883  10.054   5.653 -0.3551 -0.1707 -0.0315
  274MOL0     O36913   9.969   9.958   5.694 -0.4531 -1.0571 -0.0167
  274MOL0     C36914  10.103   9.953   5.649 -0.3823  0.4281  0.5454
  274MOL0     C36915  10.121   9.844   5.544  0.0675  0.9134 -0.6530
  274MOL0     C36916  10.048   9.708   5.576 -0.0545 -1.6044  0.4034
  274MOL0     C36917  10.045   9.606   5.460  1.1364  0.1574 -0.4667
  274MOL0     C36918   9.995   9.472   5.507  0.2960  0.5049 -0.1790
  274MOL0     C36919   9.963   9.358   5.534 -0.0708  0.6798 -0.5096
  274MOL0     C36920   9.819  10.119   5.759  0.7036 -0.1087  0.3025
  274MOL0     C36921   9.712  10.201   5.732 -0.6836  0.7266 -0.6301
  274MOL0     C36922   9.644  10.248   5.868  0.1597  0.3455 -0.1668
  274MOL0     H36923   9.516  10.583   5.534  0.1306 -0.4808 -0.1626
  274MOL0     H36924   9.381  10.760   5.446 -2.4628 -0.2659 -0.7719
  274MOL0     H36925   9.125  10.680   5.062 -2.4836 -1.0057  0.0574
  274MOL0     H36926   9.073  10.606   5.207 -0.6984  0.5232  0.0528
  274MOL0     H36927   9.047  10.906   5.150 -0.8704  0.8754  1.8390
  274MOL0     H36928   8.992  10.804   5.295 -1.4771 -0.6773  0.4770
  274MOL0     H36929   8.860  10.682   5.183  0.4887 -2.4751 -2.0121
  274MOL0     H36930   8.916  10.721   5.024  2.7612 -0.0530  1.0955
  274MOL0     H36931   8.673  10.834   5.064  0.7223 -1.9674  0.7510
  274MOL0     H36932   8.741  10.918   5.203  0.8771 -0.6548  0.5286
  274MOL0     H36933   8.862  11.067   5.094 -2.8706  2.5362  0.5133
  274MOL0     H36934   8.870  10.974   4.940 -1.4147 -2.4148 -0.9223
  274MOL0     H36935   8.713  11.169   4.905  1.0567  1.6504  2.9058
  274MOL0     H36936   8.637  11.015   4.888 -2.0396 -1.8541  2.3915
  274MOL0     H36937   8.547  11.015   5.108 -1.8772 -0.6707 -2.6278
  274MOL0     H36938   8.478  11.133   5.012 -0.6227  0.3515  1.9888
  274MOL0     H36939   8.651  11.172   5.249  1.0643 -4.0520 -2.6917
  274MOL0     H36940   8.684  11.284   5.133  1.4848  2.1508  3.9407
  274MOL0     H36941   8.527  11.341   5.435 -3.3437  0.2678  2.0124
  274MOL0     H36942   8.157  11.445   5.482 -0.2775  1.2857 -0.9744
  274MOL0     H36943   8.286  11.387   5.584  0.6266  0.6613  0.8387
  274MOL0     H36944   8.288  11.645   5.441  2.1345 -1.9939 -1.1743
  274MOL0     H36945   8.218  11.611   5.604  0.8211  0.7836  2.4065
  274MOL0     H36946   8.499  11.565   5.500 -1.0426 -0.1843  0.1606
  274MOL0     H36947   8.444  11.517   5.667  2.7201 -2.2086 -0.6011
  274MOL0     H36948   8.410  11.752   5.726  0.1323  0.8163  0.4452
  274MOL0     H36949   8.454  11.794   5.562  1.0247 -1.3183 -0.7811
  274MOL0     H36950   8.548  11.992   5.609  0.5912  2.6225 -0.1231
  274MOL0     H36951   8.727  12.176   5.622  0.7919  0.1044  1.6900
  274MOL0     H36952   9.014  12.419   5.906  4.2600 -1.4459  0.0641
  274MOL0     H36953   9.095  12.642   5.893 -1.3144  1.6972 -0.2524
  274MOL0     H36954   9.164  12.841   5.828 -1.1744 -1.1328 -0.6642
  274MOL0     H36955   9.329  12.809   5.790  1.4669  2.8982 -1.1277
  274MOL0     H36956   9.299  13.050   5.770 -1.5744  2.2513 -0.3251
  274MOL0     H36957   9.347  12.969   5.624 -0.1491  0.8035 -1.1273
  274MOL0     H36958   9.166  13.115   5.551  2.2631 -0.6272 -0.5360
  274MOL0     H36959   9.116  12.951   5.544  1.1405 -0.3792  0.1453
  274MOL0     H36960   9.042  13.137   5.776  1.3323  0.7603  0.0970
  274MOL0     H36961   8.991  12.962   5.752  0.1918 -0.0204 -1.1909
  274MOL0     H36962   8.896  13.006   5.534 -1.7370 -0.7539 -0.3279
  274MOL0     H36963   8.921  13.185   5.564 -0.3305 -1.4309  0.6986
  274MOL0     H36964   8.804  13.148   5.787 -0.2358  0.0096 -0.4638
  274MOL0     H36965   8.704  13.170   5.638 -1.2501  0.4640  1.5203
  274MOL0     H36966   8.782  12.896   5.754 -1.5786 -0.2131  2.3831
  274MOL0     H36967   8.678  12.945   5.609 -0.4081 -2.0731  1.0095
  274MOL0     H36968   8.566  12.873   5.824 -1.3704  0.9991  0.7435
  274MOL0     H36969   8.591  13.039   5.879 -1.6561 -0.2612  1.4900
  274MOL0     H36970   9.140  12.592   5.456 -2.4825  1.7750 -1.1182
  274MOL0     H36971   9.006  12.389   5.479  3.9457  1.1032 -2.0313
  274MOL0     H36972   9.012  11.893   5.762 -0.4495  1.9924  2.0325
  274MOL0     H36973   8.839  11.717   5.742 -0.9159  0.7223 -0.4206
  274MOL0     H36974   9.305  10.538   5.090 -1.7916 -2.9985  1.8064
  274MOL0     H36975   9.414  10.344   5.196  2.3091  0.7863  0.9270
  274MOL0     H36976   9.746  10.208   5.398 -0.9504  1.0283  0.8105
  274MOL0     H36977   9.880  10.028   5.437  0.6869  0.9062 -1.0827
  274MOL0     H36978  10.164   9.919   5.733  0.3671 -0.2872 -0.2666
  274MOL0     H36979  10.140  10.053   5.626  2.4128 -1.1046 -2.5653
  274MOL0     H36980  10.228   9.825   5.532 -0.0555 -1.0279  0.8059
  274MOL0     H36981  10.080   9.892   5.455  1.5097  1.0525 -1.2567
  274MOL0     H36982   9.953   9.723   5.629  1.3984 -0.6306  2.8779
  274MOL0     H36983  10.101   9.653   5.654  0.2957 -1.5062  0.2349
  274MOL0     H36984   9.982   9.628   5.373 -1.4196 -3.9131  0.0841
  274MOL0     H36985  10.147   9.580   5.429  0.9235 -1.7997  0.3120
  274MOL0     H36986   9.919   9.266   5.566 -3.5164  3.0410  2.2676
  274MOL0     H36987   9.853  10.092   5.859  0.7016 -1.3079 -0.0040
  274MOL0     H36988   9.536  10.246   5.849  0.7860 -1.5962 -4.7353
  274MOL0     H36989   9.675  10.193   5.958  2.5258 -0.4156 -1.3828
  274MOL0     H36990   9.675  10.349   5.897 -0.8283 -0.3273  3.8351
  275MOL0     O36991   1.091   6.027   2.853  0.7309 -0.2422  0.3051
  275MOL0     C36992   1.169   6.047   2.952  0.2920 -0.4335 -0.4784
  275MOL0     O36993   1.242   5.951   3.015  0.0744  0.4265  0.2233
  275MOL0     C36994   1.234   5.817   2.972 -0.6145  0.6651  1.0580
  275MOL0     C36995   1.358   5.768   2.953 -0.7216  1.5513  0.5145
  275MOL0     C36996   1.363   5.626   2.918 -0.4112  0.0476  0.0606
  275MOL0     C36997   1.253   5.564   2.873  1.1502  0.5442  0.4472
  275MOL0     O36998   1.282   5.436   2.826 -0.0157  0.9264  0.6657
  275MOL0     C36999   1.189   5.337   2.764  0.7318 -0.4822 -0.4304
  275MOL0     C37000   1.285   5.238   2.702  1.1580  0.2148 -0.3197
  275MOL0     C37001   1.192   5.161   2.590 -0.6033  0.0785 -0.0214
  275MOL0     C37002   1.278   5.093   2.477 -0.4400 -1.1833 -0.5475
  275MOL0     C37003   1.208   5.055   2.345 -0.1117  0.3569 -0.6235
  275MOL0     C37004   1.148   4.908   2.368 -0.0695  0.8329  0.4202
  275MOL0     C37005   1.074   4.869   2.241 -0.4651  0.5608 -0.2602
  275MOL0     C37006   1.164   4.878   2.111 -0.4261  0.2146 -0.2091
  275MOL0     N37007   1.102   4.812   1.993 -0.7255  0.9503 -0.5734
  275MOL0     C37008   1.145   4.687   1.939  1.3072 -0.7777 -0.8502
  275MOL0     C37009   1.059   4.674   1.831 -0.6814  0.4404  0.0304
  275MOL0     C37010   1.045   4.548   1.743 -0.3270  0.1425  0.1237
  275MOL0     C37011   0.999   4.581   1.609  0.2892  1.2808 -0.8090
  275MOL0     C37012   0.967   4.449   1.539  0.4624  0.5209 -0.0140
  275MOL0     C37013   0.950   4.461   1.383 -0.6179 -0.2107  0.9825
  275MOL0     O37014   0.882   4.357   1.321 -0.4591 -0.3459 -0.6600
  275MOL0     C37015   0.759   4.324   1.363  0.4419 -0.1497 -0.9932
  275MOL0     C37016   0.678   4.406   1.447 -0.2471 -0.0329 -0.2030
  275MOL0     C37017   0.569   4.356   1.508  1.1991 -0.6128 -0.2188
  275MOL0     C37018   0.513   4.232   1.477 -0.1887 -0.8796 -0.2026
  275MOL0     C37019   0.379   4.196   1.525  0.0424 -0.2952 -1.1073
  275MOL0     O37020   0.310   4.100   1.453 -0.3187 -0.1038  0.0176
  275MOL0     C37021   0.177   4.093   1.474 -0.5952  0.2233 -0.5239
  275MOL0     C37022   0.138   3.989   1.552  0.6343 -0.9210  0.6014
  275MOL0     C37023  -0.004   3.994   1.576 -0.0419  0.6690  0.3005
  275MOL0     C37024  -0.096   4.084   1.523  0.4648 -0.1134 -0.6314
  275MOL0     O37025  -0.231   4.081   1.563  0.2152 -0.0010  0.0022
  275MOL0     C37026  -0.320   4.183   1.509 -0.9457 -0.0955 -0.6263
  275MOL0     C37027  -0.460   4.150   1.556  0.5907  0.4973 -0.1352
  275MOL0     C37028  -0.518   4.028   1.489  0.8403 -0.3212  0.6063
  275MOL0     C37029  -0.655   3.972   1.556  0.0829  0.3566  0.4983
  275MOL0     C37030  -0.711   3.852   1.475 -0.7564 -0.3335 -0.0121
  275MOL0     C37031  -0.852   3.821   1.529 -0.3355  0.3479  0.2162
  275MOL0     C37032  -0.945   3.750   1.430  0.6068 -0.0978 -1.5150
  275MOL0     C37033  -0.955   3.808   1.283 -0.3904 -0.0596 -0.7020
  275MOL0    Cl37034  -1.075   3.716   1.180  0.1164 -0.1585  0.1504
  275MOL0     C37035  -0.045   4.172   1.425 -0.3204 -0.0713 -0.7581
  275MOL0     C37036   0.088   4.178   1.403 -0.0034  0.0442  1.0815
  275MOL0     O37037   0.341   4.244   1.631 -0.1617  0.2416  0.2347
  275MOL0     C37038   0.584   4.152   1.387  0.0080  0.3266  0.0674
  275MOL0     C37039   0.705   4.198   1.338  0.6549  0.7243  0.3675
  275MOL0     N37040   0.971   4.787   1.818  0.2511  0.5466 -0.1834
  275MOL0     N37041   1.002   4.867   1.914 -0.3116  0.3998  0.4596
  275MOL0     C37042   1.131   5.623   2.868 -0.3456 -0.6159 -0.3875
  275MOL0     C37043   1.117   5.751   2.919  0.5969  0.9033 -1.0444
  275MOL0     C37044   1.175   6.183   3.023 -0.0839  0.5892 -1.3169
  275MOL0     C37045   1.300   6.214   3.076 -0.0692 -0.2719  0.6865
  275MOL0     C37046   1.318   6.326   3.143 -0.7543  0.8236 -0.2404
  275MOL0     C37047   1.221   6.428   3.162  0.0462 -0.0710 -0.3630
  275MOL0     O37048   1.248   6.545   3.239 -0.2971  0.5281 -0.3093
  275MOL0     C37049   1.386   6.576   3.277 -0.1717  0.2134 -0.3079
  275MOL0     C37050   1.381   6.718   3.297  0.5088 -0.0190 -0.3100
  275MOL0     C37051   1.530   6.781   3.319  0.2036 -0.6797 -0.1660
  275MOL0     C37052   1.535   6.926   3.364  0.5372 -0.6361  0.6227
  275MOL0     C37053   1.447   7.011   3.273 -0.2177 -0.3899  1.0678
  275MOL0     C37054   1.390   7.092   3.195 -0.4517  0.8379 -0.1956
  275MOL0     C37055   1.099   6.401   3.090  0.2058  0.3864  0.2678
  275MOL0     C37056   1.077   6.279   3.017  0.0045  0.1015  0.3124
  275MOL0     C37057   0.936   6.256   2.966  0.3713 -0.8109 -1.0596
  275MOL0     H37058   1.440   5.837   2.970 -0.9716  1.9311  0.1899
  275MOL0     H37059   1.453   5.565   2.922 -1.5529 -1.7716 -0.9535
  275MOL0     H37060   1.119   5.289   2.832  1.3034  1.0265  1.2953
  275MOL0     H37061   1.141   5.387   2.680  1.7409  1.1142 -0.1038
  275MOL0     H37062   1.334   5.173   2.775 -1.9700  2.8377  4.6754
  275MOL0     H37063   1.365   5.300   2.660  2.3376  2.5687  4.6422
  275MOL0     H37064   1.138   5.234   2.528 -0.8590 -1.5967 -1.8507
  275MOL0     H37065   1.131   5.078   2.628 -0.4759 -0.5399 -1.1413
  275MOL0     H37066   1.358   5.164   2.455 -4.5755  4.4413  0.3902
  275MOL0     H37067   1.320   5.003   2.523 -1.7294 -1.7131 -0.3637
  275MOL0     H37068   1.119   5.114   2.320 -2.3459 -1.8350  1.4404
  275MOL0     H37069   1.289   5.050   2.273  0.6067  1.1798  0.1079
  275MOL0     H37070   1.232   4.840   2.387  0.0777  0.9270  0.1195
  275MOL0     H37071   1.080   4.898   2.452  1.8443 -0.6593  1.8832
  275MOL0     H37072   0.987   4.933   2.226  0.9957  2.1194 -2.8231
  275MOL0     H37073   1.037   4.768   2.257  1.8944 -0.2633  0.4857
  275MOL0     H37074   1.176   4.986   2.095 -1.0161  0.7661  2.5995
  275MOL0     H37075   1.262   4.833   2.125 -0.5607 -1.1022 -2.7914
  275MOL0     H37076   1.219   4.622   1.983  1.3223 -0.1021  0.1700
  275MOL0     H37077   1.143   4.500   1.736  0.6459  2.0960 -0.3376
  275MOL0     H37078   0.978   4.476   1.791 -2.3446  2.2916  0.7352
  275MOL0     H37079   0.906   4.638   1.613 -2.3292 -2.7164  1.1886
  275MOL0     H37080   1.073   4.633   1.547 -0.4557  1.0675 -1.9044
  275MOL0     H37081   0.875   4.409   1.583  0.4843 -2.2584 -2.2573
  275MOL0     H37082   1.047   4.375   1.547 -1.3927 -1.8900 -2.2867
  275MOL0     H37083   1.045   4.481   1.331 -2.2431 -0.5685 -2.3672
  275MOL0     H37084   0.892   4.549   1.355 -2.1388 -1.3852  0.2921
  275MOL0     H37085   0.706   4.509   1.466  2.5296 -0.4371 -1.6151
  275MOL0     H37086   0.508   4.418   1.574 -0.3773 -4.2724  2.0549
  275MOL0     H37087   0.207   3.920   1.599 -0.0103 -0.3824  2.4336
  275MOL0     H37088  -0.037   3.911   1.638  0.6638  1.1953  1.4127
  275MOL0     H37089  -0.284   4.281   1.542  2.5010 -1.3800 -0.1821
  275MOL0     H37090  -0.338   4.174   1.402 -0.7505 -1.3218 -0.5749
  275MOL0     H37091  -0.441   4.117   1.658  3.1671 -1.4364 -1.0893
  275MOL0     H37092  -0.526   4.235   1.539  4.0680  3.4298 -0.1310
  275MOL0     H37093  -0.527   4.045   1.381  1.7498 -2.0591  0.2101
  275MOL0     H37094  -0.456   3.940   1.508  0.8869  0.0603  2.2996
  275MOL0     H37095  -0.724   4.055   1.536  0.7483  1.1300  1.3511
  275MOL0     H37096  -0.640   3.943   1.660  0.8869  0.0920  0.3123
  275MOL0     H37097  -0.645   3.765   1.483 -0.8799 -0.9915 -3.9539
  275MOL0     H37098  -0.697   3.882   1.371  1.3725 -1.7984 -0.2270
  275MOL0     H37099  -0.850   3.775   1.629  1.8433  1.2748  0.6705
  275MOL0     H37100  -0.886   3.919   1.561 -1.8060 -0.8674  2.6568
  275MOL0     H37101  -1.045   3.762   1.474  2.2125 -0.8503  2.8182
  275MOL0     H37102  -0.930   3.642   1.431  0.3250 -0.1351 -0.6710
  275MOL0     H37103  -0.990   3.912   1.280  0.4416  0.3959  2.5072
  275MOL0     H37104  -0.862   3.789   1.228 -1.1928 -1.3696 -1.6662
  275MOL0     H37105  -0.102   4.245   1.368  0.5946 -0.2770 -1.9985
  275MOL0     H37106   0.130   4.254   1.338 -1.8112 -2.5338 -3.5156
  275MOL0     H37107   0.542   4.060   1.348  1.1670  0.0546 -0.5901
  275MOL0     H37108   0.757   4.139   1.263 -0.0485  0.8850 -0.2557
  275MOL0     H37109   1.037   5.580   2.834 -1.3976 -0.9420  2.5999
  275MOL0     H37110   1.018   5.795   2.913 -0.2249 -0.6868  0.0133
  275MOL0     H37111   1.383   6.145   3.090 -0.0636  0.0556  2.6070
  275MOL0     H37112   1.418   6.344   3.182  1.4207 -2.3001 -3.7269
  275MOL0     H37113   1.441   6.549   3.186 -1.2609  2.3933 -1.7210
  275MOL0     H37114   1.419   6.529   3.369 -3.7084  3.5001  3.0197
  275MOL0     H37115   1.313   6.740   3.380 -0.6580 -1.1849 -0.9232
  275MOL0     H37116   1.332   6.781   3.222 -0.0922  0.6765  0.6373
  275MOL0     H37117   1.592   6.782   3.229  1.5837 -1.7567  0.7160
  275MOL0     H37118   1.579   6.721   3.396  0.7318 -1.4939 -1.1072
  275MOL0     H37119   1.494   6.921   3.465 -0.4908 -2.7309  0.1657
  275MOL0     H37120   1.634   6.971   3.359  1.9580 -3.6629 -2.0314
  275MOL0     H37121   1.348   7.151   3.116  0.0708 -1.4600 -2.3274
  275MOL0     H37122   1.023   6.479   3.089  0.1723  0.3913  1.6044
  275MOL0     H37123   0.881   6.348   2.987 -0.4752 -0.7830 -3.1561
  275MOL0     H37124   0.947   6.255   2.857 -4.0293 -1.4280 -1.6655
  275MOL0     H37125   0.884   6.175   3.017 -0.8741  1.7873  2.1007
  276MOL0     O37126   5.063   9.887   1.168 -0.3581  0.0455 -0.9594
  276MOL0     C37127   4.950   9.868   1.129 -0.1461 -0.4587 -0.2729
  276MOL0     O37128   4.903   9.756   1.086 -0.0723  0.3183  0.3330
  276MOL0     C37129   4.984   9.678   1.007  0.6520 -0.6819 -0.1649
  276MOL0     C37130   5.086   9.730   0.923 -0.4751 -0.5094  0.5913
  276MOL0     C37131   5.185   9.637   0.876 -0.1814  0.0209 -1.3523
  276MOL0     C37132   5.173   9.499   0.896  1.0829  1.0659  0.6876
  276MOL0     O37133   5.266   9.404   0.856 -0.1213 -0.3253 -0.2783
  276MOL0     C37134   5.298   9.301   0.944  0.3939  1.0511  0.8771
  276MOL0     C37135   5.437   9.231   0.900  0.2211  0.5536  0.6948
  276MOL0     C37136   5.491   9.169   1.024 -0.4629  0.4376 -1.0759
  276MOL0     C37137   5.616   9.083   0.998  0.0060  0.0894  1.1711
  276MOL0     C37138   5.737   9.135   0.936 -0.2857 -0.7490  0.2516
  276MOL0     C37139   5.820   9.034   0.861 -0.3112 -1.0203  0.1643
  276MOL0     C37140   5.882   8.927   0.946  0.3550 -0.1482 -0.5039
  276MOL0     C37141   5.959   8.823   0.869 -0.6067 -0.2948  1.1992
  276MOL0     N37142   6.023   8.734   0.962  0.3613  0.1391 -0.3716
  276MOL0     C37143   6.140   8.760   1.028 -0.2031 -0.4270  0.4882
  276MOL0     C37144   6.175   8.631   1.074  0.1418 -0.2583 -0.1528
  276MOL0     C37145   6.301   8.580   1.141  0.9131 -0.9522 -0.1098
  276MOL0     C37146   6.354   8.444   1.084  0.6507 -0.3819  0.0457
  276MOL0     C37147   6.403   8.459   0.934 -0.3782 -0.1832  0.3524
  276MOL0     C37148   6.516   8.568   0.924 -0.2021 -0.1846 -0.5886
  276MOL0     O37149   6.601   8.557   0.813  0.4323 -0.2840  0.1767
  276MOL0     C37150   6.580   8.643   0.710 -0.6680  0.3250  1.3461
  276MOL0     C37151   6.678   8.641   0.608  0.4840  0.5681  0.1180
  276MOL0     C37152   6.667   8.733   0.503  0.1175 -0.5232  0.1693
  276MOL0     C37153   6.568   8.833   0.499 -0.2351  0.3177  0.8712
  276MOL0     C37154   6.552   8.925   0.378 -0.2919  0.3491 -0.6166
  276MOL0     O37155   6.470   9.026   0.386  0.1165 -0.8920 -0.3387
  276MOL0     C37156   6.480   9.109   0.282 -0.3793 -0.7431  0.6201
  276MOL0     C37157   6.537   9.239   0.288 -0.0061 -0.6144 -0.0585
  276MOL0     C37158   6.533   9.327   0.181  0.6079  0.6154 -0.8653
  276MOL0     C37159   6.475   9.287   0.062 -0.3354 -1.0306 -0.4196
  276MOL0     O37160   6.487   9.368  -0.048 -0.2044 -0.3727  0.5127
  276MOL0     C37161   6.540   9.511  -0.036  0.8995  0.6544 -0.7858
  276MOL0     C37162   6.513   9.602  -0.159 -0.0677 -0.8792  0.7339
  276MOL0     C37163   6.368   9.638  -0.197  0.5369 -0.8909 -0.4804
  276MOL0     C37164   6.355   9.745  -0.304  0.5106  0.6297 -0.2153
  276MOL0     C37165   6.210   9.787  -0.330  0.2580 -0.5834 -0.3040
  276MOL0     C37166   6.131   9.847  -0.211  0.8211 -1.1637  0.2358
  276MOL0     C37167   6.171   9.993  -0.156  0.4389 -0.9871  0.2086
  276MOL0     C37168   6.096  10.040  -0.034 -0.2818 -0.0151  0.1793
  276MOL0    Cl37169   5.924  10.059  -0.084  0.3606  0.3894 -0.1375
  276MOL0     C37170   6.434   9.153   0.040  0.7870 -0.2261 -0.1709
  276MOL0     C37171   6.437   9.070   0.152  0.6097 -0.2929 -0.7318
  276MOL0     O37172   6.631   8.900   0.283 -0.1309 -0.7469  0.4876
  276MOL0     C37173   6.468   8.829   0.599 -1.0148 -0.7155 -0.0659
  276MOL0     C37174   6.475   8.739   0.708 -0.2357  0.0499 -1.2741
  276MOL0     N37175   6.069   8.550   1.027 -0.0572  0.1839  0.6314
  276MOL0     N37176   5.972   8.618   0.974 -0.8788  0.0739 -0.8829
  276MOL0     C37177   5.047   9.453   0.947 -0.5901  0.1887  0.5848
  276MOL0     C37178   4.958   9.550   1.001 -0.5692 -1.0283  0.1037
  276MOL0     C37179   4.850   9.979   1.125 -1.2344  0.3128 -0.1209
  276MOL0     C37180   4.716   9.947   1.135  0.4281 -0.7249  0.0609
  276MOL0     C37181   4.619  10.043   1.128  0.2849 -0.2437  0.2272
  276MOL0     C37182   4.647  10.179   1.110  0.4972 -0.5664 -0.0227
  276MOL0     O37183   4.545  10.271   1.094  1.0228 -0.6247 -0.3715
  276MOL0     C37184   4.568  10.407   1.067  0.0140  0.7306 -0.2623
  276MOL0     C37185   4.445  10.493   1.036  0.2253 -1.0167  1.7044
  276MOL0     C37186   4.364  10.544   1.155  0.5021 -0.6636  0.5774
  276MOL0     C37187   4.251  10.637   1.118 -0.0565  0.0460 -0.0658
  276MOL0     C37188   4.216  10.730   1.228  0.2923 -0.1908 -0.0336
  276MOL0     C37189   4.181  10.822   1.307  0.2034  0.9439  0.1621
  276MOL0     C37190   4.778  10.214   1.097  0.0136  0.5944 -0.1890
  276MOL0     C37191   4.879  10.116   1.102  0.1849  0.8394  0.2354
  276MOL0     C37192   5.026  10.165   1.076 -0.3899  0.0290  0.2666
  276MOL0     H37193   5.099   9.838   0.917  0.6348 -0.6752 -0.2576
  276MOL0     H37194   5.271   9.669   0.818  2.6114 -2.3173  1.1854
  276MOL0     H37195   5.292   9.346   1.044  1.0710  0.7075  1.0731
  276MOL0     H37196   5.220   9.224   0.937 -0.4939  1.9797  0.1016
  276MOL0     H37197   5.503   9.312   0.868  3.5313 -1.6070  1.6143
  276MOL0     H37198   5.425   9.156   0.822  2.6443  1.1316 -0.3322
  276MOL0     H37199   5.421   9.103   1.075  0.2083  1.3253  1.0991
  276MOL0     H37200   5.517   9.252   1.091  2.9250  0.8002 -2.6134
  276MOL0     H37201   5.646   9.039   1.094  2.6692  2.4969  1.5940
  276MOL0     H37202   5.578   9.006   0.930  0.8302  0.8900 -0.2591
  276MOL0     H37203   5.715   9.216   0.866  0.0646  0.6761  1.7230
  276MOL0     H37204   5.798   9.179   1.016  0.3614 -1.4239  0.1472
  276MOL0     H37205   5.751   8.990   0.788  0.9618 -0.3452 -1.5053
  276MOL0     H37206   5.896   9.093   0.809 -1.4592  0.5211  0.1449
  276MOL0     H37207   5.809   8.865   0.999  0.6912  0.6600  0.9715
  276MOL0     H37208   5.945   8.973   1.023  0.1274  1.3595 -1.1787
  276MOL0     H37209   5.883   8.773   0.808 -1.5823  1.5280  0.8275
  276MOL0     H37210   6.030   8.874   0.804 -1.2932  1.8270  2.0158
  276MOL0     H37211   6.194   8.854   1.019  1.3835 -1.4963 -2.4106
  276MOL0     H37212   6.372   8.664   1.147 -1.2969  0.9658  0.9285
  276MOL0     H37213   6.274   8.559   1.244  0.0093 -1.4574 -0.4375
  276MOL0     H37214   6.436   8.416   1.150 -1.0768 -0.0957  2.4612
  276MOL0     H37215   6.265   8.381   1.098 -0.0160  0.3311 -0.7861
  276MOL0     H37216   6.325   8.488   0.863  2.3804 -0.0818 -2.9432
  276MOL0     H37217   6.435   8.362   0.894 -0.0180 -1.0542  2.6360
  276MOL0     H37218   6.577   8.542   1.011 -2.0424 -0.8512  0.5377
  276MOL0     H37219   6.470   8.664   0.948  1.6127  0.5662  0.0445
  276MOL0     H37220   6.753   8.563   0.607 -1.8224 -1.8118  0.8085
  276MOL0     H37221   6.741   8.728   0.423 -0.3608 -1.1308 -0.2466
  276MOL0     H37222   6.577   9.279   0.381  2.5810 -1.1214 -0.8814
  276MOL0     H37223   6.583   9.422   0.195  1.5928 -0.0518  0.3736
  276MOL0     H37224   6.500   9.558   0.054 -1.3715 -0.5456 -1.1095
  276MOL0     H37225   6.649   9.506  -0.023  0.7262 -1.3979  0.1518
  276MOL0     H37226   6.573   9.692  -0.140 -0.1644 -1.3932  4.0444
  276MOL0     H37227   6.558   9.571  -0.254 -1.6990  0.8972 -0.7125
  276MOL0     H37228   6.325   9.553  -0.249  0.0846  0.8799 -3.1844
  276MOL0     H37229   6.307   9.670  -0.112 -0.9432  0.6514 -2.0555
  276MOL0     H37230   6.395   9.701  -0.396 -1.3168 -2.9331  0.5165
  276MOL0     H37231   6.411   9.833  -0.272 -0.2403  1.1255 -0.2650
  276MOL0     H37232   6.150   9.702  -0.364 -0.8160  0.4776 -1.1300
  276MOL0     H37233   6.213   9.864  -0.408  1.9416  1.7943  1.9546
  276MOL0     H37234   6.027   9.842  -0.245  0.5995 -0.8246  0.8470
  276MOL0     H37235   6.132   9.772  -0.131 -0.2671 -3.4593 -1.7660
  276MOL0     H37236   6.143  10.068  -0.230 -2.4002  0.3281  2.3825
  276MOL0     H37237   6.276  10.000  -0.128  0.1190  2.6788  0.9531
  276MOL0     H37238   6.117   9.970   0.048  0.9082  1.3943  1.1264
  276MOL0     H37239   6.140  10.133   0.002  0.3032 -0.8573  1.7327
  276MOL0     H37240   6.400   9.131  -0.061  2.1433  1.2380 -0.9785
  276MOL0     H37241   6.403   8.969   0.130  1.6219 -0.0269 -3.9680
  276MOL0     H37242   6.406   8.917   0.606 -0.1848 -0.0134 -1.1542
  276MOL0     H37243   6.391   8.748   0.777 -0.8432 -0.2092 -1.9764
  276MOL0     H37244   5.029   9.350   0.973  0.3647 -0.7221 -2.0340
  276MOL0     H37245   4.868   9.521   1.055  0.8649  0.6727  3.7439
  276MOL0     H37246   4.679   9.846   1.135  0.2522 -0.6596 -0.1178
  276MOL0     H37247   4.521   9.998   1.138  0.7284 -1.0245  1.2763
  276MOL0     H37248   4.633  10.393   0.980 -3.0802 -2.5433 -2.3330
  276MOL0     H37249   4.615  10.441   1.160  2.4540 -3.2323  0.2077
  276MOL0     H37250   4.380  10.449   0.961  1.1592  0.6387 -0.1770
  276MOL0     H37251   4.494  10.579   0.988 -1.6109 -0.0495  1.4801
  276MOL0     H37252   4.427  10.595   1.229  0.2611 -1.0791  1.0762
  276MOL0     H37253   4.318  10.463   1.213  2.2626  1.9451  6.2466
  276MOL0     H37254   4.280  10.701   1.034 -1.5862 -0.6068 -1.1374
  276MOL0     H37255   4.155  10.587   1.099 -0.5701  0.5853  1.0577
  276MOL0     H37256   4.145  10.891   1.381 -1.8223 -2.0042  2.1764
  276MOL0     H37257   4.808  10.318   1.086  2.8863  0.3038  3.1593
  276MOL0     H37258   5.027  10.232   0.990 -0.7126  0.2449  0.4285
  276MOL0     H37259   5.049  10.203   1.176 -1.1108 -0.0998  0.4911
  276MOL0     H37260   5.093  10.085   1.044  0.8368  0.8726  0.6634
  277MOL0     O37261   3.560   5.663   8.405  0.0726 -0.3751  0.0369
  277MOL0     C37262   3.495   5.602   8.486  0.0376  0.0204 -0.2679
  277MOL0     O37263   3.541   5.517   8.576 -0.0877  0.1467 -0.0939
  277MOL0     C37264   3.671   5.494   8.585 -0.5747 -0.0399  0.5723
  277MOL0     C37265   3.730   5.382   8.530  0.6158 -0.6175  0.1834
  277MOL0     C37266   3.869   5.356   8.535 -0.2624  0.7442  0.0478
  277MOL0     C37267   3.954   5.451   8.588 -0.2835  0.1338  0.3107
  277MOL0     O37268   4.089   5.442   8.607 -0.1285  0.4148 -0.6497
  277MOL0     C37269   4.148   5.309   8.594  0.5895 -0.1004  0.2455
  277MOL0     C37270   4.128   5.231   8.723  0.2628  0.0764 -0.4341
  277MOL0     C37271   4.181   5.084   8.702  0.0903  0.9052  0.2113
  277MOL0     C37272   4.070   4.986   8.653 -0.4114 -0.2086  0.2077
  277MOL0     C37273   4.117   4.849   8.607  0.4810 -0.0465 -0.7283
  277MOL0     C37274   3.995   4.759   8.565  0.5356 -1.0674  0.3091
  277MOL0     C37275   4.044   4.614   8.554  0.0883 -0.3020 -0.3431
  277MOL0     C37276   3.941   4.525   8.484 -0.2612 -0.2313 -0.2009
  277MOL0     N37277   3.806   4.519   8.553 -0.1044 -0.4686  0.6975
  277MOL0     C37278   3.780   4.494   8.685  0.5989  0.2742 -0.2951
  277MOL0     C37279   3.647   4.462   8.692 -0.7430 -0.6071 -0.5810
  277MOL0     C37280   3.581   4.415   8.825 -0.2313 -0.2487 -0.7949
  277MOL0     C37281   3.531   4.526   8.927  1.2102 -0.0164 -0.6041
  277MOL0     C37282   3.438   4.465   9.018 -0.8549 -0.7459 -1.0359
  277MOL0     C37283   3.377   4.582   9.097  0.0795  0.8953 -0.0874
  277MOL0     O37284   3.288   4.531   9.191  0.4988  0.3933 -0.0932
  277MOL0     C37285   3.231   4.624   9.277  0.7268  0.1663 -0.3935
  277MOL0     C37286   3.259   4.759   9.277  0.2254 -0.1236 -1.0411
  277MOL0     C37287   3.202   4.845   9.367 -0.3032  0.1316 -0.7851
  277MOL0     C37288   3.098   4.795   9.455 -0.0628 -0.7479 -0.6314
  277MOL0     C37289   3.020   4.895   9.531  0.7287 -0.1271  0.7899
  277MOL0     O37290   3.005   5.012   9.468  0.0272 -0.2708 -0.2301
  277MOL0     C37291   2.934   5.101   9.543 -0.5207  0.4144 -0.2620
  277MOL0     C37292   2.800   5.108   9.539  0.1635 -0.8208  0.6611
  277MOL0     C37293   2.728   5.205   9.610 -0.0444  0.2783  0.2477
  277MOL0     C37294   2.797   5.299   9.688 -0.3080  0.7535  0.0617
  277MOL0     O37295   2.716   5.386   9.748  1.3420 -0.5616 -0.1131
  277MOL0     C37296   2.765   5.512   9.794  0.4448  0.0591 -0.2817
  277MOL0     C37297   2.665   5.572   9.882  0.1992 -0.0478 -0.5649
  277MOL0     C37298   2.713   5.677   9.970  0.2464  0.0917 -0.5678
  277MOL0     C37299   2.711   5.806   9.886 -0.3615 -1.1340 -0.2388
  277MOL0     C37300   2.763   5.919   9.969  0.6728  0.0251 -0.8447
  277MOL0     C37301   2.774   6.054   9.893 -0.2262 -0.1536 -0.3386
  277MOL0     C37302   2.889   6.048   9.789 -0.2239 -0.4923 -0.2924
  277MOL0     C37303   2.915   6.183   9.712 -0.2988 -0.3413 -0.8254
  277MOL0    Cl37304   3.064   6.185   9.609 -0.0654  0.0200  0.1361
  277MOL0     C37305   2.937   5.300   9.686  0.1694  0.9212 -0.0594
  277MOL0     C37306   3.005   5.193   9.614 -1.1636 -0.5194  0.5352
  277MOL0     O37307   2.970   4.860   9.638  0.3652 -0.1879 -0.1918
  277MOL0     C37308   3.071   4.656   9.461 -0.2672  0.2198  0.4660
  277MOL0     C37309   3.137   4.565   9.365  0.4728 -0.6617  0.5480
  277MOL0     N37310   3.599   4.460   8.564 -0.1571 -1.1425  0.1078
  277MOL0     N37311   3.689   4.493   8.486 -0.4792  0.2494 -0.6645
  277MOL0     C37312   3.893   5.565   8.643 -0.1466  0.4353 -0.0234
  277MOL0     C37313   3.758   5.586   8.638  0.3745  0.9793  0.1001
  277MOL0     C37314   3.348   5.633   8.490 -1.2990  0.0674 -0.7061
  277MOL0     C37315   3.262   5.543   8.546 -0.0143  0.1882  0.0040
  277MOL0     C37316   3.128   5.566   8.546 -0.4522 -0.2034 -0.4157
  277MOL0     C37317   3.071   5.691   8.538 -0.3645  0.1574 -0.1175
  277MOL0     O37318   2.939   5.689   8.565 -0.6129  0.0643  0.2124
  277MOL0     C37319   2.858   5.799   8.535 -1.3467  0.6528 -0.3019
  277MOL0     C37320   2.724   5.775   8.610  0.2692  0.3012 -0.0081
  277MOL0     C37321   2.632   5.894   8.576  0.0341  0.3993 -0.3779
  277MOL0     C37322   2.585   5.900   8.435 -0.3028  0.0844  0.1346
  277MOL0     C37323   2.549   5.773   8.363  1.0805 -0.3465 -1.1508
  277MOL0     C37324   2.544   5.663   8.314  0.4392 -0.4083  0.1178
  277MOL0     C37325   3.152   5.791   8.485  0.3093 -0.2471 -0.9550
  277MOL0     C37326   3.291   5.761   8.448  1.0159  0.1147  0.7474
  277MOL0     C37327   3.362   5.882   8.373 -0.0336  0.4729 -0.0032
  277MOL0     H37328   3.666   5.313   8.476  1.9187 -1.6164 -0.1411
  277MOL0     H37329   3.910   5.263   8.496  0.0233  0.6831  0.4891
  277MOL0     H37330   4.121   5.252   8.505  0.9326  0.5033 -0.2466
  277MOL0     H37331   4.252   5.333   8.569 -0.6623  1.5825 -4.1103
  277MOL0     H37332   4.020   5.227   8.741  0.6884  1.3806  3.2718
  277MOL0     H37333   4.180   5.267   8.812  3.6454 -0.4687 -2.0587
  277MOL0     H37334   4.203   5.049   8.803  2.3344  3.8922  0.9188
  277MOL0     H37335   4.271   5.078   8.640 -0.9080 -1.5528 -1.1518
  277MOL0     H37336   3.994   4.973   8.730 -0.7054  2.6162  0.5273
  277MOL0     H37337   4.022   5.024   8.562  2.3501  0.7100 -0.9704
  277MOL0     H37338   4.187   4.842   8.522 -0.1070 -0.2859 -1.2004
  277MOL0     H37339   4.169   4.796   8.687  0.5946  0.3777 -0.5194
  277MOL0     H37340   3.916   4.769   8.640  0.2779 -0.8604  0.0123
  277MOL0     H37341   3.953   4.798   8.472  0.8702 -4.0071 -1.1806
  277MOL0     H37342   4.060   4.570   8.653  0.7025  0.2611 -0.1883
  277MOL0     H37343   4.139   4.602   8.500  1.1973  0.5874  1.3217
  277MOL0     H37344   3.917   4.586   8.397 -1.8454 -1.0471 -0.3639
  277MOL0     H37345   3.983   4.426   8.463  1.3274 -0.0107  1.6409
  277MOL0     H37346   3.849   4.506   8.768  2.2652 -2.3214 -1.1677
  277MOL0     H37347   3.494   4.359   8.788 -0.4270 -0.5234  0.0652
  277MOL0     H37348   3.644   4.336   8.865 -1.1276 -0.7457 -0.3293
  277MOL0     H37349   3.611   4.583   8.976 -1.2466  0.2508  3.6385
  277MOL0     H37350   3.487   4.598   8.857  0.3188 -0.9538 -1.0409
  277MOL0     H37351   3.497   4.416   9.097 -0.5490  0.9013 -0.1866
  277MOL0     H37352   3.362   4.404   8.969  0.4476 -0.9566 -2.8583
  277MOL0     H37353   3.333   4.655   9.029 -1.9438  0.0157  0.2174
  277MOL0     H37354   3.459   4.632   9.150  0.0568 -0.7193  1.5915
  277MOL0     H37355   3.334   4.805   9.215  2.0227  0.1033  1.1759
  277MOL0     H37356   3.244   4.943   9.388  2.3309 -1.1333  0.4429
  277MOL0     H37357   2.757   5.027   9.481  0.2984 -3.0449  3.4406
  277MOL0     H37358   2.621   5.199   9.595  0.4177 -2.7559 -3.3993
  277MOL0     H37359   2.864   5.500   9.840  0.6922 -0.7991 -1.0010
  277MOL0     H37360   2.786   5.586   9.716 -1.6534  1.2988  0.2715
  277MOL0     H37361   2.585   5.618   9.823  0.5918  1.5552  0.0965
  277MOL0     H37362   2.629   5.489   9.944 -1.6485  0.5245 -0.8070
  277MOL0     H37363   2.649   5.699  10.056  3.4229  0.3615  1.9528
  277MOL0     H37364   2.817   5.665  10.005 -0.4143 -0.7255  1.2437
  277MOL0     H37365   2.612   5.826   9.844 -0.1817 -0.7200 -0.4685
  277MOL0     H37366   2.776   5.791   9.799  1.4690  3.0818  0.1546
  277MOL0     H37367   2.861   5.889  10.005  0.5289 -0.6242 -0.9727
  277MOL0     H37368   2.693   5.929  10.052 -0.3498 -2.3002 -1.3225
  277MOL0     H37369   2.671   6.060   9.856 -1.0095 -1.4226  1.4548
  277MOL0     H37370   2.792   6.136   9.962  2.0503 -0.5305 -0.4124
  277MOL0     H37371   2.859   5.972   9.717  0.2616 -2.0161  1.0513
  277MOL0     H37372   2.969   6.013   9.856 -1.7204 -2.5724  0.4851
  277MOL0     H37373   2.835   6.202   9.640  2.9015 -2.1935 -5.3623
  277MOL0     H37374   2.912   6.264   9.785 -1.6902 -0.4278 -0.7602
  277MOL0     H37375   2.994   5.379   9.734 -2.4522  2.3139  0.9562
  277MOL0     H37376   3.114   5.196   9.608 -1.2202  0.4241 -0.3335
  277MOL0     H37377   2.992   4.619   9.526 -0.7058 -0.5951 -0.5084
  277MOL0     H37378   3.109   4.461   9.354 -1.7107  0.0643 -1.5576
  277MOL0     H37379   3.957   5.643   8.682 -0.3680  1.0468 -0.8434
  277MOL0     H37380   3.704   5.673   8.673 -3.0703 -0.9296  0.0347
  277MOL0     H37381   3.294   5.443   8.576 -0.8434 -0.5559 -1.4511
  277MOL0     H37382   3.064   5.480   8.563 -2.4449  1.0328 -1.1962
  277MOL0     H37383   2.848   5.819   8.428 -3.7064 -0.0407 -0.2751
  277MOL0     H37384   2.911   5.884   8.578  1.0360 -1.1278  0.4966
  277MOL0     H37385   2.755   5.779   8.715  2.9446 -1.5832 -0.6136
  277MOL0     H37386   2.695   5.673   8.583  4.4629 -1.5743  1.6236
  277MOL0     H37387   2.684   5.985   8.609  1.3664 -0.3141 -0.4383
  277MOL0     H37388   2.549   5.874   8.644  0.7920 -1.8092 -0.0118
  277MOL0     H37389   2.494   5.959   8.446 -2.2200 -2.9587  1.9569
  277MOL0     H37390   2.664   5.951   8.378 -0.1284 -2.2248 -1.8851
  277MOL0     H37391   2.530   5.579   8.251 -5.4774 -2.2396  3.1554
  277MOL0     H37392   3.113   5.891   8.476  0.9776  0.5157  2.7840
  277MOL0     H37393   3.388   5.846   8.273 -4.2527  1.1414 -1.5582
  277MOL0     H37394   3.301   5.973   8.375 -0.9464 -0.1258  2.1656
  277MOL0     H37395   3.458   5.897   8.423  1.2743 -1.0478 -1.8952
  278MOL0     O37396  11.490   9.491   7.404 -0.2060 -0.0308 -0.0037
  278MOL0     C37397  11.374   9.492   7.423  0.2306  0.2820  0.3549
  278MOL0     O37398  11.304   9.558   7.536 -0.1206 -0.1755  0.0592
  278MOL0     C37399  11.347   9.566   7.661 -0.7486  0.6617 -0.0404
  278MOL0     C37400  11.477   9.586   7.699  0.1065  0.5756 -0.6945
  278MOL0     C37401  11.517   9.583   7.835 -0.1949  0.4922  0.3455
  278MOL0     C37402  11.429   9.555   7.941 -0.3462  1.6781  1.0227
  278MOL0     O37403  11.460   9.539   8.069  0.2402 -0.2758 -0.7309
  278MOL0     C37404  11.574   9.453   8.116 -1.1506  0.0644  0.7156
  278MOL0     C37405  11.549   9.365   8.247  0.4386  0.2870 -0.4595
  278MOL0     C37406  11.483   9.450   8.365 -0.0445 -0.0304 -0.2177
  278MOL0     C37407  11.572   9.568   8.414  0.5175  0.6094 -1.2761
  278MOL0     C37408  11.491   9.698   8.413 -0.0837  0.1152 -1.4624
  278MOL0     C37409  11.582   9.803   8.466  0.2224  0.4715  0.0699
  278MOL0     C37410  11.551   9.931   8.411  0.6950  0.2405  0.6954
  278MOL0     C37411  11.589   9.950   8.263 -0.5251  0.0838 -0.5327
  278MOL0     N37412  11.601  10.092   8.223  0.5364 -0.4381 -0.3048
  278MOL0     C37413  11.501  10.164   8.168  0.1260  0.1658 -0.4487
  278MOL0     C37414  11.540  10.289   8.200  0.1827 -0.7386 -0.3601
  278MOL0     C37415  11.452  10.398   8.184 -0.2051  0.3573 -0.0279
  278MOL0     C37416  11.372  10.429   8.306  1.1507  0.0812  0.3962
  278MOL0     C37417  11.263  10.316   8.344  0.3584 -0.4564 -0.1267
  278MOL0     C37418  11.292  10.241   8.476  0.9456 -0.4068 -0.9146
  278MOL0     O37419  11.200  10.125   8.495 -0.0843 -0.1063 -0.0749
  278MOL0     C37420  11.221  10.030   8.599  0.7521 -0.3608 -0.5429
  278MOL0     C37421  11.325  10.048   8.700  1.0136 -0.7847 -0.2059
  278MOL0     C37422  11.334   9.953   8.801  0.1747  0.3155 -1.2437
  278MOL0     C37423  11.244   9.844   8.800  0.7739  0.2522 -0.0511
  278MOL0     C37424  11.234   9.766   8.926  0.6704  0.6008 -0.1424
  278MOL0     O37425  11.148   9.664   8.922  0.3369 -0.5418 -0.2339
  278MOL0     C37426  11.116   9.600   9.040 -0.4227  0.6382 -0.2408
  278MOL0     C37427  11.165   9.461   9.059  1.0420 -0.4701 -0.3604
  278MOL0     C37428  11.137   9.388   9.174 -0.1249  0.8768 -0.5771
  278MOL0     C37429  11.070   9.458   9.275 -0.1687 -0.3262 -0.1454
  278MOL0     O37430  11.056   9.388   9.392  0.3415  0.0480  0.7817
  278MOL0     C37431  10.921   9.380   9.441 -0.5120  0.0930 -1.1395
  278MOL0     C37432  10.908   9.261   9.537 -0.6794 -0.5884 -1.0353
  278MOL0     C37433  10.781   9.263   9.613 -0.3229 -0.4856 -0.8628
  278MOL0     C37434  10.650   9.322   9.542 -0.2128  0.1581  0.0877
  278MOL0     C37435  10.519   9.316   9.613  0.4568 -0.1869 -0.3698
  278MOL0     C37436  10.513   9.200   9.712 -0.1543  1.0148  0.5346
  278MOL0     C37437  10.388   9.190   9.786  0.0556 -0.3513 -0.7413
  278MOL0     C37438  10.353   9.066   9.866 -1.2564  0.8589  0.0414
  278MOL0    Cl37439  10.195   9.084   9.948  0.1619  0.0769  0.9702
  278MOL0     C37440  11.022   9.592   9.258 -0.1357 -0.4978 -0.7279
  278MOL0     C37441  11.059   9.660   9.142  0.8270  0.0938 -0.0268
  278MOL0     O37442  11.311   9.787   9.027  0.1712 -0.1992 -0.3404
  278MOL0     C37443  11.143   9.824   8.697 -0.6178  0.5428  0.0505
  278MOL0     C37444  11.140   9.922   8.600 -0.7538  0.2797 -1.1363
  278MOL0     N37445  11.664  10.292   8.256 -0.0776  0.1069 -0.6454
  278MOL0     N37446  11.697  10.170   8.275 -0.0782 -0.7437 -0.3155
  278MOL0     C37447  11.295   9.539   7.897 -0.3357 -0.2883  0.4542
  278MOL0     C37448  11.255   9.540   7.759  0.0242  0.5408 -0.6972
  278MOL0     C37449  11.287   9.418   7.326  0.8862  0.8114 -0.9378
  278MOL0     C37450  11.154   9.397   7.351  0.3616 -0.4060 -0.6336
  278MOL0     C37451  11.062   9.341   7.263 -0.0528 -0.0943 -0.3878
  278MOL0     C37452  11.115   9.307   7.143 -0.0127  0.0711  0.1560
  278MOL0     O37453  11.023   9.243   7.068  0.2342 -0.5051  0.0809
  278MOL0     C37454  11.040   9.226   6.929  0.2259  0.0419 -0.4727
  278MOL0     C37455  11.033   9.085   6.897  0.6005  0.3531 -0.2318
  278MOL0     C37456  10.892   9.027   6.920  0.7387 -0.3131 -0.2172
  278MOL0     C37457  10.834   8.931   6.809 -0.4224 -0.0400 -0.2559
  278MOL0     C37458  10.752   8.989   6.708 -0.5124 -0.4493 -0.7228
  278MOL0     C37459  10.699   9.040   6.620 -0.2815 -0.9276 -0.2770
  278MOL0     C37460  11.250   9.315   7.105 -0.0727 -0.7498 -0.0594
  278MOL0     C37461  11.342   9.377   7.195 -0.0672  0.1647 -0.2234
  278MOL0     C37462  11.481   9.400   7.129 -0.7257  0.5696  1.0447
  278MOL0     H37463  11.554   9.615   7.628 -0.4494  0.7313 -1.2389
  278MOL0     H37464  11.622   9.577   7.860 -0.2618 -2.5705  0.2693
  278MOL0     H37465  11.590   9.391   8.027 -0.5383  3.5120 -1.7674
  278MOL0     H37466  11.656   9.524   8.131 -0.9681  0.6318 -2.3598
  278MOL0     H37467  11.644   9.324   8.282  0.8606 -0.2903 -2.1527
  278MOL0     H37468  11.478   9.290   8.212  0.1450 -0.0642  0.8443
  278MOL0     H37469  11.479   9.389   8.455 -0.0809  2.1145  1.3057
  278MOL0     H37470  11.384   9.481   8.331  0.0561 -0.4535 -0.9221
  278MOL0     H37471  11.606   9.539   8.514  1.0484 -0.5421 -1.7731
  278MOL0     H37472  11.660   9.578   8.350  0.6561 -0.8226 -1.3561
  278MOL0     H37473  11.479   9.724   8.308  2.5323  3.2883 -1.1678
  278MOL0     H37474  11.395   9.690   8.465 -0.5524 -0.0695 -2.3551
  278MOL0     H37475  11.574   9.814   8.574  2.5275  0.6919  0.2708
  278MOL0     H37476  11.688   9.785   8.443  0.5858  3.0599 -0.5638
  278MOL0     H37477  11.614  10.006   8.460 -1.9495 -0.4587  5.7982
  278MOL0     H37478  11.446   9.951   8.433 -0.6256 -1.9922 -2.7545
  278MOL0     H37479  11.686   9.909   8.233 -0.4772  1.6078 -2.7284
  278MOL0     H37480  11.512   9.892   8.210 -2.2693 -2.5348  4.2980
  278MOL0     H37481  11.411  10.130   8.117 -1.8302  0.1254  2.7857
  278MOL0     H37482  11.524  10.480   8.172 -0.9336  1.0066 -0.0552
  278MOL0     H37483  11.402  10.394   8.087  1.0921 -1.7363 -0.6721
  278MOL0     H37484  11.425  10.447   8.399 -3.3355 -1.2384  3.5706
  278MOL0     H37485  11.328  10.526   8.280  1.8429 -0.6103 -4.3404
  278MOL0     H37486  11.258  10.239   8.266  0.0436  0.2776 -0.8342
  278MOL0     H37487  11.171  10.375   8.346  0.8858  0.5873 -2.9118
  278MOL0     H37488  11.274  10.318   8.551 -1.3458 -1.0835 -0.7077
  278MOL0     H37489  11.397  10.214   8.466  1.3944  1.7618 -2.9548
  278MOL0     H37490  11.387  10.137   8.700 -1.5172  1.0893  0.2314
  278MOL0     H37491  11.401   9.966   8.885  0.1242 -1.6528 -0.8457
  278MOL0     H37492  11.193   9.397   8.976 -2.2522 -1.7898 -0.6397
  278MOL0     H37493  11.168   9.286   9.193  3.7531  2.3672  2.5086
  278MOL0     H37494  10.898   9.478   9.483 -0.8601 -0.8526  1.0323
  278MOL0     H37495  10.850   9.359   9.361 -0.9006 -0.0131 -0.7685
  278MOL0     H37496  10.926   9.168   9.482  0.8785  1.0151 -3.4601
  278MOL0     H37497  10.996   9.275   9.600 -1.3147 -2.9548  0.5132
  278MOL0     H37498  10.773   9.158   9.643  3.2130 -1.1044 -1.6475
  278MOL0     H37499  10.807   9.319   9.704 -0.2350 -1.2921 -0.3845
  278MOL0     H37500  10.642   9.269   9.447  3.7641 -1.4933  0.4663
  278MOL0     H37501  10.665   9.429   9.524 -3.5415  0.5408 -0.9995
  278MOL0     H37502  10.429   9.306   9.552  0.8822  0.6018 -1.1411
  278MOL0     H37503  10.509   9.405   9.675  0.1864 -0.4921  0.0342
  278MOL0     H37504  10.523   9.108   9.654 -4.3487 -0.9463  2.4929
  278MOL0     H37505  10.595   9.210   9.784 -0.8360  2.8553  1.1051
  278MOL0     H37506  10.311   9.195   9.709  0.3357  1.9096 -0.9362
  278MOL0     H37507  10.372   9.280   9.847  0.7404 -0.9895  0.4184
  278MOL0     H37508  10.347   8.981   9.797  1.5056  0.4288  0.2129
  278MOL0     H37509  10.433   9.050   9.939 -0.0805 -0.9632 -1.5416
  278MOL0     H37510  10.974   9.641   9.343  0.5906  2.0049 -1.6805
  278MOL0     H37511  11.034   9.765   9.147 -1.4106 -0.4376  1.5576
  278MOL0     H37512  11.084   9.735   8.678  0.9327 -0.1804 -1.6820
  278MOL0     H37513  11.065   9.905   8.524 -2.2411 -0.3159  0.3992
  278MOL0     H37514  11.217   9.505   7.964  2.4983 -1.9241  3.2261
  278MOL0     H37515  11.156   9.519   7.721  0.5380  1.0107 -2.3876
  278MOL0     H37516  11.121   9.422   7.451 -2.5480  0.7282 -1.7491
  278MOL0     H37517  10.956   9.333   7.285  0.1887 -0.1537  0.7944
  278MOL0     H37518  11.142   9.250   6.901  0.8159  1.9472  2.7620
  278MOL0     H37519  10.971   9.288   6.871  0.5666  1.4482  0.5814
  278MOL0     H37520  11.108   9.024   6.948 -2.0629 -4.6934 -1.6495
  278MOL0     H37521  11.060   9.065   6.793 -2.4579  1.2405 -1.3007
  278MOL0     H37522  10.821   9.108   6.934  3.6530  2.2446  1.0061
  278MOL0     H37523  10.904   8.978   7.018  2.8448  3.2672  1.5075
  278MOL0     H37524  10.916   8.881   6.757  0.9068  2.2482 -0.4713
  278MOL0     H37525  10.761   8.871   6.865  0.9435  1.0120  2.9200
  278MOL0     H37526  10.640   9.064   6.534 -3.9781 -0.7793  2.0755
  278MOL0     H37527  11.292   9.284   7.010 -1.6518  0.0535 -1.0826
  278MOL0     H37528  11.518   9.315   7.071  2.5275  3.0125 -0.7810
  278MOL0     H37529  11.483   9.477   7.051  0.8931 -2.0826 -1.7436
  278MOL0     H37530  11.557   9.420   7.206 -0.3509 -0.7396  1.0344
  279MOL0     O37531   5.734   6.449   4.388  0.3601 -0.6004 -0.0771
  279MOL0     C37532   5.812   6.376   4.335  0.0696  0.1952  0.2127
  279MOL0     O37533   5.803   6.327   4.204 -0.5334 -0.1609  0.2186
  279MOL0     C37534   5.735   6.410   4.114  0.0574  0.3435 -0.1907
  279MOL0     C37535   5.649   6.351   4.024 -0.5323  0.1705 -0.7144
  279MOL0     C37536   5.564   6.424   3.939 -0.4699 -0.8571  0.7236
  279MOL0     C37537   5.572   6.565   3.944  0.8195  0.6189  0.0497
  279MOL0     O37538   5.488   6.639   3.859  0.1410 -0.5239 -0.2372
  279MOL0     C37539   5.560   6.735   3.783  0.7839  0.0850 -0.8273
  279MOL0     C37540   5.523   6.733   3.634  0.3844 -0.0017  0.4039
  279MOL0     C37541   5.518   6.590   3.589 -1.2481  0.1167  0.0650
  279MOL0     C37542   5.523   6.568   3.440 -0.2323 -0.2513 -0.2824
  279MOL0     C37543   5.389   6.506   3.386 -0.4637 -0.4565 -0.0960
  279MOL0     C37544   5.387   6.487   3.241  0.8203 -0.2092  0.6012
  279MOL0     C37545   5.257   6.413   3.192 -0.1682  0.5978  0.2736
  279MOL0     C37546   5.281   6.343   3.052 -1.3295  1.3224 -0.1414
  279MOL0     N37547   5.393   6.248   3.041  0.2503 -0.5435 -0.0251
  279MOL0     C37548   5.413   6.147   3.125  1.5406 -0.4077  1.0299
  279MOL0     C37549   5.531   6.092   3.098 -0.6578 -0.1512 -0.2208
  279MOL0     C37550   5.587   5.973   3.180 -0.4099 -0.1692  0.2859
  279MOL0     C37551   5.640   6.004   3.323  0.0510 -0.5270 -0.2510
  279MOL0     C37552   5.759   6.101   3.318  0.8711  0.2635 -0.4486
  279MOL0     C37553   5.802   6.141   3.458  0.5444  0.6258  0.3371
  279MOL0     O37554   5.905   6.055   3.505  0.3440  0.1932  0.4464
  279MOL0     C37555   5.980   6.107   3.621  1.0773  0.1649  0.1208
  279MOL0     C37556   5.924   6.168   3.734  0.1025 -0.4978  0.4203
  279MOL0     C37557   5.996   6.214   3.840 -0.2786 -0.1097  0.3705
  279MOL0     C37558   6.137   6.183   3.830 -0.5972  1.1057  0.4839
  279MOL0     C37559   6.215   6.203   3.958  0.3382 -0.8335 -0.0825
  279MOL0     O37560   6.340   6.154   3.963  0.0880  0.0487 -0.6097
  279MOL0     C37561   6.437   6.181   4.061 -0.3355  0.2102 -0.3136
  279MOL0     C37562   6.528   6.079   4.079 -0.6893  0.9820 -0.2204
  279MOL0     C37563   6.635   6.079   4.175 -0.8456 -0.3394 -0.5516
  279MOL0     C37564   6.648   6.199   4.249  0.2912  0.3063  0.1814
  279MOL0     O37565   6.731   6.222   4.365  0.0564 -0.2591 -0.7166
  279MOL0     C37566   6.866   6.180   4.348 -0.2099  0.3708  0.1482
  279MOL0     C37567   6.945   6.275   4.268  1.0044 -0.6457 -0.5161
  279MOL0     C37568   7.083   6.218   4.227  0.1327 -0.0397 -0.2464
  279MOL0     C37569   7.099   6.083   4.154  0.7856 -0.5321 -1.1385
  279MOL0     C37570   7.258   6.053   4.127  0.1213 -0.8564 -1.0966
  279MOL0     C37571   7.263   5.944   4.019 -0.0199 -0.4244  0.1539
  279MOL0     C37572   7.261   5.989   3.867  0.2570  0.2178  0.5267
  279MOL0     C37573   7.252   5.878   3.760  0.8367 -0.1930  0.3456
  279MOL0    Cl37574   7.080   5.844   3.758 -0.6008  0.4331  0.5844
  279MOL0     C37575   6.551   6.300   4.229  0.0002  0.6961 -0.1204
  279MOL0     C37576   6.448   6.289   4.139 -0.2621 -0.1049 -0.6457
  279MOL0     O37577   6.168   6.269   4.048 -0.5902 -0.4053 -1.0298
  279MOL0     C37578   6.199   6.124   3.720  0.8245 -0.2370 -0.8827
  279MOL0     C37579   6.112   6.080   3.613  1.1520 -0.2623 -1.0340
  279MOL0     N37580   5.590   6.163   2.990  0.1729  0.1865 -0.1520
  279MOL0     N37581   5.495   6.259   2.954 -0.5041 -0.0306 -0.6550
  279MOL0     C37582   5.651   6.625   4.043  0.5070  0.8480 -0.1529
  279MOL0     C37583   5.739   6.551   4.119  0.4730  0.8036 -0.2968
  279MOL0     C37584   5.931   6.332   4.408 -1.6455  0.6489  0.4831
  279MOL0     C37585   6.013   6.231   4.340 -0.2320 -0.5591 -0.3040
  279MOL0     C37586   6.133   6.185   4.389 -0.7298 -1.2570 -0.4745
  279MOL0     C37587   6.173   6.230   4.521 -0.1774 -0.8732  0.4761
  279MOL0     O37588   6.282   6.185   4.595  0.5895  0.1478 -0.2353
  279MOL0     C37589   6.356   6.075   4.549  0.0385 -0.1409 -0.5906
  279MOL0     C37590   6.457   6.027   4.644 -0.2860  0.3469  0.1751
  279MOL0     C37591   6.569   6.130   4.669  0.7985  0.4640 -0.8974
  279MOL0     C37592   6.694   6.073   4.735 -0.1243 -0.5222  0.8972
  279MOL0     C37593   6.766   5.989   4.632  0.5691  0.2784 -0.9399
  279MOL0     C37594   6.814   5.916   4.541  0.0593 -0.3606 -0.4327
  279MOL0     C37595   6.104   6.329   4.590 -0.4363 -0.0335  0.5056
  279MOL0     C37596   5.986   6.380   4.530  1.3063  0.4690 -1.2708
  279MOL0     C37597   5.899   6.457   4.631 -0.4787 -0.0556 -0.5184
  279MOL0     H37598   5.634   6.244   4.028 -2.8508  0.4038 -1.7947
  279MOL0     H37599   5.501   6.375   3.865 -0.7438 -0.0301  0.3926
  279MOL0     H37600   5.544   6.835   3.826 -3.6082  0.1413 -2.1616
  279MOL0     H37601   5.670   6.733   3.785  0.7885  0.1472 -1.0946
  279MOL0     H37602   5.598   6.780   3.569  0.0558 -0.5817 -0.4237
  279MOL0     H37603   5.424   6.770   3.603  1.1210 -0.2190 -2.5105
  279MOL0     H37604   5.429   6.539   3.626 -1.6541 -0.2647 -1.3886
  279MOL0     H37605   5.609   6.551   3.635 -2.1061 -1.7857  0.2315
  279MOL0     H37606   5.543   6.663   3.390 -1.6494 -0.5590 -1.5145
  279MOL0     H37607   5.613   6.507   3.424 -0.4836 -1.2927  1.8286
  279MOL0     H37608   5.392   6.405   3.430  4.9498 -0.9363 -0.7984
  279MOL0     H37609   5.296   6.556   3.413 -0.2737 -0.6480  0.9731
  279MOL0     H37610   5.373   6.585   3.195 -1.9202 -1.6352 -2.0035
  279MOL0     H37611   5.471   6.435   3.195 -0.9777 -1.5898 -1.3790
  279MOL0     H37612   5.174   6.484   3.189 -0.6103  0.0634 -0.2161
  279MOL0     H37613   5.227   6.330   3.257  1.5897 -1.3871 -1.3330
  279MOL0     H37614   5.197   6.278   3.026 -1.8787  0.1142  4.0092
  279MOL0     H37615   5.295   6.413   2.969 -1.2789 -1.3792 -2.6108
  279MOL0     H37616   5.346   6.111   3.202 -0.1065  0.7223  0.1953
  279MOL0     H37617   5.513   5.893   3.187  2.1204 -2.8717 -1.8559
  279MOL0     H37618   5.675   5.932   3.131  1.1212 -0.2762  2.9515
  279MOL0     H37619   5.559   6.041   3.387  0.3809 -0.0254 -0.1184
  279MOL0     H37620   5.667   5.909   3.371  0.2281 -0.6518 -0.5997
  279MOL0     H37621   5.737   6.192   3.261  0.7611 -0.2284 -1.2041
  279MOL0     H37622   5.834   6.052   3.255 -1.1150  1.2066 -3.8474
  279MOL0     H37623   5.716   6.146   3.526  0.7400  5.1229  0.5696
  279MOL0     H37624   5.857   6.235   3.448 -0.6129  1.1944 -1.1452
  279MOL0     H37625   5.816   6.174   3.731 -0.0397 -2.6742 -0.8775
  279MOL0     H37626   5.952   6.251   3.932  2.2107  4.3587  0.0637
  279MOL0     H37627   6.524   5.995   4.010 -0.4643  0.4883  0.3538
  279MOL0     H37628   6.703   5.995   4.182 -2.3388 -1.5260  0.3935
  279MOL0     H37629   6.913   6.155   4.443 -1.0240 -0.6124  0.3100
  279MOL0     H37630   6.855   6.086   4.293  2.0545 -0.4303  0.9461
  279MOL0     H37631   6.893   6.290   4.173  1.2207 -0.9795 -0.6893
  279MOL0     H37632   6.959   6.366   4.328 -1.8571  2.5521 -4.1450
  279MOL0     H37633   7.139   6.289   4.165  0.1276 -1.6239 -2.2026
  279MOL0     H37634   7.141   6.224   4.319  0.5295 -1.4419 -0.3768
  279MOL0     H37635   7.040   6.092   4.062  0.3908 -0.7263 -0.9060
  279MOL0     H37636   7.062   5.996   4.209  3.7045 -2.4858 -2.0165
  279MOL0     H37637   7.322   6.033   4.213  0.7313  0.8753 -1.1077
  279MOL0     H37638   7.294   6.146   4.083 -1.9188 -0.2147 -1.5209
  279MOL0     H37639   7.361   5.898   4.035  0.6441  0.9297  0.0766
  279MOL0     H37640   7.182   5.872   4.034 -0.9817  0.2412 -1.6455
  279MOL0     H37641   7.355   6.035   3.836 -0.7694  1.2384 -1.2282
  279MOL0     H37642   7.179   6.059   3.849 -1.4523 -1.7767  0.2195
  279MOL0     H37643   7.292   5.915   3.665 -0.3250  3.0699  0.9967
  279MOL0     H37644   7.311   5.792   3.795  2.0838  0.3193 -0.4589
  279MOL0     H37645   6.567   6.391   4.287  2.9084 -1.9263  3.6476
  279MOL0     H37646   6.380   6.373   4.136 -1.5056 -1.1057 -1.7000
  279MOL0     H37647   6.307   6.116   3.713  0.8002  0.2607 -2.0410
  279MOL0     H37648   6.153   6.037   3.522  0.7972 -0.4431 -1.1094
  279MOL0     H37649   5.637   6.730   4.062 -1.5374  0.3817  1.2241
  279MOL0     H37650   5.795   6.608   4.192  1.0723 -0.3295  0.1573
  279MOL0     H37651   5.987   6.171   4.254  1.3978 -1.0183 -0.5177
  279MOL0     H37652   6.189   6.113   4.332  2.1326 -0.4143  1.0669
  279MOL0     H37653   6.396   6.117   4.456 -0.1157 -0.2729 -0.7168
  279MOL0     H37654   6.288   5.991   4.536 -0.6102  0.0712  1.1498
  279MOL0     H37655   6.501   5.941   4.593 -0.1957 -2.0353  3.8956
  279MOL0     H37656   6.411   5.988   4.735  2.4156 -0.2434  1.3967
  279MOL0     H37657   6.517   6.202   4.733 -2.0792 -1.0395 -1.3906
  279MOL0     H37658   6.600   6.180   4.577  2.1569 -0.9742 -1.2619
  279MOL0     H37659   6.760   6.154   4.767 -0.4889  1.1906 -2.2654
  279MOL0     H37660   6.675   6.010   4.823 -1.8242 -0.0579  0.8972
  279MOL0     H37661   6.868   5.848   4.478  2.1645 -1.4722  2.3364
  279MOL0     H37662   6.142   6.364   4.685  2.4463 -1.6466  0.0527
  279MOL0     H37663   5.951   6.481   4.725  1.0076  0.3553 -1.4209
  279MOL0     H37664   5.854   6.548   4.591 -0.8934  0.3861  0.8787
  279MOL0     H37665   5.817   6.391   4.660  1.8288 -2.8113  0.1665
  280MOL0     O37666   6.472   0.734  11.021 -0.0359 -0.0027 -0.6919
  280MOL0     C37667   6.453   0.717  11.144  0.9838  1.3033  0.1088
  280MOL0     O37668   6.331   0.685  11.198  0.5512  0.9198 -0.2477
  280MOL0     C37669   6.232   0.669  11.106 -0.0297 -0.8327 -0.3972
  280MOL0     C37670   6.231   0.552  11.022 -0.2958 -1.0068 -0.3782
  280MOL0     C37671   6.135   0.554  10.914 -0.5933  0.2769 -0.1616
  280MOL0     C37672   6.036   0.648  10.904  0.7217 -0.0736  0.4954
  280MOL0     O37673   5.957   0.637  10.793 -0.2052 -0.4600 -0.6818
  280MOL0     C37674   5.948   0.749  10.714 -0.0198 -0.3370 -0.4754
  280MOL0     C37675   5.942   0.715  10.572  0.1412  0.0082  0.6522
  280MOL0     C37676   5.812   0.646  10.523 -0.7972 -0.1167  0.2166
  280MOL0     C37677   5.702   0.748  10.504  0.7718 -0.0072  0.4306
  280MOL0     C37678   5.713   0.826  10.371 -0.0458  0.5519  0.0534
  280MOL0     C37679   5.719   0.738  10.246  0.4104 -0.8407 -0.1589
  280MOL0     C37680   5.692   0.835  10.124  0.4589  0.2094 -0.2289
  280MOL0     C37681   5.723   0.756   9.991 -0.3947 -0.4292 -0.7303
  280MOL0     N37682   5.671   0.619   9.979 -0.3924 -0.8178 -0.2380
  280MOL0     C37683   5.552   0.564  10.039  0.1204 -0.1311  0.1106
  280MOL0     C37684   5.539   0.441   9.996  0.1139  0.1978  0.0037
  280MOL0     C37685   5.442   0.339  10.056  0.1462  0.1205 -0.5214
  280MOL0     C37686   5.508   0.284  10.187 -0.2565  0.4425 -0.2937
  280MOL0     C37687   5.407   0.200  10.272 -0.1447 -0.0167 -0.9382
  280MOL0     C37688   5.473   0.148  10.396  0.5140 -0.1882 -0.0468
  280MOL0     O37689   5.556   0.246  10.462 -0.2282  0.0248  0.3720
  280MOL0     C37690   5.561   0.249  10.598  0.4906 -0.1921 -0.0359
  280MOL0     C37691   5.502   0.162  10.690 -0.9724  0.4768 -0.1333
  280MOL0     C37692   5.537   0.160  10.828 -0.6009 -0.0569  0.0016
  280MOL0     C37693   5.647   0.237  10.872 -0.1446 -0.1717  0.6318
  280MOL0     C37694   5.690   0.231  11.024  0.5246  0.0404 -1.0403
  280MOL0     O37695   5.781   0.326  11.064  0.5250  0.1858  0.5458
  280MOL0     C37696   5.797   0.352  11.193 -0.2413  0.5415  0.0797
  280MOL0     C37697   5.699   0.361  11.296  0.3625  0.8639 -0.2985
  280MOL0     C37698   5.736   0.364  11.435  0.4152  1.2159 -0.4745
  280MOL0     C37699   5.869   0.391  11.469  0.3175 -0.1513  0.4280
  280MOL0     O37700   5.919   0.408  11.599  0.4381 -0.4784  0.6806
  280MOL0     C37701   5.844   0.506  11.678  0.6307  0.2006  0.5705
  280MOL0     C37702   5.928   0.613  11.756 -0.6154 -0.2022 -0.0878
  280MOL0     C37703   5.851   0.749  11.747  1.0175 -0.2268 -0.6298
  280MOL0     C37704   5.720   0.748  11.823  0.6329  0.4727  1.1252
  280MOL0     C37705   5.743   0.798  11.966 -0.0278 -0.0159 -0.2157
  280MOL0     C37706   5.620   0.766  12.058  0.7644 -0.9978  0.2316
  280MOL0     C37707   5.600   0.622  12.081 -1.3070 -0.1023 -0.0223
  280MOL0     C37708   5.489   0.590  12.181 -0.1238 -0.3644  1.1595
  280MOL0    Cl37709   5.516   0.669  12.337 -0.4509 -0.0175 -0.4246
  280MOL0     C37710   5.965   0.381  11.366  0.2489 -0.4702  0.3016
  280MOL0     C37711   5.926   0.365  11.233  0.3895  0.5835 -0.3433
  280MOL0     O37712   5.640   0.149  11.097  0.8158  0.3603 -0.4882
  280MOL0     C37713   5.708   0.331  10.786  0.7302  0.3165  0.2048
  280MOL0     C37714   5.665   0.338  10.650  0.8293 -0.5261 -0.7682
  280MOL0     N37715   5.647   0.415   9.916 -0.2307 -0.0983 -0.1782
  280MOL0     N37716   5.721   0.520   9.906 -0.4026 -0.5084 -0.7149
  280MOL0     C37717   6.034   0.753  11.001 -0.5512 -0.0746  0.1448
  280MOL0     C37718   6.132   0.764  11.098 -0.0150  0.0341  0.8768
  280MOL0     C37719   6.570   0.739  11.235 -0.0495  0.2060 -0.3747
  280MOL0     C37720   6.561   0.690  11.370 -0.7777 -0.2339 -0.0869
  280MOL0     C37721   6.657   0.712  11.463 -0.2879  0.4901  0.5294
  280MOL0     C37722   6.778   0.778  11.412 -0.1639  0.0725 -0.9013
  280MOL0     O37723   6.868   0.814  11.510  0.2675 -0.7308  0.0785
  280MOL0     C37724   6.999   0.876  11.484  0.2831 -0.2699  0.6397
  280MOL0     C37725   6.991   1.015  11.542  0.2818 -0.4211  0.2253
  280MOL0     C37726   6.991   1.028  11.697  0.0234  0.6120  0.1163
  280MOL0     C37727   7.122   0.990  11.761  0.0133 -0.4150 -0.6829
  280MOL0     C37728   7.133   1.075  11.874  0.4628  0.0956  0.4088
  280MOL0     C37729   7.143   1.153  11.968  0.1383 -0.2450 -0.0814
  280MOL0     C37730   6.789   0.817  11.285 -0.1622  0.0869 -0.2853
  280MOL0     C37731   6.691   0.809  11.189  0.7320 -0.3021 -0.4618
  280MOL0     C37732   6.710   0.872  11.053  0.3969 -0.1420  0.4279
  280MOL0     H37733   6.308   0.475  11.028 -0.1618 -1.6801 -5.9910
  280MOL0     H37734   6.141   0.472  10.842 -1.9475  0.3520 -0.3811
  280MOL0     H37735   5.854   0.789  10.754 -1.6018 -2.7188 -1.5452
  280MOL0     H37736   6.023   0.825  10.732 -1.4731  1.1710 -0.5631
  280MOL0     H37737   6.029   0.648  10.562  1.7911  2.0282  0.8486
  280MOL0     H37738   5.965   0.796  10.502 -0.8005  2.1140  2.6627
  280MOL0     H37739   5.790   0.582  10.609  0.1029  1.1932  1.4719
  280MOL0     H37740   5.825   0.573  10.442 -0.8507  0.5755 -0.4249
  280MOL0     H37741   5.612   0.693  10.532  1.3711  0.1445  2.8626
  280MOL0     H37742   5.703   0.826  10.581 -0.4760 -0.1281  0.5824
  280MOL0     H37743   5.628   0.893  10.355 -1.9155 -1.4350  1.3491
  280MOL0     H37744   5.801   0.891  10.383 -0.8602  1.3563  2.0343
  280MOL0     H37745   5.816   0.692  10.227  0.2761 -0.6879 -1.2842
  280MOL0     H37746   5.656   0.649  10.246 -0.1764 -0.7417 -5.6372
  280MOL0     H37747   5.757   0.923  10.128 -2.0984  2.2532 -0.6599
  280MOL0     H37748   5.588   0.868  10.124  0.3055 -0.2612 -0.4050
  280MOL0     H37749   5.674   0.815   9.913 -0.8134  1.0526  0.5923
  280MOL0     H37750   5.832   0.749   9.980 -0.6063 -2.3909 -2.1899
  280MOL0     H37751   5.487   0.618  10.107  3.6230  1.9492  2.1103
  280MOL0     H37752   5.339   0.375  10.061  0.3636  0.5510  1.3992
  280MOL0     H37753   5.422   0.257   9.986 -2.3236  0.9982 -0.9420
  280MOL0     H37754   5.596   0.222  10.166  0.4771  0.5632  2.1798
  280MOL0     H37755   5.557   0.366  10.239  2.9069 -1.0570 -0.6309
  280MOL0     H37756   5.370   0.114  10.216 -0.3005  0.0858 -0.9929
  280MOL0     H37757   5.327   0.269  10.299  1.4656  1.1944  1.1321
  280MOL0     H37758   5.539   0.063  10.377  1.8307  0.3673  1.6807
  280MOL0     H37759   5.390   0.114  10.458  0.5958 -0.2339  0.0375
  280MOL0     H37760   5.434   0.086  10.654  0.0974  0.6047 -2.5794
  280MOL0     H37761   5.491   0.087  10.894  0.5864 -3.1461 -2.3300
  280MOL0     H37762   5.594   0.355  11.268 -0.4968  1.2962  2.5044
  280MOL0     H37763   5.662   0.352  11.514  0.6634  0.0791 -0.3881
  280MOL0     H37764   5.774   0.562  11.615  0.4798 -1.1858 -0.5586
  280MOL0     H37765   5.784   0.451  11.751 -1.2724  2.9882  1.2502
  280MOL0     H37766   5.948   0.579  11.858 -1.1315 -1.1715 -0.2936
  280MOL0     H37767   6.025   0.615  11.706 -0.1922 -2.0993  0.5663
  280MOL0     H37768   5.912   0.830  11.788 -0.9548  0.9498  0.1213
  280MOL0     H37769   5.828   0.771  11.642 -1.1639  1.0234  0.0576
  280MOL0     H37770   5.671   0.653  11.801 -1.3945  2.0120 -1.6130
  280MOL0     H37771   5.653   0.823  11.779  0.9976  0.4356  0.4853
  280MOL0     H37772   5.762   0.906  11.974  2.2041 -0.3051 -0.9735
  280MOL0     H37773   5.836   0.764  12.012 -1.0426  0.4719  2.3766
  280MOL0     H37774   5.637   0.822  12.151  0.9257 -0.4597 -0.1214
  280MOL0     H37775   5.528   0.808  12.017  0.5191 -2.8863 -1.3202
  280MOL0     H37776   5.698   0.578  12.103 -1.7731 -1.6515 -0.8432
  280MOL0     H37777   5.576   0.575  11.985  3.1193 -1.3023 -0.8145
  280MOL0     H37778   5.401   0.629  12.128 -1.0555 -1.5794  1.7485
  280MOL0     H37779   5.463   0.484  12.184 -0.9324 -0.2584 -0.4973
  280MOL0     H37780   6.069   0.410  11.378 -0.4789  3.6836 -1.4690
  280MOL0     H37781   6.009   0.353  11.164 -0.3667  0.3073 -1.2254
  280MOL0     H37782   5.795   0.387  10.819  3.2421 -2.5713 -1.0679
  280MOL0     H37783   5.725   0.394  10.579  1.3404  0.6276  0.5256
  280MOL0     H37784   5.958   0.829  10.984  0.8690  1.1835 -0.8111
  280MOL0     H37785   6.133   0.842  11.174  2.6506  0.5060  0.4415
  280MOL0     H37786   6.478   0.634  11.411  1.2061 -1.1288  3.0527
  280MOL0     H37787   6.648   0.676  11.565 -1.5849 -2.5775 -0.5367
  280MOL0     H37788   7.025   0.883  11.378 -0.9507  0.1433  0.3568
  280MOL0     H37789   7.075   0.816  11.537  0.7202 -0.2579  0.0347
  280MOL0     H37790   6.899   1.067  11.516  1.4046  1.8549  0.5055
  280MOL0     H37791   7.071   1.081  11.507  0.8867 -0.5807  1.2583
  280MOL0     H37792   6.897   0.993  11.740  0.2083  2.3668  2.1090
  280MOL0     H37793   6.971   1.135  11.709 -1.6850  0.1169  2.4815
  280MOL0     H37794   7.126   0.883  11.784  0.4229 -0.4208 -0.7825
  280MOL0     H37795   7.208   1.008  11.696  2.0092  1.2736  2.1583
  280MOL0     H37796   7.145   1.211  12.059 -0.7171 -2.5385  1.4866
  280MOL0     H37797   6.881   0.867  11.258  1.2208  0.2977  4.0325
  280MOL0     H37798   6.616   0.915  11.018 -0.2658 -1.6435  0.2954
  280MOL0     H37799   6.784   0.953  11.053  0.8602 -0.5023 -2.1128
  280MOL0     H37800   6.747   0.794  10.986  0.8976  0.1943  0.3031
  281MOL0     O37801   3.686   4.436   2.582 -0.5657  0.3522  0.0603
  281MOL0     C37802   3.634   4.337   2.532  0.0215  0.3303 -0.4374
  281MOL0     O37803   3.541   4.256   2.603  0.8004 -0.3926  0.9935
  281MOL0     C37804   3.530   4.289   2.734  0.7969 -0.3660  0.1198
  281MOL0     C37805   3.617   4.234   2.827 -0.1445  0.2853 -0.1078
  281MOL0     C37806   3.608   4.268   2.961  0.3091 -0.4385  0.3050
  281MOL0     C37807   3.511   4.353   3.007  0.9847 -1.4124 -0.1766
  281MOL0     O37808   3.512   4.384   3.144 -0.2924 -0.3353  0.2597
  281MOL0     C37809   3.547   4.516   3.172 -0.0581 -0.6570  0.6388
  281MOL0     C37810   3.513   4.557   3.320 -0.0355  0.0400  0.2885
  281MOL0     C37811   3.358   4.560   3.340  0.5051 -0.3094  0.6526
  281MOL0     C37812   3.321   4.654   3.462 -0.5302 -0.7782  0.1262
  281MOL0     C37813   3.180   4.601   3.516 -0.6477  0.5146 -0.0039
  281MOL0     C37814   3.071   4.657   3.431 -0.8850 -0.3411 -1.1702
  281MOL0     C37815   2.932   4.656   3.506  0.0452 -0.2900 -0.6709
  281MOL0     C37816   2.894   4.761   3.607 -0.8769 -0.0335 -0.2274
  281MOL0     N37817   2.911   4.898   3.543  0.1346 -0.0799  0.4099
  281MOL0     C37818   2.800   4.961   3.475 -0.7465 -0.4954 -0.6026
  281MOL0     C37819   2.858   5.075   3.435  0.7025  0.1251  0.0534
  281MOL0     C37820   2.796   5.177   3.341  0.7018 -0.5637  0.0136
  281MOL0     C37821   2.755   5.124   3.210 -0.6269 -0.1319 -0.4513
  281MOL0     C37822   2.711   5.234   3.109 -0.2571 -0.8985  0.5957
  281MOL0     C37823   2.573   5.295   3.144 -0.9192  0.1671 -0.8589
  281MOL0     O37824   2.485   5.191   3.184  0.2931 -0.1016  0.0122
  281MOL0     C37825   2.381   5.248   3.248  0.1024  1.2085 -0.0432
  281MOL0     C37826   2.377   5.284   3.386  0.3768  1.7881  0.1327
  281MOL0     C37827   2.261   5.347   3.442  0.7735 -0.4199 -0.5268
  281MOL0     C37828   2.153   5.381   3.354 -0.2734  0.4326  0.3439
  281MOL0     C37829   2.045   5.460   3.412 -0.4035 -0.5836  0.0984
  281MOL0     O37830   2.057   5.506   3.541  0.5916  0.3179 -0.0889
  281MOL0     C37831   1.943   5.570   3.584  1.1127  0.3593 -0.4276
  281MOL0     C37832   1.833   5.494   3.621  0.3479 -0.9147 -0.7498
  281MOL0     C37833   1.714   5.568   3.666  0.7366 -0.3539  0.9470
  281MOL0     C37834   1.714   5.708   3.677 -0.0185 -0.0881 -0.7080
  281MOL0     O37835   1.597   5.779   3.713 -0.4634 -0.2118 -0.5205
  281MOL0     C37836   1.476   5.708   3.747  0.3710 -0.5687  0.8412
  281MOL0     C37837   1.357   5.807   3.757  0.8673  1.3316  0.0669
  281MOL0     C37838   1.224   5.722   3.792  0.7855 -0.0448  1.0411
  281MOL0     C37839   1.102   5.802   3.857 -0.3161 -0.3163  0.8198
  281MOL0     C37840   1.065   5.923   3.773 -0.0225 -0.0131 -0.1855
  281MOL0     C37841   0.940   5.990   3.837  0.8602  0.3196 -0.4975
  281MOL0     C37842   0.915   6.125   3.767  0.1908 -0.1762  0.6955
  281MOL0     C37843   0.971   6.247   3.840  0.6036  0.2601  0.4719
  281MOL0    Cl37844   0.915   6.255   4.013  0.0019 -0.1494  0.6817
  281MOL0     C37845   1.828   5.777   3.648  0.0117 -0.0568  0.4156
  281MOL0     C37846   1.942   5.707   3.607  0.1582 -0.7051  0.3531
  281MOL0     O37847   1.957   5.490   3.336  0.2792 -0.8287  0.7236
  281MOL0     C37848   2.162   5.342   3.219 -0.6251 -0.5684 -1.1294
  281MOL0     C37849   2.275   5.278   3.172  0.4336 -1.3026  0.2653
  281MOL0     N37850   2.980   5.101   3.493 -0.5302 -0.2310  0.0362
  281MOL0     N37851   3.018   4.995   3.560 -0.4798  0.3681 -0.0844
  281MOL0     C37852   3.426   4.411   2.912  0.5255 -0.8231 -1.5290
  281MOL0     C37853   3.439   4.385   2.777 -0.2438  0.8335 -0.0313
  281MOL0     C37854   3.679   4.303   2.394 -0.2312 -0.1175 -0.5389
  281MOL0     C37855   3.635   4.179   2.351 -0.6251  0.2574  0.1994
  281MOL0     C37856   3.682   4.124   2.227  0.4750 -0.4397  0.5195
  281MOL0     C37857   3.762   4.200   2.139 -0.6728  0.0924 -0.3355
  281MOL0     O37858   3.792   4.143   2.016  0.3718  0.4975  0.6107
  281MOL0     C37859   3.872   4.210   1.915  0.8929  1.1561 -0.7230
  281MOL0     C37860   3.778   4.251   1.805 -0.3993 -0.6213 -0.5599
  281MOL0     C37861   3.704   4.373   1.861  0.4041  0.6666  1.0928
  281MOL0     C37862   3.610   4.424   1.748 -0.2960  0.1042 -0.3191
  281MOL0     C37863   3.521   4.526   1.800 -1.4431  0.5273  0.7106
  281MOL0     C37864   3.455   4.612   1.842  0.2267 -0.2561  0.3096
  281MOL0     C37865   3.818   4.314   2.188  0.4290 -0.0980 -0.1946
  281MOL0     C37866   3.778   4.375   2.311 -0.2526 -0.4167 -0.0824
  281MOL0     C37867   3.859   4.497   2.360  0.3458  0.9468 -0.2296
  281MOL0     H37868   3.689   4.161   2.793 -0.2486  1.4374 -3.0476
  281MOL0     H37869   3.665   4.222   3.041  1.1232  2.2351  1.3683
  281MOL0     H37870   3.656   4.518   3.182 -0.2037 -2.5752  3.7012
  281MOL0     H37871   3.509   4.590   3.100 -0.3503 -2.8234 -1.5803
  281MOL0     H37872   3.549   4.659   3.339 -1.1134  0.9644 -2.1491
  281MOL0     H37873   3.564   4.481   3.379 -0.3138  0.9634  1.7549
  281MOL0     H37874   3.331   4.457   3.366  0.1231  0.0563  1.7113
  281MOL0     H37875   3.307   4.583   3.246 -0.1791  0.6583  1.2503
  281MOL0     H37876   3.403   4.656   3.534 -1.0204  1.6870  0.7154
  281MOL0     H37877   3.299   4.759   3.440 -2.0208 -0.3088  3.3267
  281MOL0     H37878   3.182   4.492   3.512  0.0505  0.4646  1.2928
  281MOL0     H37879   3.158   4.634   3.618  0.0511 -3.1758  1.4750
  281MOL0     H37880   3.091   4.756   3.389 -0.1508  0.0036 -0.0476
  281MOL0     H37881   3.076   4.598   3.339 -2.1909 -0.8337 -0.9555
  281MOL0     H37882   2.915   4.559   3.553 -0.1770  0.1134  0.0871
  281MOL0     H37883   2.863   4.666   3.422 -2.6054  0.4784  1.4812
  281MOL0     H37884   2.791   4.740   3.636 -1.2217  0.1439 -1.2834
  281MOL0     H37885   2.962   4.748   3.691 -0.8491 -1.3607 -0.4289
  281MOL0     H37886   2.699   4.932   3.447 -1.3927 -0.2593  1.3682
  281MOL0     H37887   2.709   5.219   3.392  0.5983 -2.8218  1.8882
  281MOL0     H37888   2.867   5.259   3.330  0.2868 -0.0550  1.0074
  281MOL0     H37889   2.843   5.076   3.167 -1.0017 -3.1232  1.7498
  281MOL0     H37890   2.675   5.049   3.210 -2.7407  1.8398 -4.1329
  281MOL0     H37891   2.716   5.189   3.009  2.5129 -1.1459  0.7697
  281MOL0     H37892   2.786   5.313   3.112 -1.1089 -0.0779  0.5264
  281MOL0     H37893   2.535   5.357   3.062  0.3705 -0.8050 -2.2409
  281MOL0     H37894   2.589   5.366   3.226 -2.4272 -0.0524 -0.3426
  281MOL0     H37895   2.468   5.278   3.444 -0.1121 -0.2951  0.7818
  281MOL0     H37896   2.258   5.380   3.545 -2.8544 -1.9071 -0.0055
  281MOL0     H37897   1.826   5.386   3.612 -3.1896 -0.7225 -1.9830
  281MOL0     H37898   1.626   5.509   3.693  0.9288 -1.3360 -0.4584
  281MOL0     H37899   1.454   5.636   3.668 -2.8232  1.4554 -0.3215
  281MOL0     H37900   1.508   5.658   3.839  3.9217  0.5244  0.3332
  281MOL0     H37901   1.376   5.898   3.813 -3.7563  3.4827 -1.3388
  281MOL0     H37902   1.346   5.833   3.651 -1.5027 -2.0400 -0.7067
  281MOL0     H37903   1.185   5.671   3.703 -0.6211  1.1859  0.9151
  281MOL0     H37904   1.245   5.655   3.876  3.2647  4.2296  4.2107
  281MOL0     H37905   1.138   5.828   3.957  1.2693 -2.2377  0.7979
  281MOL0     H37906   1.019   5.731   3.864 -0.0681 -0.8447 -0.9074
  281MOL0     H37907   1.055   5.894   3.668  1.8881 -2.2731  0.1810
  281MOL0     H37908   1.140   6.003   3.783  0.5606 -0.3147 -1.8143
  281MOL0     H37909   0.856   5.925   3.811  1.0836 -0.1710  0.0191
  281MOL0     H37910   0.938   6.014   3.943 -2.6279  0.1685 -0.4051
  281MOL0     H37911   0.808   6.149   3.766  0.6898  2.7356  2.7855
  281MOL0     H37912   0.951   6.127   3.664 -0.5671 -0.1373  0.4283
  281MOL0     H37913   1.081   6.247   3.845  0.8074 -4.3165 -0.0010
  281MOL0     H37914   0.931   6.330   3.781 -0.2911  0.0273  0.7419
  281MOL0     H37915   1.820   5.884   3.661  0.2227  0.1176 -0.7608
  281MOL0     H37916   2.033   5.763   3.585  0.5609 -2.0118 -1.6544
  281MOL0     H37917   2.094   5.378   3.142  0.9463  3.5973 -0.8404
  281MOL0     H37918   2.271   5.250   3.067  1.5502 -2.7391  0.5765
  281MOL0     H37919   3.363   4.492   2.945  3.2023 -0.2329  3.0712
  281MOL0     H37920   3.374   4.436   2.706 -0.8704 -1.9106 -1.5984
  281MOL0     H37921   3.567   4.111   2.399 -0.4781 -0.4925 -0.6328
  281MOL0     H37922   3.631   4.036   2.189  0.4215  0.0813 -0.6689
  281MOL0     H37923   3.929   4.129   1.869 -2.7647 -0.0635 -3.6015
  281MOL0     H37924   3.945   4.287   1.945  2.1661 -0.3638  0.2288
  281MOL0     H37925   3.708   4.169   1.788 -0.7487 -1.1145  2.6133
  281MOL0     H37926   3.821   4.271   1.707 -2.8880  1.0288 -1.3904
  281MOL0     H37927   3.776   4.443   1.904  1.4085 -0.2709  0.9762
  281MOL0     H37928   3.640   4.328   1.937  0.1138  1.6164  1.4269
  281MOL0     H37929   3.673   4.463   1.668  2.1146 -1.3907  0.7550
  281MOL0     H37930   3.540   4.345   1.717  0.0072 -0.8371  1.2427
  281MOL0     H37931   3.394   4.685   1.892  0.1513 -1.0939  1.4613
  281MOL0     H37932   3.865   4.376   2.112 -1.1787 -0.7910 -1.8292
  281MOL0     H37933   3.928   4.471   2.441  0.2614  2.7869  0.4780
  281MOL0     H37934   3.910   4.545   2.276  1.7989  0.2294  0.1947
  281MOL0     H37935   3.788   4.568   2.402 -2.4579 -1.6952 -0.1195
  282MOL0     O37936   3.705  10.832   6.739 -0.0094 -0.5705 -0.0908
  282MOL0     C37937   3.712  10.840   6.619 -0.3523 -0.4593 -0.2663
  282MOL0     O37938   3.768  10.943   6.548 -0.1807  0.2886  0.5276
  282MOL0     C37939   3.790  11.067   6.608 -0.9583 -0.4815 -0.1172
  282MOL0     C37940   3.752  11.106   6.736  0.1567  0.1992 -0.1145
  282MOL0     C37941   3.769  11.235   6.777  0.2157 -0.6237  1.3031
  282MOL0     C37942   3.818  11.337   6.695  1.1708 -0.2623 -0.0164
  282MOL0     O37943   3.820  11.467   6.728  0.4168 -0.2835 -0.1686
  282MOL0     C37944   3.942  11.536   6.744  0.3116  0.0859  0.2009
  282MOL0     C37945   3.931  11.658   6.837  0.7656 -0.4475 -0.0862
  282MOL0     C37946   3.901  11.783   6.748 -0.4926  0.7379 -0.3969
  282MOL0     C37947   3.866  11.898   6.841  0.0200 -0.7391  0.5285
  282MOL0     C37948   3.878  12.024   6.758 -0.4650 -0.4710 -0.4047
  282MOL0     C37949   3.858  12.141   6.855  0.5770 -0.0415  0.1557
  282MOL0     C37950   3.825  12.282   6.801  0.5265 -0.2391 -0.2116
  282MOL0     C37951   3.910  12.331   6.696 -0.0337  0.1967  0.4999
  282MOL0     N37952   4.041  12.360   6.750 -0.1829 -0.5411  0.3882
  282MOL0     C37953   4.078  12.491   6.785  0.4627  0.3725 -0.1107
  282MOL0     C37954   4.209  12.481   6.812  0.5586  0.8173 -0.4013
  282MOL0     C37955   4.290  12.593   6.874  0.6909  0.9830 -0.1899
  282MOL0     C37956   4.314  12.718   6.791 -0.6588 -0.2406  0.3951
  282MOL0     C37957   4.357  12.845   6.865 -0.4326  0.4601 -0.2548
  282MOL0     C37958   4.470  12.815   6.960  0.1191  0.5644 -0.3336
  282MOL0     O37959   4.595  12.788   6.887  0.2005  0.1512  0.5991
  282MOL0     C37960   4.714  12.775   6.954 -0.1600 -0.3459  0.5529
  282MOL0     C37961   4.838  12.802   6.884 -0.6231 -0.3748 -0.4559
  282MOL0     C37962   4.962  12.784   6.940  0.1070  0.4068 -0.3230
  282MOL0     C37963   4.964  12.751   7.080  0.0971  0.2260 -0.4845
  282MOL0     C37964   5.086  12.741   7.164  0.5282  0.3543 -0.2902
  282MOL0     O37965   5.197  12.775   7.098 -0.2071 -0.7787 -0.5032
  282MOL0     C37966   5.316  12.776   7.162  0.7882 -0.0177 -0.6724
  282MOL0     C37967   5.371  12.686   7.260  0.2008  0.4683 -0.4126
  282MOL0     C37968   5.500  12.693   7.313  0.2581 -0.2379  0.5904
  282MOL0     C37969   5.581  12.802   7.288  0.0689  0.3827  0.7522
  282MOL0     O37970   5.710  12.815   7.337 -0.0930 -0.1389 -0.6554
  282MOL0     C37971   5.729  12.753   7.458  0.8662  0.0658 -0.9202
  282MOL0     C37972   5.865  12.781   7.521 -0.4335  0.2211  0.0438
  282MOL0     C37973   5.894  12.927   7.536 -0.3000  0.4245 -0.4120
  282MOL0     C37974   6.049  12.947   7.557 -0.1188 -0.2173 -0.4222
  282MOL0     C37975   6.108  12.886   7.686 -0.9784  0.8241  1.0274
  282MOL0     C37976   6.261  12.931   7.697  0.0422  0.3890 -0.0373
  282MOL0     C37977   6.319  12.884   7.830 -0.0777 -0.8355 -0.3905
  282MOL0     C37978   6.259  12.933   7.959  0.3417  0.2286 -0.7148
  282MOL0    Cl37979   6.375  12.909   8.088 -0.0802 -0.1366 -0.6974
  282MOL0     C37980   5.524  12.902   7.208 -0.3503 -0.3541 -0.0061
  282MOL0     C37981   5.393  12.887   7.145  0.2128  0.4054  0.7991
  282MOL0     O37982   5.089  12.704   7.278 -0.2205  0.4863 -0.2981
  282MOL0     C37983   4.844  12.727   7.148  0.6822  0.2381 -0.0661
  282MOL0     C37984   4.718  12.734   7.090 -0.2356 -0.9791 -0.1139
  282MOL0     N37985   4.245  12.352   6.782 -0.8752 -0.1918 -0.8341
  282MOL0     N37986   4.151  12.278   6.743  0.0767  0.2004  0.4741
  282MOL0     C37987   3.862  11.294   6.572  0.0481 -0.4654  0.0808
  282MOL0     C37988   3.849  11.160   6.528 -0.6796 -0.1234  0.1069
  282MOL0     C37989   3.656  10.730   6.530 -0.5879 -0.0282 -0.0713
  282MOL0     C37990   3.692  10.731   6.396  0.7210  0.0393  0.8664
  282MOL0     C37991   3.641  10.627   6.314  0.5808 -0.9175 -0.1896
  282MOL0     C37992   3.548  10.533   6.352  0.1702  0.4428  1.1721
  282MOL0     O37993   3.521  10.440   6.252 -0.3872  0.1580 -0.5102
  282MOL0     C37994   3.451  10.320   6.284  0.0398  0.7693  0.3336
  282MOL0     C37995   3.543  10.223   6.351 -0.2497 -0.2144 -0.0792
  282MOL0     C37996   3.469  10.090   6.390  0.2053  0.0133 -0.9691
  282MOL0     C37997   3.497   9.981   6.281 -0.2860 -0.2970  0.5030
  282MOL0     C37998   3.443   9.857   6.328  0.1710 -0.0455 -0.4294
  282MOL0     C37999   3.387   9.755   6.365  0.3349  0.1442  0.0908
  282MOL0     C38000   3.508  10.534   6.483 -0.5041  0.3368 -0.5386
  282MOL0     C38001   3.561  10.631   6.570 -0.4246  0.5034 -0.7666
  282MOL0     C38002   3.507  10.616   6.716 -0.1099  0.2294  0.2307
  282MOL0     H38003   3.707  11.043   6.812  1.2077  1.3604  1.5501
  282MOL0     H38004   3.722  11.265   6.870 -1.1701 -3.6289  1.6918
  282MOL0     H38005   4.009  11.457   6.781  1.6299  0.0179 -2.1217
  282MOL0     H38006   3.976  11.564   6.645 -0.4548 -3.9624 -1.4050
  282MOL0     H38007   4.022  11.665   6.897  0.6379 -0.0022  0.0619
  282MOL0     H38008   3.853  11.648   6.913 -2.1383  0.2900 -2.7461
  282MOL0     H38009   3.821  11.756   6.679 -0.6040  2.9639 -1.2260
  282MOL0     H38010   3.999  11.795   6.701  1.6663 -1.0346  3.1821
  282MOL0     H38011   3.765  11.897   6.881  0.1772 -1.1804  0.9341
  282MOL0     H38012   3.930  11.907   6.930 -1.9074 -2.3116  2.1858
  282MOL0     H38013   3.974  12.036   6.707  0.0672  1.0891  0.8851
  282MOL0     H38014   3.793  12.029   6.689 -0.5429 -0.2373 -0.2916
  282MOL0     H38015   3.777  12.125   6.927  0.4689  3.4194  0.9514
  282MOL0     H38016   3.948  12.146   6.918 -1.9710  0.6749  4.1138
  282MOL0     H38017   3.824  12.342   6.892  0.8309 -1.0587  0.3408
  282MOL0     H38018   3.720  12.278   6.772  0.2874  2.8855 -0.1978
  282MOL0     H38019   3.910  12.266   6.608 -4.4215  1.9889 -1.1143
  282MOL0     H38020   3.865  12.424   6.659 -0.8656 -0.9572 -1.5241
  282MOL0     H38021   4.009  12.573   6.801  0.9607  1.0284 -1.2277
  282MOL0     H38022   4.248  12.614   6.972  0.4251  0.1034 -0.1014
  282MOL0     H38023   4.386  12.544   6.893 -1.1691 -2.5462  0.9553
  282MOL0     H38024   4.383  12.691   6.710 -0.3921  0.5787  0.3463
  282MOL0     H38025   4.222  12.747   6.738 -0.7014 -1.7871 -0.4363
  282MOL0     H38026   4.277  12.889   6.926  0.9257 -1.9332  3.5792
  282MOL0     H38027   4.389  12.931   6.806  0.1923 -0.4741 -1.3233
  282MOL0     H38028   4.438  12.736   7.029 -2.2171  2.4330  0.9020
  282MOL0     H38029   4.481  12.907   7.020 -0.4408  1.8455 -2.1149
  282MOL0     H38030   4.823  12.842   6.784 -1.7401  0.1710 -0.0875
  282MOL0     H38031   5.048  12.807   6.879  1.4187 -0.7408  1.0097
  282MOL0     H38032   5.318  12.594   7.284  0.9595  0.8268  3.3641
  282MOL0     H38033   5.543  12.610   7.367  2.0450  2.0451  2.9467
  282MOL0     H38034   5.652  12.788   7.527  0.5298  0.7197 -1.6149
  282MOL0     H38035   5.725  12.644   7.448 -1.6246  0.0350 -0.1189
  282MOL0     H38036   5.868  12.734   7.620 -0.8729 -3.5262 -1.5439
  282MOL0     H38037   5.939  12.722   7.466 -0.3191  0.6225 -0.2372
  282MOL0     H38038   5.859  12.989   7.453 -3.3264  0.3420  0.6870
  282MOL0     H38039   5.856  12.974   7.628  1.0253  1.4216 -0.3486
  282MOL0     H38040   6.065  13.054   7.569  0.6119 -0.5254  1.8642
  282MOL0     H38041   6.099  12.920   7.463 -0.6260  1.4769 -1.2206
  282MOL0     H38042   6.097  12.779   7.669  1.6026 -0.1224  4.2726
  282MOL0     H38043   6.049  12.917   7.773 -0.7375 -0.1323  1.5397
  282MOL0     H38044   6.323  12.882   7.621  0.3581 -1.4401  1.3265
  282MOL0     H38045   6.252  13.037   7.673 -0.2035 -0.0802 -2.2335
  282MOL0     H38046   6.419  12.929   7.831 -0.7331  0.6886 -0.2510
  282MOL0     H38047   6.325  12.776   7.845 -1.9947 -0.5257  4.1596
  282MOL0     H38048   6.245  13.041   7.949  2.3204  0.8209  1.8875
  282MOL0     H38049   6.159  12.888   7.969  1.3225 -2.1103 -0.8196
  282MOL0     H38050   5.589  12.988   7.197  0.8964 -1.5384 -2.9646
  282MOL0     H38051   5.353  12.953   7.068 -2.8496  1.2999  2.9798
  282MOL0     H38052   4.837  12.684   7.247  0.8132 -0.2817 -0.2826
  282MOL0     H38053   4.626  12.722   7.147  0.9260  0.9970  2.3641
  282MOL0     H38054   3.896  11.367   6.499 -2.1580  0.9495  0.3658
  282MOL0     H38055   3.872  11.151   6.422 -2.8248  0.8466 -0.4892
  282MOL0     H38056   3.776  10.793   6.365 -1.1371  1.7357 -1.1138
  282MOL0     H38057   3.681  10.623   6.213  0.9014 -1.3326 -0.0436
  282MOL0     H38058   3.412  10.266   6.197 -1.4296 -0.2978  1.6157
  282MOL0     H38059   3.366  10.342   6.349 -1.7138  1.0847 -1.9291
  282MOL0     H38060   3.570  10.265   6.449  0.9958 -2.6074  0.6863
  282MOL0     H38061   3.627  10.203   6.284 -2.1635 -2.4996 -1.9768
  282MOL0     H38062   3.360  10.100   6.396  0.0680 -1.8499  0.9457
  282MOL0     H38063   3.505  10.064   6.490 -0.1923  3.1347  0.0952
  282MOL0     H38064   3.467  10.005   6.179  2.9605  0.7523 -0.3241
  282MOL0     H38065   3.603   9.962   6.261 -0.3316  2.0372 -2.8530
  282MOL0     H38066   3.327   9.677   6.407  2.4029 -1.9310 -0.6656
  282MOL0     H38067   3.438  10.461   6.521 -2.1893  0.6266 -2.8791
  282MOL0     H38068   3.439  10.700   6.730 -1.0109 -0.4912  0.2231
  282MOL0     H38069   3.461  10.518   6.734 -2.1863  0.8097 -1.5149
  282MOL0     H38070   3.596  10.613   6.780 -1.8287 -0.7382  2.7005
  283MOL0     O38071   2.500   6.491   9.161 -0.4999 -0.0422  0.0520
  283MOL0     C38072   2.480   6.603   9.116 -0.2642  0.1059  0.3160
  283MOL0     O38073   2.375   6.646   9.047  0.5989 -0.2854 -0.3178
  283MOL0     C38074   2.266   6.563   9.030 -0.3501  1.0368  0.2040
  283MOL0     C38075   2.150   6.578   9.108  0.3945 -0.2914 -0.2649
  283MOL0     C38076   2.047   6.491   9.084 -0.3559 -0.1797 -0.0417
  283MOL0     C38077   2.047   6.392   8.983  0.1769  0.6757 -0.1959
  283MOL0     O38078   1.937   6.312   8.961  0.4945 -0.1857 -0.6271
  283MOL0     C38079   1.964   6.162   8.957 -0.6887  0.7165 -0.1853
  283MOL0     C38080   1.953   6.108   9.095 -0.0539  0.8389  0.0051
  283MOL0     C38081   1.814   6.138   9.156  0.4784 -0.3584 -0.6377
  283MOL0     C38082   1.778   6.087   9.297 -0.3264  0.5613  0.1843
  283MOL0     C38083   1.713   6.202   9.377  0.1904  0.0788  0.2638
  283MOL0     C38084   1.571   6.250   9.341 -0.3657  0.3898  1.0238
  283MOL0     C38085   1.475   6.263   9.454 -0.2465 -0.9693  0.0568
  283MOL0     C38086   1.419   6.404   9.477 -0.4377 -0.8158 -0.4385
  283MOL0     N38087   1.525   6.507   9.501  0.1867  1.0231  0.4029
  283MOL0     C38088   1.608   6.562   9.413 -0.5856 -0.4850  0.0077
  283MOL0     C38089   1.652   6.669   9.484 -0.0976  0.0759 -0.5684
  283MOL0     C38090   1.767   6.752   9.420  0.0218 -0.5724  0.6763
  283MOL0     C38091   1.899   6.665   9.425  0.8273  0.6975 -0.0114
  283MOL0     C38092   1.948   6.639   9.563 -0.5118 -0.0243  0.6849
  283MOL0     C38093   1.918   6.495   9.595  0.6028 -0.1899  0.0779
  283MOL0     O38094   1.959   6.474   9.726  0.2899  0.5933  0.5450
  283MOL0     C38095   1.885   6.394   9.813  0.4928  0.0880 -0.4309
  283MOL0     C38096   1.937   6.386   9.945  0.3172 -0.0599  1.1528
  283MOL0     C38097   1.869   6.303  10.040  1.0265 -0.2944 -0.0580
  283MOL0     C38098   1.763   6.223  10.003 -0.5564  1.2342  0.6196
  283MOL0     C38099   1.715   6.120  10.095  0.8732 -0.3306  1.0231
  283MOL0     O38100   1.749   6.119  10.223 -0.1711 -1.1059 -0.2470
  283MOL0     C38101   1.709   6.021  10.305 -0.5018  0.3803 -0.5297
  283MOL0     C38102   1.582   6.021  10.361 -0.0300 -0.4242 -0.9023
  283MOL0     C38103   1.536   5.915  10.434 -0.1164  0.7737  0.6378
  283MOL0     C38104   1.620   5.813  10.470 -1.6462 -0.0161 -1.1433
  283MOL0     O38105   1.583   5.707  10.553 -0.0034 -0.0598 -0.0767
  283MOL0     C38106   1.582   5.574  10.500  0.2178 -0.0617 -0.3526
  283MOL0     C38107   1.479   5.566  10.388 -1.0843 -0.1218  0.4308
  283MOL0     C38108   1.471   5.411  10.358 -2.0712 -0.0352  0.2473
  283MOL0     C38109   1.379   5.375  10.232  0.2582  0.0227 -0.3764
  283MOL0     C38110   1.337   5.229  10.251 -0.1298  0.2539 -0.0828
  283MOL0     C38111   1.263   5.150  10.137 -0.0676 -1.0589  0.3405
  283MOL0     C38112   1.107   5.193  10.143 -0.7644 -0.1207 -0.1757
  283MOL0     C38113   1.036   5.169  10.014  0.5929 -0.3702  0.3580
  283MOL0    Cl38114   0.867   5.230  10.020  0.0405 -0.5461  0.1770
  283MOL0     C38115   1.756   5.814  10.423 -0.1408  0.0351  0.2196
  283MOL0     C38116   1.802   5.918  10.335 -0.4950 -0.1438  1.1035
  283MOL0     O38117   1.636   6.039  10.047 -0.3490  0.2157 -0.0834
  283MOL0     C38118   1.717   6.223   9.871 -0.9871 -0.9661  0.0100
  283MOL0     C38119   1.777   6.314   9.776 -0.0682 -0.4965  0.0625
  283MOL0     N38120   1.605   6.669   9.603 -0.6589 -0.8031 -0.0626
  283MOL0     N38121   1.525   6.573   9.618 -0.9696  0.7403  0.0988
  283MOL0     C38122   2.162   6.378   8.901  0.2205 -0.6879 -0.1961
  283MOL0     C38123   2.269   6.470   8.921 -0.6007  0.3975 -0.8389
  283MOL0     C38124   2.599   6.692   9.121 -0.0411  0.1046 -0.1902
  283MOL0     C38125   2.714   6.661   9.204 -0.9341 -0.2197  0.1536
  283MOL0     C38126   2.818   6.759   9.225  0.1749  1.3508  0.1646
  283MOL0     C38127   2.830   6.874   9.148 -0.0431  0.0201  0.8663
  283MOL0     O38128   2.935   6.954   9.157 -0.2255  0.3986  0.2799
  283MOL0     C38129   2.950   7.057   9.062 -0.5645  0.6276 -1.1591
  283MOL0     C38130   3.081   7.122   9.111  0.2988  0.0346 -0.3057
  283MOL0     C38131   3.155   7.178   8.992  0.4319 -0.0032  0.0666
  283MOL0     C38132   3.063   7.292   8.938 -0.2781 -0.0177 -0.5455
  283MOL0     C38133   3.137   7.365   8.832  0.0476  0.5648 -0.6405
  283MOL0     C38134   3.205   7.412   8.743  0.1031  0.7500 -0.3141
  283MOL0     C38135   2.718   6.907   9.062  0.0552  0.5081  0.0549
  283MOL0     C38136   2.606   6.815   9.052 -0.8479 -0.0370 -0.2080
  283MOL0     C38137   2.512   6.845   8.938 -0.0513  0.3061 -0.1090
  283MOL0     H38138   2.137   6.655   9.184  2.1196  0.4436 -0.6602
  283MOL0     H38139   1.951   6.514   9.129  0.2683 -0.4430  1.5146
  283MOL0     H38140   1.890   6.104   8.901 -0.6709 -0.4608  0.9712
  283MOL0     H38141   2.067   6.150   8.921 -0.1392  1.9316  0.9139
  283MOL0     H38142   2.031   6.139   9.165 -0.2446 -0.4422  0.8181
  283MOL0     H38143   1.982   6.004   9.086  3.7731  1.6381  1.3348
  283MOL0     H38144   1.745   6.092   9.085  1.2371 -2.3147 -0.1538
  283MOL0     H38145   1.801   6.247   9.156 -0.1632 -0.4264  0.2328
  283MOL0     H38146   1.708   6.003   9.293 -2.1071  1.9307  1.0668
  283MOL0     H38147   1.876   6.057   9.336 -0.4185 -1.2127 -0.8257
  283MOL0     H38148   1.718   6.170   9.482  0.2231 -2.8497 -0.5503
  283MOL0     H38149   1.777   6.290   9.363 -0.5616  0.6660  0.4798
  283MOL0     H38150   1.568   6.337   9.274  0.7963 -2.3696 -3.0113
  283MOL0     H38151   1.534   6.169   9.277  0.0268  1.2880 -0.3827
  283MOL0     H38152   1.514   6.226   9.550 -1.0186 -1.1065  0.3310
  283MOL0     H38153   1.395   6.195   9.424 -1.1108  0.6520 -1.4984
  283MOL0     H38154   1.360   6.443   9.393 -0.8974  0.0682  0.2797
  283MOL0     H38155   1.349   6.394   9.560 -3.2353  0.2575 -2.4822
  283MOL0     H38156   1.628   6.544   9.308  0.8524 -0.4092  0.2370
  283MOL0     H38157   1.741   6.778   9.317 -2.8983  0.6203  1.6023
  283MOL0     H38158   1.793   6.842   9.478  1.9414  1.2784 -2.7570
  283MOL0     H38159   1.885   6.574   9.367 -2.0266  0.6964  0.5361
  283MOL0     H38160   1.987   6.703   9.371  0.0053 -0.1204 -2.0171
  283MOL0     H38161   1.906   6.718   9.627  1.0840  0.0097  1.7562
  283MOL0     H38162   2.056   6.654   9.572 -0.5759  0.4029  0.7843
  283MOL0     H38163   1.967   6.438   9.515  0.0010  0.3112 -0.6666
  283MOL0     H38164   1.812   6.474   9.584  0.8625 -1.9762  0.7468
  283MOL0     H38165   2.032   6.433   9.970  0.8538 -1.7013  2.3662
  283MOL0     H38166   1.895   6.302  10.145  2.1411 -2.5544 -0.3034
  283MOL0     H38167   1.522   6.105  10.329  0.2020 -1.3049 -4.0159
  283MOL0     H38168   1.436   5.926  10.473 -0.6227  1.6937 -0.8310
  283MOL0     H38169   1.679   5.544  10.459  0.4347 -0.2534  0.2957
  283MOL0     H38170   1.554   5.510  10.584 -0.5256 -0.0879 -0.6207
  283MOL0     H38171   1.380   5.601  10.415 -0.1915  1.3305  2.0033
  283MOL0     H38172   1.529   5.622  10.309 -0.1008  0.6046  1.5308
  283MOL0     H38173   1.569   5.364  10.343 -2.1662 -0.3563  0.6445
  283MOL0     H38174   1.418   5.383  10.449 -0.6178 -0.1786  1.0805
  283MOL0     H38175   1.433   5.398  10.139  0.7763  2.8380  0.4916
  283MOL0     H38176   1.292   5.442  10.233  1.8240  2.1842 -0.5844
  283MOL0     H38177   1.262   5.226  10.331  1.8422  0.6772  1.8847
  283MOL0     H38178   1.426   5.171  10.277 -0.7251 -0.6176  0.0791
  283MOL0     H38179   1.303   5.170  10.037  0.4228 -0.9117  0.5636
  283MOL0     H38180   1.271   5.043  10.153  3.4991 -1.0139 -0.4419
  283MOL0     H38181   1.094   5.300  10.162  0.3523  0.4907 -2.4639
  283MOL0     H38182   1.057   5.138  10.223 -1.5788  1.2588  0.3047
  283MOL0     H38183   1.078   5.219   9.926 -1.8773 -0.3584 -0.8716
  283MOL0     H38184   1.029   5.062   9.995  0.5425 -0.2538 -0.3011
  283MOL0     H38185   1.815   5.725  10.445  1.0890  1.1793  1.7485
  283MOL0     H38186   1.899   5.909  10.286 -0.9790 -1.2862  0.2884
  283MOL0     H38187   1.631   6.167   9.837  0.1572 -1.3963 -2.3931
  283MOL0     H38188   1.727   6.305   9.680  2.5609 -4.7325 -1.1560
  283MOL0     H38189   2.175   6.306   8.822  2.1629 -0.4446 -0.1608
  283MOL0     H38190   2.358   6.475   8.859  0.3175  1.7386  0.5257
  283MOL0     H38191   2.730   6.565   9.251 -1.1130 -1.6368 -2.5217
  283MOL0     H38192   2.897   6.722   9.289 -0.1414 -1.7025 -1.0528
  283MOL0     H38193   2.871   7.132   9.071  0.1329  1.1162  3.5060
  283MOL0     H38194   2.963   7.013   8.963 -2.3650 -1.0692 -0.6889
  283MOL0     H38195   3.141   7.043   9.157 -0.3165 -0.3158 -0.0979
  283MOL0     H38196   3.060   7.195   9.190 -1.6440 -0.6628 -0.1212
  283MOL0     H38197   3.168   7.102   8.915  2.9443 -0.1524  0.5498
  283MOL0     H38198   3.258   7.211   9.010 -0.0588  0.6553  1.8704
  283MOL0     H38199   2.975   7.262   8.882  0.0794  0.8943 -1.6185
  283MOL0     H38200   3.030   7.366   9.012  0.0882  0.3878 -0.7836
  283MOL0     H38201   3.267   7.432   8.658  0.5741 -2.5461 -0.8689
  283MOL0     H38202   2.724   7.003   9.013 -2.0075  0.3532 -0.5738
  283MOL0     H38203   2.546   6.928   8.875  0.6173 -0.4851 -0.8279
  283MOL0     H38204   2.503   6.761   8.868  0.9897  0.8876 -0.9781
  283MOL0     H38205   2.414   6.864   8.982  1.0095  2.9291  1.3191
  284MOL0     O38206   5.604   4.929   5.496 -0.7431 -0.3440 -0.0015
  284MOL0     C38207   5.725   4.940   5.476  0.4891  0.3214 -0.9029
  284MOL0     O38208   5.780   4.994   5.371 -0.4929 -0.1619 -0.7704
  284MOL0     C38209   5.698   5.069   5.287 -0.5833 -0.2273 -0.7654
  284MOL0     C38210   5.725   5.207   5.275  0.7920  0.2293 -1.1588
  284MOL0     C38211   5.660   5.291   5.184 -0.8763  0.2957 -0.4402
  284MOL0     C38212   5.572   5.229   5.102  0.3474  0.8345 -0.0600
  284MOL0     O38213   5.523   5.308   5.001  0.0164  0.5716 -0.1818
  284MOL0     C38214   5.379   5.287   4.970 -0.2094 -0.5162 -0.3935
  284MOL0     C38215   5.311   5.419   4.943 -0.1661  0.0354  0.0674
  284MOL0     C38216   5.156   5.407   4.965  0.6590  0.6177  1.3789
  284MOL0     C38217   5.079   5.521   4.898 -1.1772  0.4312 -0.2504
  284MOL0     C38218   4.938   5.546   4.954 -0.1438  0.3223 -1.1299
  284MOL0     C38219   4.835   5.432   4.944 -0.7785  1.1579  0.9019
  284MOL0     C38220   4.696   5.483   4.926 -0.3055 -0.3531 -0.5172
  284MOL0     C38221   4.601   5.358   4.908  0.0713 -1.1200 -0.7921
  284MOL0     N38222   4.596   5.279   5.025 -0.1667  0.0190 -0.3481
  284MOL0     C38223   4.630   5.141   5.035 -0.3664 -0.5677  0.0256
  284MOL0     C38224   4.603   5.106   5.161  0.5601  0.3852  0.3413
  284MOL0     C38225   4.640   4.972   5.211  0.2153  0.5321 -0.2421
  284MOL0     C38226   4.651   4.971   5.368 -1.0979  0.0282 -0.8503
  284MOL0     C38227   4.758   4.872   5.410  0.0783 -0.4189  0.1080
  284MOL0     C38228   4.724   4.727   5.386  0.3428 -0.4470  1.5652
  284MOL0     O38229   4.757   4.691   5.256 -0.2009 -0.0119  0.1770
  284MOL0     C38230   4.708   4.573   5.205 -0.9724  0.4454  0.3915
  284MOL0     C38231   4.783   4.537   5.090 -0.1343  0.3948 -0.4930
  284MOL0     C38232   4.747   4.420   5.023  0.1343  0.4826  0.0947
  284MOL0     C38233   4.630   4.351   5.052  0.1237  0.5574 -0.2193
  284MOL0     C38234   4.597   4.221   4.984  0.2961  0.1286  0.9322
  284MOL0     O38235   4.472   4.167   5.018 -0.7302  0.0424  0.6498
  284MOL0     C38236   4.424   4.049   4.971 -1.4041  0.5374  0.0747
  284MOL0     C38237   4.464   3.981   4.861 -0.3429  0.5723  0.4009
  284MOL0     C38238   4.403   3.866   4.805 -1.0505  0.1548 -0.7879
  284MOL0     C38239   4.307   3.798   4.881 -0.4487 -0.2188 -0.5231
  284MOL0     O38240   4.261   3.679   4.833 -0.3409 -0.3641  0.1549
  284MOL0     C38241   4.155   3.615   4.899 -0.0938  0.2179  0.1963
  284MOL0     C38242   4.144   3.485   4.818  0.7272 -0.2916  0.2751
  284MOL0     C38243   4.019   3.408   4.862  0.5164  0.1067 -0.6520
  284MOL0     C38244   4.042   3.261   4.902 -0.1832  0.2725  0.0301
  284MOL0     C38245   4.071   3.169   4.784 -0.5212 -0.0445 -0.2316
  284MOL0     C38246   3.984   3.047   4.788  0.3741 -0.5065 -0.4832
  284MOL0     C38247   4.057   2.950   4.876 -0.2027 -0.3588  0.0129
  284MOL0     C38248   3.974   2.830   4.899  0.1944 -0.7068  0.6946
  284MOL0    Cl38249   3.941   2.742   4.746 -0.2838 -0.2609 -0.1522
  284MOL0     C38250   4.283   3.853   5.013 -0.8650  0.8114  0.2592
  284MOL0     C38251   4.330   3.983   5.054  0.8644 -0.3515  0.0155
  284MOL0     O38252   4.668   4.183   4.893 -0.2953 -0.9062 -0.0599
  284MOL0     C38253   4.558   4.378   5.171  0.2173  0.0184  0.1539
  284MOL0     C38254   4.610   4.493   5.249 -0.3723 -1.4603  0.1386
  284MOL0     N38255   4.532   5.206   5.227  0.6623  0.9249  0.0974
  284MOL0     N38256   4.539   5.308   5.144 -0.4849 -0.4696 -0.0169
  284MOL0     C38257   5.535   5.092   5.109  0.5671  1.0282 -0.5533
  284MOL0     C38258   5.602   5.004   5.210 -0.3633 -1.0864  0.2855
  284MOL0     C38259   5.821   4.880   5.565  0.4072  0.1010 -0.4247
  284MOL0     C38260   5.929   4.805   5.518  0.2688 -0.6237 -0.2364
  284MOL0     C38261   6.026   4.748   5.601 -0.1042 -0.1837 -0.6469
  284MOL0     C38262   6.025   4.765   5.742 -0.5271  0.0419 -0.3908
  284MOL0     O38263   6.134   4.714   5.814  0.3156  0.8803  0.1569
  284MOL0     C38264   6.129   4.724   5.961 -0.6212 -0.4230  0.6490
  284MOL0     C38265   6.025   4.640   6.036 -0.3310  0.0300 -0.5635
  284MOL0     C38266   5.976   4.516   5.960 -0.2591  0.1090 -0.4760
  284MOL0     C38267   5.844   4.470   6.024  0.2864  0.3932 -0.2021
  284MOL0     C38268   5.784   4.375   5.936 -0.0263  0.4667 -0.5024
  284MOL0     C38269   5.715   4.300   5.859 -0.5776 -0.2214  0.0587
  284MOL0     C38270   5.913   4.834   5.792 -0.3642  0.4462  0.6128
  284MOL0     C38271   5.815   4.892   5.710  0.3539 -0.7676  0.3754
  284MOL0     C38272   5.696   4.961   5.777 -0.5200 -0.0650 -0.7237
  284MOL0     H38273   5.803   5.252   5.334 -0.5182 -3.0485  3.7348
  284MOL0     H38274   5.674   5.398   5.185 -2.8324  0.7645  3.9977
  284MOL0     H38275   5.375   5.209   4.893 -0.6114  0.0258 -0.9430
  284MOL0     H38276   5.321   5.247   5.053 -0.7978  0.4772 -0.3057
  284MOL0     H38277   5.327   5.434   4.836 -1.5800 -0.7839 -0.2952
  284MOL0     H38278   5.351   5.499   5.006 -0.2458  1.0723 -1.1628
  284MOL0     H38279   5.134   5.405   5.072  1.2562  0.5046  1.5032
  284MOL0     H38280   5.117   5.314   4.922 -0.7442  2.5446 -1.8560
  284MOL0     H38281   5.141   5.605   4.928 -0.2433 -0.2669 -0.2029
  284MOL0     H38282   5.080   5.499   4.791 -2.3459 -0.3211 -0.1358
  284MOL0     H38283   4.949   5.571   5.060  1.1116 -2.3024 -0.5638
  284MOL0     H38284   4.897   5.628   4.894  3.3706  2.9667 -0.2634
  284MOL0     H38285   4.855   5.387   4.846 -4.9236 -0.3625  0.5461
  284MOL0     H38286   4.846   5.366   5.030  1.3374  0.9274  0.5169
  284MOL0     H38287   4.683   5.551   4.841  3.8931  2.2036  0.5425
  284MOL0     H38288   4.668   5.532   5.020 -1.8648 -1.4578 -0.3718
  284MOL0     H38289   4.504   5.392   4.870  0.8689  1.4407 -0.7562
  284MOL0     H38290   4.642   5.300   4.825  0.9598 -2.7115  0.7024
  284MOL0     H38291   4.689   5.089   4.960 -0.7990  1.9756 -2.2203
  284MOL0     H38292   4.563   4.897   5.192 -1.1534  1.7100  0.4853
  284MOL0     H38293   4.732   4.933   5.165 -2.8101 -2.6405 -4.3463
  284MOL0     H38294   4.682   5.067   5.411  3.1620 -2.0301  1.3831
  284MOL0     H38295   4.553   4.940   5.406 -1.3700 -0.2472 -1.7517
  284MOL0     H38296   4.780   4.890   5.515 -0.2781 -3.2431  0.7445
  284MOL0     H38297   4.856   4.885   5.363  0.4913 -0.2492  0.9864
  284MOL0     H38298   4.615   4.716   5.384  0.3094 -0.9812 -2.3580
  284MOL0     H38299   4.774   4.671   5.466 -1.5617 -2.9186  1.1469
  284MOL0     H38300   4.863   4.598   5.049 -4.2898  3.8201 -4.6177
  284MOL0     H38301   4.823   4.398   4.948 -0.2287  0.0278 -0.1495
  284MOL0     H38302   4.554   4.008   4.808 -0.2499 -1.4183 -0.5763
  284MOL0     H38303   4.435   3.815   4.714  2.6574 -0.6096  0.7469
  284MOL0     H38304   4.185   3.587   5.000  1.9463  0.5040 -0.2861
  284MOL0     H38305   4.063   3.675   4.899 -0.1853  0.1272  1.8464
  284MOL0     H38306   4.128   3.519   4.716 -0.5077  1.9646  1.1524
  284MOL0     H38307   4.234   3.424   4.832  0.6214 -1.3494 -2.9339
  284MOL0     H38308   3.966   3.449   4.948 -2.5128 -1.0093 -1.8432
  284MOL0     H38309   3.945   3.408   4.781  1.7169 -0.7432 -1.7884
  284MOL0     H38310   3.947   3.230   4.947 -1.7923 -0.7726 -3.7064
  284MOL0     H38311   4.114   3.249   4.984 -1.4702  2.1276  1.5056
  284MOL0     H38312   4.177   3.145   4.771 -0.0339  1.5126  0.5922
  284MOL0     H38313   4.045   3.211   4.686 -1.3536 -0.4712 -0.1979
  284MOL0     H38314   3.886   3.083   4.821  0.6909  0.5839 -0.7090
  284MOL0     H38315   3.982   3.004   4.687  1.5886 -1.5999 -0.0811
  284MOL0     H38316   4.086   2.995   4.971  0.6415 -2.2246  0.6982
  284MOL0     H38317   4.151   2.924   4.825 -0.3707 -0.6803 -0.1390
  284MOL0     H38318   4.012   2.764   4.978  0.7359 -1.2961 -0.0351
  284MOL0     H38319   3.878   2.867   4.937 -0.0625 -0.1377 -0.4683
  284MOL0     H38320   4.241   3.783   5.084  0.6191 -1.0384 -0.6183
  284MOL0     H38321   4.331   4.021   5.156  4.8302 -0.6450  0.2342
  284MOL0     H38322   4.479   4.310   5.200  2.7951 -2.9003  0.8094
  284MOL0     H38323   4.548   4.511   5.336 -1.2021 -0.3519 -0.6567
  284MOL0     H38324   5.456   5.053   5.044  0.6059 -0.8448  0.4722
  284MOL0     H38325   5.562   4.903   5.221 -2.7161 -0.3015 -0.3525
  284MOL0     H38326   5.930   4.769   5.416 -1.6394  0.8102 -0.8022
  284MOL0     H38327   6.115   4.690   5.577  0.3134 -0.9626  2.3295
  284MOL0     H38328   6.113   4.830   5.984  0.9296  0.4677 -1.9504
  284MOL0     H38329   6.225   4.703   6.009 -0.5030  1.2775  1.2524
  284MOL0     H38330   5.936   4.701   6.052 -1.5699 -2.0180  1.0398
  284MOL0     H38331   6.054   4.625   6.141 -0.1720 -2.6128 -0.9084
  284MOL0     H38332   6.048   4.434   5.969  0.4481  0.8091  0.3445
  284MOL0     H38333   5.969   4.525   5.851  0.1111 -2.4149 -0.7572
  284MOL0     H38334   5.859   4.422   6.121  0.8864 -1.3558 -1.1258
  284MOL0     H38335   5.776   4.553   6.048 -0.6609 -1.0109  2.4540
  284MOL0     H38336   5.652   4.232   5.807 -1.4966 -0.8408  1.9006
  284MOL0     H38337   5.910   4.848   5.900  1.2695 -0.6338  0.8419
  284MOL0     H38338   5.686   4.933   5.882  1.9240  0.1335 -0.3686
  284MOL0     H38339   5.698   5.070   5.784 -0.8661 -0.1285  0.6688
  284MOL0     H38340   5.598   4.943   5.732 -2.5733 -0.5582  3.3983
  285MOL0     O38341   1.082   4.954  10.897 -0.7419  0.3977  0.2087
  285MOL0     C38342   1.178   5.027  10.886  1.0407 -1.2002 -0.8618
  285MOL0     O38343   1.280   5.027  10.782 -0.5128 -0.4255 -0.1771
  285MOL0     C38344   1.281   4.938  10.677 -0.4737  0.8869  0.8034
  285MOL0     C38345   1.165   4.899  10.608 -0.8917 -0.4501  0.5031
  285MOL0     C38346   1.182   4.827  10.496  0.7682  0.7507  0.7083
  285MOL0     C38347   1.305   4.793  10.440  0.2270  0.1191 -0.5081
  285MOL0     O38348   1.300   4.718  10.325 -0.0371  0.2916 -0.4283
  285MOL0     C38349   1.413   4.735  10.241 -0.2968 -0.5893 -0.3975
  285MOL0     C38350   1.374   4.650  10.115 -0.7376  0.3610  0.3693
  285MOL0     C38351   1.274   4.726  10.026  0.0111 -0.5530 -0.3605
  285MOL0     C38352   1.294   4.663   9.888  0.3785 -0.0561 -0.3563
  285MOL0     C38353   1.192   4.725   9.783  0.0095  0.4753 -0.1995
  285MOL0     C38354   1.247   4.702   9.643 -0.9577  0.3241 -0.2993
  285MOL0     C38355   1.149   4.752   9.541  1.1440  0.1638  0.7816
  285MOL0     C38356   1.222   4.734   9.403  0.3739  0.3478 -0.3874
  285MOL0     N38357   1.118   4.716   9.300  0.3437 -0.1261 -0.3472
  285MOL0     C38358   1.109   4.600   9.218 -0.8908 -0.8233 -0.5798
  285MOL0     C38359   1.020   4.632   9.118 -0.3456  0.4629 -0.4094
  285MOL0     C38360   0.975   4.542   9.009 -0.3568  0.2161  0.9863
  285MOL0     C38361   0.892   4.426   9.062  0.7402  0.3188  0.4662
  285MOL0     C38362   0.759   4.479   9.094 -0.2778 -0.0880  0.5025
  285MOL0     C38363   0.669   4.376   9.164  0.3735  0.5043  0.0418
  285MOL0     O38364   0.722   4.294   9.271 -0.6647 -0.1736 -0.9364
  285MOL0     C38365   0.778   4.354   9.388 -1.1867 -0.2935 -0.2713
  285MOL0     C38366   0.740   4.485   9.422  0.2648  0.2825 -0.3075
  285MOL0     C38367   0.770   4.545   9.547  0.1796  0.4528  0.0568
  285MOL0     C38368   0.845   4.471   9.638  0.1821 -0.4762  0.8338
  285MOL0     C38369   0.875   4.530   9.768  0.1001  0.0110  0.0870
  285MOL0     O38370   0.923   4.438   9.856  0.1612  0.0215 -0.6060
  285MOL0     C38371   0.952   4.477   9.988 -1.0654 -0.1246 -0.3163
  285MOL0     C38372   1.063   4.428  10.058 -0.5061  0.2400 -0.0909
  285MOL0     C38373   1.066   4.436  10.193  0.6623  0.5737 -0.1760
  285MOL0     C38374   0.965   4.500  10.268 -0.2788  0.2079  0.6193
  285MOL0     O38375   0.981   4.488  10.399 -0.7029  0.1636 -0.2018
  285MOL0     C38376   0.895   4.567  10.479  0.7239  0.3945 -0.1409
  285MOL0     C38377   0.915   4.513  10.619  0.7891  1.3140  0.7549
  285MOL0     C38378   0.822   4.578  10.720  0.7061  0.5358 -0.2232
  285MOL0     C38379   0.691   4.514  10.739  0.2541 -0.3842 -0.0051
  285MOL0     C38380   0.603   4.571  10.862 -0.6535  0.3981  0.1354
  285MOL0     C38381   0.645   4.519  10.999 -0.0763  0.2280  0.6912
  285MOL0     C38382   0.596   4.376  11.038 -0.4933 -0.5988 -0.2611
  285MOL0     C38383   0.678   4.324  11.155  0.6490  0.6383  0.5105
  285MOL0    Cl38384   0.613   4.163  11.196  0.3924  0.2372 -0.1947
  285MOL0     C38385   0.846   4.546  10.199 -0.8569  0.0799  0.4382
  285MOL0     C38386   0.846   4.533  10.062 -0.2116  0.5167 -0.9982
  285MOL0     O38387   0.848   4.649   9.796  1.1995  0.0977  0.0298
  285MOL0     C38388   0.899   4.344   9.592 -0.7107 -0.4448 -0.2323
  285MOL0     C38389   0.864   4.288   9.472  0.1064 -0.9221  0.9815
  285MOL0     N38390   0.977   4.761   9.137  0.6527 -0.2268 -0.5147
  285MOL0     N38391   1.040   4.814   9.244 -0.1745  0.5744  0.2773
  285MOL0     C38392   1.415   4.830  10.507  0.0771  0.3403  0.3197
  285MOL0     C38393   1.409   4.908  10.620  0.0409 -0.0177  0.4746
  285MOL0     C38394   1.180   5.156  10.968 -1.1028 -0.5161  0.4847
  285MOL0     C38395   1.262   5.272  10.917  0.0986 -0.0277  0.7964
  285MOL0     C38396   1.259   5.404  10.973  0.5514  0.3850  0.7147
  285MOL0     C38397   1.187   5.420  11.091  0.5757  0.0374 -1.0678
  285MOL0     O38398   1.172   5.541  11.156  0.0157  0.5239  0.1774
  285MOL0     C38399   1.247   5.655  11.127  0.0375 -0.5568  1.3566
  285MOL0     C38400   1.199   5.762  11.228 -0.3852 -0.2200 -0.0904
  285MOL0     C38401   1.232   5.908  11.199 -0.0525 -1.1110 -0.1453
  285MOL0     C38402   1.174   5.995  11.313  0.0876 -0.1300 -0.8695
  285MOL0     C38403   1.235   6.128  11.303 -1.0836 -0.2182 -0.8135
  285MOL0     C38404   1.280   6.237  11.295 -0.3353  0.3218  0.0304
  285MOL0     C38405   1.125   5.310  11.145  0.1459  0.0341 -0.1708
  285MOL0     C38406   1.116   5.178  11.090 -0.1832  0.5747  0.4548
  285MOL0     C38407   1.047   5.069  11.168 -0.4872  0.3554 -0.1817
  285MOL0     H38408   1.062   4.913  10.639 -0.5425 -1.2578  2.1614
  285MOL0     H38409   1.092   4.804  10.440 -0.3861 -0.5079  2.9505
  285MOL0     H38410   1.426   4.838  10.205 -0.7190  0.0563  1.2072
  285MOL0     H38411   1.501   4.687  10.284 -0.7691 -1.3785 -0.2953
  285MOL0     H38412   1.333   4.551  10.135 -1.1933 -0.3397 -3.3129
  285MOL0     H38413   1.464   4.626  10.057 -1.7932 -2.1345 -0.3855
  285MOL0     H38414   1.280   4.835  10.033 -0.3817 -0.4392 -1.6072
  285MOL0     H38415   1.174   4.695  10.058  1.0841 -3.8837  0.1765
  285MOL0     H38416   1.391   4.659   9.838  0.4836 -1.7354 -0.0676
  285MOL0     H38417   1.261   4.560   9.906 -1.7131  0.8083  1.2126
  285MOL0     H38418   1.091   4.684   9.790 -0.8019  1.4490 -3.8775
  285MOL0     H38419   1.171   4.832   9.787 -5.2485 -0.3137  0.7740
  285MOL0     H38420   1.342   4.755   9.637 -0.6610 -0.3591 -2.5887
  285MOL0     H38421   1.273   4.596   9.633 -0.9568  0.3899 -1.0968
  285MOL0     H38422   1.125   4.856   9.562 -1.5545  0.2384 -1.9343
  285MOL0     H38423   1.057   4.693   9.540  1.5771 -0.5331 -0.6067
  285MOL0     H38424   1.293   4.812   9.373  1.2231 -0.7259 -1.2473
  285MOL0     H38425   1.282   4.642   9.402 -1.7521 -1.0954 -1.0465
  285MOL0     H38426   1.160   4.504   9.211 -1.3341 -1.1301  0.2044
  285MOL0     H38427   0.931   4.597   8.926 -0.3994 -0.4856  0.5333
  285MOL0     H38428   1.076   4.505   8.986  0.1192  1.1927  1.4574
  285MOL0     H38429   0.875   4.361   8.975  4.8085 -0.8131  0.2761
  285MOL0     H38430   0.943   4.365   9.137  2.8729 -1.9816 -2.5656
  285MOL0     H38431   0.708   4.518   9.006 -0.8905  0.9279  1.2779
  285MOL0     H38432   0.766   4.572   9.151 -4.1644  0.6183  0.0992
  285MOL0     H38433   0.629   4.302   9.095 -0.7009 -0.1453  1.3094
  285MOL0     H38434   0.587   4.440   9.198  1.7114  2.8958 -0.9731
  285MOL0     H38435   0.665   4.543   9.369  1.8726  2.3131 -0.4768
  285MOL0     H38436   0.731   4.642   9.574  0.1761 -0.2460  2.8761
  285MOL0     H38437   1.146   4.386  10.001 -0.0315  0.2574  0.5788
  285MOL0     H38438   1.144   4.381  10.245  0.1491 -1.2066 -1.1952
  285MOL0     H38439   0.915   4.674  10.480  1.9863  0.1820 -0.6781
  285MOL0     H38440   0.789   4.561  10.452  0.4806 -1.4974  1.0490
  285MOL0     H38441   0.882   4.408  10.620 -2.3581  2.1926  1.1868
  285MOL0     H38442   1.019   4.532  10.648  0.5086  0.9135  2.0861
  285MOL0     H38443   0.869   4.575  10.819  1.3214 -3.2645 -0.4672
  285MOL0     H38444   0.804   4.683  10.696  1.1125  0.3668 -1.3545
  285MOL0     H38445   0.699   4.405  10.745  1.4845 -0.2443  1.3010
  285MOL0     H38446   0.631   4.540  10.651 -1.2280  0.7299  1.2627
  285MOL0     H38447   0.498   4.550  10.843 -0.0125 -0.8608 -2.5060
  285MOL0     H38448   0.630   4.677  10.864  2.9128 -0.2387 -3.2466
  285MOL0     H38449   0.753   4.527  11.014 -0.2410 -0.0802  2.2131
  285MOL0     H38450   0.605   4.590  11.071  2.1428  2.4401 -0.1140
  285MOL0     H38451   0.596   4.308  10.952 -0.4857 -1.9082  0.7377
  285MOL0     H38452   0.491   4.376  11.069 -0.3066 -1.4731  0.4232
  285MOL0     H38453   0.784   4.312  11.135  0.0395 -4.2730 -1.0885
  285MOL0     H38454   0.668   4.388  11.243  0.3958 -2.3808  2.8362
  285MOL0     H38455   0.756   4.593  10.239 -0.5151  0.1677  1.1264
  285MOL0     H38456   0.747   4.555  10.022  0.1760  3.7521 -0.4774
  285MOL0     H38457   0.971   4.295   9.657 -1.8970 -0.9100  0.7462
  285MOL0     H38458   0.906   4.194   9.438  1.2559  0.4395 -1.6762
  285MOL0     H38459   1.516   4.804  10.477 -0.0374 -0.1030  0.3158
  285MOL0     H38460   1.496   4.935  10.678  0.7328  3.4340 -1.8511
  285MOL0     H38461   1.311   5.255  10.822 -1.0874  1.0678 -0.0423
  285MOL0     H38462   1.326   5.478  10.930 -0.2866  0.6095 -0.2357
  285MOL0     H38463   1.230   5.684  11.023 -0.0977 -2.7946  0.7046
  285MOL0     H38464   1.355   5.647  11.148  0.4651  1.1571  0.0525
  285MOL0     H38465   1.235   5.732  11.327 -2.0255 -0.4650  0.4709
  285MOL0     H38466   1.090   5.762  11.240 -0.3655  0.8976  0.1564
  285MOL0     H38467   1.191   5.958  11.111 -2.7661  1.6759  2.4829
  285MOL0     H38468   1.341   5.911  11.190 -0.2378  1.6189 -3.2918
  285MOL0     H38469   1.065   6.004  11.320 -0.0262 -0.8741 -1.5669
  285MOL0     H38470   1.213   5.950  11.405  3.1079 -0.4272 -2.2095
  285MOL0     H38471   1.308   6.341  11.302 -0.6855  0.6976 -2.8258
  285MOL0     H38472   1.074   5.323  11.240 -1.4678 -0.5723 -0.9063
  285MOL0     H38473   0.938   5.078  11.165 -0.7501 -1.4595  1.6663
  285MOL0     H38474   1.074   4.966  11.142  0.1510  0.5551 -0.3214
  285MOL0     H38475   1.077   5.083  11.272  0.5540  1.5068 -0.6143
  286MOL0     O38476   4.760   1.171   4.348 -0.2460 -0.1811  0.0563
  286MOL0     C38477   4.872   1.187   4.389 -0.0915 -0.4977 -0.3799
  286MOL0     O38478   4.956   1.286   4.339 -0.1379 -0.4220  0.1916
  286MOL0     C38479   4.917   1.402   4.271  0.6723 -0.0851  0.6594
  286MOL0     C38480   4.982   1.436   4.148 -0.6701 -0.0038  0.5492
  286MOL0     C38481   4.925   1.515   4.060 -0.3328 -0.6233 -0.6112
  286MOL0     C38482   4.813   1.589   4.104  1.2351 -0.3754  0.0132
  286MOL0     O38483   4.765   1.695   4.027  0.1589  0.0698 -0.5424
  286MOL0     C38484   4.620   1.719   4.019  1.1121  0.1908  0.1463
  286MOL0     C38485   4.577   1.813   3.911 -1.0307  0.8852 -0.7841
  286MOL0     C38486   4.445   1.890   3.948  0.1227  0.0240 -0.1065
  286MOL0     C38487   4.402   1.970   3.832  0.1073 -0.5084 -0.8851
  286MOL0     C38488   4.308   2.079   3.876 -0.0415  0.3342 -0.2162
  286MOL0     C38489   4.306   2.196   3.773  0.2730 -0.1443 -0.1361
  286MOL0     C38490   4.415   2.302   3.809 -0.0560  0.8944  0.3320
  286MOL0     C38491   4.357   2.416   3.897  0.1887 -0.4496  0.1471
  286MOL0     N38492   4.460   2.518   3.908  0.0822 -0.3808 -0.0956
  286MOL0     C38493   4.431   2.645   3.952  0.3575  0.0812 -0.4083
  286MOL0     C38494   4.550   2.692   4.005  0.0165 -0.3829  0.3221
  286MOL0     C38495   4.574   2.833   4.074  0.7105 -0.1577  0.1810
  286MOL0     C38496   4.665   2.924   3.987 -0.0084 -0.3322 -0.6177
  286MOL0     C38497   4.785   2.858   3.910  0.8188 -0.0997  0.1169
  286MOL0     C38498   4.888   2.946   3.852  0.6064 -0.6941  0.2979
  286MOL0     O38499   4.839   3.041   3.750 -0.2193  0.2790  0.4436
  286MOL0     C38500   4.802   2.999   3.625 -0.2538  0.9095  0.1905
  286MOL0     C38501   4.748   3.089   3.544 -0.4782 -0.3984 -0.5081
  286MOL0     C38502   4.744   3.070   3.406 -0.5847  0.5706 -0.5303
  286MOL0     C38503   4.759   2.942   3.352 -0.3018  0.2426  0.0522
  286MOL0     C38504   4.740   2.920   3.214 -0.8123  0.3855  0.9230
  286MOL0     O38505   4.789   2.793   3.182  0.1677  0.0591 -0.1199
  286MOL0     C38506   4.735   2.742   3.064 -0.4489  0.8130  0.2787
  286MOL0     C38507   4.821   2.713   2.959  0.5991 -0.0354  0.1278
  286MOL0     C38508   4.770   2.653   2.840  0.2226 -0.5255 -0.8847
  286MOL0     C38509   4.638   2.642   2.818 -0.0234  0.8279  0.2495
  286MOL0     O38510   4.582   2.591   2.698 -0.3524 -0.1643  0.8310
  286MOL0     C38511   4.620   2.463   2.656  1.2450  0.3770  0.4247
  286MOL0     C38512   4.485   2.384   2.635 -0.3075  0.1136 -0.5044
  286MOL0     C38513   4.461   2.368   2.486  0.6689  0.7479  0.3720
  286MOL0     C38514   4.324   2.309   2.446 -0.5079 -0.6284  0.9017
  286MOL0     C38515   4.296   2.318   2.296  0.0523 -0.3429 -1.1159
  286MOL0     C38516   4.391   2.221   2.219 -0.8280  0.5309 -0.0074
  286MOL0     C38517   4.353   2.214   2.065  1.1385 -0.2700 -1.1866
  286MOL0     C38518   4.443   2.111   1.999 -0.4255  0.4364  0.1562
  286MOL0    Cl38519   4.414   1.940   2.047  0.0538  0.0678 -0.3017
  286MOL0     C38520   4.553   2.685   2.913 -0.1462 -0.9656 -0.2967
  286MOL0     C38521   4.602   2.730   3.041  1.1759 -0.3677 -0.5645
  286MOL0     O38522   4.700   3.010   3.137  0.6784 -0.7598 -0.1019
  286MOL0     C38523   4.814   2.845   3.443  0.5206 -0.8997  0.0591
  286MOL0     C38524   4.835   2.874   3.578 -0.3938  0.1174  1.1523
  286MOL0     N38525   4.641   2.590   3.982 -0.5195 -0.6699 -0.6269
  286MOL0     N38526   4.594   2.486   3.936 -0.2190 -0.6318 -0.0894
  286MOL0     C38527   4.756   1.566   4.228  0.0095  0.5151 -0.5567
  286MOL0     C38528   4.806   1.471   4.307 -0.7812 -0.4472 -0.0991
  286MOL0     C38529   4.924   1.075   4.479 -0.2627 -0.3564 -0.0857
  286MOL0     C38530   5.063   1.041   4.470  0.6048 -0.4078  0.2487
  286MOL0     C38531   5.121   0.949   4.557  0.5685  0.0852 -0.4636
  286MOL0     C38532   5.039   0.864   4.643 -1.0667  0.6298  0.0389
  286MOL0     O38533   5.097   0.753   4.699  0.4747 -0.7155 -0.0953
  286MOL0     C38534   5.023   0.641   4.751  0.0210  0.2546 -0.5039
  286MOL0     C38535   5.119   0.530   4.812 -0.0610  0.1404  0.7540
  286MOL0     C38536   5.187   0.582   4.944  0.0632  0.2489  0.9366
  286MOL0     C38537   5.318   0.510   4.975  0.7919  0.1109 -0.7090
  286MOL0     C38538   5.381   0.579   5.093  0.7598  1.1091  0.0083
  286MOL0     C38539   5.418   0.626   5.197  0.9912  1.0070  0.4919
  286MOL0     C38540   4.902   0.887   4.646  0.1714 -0.0260  0.0149
  286MOL0     C38541   4.847   0.999   4.572 -0.4219  0.1557 -0.1850
  286MOL0     C38542   4.709   1.047   4.617  0.3435 -0.5291  1.1195
  286MOL0     H38543   5.069   1.381   4.115 -3.3295 -4.4858  0.1834
  286MOL0     H38544   4.959   1.539   3.960 -1.4060 -0.3411 -0.9167
  286MOL0     H38545   4.570   1.622   4.012  0.5034  0.5111  0.0685
  286MOL0     H38546   4.593   1.768   4.113 -1.0294 -2.2381  0.8962
  286MOL0     H38547   4.569   1.766   3.812 -0.7033  0.9562 -0.8465
  286MOL0     H38548   4.652   1.893   3.904 -0.2870  0.7899  3.4329
  286MOL0     H38549   4.474   1.951   4.034  2.0388  1.2258 -1.5114
  286MOL0     H38550   4.362   1.827   3.982  0.3582 -2.2498 -3.3104
  286MOL0     H38551   4.484   2.026   3.785 -0.8649  0.0360 -1.9581
  286MOL0     H38552   4.355   1.913   3.752 -0.6813  0.6135 -1.2387
  286MOL0     H38553   4.205   2.043   3.878 -0.3318  1.1323  1.2234
  286MOL0     H38554   4.337   2.120   3.974  3.2220 -4.5239  1.2126
  286MOL0     H38555   4.322   2.147   3.676  1.8084  1.2612 -0.6385
  286MOL0     H38556   4.210   2.248   3.778  0.3156 -0.1503  0.9892
  286MOL0     H38557   4.445   2.347   3.714  0.9191  0.1291  0.2602
  286MOL0     H38558   4.508   2.262   3.848 -1.3633  0.1073  2.8511
  286MOL0     H38559   4.267   2.458   3.851 -0.6109  1.5991  3.2488
  286MOL0     H38560   4.324   2.383   3.996  0.1378  1.2041  0.7127
  286MOL0     H38561   4.329   2.682   3.949  0.8503  2.3157 -7.5005
  286MOL0     H38562   4.480   2.886   4.092  1.5460  1.4389  0.0811
  286MOL0     H38563   4.614   2.811   4.174 -0.9797 -1.0711  0.6904
  286MOL0     H38564   4.599   2.975   3.916 -0.7886  2.0111  1.6486
  286MOL0     H38565   4.691   3.006   4.055 -1.5701 -0.8852  0.6890
  286MOL0     H38566   4.736   2.802   3.829 -0.0440 -0.5026  0.8974
  286MOL0     H38567   4.836   2.787   3.976 -3.7631  0.0084  4.3603
  286MOL0     H38568   4.975   2.898   3.806  0.7413 -0.2744  0.1111
  286MOL0     H38569   4.912   3.013   3.935 -0.5332  1.3297 -0.9318
  286MOL0     H38570   4.719   3.180   3.596  1.6004 -0.8803  1.6484
  286MOL0     H38571   4.710   3.157   3.351 -1.9240  1.0167  0.9395
  286MOL0     H38572   4.925   2.701   2.989  0.5383  0.6461  0.6479
  286MOL0     H38573   4.833   2.609   2.765 -0.0079 -0.5105 -1.0884
  286MOL0     H38574   4.674   2.474   2.562  1.1423  1.9045  0.5108
  286MOL0     H38575   4.687   2.413   2.726 -1.9227 -0.7115  2.9160
  286MOL0     H38576   4.497   2.293   2.695 -1.8714  0.5066  0.4763
  286MOL0     H38577   4.401   2.433   2.686 -1.3266 -2.1101  0.0443
  286MOL0     H38578   4.461   2.468   2.443 -0.0099 -0.1322 -1.8261
  286MOL0     H38579   4.546   2.317   2.439 -0.9916 -0.6132 -1.3209
  286MOL0     H38580   4.243   2.356   2.502  0.0782 -0.4317  1.6015
  286MOL0     H38581   4.307   2.205   2.472 -4.7279  0.1072  1.7760
  286MOL0     H38582   4.303   2.425   2.273  1.9307 -0.2315 -0.1910
  286MOL0     H38583   4.200   2.266   2.290  0.8371 -2.4821  2.1651
  286MOL0     H38584   4.493   2.258   2.232 -0.9150  1.4105 -1.6102
  286MOL0     H38585   4.392   2.119   2.258 -1.7400 -0.3062 -2.0349
  286MOL0     H38586   4.380   2.313   2.027 -0.2003  0.1811 -0.9900
  286MOL0     H38587   4.249   2.185   2.051  1.5706 -2.0808 -0.9540
  286MOL0     H38588   4.404   2.110   1.896 -4.7387 -0.3352  1.5906
  286MOL0     H38589   4.550   2.136   2.000 -0.6236  1.7806 -2.3423
  286MOL0     H38590   4.454   2.710   2.876  1.0555 -0.8847 -3.8675
  286MOL0     H38591   4.523   2.762   3.107 -0.4296  1.6750 -3.2503
  286MOL0     H38592   4.830   2.741   3.416  1.1458 -1.2262  1.5808
  286MOL0     H38593   4.877   2.797   3.642 -2.3657 -1.6589  0.4507
  286MOL0     H38594   4.677   1.630   4.264 -1.0578  0.0546 -2.0022
  286MOL0     H38595   4.771   1.439   4.404  1.9542 -2.0918  0.4181
  286MOL0     H38596   5.124   1.073   4.386  1.5162 -2.8196 -0.0718
  286MOL0     H38597   5.227   0.929   4.557  1.0872  1.8716  3.3002
  286MOL0     H38598   4.962   0.596   4.672  0.5120 -0.7552 -0.3210
  286MOL0     H38599   4.961   0.672   4.835 -1.0043 -0.7611 -0.8657
  286MOL0     H38600   5.195   0.519   4.734 -1.0152  2.7523 -0.6984
  286MOL0     H38601   5.064   0.438   4.831  0.0810 -0.1925 -0.4006
  286MOL0     H38602   5.112   0.580   5.024 -0.0084 -0.8412  0.8541
  286MOL0     H38603   5.222   0.684   4.926  1.7587 -0.1415  1.8840
  286MOL0     H38604   5.302   0.407   5.008  3.4268  0.4489  2.0069
  286MOL0     H38605   5.386   0.518   4.890 -0.3010 -0.8108 -1.6925
  286MOL0     H38606   5.444   0.672   5.290 -0.9516 -4.0492  3.9657
  286MOL0     H38607   4.857   0.826   4.723  2.2400 -0.1142  1.2219
  286MOL0     H38608   4.732   1.131   4.682  2.2193  0.5246 -0.7905
  286MOL0     H38609   4.641   1.086   4.541  3.4585 -2.2071 -2.9052
  286MOL0     H38610   4.661   0.957   4.657 -1.3017 -0.5672 -0.7844
  287MOL0     O38611   2.352   6.708   1.715 -0.1554  0.6759 -0.0011
  287MOL0     C38612   2.277   6.620   1.772 -0.3692 -1.2466 -0.6246
  287MOL0     O38613   2.307   6.481   1.784 -0.8663 -0.5527  0.3775
  287MOL0     C38614   2.427   6.438   1.730  0.5015  0.8479 -0.3242
  287MOL0     C38615   2.546   6.459   1.801 -0.2928  0.2173  0.1085
  287MOL0     C38616   2.665   6.399   1.751  0.1018  0.5962 -0.5191
  287MOL0     C38617   2.660   6.320   1.627  0.3611 -0.6428 -1.0757
  287MOL0     O38618   2.761   6.248   1.568 -0.2717 -0.8007 -0.9304
  287MOL0     C38619   2.891   6.278   1.623 -0.1081 -0.9440  0.1046
  287MOL0     C38620   2.918   6.173   1.724 -0.1104 -0.5264  0.2126
  287MOL0     C38621   2.922   6.029   1.668  0.9499 -0.9237  0.1866
  287MOL0     C38622   2.916   5.932   1.784  0.6339  0.7066  0.5339
  287MOL0     C38623   2.881   5.790   1.737  0.4123  0.0858 -0.1924
  287MOL0     C38624   2.956   5.740   1.618 -0.1141 -0.0807  0.2647
  287MOL0     C38625   3.112   5.711   1.651  0.9369 -0.3193  1.1603
  287MOL0     C38626   3.192   5.618   1.560 -0.4695  0.6762  0.8893
  287MOL0     N38627   3.286   5.687   1.473  0.1160  1.3947 -0.1361
  287MOL0     C38628   3.253   5.736   1.351  0.3605 -0.2401 -0.7955
  287MOL0     C38629   3.364   5.802   1.307 -0.0953  0.3584 -0.7169
  287MOL0     C38630   3.360   5.875   1.177 -0.1838  0.2687  0.1713
  287MOL0     C38631   3.276   5.808   1.066 -0.6124 -0.0452  0.0963
  287MOL0     C38632   3.314   5.666   1.025 -0.7931  0.2218 -0.3323
  287MOL0     C38633   3.326   5.644   0.878 -0.0716 -0.5428  0.7107
  287MOL0     O38634   3.334   5.508   0.868 -0.1311  0.2289 -0.1203
  287MOL0     C38635   3.348   5.452   0.742 -0.8881 -0.3645  0.2170
  287MOL0     C38636   3.335   5.314   0.744 -0.1190  0.0418 -0.2841
  287MOL0     C38637   3.356   5.243   0.626  0.0795 -0.2888 -0.4748
  287MOL0     C38638   3.383   5.306   0.497 -1.3449 -0.4603 -0.8102
  287MOL0     C38639   3.393   5.221   0.370  0.2078  0.0382 -0.3629
  287MOL0     O38640   3.328   5.094   0.378 -0.1551 -0.6406  0.6910
  287MOL0     C38641   3.324   4.991   0.283 -0.4072 -0.6763  0.6671
  287MOL0     C38642   3.428   4.958   0.192 -0.2732 -0.3493  1.0371
  287MOL0     C38643   3.423   4.843   0.119  0.0205  0.0966 -0.2259
  287MOL0     C38644   3.324   4.750   0.128 -0.9075  0.1027 -0.1924
  287MOL0     O38645   3.316   4.630   0.062 -0.5209  0.4322 -0.0391
  287MOL0     C38646   3.432   4.557   0.039  0.7603 -0.2856  0.6923
  287MOL0     C38647   3.413   4.406   0.034 -0.1751 -0.3820  0.4480
  287MOL0     C38648   3.527   4.360  -0.051  1.0289  0.5879  1.0754
  287MOL0     C38649   3.522   4.205  -0.055 -0.3679 -0.1488  1.3509
  287MOL0     C38650   3.564   4.137   0.075  0.0330 -0.2151 -0.0893
  287MOL0     C38651   3.586   3.979   0.062 -0.7952 -0.8983  0.2425
  287MOL0     C38652   3.605   3.909   0.190  0.1083 -0.4509 -1.6750
  287MOL0     C38653   3.701   3.965   0.290 -0.0133 -0.6990  0.5009
  287MOL0    Cl38654   3.859   3.985   0.214 -0.1015  0.0286  0.2600
  287MOL0     C38655   3.226   4.775   0.222  0.4939 -0.6983  0.1622
  287MOL0     C38656   3.224   4.893   0.308 -0.6137  0.2754  0.4289
  287MOL0     O38657   3.455   5.268   0.274 -0.3732  0.3051  0.5666
  287MOL0     C38658   3.411   5.444   0.500  0.2830  0.6284  0.5679
  287MOL0     C38659   3.392   5.507   0.623 -0.1506 -0.2223  0.5584
  287MOL0     N38660   3.453   5.782   1.403 -0.8835 -0.2162 -0.6447
  287MOL0     N38661   3.416   5.717   1.510  0.9574 -0.3894 -0.3147
  287MOL0     C38662   2.542   6.325   1.557 -0.8528 -0.2109 -0.8016
  287MOL0     C38663   2.423   6.379   1.602  0.8139  0.0139 -0.3946
  287MOL0     C38664   2.156   6.688   1.830 -0.8707  0.5749 -0.1386
  287MOL0     C38665   2.074   6.594   1.898 -0.5965  0.5094  0.1137
  287MOL0     C38666   1.943   6.623   1.929  0.8158  0.7829  0.9227
  287MOL0     C38667   1.892   6.749   1.890 -0.3208 -0.5653 -0.6011
  287MOL0     O38668   1.765   6.776   1.926  0.5252  0.1215  0.4061
  287MOL0     C38669   1.674   6.815   1.823  0.2529 -0.6485  0.2769
  287MOL0     C38670   1.610   6.695   1.754 -0.2839 -0.2146 -0.7139
  287MOL0     C38671   1.468   6.728   1.695 -0.8146 -0.1284  0.4107
  287MOL0     C38672   1.445   6.689   1.545 -0.3283  0.1130 -0.2408
  287MOL0     C38673   1.526   6.780   1.457 -0.2852 -0.1830 -0.8244
  287MOL0     C38674   1.590   6.856   1.385 -0.0567 -0.1529 -0.2933
  287MOL0     C38675   1.974   6.840   1.832  0.3831  0.0114  1.3472
  287MOL0     C38676   2.109   6.815   1.800  0.2332 -0.1695  1.3752
  287MOL0     C38677   2.192   6.931   1.740 -0.1328  0.5566  0.3087
  287MOL0     H38678   2.541   6.513   1.895 -1.7503  2.4888 -1.1847
  287MOL0     H38679   2.754   6.418   1.809  0.5946 -1.6757 -0.4319
  287MOL0     H38680   2.961   6.259   1.541  1.3333 -3.7003  1.8245
  287MOL0     H38681   2.900   6.379   1.662  0.3618 -1.4547  1.3586
  287MOL0     H38682   2.841   6.173   1.802 -0.4087  1.0908 -0.0417
  287MOL0     H38683   3.012   6.202   1.772 -0.9481  1.9217  0.5221
  287MOL0     H38684   3.017   6.010   1.617  3.0966  2.4037  2.5882
  287MOL0     H38685   2.842   6.011   1.595 -0.4063 -0.6570  1.5648
  287MOL0     H38686   3.011   5.938   1.838  1.6480  1.0657 -1.1983
  287MOL0     H38687   2.832   5.953   1.850  0.9163 -1.3531  1.6441
  287MOL0     H38688   2.906   5.722   1.819  0.9213  1.6834  1.0243
  287MOL0     H38689   2.773   5.774   1.724  0.3018 -0.4712  1.1910
  287MOL0     H38690   2.914   5.648   1.576  0.1824  0.2347 -0.7484
  287MOL0     H38691   2.955   5.807   1.532  2.0598 -0.7236 -0.3485
  287MOL0     H38692   3.123   5.673   1.753 -0.5340  0.5200  1.6559
  287MOL0     H38693   3.177   5.799   1.647  1.3083 -0.5891  1.1910
  287MOL0     H38694   3.254   5.546   1.615  1.2352  1.2143 -0.2524
  287MOL0     H38695   3.114   5.568   1.502 -1.4547  2.3914  0.6532
  287MOL0     H38696   3.156   5.739   1.303 -0.8006 -1.3313  1.3332
  287MOL0     H38697   3.314   5.971   1.204  0.9745  1.7590 -2.6956
  287MOL0     H38698   3.459   5.902   1.140 -1.2297  4.2742 -0.2179
  287MOL0     H38699   3.172   5.806   1.102 -1.9422  1.5291 -3.1987
  287MOL0     H38700   3.279   5.874   0.979 -0.6130  2.7305  2.0515
  287MOL0     H38701   3.261   5.591   1.083  2.0236 -0.2187  1.8898
  287MOL0     H38702   3.413   5.646   1.066 -0.9785 -0.0379 -0.0113
  287MOL0     H38703   3.411   5.699   0.838 -0.9948  1.2875  1.1505
  287MOL0     H38704   3.238   5.688   0.830  0.4799  0.5488  0.6609
  287MOL0     H38705   3.300   5.262   0.833 -2.6714 -1.8409 -2.2424
  287MOL0     H38706   3.314   5.143   0.629 -0.2161 -0.1446  0.4921
  287MOL0     H38707   3.513   5.024   0.177 -0.2401 -0.3839  1.0708
  287MOL0     H38708   3.501   4.817   0.049 -0.8070 -0.0604 -1.1094
  287MOL0     H38709   3.472   4.595  -0.056 -1.3487  1.4026  0.3921
  287MOL0     H38710   3.503   4.576   0.120  0.4736  0.5839  0.7590
  287MOL0     H38711   3.416   4.362   0.134 -2.1141 -1.4595  0.0806
  287MOL0     H38712   3.313   4.378  -0.001  0.8946  0.7763 -4.1698
  287MOL0     H38713   3.532   4.403  -0.152  3.5577  2.0806  1.7505
  287MOL0     H38714   3.622   4.377  -0.000  1.7096 -1.9248  0.7752
  287MOL0     H38715   3.597   4.162  -0.122 -0.5599  1.4360  0.0575
  287MOL0     H38716   3.425   4.169  -0.089 -1.7320  1.0519  3.6405
  287MOL0     H38717   3.499   4.172   0.156  1.2603 -1.2168  1.3641
  287MOL0     H38718   3.663   4.174   0.103  0.2801  1.7582 -3.0435
  287MOL0     H38719   3.507   3.936   0.000 -0.5991 -0.5382 -0.2702
  287MOL0     H38720   3.674   3.958   0.001 -0.7069 -1.0775  0.4325
  287MOL0     H38721   3.626   3.806   0.160  1.1039 -0.9461  0.4990
  287MOL0     H38722   3.507   3.905   0.239 -0.0223  3.7753 -1.2053
  287MOL0     H38723   3.658   4.057   0.330  0.4320  0.4199 -1.4452
  287MOL0     H38724   3.713   3.899   0.376 -2.2347  0.0549  1.4555
  287MOL0     H38725   3.155   4.693   0.222  1.2436 -1.4262 -2.1350
  287MOL0     H38726   3.138   4.886   0.373 -1.4340 -1.3640 -0.7634
  287MOL0     H38727   3.435   5.500   0.410  0.2617 -0.5602 -0.2049
  287MOL0     H38728   3.404   5.615   0.625  2.1913 -0.3805 -0.7986
  287MOL0     H38729   2.528   6.275   1.462 -0.8243  4.0711 -3.3025
  287MOL0     H38730   2.338   6.363   1.535 -0.1027 -1.8659  1.1022
  287MOL0     H38731   2.101   6.493   1.928 -3.2187 -0.6696 -1.2028
  287MOL0     H38732   1.898   6.548   1.993  1.4714  0.6313  1.2190
  287MOL0     H38733   1.729   6.879   1.754  0.1287  1.4391  2.0309
  287MOL0     H38734   1.591   6.862   1.877 -0.6656 -0.9649 -0.8161
  287MOL0     H38735   1.596   6.612   1.823  0.8925  2.0152  2.4757
  287MOL0     H38736   1.683   6.654   1.685  0.7958 -1.5324  1.1384
  287MOL0     H38737   1.452   6.836   1.700  0.8398  0.1610  0.0101
  287MOL0     H38738   1.393   6.675   1.755 -0.7315  0.6879  1.2500
  287MOL0     H38739   1.485   6.587   1.541  0.6399  0.4085  1.2174
  287MOL0     H38740   1.340   6.690   1.515  0.1311 -0.8912 -2.0789
  287MOL0     H38741   1.641   6.938   1.339 -0.8862  0.6032  0.0989
  287MOL0     H38742   1.934   6.939   1.810  2.3800  0.6177  0.0842
  287MOL0     H38743   2.203   6.925   1.631 -0.6903  3.5758 -0.0182
  287MOL0     H38744   2.135   7.021   1.765  1.1115  1.0839  1.3952
  287MOL0     H38745   2.289   6.941   1.789 -0.4703  1.3846  0.8381
  288MOL0     O38746   3.816   1.307   4.909  0.7587  0.0711 -0.0516
  288MOL0     C38747   3.914   1.385   4.929  0.5645  0.5929 -0.1490
  288MOL0     O38748   3.988   1.393   5.041 -0.3867  0.5069 -0.1943
  288MOL0     C38749   3.948   1.333   5.158  0.5134  0.0782 -0.0639
  288MOL0     C38750   4.052   1.297   5.247 -0.1386  0.3922 -0.0682
  288MOL0     C38751   4.020   1.237   5.368 -0.1325 -0.1186 -0.4756
  288MOL0     C38752   3.888   1.224   5.408 -0.6249 -0.2113  0.1613
  288MOL0     O38753   3.883   1.153   5.529 -0.1060 -0.2610 -0.1217
  288MOL0     C38754   3.745   1.121   5.580 -0.3695 -0.6232  0.9466
  288MOL0     C38755   3.694   1.250   5.660 -0.4837  0.8227  0.3286
  288MOL0     C38756   3.555   1.248   5.717  0.6655 -0.2620  0.0057
  288MOL0     C38757   3.540   1.258   5.873 -0.3461 -0.0484 -0.5310
  288MOL0     C38758   3.406   1.304   5.925  0.9242  0.5956  0.5424
  288MOL0     C38759   3.278   1.222   5.883 -0.3671 -1.0259  0.5740
  288MOL0     C38760   3.267   1.093   5.968  0.1044 -0.6057 -0.4640
  288MOL0     C38761   3.166   1.003   5.918  0.6700  0.0736  0.3488
  288MOL0     N38762   3.169   0.874   5.987 -0.4130  0.2157 -0.4295
  288MOL0     C38763   3.279   0.780   5.979  0.9485 -0.5855  0.5094
  288MOL0     C38764   3.242   0.682   6.062 -0.7608 -0.0596 -0.5100
  288MOL0     C38765   3.327   0.555   6.078  0.1445  0.0327 -0.1739
  288MOL0     C38766   3.360   0.480   5.951 -0.5142 -0.1040 -0.0558
  288MOL0     C38767   3.477   0.528   5.856 -0.1005  0.1029  0.0256
  288MOL0     C38768   3.503   0.423   5.743 -0.5008 -0.3004 -0.6734
  288MOL0     O38769   3.404   0.428   5.635 -0.3308 -0.0856  0.2065
  288MOL0     C38770   3.309   0.336   5.624  0.7588  0.9813  0.6546
  288MOL0     C38771   3.283   0.227   5.712 -0.0993 -0.9643  0.4956
  288MOL0     C38772   3.178   0.138   5.680 -0.8977 -0.1419 -0.5694
  288MOL0     C38773   3.094   0.159   5.567  0.4584 -0.0999 -0.5490
  288MOL0     C38774   2.992   0.057   5.545  0.8759  0.4864  0.1813
  288MOL0     O38775   2.955  -0.026   5.656  0.5421  0.9453 -0.3554
  288MOL0     C38776   2.840  -0.109   5.634 -0.1491  0.0983 -0.8826
  288MOL0     C38777   2.733  -0.095   5.728 -0.6596 -0.3026 -0.9144
  288MOL0     C38778   2.616  -0.174   5.717 -0.3252 -0.0935 -0.5007
  288MOL0     C38779   2.601  -0.253   5.608 -0.4388  0.1262  0.2983
  288MOL0     O38780   2.483  -0.329   5.578  0.2240  0.8367  0.4380
  288MOL0     C38781   2.366  -0.336   5.663 -0.0452  0.5350  0.5418
  288MOL0     C38782   2.267  -0.433   5.591 -0.0011 -0.5749  0.8460
  288MOL0     C38783   2.159  -0.489   5.677  0.8566  0.2229 -0.1639
  288MOL0     C38784   2.048  -0.379   5.706  0.3010  0.0694 -0.3734
  288MOL0     C38785   2.004  -0.381   5.862 -0.2231  0.2399  0.1592
  288MOL0     C38786   2.091  -0.273   5.940  0.3670 -0.7324 -0.1298
  288MOL0     C38787   2.049  -0.126   5.900 -0.5410 -0.0775  0.9145
  288MOL0     C38788   2.149  -0.027   5.960 -0.7611  0.3014 -0.0132
  288MOL0    Cl38789   2.309  -0.026   5.876  0.1853 -0.2769  0.0100
  288MOL0     C38790   2.709  -0.259   5.519  0.4599  0.2399 -0.3479
  288MOL0     C38791   2.820  -0.192   5.529  0.2455  0.0145  0.5156
  288MOL0     O38792   2.920   0.070   5.440 -0.1065 -0.1120 -0.2264
  288MOL0     C38793   3.116   0.276   5.487 -1.1127 -0.1368  1.3430
  288MOL0     C38794   3.223   0.359   5.521  0.3902 -0.3113 -0.5332
  288MOL0     N38795   3.124   0.711   6.132 -0.5507 -0.4149 -0.0121
  288MOL0     N38796   3.083   0.831   6.087  0.4153 -0.0076 -0.4724
  288MOL0     C38797   3.782   1.277   5.330 -0.2660  0.3396 -0.5795
  288MOL0     C38798   3.808   1.332   5.207  0.1174 -0.6053 -0.5891
  288MOL0     C38799   3.958   1.468   4.809 -1.1277 -0.0019  0.1110
  288MOL0     C38800   3.880   1.457   4.685  0.9322  0.2332  0.3229
  288MOL0     C38801   3.912   1.526   4.569 -0.8522 -0.0205  1.1344
  288MOL0     C38802   4.018   1.607   4.564  0.2253  1.3944 -0.5339
  288MOL0     O38803   4.058   1.687   4.450 -0.3767  0.0655  0.2389
  288MOL0     C38804   3.966   1.798   4.421  0.1060  0.2364 -0.0857
  288MOL0     C38805   3.899   1.856   4.547  0.1951 -1.0286 -0.4731
  288MOL0     C38806   3.806   1.971   4.526  0.4153 -0.7526  0.5835
  288MOL0     C38807   3.867   2.092   4.456 -0.1746 -0.3039 -0.3342
  288MOL0     C38808   3.772   2.205   4.474 -0.2841  0.3026 -0.4028
  288MOL0     C38809   3.700   2.299   4.494 -0.0262 -0.3826  0.7275
  288MOL0     C38810   4.095   1.619   4.677 -0.8391 -0.1615 -0.3101
  288MOL0     C38811   4.073   1.545   4.799  0.8550 -0.1516 -0.3950
  288MOL0     C38812   4.173   1.572   4.907 -0.2201  1.0508 -0.1651
  288MOL0     H38813   4.156   1.312   5.219  0.1073  1.7307  1.4241
  288MOL0     H38814   4.092   1.197   5.439  0.0796  1.0587 -0.0057
  288MOL0     H38815   3.680   1.102   5.494  3.0924  3.0984 -2.9539
  288MOL0     H38816   3.759   1.034   5.644 -0.1158 -2.5870 -1.5886
  288MOL0     H38817   3.706   1.339   5.598 -0.6904  1.2033  0.8324
  288MOL0     H38818   3.763   1.286   5.737 -1.2513  2.5989  0.2081
  288MOL0     H38819   3.509   1.150   5.701 -0.1291 -0.3157  2.2341
  288MOL0     H38820   3.494   1.326   5.672 -0.2647 -0.8938  0.1358
  288MOL0     H38821   3.576   1.167   5.921  2.9054  1.0700 -0.6095
  288MOL0     H38822   3.610   1.337   5.900  1.7120 -2.1424  0.6112
  288MOL0     H38823   3.417   1.311   6.034 -0.1611 -4.3794  1.2208
  288MOL0     H38824   3.383   1.404   5.886 -1.5382  0.6357  1.9116
  288MOL0     H38825   3.198   1.284   5.924  3.0681  3.9200  0.7531
  288MOL0     H38826   3.267   1.213   5.774 -2.2706  0.3179  0.6069
  288MOL0     H38827   3.233   1.118   6.069  2.5033  1.0596  0.0065
  288MOL0     H38828   3.369   1.053   5.961  1.3640  2.4736 -1.4207
  288MOL0     H38829   3.073   1.058   5.935 -0.0824 -0.0833 -2.7462
  288MOL0     H38830   3.175   0.993   5.809 -1.0375 -0.3853  0.2194
  288MOL0     H38831   3.369   0.787   5.919  0.7108  3.2131  0.3706
  288MOL0     H38832   3.422   0.594   6.115 -0.7123  1.6451  0.4425
  288MOL0     H38833   3.271   0.486   6.141 -0.0545 -0.8350 -1.2572
  288MOL0     H38834   3.374   0.376   5.981 -0.8484  0.4793  2.2940
  288MOL0     H38835   3.268   0.472   5.893 -0.6030 -1.2013  0.2118
  288MOL0     H38836   3.569   0.540   5.915  0.1379  0.1020 -0.3411
  288MOL0     H38837   3.446   0.627   5.821  0.5061  0.8958  1.6164
  288MOL0     H38838   3.514   0.322   5.783 -1.2853  0.5404  1.8345
  288MOL0     H38839   3.598   0.453   5.698  0.2004 -1.4110  0.0363
  288MOL0     H38840   3.346   0.220   5.800  0.8940 -0.7579 -0.1882
  288MOL0     H38841   3.170   0.059   5.753  3.2070  1.3496  1.8847
  288MOL0     H38842   2.736  -0.023   5.809  1.0624  0.0276 -1.2354
  288MOL0     H38843   2.550  -0.155   5.801  4.3621 -0.1940  3.6830
  288MOL0     H38844   2.396  -0.381   5.758  2.2742 -2.5852 -1.4765
  288MOL0     H38845   2.325  -0.235   5.677  0.2633  0.8391 -0.5795
  288MOL0     H38846   2.218  -0.381   5.508 -2.9969 -2.9048  0.9743
  288MOL0     H38847   2.317  -0.518   5.545 -3.5588 -1.6672 -1.4364
  288MOL0     H38848   2.108  -0.575   5.632 -2.1256  0.1165  2.9411
  288MOL0     H38849   2.206  -0.528   5.768 -0.3855  4.4159  2.5478
  288MOL0     H38850   1.960  -0.405   5.647  0.7134 -0.9698 -0.5564
  288MOL0     H38851   2.086  -0.283   5.670  0.2185 -0.1643 -1.1103
  288MOL0     H38852   2.021  -0.484   5.895 -1.1240 -0.2248 -0.7624
  288MOL0     H38853   1.899  -0.349   5.865 -0.0119  1.3266 -1.9361
  288MOL0     H38854   2.093  -0.286   6.049 -0.2773 -0.3686 -0.0708
  288MOL0     H38855   2.194  -0.300   5.912  0.8348 -0.6733  1.4169
  288MOL0     H38856   1.944  -0.100   5.920 -1.4707  0.0443 -3.2206
  288MOL0     H38857   2.052  -0.118   5.791  2.3333  2.8646  1.0693
  288MOL0     H38858   2.100   0.068   5.940 -0.9526 -0.2893 -2.7417
  288MOL0     H38859   2.168  -0.050   6.065 -3.2721  0.0520  0.4264
  288MOL0     H38860   2.689  -0.324   5.434 -0.4582 -0.6353  0.5150
  288MOL0     H38861   2.900  -0.210   5.457 -0.8508 -3.0235 -0.0906
  288MOL0     H38862   3.051   0.295   5.402  1.0169 -1.9457 -0.8364
  288MOL0     H38863   3.234   0.451   5.465 -3.8663  1.3979  1.0359
  288MOL0     H38864   3.686   1.288   5.379 -0.1903 -0.3167 -0.2815
  288MOL0     H38865   3.730   1.365   5.139  0.4927  0.8784 -0.3209
  288MOL0     H38866   3.799   1.385   4.689  1.1452  0.0317  1.1447
  288MOL0     H38867   3.847   1.524   4.482 -0.6139  4.3038  0.6441
  288MOL0     H38868   3.886   1.757   4.359  0.6963 -2.9040  1.0450
  288MOL0     H38869   4.018   1.879   4.369 -0.4595  1.8497  1.7099
  288MOL0     H38870   3.980   1.885   4.615 -0.4362 -1.9743  0.7201
  288MOL0     H38871   3.836   1.784   4.599 -0.2958  2.6649  4.8012
  288MOL0     H38872   3.766   2.006   4.621  0.0495 -1.6452  0.7735
  288MOL0     H38873   3.724   1.926   4.468  1.7761 -1.9024 -0.5429
  288MOL0     H38874   3.964   2.130   4.490 -2.0655  2.8439  2.1798
  288MOL0     H38875   3.863   2.083   4.347  0.5903 -0.0597 -0.3833
  288MOL0     H38876   3.631   2.381   4.503 -0.1745 -0.5551  1.1961
  288MOL0     H38877   4.194   1.664   4.679 -0.3905 -1.1269  0.3747
  288MOL0     H38878   4.181   1.489   4.978 -0.0001  2.0250  0.9948
  288MOL0     H38879   4.278   1.574   4.874 -0.9613 -0.3934 -2.8782
  288MOL0     H38880   4.167   1.667   4.960 -2.0222  0.3332  1.0071
  289MOL0     O38881   1.548   6.559   2.464  0.2415  0.1881 -0.2104
  289MOL0     C38882   1.630   6.631   2.406  0.4387  0.0019  0.0298
  289MOL0     O38883   1.610   6.693   2.290  0.6808 -0.4121  0.4622
  289MOL0     C38884   1.509   6.662   2.198  0.1198  0.4094 -0.5119
  289MOL0     C38885   1.491   6.531   2.154 -1.4373 -0.2523 -0.6323
  289MOL0     C38886   1.390   6.501   2.056 -1.0242  0.0213  0.0548
  289MOL0     C38887   1.302   6.613   2.013  0.3693  0.8369  0.9139
  289MOL0     O38888   1.205   6.608   1.910  0.4854 -0.2099 -0.0670
  289MOL0     C38889   1.210   6.495   1.828 -0.0315 -0.3284 -0.1262
  289MOL0     C38890   1.127   6.541   1.703 -0.3954  0.4398 -0.4306
  289MOL0     C38891   1.107   6.430   1.608 -0.0893  0.7617  1.2443
  289MOL0     C38892   1.237   6.394   1.543  1.6288 -0.3103 -0.9168
  289MOL0     C38893   1.222   6.277   1.443  0.1015  0.3969 -0.5614
  289MOL0     C38894   1.165   6.327   1.316  0.1039 -0.4821 -0.5575
  289MOL0     C38895   1.261   6.432   1.251 -0.2278 -1.2092  0.3142
  289MOL0     C38896   1.387   6.390   1.175 -0.4318 -1.0037 -0.0235
  289MOL0     N38897   1.354   6.370   1.037  0.5214  0.5102 -0.5418
  289MOL0     C38898   1.422   6.430   0.934  0.2818 -0.1073 -0.9693
  289MOL0     C38899   1.364   6.384   0.820 -0.0318  0.9364 -0.1210
  289MOL0     C38900   1.393   6.450   0.689  0.0948  0.6129 -0.9435
  289MOL0     C38901   1.332   6.592   0.686  0.3649 -0.0489  0.0092
  289MOL0     C38902   1.390   6.687   0.584  0.0098 -0.3555  0.1466
  289MOL0     C38903   1.296   6.800   0.558  0.0002  1.1870  0.4666
  289MOL0     O38904   1.204   6.747   0.452  0.1435 -1.1646  0.4408
  289MOL0     C38905   1.094   6.820   0.424  0.1018  0.3173 -0.3231
  289MOL0     C38906   1.045   6.831   0.289  0.1434 -0.4375 -0.5713
  289MOL0     C38907   0.948   6.921   0.244  0.4150  0.6009  0.2146
  289MOL0     C38908   0.875   6.995   0.343 -0.3440  0.7996  0.1902
  289MOL0     C38909   0.763   7.083   0.304  0.1291  0.0957  0.1946
  289MOL0     O38910   0.718   7.062   0.185 -0.5901 -0.1453  0.1644
  289MOL0     C38911   0.597   7.093   0.139  0.5618  0.1168 -0.1413
  289MOL0     C38912   0.574   7.107  -0.000  0.0396 -0.7340 -1.0182
  289MOL0     C38913   0.448   7.124  -0.059 -0.4649 -0.5164 -0.3407
  289MOL0     C38914   0.334   7.151   0.030  0.6251  0.3217 -0.5043
  289MOL0     O38915   0.216   7.177  -0.031 -0.6075  0.4124  0.1291
  289MOL0     C38916   0.099   7.151   0.046  0.7447  0.2198 -0.0022
  289MOL0     C38917  -0.027   7.139  -0.053 -0.9719  0.0285 -0.0176
  289MOL0     C38918  -0.023   7.005  -0.126  0.9200  0.6545 -0.2873
  289MOL0     C38919  -0.081   7.013  -0.257  1.0171 -0.3276  0.8226
  289MOL0     C38920  -0.072   6.875  -0.325  1.1134  0.3080 -0.4082
  289MOL0     C38921  -0.146   6.861  -0.461  0.0550  0.0561  0.1665
  289MOL0     C38922  -0.146   6.713  -0.496  0.2073 -0.1480 -0.6564
  289MOL0     C38923  -0.190   6.697  -0.640  0.4943 -0.3890  0.0191
  289MOL0    Cl38924  -0.075   6.761  -0.754  0.0284  0.4731  0.1046
  289MOL0     C38925   0.358   7.145   0.167 -0.1478 -0.5517  0.0020
  289MOL0     C38926   0.486   7.115   0.220 -0.7118 -0.0432 -0.7925
  289MOL0     O38927   0.711   7.158   0.380  0.5343  0.6445 -0.0734
  289MOL0     C38928   0.919   6.980   0.478  0.4880  0.2819 -1.5401
  289MOL0     C38929   1.025   6.899   0.518  0.5498 -0.4692  0.5374
  289MOL0     N38930   1.259   6.308   0.856  0.5925 -0.2061 -0.0741
  289MOL0     N38931   1.251   6.294   0.987  0.2797 -0.1100  1.4973
  289MOL0     C38932   1.318   6.738   2.065  0.3807 -1.1054  0.3601
  289MOL0     C38933   1.423   6.766   2.156  0.5396 -0.7333  0.3278
  289MOL0     C38934   1.752   6.674   2.483  0.8730  0.7532  0.1831
  289MOL0     C38935   1.733   6.686   2.623 -0.4142  0.8931 -0.4332
  289MOL0     C38936   1.850   6.725   2.692 -0.0929  0.2461 -0.2331
  289MOL0     C38937   1.973   6.751   2.629 -0.1701  0.1125  0.8071
  289MOL0     O38938   2.075   6.794   2.714  0.6525  0.6477 -1.1392
  289MOL0     C38939   2.161   6.895   2.659 -0.8517  0.0005 -0.1393
  289MOL0     C38940   2.311   6.847   2.673  0.6610  1.4612 -0.9381
  289MOL0     C38941   2.401   6.955   2.618  0.8081 -0.0564  0.0817
  289MOL0     C38942   2.461   6.911   2.487  0.9869 -0.7664  0.4171
  289MOL0     C38943   2.379   6.947   2.368 -0.3333 -0.4441 -0.4687
  289MOL0     C38944   2.287   6.960   2.293 -0.5441  0.2451  0.4108
  289MOL0     C38945   1.982   6.740   2.493 -0.4929 -0.2546 -0.4657
  289MOL0     C38946   1.871   6.699   2.417 -0.4565  0.1172 -0.4933
  289MOL0     C38947   1.901   6.674   2.272 -0.2139 -0.3362 -0.1051
  289MOL0     H38948   1.562   6.458   2.191 -1.6491  0.0350  0.3433
  289MOL0     H38949   1.361   6.402   2.021 -0.9830  0.8521 -2.5491
  289MOL0     H38950   1.311   6.458   1.807  0.8421  2.2242 -0.8368
  289MOL0     H38951   1.150   6.421   1.882  0.2380  0.1474  0.8491
  289MOL0     H38952   1.177   6.628   1.660  0.5598 -0.7111 -1.7507
  289MOL0     H38953   1.028   6.578   1.730 -0.3876 -0.8056  1.4965
  289MOL0     H38954   1.035   6.462   1.532  0.8680  1.7847  0.7400
  289MOL0     H38955   1.064   6.340   1.653  0.0375  0.0558  0.0141
  289MOL0     H38956   1.290   6.484   1.509 -0.6755  1.4588 -0.0743
  289MOL0     H38957   1.300   6.345   1.617  0.4731 -3.3895 -1.8386
  289MOL0     H38958   1.321   6.231   1.437  0.0806  0.0179  1.3584
  289MOL0     H38959   1.158   6.198   1.482 -1.5333  2.2679  0.7720
  289MOL0     H38960   1.173   6.242   1.249  2.3259  0.4717 -1.6195
  289MOL0     H38961   1.066   6.368   1.336  1.0168  1.7350 -0.1760
  289MOL0     H38962   1.288   6.519   1.312  0.3951  1.0081 -2.8142
  289MOL0     H38963   1.195   6.482   1.179  0.5931 -0.5263  0.0102
  289MOL0     H38964   1.448   6.481   1.173 -5.4096  2.8043  0.0135
  289MOL0     H38965   1.421   6.289   1.199  1.1387 -1.6126 -4.0328
  289MOL0     H38966   1.488   6.514   0.949  1.3340 -0.6514 -2.3626
  289MOL0     H38967   1.501   6.455   0.676  0.2044  1.6656  0.2091
  289MOL0     H38968   1.351   6.385   0.612  0.1278 -1.5792  0.7826
  289MOL0     H38969   1.229   6.569   0.657 -0.5261  0.0375  2.7815
  289MOL0     H38970   1.340   6.632   0.787  0.6744 -2.6955  1.1025
  289MOL0     H38971   1.411   6.636   0.490 -2.3403  1.0581 -1.2460
  289MOL0     H38972   1.482   6.729   0.624  1.0884  2.0223 -4.1691
  289MOL0     H38973   1.364   6.880   0.529 -0.4912  1.0589 -1.1330
  289MOL0     H38974   1.243   6.818   0.653 -2.2843  1.5266 -0.8033
  289MOL0     H38975   1.103   6.792   0.206 -1.8234 -1.7786 -1.3846
  289MOL0     H38976   0.921   6.942   0.141 -0.9307 -0.7637  0.2566
  289MOL0     H38977   0.657   7.075  -0.063 -0.4245 -1.5271 -1.2487
  289MOL0     H38978   0.432   7.110  -0.166  0.9938 -2.1840 -0.3838
  289MOL0     H38979   0.110   7.051   0.089 -1.2244  0.4758  1.2258
  289MOL0     H38980   0.090   7.221   0.130 -0.1771 -0.3664  0.4053
  289MOL0     H38981  -0.112   7.136   0.017 -0.3183 -1.0203  0.7570
  289MOL0     H38982  -0.032   7.233  -0.108 -2.0135 -0.1228 -0.2153
  289MOL0     H38983   0.083   6.976  -0.127  1.0528  0.7969  2.2012
  289MOL0     H38984  -0.093   6.936  -0.078 -1.0155  2.0591 -0.9482
  289MOL0     H38985  -0.021   7.086  -0.312 -1.6394  0.2767 -1.4733
  289MOL0     H38986  -0.178   7.060  -0.241  0.4513 -2.0955  3.1870
  289MOL0     H38987  -0.118   6.810  -0.250 -0.4764  2.1653  0.3221
  289MOL0     H38988   0.032   6.844  -0.340  0.7662  0.5791 -4.3124
  289MOL0     H38989  -0.247   6.903  -0.455 -1.0144 -1.7622 -2.8505
  289MOL0     H38990  -0.093   6.921  -0.535  3.3926 -0.9392  1.5740
  289MOL0     H38991  -0.210   6.650  -0.434  1.3879 -2.3843 -1.5999
  289MOL0     H38992  -0.041   6.680  -0.497  1.2282  2.7482  0.1790
  289MOL0     H38993  -0.200   6.589  -0.656  2.2629 -0.1241 -3.9065
  289MOL0     H38994  -0.284   6.752  -0.648 -0.6851 -0.9650  5.6659
  289MOL0     H38995   0.278   7.161   0.239  1.0863  1.8404  0.9311
  289MOL0     H38996   0.497   7.097   0.327 -1.4301 -2.0367 -1.0092
  289MOL0     H38997   0.859   7.031   0.553  0.4648  1.2747 -2.2093
  289MOL0     H38998   1.046   6.891   0.624 -1.2187  2.6576  1.2378
  289MOL0     H38999   1.247   6.808   2.022 -0.1456 -1.4290  0.6887
  289MOL0     H39000   1.430   6.861   2.207 -1.0387 -0.7910  0.6941
  289MOL0     H39001   1.640   6.660   2.673  1.0416 -2.4658  0.8498
  289MOL0     H39002   1.831   6.720   2.799 -0.6524 -0.1894 -0.3464
  289MOL0     H39003   2.127   6.984   2.712  0.9395 -0.0549  1.1880
  289MOL0     H39004   2.147   6.919   2.553  1.2813  1.7386 -0.0859
  289MOL0     H39005   2.315   6.752   2.620  0.2628  0.8701  0.0720
  289MOL0     H39006   2.327   6.826   2.780 -1.6967 -1.4106 -1.0310
  289MOL0     H39007   2.481   6.978   2.689  2.4969  2.0860 -2.3373
  289MOL0     H39008   2.351   7.052   2.606  3.8421  1.5784 -0.5865
  289MOL0     H39009   2.555   6.967   2.488  0.8803 -0.4616 -1.5843
  289MOL0     H39010   2.494   6.807   2.480 -3.4148 -2.3634  0.3194
  289MOL0     H39011   2.213   6.991   2.222  2.1275  0.8744 -2.3284
  289MOL0     H39012   2.074   6.755   2.437  1.3242 -0.3387  2.2547
  289MOL0     H39013   1.846   6.738   2.202 -1.5165 -1.1258  0.1745
  289MOL0     H39014   2.005   6.672   2.238  0.1996 -0.6047  1.1480
  289MOL0     H39015   1.868   6.573   2.246  2.4813 -1.5861  0.9238
  290MOL0     O39016   4.008   2.426  10.867 -0.0574  0.0871 -0.5445
  290MOL0     C39017   4.078   2.360  10.785  0.2412  0.1094 -0.3138
  290MOL0     O39018   4.083   2.391  10.651 -0.5136 -0.1321  0.7132
  290MOL0     C39019   3.999   2.487  10.602 -0.8905 -0.3934  0.8703
  290MOL0     C39020   4.064   2.558  10.490  0.4277  0.0759 -0.7618
  290MOL0     C39021   4.009   2.658  10.423  0.2950 -0.1153 -0.3113
  290MOL0     C39022   3.875   2.702  10.465 -0.5964 -0.6112  0.8452
  290MOL0     O39023   3.811   2.794  10.386 -0.1140 -0.4272  0.4262
  290MOL0     C39024   3.679   2.854  10.423  0.3224 -0.1182 -0.6267
  290MOL0     C39025   3.569   2.756  10.402  0.4758 -0.6240 -0.3506
  290MOL0     C39026   3.438   2.814  10.355  0.1375 -1.0236  0.6014
  290MOL0     C39027   3.314   2.727  10.378 -0.9201 -0.4909 -0.0754
  290MOL0     C39028   3.183   2.792  10.343  0.0239  0.1046 -0.1924
  290MOL0     C39029   3.069   2.695  10.376 -0.2728 -0.3203  0.8573
  290MOL0     C39030   2.938   2.754  10.319 -0.4090 -0.4239  0.2030
  290MOL0     C39031   2.832   2.667  10.367 -0.6038 -0.1833 -0.6498
  290MOL0     N39032   2.710   2.740  10.318 -0.3566  0.8140 -0.4312
  290MOL0     C39033   2.653   2.826  10.398 -0.0270  0.0701  0.0495
  290MOL0     C39034   2.533   2.856  10.339 -0.0097 -0.5984  0.5333
  290MOL0     C39035   2.426   2.942  10.392  0.1379  0.3931 -0.4248
  290MOL0     C39036   2.284   2.875  10.382  0.9421 -0.6963  0.2828
  290MOL0     C39037   2.162   2.958  10.426  0.0246 -0.3439 -0.1103
  290MOL0     C39038   2.161   3.108  10.390  0.3397  0.6727  0.6914
  290MOL0     O39039   2.168   3.136  10.248 -0.7804 -0.3965  0.2179
  290MOL0     C39040   2.180   3.271  10.221 -0.2918  0.1541 -0.5849
  290MOL0     C39041   2.162   3.379  10.314 -0.1092  0.2761  0.1595
  290MOL0     C39042   2.190   3.511  10.273 -0.0300 -0.2416  0.2084
  290MOL0     C39043   2.203   3.546  10.141 -0.7007  0.5894  0.0377
  290MOL0     C39044   2.210   3.687  10.101  0.2231 -0.4485  0.3485
  290MOL0     O39045   2.196   3.784  10.199 -0.4453  0.5369 -0.3319
  290MOL0     C39046   2.192   3.916  10.172  0.2137 -0.1255  0.1823
  290MOL0     C39047   2.156   3.982  10.045  0.4925 -0.4173  0.1526
  290MOL0     C39048   2.170   4.114  10.044  0.8264 -0.9726 -1.1298
  290MOL0     C39049   2.184   4.195  10.154  0.3237 -0.7587  0.7574
  290MOL0     O39050   2.169   4.330  10.129 -0.6075 -0.1215 -0.4005
  290MOL0     C39051   2.118   4.421  10.231  0.3718 -0.8691  0.4805
  290MOL0     C39052   2.062   4.541  10.159  1.0717 -0.2152  0.0764
  290MOL0     C39053   1.983   4.636  10.258  0.2078  0.8064 -0.6722
  290MOL0     C39054   1.905   4.736  10.181  0.0902  0.8570 -0.1238
  290MOL0     C39055   1.835   4.838  10.272  0.2230 -0.6893 -0.4979
  290MOL0     C39056   1.727   4.915  10.192 -0.2382 -0.2175  0.6995
  290MOL0     C39057   1.770   4.971  10.047  0.0352 -0.0411 -0.0065
  290MOL0     C39058   1.664   5.066   9.989  0.4185  0.7722  0.3199
  290MOL0    Cl39059   1.510   4.983   9.949  0.1917 -0.3268 -0.1289
  290MOL0     C39060   2.216   4.138  10.279 -0.3859  0.9546  0.5169
  290MOL0     C39061   2.231   3.999  10.281  0.4915  0.6705 -0.2031
  290MOL0     O39062   2.214   3.711   9.981 -0.4921 -0.0458  0.1754
  290MOL0     C39063   2.209   3.442  10.050  0.0202  0.0900  0.4862
  290MOL0     C39064   2.211   3.310  10.091  0.5793 -0.4084  0.9447
  290MOL0     N39065   2.521   2.783  10.226 -0.2425  0.9540  0.3152
  290MOL0     N39066   2.633   2.706  10.215  0.5322 -0.2382  0.7238
  290MOL0     C39067   3.814   2.639  10.574  0.7941 -1.3356  0.2828
  290MOL0     C39068   3.871   2.538  10.644 -0.5392 -0.1415  0.3653
  290MOL0     C39069   4.149   2.245  10.850  0.4654 -1.1087 -0.4858
  290MOL0     C39070   4.086   2.179  10.964  0.0770  0.3387 -0.3236
  290MOL0     C39071   4.146   2.069  11.025  0.2719  0.3128  0.5634
  290MOL0     C39072   4.274   2.027  10.985  0.4759 -0.0060  0.0888
  290MOL0     O39073   4.333   1.909  11.035  0.1451 -0.2047  1.0647
  290MOL0     C39074   4.418   1.839  10.936  0.3958 -0.5767 -0.1612
  290MOL0     C39075   4.557   1.816  10.994  0.3711  0.2029 -0.0807
  290MOL0     C39076   4.556   1.743  11.124  0.8981  0.0201 -1.3513
  290MOL0     C39077   4.540   1.589  11.119  0.2289  0.0476  1.3172
  290MOL0     C39078   4.426   1.533  11.040  0.5442 -0.1366 -0.0016
  290MOL0     C39079   4.321   1.482  10.988  0.0120 -0.0106  0.7366
  290MOL0     C39080   4.343   2.106  10.887  0.2385 -0.4014  0.4612
  290MOL0     C39081   4.278   2.203  10.799 -0.4568  0.2489  0.1197
  290MOL0     C39082   4.355   2.271  10.684 -0.3284  0.6616  0.4361
  290MOL0     H39083   4.162   2.518  10.463 -1.4749 -6.7211  0.5531
  290MOL0     H39084   4.062   2.707  10.342  2.4072  1.4294  1.8526
  290MOL0     H39085   3.669   2.888  10.526 -1.2540 -2.5529  0.0918
  290MOL0     H39086   3.669   2.939  10.354  3.1915  1.4090  0.6555
  290MOL0     H39087   3.551   2.700  10.494 -1.8602 -2.7792 -1.9711
  290MOL0     H39088   3.599   2.681  10.328 -1.5505 -1.0902 -0.7506
  290MOL0     H39089   3.441   2.822  10.246 -1.8197 -0.0162  0.5725
  290MOL0     H39090   3.420   2.915  10.393  1.3081 -0.8245  0.6630
  290MOL0     H39091   3.327   2.626  10.340 -1.3199 -1.1990  1.6014
  290MOL0     H39092   3.312   2.704  10.484  0.6112 -1.7879 -0.3046
  290MOL0     H39093   3.162   2.881  10.403 -1.0419  0.6916 -1.4101
  290MOL0     H39094   3.183   2.821  10.238  2.9014  1.8735  0.1538
  290MOL0     H39095   3.087   2.598  10.330  0.9067  0.8541 -1.2677
  290MOL0     H39096   3.055   2.684  10.484 -3.6032  0.4632  0.6059
  290MOL0     H39097   2.938   2.751  10.210 -1.8733  0.0782  0.1703
  290MOL0     H39098   2.922   2.855  10.360 -0.1073 -0.6019  0.7730
  290MOL0     H39099   2.841   2.566  10.325 -0.6858 -0.7591  0.6868
  290MOL0     H39100   2.834   2.662  10.476 -0.0845  1.6186 -0.5444
  290MOL0     H39101   2.695   2.882  10.482 -0.6024  4.5372 -2.3073
  290MOL0     H39102   2.447   2.963  10.498 -3.8434 -0.3332  0.6726
  290MOL0     H39103   2.440   3.035  10.337  0.7095  1.1324  0.9209
  290MOL0     H39104   2.263   2.841  10.281  1.5379  0.6980 -0.3397
  290MOL0     H39105   2.289   2.793  10.455  0.4281 -0.3551  0.7070
  290MOL0     H39106   2.160   2.963  10.535 -2.5417 -2.9529  0.0637
  290MOL0     H39107   2.075   2.903  10.392 -0.0487 -0.9542  1.0068
  290MOL0     H39108   2.250   3.151  10.436  1.4634 -1.1950  0.3643
  290MOL0     H39109   2.079   3.156  10.444  1.2210  0.1188  2.6073
  290MOL0     H39110   2.140   3.352  10.417 -3.4061 -0.3146 -0.5821
  290MOL0     H39111   2.183   3.597  10.339 -1.0940 -1.0042  1.1363
  290MOL0     H39112   2.135   3.920   9.959 -2.3809 -1.4625  1.4859
  290MOL0     H39113   2.144   4.160   9.950 -0.4828  2.1548  0.6227
  290MOL0     H39114   2.042   4.379  10.297  1.9749 -1.5802  1.9668
  290MOL0     H39115   2.200   4.462  10.292  1.6373 -1.2228 -0.9218
  290MOL0     H39116   2.147   4.600  10.121  0.5251  0.4002 -0.2201
  290MOL0     H39117   1.996   4.511  10.078  1.6063  0.4776 -0.6395
  290MOL0     H39118   1.921   4.576  10.325  1.3295 -0.7917 -1.0143
  290MOL0     H39119   2.051   4.688  10.328  0.8394  0.1453 -0.7798
  290MOL0     H39120   1.833   4.691  10.112 -0.5352  2.1177 -0.3213
  290MOL0     H39121   1.983   4.784  10.122 -0.7073 -0.3424 -2.2871
  290MOL0     H39122   1.918   4.908  10.287 -1.9099  1.5524  1.7332
  290MOL0     H39123   1.799   4.803  10.369 -1.3932  1.4416 -0.2671
  290MOL0     H39124   1.646   4.841  10.179 -0.0247 -0.8990  2.8092
  290MOL0     H39125   1.687   4.996  10.253  2.0047  1.2353  0.3357
  290MOL0     H39126   1.806   4.890   9.982  2.4308  3.1057 -3.0087
  290MOL0     H39127   1.861   5.030  10.061 -0.6911  1.0584  0.1936
  290MOL0     H39128   1.650   5.146  10.062 -0.5842  2.4065 -1.5522
  290MOL0     H39129   1.707   5.110   9.899  0.9347 -1.7645 -0.7584
  290MOL0     H39130   2.257   4.200  10.358  3.4330 -1.0971  0.4156
  290MOL0     H39131   2.264   3.952  10.372  2.5276  1.9123 -0.2406
  290MOL0     H39132   2.238   3.458   9.947 -0.1135 -0.4347  0.3613
  290MOL0     H39133   2.217   3.234  10.014  2.8983  3.1233 -2.7714
  290MOL0     H39134   3.715   2.674  10.602 -0.0595 -3.3758 -0.0580
  290MOL0     H39135   3.802   2.490  10.713  0.5314 -0.2219  1.4200
  290MOL0     H39136   3.996   2.214  11.013  1.1273  0.7146  1.3986
  290MOL0     H39137   4.089   2.017  11.102 -1.8546 -0.3033 -1.3250
  290MOL0     H39138   4.447   1.894  10.846 -0.1362  1.4760  0.8685
  290MOL0     H39139   4.371   1.748  10.898  1.5257 -1.1644 -0.1965
  290MOL0     H39140   4.601   1.915  11.009  1.8462 -0.3798 -0.4309
  290MOL0     H39141   4.626   1.759  10.931  2.7096  1.9178  0.8026
  290MOL0     H39142   4.467   1.768  11.183  2.2227  2.7858 -0.3861
  290MOL0     H39143   4.645   1.759  11.186 -0.8202  0.6224  1.1248
  290MOL0     H39144   4.629   1.555  11.065 -0.0475  0.8277  0.3282
  290MOL0     H39145   4.525   1.557  11.222  1.4174  4.1820  2.9676
  290MOL0     H39146   4.234   1.440  10.942  0.9291  0.9980 -2.1854
  290MOL0     H39147   4.448   2.087  10.869 -0.0718 -2.3215  0.4966
  290MOL0     H39148   4.360   2.378  10.710  0.6464  1.2563 -1.9326
  290MOL0     H39149   4.454   2.225  10.675 -1.3170 -2.0212  2.2192
  290MOL0     H39150   4.313   2.270  10.583  1.4997  1.6257 -0.3907
  291MOL0     O39151   3.505  10.170   3.883 -0.2623  0.4011 -0.1459
  291MOL0     C39152   3.580  10.167   3.789 -0.6459 -0.3805 -0.0893
  291MOL0     O39153   3.537  10.169   3.660 -0.0104  0.8129  0.1492
  291MOL0     C39154   3.422  10.103   3.629 -0.5381  0.7484 -0.3401
  291MOL0     C39155   3.361  10.134   3.503 -0.5985  0.1875 -0.2783
  291MOL0     C39156   3.268  10.045   3.449 -0.2565 -0.1934  0.4577
  291MOL0     C39157   3.219   9.927   3.516  0.0789 -0.9307  0.1504
  291MOL0     O39158   3.134   9.838   3.456 -0.2976 -0.2290 -1.1993
  291MOL0     C39159   3.065   9.730   3.536  0.1439  0.1943  0.4928
  291MOL0     C39160   2.962   9.672   3.444  0.5388  1.0198 -0.5961
  291MOL0     C39161   2.918   9.528   3.478  0.2051  0.6723 -1.0098
  291MOL0     C39162   3.034   9.429   3.449 -0.2587  0.3829  0.6211
  291MOL0     C39163   2.979   9.287   3.492 -0.9635 -0.0651 -0.3158
  291MOL0     C39164   3.077   9.180   3.456 -0.7590  0.5014 -0.5707
  291MOL0     C39165   3.165   9.142   3.583  0.1735  0.1165  0.6793
  291MOL0     C39166   3.226   8.999   3.565  0.3548  0.1127 -0.2375
  291MOL0     N39167   3.300   8.973   3.435  0.5963 -1.3348 -0.3407
  291MOL0     C39168   3.237   8.916   3.327 -0.3364  0.2451 -0.1525
  291MOL0     C39169   3.351   8.896   3.243  0.8897  0.7322  0.0909
  291MOL0     C39170   3.319   8.825   3.110 -0.0699  0.0344 -0.2885
  291MOL0     C39171   3.303   8.671   3.130  0.8087 -0.0803 -1.2479
  291MOL0     C39172   3.435   8.605   3.153 -0.3950 -0.9984  0.2913
  291MOL0     C39173   3.435   8.452   3.135  0.4248 -0.4512 -0.9712
  291MOL0     O39174   3.565   8.406   3.161  0.2960 -0.1960  0.2381
  291MOL0     C39175   3.585   8.279   3.206 -1.0557 -0.0644  0.0959
  291MOL0     C39176   3.496   8.197   3.270 -0.6273  0.0375 -0.7913
  291MOL0     C39177   3.535   8.077   3.318  0.3671 -0.0697  0.5039
  291MOL0     C39178   3.664   8.031   3.311  0.2320 -0.3974 -0.3074
  291MOL0     C39179   3.710   7.901   3.358  0.5953 -0.3811 -0.2089
  291MOL0     O39180   3.832   7.859   3.302  0.6375  0.3241 -0.1582
  291MOL0     C39181   3.893   7.741   3.331 -0.2520  0.3401  0.3612
  291MOL0     C39182   3.960   7.682   3.230 -0.5044  0.5302 -0.4518
  291MOL0     C39183   4.021   7.560   3.257  1.0810  0.1054 -0.3742
  291MOL0     C39184   4.012   7.495   3.382 -1.0139 -0.5667 -0.1148
  291MOL0     O39185   4.085   7.382   3.405 -0.1353 -0.0359 -0.4682
  291MOL0     C39186   4.028   7.284   3.491  0.7945  0.3054 -0.2261
  291MOL0     C39187   4.080   7.142   3.452 -0.9133 -0.6490 -0.8427
  291MOL0     C39188   3.997   7.094   3.334  0.1296 -0.4463 -0.3274
  291MOL0     C39189   4.024   7.162   3.193 -0.3779  0.2402  1.0398
  291MOL0     C39190   3.970   7.069   3.076  0.0306  0.3134 -0.5386
  291MOL0     C39191   3.968   7.140   2.944 -1.2314 -0.5933  0.6829
  291MOL0     C39192   4.081   7.232   2.899 -0.9276 -0.2435 -0.5471
  291MOL0     C39193   4.067   7.274   2.750 -0.7915  0.7884 -0.7790
  291MOL0    Cl39194   3.935   7.399   2.716  0.2238  0.2558 -0.3253
  291MOL0     C39195   3.944   7.564   3.479  0.3218 -0.5759 -0.6075
  291MOL0     C39196   3.884   7.681   3.451 -0.3130 -0.1010 -0.3402
  291MOL0     O39197   3.639   7.833   3.428 -0.4630 -0.1974 -0.2040
  291MOL0     C39198   3.755   8.113   3.229  0.4018 -0.0565  0.0761
  291MOL0     C39199   3.720   8.241   3.190  0.2639 -0.1708 -0.8015
  291MOL0     N39200   3.461   8.914   3.313 -0.7320  0.0681 -0.8885
  291MOL0     N39201   3.432   8.979   3.421 -0.4024  0.3001 -0.0077
  291MOL0     C39202   3.280   9.901   3.640 -0.2375  0.6689  1.1604
  291MOL0     C39203   3.386   9.980   3.689  1.3291 -0.2834 -1.1488
  291MOL0     C39204   3.727  10.184   3.811 -0.1444 -0.5011 -0.1539
  291MOL0     C39205   3.814  10.098   3.729 -0.0946  0.2148  0.2786
  291MOL0     C39206   3.953  10.098   3.748  0.3948  0.4020 -0.2174
  291MOL0     C39207   4.008  10.186   3.843  0.1204  0.8489 -0.1534
  291MOL0     O39208   4.139  10.214   3.861 -0.1971 -0.1172  0.5580
  291MOL0     C39209   4.227  10.116   3.803 -0.3071  0.2794  0.3570
  291MOL0     C39210   4.368  10.173   3.847  0.1325 -0.7881  0.7466
  291MOL0     C39211   4.397  10.318   3.804 -0.7124  0.5953 -0.1088
  291MOL0     C39212   4.532  10.373   3.847 -0.2253 -0.3003 -0.3009
  291MOL0     C39213   4.651  10.300   3.793  1.0816 -0.2845  0.2161
  291MOL0     C39214   4.742  10.225   3.752  0.6147 -0.3736 -0.4832
  291MOL0     C39215   3.927  10.264   3.920 -0.8356  0.3650  0.2310
  291MOL0     C39216   3.791  10.268   3.907 -0.6813 -1.2666  0.2935
  291MOL0     C39217   3.712  10.386   3.972 -0.8137 -0.3033  0.6102
  291MOL0     H39218   3.395  10.214   3.438  4.3211  0.4924  2.2047
  291MOL0     H39219   3.218  10.054   3.353 -0.6414  1.1421  0.7646
  291MOL0     H39220   3.130   9.647   3.567 -0.0715  0.1150  0.7386
  291MOL0     H39221   3.011   9.785   3.614  1.3272  1.2555  0.5777
  291MOL0     H39222   3.000   9.670   3.341 -0.5292  0.8393 -0.9950
  291MOL0     H39223   2.884   9.749   3.440  1.3016  1.7757 -3.3739
  291MOL0     H39224   2.819   9.507   3.437 -0.0204  1.4803 -0.9119
  291MOL0     H39225   2.896   9.515   3.584 -0.7504  1.0045 -1.1564
  291MOL0     H39226   3.065   9.439   3.345 -0.5851  1.5226  0.6155
  291MOL0     H39227   3.128   9.443   3.502 -0.1804  1.6227  0.1930
  291MOL0     H39228   2.958   9.275   3.599  1.4651  0.0775  0.2546
  291MOL0     H39229   2.886   9.260   3.441 -0.6279 -1.4506 -0.2279
  291MOL0     H39230   3.025   9.098   3.407  0.7467 -0.8878  0.0746
  291MOL0     H39231   3.140   9.231   3.381 -1.6150  0.6594 -1.1898
  291MOL0     H39232   3.100   9.130   3.670 -0.8547 -2.2511 -0.3127
  291MOL0     H39233   3.237   9.222   3.599 -0.2998  0.6619  0.1422
  291MOL0     H39234   3.302   8.994   3.643 -1.3430 -2.5434  1.3726
  291MOL0     H39235   3.157   8.919   3.590  1.7643 -1.2322 -0.4944
  291MOL0     H39236   3.134   8.883   3.330  0.0362 -0.9438  0.9284
  291MOL0     H39237   3.226   8.871   3.075 -1.1649 -1.7674  0.1290
  291MOL0     H39238   3.401   8.843   3.039 -0.9342  0.4629 -1.2078
  291MOL0     H39239   3.229   8.644   3.206  0.9056 -1.9158 -1.7413
  291MOL0     H39240   3.252   8.637   3.040  1.6284 -3.7255 -0.5154
  291MOL0     H39241   3.468   8.631   3.254  1.6904  0.9711 -0.8195
  291MOL0     H39242   3.500   8.649   3.077 -1.9760  0.6682 -0.1958
  291MOL0     H39243   3.398   8.423   3.036  0.9463 -1.2270 -0.9495
  291MOL0     H39244   3.365   8.428   3.215  0.4388 -0.5522 -0.9881
  291MOL0     H39245   3.396   8.229   3.298  0.5017  2.4639  0.8424
  291MOL0     H39246   3.469   8.009   3.370 -0.0940 -0.1301 -0.1495
  291MOL0     H39247   3.955   7.728   3.132 -0.8686  0.4874 -0.4560
  291MOL0     H39248   4.086   7.505   3.190  1.9432 -0.9955  1.2854
  291MOL0     H39249   4.050   7.306   3.596  2.5568  1.5292 -0.7921
  291MOL0     H39250   3.919   7.280   3.497  0.8370 -0.7817  0.1759
  291MOL0     H39251   4.187   7.138   3.428 -1.0986  1.3980 -2.2507
  291MOL0     H39252   4.070   7.073   3.537  2.3701  2.2088  2.2187
  291MOL0     H39253   4.011   6.987   3.316  0.0331 -0.3459 -1.0232
  291MOL0     H39254   3.891   7.103   3.358 -0.0600 -1.0916 -0.8790
  291MOL0     H39255   4.130   7.181   3.175 -0.1783 -1.1319  0.6863
  291MOL0     H39256   3.973   7.258   3.205  0.7115  1.0755 -0.5995
  291MOL0     H39257   3.871   7.029   3.099  0.1605 -0.0272 -0.5620
  291MOL0     H39258   4.034   6.983   3.053  1.5110  1.7692 -2.1813
  291MOL0     H39259   3.947   7.068   2.864  3.4767  2.0029 -3.4553
  291MOL0     H39260   3.888   7.215   2.937  0.3959  1.1033 -0.7594
  291MOL0     H39261   4.181   7.187   2.912 -1.0139 -0.2058  0.2805
  291MOL0     H39262   4.091   7.323   2.959  2.1720  0.6927 -2.2458
  291MOL0     H39263   4.160   7.320   2.717 -0.5373  1.0840  0.3044
  291MOL0     H39264   4.064   7.184   2.688  2.2981 -0.2910  0.4508
  291MOL0     H39265   3.943   7.524   3.580  1.4790  0.9458  0.0309
  291MOL0     H39266   3.832   7.729   3.534 -2.1980  3.1380 -3.1209
  291MOL0     H39267   3.852   8.066   3.215 -1.4887 -4.1749 -0.6096
  291MOL0     H39268   3.792   8.313   3.152  1.7654 -0.7605  0.8130
  291MOL0     H39269   3.262   9.811   3.698 -1.1090  0.0861  0.0193
  291MOL0     H39270   3.445   9.946   3.774  3.7783  1.8646 -1.8591
  291MOL0     H39271   3.775  10.041   3.645 -0.4848  1.5990 -0.5170
  291MOL0     H39272   4.011  10.046   3.673  0.0365  0.4110 -0.5025
  291MOL0     H39273   4.214  10.103   3.695  0.1521  0.1140  0.3203
  291MOL0     H39274   4.205  10.022   3.855  1.5367  0.1022  0.8785
  291MOL0     H39275   4.433  10.101   3.797 -2.4611 -3.7031  1.3027
  291MOL0     H39276   4.392  10.152   3.951 -0.3232  0.2863  1.0881
  291MOL0     H39277   4.330  10.373   3.871  0.8642 -0.3330  2.3421
  291MOL0     H39278   4.359  10.330   3.702  0.3859 -1.6138 -0.8473
  291MOL0     H39279   4.533  10.482   3.833 -0.6901  0.3236  3.5069
  291MOL0     H39280   4.544  10.365   3.955 -1.6812  1.2570  0.0173
  291MOL0     H39281   4.825  10.178   3.702  1.7960  1.2302 -0.1250
  291MOL0     H39282   3.972  10.341   3.981 -0.8282  1.6301 -1.3203
  291MOL0     H39283   3.610  10.393   3.932 -0.6536 -1.0445  0.0470
  291MOL0     H39284   3.715  10.377   4.081  0.2589  0.8678  0.6943
  291MOL0     H39285   3.768  10.476   3.946 -4.0409  1.0726 -2.5188
  292MOL0     O39286   7.635  11.006   6.001  0.9610 -0.3764  0.2855
  292MOL0     C39287   7.708  11.036   6.096 -0.0461 -1.4727  0.3419
  292MOL0     O39288   7.675  11.120   6.212 -0.9638  0.0535 -0.3993
  292MOL0     C39289   7.563  11.196   6.211 -0.0651  0.5774  0.6503
  292MOL0     C39290   7.489  11.221   6.325  0.5390  0.6763  0.6906
  292MOL0     C39291   7.372  11.302   6.311 -0.9079 -0.6183 -0.2859
  292MOL0     C39292   7.341  11.372   6.196 -0.7624  0.3993 -0.2720
  292MOL0     O39293   7.251  11.472   6.192  0.5532 -0.3533  0.0927
  292MOL0     C39294   7.129  11.469   6.118  0.4610  1.3353 -0.2467
  292MOL0     C39295   7.091  11.609   6.077 -0.1412  0.5296  0.1421
  292MOL0     C39296   6.945  11.623   6.048  0.0792  0.2520  0.3318
  292MOL0     C39297   6.924  11.637   5.899 -0.2652 -0.1283  0.0297
  292MOL0     C39298   6.785  11.592   5.875  0.7690 -0.1542  0.3621
  292MOL0     C39299   6.744  11.622   5.734 -0.0945  0.1628 -1.3152
  292MOL0     C39300   6.685  11.508   5.656 -1.0683  0.4084 -0.1127
  292MOL0     C39301   6.547  11.477   5.706  0.1851 -0.2172  0.0757
  292MOL0     N39302   6.478  11.403   5.600 -0.1011 -0.7185  0.9130
  292MOL0     C39303   6.408  11.467   5.494 -0.1014  0.3010  0.2678
  292MOL0     C39304   6.371  11.362   5.411 -0.3534  0.6752  0.2618
  292MOL0     C39305   6.281  11.369   5.293 -0.8611  0.2033  0.0614
  292MOL0     C39306   6.165  11.272   5.286  0.3350 -0.4673 -0.1683
  292MOL0     C39307   6.059  11.311   5.182  0.1822 -0.2934 -0.2617
  292MOL0     C39308   5.933  11.231   5.183 -0.3836 -0.4549 -0.2313
  292MOL0     O39309   5.834  11.325   5.148 -1.0257 -0.4438  0.1963
  292MOL0     C39310   5.712  11.291   5.187 -0.0460 -0.3602  0.0015
  292MOL0     C39311   5.638  11.400   5.223 -0.2358  0.7641  0.9720
  292MOL0     C39312   5.514  11.376   5.271  0.3991 -0.4541 -0.3488
  292MOL0     C39313   5.449  11.247   5.266 -0.3843  0.3001 -0.7711
  292MOL0     C39314   5.310  11.227   5.296  0.5105  0.3136  0.3776
  292MOL0     O39315   5.232  11.335   5.299 -0.9686 -0.2174 -0.0028
  292MOL0     C39316   5.102  11.320   5.323  1.0987 -0.2808  0.4397
  292MOL0     C39317   5.026  11.251   5.223 -1.3897 -0.5966 -0.5968
  292MOL0     C39318   4.901  11.205   5.258 -0.4578  0.5601  0.0312
  292MOL0     C39319   4.836  11.242   5.380 -0.0137  0.1411  0.2246
  292MOL0     O39320   4.710  11.198   5.416  0.2097 -0.2080  0.0476
  292MOL0     C39321   4.609  11.225   5.322 -1.0189  0.0861 -0.2338
  292MOL0     C39322   4.486  11.153   5.365 -0.1043  0.2910 -0.6302
  292MOL0     C39323   4.363  11.190   5.287 -0.6843 -0.0913 -0.8458
  292MOL0     C39324   4.245  11.155   5.385  0.1077  0.3608 -0.7240
  292MOL0     C39325   4.125  11.253   5.355 -0.4342  0.0355  0.1148
  292MOL0     C39326   4.028  11.231   5.467  0.0295 -0.4313  0.2372
  292MOL0     C39327   3.897  11.318   5.455 -0.4782 -0.2532  0.5267
  292MOL0     C39328   3.815  11.295   5.329 -0.0820 -0.0090 -1.1096
  292MOL0    Cl39329   3.705  11.158   5.351 -0.0228 -0.0804  0.0219
  292MOL0     C39330   4.912  11.319   5.469  0.8080 -0.0319 -0.4980
  292MOL0     C39331   5.043  11.354   5.443  0.2723  0.4163  0.7976
  292MOL0     O39332   5.266  11.111   5.306 -0.1315  0.1612  0.4431
  292MOL0     C39333   5.522  11.139   5.213  0.2674  1.3961 -0.3819
  292MOL0     C39334   5.656  11.167   5.182 -0.0380  0.5848  0.3749
  292MOL0     N39335   6.425  11.245   5.463  0.1743  0.3454 -0.3075
  292MOL0     N39336   6.484  11.267   5.578 -0.6168  0.1258 -0.4246
  292MOL0     C39337   7.423  11.362   6.089 -1.0608 -0.0597 -0.2255
  292MOL0     C39338   7.536  11.274   6.093  0.2742  0.0436  0.6795
  292MOL0     C39339   7.839  10.982   6.087 -0.7894  0.3692 -1.0992
  292MOL0     C39340   7.898  10.956   6.208 -1.1991 -0.1076 -0.0863
  292MOL0     C39341   8.031  10.907   6.213 -1.0362 -0.6946  0.6758
  292MOL0     C39342   8.100  10.882   6.089  0.0303 -0.1778  0.8634
  292MOL0     O39343   8.222  10.821   6.101 -0.2646 -1.2353 -0.0526
  292MOL0     C39344   8.320  10.838   5.994 -1.2452 -1.1481 -0.4407
  292MOL0     C39345   8.465  10.809   6.036  0.0503 -0.2865  0.2036
  292MOL0     C39346   8.548  10.939   6.063 -0.5361  0.4455 -0.9284
  292MOL0     C39347   8.707  10.914   6.064  0.0470  0.2496 -0.0324
  292MOL0     C39348   8.775  11.006   6.149 -0.9220 -0.2100  0.4280
  292MOL0     C39349   8.824  11.072   6.240  0.1070  0.1081  0.0384
  292MOL0     C39350   8.041  10.891   5.962  0.4840 -0.6119 -0.2389
  292MOL0     C39351   7.915  10.955   5.963  0.8545 -0.0806  0.4667
  292MOL0     C39352   7.868  10.993   5.815 -0.1935 -0.5368  0.7670
  292MOL0     H39353   7.506  11.161   6.414  1.0544  1.5645  1.2056
  292MOL0     H39354   7.321  11.324   6.404 -2.3476 -1.7138 -0.7736
  292MOL0     H39355   7.148  11.416   6.025  3.1600  3.7460 -1.2027
  292MOL0     H39356   7.050  11.431   6.184  0.6889  0.8811 -0.2326
  292MOL0     H39357   7.160  11.648   6.001 -1.3200 -0.1941 -1.3374
  292MOL0     H39358   7.112  11.664   6.170 -0.4997  0.4268  0.2855
  292MOL0     H39359   6.903  11.711   6.097 -2.6535 -1.4203  1.2359
  292MOL0     H39360   6.886  11.539   6.087 -1.0953  0.2059 -1.4245
  292MOL0     H39361   6.931  11.742   5.869 -2.2576 -0.2753 -1.1237
  292MOL0     H39362   6.990  11.565   5.851  1.2210  1.0710  0.2122
  292MOL0     H39363   6.786  11.485   5.897 -2.1815 -0.6618 -1.4186
  292MOL0     H39364   6.716  11.645   5.942  2.1077  0.7079  1.1117
  292MOL0     H39365   6.681  11.711   5.738  4.2311  3.6009  1.8080
  292MOL0     H39366   6.837  11.649   5.682  1.7177 -2.2230  0.4038
  292MOL0     H39367   6.757  11.427   5.638 -0.4295 -0.1152  3.9128
  292MOL0     H39368   6.677  11.540   5.551 -1.4502  0.0937 -0.1849
  292MOL0     H39369   6.563  11.421   5.798  3.9205 -0.4546 -0.5445
  292MOL0     H39370   6.482  11.552   5.751 -2.9187 -4.0163  2.5707
  292MOL0     H39371   6.395  11.574   5.502  1.6656  0.4173  2.7613
  292MOL0     H39372   6.240  11.470   5.286 -0.1957  0.3744 -4.3574
  292MOL0     H39373   6.342  11.359   5.202 -1.5791 -0.7594 -0.3350
  292MOL0     H39374   6.193  11.169   5.265 -1.0603 -0.9322  0.1837
  292MOL0     H39375   6.119  11.261   5.385 -4.1095 -2.3507 -2.1821
  292MOL0     H39376   6.103  11.314   5.082  2.5429  0.1437  0.7194
  292MOL0     H39377   6.021  11.414   5.186 -0.2336 -0.4126 -0.9547
  292MOL0     H39378   5.912  11.199   5.286 -0.2294 -3.2619 -1.0131
  292MOL0     H39379   5.937  11.151   5.109  2.0209  2.8163 -4.0535
  292MOL0     H39380   5.670  11.503   5.217  3.3238 -0.2949 -0.8474
  292MOL0     H39381   5.464  11.467   5.302  0.1107 -0.7756  0.1386
  292MOL0     H39382   5.074  11.227   5.129 -2.3584  1.8095 -1.7806
  292MOL0     H39383   4.858  11.132   5.191  1.4893 -2.0213  1.3791
  292MOL0     H39384   4.591  11.332   5.333  2.1967  0.5301  1.9915
  292MOL0     H39385   4.639  11.203   5.219  1.2890 -0.8236  0.5599
  292MOL0     H39386   4.501  11.045   5.356 -1.9317 -0.1871  1.2942
  292MOL0     H39387   4.478  11.193   5.467  1.4338 -2.1517  0.5525
  292MOL0     H39388   4.357  11.297   5.265  2.3155  0.2792 -0.2695
  292MOL0     H39389   4.348  11.137   5.192 -0.6008  2.1791 -2.2204
  292MOL0     H39390   4.274  11.157   5.490 -0.7450 -1.3184 -0.4285
  292MOL0     H39391   4.222  11.049   5.369  0.3508  0.0592  0.8412
  292MOL0     H39392   4.092  11.221   5.256  4.4799 -0.3081 -1.7120
  292MOL0     H39393   4.146  11.360   5.356  1.0537 -0.2214 -0.4462
  292MOL0     H39394   4.003  11.126   5.481  3.6710 -1.0130  4.2356
  292MOL0     H39395   4.078  11.260   5.560  1.6240 -3.7568  0.5622
  292MOL0     H39396   3.931  11.422   5.453 -1.5429  0.1078 -1.5334
  292MOL0     H39397   3.850  11.304   5.553  5.6360 -0.1290  3.9653
  292MOL0     H39398   3.767  11.393   5.325  1.1947  1.0249  3.2738
  292MOL0     H39399   3.866  11.265   5.237  0.9653 -0.2035 -0.4854
  292MOL0     H39400   4.865  11.341   5.563  2.6732  2.6580 -0.0834
  292MOL0     H39401   5.099  11.410   5.518  1.2877  1.3145 -0.6004
  292MOL0     H39402   5.477  11.044   5.185 -3.5394  2.9900 -0.2888
  292MOL0     H39403   5.717  11.097   5.124  0.6552  0.6223  1.0435
  292MOL0     H39404   7.404  11.411   5.994 -2.4523  2.2918  1.1583
  292MOL0     H39405   7.595  11.268   6.002 -0.4196 -0.8027  0.2658
  292MOL0     H39406   7.847  10.983   6.300 -3.4241  0.4368 -1.4073
  292MOL0     H39407   8.080  10.889   6.308 -1.2134  3.4252  1.7345
  292MOL0     H39408   8.315  10.938   5.951 -1.8448 -0.2169  1.6855
  292MOL0     H39409   8.292  10.773   5.911 -1.1998 -1.7185 -0.0171
  292MOL0     H39410   8.506  10.745   5.957  2.1584  2.2535 -0.9107
  292MOL0     H39411   8.465  10.756   6.132  2.1325 -0.9526 -0.1116
  292MOL0     H39412   8.520  10.989   6.156  2.0899 -3.2810  2.2310
  292MOL0     H39413   8.521  11.008   5.983 -2.1689 -1.0226 -1.7172
  292MOL0     H39414   8.724  10.806   6.074  1.3127  0.5690  1.5815
  292MOL0     H39415   8.739  10.937   5.961  3.6264 -2.1856  0.3333
  292MOL0     H39416   8.878  11.122   6.318 -1.4269 -0.9931  1.8849
  292MOL0     H39417   8.089  10.871   5.867  0.2547  1.4012 -0.8254
  292MOL0     H39418   7.830  11.095   5.804 -1.3257 -1.2385 -4.4343
  292MOL0     H39419   7.949  10.979   5.743  0.4963  0.6208  1.2777
  292MOL0     H39420   7.800  10.911   5.791 -0.1617  0.2680 -2.4299
  293MOL0     O39421   2.713   3.824   8.596 -0.1090  0.8615 -0.0134
  293MOL0     C39422   2.602   3.875   8.557 -0.8406  0.4070 -0.3700
  293MOL0     O39423   2.563   4.001   8.591 -0.2216 -0.0398  0.0311
  293MOL0     C39424   2.635   4.070   8.679  0.1027  0.1073 -0.1818
  293MOL0     C39425   2.671   4.024   8.806 -0.0682  0.4507  0.1433
  293MOL0     C39426   2.725   4.107   8.903  0.0809 -0.6466  0.9706
  293MOL0     C39427   2.768   4.237   8.861  0.5576  0.5592  1.0983
  293MOL0     O39428   2.826   4.322   8.941 -0.1315  0.1711 -0.1850
  293MOL0     C39429   2.962   4.287   8.976  0.1801  0.5701 -0.4477
  293MOL0     C39430   3.061   4.344   8.868 -0.9010  0.4022 -0.2343
  293MOL0     C39431   3.034   4.496   8.833  0.2901 -0.2892 -0.3446
  293MOL0     C39432   3.152   4.544   8.753  0.1726  0.1388  0.1276
  293MOL0     C39433   3.147   4.688   8.706 -0.1211 -0.4845  1.1315
  293MOL0     C39434   3.284   4.761   8.694 -0.1935 -0.4720  0.6296
  293MOL0     C39435   3.376   4.703   8.586 -0.5847 -0.0645  0.0791
  293MOL0     C39436   3.509   4.780   8.566 -0.5237  0.2597 -0.6296
  293MOL0     N39437   3.498   4.926   8.533 -0.2759 -0.2838  0.7706
  293MOL0     C39438   3.450   4.982   8.418 -1.2111 -0.3912  0.0872
  293MOL0     C39439   3.435   5.108   8.452  1.0065 -0.9194  0.7528
  293MOL0     C39440   3.352   5.195   8.355 -0.2336 -0.1256  0.8429
  293MOL0     C39441   3.440   5.296   8.272  0.3308 -0.1022 -0.2059
  293MOL0     C39442   3.506   5.234   8.151 -0.3348  0.1567 -1.6038
  293MOL0     C39443   3.575   5.342   8.066 -0.6396 -0.5219 -1.0712
  293MOL0     O39444   3.479   5.407   7.976  1.1558  0.8087  0.3539
  293MOL0     C39445   3.527   5.500   7.893 -0.3313 -0.4886  0.9705
  293MOL0     C39446   3.430   5.570   7.808 -0.9039 -1.2491 -0.8910
  293MOL0     C39447   3.472   5.663   7.714 -0.5419 -0.4914  0.3856
  293MOL0     C39448   3.612   5.686   7.688  0.3602 -1.1660 -0.0205
  293MOL0     C39449   3.651   5.772   7.576 -0.5575 -1.1197  0.0856
  293MOL0     O39450   3.556   5.866   7.544  0.6052 -0.0988  0.4559
  293MOL0     C39451   3.579   5.960   7.453  0.2489 -0.9485  0.2760
  293MOL0     C39452   3.499   5.968   7.342  1.0555  0.4688  0.5754
  293MOL0     C39453   3.510   6.080   7.251 -0.7528 -0.4006 -0.0498
  293MOL0     C39454   3.609   6.178   7.275 -0.4644 -0.3276  0.6155
  293MOL0     O39455   3.634   6.285   7.197  0.3499  0.7034 -0.3995
  293MOL0     C39456   3.589   6.281   7.065  0.3836 -0.0260  0.5610
  293MOL0     C39457   3.644   6.388   6.966  0.6183 -1.1633  0.5103
  293MOL0     C39458   3.584   6.534   6.997 -0.6773  1.8672 -0.5831
  293MOL0     C39459   3.577   6.572   7.148  0.1488  0.6087 -0.2357
  293MOL0     C39460   3.557   6.727   7.165  0.0389  0.2145 -0.4293
  293MOL0     C39461   3.443   6.793   7.082  0.5229 -0.2633  0.2062
  293MOL0     C39462   3.462   6.947   7.066 -0.8036  1.2577  0.8255
  293MOL0     C39463   3.458   7.011   7.205 -0.3414  0.1113 -0.2451
  293MOL0    Cl39464   3.466   7.194   7.185 -0.1455 -0.0938  0.6056
  293MOL0     C39465   3.689   6.156   7.383 -0.1040 -0.6278  0.9207
  293MOL0     C39466   3.671   6.060   7.476 -0.6841  0.0604 -0.1549
  293MOL0     O39467   3.762   5.765   7.521 -0.1414  0.6933  1.0432
  293MOL0     C39468   3.705   5.626   7.775 -0.8009  0.4721 -0.6438
  293MOL0     C39469   3.663   5.532   7.872  0.2642 -0.4960 -0.0492
  293MOL0     N39470   3.477   5.129   8.583 -0.3358 -0.2105 -0.1036
  293MOL0     N39471   3.510   5.019   8.630  0.0972 -0.8334 -0.6699
  293MOL0     C39472   2.726   4.276   8.727 -0.4629  0.8695  0.5377
  293MOL0     C39473   2.664   4.196   8.637 -0.5008  0.5028  0.1269
  293MOL0     C39474   2.505   3.774   8.501 -0.2081  0.3945  0.3064
  293MOL0     C39475   2.386   3.825   8.438  0.0564  0.1386 -2.3480
  293MOL0     C39476   2.287   3.735   8.386 -0.0144  0.2746  0.2336
  293MOL0     C39477   2.300   3.598   8.389  0.1119 -0.4998  0.2423
  293MOL0     O39478   2.188   3.520   8.358  0.0096 -0.0611 -0.0491
  293MOL0     C39479   2.074   3.536   8.439 -0.1128  0.0530 -0.5652
  293MOL0     C39480   1.974   3.416   8.408 -0.3150  0.9701  0.2160
  293MOL0     C39481   1.825   3.448   8.461 -0.4824  0.3294 -0.0293
  293MOL0     C39482   1.732   3.349   8.384  0.0834 -0.3925 -0.5106
  293MOL0     C39483   1.597   3.394   8.419  1.0224  0.1754  0.7732
  293MOL0     C39484   1.491   3.431   8.475  0.0402  0.1645 -0.2388
  293MOL0     C39485   2.411   3.548   8.449 -0.6967 -0.5643 -0.3257
  293MOL0     C39486   2.516   3.632   8.515 -0.1250  0.8992  0.2155
  293MOL0     C39487   2.627   3.551   8.573 -0.1621  0.2760 -0.2956
  293MOL0     H39488   2.643   3.926   8.843  3.4300 -0.2765  1.1691
  293MOL0     H39489   2.750   4.086   9.007  0.6355 -0.1311  0.9477
  293MOL0     H39490   2.978   4.319   9.079  2.2812 -0.0070 -0.5583
  293MOL0     H39491   2.966   4.179   8.985 -0.9614  0.7071  3.5899
  293MOL0     H39492   3.049   4.285   8.777  0.6516  1.2352 -1.0195
  293MOL0     H39493   3.163   4.344   8.909 -1.6696  1.2576  1.8269
  293MOL0     H39494   3.025   4.555   8.924  2.7393 -1.6345  0.8544
  293MOL0     H39495   2.946   4.502   8.767  0.1230  0.3177 -0.0730
  293MOL0     H39496   3.235   4.516   8.818  0.3682  0.1272 -0.1230
  293MOL0     H39497   3.179   4.491   8.661  3.3454 -0.5762  1.3254
  293MOL0     H39498   3.099   4.690   8.608  2.2924 -2.7167 -0.2255
  293MOL0     H39499   3.094   4.736   8.789  0.4281  1.2266  0.5250
  293MOL0     H39500   3.270   4.866   8.666 -0.9820 -0.6969  0.1133
  293MOL0     H39501   3.325   4.759   8.795 -1.5135  1.5681  1.2771
  293MOL0     H39502   3.330   4.689   8.488 -1.4234  0.9293  0.3121
  293MOL0     H39503   3.398   4.598   8.607  0.1713  0.2515  0.8993
  293MOL0     H39504   3.572   4.768   8.654  1.7601  3.6810 -1.5938
  293MOL0     H39505   3.568   4.728   8.489  2.1753  0.7180  0.9971
  293MOL0     H39506   3.418   4.927   8.329 -0.0749  0.2129 -0.7074
  293MOL0     H39507   3.297   5.128   8.289  0.6481 -0.7020  0.6800
  293MOL0     H39508   3.275   5.246   8.414 -0.2874 -2.1332  2.6085
  293MOL0     H39509   3.362   5.369   8.246 -1.5178 -0.5034  3.4949
  293MOL0     H39510   3.517   5.348   8.330 -2.3809  1.2200  2.4817
  293MOL0     H39511   3.431   5.178   8.095  0.0032  0.8548 -2.7870
  293MOL0     H39512   3.583   5.162   8.182 -0.6223  0.3743 -0.3231
  293MOL0     H39513   3.666   5.303   8.018 -1.0035 -1.2682 -1.1669
  293MOL0     H39514   3.615   5.414   8.138 -1.8741  1.2384 -2.0644
  293MOL0     H39515   3.325   5.554   7.832 -0.7258 -0.3704  0.6089
  293MOL0     H39516   3.394   5.699   7.648 -0.4470 -0.4985  0.2697
  293MOL0     H39517   3.425   5.892   7.319  0.3449  1.0414  0.9367
  293MOL0     H39518   3.447   6.086   7.163  0.1879  2.5175 -0.6103
  293MOL0     H39519   3.625   6.187   7.023  0.7584  1.0440 -1.6825
  293MOL0     H39520   3.480   6.281   7.067  0.3028  2.7236  0.1559
  293MOL0     H39521   3.752   6.401   6.964  0.2965  2.5112 -0.3505
  293MOL0     H39522   3.615   6.356   6.865  1.6959 -1.8497  0.4078
  293MOL0     H39523   3.653   6.597   6.940  1.0741  0.7619  0.2230
  293MOL0     H39524   3.481   6.534   6.961 -0.1798 -0.0825 -2.1578
  293MOL0     H39525   3.674   6.549   7.192 -0.4151  1.5550  1.6306
  293MOL0     H39526   3.501   6.515   7.204  0.5108  2.5164  2.3952
  293MOL0     H39527   3.654   6.767   7.133  1.2164 -0.4984  2.0380
  293MOL0     H39528   3.544   6.742   7.272  0.9821  0.9981 -0.4065
  293MOL0     H39529   3.466   6.758   6.981  4.0487  0.2913  0.6698
  293MOL0     H39530   3.341   6.775   7.116  0.0341  0.4850 -0.7934
  293MOL0     H39531   3.380   6.986   7.005 -0.3949 -0.7740 -1.1568
  293MOL0     H39532   3.551   6.975   7.008 -2.2294  0.6349 -1.8206
  293MOL0     H39533   3.369   6.977   7.259  0.8958 -3.3508 -0.1180
  293MOL0     H39534   3.545   6.974   7.261 -0.3434 -1.8034 -1.4125
  293MOL0     H39535   3.763   6.226   7.420 -0.2961 -0.8178  1.6780
  293MOL0     H39536   3.724   6.065   7.570  0.5692 -0.3727 -0.8157
  293MOL0     H39537   3.808   5.629   7.741 -0.7363 -1.9522 -0.8109
  293MOL0     H39538   3.730   5.475   7.936  1.4963  0.8956 -0.0246
  293MOL0     H39539   2.752   4.377   8.700 -1.4488  0.9203 -0.2877
  293MOL0     H39540   2.647   4.235   8.537  0.1038  0.4089 -0.0167
  293MOL0     H39541   2.370   3.932   8.447  1.9723  0.3013  0.6471
  293MOL0     H39542   2.189   3.766   8.351 -0.5893 -1.9845 -0.3224
  293MOL0     H39543   2.021   3.624   8.403  0.4645  0.3769 -0.6455
  293MOL0     H39544   2.106   3.544   8.543  0.9074 -2.2893 -0.6408
  293MOL0     H39545   2.016   3.335   8.468  2.9145  1.2791 -1.4045
  293MOL0     H39546   1.980   3.386   8.303  0.4477 -0.1191  0.5611
  293MOL0     H39547   1.806   3.554   8.443 -1.1220  0.2888  0.4043
  293MOL0     H39548   1.827   3.430   8.569  4.9190 -0.1598  0.0634
  293MOL0     H39549   1.744   3.356   8.275  0.6674 -3.0430 -0.6806
  293MOL0     H39550   1.734   3.243   8.413  0.0096 -0.9271 -2.3025
  293MOL0     H39551   1.415   3.445   8.549 -1.7850 -0.6275 -1.8762
  293MOL0     H39552   2.422   3.440   8.446  1.0433 -0.4281  0.2523
  293MOL0     H39553   2.724   3.569   8.525  0.2978  0.9269  0.8190
  293MOL0     H39554   2.621   3.587   8.676 -0.2217 -0.4309 -0.0495
  293MOL0     H39555   2.601   3.445   8.568  0.0699 -0.0205  2.9286
  294MOL0     O39556   7.914   3.264  10.206  0.2437 -1.0909 -0.6300
  294MOL0     C39557   7.873   3.375  10.156 -0.3373  0.4015  0.1947
  294MOL0     O39558   7.757   3.434  10.178 -0.1652  0.0308 -0.0333
  294MOL0     C39559   7.693   3.393  10.297 -1.5243 -0.1931  0.3225
  294MOL0     C39560   7.760   3.413  10.428 -1.1019  0.4666  0.2361
  294MOL0     C39561   7.704   3.363  10.545 -0.3482  0.2218 -0.5968
  294MOL0     C39562   7.579   3.301  10.558  0.6776  0.3401  0.5702
  294MOL0     O39563   7.510   3.279  10.676 -0.0241  0.0705  0.1908
  294MOL0     C39564   7.496   3.138  10.705 -0.1520 -0.3548 -0.0296
  294MOL0     C39565   7.386   3.103  10.805  0.2168  1.0765  1.2599
  294MOL0     C39566   7.382   3.180  10.934  0.7308  0.6115  0.7477
  294MOL0     C39567   7.333   3.114  11.067 -0.0473  0.5617 -0.4481
  294MOL0     C39568   7.349   3.209  11.180  0.8812  0.1595  0.2892
  294MOL0     C39569   7.295   3.138  11.311 -0.1295 -0.0409 -0.0360
  294MOL0     C39570   7.346   3.206  11.439  0.6853 -0.1953  0.5179
  294MOL0     C39571   7.275   3.342  11.451  0.2794  0.2570  0.7238
  294MOL0     N39572   7.259   3.372  11.587  0.9942  0.0527  0.3946
  294MOL0     C39573   7.139   3.402  11.652 -0.3640  0.0170  0.7826
  294MOL0     C39574   7.188   3.441  11.779 -0.0793  0.5262 -0.0637
  294MOL0     C39575   7.100   3.471  11.902  0.6227 -0.6210 -0.9698
  294MOL0     C39576   6.972   3.393  11.908 -1.1721 -0.0986  0.7970
  294MOL0     C39577   6.873   3.463  12.005 -0.0847 -0.2885  0.9643
  294MOL0     C39578   6.923   3.456  12.151  0.7966 -0.0819  0.9125
  294MOL0     O39579   6.943   3.318  12.187 -0.1240  0.0859 -0.2198
  294MOL0     C39580   6.888   3.291  12.311 -0.0050 -0.5446 -0.3272
  294MOL0     C39581   6.882   3.382  12.424  0.0071 -0.1681  0.4887
  294MOL0     C39582   6.819   3.339  12.549 -0.8869 -0.6883 -0.4233
  294MOL0     C39583   6.764   3.212  12.557 -0.0371 -0.0222 -0.4660
  294MOL0     C39584   6.707   3.160  12.689 -0.4679 -0.0474  0.5461
  294MOL0     O39585   6.673   3.027  12.687 -0.6076 -0.3486 -0.1005
  294MOL0     C39586   6.595   2.987  12.791 -0.5871 -0.2938  0.3184
  294MOL0     C39587   6.651   2.939  12.910  0.4081 -0.7413  0.3270
  294MOL0     C39588   6.577   2.898  13.017  0.3416 -0.0627 -0.3511
  294MOL0     C39589   6.433   2.884  13.006 -0.4109  0.2563 -0.1787
  294MOL0     O39590   6.360   2.831  13.108  0.2290 -0.3515  0.6237
  294MOL0     C39591   6.355   2.685  13.117  0.4688  0.5386  0.9449
  294MOL0     C39592   6.264   2.653  13.228 -0.0081  0.2016  0.4331
  294MOL0     C39593   6.271   2.507  13.280  0.3631  0.2757  0.8809
  294MOL0     C39594   6.403   2.477  13.344  0.4461  1.1967  1.0748
  294MOL0     C39595   6.404   2.334  13.412 -0.1598 -0.2761  0.1157
  294MOL0     C39596   6.530   2.309  13.501 -0.1477  0.5546 -1.1006
  294MOL0     C39597   6.554   2.159  13.517  0.1569  0.2813 -0.0265
  294MOL0     C39598   6.681   2.116  13.596  0.3220 -0.0376 -0.3414
  294MOL0    Cl39599   6.684   2.171  13.753 -0.3315 -0.2253  0.2582
  294MOL0     C39600   6.385   2.923  12.885 -0.0830 -0.2728 -0.7449
  294MOL0     C39601   6.463   2.972  12.779  1.0907  0.7899  0.1215
  294MOL0     O39602   6.689   3.240  12.782  0.5211  0.1271  0.5377
  294MOL0     C39603   6.775   3.126  12.443  0.4208 -0.4664 -0.1724
  294MOL0     C39604   6.835   3.167  12.327  0.5539  0.8970  0.5920
  294MOL0     N39605   7.321   3.422  11.783  0.5067 -0.3438 -0.1709
  294MOL0     N39606   7.363   3.381  11.670  0.4223  0.2865  0.4544
  294MOL0     C39607   7.515   3.277  10.431 -0.4656  0.1943  0.3446
  294MOL0     C39608   7.571   3.312  10.308 -0.8314 -0.2649  0.2457
  294MOL0     C39609   7.947   3.432  10.041 -0.2858  0.3776 -0.0290
  294MOL0     C39610   7.867   3.485   9.935  0.5148 -0.6379 -0.3031
  294MOL0     C39611   7.918   3.547   9.821 -1.0706  1.0360 -0.4308
  294MOL0     C39612   8.061   3.569   9.822  0.6454  0.6667 -0.2220
  294MOL0     O39613   8.131   3.617   9.710  0.2628  0.0131  0.3049
  294MOL0     C39614   8.071   3.681   9.597  0.5155  0.5459  0.4300
  294MOL0     C39615   8.011   3.584   9.491 -0.8713  0.1198 -0.6581
  294MOL0     C39616   8.109   3.525   9.394 -0.0858 -1.0563 -0.1510
  294MOL0     C39617   8.058   3.438   9.280 -0.6041 -0.4402 -0.0254
  294MOL0     C39618   7.985   3.533   9.194 -0.1664  0.2267  0.4070
  294MOL0     C39619   7.916   3.596   9.122  1.1510 -0.0744  0.5167
  294MOL0     C39620   8.138   3.518   9.929 -0.5002  0.0028  0.6634
  294MOL0     C39621   8.080   3.458  10.042  0.2126  0.9429  0.4921
  294MOL0     C39622   8.161   3.447  10.175  1.0262  0.7564  0.1604
  294MOL0     H39623   7.845   3.480  10.439 -2.1877  1.6785  1.7188
  294MOL0     H39624   7.756   3.394  10.635 -0.7019 -1.1657  0.1206
  294MOL0     H39625   7.456   3.077  10.623 -3.1691 -0.1148  1.1295
  294MOL0     H39626   7.596   3.109  10.738 -0.2291 -0.2457  0.3070
  294MOL0     H39627   7.385   2.996  10.829 -0.5646  1.2759  2.1671
  294MOL0     H39628   7.297   3.111  10.741  1.8578 -0.2583 -1.4061
  294MOL0     H39629   7.315   3.265  10.915  0.4845 -0.0074 -1.6059
  294MOL0     H39630   7.485   3.214  10.946  0.4458  1.1167  1.8386
  294MOL0     H39631   7.234   3.077  11.037  1.3283 -0.4899 -4.3327
  294MOL0     H39632   7.408   3.036  11.085 -1.0839 -0.9640 -2.3802
  294MOL0     H39633   7.454   3.231  11.204  1.9755 -3.7750 -0.1057
  294MOL0     H39634   7.296   3.302  11.157 -0.0786  0.0248  1.8483
  294MOL0     H39635   7.187   3.123  11.318 -0.4710  2.3980  0.8982
  294MOL0     H39636   7.337   3.037  11.303  0.1024  0.1793 -2.7735
  294MOL0     H39637   7.453   3.217  11.456  0.2200  2.6745  2.3088
  294MOL0     H39638   7.322   3.149  11.529  1.0804  0.9802  1.3858
  294MOL0     H39639   7.334   3.410  11.389  1.6456 -0.6909  0.9302
  294MOL0     H39640   7.178   3.334  11.401  1.2236 -1.2244 -1.0082
  294MOL0     H39641   7.037   3.402  11.615 -0.2966  0.6244  0.5842
  294MOL0     H39642   7.154   3.458  11.996  1.2939 -2.4332 -1.5615
  294MOL0     H39643   7.082   3.578  11.897  0.0410 -0.7440 -2.0630
  294MOL0     H39644   6.924   3.397  11.810 -3.3880  0.0316  1.8336
  294MOL0     H39645   6.988   3.287  11.931  1.8685  0.5088  2.0273
  294MOL0     H39646   6.769   3.427  12.005  0.8390 -3.1970  0.8807
  294MOL0     H39647   6.863   3.569  11.981  2.1149 -0.2029  0.2349
  294MOL0     H39648   6.840   3.500  12.206 -0.6972 -2.9729  1.1691
  294MOL0     H39649   7.015   3.514  12.166  0.6236 -0.2612  2.8764
  294MOL0     H39650   6.922   3.482  12.414 -0.4865 -0.1976 -2.7408
  294MOL0     H39651   6.811   3.406  12.635 -0.6825 -0.0959 -0.8577
  294MOL0     H39652   6.758   2.944  12.926  0.2102  0.4936  1.4116
  294MOL0     H39653   6.630   2.874  13.109 -3.1356 -2.9847  1.1506
  294MOL0     H39654   6.302   2.638  13.033 -0.4319 -0.1501  1.8679
  294MOL0     H39655   6.456   2.644  13.115 -0.4957 -2.0986 -1.9971
  294MOL0     H39656   6.280   2.718  13.314 -2.5180  0.0768  1.0767
  294MOL0     H39657   6.163   2.674  13.190  0.9358  1.1232 -1.7445
  294MOL0     H39658   6.193   2.484  13.353  1.0786 -1.7547  1.0628
  294MOL0     H39659   6.242   2.435  13.203 -0.7647  1.6076  0.0167
  294MOL0     H39660   6.429   2.556  13.414 -1.6191  1.0425  2.0815
  294MOL0     H39661   6.473   2.474  13.260  1.1597 -2.8719  1.5974
  294MOL0     H39662   6.387   2.248  13.346 -1.9980 -0.5774  0.9389
  294MOL0     H39663   6.312   2.335  13.471  0.6138 -3.1460  1.5548
  294MOL0     H39664   6.622   2.346  13.455  0.1326  1.1415 -0.0984
  294MOL0     H39665   6.500   2.347  13.599 -1.7964 -0.1835 -1.2856
  294MOL0     H39666   6.558   2.112  13.418  2.0703  0.6140 -0.1477
  294MOL0     H39667   6.468   2.122  13.574  0.3414  0.2874  0.2569
  294MOL0     H39668   6.710   2.013  13.574  1.8528  0.0713  1.0264
  294MOL0     H39669   6.760   2.172  13.545 -0.2566  1.0454 -0.0810
  294MOL0     H39670   6.278   2.908  12.870  0.2628 -1.1260 -2.5694
  294MOL0     H39671   6.422   3.010  12.686 -0.7187 -2.5213 -0.5786
  294MOL0     H39672   6.740   3.024  12.454 -1.8269  0.3741  1.1821
  294MOL0     H39673   6.843   3.097  12.244 -2.1602  2.3618 -1.0597
  294MOL0     H39674   7.408   3.255  10.436 -0.0422 -1.8326  2.2275
  294MOL0     H39675   7.505   3.289  10.225 -1.4766 -1.6897  1.1160
  294MOL0     H39676   7.759   3.483   9.940  0.5617 -2.1635  2.5143
  294MOL0     H39677   7.857   3.578   9.737  0.2956  2.0811 -1.0875
  294MOL0     H39678   8.143   3.745   9.546  2.3749 -2.9807 -1.7328
  294MOL0     H39679   8.001   3.756   9.635  1.2686  0.3651  2.3152
  294MOL0     H39680   7.939   3.650   9.442 -1.2446  0.3284  0.1573
  294MOL0     H39681   7.959   3.502   9.542  0.4407 -0.4783 -0.2221
  294MOL0     H39682   8.171   3.459   9.456 -1.5130 -1.5326  0.8125
  294MOL0     H39683   8.175   3.603   9.355  1.6573 -2.9560 -1.1600
  294MOL0     H39684   8.143   3.401   9.222 -1.6245  0.2802 -2.0924
  294MOL0     H39685   8.005   3.351   9.318  1.4046 -2.2049 -1.0921
  294MOL0     H39686   7.847   3.644   9.056  0.3645 -0.3923  1.0908
  294MOL0     H39687   8.246   3.515   9.923 -0.5146  0.1821  0.2498
  294MOL0     H39688   8.265   3.480  10.163  1.4212  1.5927  4.4698
  294MOL0     H39689   8.105   3.509  10.245 -1.4840  0.1810 -1.2304
  294MOL0     H39690   8.150   3.342  10.206  0.9707 -0.6141 -3.8703
  295MOL0     O39691   5.167   2.448   0.150 -0.3479 -0.4521  0.6428
  295MOL0     C39692   5.161   2.569   0.168  0.5970 -0.4911  0.6277
  295MOL0     O39693   5.038   2.639   0.173 -0.3738 -0.3424 -0.8795
  295MOL0     C39694   4.921   2.559   0.162 -0.2737  0.3061  0.8149
  295MOL0     C39695   4.822   2.614   0.079 -0.2869  0.6596 -1.5004
  295MOL0     C39696   4.705   2.547   0.058  0.3111 -0.0257  0.6599
  295MOL0     C39697   4.673   2.433   0.128 -0.0211  0.3151 -0.1983
  295MOL0     O39698   4.546   2.370   0.105  0.5135  0.5561  0.6664
  295MOL0     C39699   4.439   2.452   0.053 -0.3011 -0.1991 -0.7420
  295MOL0     C39700   4.291   2.419   0.074  0.3298  0.7660  0.3640
  295MOL0     C39701   4.216   2.476   0.189 -0.5824  0.0705  0.1401
  295MOL0     C39702   4.216   2.394   0.312 -0.3758  0.6906  0.8062
  295MOL0     C39703   4.148   2.481   0.414  0.1762  0.7884  0.1930
  295MOL0     C39704   4.151   2.417   0.561 -0.0188 -0.9243  0.1789
  295MOL0     C39705   4.087   2.506   0.661  0.4856 -0.4316 -0.5862
  295MOL0     C39706   4.044   2.443   0.793  0.8778  0.1107 -0.0249
  295MOL0     N39707   4.020   2.532   0.910  0.4213  0.5958 -0.0866
  295MOL0     C39708   4.113   2.591   0.986 -0.6521 -1.3205  1.1747
  295MOL0     C39709   4.048   2.667   1.079  0.5420  0.3995 -0.2142
  295MOL0     C39710   4.107   2.759   1.187  0.1606 -0.3726 -0.2053
  295MOL0     C39711   4.092   2.902   1.116 -0.7167  0.5818  0.0066
  295MOL0     C39712   4.098   3.012   1.222 -0.2631  0.2412 -0.7629
  295MOL0     C39713   4.106   3.159   1.178 -0.0266 -0.3599  0.2838
  295MOL0     O39714   4.197   3.162   1.065 -0.8286 -0.2167 -0.4032
  295MOL0     C39715   4.286   3.269   1.035  0.2748  0.5889 -0.0071
  295MOL0     C39716   4.254   3.402   1.043 -0.5013  0.5066 -0.2845
  295MOL0     C39717   4.351   3.505   1.015 -0.0985  0.9871 -0.4761
  295MOL0     C39718   4.475   3.469   0.954 -0.0386  0.5940  0.1460
  295MOL0     C39719   4.576   3.563   0.908 -0.9347 -0.5794 -0.0233
  295MOL0     O39720   4.665   3.527   0.805 -0.6067  0.4951  0.8025
  295MOL0     C39721   4.748   3.631   0.770 -0.3878  0.5319 -0.0092
  295MOL0     C39722   4.698   3.762   0.736 -0.9541  0.2173 -0.0974
  295MOL0     C39723   4.793   3.870   0.737 -0.8729 -1.0455 -0.4124
  295MOL0     C39724   4.934   3.850   0.755 -0.0039 -0.1270 -0.5272
  295MOL0     O39725   5.027   3.955   0.746 -0.0388 -0.3895  0.2582
  295MOL0     C39726   5.005   4.078   0.677  0.9772 -0.5929 -0.1510
  295MOL0     C39727   5.125   4.172   0.666  0.1700 -0.4325  0.7235
  295MOL0     C39728   5.203   4.128   0.538 -0.3037  0.1597 -1.2029
  295MOL0     C39729   5.300   4.240   0.495 -0.0602 -0.6854 -0.0445
  295MOL0     C39730   5.340   4.211   0.352 -0.7707  0.0524  0.2894
  295MOL0     C39731   5.411   4.328   0.287 -0.3524  0.2519 -0.1244
  295MOL0     C39732   5.418   4.313   0.135 -0.8242  0.6462 -0.2495
  295MOL0     C39733   5.455   4.169   0.093  0.0743  0.0452 -0.7299
  295MOL0    Cl39734   5.470   4.178  -0.085 -0.1172  0.1730  0.0140
  295MOL0     C39735   4.976   3.717   0.774 -0.9061  0.4685 -0.5593
  295MOL0     C39736   4.885   3.609   0.775  0.3438  0.3271  0.1699
  295MOL0     O39737   4.581   3.672   0.962  0.1255 -0.4111 -0.7787
  295MOL0     C39738   4.502   3.329   0.937  0.2627  0.5469  1.2953
  295MOL0     C39739   4.402   3.236   0.972  0.0011  0.2843 -1.2429
  295MOL0     N39740   3.911   2.643   1.070 -0.0448  0.3669  0.8893
  295MOL0     N39741   3.895   2.573   0.959  0.6286  0.5058 -0.6169
  295MOL0     C39742   4.763   2.379   0.219  1.2341  0.5161  0.5337
  295MOL0     C39743   4.883   2.443   0.235 -0.2461  0.5768 -0.4805
  295MOL0     C39744   5.280   2.646   0.194 -0.0280 -0.2502  0.3691
  295MOL0     C39745   5.379   2.666   0.092 -0.4531 -0.1643 -0.3763
  295MOL0     C39746   5.489   2.754   0.112  0.1017 -0.3222 -0.0745
  295MOL0     C39747   5.518   2.820   0.237 -0.1250  0.4255 -0.4986
  295MOL0     O39748   5.614   2.917   0.263 -0.0987  0.1663  0.4760
  295MOL0     C39749   5.700   2.953   0.161 -0.0290  0.4171  0.6176
  295MOL0     C39750   5.851   2.911   0.187  1.4079 -0.0592  0.3429
  295MOL0     C39751   5.920   2.976   0.313 -0.4338 -0.9195  0.3176
  295MOL0     C39752   5.940   3.128   0.286 -0.8175 -0.5970  0.3927
  295MOL0     C39753   6.040   3.189   0.381  0.3816 -0.0690  0.3423
  295MOL0     C39754   6.109   3.248   0.457  0.0953 -0.1583  0.2413
  295MOL0     C39755   5.426   2.787   0.334  0.0127 -0.4377 -0.0594
  295MOL0     C39756   5.314   2.705   0.322 -0.7898  0.2473  0.2367
  295MOL0     C39757   5.229   2.687   0.443  0.0240 -0.2525 -0.0784
  295MOL0     H39758   4.843   2.701   0.018 -2.3203  1.2722 -1.4154
  295MOL0     H39759   4.639   2.601  -0.008  2.2455  2.8068  0.8877
  295MOL0     H39760   4.445   2.554   0.094 -1.9850  0.5450 -2.1804
  295MOL0     H39761   4.439   2.449  -0.056 -0.3537  2.6988 -0.8960
  295MOL0     H39762   4.277   2.313   0.097 -1.0811  1.0532  0.8901
  295MOL0     H39763   4.240   2.433  -0.022  0.0307 -0.5669  0.2986
  295MOL0     H39764   4.115   2.499   0.155 -1.0405  0.4341  1.6909
  295MOL0     H39765   4.271   2.569   0.207 -0.9980  0.8071 -2.0785
  295MOL0     H39766   4.163   2.302   0.288  0.9271 -0.4439  2.1328
  295MOL0     H39767   4.318   2.366   0.341  0.2746  2.1296  0.0580
  295MOL0     H39768   4.193   2.581   0.408  1.7794 -0.0026 -2.2104
  295MOL0     H39769   4.041   2.487   0.391  0.6151  0.3205 -2.2298
  295MOL0     H39770   4.081   2.333   0.561  0.6161 -1.4934  1.9316
  295MOL0     H39771   4.250   2.378   0.587 -0.0965 -0.0939  1.8488
  295MOL0     H39772   3.996   2.546   0.616 -1.4448 -1.6086  2.0504
  295MOL0     H39773   4.155   2.587   0.689  0.3945 -0.7503  0.6240
  295MOL0     H39774   3.944   2.404   0.774 -0.3519  1.4353  3.0444
  295MOL0     H39775   4.107   2.355   0.811 -0.7338 -0.9066  0.8344
  295MOL0     H39776   4.221   2.585   0.972 -0.4382 -1.4432  2.7037
  295MOL0     H39777   4.044   2.749   1.276  1.3118 -0.9648  0.5699
  295MOL0     H39778   4.212   2.754   1.216  0.6903  1.3358 -1.6261
  295MOL0     H39779   4.162   2.919   1.034  0.1597  0.3164  0.6854
  295MOL0     H39780   3.992   2.903   1.071 -0.5401 -3.0840 -0.7788
  295MOL0     H39781   4.189   2.988   1.279 -1.4806 -3.4243 -0.1202
  295MOL0     H39782   4.010   3.009   1.287 -0.6377  0.6812 -1.2429
  295MOL0     H39783   4.148   3.221   1.257  0.4804  0.8086 -0.8545
  295MOL0     H39784   4.005   3.194   1.154  0.3922 -0.8358 -2.5258
  295MOL0     H39785   4.165   3.438   1.093  0.0007  2.5987 -0.7690
  295MOL0     H39786   4.340   3.612   1.030  1.0592  0.6464  4.2502
  295MOL0     H39787   4.592   3.777   0.721 -0.7810  0.7716 -0.7866
  295MOL0     H39788   4.751   3.965   0.703 -1.2819 -1.0430  0.0812
  295MOL0     H39789   4.963   4.053   0.579 -2.0886  3.1023 -0.0091
  295MOL0     H39790   4.919   4.128   0.724  0.1909  2.1145 -4.0018
  295MOL0     H39791   5.092   4.276   0.652 -2.1174 -1.0482  1.2245
  295MOL0     H39792   5.179   4.166   0.761 -1.8350 -3.2651  1.8280
  295MOL0     H39793   5.256   4.034   0.554 -3.1266 -1.3580  0.0495
  295MOL0     H39794   5.139   4.114   0.450 -0.3614  2.8388 -1.6661
  295MOL0     H39795   5.387   4.238   0.561 -0.3493 -1.1705  0.3244
  295MOL0     H39796   5.257   4.341   0.501 -0.9489 -1.0769  0.2767
  295MOL0     H39797   5.253   4.191   0.290 -0.9656 -0.6637  0.7734
  295MOL0     H39798   5.401   4.120   0.349 -1.8242 -0.6441 -0.6040
  295MOL0     H39799   5.351   4.416   0.314 -1.0891 -0.7127  1.5510
  295MOL0     H39800   5.504   4.330   0.344 -1.1918 -0.4772  1.3563
  295MOL0     H39801   5.498   4.381   0.104  1.3546 -1.9474 -0.6748
  295MOL0     H39802   5.324   4.344   0.089 -1.6007 -1.1992 -0.0172
  295MOL0     H39803   5.547   4.126   0.134 -1.0602 -1.1789  0.6134
  295MOL0     H39804   5.377   4.104   0.130  0.0426  1.0789  1.1082
  295MOL0     H39805   5.083   3.698   0.776 -1.4933 -3.9363  1.1295
  295MOL0     H39806   4.929   3.511   0.791 -1.8914 -1.3835 -3.1247
  295MOL0     H39807   4.590   3.303   0.879 -1.4965 -1.7706 -0.4912
  295MOL0     H39808   4.429   3.132   0.955  2.8274  0.8848 -0.9373
  295MOL0     H39809   4.750   2.283   0.269 -0.1631 -1.0409 -2.5397
  295MOL0     H39810   4.958   2.399   0.302  0.8631  0.9414 -1.4507
  295MOL0     H39811   5.363   2.620  -0.005  0.4555 -2.6854  0.6020
  295MOL0     H39812   5.559   2.764   0.030 -0.2137 -2.2849 -0.6388
  295MOL0     H39813   5.716   3.061   0.168  1.8429  0.2005  0.2027
  295MOL0     H39814   5.670   2.934   0.057 -0.4755 -0.9592  0.9869
  295MOL0     H39815   5.907   2.929   0.095 -1.6274 -2.3531 -2.1820
  295MOL0     H39816   5.861   2.805   0.211  4.6035 -0.0477 -0.4962
  295MOL0     H39817   6.021   2.935   0.322  1.1816  2.6893  0.6210
  295MOL0     H39818   5.860   2.958   0.402 -0.9516 -0.2468  0.1166
  295MOL0     H39819   5.984   3.135   0.185  0.4580  0.1405  0.9741
  295MOL0     H39820   5.854   3.195   0.286  1.2811  2.5848 -3.3997
  295MOL0     H39821   6.155   3.306   0.535 -1.8838  0.1424  1.2551
  295MOL0     H39822   5.447   2.821   0.435 -2.6249  1.6781 -0.0983
  295MOL0     H39823   5.134   2.730   0.411 -0.0576 -0.3538  0.0280
  295MOL0     H39824   5.219   2.579   0.454 -1.1526 -0.2205 -0.7168
  295MOL0     H39825   5.268   2.732   0.535 -2.0729  4.2655 -1.1257
  296MOL0     O39826   3.937   2.128   0.749 -0.7824 -0.1149  0.1479
  296MOL0     C39827   3.840   2.061   0.751  0.1117 -0.2057  0.5349
  296MOL0     O39828   3.770   2.012   0.643 -0.6073 -0.1422 -0.5872
  296MOL0     C39829   3.786   2.062   0.519 -0.6253 -0.8978 -0.7134
  296MOL0     C39830   3.795   1.970   0.419 -0.7373  0.5580 -0.4307
  296MOL0     C39831   3.818   2.014   0.289  0.2645 -0.2206  0.2491
  296MOL0     C39832   3.817   2.151   0.256  0.0425  1.0993  0.6281
  296MOL0     O39833   3.833   2.175   0.120  0.5905  0.2962 -0.2877
  296MOL0     C39834   3.840   2.312   0.077  0.3608  0.4764 -0.3094
  296MOL0     C39835   3.942   2.322  -0.035 -1.1381 -0.1543  0.7316
  296MOL0     C39836   3.897   2.268  -0.179  0.0889 -0.5960 -1.2328
  296MOL0     C39837   3.761   2.316  -0.227  0.2079 -0.0574  0.5579
  296MOL0     C39838   3.739   2.284  -0.374 -0.5249  0.2143 -0.5505
  296MOL0     C39839   3.616   2.362  -0.429 -1.5588  0.0822 -0.1981
  296MOL0     C39840   3.593   2.351  -0.575 -0.5581 -0.0835 -0.3720
  296MOL0     C39841   3.475   2.439  -0.616  0.2149 -0.7714 -0.0578
  296MOL0     N39842   3.342   2.396  -0.573  0.7014 -0.1949  0.4719
  296MOL0     C39843   3.275   2.297  -0.643 -0.2310 -1.5200 -0.6219
  296MOL0     C39844   3.162   2.275  -0.570 -0.2040  1.6045  0.4309
  296MOL0     C39845   3.056   2.167  -0.590 -0.1551 -0.5406 -0.4086
  296MOL0     C39846   3.102   2.036  -0.512  0.6758 -0.4774  1.2491
  296MOL0     C39847   3.223   1.972  -0.563  0.6533 -1.0430 -0.2290
  296MOL0     C39848   3.227   1.955  -0.707 -0.2382 -0.4327 -0.1597
  296MOL0     O39849   3.312   1.844  -0.747  0.3521 -0.1346 -0.8553
  296MOL0     C39850   3.441   1.848  -0.740 -1.1269 -0.0298  0.6311
  296MOL0     C39851   3.506   1.734  -0.790  0.5036 -0.7555 -0.0581
  296MOL0     C39852   3.646   1.733  -0.806  0.1249 -0.1361 -0.8056
  296MOL0     C39853   3.727   1.834  -0.757 -0.1465 -0.9985  0.3402
  296MOL0     C39854   3.875   1.825  -0.766  0.3135  0.4037  0.3268
  296MOL0     O39855   3.927   1.734  -0.856 -0.5792  0.4852  0.4440
  296MOL0     C39856   4.065   1.737  -0.858  0.5339  0.0309  0.7571
  296MOL0     C39857   4.145   1.840  -0.902 -0.0433  0.1918  0.2563
  296MOL0     C39858   4.290   1.831  -0.923  0.1744  1.0960  0.5982
  296MOL0     C39859   4.350   1.706  -0.898 -0.9228  0.8084 -0.0183
  296MOL0     O39860   4.487   1.692  -0.908  0.4878 -0.7658  0.2284
  296MOL0     C39861   4.545   1.567  -0.937  0.1479 -0.1759 -0.1834
  296MOL0     C39862   4.632   1.524  -0.824  0.1346 -0.0211 -0.0258
  296MOL0     C39863   4.718   1.403  -0.870 -0.3827  0.5559 -0.8475
  296MOL0     C39864   4.812   1.358  -0.753  0.6131 -0.5504  0.3919
  296MOL0     C39865   4.921   1.267  -0.803  0.4310  0.0760 -0.8529
  296MOL0     C39866   4.964   1.162  -0.689 -0.0938 -0.3149 -0.0904
  296MOL0     C39867   4.922   1.014  -0.733  0.0081 -0.6899 -0.1873
  296MOL0     C39868   5.027   0.965  -0.837 -0.2673 -0.4585  0.1764
  296MOL0    Cl39869   5.003   0.789  -0.873  0.1686  0.0520 -0.3488
  296MOL0     C39870   4.279   1.606  -0.839 -0.2503  0.3967  0.4818
  296MOL0     C39871   4.131   1.620  -0.821  0.3265  0.2848  0.4322
  296MOL0     O39872   3.940   1.903  -0.698  0.8736  0.9311 -0.4984
  296MOL0     C39873   3.655   1.955  -0.704  0.6566 -0.7398  0.8626
  296MOL0     C39874   3.520   1.954  -0.697  0.7037 -0.1846 -0.2468
  296MOL0     N39875   3.159   2.356  -0.464  0.5134 -0.2489 -0.2921
  296MOL0     N39876   3.263   2.431  -0.465 -0.0554 -0.5091 -0.1645
  296MOL0     C39877   3.779   2.233   0.361  0.7429 -0.0606  0.1604
  296MOL0     C39878   3.781   2.194   0.492  0.6113  0.2647 -0.4775
  296MOL0     C39879   3.787   2.007   0.875 -0.0734  0.7259  0.5858
  296MOL0     C39880   3.726   1.871   0.873 -0.3631  0.4662  0.8160
  296MOL0     C39881   3.684   1.816   0.991  0.0819 -0.2811 -0.2376
  296MOL0     C39882   3.694   1.887   1.112  0.1908 -0.3094  0.6517
  296MOL0     O39883   3.657   1.861   1.236 -0.1332  0.4459 -0.4788
  296MOL0     C39884   3.646   1.719   1.276 -0.3497 -0.9621 -0.7185
  296MOL0     C39885   3.788   1.676   1.307  0.4349  0.3927 -0.0203
  296MOL0     C39886   3.803   1.538   1.375  1.0446  0.1160  1.1735
  296MOL0     C39887   3.805   1.519   1.529 -0.2106  1.1623 -0.6286
  296MOL0     C39888   3.679   1.551   1.589 -0.0781  0.0897 -0.1436
  296MOL0     C39889   3.563   1.575   1.624 -0.5005 -0.4659  0.4197
  296MOL0     C39890   3.741   2.022   1.106  0.2288  0.4853  0.8103
  296MOL0     C39891   3.789   2.081   0.994  0.2717 -0.6982  1.2775
  296MOL0     C39892   3.821   2.228   1.000 -0.6195  0.1320 -0.3359
  296MOL0     H39893   3.793   1.862   0.430 -1.4926  0.5100 -0.9613
  296MOL0     H39894   3.831   1.937   0.214  1.8314 -3.9577  3.9488
  296MOL0     H39895   3.752   2.365   0.038 -0.3021  1.4160  2.1947
  296MOL0     H39896   3.878   2.371   0.161  1.2642 -0.3620 -0.1230
  296MOL0     H39897   4.034   2.273  -0.001 -0.0808  2.6541  2.2405
  296MOL0     H39898   3.957   2.430  -0.045  0.8254 -0.4422  0.1128
  296MOL0     H39899   3.891   2.159  -0.182 -0.2930 -0.5703 -1.4183
  296MOL0     H39900   3.972   2.297  -0.254 -1.2268  0.8188 -2.0538
  296MOL0     H39901   3.684   2.270  -0.164 -0.9318  0.7283 -0.2135
  296MOL0     H39902   3.755   2.426  -0.226  2.9390  0.1839  2.9400
  296MOL0     H39903   3.827   2.324  -0.425 -0.3855  0.3978 -0.1668
  296MOL0     H39904   3.719   2.180  -0.403 -0.0376 -0.7054  2.1244
  296MOL0     H39905   3.526   2.317  -0.384 -0.7394  0.9676  2.5320
  296MOL0     H39906   3.614   2.467  -0.400 -0.1236 -0.0625  0.4846
  296MOL0     H39907   3.576   2.247  -0.603  0.9722 -0.3477 -0.4142
  296MOL0     H39908   3.674   2.383  -0.641 -0.7353  0.4737 -0.3282
  296MOL0     H39909   3.499   2.537  -0.573  0.1091 -0.1396 -1.3690
  296MOL0     H39910   3.472   2.446  -0.725  0.5303  1.9929  0.0338
  296MOL0     H39911   3.292   2.246  -0.737  1.6925 -1.4864 -0.3165
  296MOL0     H39912   2.974   2.214  -0.535  1.5874  2.0214  0.1983
  296MOL0     H39913   3.020   2.149  -0.691  1.2180 -2.0890 -0.6774
  296MOL0     H39914   3.131   2.074  -0.414 -0.4039  0.2989  1.2825
  296MOL0     H39915   3.021   1.963  -0.506  1.7913 -1.7512  1.3561
  296MOL0     H39916   3.222   1.877  -0.510 -2.9412  0.4780  2.9237
  296MOL0     H39917   3.306   2.034  -0.526 -1.2903 -0.6953  4.1137
  296MOL0     H39918   3.279   2.041  -0.751 -2.2331 -0.8897 -3.9041
  296MOL0     H39919   3.123   1.949  -0.741 -0.6002  3.2134 -0.0885
  296MOL0     H39920   3.439   1.657  -0.824  0.3962  0.6796 -3.5617
  296MOL0     H39921   3.692   1.637  -0.825  3.1821  1.0855 -0.0973
  296MOL0     H39922   4.097   1.937  -0.912 -1.0538 -0.5409 -3.1388
  296MOL0     H39923   4.348   1.922  -0.939  0.0001  1.1601  0.3341
  296MOL0     H39924   4.474   1.492  -0.972  0.6023  1.6436 -6.0411
  296MOL0     H39925   4.611   1.583  -1.022  1.4738  2.2056  1.1720
  296MOL0     H39926   4.694   1.612  -0.806 -3.9110  2.9532  0.6722
  296MOL0     H39927   4.565   1.501  -0.741 -2.3866 -1.9860 -2.4237
  296MOL0     H39928   4.654   1.319  -0.899 -0.1827  0.3841 -0.7918
  296MOL0     H39929   4.775   1.424  -0.961 -1.0346  1.0308 -1.1584
  296MOL0     H39930   4.746   1.317  -0.676 -1.9426 -2.9255 -2.7777
  296MOL0     H39931   4.861   1.441  -0.700 -0.1127 -1.0592  1.9460
  296MOL0     H39932   5.009   1.321  -0.838  0.8836  0.1636  0.3674
  296MOL0     H39933   4.879   1.206  -0.883 -1.8571  1.9576 -1.1903
  296MOL0     H39934   5.070   1.175  -0.666  0.0907  1.7249 -1.7831
  296MOL0     H39935   4.907   1.183  -0.597 -2.1073  2.3759 -1.7859
  296MOL0     H39936   4.819   1.002  -0.768 -0.6566 -2.9265  2.2009
  296MOL0     H39937   4.939   0.944  -0.651 -3.6410 -0.1916  1.1681
  296MOL0     H39938   5.023   1.023  -0.929  0.1078  1.9877  1.6150
  296MOL0     H39939   5.129   0.972  -0.799  0.3307 -1.9550 -1.0485
  296MOL0     H39940   4.332   1.516  -0.809  0.4191 -0.0330 -1.7877
  296MOL0     H39941   4.068   1.544  -0.776  1.0287 -1.3293 -1.1551
  296MOL0     H39942   3.704   2.044  -0.666 -0.9178 -0.3843  2.1407
  296MOL0     H39943   3.467   2.038  -0.653 -3.0234 -2.8075  0.7393
  296MOL0     H39944   3.764   2.338   0.337 -0.8706 -0.2723  0.1196
  296MOL0     H39945   3.756   2.263   0.572 -1.4029 -1.2353  0.2785
  296MOL0     H39946   3.707   1.825   0.777 -0.4765  0.4499  0.8460
  296MOL0     H39947   3.633   1.720   0.995 -0.6188  0.0670 -0.6855
  296MOL0     H39948   3.601   1.663   1.194 -0.9103 -1.2372 -0.2327
  296MOL0     H39949   3.591   1.716   1.371  1.2531 -0.6762  0.2585
  296MOL0     H39950   3.840   1.745   1.374  1.9832  0.0518 -0.8099
  296MOL0     H39951   3.850   1.689   1.218 -2.3462  2.3614 -1.8333
  296MOL0     H39952   3.901   1.496   1.352 -0.3109 -1.8024 -1.7161
  296MOL0     H39953   3.737   1.464   1.329 -2.2732  1.5864  3.1426
  296MOL0     H39954   3.837   1.417   1.548  1.4541  0.7644 -4.5650
  296MOL0     H39955   3.878   1.588   1.572 -1.1965  1.3851  0.7570
  296MOL0     H39956   3.460   1.580   1.652  0.0378  1.3447  2.3917
  296MOL0     H39957   3.729   2.086   1.193 -0.4785  2.0797 -0.4112
  296MOL0     H39958   3.928   2.252   1.000 -0.3537 -0.9244 -1.3189
  296MOL0     H39959   3.783   2.272   0.907  2.3643  0.3654 -1.5385
  296MOL0     H39960   3.764   2.285   1.074 -0.3070  2.6721 -1.9340
  297MOL0     O39961   0.512   0.226  10.887 -0.2817 -0.3754 -1.0523
  297MOL0     C39962   0.561   0.199  10.778 -0.4570 -0.1853  0.0399
  297MOL0     O39963   0.520   0.256  10.657 -0.4573  0.4512  0.0097
  297MOL0     C39964   0.440   0.361  10.646  0.0186 -0.9973 -0.3952
  297MOL0     C39965   0.333   0.400  10.727  0.1404 -0.4431 -0.3345
  297MOL0     C39966   0.268   0.525  10.707  0.1670  0.5347  1.3259
  297MOL0     C39967   0.304   0.608  10.598 -0.6529  0.4215 -0.5452
  297MOL0     O39968   0.249   0.733  10.572 -0.0985  0.5346  0.3265
  297MOL0     C39969   0.167   0.803  10.664  0.1190 -1.1366  0.0604
  297MOL0     C39970   0.156   0.942  10.623  0.8753 -0.8589 -0.2370
  297MOL0     C39971   0.012   0.990  10.648  0.6307 -0.8318 -1.1628
  297MOL0     C39972   0.017   1.138  10.694  0.4071 -0.9929 -0.5827
  297MOL0     C39973   0.050   1.245  10.599  0.6151  0.4008  0.0202
  297MOL0     C39974  -0.043   1.277  10.471 -0.3624  0.6519 -0.6704
  297MOL0     C39975  -0.188   1.326  10.511 -0.4595  0.2861  0.3534
  297MOL0     C39976  -0.292   1.297  10.397  0.2167 -0.3848 -0.4084
  297MOL0     N39977  -0.421   1.347  10.452  0.4238 -0.3052 -0.5978
  297MOL0     C39978  -0.434   1.461  10.533  0.7903  0.7768 -0.1458
  297MOL0     C39979  -0.552   1.436  10.604 -0.3083 -0.0840 -0.3244
  297MOL0     C39980  -0.626   1.546  10.692  0.4555  0.4843  0.5349
  297MOL0     C39981  -0.686   1.493  10.826  0.2354  0.1575  0.4270
  297MOL0     C39982  -0.579   1.491  10.940  0.6317  0.3955  0.5644
  297MOL0     C39983  -0.481   1.385  10.916 -0.0069  0.5512 -0.8995
  297MOL0     O39984  -0.388   1.394  11.024  0.3467 -0.1684 -0.1125
  297MOL0     C39985  -0.283   1.300  11.042  0.5562  0.2090  0.3995
  297MOL0     C39986  -0.265   1.196  10.955  0.1806  1.6430 -0.8537
  297MOL0     C39987  -0.150   1.126  10.977 -0.3981  0.1835 -1.3336
  297MOL0     C39988  -0.058   1.143  11.076 -0.3708 -0.9103  0.1840
  297MOL0     C39989   0.049   1.045  11.099 -0.1249 -0.8923  0.7819
  297MOL0     O39990   0.110   1.064  11.222 -0.0803 -0.6570  0.8884
  297MOL0     C39991   0.151   0.957  11.296 -1.5494  0.4546 -0.3133
  297MOL0     C39992   0.084   0.916  11.404  0.0709 -0.0621  0.8816
  297MOL0     C39993   0.124   0.803  11.475 -0.3328  0.7994 -0.1018
  297MOL0     C39994   0.248   0.735  11.450  0.2353  0.2451 -0.9390
  297MOL0     O39995   0.278   0.634  11.532 -0.0313  0.1108 -0.7243
  297MOL0     C39996   0.410   0.613  11.590  0.0059 -0.7416  0.9192
  297MOL0     C39997   0.428   0.685  11.726  0.2252 -0.4471  0.8525
  297MOL0     C39998   0.304   0.755  11.781 -0.4463  0.1336 -0.1367
  297MOL0     C39999   0.346   0.849  11.894  0.2917 -0.9507  0.2627
  297MOL0     C40000   0.218   0.934  11.934  0.6104  0.4163  0.2696
  297MOL0     C40001   0.266   1.053  12.028 -0.5987  0.5668 -0.2721
  297MOL0     C40002   0.300   0.987  12.168  0.7344  0.1350  0.4233
  297MOL0     C40003   0.331   1.100  12.273 -0.0941  0.0452 -0.1965
  297MOL0    Cl40004   0.470   1.193  12.229 -0.0857 -0.2513  0.1820
  297MOL0     C40005   0.323   0.781  11.349 -0.8246 -0.8675 -0.2337
  297MOL0     C40006   0.273   0.896  11.271 -0.0358  0.1308 -0.2780
  297MOL0     O40007   0.068   0.956  11.016  0.2033 -0.9175 -0.4907
  297MOL0     C40008  -0.072   1.263  11.148 -0.3213  0.2380 -0.4954
  297MOL0     C40009  -0.183   1.335  11.137 -0.0493 -0.3356 -0.2352
  297MOL0     N40010  -0.597   1.309  10.581 -1.0030 -0.4535  0.4629
  297MOL0     N40011  -0.525   1.260  10.483  0.3300 -0.4042 -0.2672
  297MOL0     C40012   0.410   0.573  10.520 -0.1843 -0.2442 -0.1132
  297MOL0     C40013   0.479   0.453  10.539  0.0709  0.0112 -0.0590
  297MOL0     C40014   0.664   0.100  10.764 -0.1018 -0.7900 -0.8519
  297MOL0     C40015   0.670   0.036  10.648 -0.9337  0.4291  0.0856
  297MOL0     C40016   0.758  -0.067  10.621 -0.3792 -0.4370 -0.5580
  297MOL0     C40017   0.851  -0.100  10.712  0.6220 -0.2950  1.1837
  297MOL0     O40018   0.930  -0.208  10.681  0.0298 -0.1309  1.0845
  297MOL0     C40019   0.995  -0.217  10.552  0.5573 -0.1679  0.2581
  297MOL0     C40020   1.145  -0.192  10.567 -0.9891  0.7371 -0.5541
  297MOL0     C40021   1.225  -0.316  10.627  0.3719 -0.4140  0.7683
  297MOL0     C40022   1.357  -0.272  10.672 -0.4046  0.9415  0.3198
  297MOL0     C40023   1.353  -0.180  10.780 -0.3268  0.8059 -0.2402
  297MOL0     C40024   1.372  -0.102  10.879 -0.3100  0.4644  1.5766
  297MOL0     C40025   0.857  -0.031  10.834 -0.0596  0.7157  0.0971
  297MOL0     C40026   0.753   0.058  10.866  0.2262  0.2282  0.0993
  297MOL0     C40027   0.741   0.089  11.010 -0.9126 -0.4876 -0.5804
  297MOL0     H40028   0.285   0.342  10.804 -0.4065  3.1605  2.2951
  297MOL0     H40029   0.200   0.550  10.787 -0.2466 -0.8427  1.4370
  297MOL0     H40030   0.069   0.757  10.679 -1.5729  2.6470  2.2540
  297MOL0     H40031   0.191   0.798  10.771 -1.6588  0.6881  0.6080
  297MOL0     H40032   0.177   0.959  10.517 -1.8398  0.9371 -0.5720
  297MOL0     H40033   0.229   1.001  10.679  0.1366 -1.3751  1.3089
  297MOL0     H40034  -0.042   0.923  10.716  0.1818 -2.2464 -2.8208
  297MOL0     H40035  -0.050   0.988  10.558 -4.0161  0.1969  1.6661
  297MOL0     H40036  -0.087   1.145  10.728  0.3445 -1.4607 -0.6787
  297MOL0     H40037   0.085   1.153  10.779 -1.6886 -0.9056  1.1409
  297MOL0     H40038   0.074   1.346  10.635  1.9386  1.2263 -2.9133
  297MOL0     H40039   0.148   1.210  10.566  0.4152  0.8282 -1.0531
  297MOL0     H40040   0.010   1.346  10.405 -0.1925 -0.9147 -2.2238
  297MOL0     H40041  -0.048   1.181  10.420  0.3901 -0.8405  1.9022
  297MOL0     H40042  -0.171   1.426  10.552  0.5317 -1.1134  3.6503
  297MOL0     H40043  -0.217   1.276  10.604 -1.3646  0.1951  0.0317
  297MOL0     H40044  -0.260   1.361  10.314  0.4584 -1.3705 -1.1023
  297MOL0     H40045  -0.288   1.191  10.370  1.4219 -0.6234  0.5996
  297MOL0     H40046  -0.375   1.552  10.542  1.4061  0.2317  1.7068
  297MOL0     H40047  -0.547   1.621  10.704 -1.8111  3.2105 -0.4347
  297MOL0     H40048  -0.709   1.588  10.634 -0.0475  0.3608  1.1537
  297MOL0     H40049  -0.767   1.562  10.850 -0.0868  0.2691 -0.9239
  297MOL0     H40050  -0.725   1.391  10.817  2.6328 -0.7105 -1.3438
  297MOL0     H40051  -0.631   1.475  11.034 -1.9333  1.7216 -0.5193
  297MOL0     H40052  -0.521   1.584  10.943  0.9532  0.1854  0.8315
  297MOL0     H40053  -0.430   1.395  10.820  2.3096 -0.3200  0.1750
  297MOL0     H40054  -0.529   1.287  10.919  2.2121 -0.5791  1.6077
  297MOL0     H40055  -0.331   1.166  10.874 -2.7662 -2.0022  2.4672
  297MOL0     H40056  -0.144   1.036  10.916 -1.2654 -1.3883  0.7877
  297MOL0     H40057  -0.017   0.948  11.427 -0.6914 -2.2335  0.7653
  297MOL0     H40058   0.067   0.759  11.556  2.4363 -1.9185  0.6076
  297MOL0     H40059   0.428   0.507  11.605  0.4617 -0.6417  1.1040
  297MOL0     H40060   0.484   0.655  11.521 -0.6955  2.7900  2.1017
  297MOL0     H40061   0.475   0.617  11.797 -4.0818 -4.4286  0.4154
  297MOL0     H40062   0.493   0.772  11.713 -1.8940  1.0170 -0.9485
  297MOL0     H40063   0.261   0.810  11.697  0.9812 -1.2015 -1.8343
  297MOL0     H40064   0.241   0.673  11.815  0.8425 -0.5605  0.6712
  297MOL0     H40065   0.427   0.919  11.870  0.6537 -1.8123 -1.1560
  297MOL0     H40066   0.382   0.792  11.981  2.7665  1.1843  0.7622
  297MOL0     H40067   0.143   0.862  11.967  1.8705 -1.6471 -1.1467
  297MOL0     H40068   0.179   0.982  11.844  2.9233 -0.2171 -1.1701
  297MOL0     H40069   0.352   1.106  11.985 -0.3892  1.8181  1.5775
  297MOL0     H40070   0.180   1.119  12.043 -1.8645 -1.1871  0.5494
  297MOL0     H40071   0.381   0.915  12.156 -1.3061 -2.9111  3.0316
  297MOL0     H40072   0.215   0.926  12.201  0.6164 -0.0253 -0.1680
  297MOL0     H40073   0.245   1.168  12.278 -2.8235 -3.1816 -0.1212
  297MOL0     H40074   0.337   1.050  12.370 -1.8506  0.5327  0.2081
  297MOL0     H40075   0.417   0.736  11.318 -0.2882  0.0755 -0.0141
  297MOL0     H40076   0.336   0.931  11.190 -0.5356 -0.7239 -1.0576
  297MOL0     H40077   0.007   1.284  11.219  0.9388  0.1626 -1.8524
  297MOL0     H40078  -0.203   1.427  11.189 -0.2296  0.7104 -2.0685
  297MOL0     H40079   0.439   0.622  10.428 -1.2457 -0.1471 -0.4086
  297MOL0     H40080   0.560   0.425  10.473  0.0253  0.5426 -0.3382
  297MOL0     H40081   0.595   0.057  10.572  0.2161  0.9252 -0.9609
  297MOL0     H40082   0.746  -0.126  10.530  1.0909 -1.2951 -0.2347
  297MOL0     H40083   0.946  -0.156  10.477  0.8952 -2.9154 -2.3931
  297MOL0     H40084   0.989  -0.321  10.518 -0.0218 -1.0609  2.7909
  297MOL0     H40085   1.149  -0.102  10.629  0.9905  0.3789 -0.0955
  297MOL0     H40086   1.182  -0.162  10.469  0.9389  0.8725  0.1868
  297MOL0     H40087   1.223  -0.387  10.544 -4.9839  0.2563 -0.0309
  297MOL0     H40088   1.170  -0.363  10.709  0.5136  1.3173  1.9302
  297MOL0     H40089   1.406  -0.357  10.719 -2.0613  1.7504  3.7770
  297MOL0     H40090   1.408  -0.233  10.583 -2.4643 -0.3239 -1.5473
  297MOL0     H40091   1.377  -0.037  10.964 -1.7718  0.2570  1.8432
  297MOL0     H40092   0.935  -0.043  10.909 -1.9526  1.0651  2.2720
  297MOL0     H40093   0.729   0.198  11.013  0.2241 -0.1168 -4.3150
  297MOL0     H40094   0.654   0.045  11.059 -1.7817  1.0783 -0.6428
  297MOL0     H40095   0.826   0.064  11.073  0.3199  0.0738 -1.9384
  298MOL0     O40096   9.725   8.727   5.029 -0.1519  0.1299  0.3981
  298MOL0     C40097   9.818   8.749   5.108 -0.6639 -0.0145  0.4243
  298MOL0     O40098   9.948   8.707   5.094  0.5061 -0.4499  0.6687
  298MOL0     C40099   9.969   8.627   4.981 -0.7161  0.4209 -0.7698
  298MOL0     C40100   9.962   8.481   4.987  1.3907 -0.4648  0.6582
  298MOL0     C40101   9.998   8.400   4.877 -0.3216 -1.3882  0.7284
  298MOL0     C40102  10.042   8.460   4.754  0.0512 -1.0817 -0.4810
  298MOL0     O40103  10.072   8.399   4.636  0.4487  0.4282  0.0895
  298MOL0     C40104  10.201   8.343   4.643 -0.6730 -1.2335  0.7687
  298MOL0     C40105  10.205   8.193   4.599  0.9392 -0.3502 -0.2686
  298MOL0     C40106  10.335   8.126   4.619 -0.4584  0.6945  0.0896
  298MOL0     C40107  10.345   7.973   4.611  0.0866  0.8244 -0.1907
  298MOL0     C40108  10.488   7.930   4.585  0.1463 -0.6311 -0.6262
  298MOL0     C40109  10.497   7.779   4.577  0.1118 -0.4388 -0.1420
  298MOL0     C40110  10.631   7.719   4.601 -0.4801  0.0895  0.1313
  298MOL0     C40111  10.665   7.677   4.747  0.2612  0.2768  0.1818
  298MOL0     N40112  10.792   7.606   4.754  0.9040  0.8419 -0.0132
  298MOL0     C40113  10.913   7.658   4.756  0.1205  0.2545  0.2013
  298MOL0     C40114  10.998   7.558   4.762 -0.6380 -0.1586  0.7713
  298MOL0     C40115  11.153   7.566   4.754 -0.4512  0.7534 -0.5781
  298MOL0     C40116  11.217   7.526   4.621  0.8703 -0.3761 -0.2171
  298MOL0     C40117  11.370   7.501   4.632 -0.2864 -0.2351 -0.0723
  298MOL0     C40118  11.427   7.487   4.485  0.2125  0.4137 -0.0259
  298MOL0     O40119  11.370   7.382   4.412 -0.2931 -0.8921 -0.4792
  298MOL0     C40120  11.449   7.271   4.402  0.0276 -0.3199 -0.3095
  298MOL0     C40121  11.430   7.191   4.284  0.6223 -0.1674  0.4119
  298MOL0     C40122  11.501   7.069   4.273  0.2113  1.0928  0.4741
  298MOL0     C40123  11.581   7.015   4.375 -0.8220  0.4451 -0.4338
  298MOL0     C40124  11.649   6.874   4.364 -0.2173 -0.7064 -0.4685
  298MOL0     O40125  11.668   6.822   4.247  0.8786  0.9156 -0.0222
  298MOL0     C40126  11.735   6.700   4.237  0.9336  0.5445  0.1833
  298MOL0     C40127  11.659   6.577   4.267 -0.9059  0.4777 -0.0557
  298MOL0     C40128  11.724   6.449   4.262  0.7631 -0.4954  0.5512
  298MOL0     C40129  11.854   6.440   4.209  0.1246 -0.3412 -0.1821
  298MOL0     O40130  11.924   6.326   4.213  0.3002  0.2921 -0.0695
  298MOL0     C40131  11.845   6.213   4.182 -0.8230 -0.6450  0.4127
  298MOL0     C40132  11.937   6.100   4.114  0.0049 -0.4408 -0.3058
  298MOL0     C40133  11.851   5.992   4.053 -0.5109  0.4434 -0.0965
  298MOL0     C40134  11.942   5.905   3.977  0.0924  0.5914 -1.0747
  298MOL0     C40135  11.892   5.834   3.855 -0.0522  0.3996  0.0946
  298MOL0     C40136  12.007   5.793   3.767  0.1674 -0.5388 -0.8578
  298MOL0     C40137  12.101   5.696   3.840 -0.1606  1.6056 -0.6001
  298MOL0     C40138  12.214   5.652   3.753  0.1977  0.2962 -0.9051
  298MOL0    Cl40139  12.318   5.533   3.853  0.3289 -0.1820  0.0129
  298MOL0     C40140  11.922   6.559   4.179  0.1221 -0.1715 -0.4142
  298MOL0     C40141  11.861   6.678   4.177  0.0364 -0.3602 -0.2996
  298MOL0     O40142  11.701   6.827   4.465  0.3582  0.0543 -0.1774
  298MOL0     C40143  11.606   7.098   4.490 -0.1232 -0.1583  1.0644
  298MOL0     C40144  11.536   7.227   4.505  0.5617  0.0856 -1.8648
  298MOL0     N40145  10.934   7.439   4.756  0.5472 -0.3762 -0.6851
  298MOL0     N40146  10.804   7.473   4.739 -0.5419  0.1570  0.8174
  298MOL0     C40147  10.057   8.599   4.755  0.8993  0.5790  0.6285
  298MOL0     C40148  10.010   8.682   4.860 -0.6123  0.5909 -0.3784
  298MOL0     C40149   9.781   8.836   5.219  1.2690 -0.0708 -0.5308
  298MOL0     C40150   9.643   8.825   5.261  0.7098  0.3110  0.4260
  298MOL0     C40151   9.597   8.897   5.380  0.1850  0.1122  0.1713
  298MOL0     C40152   9.690   8.990   5.430  0.0376 -0.2089  0.9554
  298MOL0     O40153   9.664   9.077   5.539 -0.0664  0.3092 -0.5109
  298MOL0     C40154   9.596   9.023   5.655 -0.7105 -0.4120  0.6341
  298MOL0     C40155   9.460   9.099   5.664 -0.0173  0.6654 -0.5330
  298MOL0     C40156   9.458   9.254   5.680  0.5577  0.2462 -1.1024
  298MOL0     C40157   9.325   9.322   5.637  0.3800  0.7410 -0.9121
  298MOL0     C40158   9.269   9.285   5.507  0.3143 -0.1543 -0.2016
  298MOL0     C40159   9.235   9.258   5.389 -0.8373 -0.6436  0.6690
  298MOL0     C40160   9.825   8.992   5.392  0.7469 -0.4196 -0.6123
  298MOL0     C40161   9.869   8.923   5.281 -1.1703 -0.1341 -0.1753
  298MOL0     C40162  10.016   8.954   5.242 -0.6625  0.1304 -0.9903
  298MOL0     H40163   9.926   8.437   5.079 -1.7947  1.0122  0.2583
  298MOL0     H40164  10.006   8.292   4.869 -1.0639 -1.3212 -3.7136
  298MOL0     H40165  10.253   8.405   4.569 -5.0430  2.5209  0.3901
  298MOL0     H40166  10.252   8.368   4.736 -1.3411  0.8911  0.6191
  298MOL0     H40167  10.172   8.193   4.495 -3.3342  0.1725  0.9022
  298MOL0     H40168  10.131   8.134   4.655 -0.9614  0.3410 -1.9574
  298MOL0     H40169  10.358   8.145   4.724  0.9868 -1.3193  0.1967
  298MOL0     H40170  10.422   8.161   4.564  1.1111 -5.1691 -1.8649
  298MOL0     H40171  10.319   7.928   4.707  2.1390  2.5612  1.3039
  298MOL0     H40172  10.280   7.927   4.536  1.5679 -0.0940 -0.9611
  298MOL0     H40173  10.510   7.978   4.489 -1.3733  0.9830 -0.2027
  298MOL0     H40174  10.561   7.958   4.662 -1.2076  1.6577 -0.1070
  298MOL0     H40175  10.417   7.728   4.631  1.4958 -0.3660  2.1113
  298MOL0     H40176  10.486   7.764   4.469  0.4272  2.4451 -0.6445
  298MOL0     H40177  10.712   7.785   4.569  0.7420 -2.4043 -2.3404
  298MOL0     H40178  10.650   7.635   4.534  2.2374  2.1247 -1.8663
  298MOL0     H40179  10.670   7.767   4.809  2.4744  2.3975 -2.7688
  298MOL0     H40180  10.589   7.603   4.774  1.5566 -0.9144  0.6861
  298MOL0     H40181  10.955   7.758   4.757 -2.5704  1.6424  5.0268
  298MOL0     H40182  11.188   7.665   4.788 -0.7497  0.7042 -0.1159
  298MOL0     H40183  11.185   7.500   4.836 -1.9838  1.0565  0.2977
  298MOL0     H40184  11.169   7.444   4.567  0.7250 -2.3126  2.6508
  298MOL0     H40185  11.216   7.621   4.566  6.7587  0.3277  0.2140
  298MOL0     H40186  11.394   7.412   4.690  0.9447  0.3324  0.3271
  298MOL0     H40187  11.419   7.586   4.682  0.3741 -2.5449  3.5208
  298MOL0     H40188  11.535   7.473   4.488  0.2892  0.3098 -2.1323
  298MOL0     H40189  11.416   7.577   4.423 -3.5524 -0.8438 -1.4590
  298MOL0     H40190  11.359   7.224   4.209  0.7075  1.9426  1.2053
  298MOL0     H40191  11.470   7.017   4.183  4.8741  0.9087 -1.2901
  298MOL0     H40192  11.556   6.583   4.299 -1.3039  1.4084 -1.4411
  298MOL0     H40193  11.662   6.364   4.290  1.4295 -1.2886 -0.3098
  298MOL0     H40194  11.797   6.172   4.271  0.4314 -0.3805  1.2535
  298MOL0     H40195  11.770   6.247   4.110  1.8940  4.6241 -0.4634
  298MOL0     H40196  12.011   6.144   4.046  1.1164 -0.8484  0.6019
  298MOL0     H40197  11.999   6.050   4.189  0.4716  1.6936  0.8282
  298MOL0     H40198  11.790   5.950   4.133 -0.4751  2.1718  0.8980
  298MOL0     H40199  11.775   6.036   3.987  0.9782  2.0304 -0.8362
  298MOL0     H40200  11.977   5.836   4.055  0.9410  1.9000 -0.2587
  298MOL0     H40201  12.028   5.967   3.948 -1.1339  3.7712  1.5118
  298MOL0     H40202  11.837   5.915   3.806  1.2007  0.4825 -1.2343
  298MOL0     H40203  11.827   5.750   3.881 -3.2175  2.0451 -1.8522
  298MOL0     H40204  11.957   5.753   3.679  2.6044  0.9494 -3.0616
  298MOL0     H40205  12.073   5.879   3.754  0.2116 -0.1906  1.3297
  298MOL0     H40206  12.036   5.613   3.870  0.3743  0.5158 -2.2832
  298MOL0     H40207  12.143   5.743   3.929  0.0147  2.7871 -1.2860
  298MOL0     H40208  12.191   5.608   3.655 -1.5838  1.8432 -1.2660
  298MOL0     H40209  12.287   5.733   3.748  1.5718 -0.4346  3.2612
  298MOL0     H40210  12.026   6.552   4.149  0.7627  0.1350  1.5798
  298MOL0     H40211  11.928   6.760   4.152 -0.2991  0.2929  0.8246
  298MOL0     H40212  11.680   7.064   4.562  2.3785  2.8721  0.1439
  298MOL0     H40213  11.546   7.278   4.600 -0.4805 -1.1966 -1.0429
  298MOL0     H40214  10.093   8.654   4.669  3.4125 -0.6122  0.8293
  298MOL0     H40215  10.037   8.786   4.849  0.4030  0.2468 -1.4420
  298MOL0     H40216   9.577   8.752   5.217  0.7115 -0.5997  1.8625
  298MOL0     H40217   9.502   8.899   5.432  0.1361  0.6208  0.0729
  298MOL0     H40218   9.661   9.045   5.741 -0.1058 -1.2012  0.3906
  298MOL0     H40219   9.566   8.918   5.647 -1.0707 -0.1820 -1.5390
  298MOL0     H40220   9.404   9.062   5.750 -0.3237 -0.7231 -1.2995
  298MOL0     H40221   9.426   9.057   5.569  1.3019 -1.0905 -0.2868
  298MOL0     H40222   9.539   9.298   5.621  0.7935  0.4919 -0.5997
  298MOL0     H40223   9.481   9.284   5.783 -0.3819 -0.8994 -0.5308
  298MOL0     H40224   9.250   9.318   5.716 -1.5500 -0.5958 -2.6741
  298MOL0     H40225   9.348   9.428   5.628  3.3422  0.1397 -1.4000
  298MOL0     H40226   9.213   9.245   5.285 -0.5750  3.4892 -0.0519
  298MOL0     H40227   9.893   9.069   5.426 -0.6420  0.4311  0.3518
  298MOL0     H40228  10.065   9.000   5.329 -0.7677 -0.8630 -0.3886
  298MOL0     H40229  10.075   8.864   5.224 -0.4088 -0.5244  2.4197
  298MOL0     H40230  10.009   9.013   5.150 -1.2164 -0.5646 -1.4014
  299MOL0     O40231   0.508   9.957   3.297 -0.8322 -0.0966  0.1645
  299MOL0     C40232   0.615   9.983   3.355 -0.0042 -0.5122 -0.2723
  299MOL0     O40233   0.636   9.988   3.497  0.1171  0.0131  0.2937
  299MOL0     C40234   0.523   9.955   3.571 -0.1667 -0.6155 -0.2698
  299MOL0     C40235   0.472  10.042   3.660  0.8115 -1.2404 -0.2494
  299MOL0     C40236   0.355  10.019   3.731 -0.8144 -1.0708 -0.1101
  299MOL0     C40237   0.292   9.895   3.727 -0.3933  0.6996  0.2948
  299MOL0     O40238   0.175   9.885   3.805  0.1380 -0.5602  0.0478
  299MOL0     C40239   0.133   9.752   3.844  0.6189 -0.7149 -0.0250
  299MOL0     C40240   0.037   9.778   3.963  0.4025  0.1344 -0.3106
  299MOL0     C40241   0.097   9.852   4.089 -0.5167 -1.0132  0.5070
  299MOL0     C40242   0.004   9.848   4.209 -0.7115 -1.2632  0.5526
  299MOL0     C40243   0.032   9.934   4.331  0.5106 -0.5395  0.5761
  299MOL0     C40244  -0.002  10.078   4.294 -0.0764 -0.2180 -0.5867
  299MOL0     C40245   0.045  10.176   4.405 -1.1639  0.1237  0.1381
  299MOL0     C40246  -0.006  10.163   4.547 -1.0011  0.3427 -0.6256
  299MOL0     N40247   0.025  10.270   4.651  1.0268  0.4736  0.3124
  299MOL0     C40248   0.136  10.345   4.658  0.4460  0.3129  0.4796
  299MOL0     C40249   0.116  10.421   4.771 -0.2331 -0.3295  0.0713
  299MOL0     C40250   0.213  10.508   4.833  0.6912 -0.0611  0.7164
  299MOL0     C40251   0.168  10.653   4.823  0.0347  0.0445  0.3122
  299MOL0     C40252   0.271  10.735   4.913  0.5722  1.1417 -0.0727
  299MOL0     C40253   0.218  10.877   4.941 -0.0213  0.2495  0.0667
  299MOL0     O40254   0.306  10.952   5.018 -0.2513  0.2469 -0.3335
  299MOL0     C40255   0.259  11.063   5.072  0.3015  0.4111  0.1470
  299MOL0     C40256   0.190  11.166   5.010  0.8780  0.8864 -1.1398
  299MOL0     C40257   0.132  11.258   5.092  0.7402  0.4253 -1.3779
  299MOL0     C40258   0.151  11.269   5.231  0.2048 -0.7360  0.1304
  299MOL0     C40259   0.097  11.375   5.314  1.1898 -0.2359  0.1484
  299MOL0     O40260   0.124  11.375   5.445  0.1521  0.4580  0.1323
  299MOL0     C40261   0.068  11.478   5.512  0.7498  0.7417  0.3954
  299MOL0     C40262   0.145  11.590   5.547  0.0164  0.0460  0.4394
  299MOL0     C40263   0.095  11.699   5.609  0.1867  0.4296 -0.0613
  299MOL0     C40264  -0.042  11.694   5.649  0.2904 -0.4905 -1.7229
  299MOL0     O40265  -0.098  11.795   5.716  0.5520  0.3532 -0.1848
  299MOL0     C40266  -0.066  11.922   5.667 -0.4017  0.0933  0.0430
  299MOL0     C40267  -0.185  12.028   5.688  0.2846  0.4975 -0.2664
  299MOL0     C40268  -0.182  12.144   5.596  0.5647 -0.7448  0.7358
  299MOL0     C40269  -0.192  12.101   5.446  0.4875 -0.6544 -0.6969
  299MOL0     C40270  -0.254  12.211   5.358 -0.8721 -0.9109 -0.1677
  299MOL0     C40271  -0.146  12.299   5.287  0.3240 -0.6583 -0.1963
  299MOL0     C40272  -0.226  12.429   5.245 -0.0971  0.7025 -0.6832
  299MOL0     C40273  -0.127  12.531   5.190  0.7932  0.6272  0.0813
  299MOL0    Cl40274  -0.028  12.601   5.318  0.0437  0.6107  0.2285
  299MOL0     C40275  -0.119  11.579   5.620 -0.3148  0.2709 -0.1967
  299MOL0     C40276  -0.060  11.466   5.559 -0.2031 -0.6793 -0.4178
  299MOL0     O40277   0.029  11.459   5.253 -0.8678 -0.0727  0.1999
  299MOL0     C40278   0.235  11.179   5.287  0.6013  0.9570  0.3826
  299MOL0     C40279   0.291  11.072   5.205 -0.5786  0.9584 -0.4504
  299MOL0     N40280  -0.009  10.390   4.822  0.1746 -0.2406  0.0095
  299MOL0     N40281  -0.059  10.302   4.750  0.1442 -0.1269  1.1745
  299MOL0     C40282   0.349   9.795   3.638 -0.6583  0.9834 -0.3603
  299MOL0     C40283   0.457   9.830   3.554  0.3747 -0.2863 -0.7226
  299MOL0     C40284   0.742   9.999   3.273  0.0654  0.3739 -0.8542
  299MOL0     C40285   0.733   9.942   3.147  0.1976  0.0997  0.8538
  299MOL0     C40286   0.850   9.941   3.072  0.0742  0.3844  0.3912
  299MOL0     C40287   0.965  10.001   3.112  0.1301 -0.7744  0.2414
  299MOL0     O40288   1.065   9.998   3.019 -0.0233 -0.0719  0.5171
  299MOL0     C40289   1.072  10.123   2.945 -0.8735 -0.6463 -0.7072
  299MOL0     C40290   1.224  10.127   2.917 -0.0188  0.1192  0.2682
  299MOL0     C40291   1.313  10.000   2.878  0.5633  0.1258 -0.5200
  299MOL0     C40292   1.260   9.917   2.764  0.0903 -0.3307  0.2930
  299MOL0     C40293   1.362   9.825   2.717 -0.1637 -0.0530 -0.5331
  299MOL0     C40294   1.455   9.758   2.682  0.3781  0.0851 -0.2260
  299MOL0     C40295   0.975  10.060   3.239  0.1930  0.0223  1.1822
  299MOL0     C40296   0.868  10.063   3.320 -0.3072  0.1815 -0.6760
  299MOL0     C40297   0.888  10.115   3.459 -0.2382  0.5215  0.1233
  299MOL0     H40298   0.526  10.135   3.680  0.2258 -0.7403 -0.9374
  299MOL0     H40299   0.317  10.100   3.793  0.2230 -0.7901  0.1754
  299MOL0     H40300   0.082   9.697   3.764  0.0526 -0.1510 -0.0510
  299MOL0     H40301   0.219   9.695   3.881  2.1364  2.8429  2.4802
  299MOL0     H40302  -0.016   9.687   3.994 -1.4102  1.4334  0.6470
  299MOL0     H40303  -0.044   9.842   3.925  0.0708 -0.2137 -0.1980
  299MOL0     H40304   0.122   9.957   4.071 -3.4193  0.4632  3.8860
  299MOL0     H40305   0.190   9.799   4.114 -2.0425 -2.6088  3.2198
  299MOL0     H40306  -0.086   9.896   4.170 -0.3072 -1.0494 -0.1461
  299MOL0     H40307  -0.008   9.747   4.249 -1.4386 -1.0028  1.0019
  299MOL0     H40308  -0.029   9.907   4.417 -0.8090  1.9614  0.5327
  299MOL0     H40309   0.136   9.917   4.362  0.0541 -1.0624  1.8735
  299MOL0     H40310   0.042  10.094   4.194  0.3484  0.5783 -0.2907
  299MOL0     H40311  -0.110  10.087   4.279 -0.4022 -3.5493 -0.9445
  299MOL0     H40312   0.014  10.275   4.370  3.7336  2.3598  1.1342
  299MOL0     H40313   0.153  10.172   4.387 -1.4032  0.5342 -1.5806
  299MOL0     H40314  -0.113  10.142   4.540 -1.2611 -0.1928  3.2321
  299MOL0     H40315   0.033  10.069   4.587 -2.1580 -0.9141 -2.2968
  299MOL0     H40316   0.224  10.349   4.594  0.0932  2.5293  0.0244
  299MOL0     H40317   0.215  10.482   4.939 -1.8006  0.2562  0.9044
  299MOL0     H40318   0.313  10.507   4.789  1.3002  0.7627  2.0160
  299MOL0     H40319   0.162  10.697   4.722  0.7092  1.4498  0.8441
  299MOL0     H40320   0.067  10.660   4.863  0.6444 -0.1649  1.9410
  299MOL0     H40321   0.368  10.743   4.862  0.1457  0.1658 -1.0790
  299MOL0     H40322   0.288  10.683   5.007 -2.9463 -0.8171 -0.3454
  299MOL0     H40323   0.121  10.869   4.992  1.2410 -1.7549  2.3774
  299MOL0     H40324   0.208  10.929   4.846  0.0092 -3.7074 -2.3005
  299MOL0     H40325   0.194  11.164   4.901  1.9775 -2.3373 -1.1439
  299MOL0     H40326   0.069  11.338   5.055 -0.3594  0.4909  0.4974
  299MOL0     H40327   0.245  11.595   5.504 -0.8068  1.0549 -1.4842
  299MOL0     H40328   0.166  11.781   5.620 -0.0370  0.8710 -1.6842
  299MOL0     H40329   0.020  11.956   5.727 -3.7199  2.1559  4.1530
  299MOL0     H40330  -0.040  11.915   5.561 -0.7834 -1.1268  0.0230
  299MOL0     H40331  -0.282  11.978   5.688  0.5689 -0.1277  1.6340
  299MOL0     H40332  -0.185  12.061   5.792 -0.0695  1.9536 -0.6991
  299MOL0     H40333  -0.279  12.190   5.619 -0.7773 -1.0529 -3.3743
  299MOL0     H40334  -0.103  12.213   5.625  1.0178 -1.4592  1.2044
  299MOL0     H40335  -0.254  12.011   5.443 -0.8399  0.2560 -1.6377
  299MOL0     H40336  -0.093  12.072   5.409  0.1746 -1.0677 -1.2127
  299MOL0     H40337  -0.313  12.278   5.422  1.1306 -0.8601  1.7415
  299MOL0     H40338  -0.315  12.163   5.281 -0.3113  1.8602 -2.5342
  299MOL0     H40339  -0.075  12.334   5.362 -1.0133  2.5935 -0.2880
  299MOL0     H40340  -0.107  12.234   5.209 -0.0655 -2.1034  0.7617
  299MOL0     H40341  -0.286  12.462   5.331  1.6675  3.7984 -0.4950
  299MOL0     H40342  -0.294  12.406   5.162  1.0381 -0.7311 -1.2638
  299MOL0     H40343  -0.075  12.507   5.097  0.9338 -0.0771  0.3415
  299MOL0     H40344  -0.202  12.598   5.145 -2.1455 -1.9792  0.7200
  299MOL0     H40345  -0.217  11.578   5.666  0.7886  1.1466  2.3596
  299MOL0     H40346  -0.119  11.377   5.537  0.2916 -0.7719 -1.4327
  299MOL0     H40347   0.265  11.184   5.391  0.3250 -3.5593  0.8661
  299MOL0     H40348   0.345  10.994   5.258 -1.0580  0.3037 -0.9133
  299MOL0     H40349   0.304   9.698   3.622  1.5596 -0.0845 -0.3695
  299MOL0     H40350   0.504   9.749   3.499  0.9095 -1.5772  1.5077
  299MOL0     H40351   0.646   9.895   3.102 -0.3818 -1.7721  3.7178
  299MOL0     H40352   0.845   9.896   2.974  3.2348  0.1032  0.2439
  299MOL0     H40353   1.045  10.214   3.000 -0.2685 -0.1123 -1.2833
  299MOL0     H40354   1.014  10.121   2.852  0.1222 -1.7120 -1.3256
  299MOL0     H40355   1.275  10.168   3.004 -1.0986 -1.0279  1.5034
  299MOL0     H40356   1.228  10.205   2.841 -0.7849  1.4501  1.5549
  299MOL0     H40357   1.329   9.933   2.964 -0.1392 -0.8199 -1.1183
  299MOL0     H40358   1.407  10.043   2.841 -0.0035  1.5145 -0.3966
  299MOL0     H40359   1.175   9.859   2.799 -1.7415  2.4988  0.7857
  299MOL0     H40360   1.236   9.985   2.681 -0.6778 -2.4210 -1.2976
  299MOL0     H40361   1.539   9.695   2.660  0.6786  0.0840  0.8362
  299MOL0     H40362   1.073  10.097   3.267  2.1623 -1.4576 -2.9625
  299MOL0     H40363   0.906  10.032   3.527 -1.2396  1.6146  1.7901
  299MOL0     H40364   0.980  10.176   3.457  0.4335 -0.4797 -0.6957
  299MOL0     H40365   0.812  10.185   3.495  2.7046  0.4457  8.7004
  300MOL0     O40366   1.455   7.147   4.220 -0.1591 -0.1475 -0.8139
  300MOL0     C40367   1.388   7.242   4.192  1.0008 -0.0689 -0.5379
  300MOL0     O40368   1.381   7.351   4.265 -0.3693  1.2355 -0.4666
  300MOL0     C40369   1.494   7.406   4.318  0.2885 -0.0358  0.0852
  300MOL0     C40370   1.474   7.492   4.429 -0.0569 -0.2280 -0.5519
  300MOL0     C40371   1.585   7.552   4.495  0.3632 -0.0895  0.1223
  300MOL0     C40372   1.711   7.523   4.455  0.1868 -1.4040  0.2864
  300MOL0     O40373   1.824   7.554   4.525  0.0169  0.4397  0.5218
  300MOL0     C40374   1.817   7.647   4.633  0.6249  0.6551  0.9777
  300MOL0     C40375   1.955   7.668   4.680  0.1169 -0.8603 -0.6198
  300MOL0     C40376   1.956   7.768   4.801 -0.2022  0.5832 -0.3021
  300MOL0     C40377   2.015   7.897   4.746 -0.1356 -0.1355 -0.0712
  300MOL0     C40378   2.164   7.910   4.777 -0.6741  0.5229 -0.4282
  300MOL0     C40379   2.233   8.028   4.713  0.5854 -0.4287  0.2738
  300MOL0     C40380   2.359   8.055   4.791 -1.5180  0.9956  0.0124
  300MOL0     C40381   2.447   8.155   4.714  0.0403 -1.5082  0.7769
  300MOL0     N40382   2.393   8.294   4.709  0.5577 -0.5244 -0.1926
  300MOL0     C40383   2.454   8.383   4.794 -0.1724  0.2384  0.1594
  300MOL0     C40384   2.371   8.493   4.807  0.1904  0.1851  0.1056
  300MOL0     C40385   2.393   8.602   4.909  0.2951 -0.7938 -0.4506
  300MOL0     C40386   2.296   8.582   5.031 -0.3566  0.0388  0.3241
  300MOL0     C40387   2.250   8.702   5.101  0.6945  0.1965  0.3152
  300MOL0     C40388   2.357   8.772   5.189 -0.4773 -0.0648  0.3309
  300MOL0     O40389   2.444   8.685   5.263 -0.2046  0.7349 -0.3811
  300MOL0     C40390   2.532   8.754   5.348  0.6682 -0.1836 -0.2971
  300MOL0     C40391   2.587   8.883   5.318  0.6933 -1.7347 -0.3627
  300MOL0     C40392   2.658   8.967   5.411  0.1235 -0.5018 -0.4498
  300MOL0     C40393   2.688   8.908   5.533 -0.7183  0.5827 -0.0400
  300MOL0     C40394   2.758   8.980   5.641 -0.9526  0.2042  0.8638
  300MOL0     O40395   2.854   9.071   5.608  0.2820 -0.1796 -0.3283
  300MOL0     C40396   2.931   9.117   5.711 -1.0536  0.6963  0.4829
  300MOL0     C40397   3.026   9.044   5.782 -0.0817  0.7368 -0.9562
  300MOL0     C40398   3.123   9.103   5.876 -0.4613  1.0773  0.9298
  300MOL0     C40399   3.132   9.245   5.890  0.3839  1.5077 -1.5501
  300MOL0     O40400   3.231   9.302   5.972  0.2139 -0.6387 -0.4172
  300MOL0     C40401   3.203   9.435   6.027 -0.5006 -0.0472  0.5437
  300MOL0     C40402   3.329   9.481   6.106 -0.0035 -0.5373  0.3917
  300MOL0     C40403   3.438   9.544   6.013 -1.1108  0.1230  0.5853
  300MOL0     C40404   3.557   9.570   6.099 -0.5793 -0.4860  0.6328
  300MOL0     C40405   3.668   9.656   6.023 -0.6277 -0.1347  0.2603
  300MOL0     C40406   3.810   9.670   6.093 -0.4693  1.3515  0.1014
  300MOL0     C40407   3.916   9.652   5.987  0.6366  0.5987  0.0276
  300MOL0     C40408   4.050   9.687   6.045 -0.3988 -0.9456 -0.1359
  300MOL0    Cl40409   4.069   9.867   6.049  0.0827  0.0124 -0.2876
  300MOL0     C40410   3.031   9.320   5.819 -0.4545  0.9128  0.4765
  300MOL0     C40411   2.943   9.255   5.729 -0.7034 -0.3570 -0.4557
  300MOL0     O40412   2.728   8.945   5.755  0.2009  0.1159 -0.0815
  300MOL0     C40413   2.651   8.767   5.555  1.2368 -0.1501  0.6940
  300MOL0     C40414   2.568   8.693   5.471  0.0664 -0.3264  0.4582
  300MOL0     N40415   2.257   8.465   4.727 -0.2374  0.5184  0.4172
  300MOL0     N40416   2.276   8.346   4.672  0.0140  0.2261  1.1842
  300MOL0     C40417   1.730   7.436   4.348  0.3411  0.4141 -0.1696
  300MOL0     C40418   1.629   7.378   4.283  0.9961 -0.5104  0.6850
  300MOL0     C40419   1.297   7.231   4.075 -0.0490  0.4990 -0.4002
  300MOL0     C40420   1.246   7.099   4.049  0.1230 -0.3816 -0.9015
  300MOL0     C40421   1.152   7.069   3.959 -0.7941  0.8089  0.2426
  300MOL0     C40422   1.100   7.169   3.877 -0.1271 -0.7682  0.3264
  300MOL0     O40423   1.022   7.140   3.776 -0.6967 -0.1880 -0.8788
  300MOL0     C40424   1.081   7.150   3.650  0.7805  0.9127  0.1402
  300MOL0     C40425   1.103   7.002   3.600 -0.6231 -0.3611 -0.5293
  300MOL0     C40426   1.188   7.015   3.478  0.3576  0.5545  0.2296
  300MOL0     C40427   1.106   7.035   3.355  0.1234  0.7370  0.5487
  300MOL0     C40428   1.067   6.906   3.287 -1.5177 -0.5591 -0.3062
  300MOL0     C40429   1.038   6.796   3.246  0.8019 -0.5020  0.1863
  300MOL0     C40430   1.148   7.303   3.900 -0.1798  0.1463  0.5480
  300MOL0     C40431   1.241   7.337   3.996 -1.4228  0.4358  0.3043
  300MOL0     C40432   1.288   7.476   4.013  0.6028 -0.0127 -0.0171
  300MOL0     H40433   1.374   7.511   4.468 -0.3918 -1.6543 -0.6595
  300MOL0     H40434   1.568   7.620   4.579 -3.0126 -0.2158 -0.3320
  300MOL0     H40435   1.764   7.731   4.586  3.3936 -0.2417 -4.6848
  300MOL0     H40436   1.758   7.598   4.711 -1.8055  1.7231 -0.0960
  300MOL0     H40437   2.025   7.689   4.599 -0.0612  1.7928 -0.1807
  300MOL0     H40438   1.994   7.576   4.724  5.0086  1.1138 -0.2513
  300MOL0     H40439   2.025   7.728   4.876 -0.8445 -0.1042 -0.0638
  300MOL0     H40440   1.858   7.775   4.848 -0.7593 -1.2650 -1.0916
  300MOL0     H40441   1.991   7.915   4.641  2.4585  0.6316 -0.6038
  300MOL0     H40442   1.969   7.981   4.800 -0.8142 -0.2703 -0.4264
  300MOL0     H40443   2.160   7.917   4.886 -3.3050  0.8379 -0.4749
  300MOL0     H40444   2.218   7.818   4.754  0.5382  1.3997 -1.2396
  300MOL0     H40445   2.270   7.993   4.616 -1.6859 -2.1331 -0.0636
  300MOL0     H40446   2.161   8.110   4.712  1.0283 -0.0404 -0.0878
  300MOL0     H40447   2.411   7.960   4.804  0.1130  1.6354 -1.3584
  300MOL0     H40448   2.342   8.101   4.889  0.7317  1.7094  0.1391
  300MOL0     H40449   2.549   8.174   4.750  0.3325  2.6197 -1.6517
  300MOL0     H40450   2.456   8.111   4.614 -1.6314  2.2433 -1.2125
  300MOL0     H40451   2.552   8.368   4.839  1.0286  2.9672 -1.2849
  300MOL0     H40452   2.500   8.613   4.924  0.1332  2.4404 -1.0107
  300MOL0     H40453   2.376   8.694   4.851  4.2124 -0.8109 -1.9022
  300MOL0     H40454   2.212   8.522   4.994  0.7048 -3.2123  2.7444
  300MOL0     H40455   2.333   8.512   5.106 -1.5379  0.1118  1.0092
  300MOL0     H40456   2.162   8.670   5.158  0.7969  1.0508  0.9782
  300MOL0     H40457   2.220   8.767   5.018  0.9417  1.0372  0.8697
  300MOL0     H40458   2.303   8.829   5.265  2.2470  1.7999  1.0066
  300MOL0     H40459   2.413   8.836   5.119 -0.0608  0.9240  1.5381
  300MOL0     H40460   2.570   8.934   5.223 -2.8479 -1.4630  0.2748
  300MOL0     H40461   2.688   9.071   5.406  1.9006 -0.9685 -0.1907
  300MOL0     H40462   3.021   8.937   5.766 -0.2579  0.5835  0.0484
  300MOL0     H40463   3.189   9.044   5.938 -1.2890 -0.0663  0.7543
  300MOL0     H40464   3.183   9.507   5.947  1.1840  1.8990  1.7595
  300MOL0     H40465   3.130   9.425   6.107 -0.5009 -0.2946  0.5133
  300MOL0     H40466   3.311   9.553   6.187 -2.6676 -3.2685  2.4441
  300MOL0     H40467   3.371   9.392   6.154  2.6294  0.1735 -0.4103
  300MOL0     H40468   3.475   9.481   5.931  1.4020  0.3691  1.4359
  300MOL0     H40469   3.398   9.638   5.975 -1.1320 -0.2799 -0.4342
  300MOL0     H40470   3.596   9.474   6.134 -0.0814  0.5296  3.0918
  300MOL0     H40471   3.533   9.607   6.199 -0.5484  1.1904  0.0485
  300MOL0     H40472   3.630   9.759   6.019  1.4036  0.6931  1.0499
  300MOL0     H40473   3.678   9.616   5.922 -3.2245 -3.6401  1.2012
  300MOL0     H40474   3.802   9.767   6.142  2.2266  1.6698  0.0752
  300MOL0     H40475   3.818   9.591   6.168 -2.5203  2.3534  1.4622
  300MOL0     H40476   3.894   9.700   5.891 -2.1000 -2.2055 -0.9119
  300MOL0     H40477   3.924   9.544   5.975  0.1315  0.2974  1.9904
  300MOL0     H40478   4.050   9.661   6.151 -1.9681  3.6025  1.2059
  300MOL0     H40479   4.126   9.644   5.978  1.1591  2.8819 -1.0942
  300MOL0     H40480   3.030   9.429   5.819  1.2396  0.9696  0.3900
  300MOL0     H40481   2.884   9.325   5.671 -0.5595 -0.1750 -0.3852
  300MOL0     H40482   2.688   8.719   5.645 -1.8682 -3.4170  0.4797
  300MOL0     H40483   2.537   8.592   5.496 -1.8486 -0.6682 -2.7719
  300MOL0     H40484   1.831   7.406   4.320  0.2472 -1.4539  1.2653
  300MOL0     H40485   1.656   7.311   4.202  2.4045  1.4844 -0.5849
  300MOL0     H40486   1.282   7.022   4.116  2.2191  2.4907  1.5615
  300MOL0     H40487   1.117   6.966   3.963  0.8493  0.2410  0.9625
  300MOL0     H40488   1.179   7.199   3.647  0.8777  0.7297  0.2954
  300MOL0     H40489   1.021   7.194   3.570  1.5040  0.3539 -0.7441
  300MOL0     H40490   1.011   6.943   3.591 -2.3624  1.6822  2.0738
  300MOL0     H40491   1.158   6.944   3.674  1.2081  1.4420 -0.3745
  300MOL0     H40492   1.232   6.916   3.461  1.2887  1.2138 -1.4514
  300MOL0     H40493   1.278   7.074   3.494  1.3780 -0.4295 -1.5251
  300MOL0     H40494   1.005   7.061   3.386 -0.2762 -0.6619  0.4714
  300MOL0     H40495   1.125   7.109   3.276 -6.1664  0.0913 -2.2083
  300MOL0     H40496   1.018   6.695   3.218 -2.4367  0.2550 -0.6353
  300MOL0     H40497   1.101   7.375   3.833 -2.0749 -1.3797  0.1505
  300MOL0     H40498   1.247   7.538   3.932 -0.3299  1.0423  1.2215
  300MOL0     H40499   1.236   7.518   4.099 -2.3435  1.8254 -2.4648
  300MOL0     H40500   1.394   7.503   4.021  0.2378  1.1757  1.3319
  301MOL0     O40501   2.285   8.515   9.517  0.3174  0.2885 -0.2616
  301MOL0     C40502   2.374   8.530   9.599 -0.1276  0.4756  0.8415
  301MOL0     O40503   2.507   8.556   9.571 -0.1562 -0.2631 -0.4250
  301MOL0     C40504   2.540   8.567   9.443  0.3398  0.5965 -1.0285
  301MOL0     C40505   2.559   8.451   9.356  0.3102 -0.3383 -0.1494
  301MOL0     C40506   2.586   8.477   9.220  0.6999  0.2174 -0.2816
  301MOL0     C40507   2.589   8.607   9.177 -0.6369  0.6364 -0.2980
  301MOL0     O40508   2.613   8.620   9.041  0.7557 -0.0654 -0.2856
  301MOL0     C40509   2.650   8.755   8.995  0.3950 -0.3475 -0.6729
  301MOL0     C40510   2.738   8.749   8.862  0.4765 -0.1650 -0.5894
  301MOL0     C40511   2.833   8.874   8.852  0.4861 -0.0514 -0.3035
  301MOL0     C40512   2.893   8.890   8.709 -0.0134 -0.0356  0.1239
  301MOL0     C40513   3.005   8.995   8.717 -0.1966  0.3450 -0.6215
  301MOL0     C40514   3.113   8.982   8.610  0.5316  0.0896 -0.7511
  301MOL0     C40515   3.215   9.096   8.625  0.4094 -0.3596 -0.7039
  301MOL0     C40516   3.324   9.072   8.526 -0.9456  0.0926  0.8209
  301MOL0     N40517   3.437   9.154   8.574  0.6975 -0.3326  0.1171
  301MOL0     C40518   3.538   9.111   8.649  0.3075  0.0777 -0.8171
  301MOL0     C40519   3.610   9.219   8.672 -1.2544 -0.5340  0.2996
  301MOL0     C40520   3.748   9.235   8.748  0.1457  0.0577 -0.0573
  301MOL0     C40521   3.713   9.262   8.898  0.1939 -0.6965  0.7385
  301MOL0     C40522   3.839   9.237   8.982  1.4953  0.0991 -1.4403
  301MOL0     C40523   3.953   9.334   8.957 -0.0220 -0.3323 -0.3000
  301MOL0     O40524   4.069   9.275   8.993 -1.0563 -0.1135 -0.6988
  301MOL0     C40525   4.182   9.363   9.019  1.0458  0.2715 -1.0087
  301MOL0     C40526   4.220   9.412   9.143 -0.1472  1.0661 -0.6813
  301MOL0     C40527   4.334   9.486   9.158  0.5737 -0.4428 -0.7184
  301MOL0     C40528   4.420   9.512   9.049  0.5150  0.0886 -0.0437
  301MOL0     C40529   4.548   9.601   9.057  0.6067  0.0300 -0.2421
  301MOL0     O40530   4.641   9.584   8.958 -0.2433  0.0085 -0.1969
  301MOL0     C40531   4.737   9.677   8.973 -0.6314 -0.0582 -0.2743
  301MOL0     C40532   4.837   9.634   9.067  0.0871  0.7755  1.5539
  301MOL0     C40533   4.952   9.719   9.084  0.4976 -0.5967 -0.4889
  301MOL0     C40534   4.955   9.849   9.023 -0.6648  0.5711 -1.5635
  301MOL0     O40535   5.062   9.945   9.043 -0.3468 -0.3885 -0.2577
  301MOL0     C40536   5.102   9.993   9.173  0.1728  0.7845  0.0697
  301MOL0     C40537   5.165  10.142   9.172  0.1590 -0.2329 -0.3716
  301MOL0     C40538   5.277  10.161   9.070 -0.2922 -0.2896 -0.0783
  301MOL0     C40539   5.390  10.063   9.106  0.5773  0.0778  0.6976
  301MOL0     C40540   5.502  10.085   9.007  0.0482  0.3799  1.1682
  301MOL0     C40541   5.642  10.048   9.059 -0.3171  0.1951 -0.9827
  301MOL0     C40542   5.697  10.141   9.159 -0.2091 -0.9744  0.7205
  301MOL0     C40543   5.836  10.164   9.133  0.4672 -0.4524 -0.8414
  301MOL0    Cl40544   5.910  10.302   9.221 -0.2224 -0.0388  0.1921
  301MOL0     C40545   4.864   9.882   8.929  0.2736  0.5561  0.8357
  301MOL0     C40546   4.755   9.799   8.899 -0.3803 -0.2664 -0.0236
  301MOL0     O40547   4.551   9.678   9.157 -0.3697  0.0411 -0.4164
  301MOL0     C40548   4.378   9.458   8.918 -0.4784  0.2555  0.3732
  301MOL0     C40549   4.262   9.370   8.905 -0.3263 -0.0210 -0.2354
  301MOL0     N40550   3.549   9.325   8.616 -0.3552 -0.1300 -0.1527
  301MOL0     N40551   3.445   9.292   8.545  0.2439  0.0865 -0.2186
  301MOL0     C40552   2.562   8.718   9.264  0.4632 -1.0308  0.6918
  301MOL0     C40553   2.538   8.696   9.399  0.4749  0.2097  0.0802
  301MOL0     C40554   2.339   8.515   9.747 -0.0418 -0.3490 -0.3252
  301MOL0     C40555   2.448   8.509   9.840  1.0852  0.1316  0.4749
  301MOL0     C40556   2.420   8.488   9.976  0.3294  0.6491  0.2609
  301MOL0     C40557   2.291   8.481  10.025  0.4785 -0.0994 -0.7643
  301MOL0     O40558   2.268   8.434  10.154 -0.2664  0.0455  0.1643
  301MOL0     C40559   2.308   8.296  10.180 -0.0155  0.2100 -0.3243
  301MOL0     C40560   2.284   8.257  10.322  0.3331  0.6040 -0.2451
  301MOL0     C40561   2.127   8.258  10.356 -0.4557  0.4011 -0.0315
  301MOL0     C40562   2.091   8.253  10.505  0.4047  0.2150 -0.4010
  301MOL0     C40563   2.155   8.132  10.563 -0.3068  0.5768 -0.0484
  301MOL0     C40564   2.227   8.042  10.616 -0.1946  0.3623  0.2752
  301MOL0     C40565   2.184   8.515   9.947  0.0642 -0.7280  1.1597
  301MOL0     C40566   2.206   8.523   9.806  0.2970 -0.2064  1.4116
  301MOL0     C40567   2.079   8.540   9.714  0.3905  0.5629 -0.3160
  301MOL0     H40568   2.551   8.349   9.391 -1.2446  0.7320  3.0532
  301MOL0     H40569   2.594   8.396   9.148  0.7774  2.4517 -2.9464
  301MOL0     H40570   2.560   8.816   8.981  1.0088  0.5830 -0.6427
  301MOL0     H40571   2.716   8.803   9.068  3.5304 -1.3564 -2.6379
  301MOL0     H40572   2.674   8.756   8.773 -1.8623  0.4202  1.0476
  301MOL0     H40573   2.791   8.654   8.872 -1.6841 -1.4426 -0.7051
  301MOL0     H40574   2.916   8.867   8.923  0.4467  3.9260  0.3803
  301MOL0     H40575   2.784   8.967   8.883  1.1887 -0.5036  2.4243
  301MOL0     H40576   2.921   8.787   8.688  1.4087  0.3805 -0.1347
  301MOL0     H40577   2.814   8.920   8.639 -0.2472  0.7741  0.7185
  301MOL0     H40578   2.948   9.088   8.708 -1.8849 -0.3811  1.8023
  301MOL0     H40579   3.052   8.997   8.815 -2.8467  2.5967  0.7532
  301MOL0     H40580   3.166   8.888   8.627 -0.8726 -0.2527  2.5281
  301MOL0     H40581   3.054   8.976   8.518  3.6595 -2.6677 -2.7823
  301MOL0     H40582   3.252   9.112   8.727  3.5428  0.1790 -1.7926
  301MOL0     H40583   3.170   9.194   8.608  1.5723 -0.0155 -1.9597
  301MOL0     H40584   3.351   8.967   8.510 -2.1341 -0.2503  0.9078
  301MOL0     H40585   3.306   9.109   8.424  2.7237 -1.4831 -0.5578
  301MOL0     H40586   3.550   9.007   8.676 -0.0613 -0.1092 -1.3612
  301MOL0     H40587   3.801   9.139   8.743  0.7558  0.3010  1.4846
  301MOL0     H40588   3.798   9.314   8.692 -2.7780  3.5567  1.9111
  301MOL0     H40589   3.666   9.360   8.906  0.1900 -0.4913 -1.2524
  301MOL0     H40590   3.643   9.181   8.920  0.9861 -2.3713 -2.3915
  301MOL0     H40591   3.866   9.131   8.980  0.8100 -0.1399  0.5887
  301MOL0     H40592   3.786   9.258   9.075 -1.8355  0.0958 -3.1746
  301MOL0     H40593   3.946   9.433   9.002 -0.6113 -1.9341  3.4501
  301MOL0     H40594   3.964   9.360   8.851  0.1007  1.1466  0.0454
  301MOL0     H40595   4.152   9.385   9.223 -0.0985  0.4559 -0.8400
  301MOL0     H40596   4.359   9.532   9.253  1.7285  1.3428 -1.8244
  301MOL0     H40597   4.829   9.537   9.115  0.5834 -0.6202 -1.0513
  301MOL0     H40598   5.026   9.700   9.161  0.4636 -0.4438 -0.4178
  301MOL0     H40599   5.010   9.996   9.233 -1.0720  0.4744 -1.7517
  301MOL0     H40600   5.182   9.938   9.224 -0.5283  0.4104  0.7853
  301MOL0     H40601   5.084  10.211   9.145  0.6500 -1.0023 -4.5278
  301MOL0     H40602   5.204  10.174   9.268 -1.0086 -0.2503  0.1295
  301MOL0     H40603   5.245  10.130   8.970 -2.6862  0.5532  0.3778
  301MOL0     H40604   5.301  10.267   9.064  0.9205 -0.5471 -0.0494
  301MOL0     H40605   5.360   9.959   9.091  3.3181 -0.8916  1.4033
  301MOL0     H40606   5.413  10.092   9.209  1.6224  1.9873 -0.0299
  301MOL0     H40607   5.493  10.188   8.971  0.0192 -0.1153 -0.2821
  301MOL0     H40608   5.495  10.018   8.921  3.0427  1.5832 -0.1585
  301MOL0     H40609   5.641   9.951   9.111 -0.6143  1.6755  2.0220
  301MOL0     H40610   5.713  10.040   8.977  1.1473 -1.9322  0.3856
  301MOL0     H40611   5.686  10.101   9.260  0.4212 -2.3762  0.2648
  301MOL0     H40612   5.649  10.239   9.163  2.8125  0.6003  1.8975
  301MOL0     H40613   5.887  10.068   9.147 -0.7784 -1.0163 -0.0243
  301MOL0     H40614   5.863  10.189   9.030  2.3397  2.1290  0.1382
  301MOL0     H40615   4.877   9.972   8.869 -0.1261 -0.8613 -1.5231
  301MOL0     H40616   4.677   9.829   8.830 -1.4384  0.1610  1.3264
  301MOL0     H40617   4.428   9.472   8.823  1.0769 -0.4322  1.0528
  301MOL0     H40618   4.237   9.316   8.815  2.0300 -2.7134  0.5799
  301MOL0     H40619   2.558   8.818   9.223  3.9052 -1.2127 -0.3805
  301MOL0     H40620   2.489   8.782   9.444 -3.8669 -2.4955  1.0878
  301MOL0     H40621   2.554   8.510   9.817  1.1122  1.3486  0.5926
  301MOL0     H40622   2.509   8.480  10.037  1.0551  3.0095 -0.3992
  301MOL0     H40623   2.416   8.292  10.161  0.5085  3.7992  1.0617
  301MOL0     H40624   2.263   8.227  10.109 -0.1549 -3.1167  2.7213
  301MOL0     H40625   2.327   8.340  10.378 -1.0899  0.8505  0.5204
  301MOL0     H40626   2.335   8.163  10.346  0.5083  0.5565 -0.8062
  301MOL0     H40627   2.078   8.181  10.295  1.1507 -0.2908 -0.5129
  301MOL0     H40628   2.097   8.356  10.320  2.1132  0.3767 -2.6167
  301MOL0     H40629   2.124   8.343  10.558 -0.1340 -0.8265  1.8422
  301MOL0     H40630   1.983   8.246  10.526  0.6520 -2.2594  0.3932
  301MOL0     H40631   2.278   7.962  10.664  0.1373 -0.9000 -2.0588
  301MOL0     H40632   2.082   8.506   9.982  0.0200  0.5625  1.4102
  301MOL0     H40633   1.994   8.574   9.774  1.1619  0.2747  0.9789
  301MOL0     H40634   2.085   8.618   9.638  0.7861  1.4582  0.6072
  301MOL0     H40635   2.046   8.450   9.660 -1.1377  1.4624 -0.9378
  302MOL0     O40636   0.503   5.931  10.954  0.3553  0.3988 -0.7889
  302MOL0     C40637   0.462   6.047  10.963 -0.1519  0.1015  0.0384
  302MOL0     O40638   0.475   6.121  11.079 -0.7088  0.5863 -0.0375
  302MOL0     C40639   0.564   6.088  11.181  0.8048  0.4304  0.3324
  302MOL0     C40640   0.545   6.164  11.289 -0.3046 -0.1996 -0.4171
  302MOL0     C40641   0.633   6.154  11.396  0.4030 -0.8782 -1.3862
  302MOL0     C40642   0.732   6.059  11.403  0.1834  0.8036 -0.6553
  302MOL0     O40643   0.807   6.060  11.523  0.3187 -0.1721  0.2571
  302MOL0     C40644   0.847   5.925  11.575 -0.4624  0.4997  0.5945
  302MOL0     C40645   0.910   5.935  11.719 -0.4636 -0.0374 -0.9260
  302MOL0     C40646   1.045   5.993  11.709 -0.1626 -0.0528 -0.0172
  302MOL0     C40647   1.119   5.997  11.841  0.0488 -0.7798  0.0805
  302MOL0     C40648   1.273   5.985  11.826  0.3983  0.9448 -0.3861
  302MOL0     C40649   1.339   6.016  11.960 -0.1587 -0.4822  0.1036
  302MOL0     C40650   1.305   5.934  12.086  0.8523 -1.0873 -0.1609
  302MOL0     C40651   1.332   5.781  12.062 -0.0609  1.5765 -0.1906
  302MOL0     N40652   1.475   5.761  12.030  0.8658  0.5385 -0.1126
  302MOL0     C40653   1.569   5.734  12.127  0.0410 -1.0512  0.2929
  302MOL0     C40654   1.682   5.716  12.059  0.0335  0.2643  0.3674
  302MOL0     C40655   1.822   5.686  12.110 -0.8064 -0.5079  0.4103
  302MOL0     C40656   1.895   5.559  12.055 -0.2956 -0.1429 -0.1942
  302MOL0     C40657   2.044   5.549  12.070  0.3628 -0.6807  0.0978
  302MOL0     C40658   2.089   5.442  11.969  0.9817 -0.2028 -0.5113
  302MOL0     O40659   2.214   5.393  12.001 -0.3248 -0.1506  0.5487
  302MOL0     C40660   2.286   5.319  11.906  0.5158 -0.3740 -0.9595
  302MOL0     C40661   2.234   5.260  11.798  0.3336  0.9625  0.2481
  302MOL0     C40662   2.315   5.167  11.724  0.8140  0.9559  0.0778
  302MOL0     C40663   2.449   5.161  11.738 -0.3284 -1.1838 -0.9358
  302MOL0     C40664   2.537   5.090  11.631 -0.2316 -0.3490 -0.3933
  302MOL0     O40665   2.673   5.094  11.650  0.4860  0.1721  0.4850
  302MOL0     C40666   2.764   5.067  11.548  0.2063  0.3931  0.0294
  302MOL0     C40667   2.861   4.974  11.570  0.5766  0.1515 -0.7088
  302MOL0     C40668   2.967   4.950  11.487  0.3133  0.1814  0.4047
  302MOL0     C40669   2.974   5.031  11.368  0.1286 -0.0442  1.1205
  302MOL0     O40670   3.084   5.011  11.289 -0.0358  0.3787  0.0111
  302MOL0     C40671   3.071   4.961  11.158 -0.1123  0.2883 -0.6854
  302MOL0     C40672   3.218   4.955  11.115  0.0488  0.0300 -0.1865
  302MOL0     C40673   3.238   4.881  10.979 -0.6819  0.6127  0.1852
  302MOL0     C40674   3.385   4.874  10.931  0.8664 -0.3726  0.4383
  302MOL0     C40675   3.483   5.003  10.934  0.0450 -0.4767 -0.3818
  302MOL0     C40676   3.483   5.067  10.799  0.9560 -0.2821 -0.8645
  302MOL0     C40677   3.354   5.157  10.778 -0.5624 -0.2077  0.6886
  302MOL0     C40678   3.389   5.225  10.644 -0.2337  0.9577  0.4945
  302MOL0    Cl40679   3.275   5.320  10.568  0.1915 -0.5222 -0.3471
  302MOL0     C40680   2.867   5.120  11.347  0.2617 -0.6283  0.6644
  302MOL0     C40681   2.778   5.149  11.441  1.1991  0.7000  0.4376
  302MOL0     O40682   2.476   5.046  11.531  0.5741 -0.6716  0.2787
  302MOL0     C40683   2.507   5.223  11.853  0.3628 -0.2811 -0.7920
  302MOL0     C40684   2.416   5.300  11.939 -0.8270 -0.1732  0.2232
  302MOL0     N40685   1.652   5.727  11.919 -1.1214 -0.3709 -0.8947
  302MOL0     N40686   1.529   5.757  11.904 -0.8021  0.6275 -0.8140
  302MOL0     C40687   0.756   5.986  11.291 -0.5083  0.3821 -0.1696
  302MOL0     C40688   0.677   5.997  11.180  0.4665 -0.3875 -0.8253
  302MOL0     C40689   0.403   6.126  10.850  0.3750  0.4831 -0.4178
  302MOL0     C40690   0.377   6.270  10.866  0.4098  0.4068 -0.2457
  302MOL0     C40691   0.313   6.349  10.763 -0.8866 -0.5735 -0.1325
  302MOL0     C40692   0.272   6.288  10.649  0.6958 -0.9636 -0.7748
  302MOL0     O40693   0.205   6.354  10.552  0.3416 -0.2867 -0.1233
  302MOL0     C40694   0.240   6.489  10.509  1.4731  0.5392 -1.4620
  302MOL0     C40695   0.113   6.576  10.481  0.1608 -0.3281  0.5094
  302MOL0     C40696   0.008   6.511  10.390  0.5459  0.6927 -0.0076
  302MOL0     C40697   0.061   6.492  10.242  1.2189 -0.2844 -0.6089
  302MOL0     C40698  -0.060   6.497  10.156  0.4660 -0.5832  0.2047
  302MOL0     C40699  -0.174   6.510  10.103 -0.8438 -0.4652  1.0598
  302MOL0     C40700   0.293   6.153  10.633  0.0741 -0.3718 -0.1026
  302MOL0     C40701   0.352   6.076  10.724 -0.8888 -0.1417 -0.5521
  302MOL0     C40702   0.371   5.932  10.689 -0.0828 -0.0978 -0.8944
  302MOL0     H40703   0.467   6.238  11.302 -0.6780 -0.6950  0.2411
  302MOL0     H40704   0.626   6.223  11.479  0.1478 -2.2946 -0.1778
  302MOL0     H40705   0.751   5.873  11.577 -0.4931  0.4740 -0.7454
  302MOL0     H40706   0.918   5.872  11.511  1.4622 -0.1220  3.0747
  302MOL0     H40707   0.922   5.830  11.748  0.8406 -0.0244 -1.3340
  302MOL0     H40708   0.851   5.992  11.791  0.2379  1.4542 -1.4830
  302MOL0     H40709   1.044   6.099  11.679 -2.0547  1.8090  5.4453
  302MOL0     H40710   1.105   5.931  11.642  0.7863 -0.7373  1.4285
  302MOL0     H40711   1.091   6.090  11.892  1.3387  0.1687 -0.8632
  302MOL0     H40712   1.085   5.916  11.906 -2.3074  1.6369  2.1378
  302MOL0     H40713   1.287   5.878  11.805 -4.2451  0.1581 -0.4377
  302MOL0     H40714   1.310   6.032  11.734 -0.8503 -1.6020 -2.3450
  302MOL0     H40715   1.446   5.999  11.946 -0.1645 -3.3811  2.4376
  302MOL0     H40716   1.323   6.122  11.978 -4.5767 -0.7231 -1.2990
  302MOL0     H40717   1.203   5.959  12.116  0.2064 -2.5223 -1.0276
  302MOL0     H40718   1.366   5.964  12.171  0.3190  0.2381 -0.2211
  302MOL0     H40719   1.311   5.728  12.156 -0.2869  1.7604 -0.1347
  302MOL0     H40720   1.274   5.752  11.974  0.5696  2.5035 -0.9307
  302MOL0     H40721   1.553   5.720  12.233  2.9183  1.1607  1.1405
  302MOL0     H40722   1.876   5.777  12.080 -2.0885 -0.1673 -0.9539
  302MOL0     H40723   1.830   5.680  12.219  0.7571  0.6991  0.4036
  302MOL0     H40724   1.846   5.475  12.104  0.5604 -0.5328 -0.0046
  302MOL0     H40725   1.867   5.556  11.949 -1.0085 -0.2038 -0.0131
  302MOL0     H40726   2.071   5.523  12.173 -0.0691 -1.1137  0.1102
  302MOL0     H40727   2.089   5.643  12.038 -3.1134 -0.2754 -4.6050
  302MOL0     H40728   2.078   5.470  11.864  1.6937 -1.4938 -0.9520
  302MOL0     H40729   2.020   5.358  11.978  0.9217  0.0391  1.7999
  302MOL0     H40730   2.134   5.291  11.767  0.5936 -0.2573 -2.0923
  302MOL0     H40731   2.277   5.117  11.635  2.4550  1.0084 -0.6786
  302MOL0     H40732   2.846   4.897  11.645 -3.2116  0.5156 -0.9026
  302MOL0     H40733   3.041   4.876  11.514 -2.9070 -2.2078  3.7721
  302MOL0     H40734   3.033   4.858  11.163  2.5057 -0.7214  0.6779
  302MOL0     H40735   3.012   5.021  11.089  1.9116 -0.3073 -3.0931
  302MOL0     H40736   3.264   5.054  11.115  0.1323 -0.0080 -0.6766
  302MOL0     H40737   3.275   4.892  11.184  0.1968  4.0428  3.7775
  302MOL0     H40738   3.203   4.778  10.974  0.3087  0.2275  0.9335
  302MOL0     H40739   3.178   4.937  10.906 -0.7023  2.0216  1.2318
  302MOL0     H40740   3.388   4.833  10.829  1.7875  0.4607  0.1133
  302MOL0     H40741   3.432   4.791  10.985 -1.7124 -0.1659  3.2070
  302MOL0     H40742   3.582   4.964  10.958 -0.0675 -0.3127  0.3681
  302MOL0     H40743   3.450   5.072  11.012 -1.5972 -1.0569 -0.5398
  302MOL0     H40744   3.567   5.136  10.787  1.3911 -0.6721 -0.1589
  302MOL0     H40745   3.478   4.987  10.724 -1.7334 -0.1003 -0.9901
  302MOL0     H40746   3.350   5.232  10.858 -0.9617  2.1494 -1.3880
  302MOL0     H40747   3.262   5.101  10.764  0.8514 -2.1085 -1.8043
  302MOL0     H40748   3.483   5.280  10.645 -0.6408  1.7540  3.5578
  302MOL0     H40749   3.410   5.141  10.577 -0.1957  1.4612 -0.1459
  302MOL0     H40750   2.856   5.162  11.248 -0.3408 -2.5333 -0.1185
  302MOL0     H40751   2.708   5.230  11.421  0.3485 -0.3836 -1.2009
  302MOL0     H40752   2.611   5.215  11.882  0.3108  1.0580 -0.1416
  302MOL0     H40753   2.460   5.333  12.032  3.1254 -3.2750 -0.3002
  302MOL0     H40754   0.838   5.916  11.278 -0.3111  0.7627 -1.0361
  302MOL0     H40755   0.704   5.943  11.090 -0.9427 -2.7561  0.0799
  302MOL0     H40756   0.415   6.319  10.956 -1.5606  2.2845 -0.3507
  302MOL0     H40757   0.304   6.456  10.780  0.1718 -0.5488  0.3070
  302MOL0     H40758   0.303   6.490  10.420  3.0216 -1.1313 -0.4468
  302MOL0     H40759   0.304   6.542  10.581  0.8616  1.7721 -1.7999
  302MOL0     H40760   0.129   6.671  10.430  0.1987 -0.0592  1.0162
  302MOL0     H40761   0.069   6.591  10.580  1.3783 -0.8288  1.1565
  302MOL0     H40762  -0.086   6.568  10.386 -0.7677 -1.3282  0.3900
  302MOL0     H40763  -0.028   6.415  10.429  0.4484  0.8893  0.3883
  302MOL0     H40764   0.126   6.574  10.212 -0.5789  0.8305 -1.6831
  302MOL0     H40765   0.108   6.394  10.228  0.7260 -0.5673 -0.3222
  302MOL0     H40766  -0.272   6.531  10.066 -1.3363 -0.1538  2.4754
  302MOL0     H40767   0.251   6.108  10.544 -0.9573  0.8927 -0.2954
  302MOL0     H40768   0.478   5.915  10.671 -0.2113 -2.3993  0.1367
  302MOL0     H40769   0.346   5.864  10.771 -1.4734  0.3730 -0.9094
  302MOL0     H40770   0.310   5.899  10.605  1.4333  0.5314 -2.3118
  303MOL0     O40771   7.009  10.801   6.667  0.5798  0.5170  0.5722
  303MOL0     C40772   7.025  10.792   6.789  0.2423  0.0662  0.9086
  303MOL0     O40773   7.024  10.898   6.874 -0.0115  0.6340  0.5142
  303MOL0     C40774   7.033  11.034   6.850 -0.2091  0.4456  1.1604
  303MOL0     C40775   7.021  11.097   6.725 -0.3283  0.7532  0.3926
  303MOL0     C40776   7.037  11.237   6.712  0.0280 -0.0240  0.5943
  303MOL0     C40777   7.054  11.313   6.822  0.6765  0.1548 -0.0716
  303MOL0     O40778   7.051  11.445   6.783  0.2987 -0.1082 -0.1334
  303MOL0     C40779   7.095  11.534   6.880 -0.1847 -0.1109  0.3608
  303MOL0     C40780   7.148  11.651   6.811 -0.7156 -1.0805  0.1509
  303MOL0     C40781   7.053  11.709   6.700  0.5364 -0.3543 -0.8674
  303MOL0     C40782   7.076  11.646   6.559  0.9136 -1.2071 -0.2650
  303MOL0     C40783   7.000  11.733   6.448 -0.3662  0.2492 -0.6041
  303MOL0     C40784   6.859  11.762   6.453  0.5807  0.2679 -0.0635
  303MOL0     C40785   6.768  11.631   6.471  0.8322 -0.6091  0.9971
  303MOL0     C40786   6.640  11.659   6.547 -0.2330 -1.4362 -0.3501
  303MOL0     N40787   6.547  11.775   6.520 -0.5683  0.7003  0.0698
  303MOL0     C40788   6.531  11.837   6.404 -0.0176  0.2534  0.6053
  303MOL0     C40789   6.426  11.931   6.416 -0.4122  0.4331  0.2862
  303MOL0     C40790   6.367  12.029   6.312  0.0432  0.0188 -0.4930
  303MOL0     C40791   6.259  11.951   6.243 -0.5790 -0.2046  1.0547
  303MOL0     C40792   6.131  11.950   6.326  0.0217  0.2213  0.9599
  303MOL0     C40793   6.018  11.883   6.239 -0.1051  0.8461  0.4722
  303MOL0     O40794   5.968  11.970   6.138  0.0179 -0.4308 -0.6327
  303MOL0     C40795   5.858  11.933   6.061  0.2382 -0.5393  0.7310
  303MOL0     C40796   5.771  11.826   6.087  0.0470 -0.1460 -0.1280
  303MOL0     C40797   5.655  11.804   6.015  0.4260 -0.0972 -0.1298
  303MOL0     C40798   5.615  11.898   5.919 -0.4338  1.1182 -0.1779
  303MOL0     C40799   5.493  11.887   5.843 -0.3431 -0.1433  0.6730
  303MOL0     O40800   5.429  12.003   5.798 -0.9043 -0.9324  0.0996
  303MOL0     C40801   5.310  12.015   5.721 -0.6368 -0.0156 -0.1689
  303MOL0     C40802   5.200  11.939   5.762 -0.0293 -0.0510 -0.0380
  303MOL0     C40803   5.077  11.966   5.705 -0.0154 -0.1719  0.2967
  303MOL0     C40804   5.071  12.062   5.601 -0.5392 -0.4999 -0.0745
  303MOL0     O40805   4.949  12.100   5.543 -0.0026  0.7250  0.1870
  303MOL0     C40806   4.922  12.244   5.556  0.1808  0.9084 -0.4955
  303MOL0     C40807   4.775  12.266   5.583 -0.0330  0.0062 -0.1415
  303MOL0     C40808   4.748  12.211   5.727  0.4529 -0.7118  0.0714
  303MOL0     C40809   4.599  12.216   5.752  0.0776  0.5950 -0.9196
  303MOL0     C40810   4.570  12.179   5.905  0.2030 -0.0239  0.9081
  303MOL0     C40811   4.599  12.303   5.994  0.2340 -0.2396 -0.3039
  303MOL0     C40812   4.540  12.265   6.129  0.0047 -0.5594 -0.7329
  303MOL0     C40813   4.590  12.383   6.226 -0.3292  0.9645 -0.2915
  303MOL0    Cl40814   4.482  12.522   6.219  0.2218 -0.0133  0.0864
  303MOL0     C40815   5.187  12.134   5.557  0.7797 -0.4173 -0.4387
  303MOL0     C40816   5.301  12.113   5.620 -0.6238 -0.9945 -0.8287
  303MOL0     O40817   5.440  11.774   5.837  0.9724 -0.2202 -0.9064
  303MOL0     C40818   5.702  12.000   5.883  1.0593 -0.0589  0.2079
  303MOL0     C40819   5.818  12.027   5.964  0.3405 -0.5124  0.0289
  303MOL0     N40820   6.392  11.928   6.549 -0.0260  0.0302  0.6415
  303MOL0     N40821   6.464  11.838   6.610 -0.5954 -0.8330  0.0676
  303MOL0     C40822   7.067  11.256   6.954 -0.9794 -0.5801  0.6401
  303MOL0     C40823   7.054  11.118   6.962 -0.1106 -0.6058 -0.8143
  303MOL0     C40824   7.017  10.668   6.848  0.0381 -0.0137 -0.8501
  303MOL0     C40825   6.964  10.664   6.981 -0.2861  0.4003 -0.7918
  303MOL0     C40826   6.957  10.543   7.043  0.5149 -0.0316  0.5091
  303MOL0     C40827   7.005  10.426   6.990  0.2984 -0.6157 -0.2715
  303MOL0     O40828   6.990  10.323   7.072 -0.1041 -0.3514 -0.3878
  303MOL0     C40829   7.069  10.205   7.053 -0.7934 -0.2563 -0.0550
  303MOL0     C40830   7.044  10.103   7.177 -0.2157  0.1721  0.2835
  303MOL0     C40831   7.133  10.149   7.294 -0.2032 -0.0475  0.2139
  303MOL0     C40832   7.154  10.047   7.401  0.4554 -1.0652 -0.1089
  303MOL0     C40833   7.043  10.060   7.505  1.4579 -0.3293  0.3593
  303MOL0     C40834   6.952  10.063   7.594  0.8041  0.6628 -0.0298
  303MOL0     C40835   7.060  10.417   6.865  0.8235  0.0511 -0.7772
  303MOL0     C40836   7.061  10.544   6.793  0.9183  0.6029  0.4864
  303MOL0     C40837   7.148  10.532   6.673 -0.6743  0.3059 -0.2118
  303MOL0     H40838   6.995  11.047   6.632 -0.2191 -1.4758  1.4968
  303MOL0     H40839   7.024  11.291   6.618 -2.6779 -2.8009 -0.7990
  303MOL0     H40840   7.014  11.565   6.947 -1.6959  0.9201 -1.8122
  303MOL0     H40841   7.181  11.492   6.932  0.2370  1.0227  0.5973
  303MOL0     H40842   7.246  11.625   6.769  0.6364  0.1895  2.3588
  303MOL0     H40843   7.160  11.736   6.877 -1.2273 -0.8314 -0.0702
  303MOL0     H40844   7.085  11.813   6.683 -1.0119 -0.0603 -2.3116
  303MOL0     H40845   6.948  11.700   6.729  0.2297  0.9001 -1.5057
  303MOL0     H40846   7.182  11.650   6.534  0.3080 -0.7308 -3.1276
  303MOL0     H40847   7.046  11.541   6.553 -0.5376 -0.7044 -3.8942
  303MOL0     H40848   7.037  11.835   6.433 -1.9714  0.5200 -3.2968
  303MOL0     H40849   7.022  11.675   6.358 -0.6947 -0.2958 -0.3440
  303MOL0     H40850   6.857  11.834   6.536  1.3760  0.2622 -0.0338
  303MOL0     H40851   6.834  11.825   6.367 -0.0412 -1.1817 -0.9819
  303MOL0     H40852   6.825  11.569   6.541  0.4818 -1.2785  0.6906
  303MOL0     H40853   6.758  11.588   6.371 -1.5657 -1.2727  1.4722
  303MOL0     H40854   6.575  11.577   6.515 -0.0438 -1.5890 -0.3522
  303MOL0     H40855   6.659  11.653   6.655 -0.8474  3.4622  0.2227
  303MOL0     H40856   6.570  11.823   6.303 -3.0351 -0.2645 -0.6031
  303MOL0     H40857   6.325  12.112   6.369 -0.6028 -1.1774  0.8065
  303MOL0     H40858   6.440  12.061   6.237 -0.0349 -2.0325 -1.5127
  303MOL0     H40859   6.230  11.993   6.147 -0.1690 -2.1567  0.0183
  303MOL0     H40860   6.304  11.856   6.212  1.9933  1.6409 -1.4797
  303MOL0     H40861   6.113  12.043   6.381  1.4000  0.1579  1.5615
  303MOL0     H40862   6.156  11.867   6.393  2.4288 -2.8163 -3.1863
  303MOL0     H40863   5.938  11.854   6.307 -0.4395  2.9056  1.0324
  303MOL0     H40864   6.053  11.792   6.189 -1.2436  0.6732 -0.0427
  303MOL0     H40865   5.803  11.754   6.162 -0.1512  1.6187  1.7279
  303MOL0     H40866   5.588  11.719   6.029  0.0170 -0.2862 -2.7520
  303MOL0     H40867   5.217  11.868   5.842  1.2132  1.8706  1.4925
  303MOL0     H40868   4.992  11.913   5.746  1.0578 -0.7210  1.8981
  303MOL0     H40869   4.982  12.282   5.639 -1.1349 -2.3562  2.1885
  303MOL0     H40870   4.952  12.298   5.466  0.7779 -0.2494 -1.0031
  303MOL0     H40871   4.754  12.374   5.584 -3.2110 -0.5050  1.8455
  303MOL0     H40872   4.705  12.222   5.512  1.1403  1.6911 -2.4878
  303MOL0     H40873   4.788  12.109   5.736  0.7932 -0.4681  1.6334
  303MOL0     H40874   4.804  12.274   5.796  1.4707  0.4505 -1.7388
  303MOL0     H40875   4.545  12.145   5.689 -0.3330 -2.2895  2.3831
  303MOL0     H40876   4.562  12.316   5.728 -1.1454 -0.0929 -2.0131
  303MOL0     H40877   4.630  12.092   5.935  1.5175  0.4845 -0.1190
  303MOL0     H40878   4.465  12.148   5.907  0.0977  0.2730  0.3375
  303MOL0     H40879   4.706  12.326   6.005  0.2621  0.5062 -1.7797
  303MOL0     H40880   4.542  12.390   5.960  2.8988  1.6826 -0.1719
  303MOL0     H40881   4.584  12.167   6.148 -3.1632 -2.1833 -1.2243
  303MOL0     H40882   4.432  12.254   6.139  0.4106 -3.1553  2.8813
  303MOL0     H40883   4.610  12.344   6.326  0.8163  4.3154  0.9366
  303MOL0     H40884   4.693  12.405   6.197  0.2901 -1.5340 -0.1918
  303MOL0     H40885   5.179  12.229   5.505 -0.5017  1.1911  2.4476
  303MOL0     H40886   5.371  12.195   5.622 -0.5141 -0.9682  3.5793
  303MOL0     H40887   5.691  12.067   5.799  2.2941  1.9180  1.5391
  303MOL0     H40888   5.874  12.114   5.929 -2.3319  1.4792  0.3743
  303MOL0     H40889   7.083  11.316   7.043  1.1363  3.0588 -1.8881
  303MOL0     H40890   7.037  11.084   7.064  0.1000  1.1253 -0.1832
  303MOL0     H40891   6.920  10.748   7.033 -3.1230 -0.5655 -1.4767
  303MOL0     H40892   6.910  10.541   7.141 -2.6222 -0.9164 -0.8933
  303MOL0     H40893   7.173  10.237   7.048 -1.2383  1.3695  0.3646
  303MOL0     H40894   7.032  10.163   6.958 -2.2132  3.5606 -1.4268
  303MOL0     H40895   7.080  10.005   7.147 -0.5269  0.3246 -0.5910
  303MOL0     H40896   6.940  10.099   7.210 -0.5833 -1.8987 -0.9952
  303MOL0     H40897   7.091  10.244   7.328 -0.2437  0.3503 -0.9090
  303MOL0     H40898   7.238  10.157   7.264 -0.0682 -0.5210  0.5428
  303MOL0     H40899   7.154   9.945   7.361  0.1290 -0.8730 -0.6005
  303MOL0     H40900   7.249  10.080   7.444 -0.2436  0.0153  0.6676
  303MOL0     H40901   6.866  10.074   7.656 -2.2177 -0.9107 -3.5450
  303MOL0     H40902   7.095  10.324   6.820  2.8563 -0.7718  2.2418
  303MOL0     H40903   7.086  10.546   6.584 -1.4609 -2.7033 -0.2473
  303MOL0     H40904   7.233  10.600   6.677 -0.8355  0.5535 -0.9119
  303MOL0     H40905   7.196  10.434   6.665  3.5583  2.2843 -1.8408
  304MOL0     O40906   2.378   0.055   3.419  0.9213 -0.4638 -0.1492
  304MOL0     C40907   2.339   0.015   3.312 -0.2452 -0.3660 -0.2877
  304MOL0     O40908   2.324   0.099   3.205  0.2505 -0.0572 -0.0140
  304MOL0     C40909   2.305   0.236   3.206  0.0526 -0.0117 -0.1168
  304MOL0     C40910   2.324   0.303   3.079  0.5490  0.2878  0.7836
  304MOL0     C40911   2.325   0.442   3.062  0.3770  0.2614  0.4442
  304MOL0     C40912   2.317   0.524   3.174 -0.0414  0.2623 -0.5404
  304MOL0     O40913   2.318   0.661   3.162 -0.5074 -0.2512  0.0138
  304MOL0     C40914   2.306   0.729   3.035  0.5151 -0.2559 -0.3398
  304MOL0     C40915   2.316   0.885   3.061 -0.4935  1.0409  0.2915
  304MOL0     C40916   2.433   0.923   3.156 -1.1739 -1.1797  0.2229
  304MOL0     C40917   2.462   1.072   3.142 -0.1053 -0.4319 -0.0362
  304MOL0     C40918   2.585   1.112   3.229  0.8367 -1.4584  0.3436
  304MOL0     C40919   2.726   1.082   3.166 -0.2056  0.4412 -0.7147
  304MOL0     C40920   2.743   1.159   3.036 -0.3253  0.0547  0.0973
  304MOL0     C40921   2.894   1.192   3.017 -0.5690  0.5815 -0.6321
  304MOL0     N40922   2.965   1.094   2.932  0.2907  0.2732  0.2628
  304MOL0     C40923   2.948   0.957   2.936  0.1602  0.3833 -0.9174
  304MOL0     C40924   3.036   0.911   2.842 -0.9429 -0.2591 -0.7696
  304MOL0     C40925   3.058   0.770   2.824  0.3105  0.6153  0.6890
  304MOL0     C40926   2.938   0.707   2.751 -0.8906  0.1877  0.4505
  304MOL0     C40927   2.946   0.558   2.775 -0.5040 -0.7066 -0.0929
  304MOL0     C40928   2.828   0.491   2.700 -0.2937  0.2310 -0.7202
  304MOL0     O40929   2.870   0.467   2.563 -0.1205 -0.1607  0.2729
  304MOL0     C40930   2.955   0.365   2.529 -0.0664 -0.5655  0.4994
  304MOL0     C40931   2.973   0.247   2.602 -0.4294 -0.7477  0.8007
  304MOL0     C40932   3.067   0.153   2.562 -0.5228 -0.1477  0.2305
  304MOL0     C40933   3.134   0.168   2.435  1.3385 -0.1364  1.3379
  304MOL0     C40934   3.242   0.075   2.388  0.3153  0.2417 -0.6659
  304MOL0     O40935   3.312   0.112   2.280  0.9420  0.3512 -0.3410
  304MOL0     C40936   3.410   0.038   2.223  0.8828  0.2974 -0.1970
  304MOL0     C40937   3.535   0.017   2.282  0.2883  0.3847  0.1968
  304MOL0     C40938   3.616  -0.084   2.223 -0.1202 -0.0264 -0.3342
  304MOL0     C40939   3.584  -0.147   2.099  0.6818 -0.5150 -0.3274
  304MOL0     O40940   3.687  -0.217   2.051  0.6762 -0.3512  0.9995
  304MOL0     C40941   3.659  -0.317   1.950  0.7370 -1.0538  0.0907
  304MOL0     C40942   3.619  -0.452   2.007  0.6294  1.2020 -0.3860
  304MOL0     C40943   3.730  -0.534   2.074  0.1211  0.0477 -1.1416
  304MOL0     C40944   3.750  -0.515   2.229  0.1188  0.4069  1.0635
  304MOL0     C40945   3.875  -0.576   2.276 -0.7402  0.4148 -0.0940
  304MOL0     C40946   4.005  -0.506   2.225 -0.6069 -0.3579 -0.6841
  304MOL0     C40947   4.127  -0.511   2.325 -0.2917 -0.0282  0.1343
  304MOL0     C40948   4.210  -0.640   2.312 -0.4884  0.6463  0.2645
  304MOL0    Cl40949   4.127  -0.776   2.390  0.3244  0.4761 -0.2829
  304MOL0     C40950   3.446  -0.135   2.052 -0.0694 -1.1181 -0.1720
  304MOL0     C40951   3.364  -0.045   2.119  0.0094 -0.2665 -0.2784
  304MOL0     O40952   3.260  -0.024   2.461 -0.3213  0.4564  0.0341
  304MOL0     C40953   3.096   0.277   2.351 -0.6309  0.6766 -0.8089
  304MOL0     C40954   3.007   0.373   2.403 -0.7383 -0.0383  1.3397
  304MOL0     N40955   3.098   1.014   2.778 -0.5827 -0.1147 -0.2813
  304MOL0     N40956   3.063   1.124   2.828  0.4173 -0.7037 -0.3221
  304MOL0     C40957   2.288   0.466   3.297  0.8264 -0.0379 -0.0731
  304MOL0     C40958   2.284   0.326   3.322  0.4276 -0.0638  0.0564
  304MOL0     C40959   2.296  -0.123   3.309 -0.5070 -1.2896 -0.1171
  304MOL0     C40960   2.290  -0.172   3.172 -0.5477  0.4762 -0.2875
  304MOL0     C40961   2.257  -0.303   3.142 -0.0728  0.2339 -0.2015
  304MOL0     C40962   2.226  -0.382   3.254 -0.8850 -0.6578  0.2497
  304MOL0     O40963   2.213  -0.513   3.240 -0.5956  0.1815  0.1290
  304MOL0     C40964   2.337  -0.588   3.218  0.8000 -0.2978  0.0510
  304MOL0     C40965   2.293  -0.716   3.142 -0.6762 -0.9315  0.7993
  304MOL0     C40966   2.405  -0.811   3.141 -0.3230  0.1873 -0.4179
  304MOL0     C40967   2.427  -0.878   3.277  0.0326 -0.8570 -0.3300
  304MOL0     C40968   2.506  -1.001   3.240 -0.5201  0.0706  0.0615
  304MOL0     C40969   2.577  -1.102   3.221  0.5907  0.1706  0.4756
  304MOL0     C40970   2.212  -0.339   3.387 -0.0718  0.1256 -0.4652
  304MOL0     C40971   2.254  -0.205   3.414  0.7882 -0.3835  1.3851
  304MOL0     C40972   2.248  -0.154   3.555 -0.1664 -0.7119  0.2882
  304MOL0     H40973   2.327   0.251   2.983 -0.0898 -0.0240  0.9317
  304MOL0     H40974   2.344   0.482   2.963  1.4429 -2.3843 -0.5236
  304MOL0     H40975   2.380   0.693   2.963  1.7209  0.9297  0.2722
  304MOL0     H40976   2.200   0.710   3.013 -0.9098 -0.1494  5.0787
  304MOL0     H40977   2.221   0.919   3.104 -2.3759 -3.0531 -0.2080
  304MOL0     H40978   2.324   0.943   2.969 -2.2841  3.0746  1.3071
  304MOL0     H40979   2.532   0.887   3.128  0.8333  1.9565  2.6575
  304MOL0     H40980   2.409   0.901   3.260  0.2666  2.4425  1.4599
  304MOL0     H40981   2.487   1.094   3.038 -1.7769  1.3875 -0.1001
  304MOL0     H40982   2.382   1.137   3.177  0.5083 -0.4517  1.4780
  304MOL0     H40983   2.592   1.222   3.234 -1.5463 -1.2011 -0.6800
  304MOL0     H40984   2.587   1.065   3.327 -1.0528  2.0125  2.2483
  304MOL0     H40985   2.799   1.116   3.240 -4.3753  0.7142  3.7938
  304MOL0     H40986   2.730   0.975   3.146  0.0628  0.2457  0.3569
  304MOL0     H40987   2.695   1.257   3.044  1.8769  1.0721  3.3831
  304MOL0     H40988   2.688   1.119   2.951 -1.2626  2.9955 -0.7863
  304MOL0     H40989   2.904   1.284   2.958  1.4447  1.6252  1.1892
  304MOL0     H40990   2.949   1.210   3.109  2.2397  1.7473 -2.4234
  304MOL0     H40991   2.892   0.896   3.006  1.6934 -0.0062  0.0262
  304MOL0     H40992   3.141   0.745   2.757  1.0087  0.0413  1.7365
  304MOL0     H40993   3.071   0.712   2.916  0.0915 -0.6951 -0.0846
  304MOL0     H40994   2.843   0.729   2.800  0.0110 -1.5506  3.2759
  304MOL0     H40995   2.937   0.733   2.645  0.4128 -0.3373  0.2879
  304MOL0     H40996   2.956   0.530   2.880 -0.7486  0.2289  0.1832
  304MOL0     H40997   3.036   0.516   2.727 -0.5887  0.1858 -1.0617
  304MOL0     H40998   2.738   0.552   2.687 -0.5940 -0.2782 -1.0162
  304MOL0     H40999   2.799   0.397   2.747 -2.0738  0.0628 -2.0489
  304MOL0     H41000   2.927   0.235   2.700  2.1724  1.5357  2.4489
  304MOL0     H41001   3.097   0.078   2.635  0.7134 -0.9680 -1.0614
  304MOL0     H41002   3.562   0.066   2.374 -2.5664  0.4288  1.1076
  304MOL0     H41003   3.711  -0.109   2.268 -0.9227  0.6195  1.8126
  304MOL0     H41004   3.572  -0.289   1.888  0.5170 -1.2335  0.3160
  304MOL0     H41005   3.747  -0.324   1.885  0.2593  3.3926 -1.3595
  304MOL0     H41006   3.547  -0.434   2.087  0.5820 -0.8204  0.0843
  304MOL0     H41007   3.563  -0.517   1.938 -3.0336  2.5267  1.0907
  304MOL0     H41008   3.703  -0.639   2.063  0.5376 -0.3845  1.3055
  304MOL0     H41009   3.829  -0.513   2.033  0.0668  1.0739 -0.7838
  304MOL0     H41010   3.659  -0.561   2.270 -0.1149  0.6481  0.8111
  304MOL0     H41011   3.757  -0.409   2.256  2.2449  0.5399  0.1820
  304MOL0     H41012   3.893  -0.680   2.246  1.6858  0.5490  0.6590
  304MOL0     H41013   3.865  -0.575   2.385 -1.5635  0.0241 -0.1581
  304MOL0     H41014   4.043  -0.536   2.126  0.0298 -1.9440  0.0009
  304MOL0     H41015   3.975  -0.401   2.216 -1.5094 -0.2413  2.6004
  304MOL0     H41016   4.095  -0.504   2.430  2.4644  0.8913  0.9947
  304MOL0     H41017   4.187  -0.428   2.285 -2.2000 -0.2248 -3.5188
  304MOL0     H41018   4.230  -0.666   2.208 -3.3631  0.7054 -0.3732
  304MOL0     H41019   4.308  -0.621   2.356  0.6711 -2.1749 -0.8759
  304MOL0     H41020   3.413  -0.185   1.961  0.6275 -0.4134 -0.8258
  304MOL0     H41021   3.269  -0.039   2.067 -0.4359 -0.8302  0.4466
  304MOL0     H41022   3.131   0.279   2.249  0.7090 -0.6102 -0.4151
  304MOL0     H41023   2.979   0.452   2.333  0.2605 -0.2889  0.6342
  304MOL0     H41024   2.278   0.535   3.380 -0.1551 -3.4011  2.8602
  304MOL0     H41025   2.270   0.282   3.420  0.4039 -2.6945 -1.0568
  304MOL0     H41026   2.313  -0.112   3.085 -1.6641 -0.9083 -1.5998
  304MOL0     H41027   2.258  -0.342   3.041  0.9505 -1.5030  0.4392
  304MOL0     H41028   2.389  -0.590   3.314 -0.6889  0.1810  0.9003
  304MOL0     H41029   2.401  -0.524   3.159 -0.4558  2.5846  1.6052
  304MOL0     H41030   2.269  -0.680   3.042 -0.2815  1.1256  1.3764
  304MOL0     H41031   2.206  -0.767   3.185 -1.0507 -0.2421  0.8774
  304MOL0     H41032   2.501  -0.772   3.105  1.4350 -2.6279  0.8436
  304MOL0     H41033   2.376  -0.888   3.069  0.2962  1.5565 -2.2057
  304MOL0     H41034   2.475  -0.812   3.350 -0.9580 -0.7181  0.2140
  304MOL0     H41035   2.324  -0.901   3.306  0.0366 -0.7187 -0.2070
  304MOL0     H41036   2.634  -1.193   3.219  0.6950  0.1947  1.7797
  304MOL0     H41037   2.180  -0.414   3.459 -2.2416  0.9143 -0.5335
  304MOL0     H41038   2.347  -0.143   3.600 -1.6199 -1.6180  4.0701
  304MOL0     H41039   2.203  -0.055   3.550  1.6062  0.1640  0.9766
  304MOL0     H41040   2.178  -0.208   3.620  0.4516  1.5147  2.9846
  305MOL0     O41041   2.028  10.403   6.534 -0.3673 -0.5556 -0.6201
  305MOL0     C41042   1.928  10.367   6.471  0.4314  0.0452 -0.2392
  305MOL0     O41043   1.817  10.309   6.530  0.3338 -0.7034  0.2665
  305MOL0     C41044   1.817  10.228   6.638  0.6252  0.8149  0.0248
  305MOL0     C41045   1.694  10.214   6.703 -0.0369  1.2105 -0.2172
  305MOL0     C41046   1.684  10.128   6.816  0.8552  0.6928  0.2889
  305MOL0     C41047   1.797  10.062   6.863  0.1342  0.3048  0.3304
  305MOL0     O41048   1.769   9.976   6.968  0.3634 -0.0740 -0.0856
  305MOL0     C41049   1.871   9.891   7.022  0.0118  1.2265  0.8598
  305MOL0     C41050   1.831   9.835   7.157 -0.2540 -0.1321  0.2449
  305MOL0     C41051   1.736   9.714   7.156 -0.6026 -0.4322  1.1424
  305MOL0     C41052   1.666   9.688   7.290 -0.6530  0.5652  1.0235
  305MOL0     C41053   1.595   9.552   7.279 -0.6878  0.3011 -0.2163
  305MOL0     C41054   1.523   9.517   7.413 -0.4528 -0.5175 -0.2823
  305MOL0     C41055   1.485   9.371   7.422  0.2449  0.1326 -0.5452
  305MOL0     C41056   1.606   9.272   7.432 -0.6487  0.0625  0.2223
  305MOL0     N41057   1.581   9.153   7.355 -0.1661  0.3184  0.6716
  305MOL0     C41058   1.460   9.097   7.318 -0.9948 -0.4048 -0.9007
  305MOL0     C41059   1.496   8.976   7.267  0.8641 -0.0823 -0.1493
  305MOL0     C41060   1.403   8.869   7.224  0.4920 -1.0543 -0.2069
  305MOL0     C41061   1.467   8.725   7.226 -0.5795 -0.0416  0.3343
  305MOL0     C41062   1.494   8.667   7.357  0.1487 -0.4848 -0.8965
  305MOL0     C41063   1.359   8.640   7.425 -0.7974 -0.0330  0.8600
  305MOL0     O41064   1.388   8.549   7.537 -0.3682 -0.0757 -0.6706
  305MOL0     C41065   1.295   8.552   7.635 -0.1169  0.6200 -0.3077
  305MOL0     C41066   1.311   8.630   7.752  0.3679 -0.4600  1.0335
  305MOL0     C41067   1.217   8.629   7.849  0.7175 -0.2528  0.2240
  305MOL0     C41068   1.104   8.550   7.838  0.1433  0.3267 -0.2156
  305MOL0     C41069   0.990   8.568   7.927  0.5292 -0.3172 -0.1614
  305MOL0     O41070   0.880   8.498   7.900 -0.4538 -0.3661  0.3998
  305MOL0     C41071   0.755   8.526   7.947  0.7029  0.1393 -0.4640
  305MOL0     C41072   0.725   8.570   8.078 -1.0293 -0.2130  0.3919
  305MOL0     C41073   0.600   8.587   8.121  0.3485  0.0460 -0.3580
  305MOL0     C41074   0.490   8.548   8.041 -1.2146 -0.3552 -0.1495
  305MOL0     O41075   0.360   8.558   8.083  0.6180 -0.1275 -0.1763
  305MOL0     C41076   0.311   8.639   8.191  0.2773 -0.0941  0.5000
  305MOL0     C41077   0.168   8.636   8.208  0.2774 -0.7051 -0.3399
  305MOL0     C41078   0.123   8.742   8.302  0.4051 -0.8798  0.2656
  305MOL0     C41079  -0.031   8.765   8.307  0.0659 -0.4485 -0.1850
  305MOL0     C41080  -0.064   8.903   8.349  0.4733 -0.5093  0.4374
  305MOL0     C41081  -0.204   8.895   8.423  0.3586 -0.7671 -0.5186
  305MOL0     C41082  -0.254   9.020   8.498  0.2154 -0.9533  0.3724
  305MOL0     C41083  -0.302   9.130   8.400 -0.1784 -0.3128  1.0615
  305MOL0    Cl41084  -0.461   9.090   8.339  0.7282  0.2127 -0.8794
  305MOL0     C41085   0.515   8.485   7.916 -0.9281 -0.3967  0.4243
  305MOL0     C41086   0.650   8.476   7.860  0.5455  1.0015 -0.0361
  305MOL0     O41087   1.004   8.655   8.013  0.0722  0.8432  0.5256
  305MOL0     C41088   1.098   8.458   7.729 -0.0080 -0.0936  0.4489
  305MOL0     C41089   1.196   8.455   7.628  0.5507 -0.5783  0.0859
  305MOL0     N41090   1.633   8.968   7.246 -0.0247  0.4480  0.0965
  305MOL0     N41091   1.678   9.072   7.300  0.6991 -0.2823  0.1730
  305MOL0     C41092   1.918  10.088   6.804 -0.4672  0.4066  0.3326
  305MOL0     C41093   1.933  10.168   6.690 -1.3360  0.3633 -0.0316
  305MOL0     C41094   1.924  10.396   6.324  0.7351  0.0351  0.1303
  305MOL0     C41095   1.949  10.524   6.281  0.2128  0.3630  0.5473
  305MOL0     C41096   1.950  10.555   6.143  0.2789  0.2983 -0.8893
  305MOL0     C41097   1.919  10.457   6.055 -0.4533  0.8752 -0.1719
  305MOL0     O41098   1.905  10.478   5.921 -0.0112  0.0490  0.3434
  305MOL0     C41099   1.863  10.612   5.891  1.1202  1.1408  1.8055
  305MOL0     C41100   1.960  10.719   5.847 -0.5077 -0.0840  0.5981
  305MOL0     C41101   2.087  10.663   5.785 -0.3252 -0.4093  0.5412
  305MOL0     C41102   2.094  10.645   5.625  0.4362 -0.9844 -0.2312
  305MOL0     C41103   2.000  10.727   5.544  0.4832 -0.1243 -0.1533
  305MOL0     C41104   1.921  10.792   5.479 -0.2479  0.2526  1.0742
  305MOL0     C41105   1.902  10.324   6.096  0.3504  1.1825 -0.0237
  305MOL0     C41106   1.905  10.291   6.235  0.0876  0.6515 -0.0933
  305MOL0     C41107   1.883  10.145   6.286  0.0165 -0.1653 -0.0052
  305MOL0     H41108   1.615  10.278   6.666 -0.1207  0.4441 -1.3760
  305MOL0     H41109   1.595  10.121   6.877 -1.1195  2.7048 -2.1625
  305MOL0     H41110   1.890   9.822   6.940 -2.3935  1.8103 -0.2724
  305MOL0     H41111   1.964   9.946   7.040  1.4909 -1.1425  0.9049
  305MOL0     H41112   1.771   9.914   7.203 -0.7738 -1.4363  1.9022
  305MOL0     H41113   1.907   9.823   7.235 -0.6958 -0.5545  0.6181
  305MOL0     H41114   1.795   9.627   7.127 -1.2613 -0.8297  0.9654
  305MOL0     H41115   1.656   9.721   7.081 -0.1565 -0.8224  0.6264
  305MOL0     H41116   1.748   9.680   7.363 -0.4108  1.8474  0.9134
  305MOL0     H41117   1.595   9.763   7.323 -4.0145 -1.5611 -0.7969
  305MOL0     H41118   1.528   9.547   7.193 -0.9814 -2.7266  0.0928
  305MOL0     H41119   1.671   9.476   7.266 -0.4742  0.6491 -1.1221
  305MOL0     H41120   1.577   9.542   7.505 -0.7744 -1.1223  0.0753
  305MOL0     H41121   1.430   9.574   7.417 -1.2973 -1.9329  0.9537
  305MOL0     H41122   1.430   9.350   7.329 -1.9481  0.7967  0.5243
  305MOL0     H41123   1.414   9.368   7.506 -1.3233 -0.1480 -1.8157
  305MOL0     H41124   1.699   9.323   7.407 -1.3802  0.3927 -2.0584
  305MOL0     H41125   1.609   9.237   7.536  0.3916 -0.4635  0.0219
  305MOL0     H41126   1.363   9.140   7.340 -0.1498  1.7415 -1.0767
  305MOL0     H41127   1.319   8.882   7.293  0.2039  1.9138 -0.9624
  305MOL0     H41128   1.380   8.877   7.117  0.6845 -1.0945 -0.2519
  305MOL0     H41129   1.389   8.668   7.174 -4.1720  2.8121  2.0634
  305MOL0     H41130   1.560   8.720   7.170  0.4316 -0.7727  2.0110
  305MOL0     H41131   1.567   8.729   7.410 -2.4903  0.1136  2.3230
  305MOL0     H41132   1.533   8.566   7.341 -2.2158 -1.8477  1.2785
  305MOL0     H41133   1.280   8.602   7.358 -1.9396  2.4710  0.6411
  305MOL0     H41134   1.330   8.732   7.477 -1.9758  1.6838 -2.4923
  305MOL0     H41135   1.403   8.685   7.766  0.2305 -1.0132  5.3847
  305MOL0     H41136   1.230   8.702   7.928 -1.5433  3.9325 -2.9012
  305MOL0     H41137   0.804   8.615   8.137  3.2744 -4.6304 -1.3275
  305MOL0     H41138   0.573   8.630   8.217 -1.7667  0.0213 -0.8896
  305MOL0     H41139   0.360   8.605   8.283 -0.2876 -1.3662  0.3479
  305MOL0     H41140   0.335   8.743   8.168 -0.2172  0.5449  2.6484
  305MOL0     H41141   0.123   8.663   8.112 -1.0891  0.5078  0.6011
  305MOL0     H41142   0.127   8.536   8.226 -2.4192  0.0087 -1.9661
  305MOL0     H41143   0.160   8.720   8.402  0.4750  0.6152  0.5879
  305MOL0     H41144   0.165   8.839   8.275  0.0781 -0.3749  1.5076
  305MOL0     H41145  -0.070   8.690   8.376  1.4325 -1.8041 -0.8412
  305MOL0     H41146  -0.085   8.738   8.216 -0.3893 -0.9992  0.2457
  305MOL0     H41147  -0.068   8.979   8.270 -0.9232  0.3394  1.2844
  305MOL0     H41148   0.019   8.944   8.407 -1.0598  0.9354  1.7136
  305MOL0     H41149  -0.272   8.868   8.340  1.5150 -0.6720 -1.5270
  305MOL0     H41150  -0.185   8.829   8.508 -0.2985 -0.0565  0.1838
  305MOL0     H41151  -0.160   9.051   8.544  0.9564 -1.5713 -0.6598
  305MOL0     H41152  -0.326   9.000   8.577 -0.8848  0.1367 -0.3217
  305MOL0     H41153  -0.325   9.224   8.452  1.5893 -0.2431  1.7803
  305MOL0     H41154  -0.227   9.141   8.321 -0.4108 -3.0544  0.3595
  305MOL0     H41155   0.441   8.446   7.847 -0.3458 -1.7515  0.5211
  305MOL0     H41156   0.668   8.431   7.763 -0.9886  1.1522 -0.4236
  305MOL0     H41157   1.005   8.405   7.709 -0.5161  1.8377 -3.1646
  305MOL0     H41158   1.189   8.400   7.535  2.1202 -0.6043 -0.0348
  305MOL0     H41159   2.004  10.039   6.848  0.9293  2.1376 -0.3736
  305MOL0     H41160   2.034  10.175   6.650 -0.8291  1.8311  1.4144
  305MOL0     H41161   1.959  10.606   6.351 -0.4279 -1.3874  2.8186
  305MOL0     H41162   1.975  10.658   6.117  2.2046  0.0450 -0.2310
  305MOL0     H41163   1.788  10.647   5.963 -3.7956 -0.6569 -1.9082
  305MOL0     H41164   1.805  10.594   5.800  2.9794 -3.4604  1.2294
  305MOL0     H41165   1.978  10.784   5.932 -2.2291  0.5445  0.5082
  305MOL0     H41166   1.914  10.787   5.775  1.5338 -1.3591 -2.0856
  305MOL0     H41167   2.115  10.567   5.829  2.6190 -0.3721 -1.0318
  305MOL0     H41168   2.167  10.735   5.807  0.9667 -2.2450  2.2252
  305MOL0     H41169   2.196  10.675   5.598 -0.2550  0.8348 -1.0482
  305MOL0     H41170   2.099  10.539   5.598 -0.0581 -1.0369 -0.1239
  305MOL0     H41171   1.842  10.849   5.435 -0.6104 -2.6600 -2.4850
  305MOL0     H41172   1.870  10.247   6.027  2.3199 -0.9841  1.3362
  305MOL0     H41173   1.799  10.148   6.355  0.5245  0.9660  0.5906
  305MOL0     H41174   1.858  10.080   6.201  1.9514 -0.8623 -0.0906
  305MOL0     H41175   1.978  10.104   6.323 -0.3529 -1.2377 -0.1887
  306MOL0     O41176   0.237   2.794   2.303 -0.2800 -0.1136  0.0950
  306MOL0     C41177   0.349   2.769   2.349 -0.3504  0.9400 -0.7078
  306MOL0     O41178   0.412   2.641   2.355  0.1444  0.0924 -0.6446
  306MOL0     C41179   0.348   2.526   2.327 -0.3322  0.4108  0.8532
  306MOL0     C41180   0.322   2.436   2.435 -0.4735  0.4398 -0.0175
  306MOL0     C41181   0.276   2.309   2.390  0.3787 -0.0313 -0.3146
  306MOL0     C41182   0.245   2.267   2.258 -0.2724  0.2108 -0.0195
  306MOL0     O41183   0.192   2.147   2.215 -0.2019 -0.0871  0.0024
  306MOL0     C41184   0.208   2.030   2.297 -0.3948  0.4416  0.5223
  306MOL0     C41185   0.161   1.910   2.213 -0.6472 -0.0069  0.8382
  306MOL0     C41186   0.221   1.779   2.286 -0.0973 -0.4033  0.6716
  306MOL0     C41187   0.161   1.760   2.425 -0.1606 -0.0254 -0.6184
  306MOL0     C41188   0.232   1.653   2.504 -0.3089  0.5055  0.2932
  306MOL0     C41189   0.155   1.629   2.641  0.2219 -0.0397  0.5643
  306MOL0     C41190   0.229   1.552   2.751 -0.8172 -0.3699  0.4426
  306MOL0     C41191   0.241   1.404   2.725  1.0308  0.9994 -0.1624
  306MOL0     N41192   0.127   1.333   2.663 -0.3429  0.7255 -0.1977
  306MOL0     C41193   0.136   1.245   2.564  0.2681  0.9612  0.0912
  306MOL0     C41194   0.027   1.169   2.557  0.4551  0.6982 -0.2583
  306MOL0     C41195   0.025   1.029   2.494 -0.2736 -0.0906 -0.8383
  306MOL0     C41196  -0.051   1.040   2.368  0.3934  0.4337 -0.1547
  306MOL0     C41197  -0.144   0.922   2.336 -0.2317  1.4062  0.4315
  306MOL0     C41198  -0.232   0.928   2.211 -0.3266  0.5083  0.2437
  306MOL0     O41199  -0.308   0.805   2.200 -0.1263  0.9674  0.6783
  306MOL0     C41200  -0.299   0.738   2.074 -0.1798  0.2092  0.3758
  306MOL0     C41201  -0.406   0.658   2.036 -0.1147 -0.2555 -0.7446
  306MOL0     C41202  -0.405   0.573   1.931 -0.7445 -0.0096 -1.5294
  306MOL0     C41203  -0.281   0.552   1.861 -0.1809  0.2551  0.2499
  306MOL0     C41204  -0.279   0.482   1.733 -0.8187  0.1216  0.2472
  306MOL0     O41205  -0.180   0.514   1.652  0.6339 -0.1562  0.0783
  306MOL0     C41206  -0.159   0.458   1.528 -0.2742  0.8061 -1.1532
  306MOL0     C41207  -0.070   0.522   1.447  0.0987 -0.0561 -0.3518
  306MOL0     C41208  -0.023   0.478   1.321  0.5829 -0.1059  0.2541
  306MOL0     C41209  -0.084   0.360   1.270 -0.7757 -1.0056  0.3124
  306MOL0     O41210  -0.057   0.302   1.154  0.1657 -0.0778  0.4568
  306MOL0     C41211  -0.049   0.384   1.030 -0.8694 -1.2303 -0.6657
  306MOL0     C41212   0.027   0.294   0.932  0.1731  0.1406 -0.2045
  306MOL0     C41213  -0.041   0.161   0.901 -0.1440  0.3841  0.6031
  306MOL0     C41214   0.031   0.103   0.779 -0.4683  0.4748 -0.5601
  306MOL0     C41215  -0.029  -0.030   0.732  0.3197  0.0944  0.0404
  306MOL0     C41216   0.032  -0.094   0.600 -0.8203 -0.0048 -0.5229
  306MOL0     C41217   0.183  -0.104   0.603 -0.2692 -0.5068  0.6507
  306MOL0     C41218   0.233  -0.160   0.477  0.5440  0.5483  0.6292
  306MOL0    Cl41219   0.173  -0.324   0.448  0.1015  0.1561 -0.0108
  306MOL0     C41220  -0.171   0.287   1.353  0.3191 -1.2852 -0.7133
  306MOL0     C41221  -0.205   0.338   1.480  0.1378 -0.0195  0.6473
  306MOL0     O41222  -0.365   0.400   1.705 -0.9743  0.2969 -0.3859
  306MOL0     C41223  -0.168   0.627   1.901  0.2662  0.2399 -0.5018
  306MOL0     C41224  -0.178   0.716   2.005  0.2953  0.5656 -0.6121
  306MOL0     N41225  -0.051   1.196   2.668  0.4738  0.7799  0.4831
  306MOL0     N41226   0.016   1.287   2.736 -0.2318  0.1615  0.4281
  306MOL0     C41227   0.273   2.357   2.156 -0.3706 -0.3431  0.1188
  306MOL0     C41228   0.322   2.488   2.192  0.2598 -0.1096  0.1979
  306MOL0     C41229   0.426   2.888   2.402  0.0214 -0.0231 -0.6739
  306MOL0     C41230   0.497   2.878   2.530 -0.3677 -0.3208  0.4001
  306MOL0     C41231   0.576   2.983   2.569  0.2922 -0.1558 -1.1324
  306MOL0     C41232   0.604   3.088   2.483  0.3148 -0.3880 -0.2411
  306MOL0     O41233   0.689   3.196   2.526  0.0218  0.2313  0.0602
  306MOL0     C41234   0.673   3.242   2.660 -1.1257 -0.0921 -0.7651
  306MOL0     C41235   0.720   3.382   2.681  0.0579 -0.4765  0.0653
  306MOL0     C41236   0.729   3.394   2.826  0.1358 -1.1503 -0.9203
  306MOL0     C41237   0.773   3.528   2.879 -0.4182 -0.0076  0.0186
  306MOL0     C41238   0.908   3.573   2.859  0.3077 -0.6330  0.7547
  306MOL0     C41239   1.028   3.594   2.841 -0.2513  0.8391 -0.1306
  306MOL0     C41240   0.518   3.107   2.373  0.9822 -0.1325  0.3736
  306MOL0     C41241   0.436   3.006   2.322 -0.5195 -0.3730  0.8529
  306MOL0     C41242   0.369   3.039   2.197  0.9223  0.2940  1.6870
  306MOL0     H41243   0.347   2.465   2.537 -2.4642  1.0000  0.3460
  306MOL0     H41244   0.248   2.237   2.467 -0.0290 -1.2160 -1.5287
  306MOL0     H41245   0.311   2.012   2.328 -0.3686  0.6492  0.5549
  306MOL0     H41246   0.157   2.048   2.392 -1.4209  1.8453 -0.2516
  306MOL0     H41247   0.207   1.924   2.115 -2.7308  0.2104 -0.1468
  306MOL0     H41248   0.052   1.912   2.205 -0.5670  1.9426 -0.3704
  306MOL0     H41249   0.329   1.794   2.295 -0.0916 -0.8865  1.4356
  306MOL0     H41250   0.194   1.696   2.221 -2.9914  2.2710 -1.8953
  306MOL0     H41251   0.162   1.854   2.480  3.0891 -0.7404  0.8036
  306MOL0     H41252   0.060   1.719   2.413 -0.9954  1.7221  0.1711
  306MOL0     H41253   0.220   1.567   2.437 -1.6410  0.6245  0.3460
  306MOL0     H41254   0.335   1.685   2.519  0.4216 -1.5920  0.1102
  306MOL0     H41255   0.136   1.726   2.688 -0.7168  0.0977 -0.0738
  306MOL0     H41256   0.058   1.580   2.632  0.5084 -0.2768 -2.0979
  306MOL0     H41257   0.195   1.573   2.853 -0.3378 -0.6100  0.6589
  306MOL0     H41258   0.334   1.582   2.767 -1.5721  2.0195  1.4141
  306MOL0     H41259   0.322   1.394   2.652  0.2017  2.8384 -1.4132
  306MOL0     H41260   0.249   1.362   2.826 -4.0363  1.1513  0.5429
  306MOL0     H41261   0.221   1.228   2.499  0.5409 -0.8434  0.8769
  306MOL0     H41262   0.126   0.997   2.468 -0.3338 -0.8831 -0.1463
  306MOL0     H41263  -0.024   0.954   2.556 -0.8941  1.0905  0.1323
  306MOL0     H41264  -0.114   1.129   2.377  0.1315  0.0106  3.2864
  306MOL0     H41265   0.019   1.045   2.284 -1.8844 -1.2718 -2.3005
  306MOL0     H41266  -0.207   0.901   2.424  1.2984 -0.4374  1.1606
  306MOL0     H41267  -0.073   0.841   2.325  1.9142  2.7665  3.0742
  306MOL0     H41268  -0.178   0.961   2.122 -0.2397  1.1098  0.5132
  306MOL0     H41269  -0.301   1.012   2.222 -1.3646 -0.1753 -0.8252
  306MOL0     H41270  -0.495   0.669   2.096  1.1414  2.1197  0.8712
  306MOL0     H41271  -0.501   0.528   1.908 -0.8438  0.0040 -1.1549
  306MOL0     H41272  -0.033   0.610   1.499 -2.2183 -0.1368  1.5791
  306MOL0     H41273   0.050   0.532   1.261 -0.1436  0.3970 -0.1973
  306MOL0     H41274  -0.148   0.414   0.995  0.0330  3.0372 -0.1914
  306MOL0     H41275   0.003   0.480   1.043 -1.5188 -1.1603  1.9444
  306MOL0     H41276   0.023   0.343   0.834 -1.9947  0.7571  0.1385
  306MOL0     H41277   0.126   0.282   0.975  0.1976 -0.7926 -0.5147
  306MOL0     H41278  -0.027   0.103   0.992  0.4439  3.6811  2.7591
  306MOL0     H41279  -0.149   0.170   0.890  0.0573  1.4025 -0.7808
  306MOL0     H41280   0.139   0.097   0.796 -0.5583 -0.2348 -0.2188
  306MOL0     H41281   0.021   0.170   0.693 -0.4488  1.1990 -0.0090
  306MOL0     H41282  -0.133   0.000   0.715  0.3860  1.0283  1.1913
  306MOL0     H41283  -0.030  -0.092   0.821  2.0654 -0.6628 -0.4265
  306MOL0     H41284  -0.005  -0.196   0.583  0.8626 -0.9256  1.0229
  306MOL0     H41285   0.010  -0.023   0.519 -1.5314  1.1925  0.6746
  306MOL0     H41286   0.222  -0.175   0.677  4.1593  0.0306 -0.8636
  306MOL0     H41287   0.238  -0.011   0.619  1.6884 -1.2578 -1.2145
  306MOL0     H41288   0.195  -0.103   0.392  0.0133 -1.8838 -0.8606
  306MOL0     H41289   0.343  -0.161   0.473  0.5451  0.0747  0.7009
  306MOL0     H41290  -0.212   0.191   1.322  2.1863 -1.6184 -2.3608
  306MOL0     H41291  -0.266   0.273   1.541 -0.3311  0.4766  0.7192
  306MOL0     H41292  -0.084   0.623   1.833  0.0858  0.9900 -0.7798
  306MOL0     H41293  -0.087   0.753   2.052  0.0888  0.2467  0.0463
  306MOL0     H41294   0.252   2.341   2.051  1.2236 -1.8781 -0.0109
  306MOL0     H41295   0.361   2.561   2.121  2.0110 -0.3610  0.8490
  306MOL0     H41296   0.474   2.790   2.590 -0.9156 -0.6921 -0.3386
  306MOL0     H41297   0.632   2.957   2.659  0.8856 -0.6305 -1.6312
  306MOL0     H41298   0.727   3.171   2.723  1.4445  0.0157 -2.6718
  306MOL0     H41299   0.567   3.244   2.686 -0.5958  0.2954  1.5699
  306MOL0     H41300   0.646   3.445   2.631  0.3797 -0.1900 -0.0553
  306MOL0     H41301   0.816   3.397   2.632 -1.2485  1.1172 -2.2259
  306MOL0     H41302   0.788   3.312   2.870  1.5657 -0.1582 -0.9101
  306MOL0     H41303   0.633   3.371   2.873  0.2469 -3.1826 -1.5819
  306MOL0     H41304   0.711   3.609   2.839  2.1604  2.1722  0.1508
  306MOL0     H41305   0.768   3.518   2.987  0.8896  1.4487  0.2591
  306MOL0     H41306   1.135   3.601   2.830  0.1937 -1.1313  2.2139
  306MOL0     H41307   0.556   3.197   2.325  1.8992 -0.9109 -0.3823
  306MOL0     H41308   0.429   3.074   2.112 -2.6366 -0.6830 -1.5476
  306MOL0     H41309   0.334   2.942   2.160 -1.5366  0.6892  2.7561
  306MOL0     H41310   0.295   3.120   2.201  1.0030  0.3350  2.3985
  307MOL0     O41311   8.059   6.617   0.388 -0.3378  0.1091 -0.8675
  307MOL0     C41312   8.083   6.614   0.266  0.6737  0.3733 -0.1431
  307MOL0     O41313   8.042   6.507   0.184  0.1610 -0.0111 -0.0567
  307MOL0     C41314   7.978   6.408   0.249  0.1152  0.5379 -0.2096
  307MOL0     C41315   7.840   6.413   0.271  0.2044  0.1496 -0.7225
  307MOL0     C41316   7.771   6.300   0.317  0.3119  0.6343 -1.2525
  307MOL0     C41317   7.843   6.179   0.330  0.3092  0.7366  0.2598
  307MOL0     O41318   7.781   6.058   0.365 -0.1586  0.4109 -1.2481
  307MOL0     C41319   7.837   5.981   0.477  0.0267 -0.1937  0.7308
  307MOL0     C41320   7.752   5.865   0.498  0.1887  0.0370  0.6454
  307MOL0     C41321   7.731   5.788   0.359  0.5783 -0.1924 -0.5637
  307MOL0     C41322   7.623   5.687   0.376  0.4588  0.5390  0.0008
  307MOL0     C41323   7.621   5.571   0.280 -0.3858 -0.0058  1.3790
  307MOL0     C41324   7.522   5.458   0.312 -0.2116 -0.0020  0.3040
  307MOL0     C41325   7.547   5.330   0.223 -0.0010  0.1785  0.8020
  307MOL0     C41326   7.677   5.257   0.223 -0.2638  0.0392  0.7983
  307MOL0     N41327   7.726   5.239   0.354 -0.0074  0.1262  0.4129
  307MOL0     C41328   7.848   5.276   0.404 -0.4382  0.8829  0.6680
  307MOL0     C41329   7.857   5.207   0.524 -1.5415 -0.2496  0.9180
  307MOL0     C41330   7.967   5.221   0.623 -0.1427 -0.3553 -0.4054
  307MOL0     C41331   7.936   5.321   0.729 -0.2854 -0.4235 -0.5343
  307MOL0     C41332   7.923   5.464   0.677 -0.6169 -0.0643  0.4648
  307MOL0     C41333   8.062   5.518   0.640 -0.2164  0.4738 -0.5884
  307MOL0     O41334   8.064   5.588   0.520  0.5983 -0.3064 -0.0882
  307MOL0     C41335   8.161   5.691   0.500  0.1542 -0.5939  0.1493
  307MOL0     C41336   8.146   5.763   0.380  1.1286 -0.5021  1.0066
  307MOL0     C41337   8.233   5.865   0.351 -0.4448  1.0850  0.0565
  307MOL0     C41338   8.340   5.909   0.441  0.3504  0.5118  0.8294
  307MOL0     C41339   8.410   6.034   0.421 -0.0382 -0.6661 -0.3224
  307MOL0     O41340   8.390   6.113   0.314  0.7307  0.1252 -0.3030
  307MOL0     C41341   8.437   6.246   0.307  0.2901 -0.7685 -0.6587
  307MOL0     C41342   8.490   6.276   0.182  0.0101  0.9763 -0.0047
  307MOL0     C41343   8.541   6.406   0.153  0.1581 -0.7191 -0.1544
  307MOL0     C41344   8.529   6.505   0.247 -0.1939 -0.7110  0.3948
  307MOL0     O41345   8.579   6.632   0.227 -0.0947  0.0099 -0.4356
  307MOL0     C41346   8.618   6.670   0.097 -0.2550  0.1855 -0.8484
  307MOL0     C41347   8.718   6.794   0.094  0.9170  0.4445  0.6025
  307MOL0     C41348   8.841   6.773   0.186 -0.3185 -0.0687  0.5722
  307MOL0     C41349   8.943   6.883   0.196  0.8796  0.5699  0.2106
  307MOL0     C41350   9.045   6.858   0.314  0.8372  1.1577 -0.2544
  307MOL0     C41351   9.181   6.932   0.285 -0.4462 -0.3053  0.4648
  307MOL0     C41352   9.285   6.924   0.403  0.5865  0.6003  0.4761
  307MOL0     C41353   9.428   6.960   0.355 -0.4390  0.3139 -0.5448
  307MOL0    Cl41354   9.419   7.128   0.302 -0.7718 -0.0967 -0.4259
  307MOL0     C41355   8.470   6.472   0.369  0.1675 -0.2074 -0.2488
  307MOL0     C41356   8.416   6.346   0.400  0.4833  0.2052  0.0711
  307MOL0     O41357   8.465   6.075   0.523 -0.8678  0.9034  0.3009
  307MOL0     C41358   8.358   5.828   0.553 -0.1430 -0.1554 -1.6029
  307MOL0     C41359   8.273   5.717   0.584 -0.4808 -0.1100  0.3003
  307MOL0     N41360   7.746   5.133   0.536  0.3187 -0.1872  0.4216
  307MOL0     N41361   7.664   5.152   0.439  0.0382 -0.6561  0.4004
  307MOL0     C41362   7.986   6.189   0.309  0.2056 -0.0303  0.9298
  307MOL0     C41363   8.047   6.295   0.273  0.5196  0.1042 -0.4685
  307MOL0     C41364   8.153   6.727   0.204 -0.7119 -0.3251 -0.7597
  307MOL0     C41365   8.135   6.846   0.269  0.1319 -0.7559  0.0516
  307MOL0     C41366   8.195   6.965   0.221 -0.6805 -0.1449 -0.3660
  307MOL0     C41367   8.266   6.963   0.102  0.0988  0.5686  0.8768
  307MOL0     O41368   8.326   7.076   0.044  0.5144 -0.7554 -0.5090
  307MOL0     C41369   8.350   7.192   0.131  0.3860 -0.2949  0.0490
  307MOL0     C41370   8.448   7.285   0.067  0.3316  1.0923  0.4097
  307MOL0     C41371   8.420   7.433   0.120  0.2557  1.4610  0.5368
  307MOL0     C41372   8.516   7.548   0.069  0.7401 -0.0779 -0.4588
  307MOL0     C41373   8.460   7.675   0.121 -0.3124  0.1601 -0.2755
  307MOL0     C41374   8.413   7.778   0.161 -0.1097 -1.3760  0.4824
  307MOL0     C41375   8.274   6.844   0.024  0.7275 -0.1756 -0.1821
  307MOL0     C41376   8.215   6.730   0.076 -0.3179  0.4558 -0.6101
  307MOL0     C41377   8.219   6.609  -0.025  1.1302  0.0307  0.5978
  307MOL0     H41378   7.775   6.498   0.250  1.0372  0.6478 -1.3873
  307MOL0     H41379   7.670   6.296   0.355 -0.6057 -2.5947 -3.5786
  307MOL0     H41380   7.940   5.947   0.460  0.0277  0.2140 -0.1557
  307MOL0     H41381   7.830   6.046   0.564  0.4908 -0.3917  0.9191
  307MOL0     H41382   7.654   5.879   0.544 -1.0900 -0.9961 -1.6298
  307MOL0     H41383   7.811   5.806   0.569  1.4942  1.3834  0.7354
  307MOL0     H41384   7.826   5.742   0.331  1.9720  1.6144  0.8931
  307MOL0     H41385   7.691   5.853   0.281 -1.6315  1.4034  1.7162
  307MOL0     H41386   7.630   5.639   0.474  0.3123 -1.1060 -0.7643
  307MOL0     H41387   7.532   5.748   0.382  0.2255  0.0464  2.2302
  307MOL0     H41388   7.614   5.599   0.174  0.1107 -0.8544  1.1180
  307MOL0     H41389   7.722   5.531   0.291 -0.8594 -0.8730  2.8894
  307MOL0     H41390   7.526   5.427   0.417 -0.1555 -1.2938 -0.0542
  307MOL0     H41391   7.424   5.503   0.296 -0.4338 -0.5143  0.1844
  307MOL0     H41392   7.525   5.359   0.119 -0.1590 -1.8386  0.2440
  307MOL0     H41393   7.463   5.266   0.253 -2.9181  3.1985 -0.2331
  307MOL0     H41394   7.660   5.157   0.181  1.3119 -0.0013  0.2099
  307MOL0     H41395   7.747   5.307   0.156 -1.0978  1.7993  1.1824
  307MOL0     H41396   7.925   5.339   0.360  0.5558 -0.8867 -0.2524
  307MOL0     H41397   8.004   5.132   0.674 -1.7079 -1.4719 -1.1590
  307MOL0     H41398   8.053   5.250   0.562  0.2993  1.8266  1.1224
  307MOL0     H41399   7.853   5.287   0.792  1.9398 -1.3142  2.0732
  307MOL0     H41400   8.022   5.309   0.796 -2.1945 -2.4415  1.7495
  307MOL0     H41401   7.881   5.523   0.759  1.4328 -0.0833  1.6059
  307MOL0     H41402   7.856   5.473   0.591 -1.3656 -2.0853  0.7647
  307MOL0     H41403   8.134   5.438   0.621 -0.7678 -0.4747  1.0961
  307MOL0     H41404   8.084   5.588   0.721 -0.8421  1.3651 -1.1837
  307MOL0     H41405   8.068   5.733   0.312  0.3775 -0.2077  1.7225
  307MOL0     H41406   8.217   5.913   0.256  0.7581  0.2811 -0.5843
  307MOL0     H41407   8.485   6.206   0.099  0.0856  0.3758  0.4916
  307MOL0     H41408   8.594   6.425   0.060 -1.1118  3.4746 -0.2224
  307MOL0     H41409   8.685   6.591   0.060 -0.7924 -0.0215 -1.4084
  307MOL0     H41410   8.539   6.686   0.023 -2.5897  1.6773  1.7751
  307MOL0     H41411   8.750   6.811  -0.009  2.2683 -1.0264  0.7447
  307MOL0     H41412   8.656   6.873   0.138  2.2644  1.0353  1.5105
  307MOL0     H41413   8.821   6.744   0.290  2.4213 -0.0869  1.1717
  307MOL0     H41414   8.897   6.689   0.146 -0.2395 -0.2956  1.1510
  307MOL0     H41415   8.883   6.973   0.207 -2.8061 -1.4327 -1.5057
  307MOL0     H41416   9.005   6.882   0.106 -1.1996 -3.7987 -1.4598
  307MOL0     H41417   9.057   6.750   0.322  2.0405  1.4205  2.1686
  307MOL0     H41418   8.996   6.897   0.404 -1.2263 -0.5250 -0.5494
  307MOL0     H41419   9.225   6.893   0.193  0.6550 -0.2961  0.9674
  307MOL0     H41420   9.157   7.037   0.268  0.7515 -0.3520 -1.9444
  307MOL0     H41421   9.272   6.827   0.453  1.1546 -0.3214 -1.0818
  307MOL0     H41422   9.252   6.995   0.479  0.7382 -0.8876  1.9891
  307MOL0     H41423   9.504   6.947   0.433 -1.0772 -0.5239 -0.0592
  307MOL0     H41424   9.457   6.898   0.269 -3.2518  0.0475 -1.3964
  307MOL0     H41425   8.442   6.545   0.444 -0.2001  0.8049 -1.3416
  307MOL0     H41426   8.367   6.318   0.493  2.6559  3.2873  2.3422
  307MOL0     H41427   8.449   5.828   0.613 -0.5623 -2.0705 -0.9120
  307MOL0     H41428   8.303   5.648   0.662  0.5133  2.6811  2.5739
  307MOL0     H41429   8.043   6.097   0.313 -1.8587 -1.3354  2.7826
  307MOL0     H41430   8.149   6.295   0.237 -0.1048 -1.3996 -2.4014
  307MOL0     H41431   8.067   6.846   0.353 -0.5913 -0.0254 -0.5150
  307MOL0     H41432   8.186   7.058   0.276 -3.4562 -0.6369  0.1533
  307MOL0     H41433   8.383   7.156   0.228 -4.7605 -0.5674  2.0106
  307MOL0     H41434   8.255   7.245   0.143 -0.0596 -0.1749 -3.0189
  307MOL0     H41435   8.451   7.274  -0.042  0.1495 -0.4813  0.5447
  307MOL0     H41436   8.552   7.258   0.087  0.7258 -0.2667 -2.8145
  307MOL0     H41437   8.432   7.435   0.229  1.6193  2.4152  0.3968
  307MOL0     H41438   8.314   7.450   0.099  0.2712  0.7346 -0.1523
  307MOL0     H41439   8.622   7.534   0.088  0.9026  0.7912 -0.6925
  307MOL0     H41440   8.517   7.550  -0.041  1.4186 -4.0216 -0.6742
  307MOL0     H41441   8.365   7.870   0.189 -0.8519 -0.9839 -1.8177
  307MOL0     H41442   8.337   6.847  -0.064  0.3578 -2.3007 -0.5722
  307MOL0     H41443   8.115   6.593  -0.053  0.0010  1.4291  3.5851
  307MOL0     H41444   8.281   6.641  -0.110 -2.3375  1.0054 -1.7749
  307MOL0     H41445   8.256   6.516   0.019 -2.1104 -1.0126  1.3965
  308MOL0     O41446   6.291   5.719   1.658 -0.4651 -0.0113  0.5615
  308MOL0     C41447   6.368   5.617   1.665  0.7016  0.1406 -0.2890
  308MOL0     O41448   6.414   5.564   1.778 -0.1483  0.0714 -1.3001
  308MOL0     C41449   6.406   5.617   1.905 -0.2520 -0.4012 -0.1600
  308MOL0     C41450   6.326   5.726   1.947  0.8323  0.4191 -0.5246
  308MOL0     C41451   6.319   5.761   2.081  0.7558  1.3987  0.2747
  308MOL0     C41452   6.388   5.699   2.171 -0.8213  1.1596 -1.2176
  308MOL0     O41453   6.370   5.743   2.300  0.4439 -0.3324 -0.3571
  308MOL0     C41454   6.292   5.674   2.396  0.7821  0.0734  0.0718
  308MOL0     C41455   6.151   5.743   2.424 -0.1041  1.1248 -0.2683
  308MOL0     C41456   6.160   5.841   2.547  0.1781  0.3601  1.7939
  308MOL0     C41457   6.179   5.755   2.676 -0.5949  0.2354  0.2439
  308MOL0     C41458   6.154   5.838   2.799  1.2862 -0.3159 -0.3202
  308MOL0     C41459   6.176   5.767   2.935  0.1797 -0.4177  1.6338
  308MOL0     C41460   6.187   5.862   3.054 -0.1868 -1.1108 -0.1311
  308MOL0     C41461   6.065   5.934   3.095 -0.4813 -1.9536 -0.4398
  308MOL0     N41462   6.037   6.049   3.004  0.4532 -0.5236  0.0619
  308MOL0     C41463   5.922   6.057   2.926  0.2375 -0.0945 -0.1012
  308MOL0     C41464   5.952   6.167   2.847  1.0032  0.9293  0.3011
  308MOL0     C41465   5.872   6.220   2.726 -0.1031 -0.0298  0.0470
  308MOL0     C41466   5.864   6.131   2.594 -0.1219 -0.2817 -0.0835
  308MOL0     C41467   5.805   5.985   2.618  0.2035 -0.2769 -0.5132
  308MOL0     C41468   5.659   5.997   2.662 -0.5142 -0.0193 -0.6119
  308MOL0     O41469   5.570   5.901   2.609 -0.4509 -0.8019 -0.0153
  308MOL0     C41470   5.579   5.774   2.658 -0.8365  0.0756  1.8372
  308MOL0     C41471   5.648   5.730   2.767  0.6356  0.5541 -0.4629
  308MOL0     C41472   5.656   5.589   2.802 -0.5498 -0.1072 -0.3060
  308MOL0     C41473   5.580   5.499   2.732 -0.5127  0.4662  0.0152
  308MOL0     C41474   5.584   5.347   2.762  0.6235  0.1378 -1.0321
  308MOL0     O41475   5.614   5.317   2.885 -0.0996  0.2129  0.5059
  308MOL0     C41476   5.579   5.198   2.939  0.3918  0.7928 -0.5881
  308MOL0     C41477   5.461   5.175   3.012 -0.3084  0.1924  0.1281
  308MOL0     C41478   5.444   5.044   3.079  0.0391  0.0949 -0.5580
  308MOL0     C41479   5.532   4.947   3.074  1.1218  0.0359  0.2045
  308MOL0     O41480   5.499   4.828   3.142 -0.2384  0.4363 -0.7021
  308MOL0     C41481   5.583   4.717   3.109 -0.2558 -0.0966 -0.4245
  308MOL0     C41482   5.527   4.603   3.206 -0.6204 -0.8283  1.0908
  308MOL0     C41483   5.400   4.543   3.173 -0.1987 -0.1153 -0.4708
  308MOL0     C41484   5.406   4.482   3.033 -0.0422 -0.3437  0.8333
  308MOL0     C41485   5.291   4.385   2.993  0.2710  0.6872 -0.0253
  308MOL0     C41486   5.307   4.256   3.077  0.5012 -0.4634  0.2788
  308MOL0     C41487   5.238   4.138   3.010  0.6142 -1.1164  0.3565
  308MOL0     C41488   5.234   4.021   3.105 -0.4144 -0.3686 -0.2253
  308MOL0    Cl41489   5.183   3.871   3.013  0.2169  0.5856 -0.1164
  308MOL0     C41490   5.649   4.968   3.004 -0.6669 -0.0598  0.6514
  308MOL0     C41491   5.666   5.094   2.931 -0.5065 -0.7270 -0.4646
  308MOL0     O41492   5.557   5.260   2.677 -0.7402  0.2490  0.5968
  308MOL0     C41493   5.514   5.544   2.614  0.9231 -0.3577 -0.9097
  308MOL0     C41494   5.516   5.683   2.576  0.3881 -0.2034  0.4857
  308MOL0     N41495   6.063   6.233   2.891 -0.7557 -0.2500 -0.3034
  308MOL0     N41496   6.112   6.165   2.978 -0.8399 -0.2240 -0.2325
  308MOL0     C41497   6.463   5.578   2.142 -1.1639 -1.0291 -0.2701
  308MOL0     C41498   6.463   5.536   2.004  1.1581 -0.1483  0.4559
  308MOL0     C41499   6.377   5.530   1.538 -0.3383  0.9111  1.2518
  308MOL0     C41500   6.364   5.588   1.408  0.3262 -0.5038  0.4194
  308MOL0     C41501   6.388   5.513   1.288  0.1842  0.2725 -0.7888
  308MOL0     C41502   6.427   5.382   1.302  0.1235  0.1032 -0.1279
  308MOL0     O41503   6.449   5.320   1.191 -0.1386  0.3112  0.0265
  308MOL0     C41504   6.469   5.177   1.175 -0.3981  0.1658  0.0398
  308MOL0     C41505   6.352   5.091   1.186  0.5477  0.0507 -0.5863
  308MOL0     C41506   6.390   4.951   1.231  0.8177 -0.0258 -0.9402
  308MOL0     C41507   6.292   4.833   1.204 -0.1316 -0.1266  0.8687
  308MOL0     C41508   6.262   4.826   1.062 -0.4044  0.9466 -0.6065
  308MOL0     C41509   6.261   4.837   0.943  0.5307 -1.0739  0.2107
  308MOL0     C41510   6.436   5.319   1.426 -0.0447  0.7469  0.5780
  308MOL0     C41511   6.409   5.386   1.539 -0.4312 -0.4738  0.6833
  308MOL0     C41512   6.399   5.303   1.661  0.0866 -0.8463  0.5840
  308MOL0     H41513   6.273   5.779   1.869  1.8768 -2.7939 -3.6551
  308MOL0     H41514   6.262   5.848   2.111 -2.2599  0.0081 -1.0815
  308MOL0     H41515   6.282   5.569   2.366 -2.8024 -0.1555  1.5554
  308MOL0     H41516   6.354   5.678   2.486  2.1606  0.7678 -0.8628
  308MOL0     H41517   6.071   5.669   2.429  0.2028  0.6823 -1.5303
  308MOL0     H41518   6.113   5.809   2.345 -3.8949  2.8510  2.6446
  308MOL0     H41519   6.075   5.909   2.540 -0.8237 -1.0428 -3.4750
  308MOL0     H41520   6.251   5.901   2.536  0.2357  0.0977  0.8041
  308MOL0     H41521   6.096   5.684   2.682  0.0922 -0.5205  1.0465
  308MOL0     H41522   6.274   5.701   2.678 -0.1559  1.0021  0.4373
  308MOL0     H41523   6.215   5.929   2.804 -1.5424  1.7854 -1.2437
  308MOL0     H41524   6.051   5.875   2.799  1.1143 -0.3734 -4.3512
  308MOL0     H41525   6.099   5.691   2.954 -1.3770 -0.3075 -2.9231
  308MOL0     H41526   6.271   5.719   2.910 -0.7536 -0.8500 -1.5094
  308MOL0     H41527   6.267   5.936   3.045  0.1330 -1.3685  0.5039
  308MOL0     H41528   6.228   5.799   3.134 -0.5732  0.0619  1.0090
  308MOL0     H41529   5.986   5.859   3.104 -0.1657 -2.2198  0.2382
  308MOL0     H41530   6.095   5.974   3.193  1.1209 -0.0866 -1.6071
  308MOL0     H41531   5.857   5.971   2.913  0.2262  0.0722 -1.3317
  308MOL0     H41532   5.771   6.236   2.764 -0.5295 -0.5872 -0.8072
  308MOL0     H41533   5.927   6.307   2.690  1.6663 -1.7884 -1.7510
  308MOL0     H41534   5.804   6.183   2.519  1.1415  0.3011 -0.7159
  308MOL0     H41535   5.964   6.128   2.550  0.2087  0.9594  0.5433
  308MOL0     H41536   5.868   5.926   2.686 -1.7537 -1.6413  0.1863
  308MOL0     H41537   5.805   5.919   2.531  5.0221 -1.2887 -0.0580
  308MOL0     H41538   5.622   6.095   2.631 -1.9985  0.2535  1.8402
  308MOL0     H41539   5.660   6.018   2.769  2.7996  4.3259 -1.1897
  308MOL0     H41540   5.687   5.800   2.840  5.0223 -3.2109  1.3713
  308MOL0     H41541   5.715   5.556   2.887  2.1643 -0.7548 -2.2892
  308MOL0     H41542   5.387   5.249   3.039  0.1455  0.3181  1.0818
  308MOL0     H41543   5.351   5.022   3.132 -1.7629  2.7424 -2.3813
  308MOL0     H41544   5.595   4.681   3.006  0.7789  1.1761 -0.7700
  308MOL0     H41545   5.685   4.739   3.141  0.5646 -0.3191 -2.6917
  308MOL0     H41546   5.600   4.522   3.203 -0.1623 -0.4682  2.0269
  308MOL0     H41547   5.522   4.651   3.304  2.1273  2.8262 -0.3341
  308MOL0     H41548   5.377   4.466   3.247 -0.2846  0.1023 -0.2702
  308MOL0     H41549   5.327   4.624   3.175  1.2530  1.3684 -2.6888
  308MOL0     H41550   5.501   4.430   3.019  0.0727  0.0237  0.2183
  308MOL0     H41551   5.395   4.574   2.975  1.4195  1.7379  3.6382
  308MOL0     H41552   5.301   4.361   2.887  0.5480 -1.2639  0.4075
  308MOL0     H41553   5.196   4.438   3.001  1.0778  1.9619  1.7588
  308MOL0     H41554   5.414   4.232   3.082  0.1946 -1.7913  0.7146
  308MOL0     H41555   5.272   4.273   3.179  2.9553  0.2083  1.0870
  308MOL0     H41556   5.280   4.115   2.912  0.2175 -0.6170  0.0705
  308MOL0     H41557   5.132   4.159   2.998  0.7173 -0.1970  0.9515
  308MOL0     H41558   5.331   4.008   3.154  0.2613  1.5144 -0.9600
  308MOL0     H41559   5.158   4.047   3.180  0.7398  2.2426  0.1234
  308MOL0     H41560   5.719   4.888   2.982 -0.4149  0.0638  0.9872
  308MOL0     H41561   5.766   5.109   2.893  0.0696 -0.4730  1.0558
  308MOL0     H41562   5.452   5.481   2.552  0.9568  0.5437 -1.8913
  308MOL0     H41563   5.465   5.710   2.484  3.3266 -1.0869 -1.5791
  308MOL0     H41564   6.516   5.519   2.217 -1.1841  0.4007  0.9155
  308MOL0     H41565   6.512   5.443   1.978 -0.0590 -1.7306  3.3455
  308MOL0     H41566   6.338   5.693   1.400  1.0405 -0.3911 -0.6195
  308MOL0     H41567   6.374   5.554   1.188  0.1782 -0.3641 -1.0536
  308MOL0     H41568   6.547   5.146   1.245 -0.2901 -1.0590 -0.5999
  308MOL0     H41569   6.509   5.175   1.073 -2.4383 -1.1502 -0.7989
  308MOL0     H41570   6.293   5.091   1.093 -0.7348 -2.4357  0.1153
  308MOL0     H41571   6.278   5.121   1.261  1.8133 -2.1209  1.6741
  308MOL0     H41572   6.412   4.948   1.338  0.0944 -0.1738 -0.7969
  308MOL0     H41573   6.483   4.931   1.177  0.3459 -2.3002 -0.9744
  308MOL0     H41574   6.326   4.733   1.232 -0.5751 -0.8081 -0.9344
  308MOL0     H41575   6.201   4.869   1.253  0.5167  2.5565  0.2373
  308MOL0     H41576   6.275   4.841   0.837  1.1095 -1.8807  0.2433
  308MOL0     H41577   6.450   5.212   1.432  3.0918  1.0893  0.8826
  308MOL0     H41578   6.413   5.198   1.637  0.9468 -0.4683 -0.6649
  308MOL0     H41579   6.465   5.323   1.746 -1.2498 -0.0037  1.4585
  308MOL0     H41580   6.299   5.323   1.701 -0.6831  3.7087 -2.8320
  309MOL0     O41581  11.251   9.111   5.280  0.6958 -1.0857 -0.4897
  309MOL0     C41582  11.338   9.159   5.354  0.7112 -0.6285  0.3263
  309MOL0     O41583  11.416   9.091   5.433  0.3961  0.3261  0.2633
  309MOL0     C41584  11.383   8.965   5.467  0.9750 -0.0352 -0.6948
  309MOL0     C41585  11.489   8.892   5.515 -0.1200  0.3429 -0.5597
  309MOL0     C41586  11.464   8.761   5.557 -0.9424 -0.6101  0.0986
  309MOL0     C41587  11.345   8.705   5.571  0.0734 -0.0703  0.2071
  309MOL0     O41588  11.331   8.571   5.603  0.1004 -0.2484  1.4533
  309MOL0     C41589  11.301   8.558   5.743  0.7105  0.9769  0.3881
  309MOL0     C41590  11.380   8.428   5.777  0.2768  0.3736  0.1686
  309MOL0     C41591  11.304   8.297   5.746 -0.1679  0.1072  0.0847
  309MOL0     C41592  11.221   8.253   5.860 -0.3674 -0.1881  0.2972
  309MOL0     C41593  11.112   8.155   5.822  1.0099  0.0483 -0.5209
  309MOL0     C41594  11.068   8.090   5.960 -0.2193 -0.2393 -1.0301
  309MOL0     C41595  10.926   8.123   5.985  0.0255  0.1881  0.7335
  309MOL0     C41596  10.880   8.082   6.127 -0.1628 -0.5163  0.2031
  309MOL0     N41597  10.733   8.077   6.132  0.6896  0.4497  0.1700
  309MOL0     C41598  10.653   7.971   6.086 -0.8217  0.2493 -0.3107
  309MOL0     C41599  10.531   7.979   6.133 -0.1111 -0.1298  1.0167
  309MOL0     C41600  10.402   7.900   6.120  0.3448  0.5203  0.8083
  309MOL0     C41601  10.425   7.746   6.130  0.1460  0.2329 -1.1414
  309MOL0     C41602  10.479   7.689   6.263  0.4650 -0.5332 -0.0746
  309MOL0     C41603  10.398   7.712   6.384  1.0553 -0.1012  0.5580
  309MOL0     O41604  10.385   7.847   6.421 -0.2395 -1.0373 -0.3910
  309MOL0     C41605  10.338   7.877   6.547 -0.3943 -0.3702 -0.1720
  309MOL0     C41606  10.241   7.808   6.616  0.2220 -0.1218  0.6147
  309MOL0     C41607  10.196   7.840   6.745  0.3402  0.1875 -0.6291
  309MOL0     C41608  10.236   7.966   6.805 -0.7288 -0.3923  0.7697
  309MOL0     C41609  10.209   8.002   6.951  0.7220 -0.4512  0.7921
  309MOL0     O41610  10.133   7.917   7.019  0.1907 -0.1399 -0.0252
  309MOL0     C41611  10.096   7.948   7.148 -0.0279 -0.5183  0.6876
  309MOL0     C41612   9.983   8.036   7.159  0.5555 -0.6437 -1.0549
  309MOL0     C41613   9.922   8.060   7.276  0.2844  0.0868  0.1566
  309MOL0     C41614   9.968   8.008   7.400  0.3614 -0.0784 -0.3565
  309MOL0     O41615   9.911   8.069   7.513  0.8434  0.4364  0.4361
  309MOL0     C41616   9.965   8.041   7.643 -0.4278  0.5308 -0.7464
  309MOL0     C41617   9.890   7.932   7.707  0.4488 -0.3022  0.0840
  309MOL0     C41618   9.893   7.918   7.858 -0.4081 -0.5988  0.5345
  309MOL0     C41619  10.036   7.904   7.906 -0.3999 -0.6797  0.3965
  309MOL0     C41620  10.061   7.884   8.055  0.2822 -0.7518 -1.0939
  309MOL0     C41621   9.990   7.768   8.121  0.1071  1.5806  0.3001
  309MOL0     C41622  10.025   7.763   8.268 -0.4794  0.6814  0.5709
  309MOL0     C41623   9.894   7.760   8.357  0.4781  0.1040  0.0731
  309MOL0    Cl41624   9.807   7.915   8.387  0.7087  0.1891  0.0936
  309MOL0     C41625  10.072   7.902   7.392  0.7448 -0.5185 -0.3714
  309MOL0     C41626  10.137   7.885   7.270 -0.0869  0.4569  0.2599
  309MOL0     O41627  10.257   8.105   6.996 -0.1089 -0.0311 -0.5434
  309MOL0     C41628  10.334   8.041   6.727  0.0583 -0.5444  1.0811
  309MOL0     C41629  10.384   7.996   6.602  0.0099  0.0491  0.5973
  309MOL0     N41630  10.525   8.097   6.205 -0.3359  0.0559  0.5050
  309MOL0     N41631  10.649   8.150   6.211  0.9786  0.8312 -0.6621
  309MOL0     C41632  11.234   8.777   5.545 -0.0187 -0.7679  0.1899
  309MOL0     C41633  11.251   8.911   5.494 -1.1273  0.7958  1.0565
  309MOL0     C41634  11.364   9.309   5.335  0.7973  0.4017  0.8022
  309MOL0     C41635  11.347   9.380   5.207 -0.8505  0.3917  0.0011
  309MOL0     C41636  11.347   9.522   5.200  0.1655  0.4534  0.6948
  309MOL0     C41637  11.364   9.604   5.306  0.1451 -0.8447 -0.9714
  309MOL0     O41638  11.379   9.743   5.281  0.6037  0.2543  0.3702
  309MOL0     C41639  11.455   9.803   5.388 -0.8416  0.0439 -0.9351
  309MOL0     C41640  11.466   9.946   5.353 -0.3773  0.3548  0.4559
  309MOL0     C41641  11.328  10.011   5.351  0.5681  0.5167 -0.5708
  309MOL0     C41642  11.335  10.160   5.318  0.0352  0.6148 -0.4638
  309MOL0     C41643  11.211  10.234   5.275 -0.3009 -0.5456 -0.9200
  309MOL0     C41644  11.114  10.307   5.259 -0.9622 -0.0890 -1.0054
  309MOL0     C41645  11.363   9.546   5.431 -0.4726  1.4350 -0.6046
  309MOL0     C41646  11.357   9.402   5.445  0.6300  0.4609  0.7363
  309MOL0     C41647  11.333   9.350   5.588 -0.1625  0.3345 -0.4870
  309MOL0     H41648  11.590   8.930   5.505  0.1590  0.3157  1.6828
  309MOL0     H41649  11.546   8.691   5.570  0.4612  0.8483 -0.6206
  309MOL0     H41650  11.346   8.627   5.815 -1.4700 -0.0449  2.9080
  309MOL0     H41651  11.204   8.520   5.778  0.8461 -0.5810 -0.8047
  309MOL0     H41652  11.428   8.427   5.875  3.3353  0.0134 -1.2362
  309MOL0     H41653  11.471   8.423   5.717  3.1639  0.1026  4.1874
  309MOL0     H41654  11.364   8.207   5.727 -1.5491 -1.3359  2.2030
  309MOL0     H41655  11.239   8.313   5.659 -0.4095 -0.3701  0.1730
  309MOL0     H41656  11.289   8.219   5.939 -0.1876  0.9681  0.6518
  309MOL0     H41657  11.174   8.341   5.905 -1.3168 -0.5637  0.0700
  309MOL0     H41658  11.032   8.197   5.760  2.3152  2.9951 -0.3870
  309MOL0     H41659  11.156   8.077   5.759  1.5907 -0.1609  0.1363
  309MOL0     H41660  11.092   7.983   5.958  2.9515  0.2769  1.2982
  309MOL0     H41661  11.125   8.125   6.047 -1.2264 -1.4370  0.1755
  309MOL0     H41662  10.872   8.060   5.914  0.6746  1.6234 -1.1107
  309MOL0     H41663  10.910   8.230   5.970  0.5803  0.5214  2.3246
  309MOL0     H41664  10.923   7.988   6.162  3.4981  0.6099 -0.8634
  309MOL0     H41665  10.917   8.153   6.202  1.1003 -0.4893 -0.4106
  309MOL0     H41666  10.683   7.883   6.029 -1.4269 -1.3802  1.7823
  309MOL0     H41667  10.333   7.929   6.200 -0.4083  1.6291 -0.2185
  309MOL0     H41668  10.364   7.919   6.019  1.3238  2.0026  0.6983
  309MOL0     H41669  10.332   7.695   6.105 -0.1546 -0.2101  0.7350
  309MOL0     H41670  10.508   7.726   6.062  2.8369  0.8193  1.7372
  309MOL0     H41671  10.582   7.721   6.280  0.7948 -1.5909  0.0005
  309MOL0     H41672  10.491   7.581   6.254 -0.5228 -0.7659  1.1561
  309MOL0     H41673  10.459   7.668   6.463 -0.6812 -2.9412  0.4618
  309MOL0     H41674  10.298   7.667   6.374  1.5883 -1.3224  0.5046
  309MOL0     H41675  10.199   7.715   6.577 -0.3825  0.6752 -0.6953
  309MOL0     H41676  10.128   7.769   6.791 -0.1511  0.9664 -0.1162
  309MOL0     H41677   9.960   8.079   7.062 -0.0350 -1.3173 -1.2155
  309MOL0     H41678   9.835   8.123   7.262  0.0329 -0.3125 -0.0967
  309MOL0     H41679  10.073   8.021   7.648 -0.6265 -0.5702 -0.6296
  309MOL0     H41680   9.938   8.133   7.697  0.6352 -1.0202  2.7159
  309MOL0     H41681   9.785   7.934   7.676  0.2769  0.8338  0.7018
  309MOL0     H41682   9.936   7.836   7.681 -1.1743 -1.6085  1.8008
  309MOL0     H41683   9.843   8.009   7.893 -2.1748 -1.3902  0.1994
  309MOL0     H41684   9.828   7.834   7.885  1.0889 -1.3586  1.9690
  309MOL0     H41685  10.084   7.994   7.869  0.5945  0.4167  3.9783
  309MOL0     H41686  10.087   7.826   7.849  1.4248  1.6572 -1.3628
  309MOL0     H41687  10.034   7.974   8.110  0.8335 -0.7084 -0.8874
  309MOL0     H41688  10.163   7.850   8.074  0.0788  0.2632  2.4744
  309MOL0     H41689   9.882   7.767   8.103  0.2455 -2.5811 -1.4399
  309MOL0     H41690  10.024   7.680   8.066 -2.8188 -0.3872  1.4006
  309MOL0     H41691  10.108   7.828   8.293  2.9314 -2.7085 -0.9117
  309MOL0     H41692  10.072   7.665   8.282  1.2323  1.1710 -1.3827
  309MOL0     H41693   9.820   7.691   8.314  2.6192 -0.6922 -2.5901
  309MOL0     H41694   9.931   7.721   8.451 -0.8765 -1.5708 -0.0305
  309MOL0     H41695  10.122   7.848   7.472  1.8347 -0.8991 -1.2958
  309MOL0     H41696  10.225   7.821   7.261 -0.5117 -0.1516  0.3690
  309MOL0     H41697  10.371   8.137   6.762 -2.0127  0.6295  0.2198
  309MOL0     H41698  10.452   8.062   6.549 -0.6670  1.1776  1.0850
  309MOL0     H41699  11.131   8.743   5.555  0.2527 -1.1374  2.3627
  309MOL0     H41700  11.167   8.978   5.475 -1.9350 -0.7789 -1.4278
  309MOL0     H41701  11.323   9.321   5.120 -0.2554  1.1651 -0.7001
  309MOL0     H41702  11.322   9.566   5.105 -0.4223  2.2878  1.6520
  309MOL0     H41703  11.556   9.762   5.377 -0.8466 -1.6359  3.4218
  309MOL0     H41704  11.422   9.787   5.491 -1.2850  4.0550 -0.3212
  309MOL0     H41705  11.500   9.963   5.251 -1.1870 -0.8080 -0.0228
  309MOL0     H41706  11.529  10.006   5.420  1.7689 -2.3735  1.0731
  309MOL0     H41707  11.271   9.998   5.444  2.9735 -3.9240  0.5461
  309MOL0     H41708  11.267   9.957   5.278 -0.5612  0.9296  0.0384
  309MOL0     H41709  11.377  10.215   5.403 -1.6417  1.4308 -0.1185
  309MOL0     H41710  11.401  10.172   5.231  1.1224  1.5547  0.4607
  309MOL0     H41711  11.020  10.357   5.249 -1.2347 -0.4013 -0.0812
  309MOL0     H41712  11.361   9.600   5.526 -3.4632 -0.6699  0.6725
  309MOL0     H41713  11.305   9.437   5.648  3.1899  1.8871 -0.9575
  309MOL0     H41714  11.253   9.276   5.591 -0.2706  0.1767 -3.7142
  309MOL0     H41715  11.419   9.306   5.638  0.3869  4.9542  3.3863
  310MOL0     O41716   4.860   2.274   5.168  0.1213 -0.0500  0.1246
  310MOL0     C41717   4.828   2.316   5.052 -0.5751  0.6061 -1.0200
  310MOL0     O41718   4.786   2.237   4.948  0.2244 -0.0976  0.6523
  310MOL0     C41719   4.813   2.103   4.939 -0.0812  0.0503  0.8096
  310MOL0     C41720   4.909   2.033   5.022  0.5789  0.7442  0.4773
  310MOL0     C41721   4.922   1.891   5.016  0.4160 -0.4827 -0.5849
  310MOL0     C41722   4.844   1.816   4.924 -0.8301 -1.0540 -0.4273
  310MOL0     O41723   4.818   1.681   4.944  0.2999 -0.6357  0.6534
  310MOL0     C41724   4.762   1.592   4.846 -0.5315 -0.3531 -0.1503
  310MOL0     C41725   4.849   1.472   4.833 -0.5789 -0.2756 -0.1060
  310MOL0     C41726   4.991   1.511   4.800  0.6881  0.2520  0.0187
  310MOL0     C41727   5.011   1.518   4.651  0.1747 -1.1584  0.2401
  310MOL0     C41728   5.157   1.516   4.604 -0.0267 -0.3265 -0.1042
  310MOL0     C41729   5.168   1.526   4.453 -0.5214 -0.4839 -0.2341
  310MOL0     C41730   5.312   1.530   4.398  0.2270  1.0074 -0.3983
  310MOL0     C41731   5.373   1.659   4.440  0.2086  0.1701 -0.1556
  310MOL0     N41732   5.518   1.657   4.425 -0.3499 -0.6615 -0.3177
  310MOL0     C41733   5.588   1.665   4.307 -0.1526  0.2854 -0.7176
  310MOL0     C41734   5.715   1.625   4.340 -0.5052  0.3649 -1.6269
  310MOL0     C41735   5.840   1.618   4.253 -1.0382 -0.2963  0.3652
  310MOL0     C41736   5.856   1.476   4.204 -0.7184  1.0739  0.1150
  310MOL0     C41737   6.002   1.445   4.158  0.3857  0.1153 -0.0089
  310MOL0     C41738   6.051   1.303   4.142 -0.2720  0.7566 -1.4038
  310MOL0     O41739   5.968   1.221   4.051 -0.4041 -0.4355  0.1564
  310MOL0     C41740   6.006   1.229   3.912  0.7464  1.1514  0.3765
  310MOL0     C41741   5.932   1.128   3.842 -1.5668 -0.9330 -0.6086
  310MOL0     C41742   5.963   1.107   3.705  0.0815  0.1463 -0.3837
  310MOL0     C41743   6.059   1.185   3.634 -0.1555  0.3013 -0.4605
  310MOL0     C41744   6.098   1.140   3.504 -1.3814 -0.0190 -0.4772
  310MOL0     O41745   6.001   1.065   3.438  0.1068 -0.0964  0.2552
  310MOL0     C41746   6.003   1.044   3.302 -0.4065  0.8185 -0.6366
  310MOL0     C41747   5.936   0.934   3.258 -0.3674 -0.0984  0.5293
  310MOL0     C41748   5.926   0.903   3.116  0.1853 -0.8918  0.1715
  310MOL0     C41749   5.991   0.983   3.022  0.1805  0.0430 -0.5633
  310MOL0     O41750   5.988   0.952   2.881 -0.0349  0.2888  0.1216
  310MOL0     C41751   6.077   0.851   2.845 -0.6774  1.0032  0.9266
  310MOL0     C41752   6.158   0.927   2.728 -0.2012 -0.2096  0.0343
  310MOL0     C41753   6.290   0.860   2.701 -0.3533  0.0990  0.6433
  310MOL0     C41754   6.361   0.925   2.583 -0.1360  0.6485 -0.6473
  310MOL0     C41755   6.271   0.931   2.456  0.4466 -0.3636 -0.8002
  310MOL0     C41756   6.346   0.929   2.326  0.1976  0.1751 -0.7116
  310MOL0     C41757   6.252   0.917   2.214  1.0164 -0.1184 -0.5679
  310MOL0     C41758   6.200   0.776   2.192  1.2647 -0.3078  0.2919
  310MOL0    Cl41759   6.095   0.769   2.041  0.0657  0.2136 -0.6870
  310MOL0     C41760   6.055   1.095   3.067  0.1295 -0.4669  0.0321
  310MOL0     C41761   6.058   1.129   3.206  0.4840 -0.0370 -0.8998
  310MOL0     O41762   6.213   1.159   3.462 -0.2563  0.0868 -0.3963
  310MOL0     C41763   6.120   1.288   3.709 -1.1690 -0.7641  0.6028
  310MOL0     C41764   6.105   1.303   3.840  0.2899 -0.3794 -0.9552
  310MOL0     N41765   5.714   1.591   4.482 -0.2385  0.0018  0.2594
  310MOL0     N41766   5.596   1.612   4.531  0.0247 -0.2216  0.8733
  310MOL0     C41767   4.753   1.889   4.847  0.0431  0.6026  0.8430
  310MOL0     C41768   4.733   2.026   4.844 -0.4429  0.2356 -0.2590
  310MOL0     C41769   4.853   2.459   5.029  0.0713  0.4583  0.7376
  310MOL0     C41770   4.870   2.492   4.889 -0.1466 -0.1152 -0.3442
  310MOL0     C41771   4.881   2.628   4.857  0.2397  0.7154 -0.5021
  310MOL0     C41772   4.881   2.721   4.953 -0.4372  0.6542  0.5513
  310MOL0     O41773   4.904   2.843   4.908 -0.5452  0.0734  0.3273
  310MOL0     C41774   4.923   2.951   5.007  0.9901 -0.5705 -0.1437
  310MOL0     C41775   4.963   3.078   4.937 -0.5900 -0.3630  0.6263
  310MOL0     C41776   5.090   3.051   4.835  0.5487 -0.0842 -0.2686
  310MOL0     C41777   5.177   3.176   4.808 -0.2876  0.1649  0.6836
  310MOL0     C41778   5.277   3.139   4.709  0.3901  0.2990  0.1459
  310MOL0     C41779   5.355   3.106   4.622 -0.5290 -0.6751 -0.1007
  310MOL0     C41780   4.850   2.689   5.081  0.7628  0.4704 -0.0254
  310MOL0     C41781   4.835   2.559   5.125  1.1086 -0.5210  0.2807
  310MOL0     C41782   4.814   2.550   5.271 -0.2343  0.0908 -0.0704
  310MOL0     H41783   4.975   2.092   5.085  0.2937 -0.8143  2.3397
  310MOL0     H41784   4.995   1.849   5.085  1.0632 -0.4635 -1.2463
  310MOL0     H41785   4.660   1.559   4.864  0.2173 -3.4384 -1.0133
  310MOL0     H41786   4.762   1.635   4.745 -1.8188 -2.1424 -0.9589
  310MOL0     H41787   4.807   1.403   4.760 -0.3709  0.1885 -0.6742
  310MOL0     H41788   4.844   1.414   4.926 -1.1904 -1.0134 -0.5920
  310MOL0     H41789   5.045   1.424   4.840 -2.3496 -2.5452 -1.4721
  310MOL0     H41790   5.028   1.604   4.843  0.4442  2.8289 -4.7777
  310MOL0     H41791   4.963   1.430   4.606  1.0382 -2.4820  1.8050
  310MOL0     H41792   4.976   1.616   4.619  2.5095  0.1398  1.4423
  310MOL0     H41793   5.197   1.610   4.643 -0.5614  0.4300 -1.3441
  310MOL0     H41794   5.230   1.436   4.626  0.1751 -0.5494 -1.5058
  310MOL0     H41795   5.128   1.436   4.406 -3.6163  0.0631  1.0888
  310MOL0     H41796   5.109   1.612   4.420 -1.2330 -0.5806  0.7206
  310MOL0     H41797   5.309   1.519   4.289  0.7930  2.0735 -0.5372
  310MOL0     H41798   5.353   1.436   4.435 -1.8981 -0.5306 -1.7170
  310MOL0     H41799   5.341   1.737   4.370 -0.3009 -1.3268 -1.6779
  310MOL0     H41800   5.355   1.690   4.543  1.2487 -2.7897  1.0125
  310MOL0     H41801   5.562   1.684   4.204  0.3925  0.3100 -0.8530
  310MOL0     H41802   5.829   1.695   4.176 -1.3964 -0.5954  0.1136
  310MOL0     H41803   5.924   1.647   4.316 -1.4394  0.5549  0.5183
  310MOL0     H41804   5.834   1.405   4.284 -0.7329  3.1658  2.0721
  310MOL0     H41805   5.778   1.468   4.126 -3.3857  1.5359  2.5649
  310MOL0     H41806   6.069   1.506   4.219  1.6208  1.6883 -2.7306
  310MOL0     H41807   6.013   1.491   4.059  2.6499 -1.5648 -0.6382
  310MOL0     H41808   6.039   1.247   4.235 -0.7377  2.9413 -0.0808
  310MOL0     H41809   6.153   1.305   4.103  1.0918 -1.3535  1.6505
  310MOL0     H41810   5.855   1.069   3.891  0.2856 -2.2635  0.8500
  310MOL0     H41811   5.927   1.018   3.655 -1.7292  0.7323 -0.1982
  310MOL0     H41812   5.881   0.879   3.334 -2.8520  0.7797 -0.5462
  310MOL0     H41813   5.863   0.817   3.095 -0.9945  0.4449 -2.1996
  310MOL0     H41814   6.135   0.814   2.929 -3.1805 -0.2295  2.2101
  310MOL0     H41815   6.027   0.765   2.798 -0.4609  1.1188  0.4732
  310MOL0     H41816   6.094   0.932   2.639 -0.2533 -1.1701  0.0079
  310MOL0     H41817   6.175   1.034   2.745 -3.1279  0.4497 -0.7034
  310MOL0     H41818   6.349   0.862   2.793  0.6440 -0.8229  0.0541
  310MOL0     H41819   6.283   0.754   2.675  2.6393 -0.1390  0.5149
  310MOL0     H41820   6.439   0.854   2.555 -1.5954 -1.2691 -0.0639
  310MOL0     H41821   6.392   1.025   2.615  0.0651 -0.4150  2.8787
  310MOL0     H41822   6.204   1.019   2.454 -2.6682 -2.5634 -0.9692
  310MOL0     H41823   6.208   0.842   2.457 -1.6861  0.9738 -3.2692
  310MOL0     H41824   6.404   1.021   2.315 -3.1611  2.1739 -3.9112
  310MOL0     H41825   6.414   0.843   2.325  1.4065  1.0917 -0.3541
  310MOL0     H41826   6.311   0.952   2.129  3.0425 -0.8319  0.4772
  310MOL0     H41827   6.168   0.985   2.230  4.0046  3.1108  3.8226
  310MOL0     H41828   6.280   0.705   2.172 -0.2806 -1.4322 -2.5113
  310MOL0     H41829   6.136   0.745   2.276 -1.7330  1.7492 -1.0488
  310MOL0     H41830   6.091   1.175   3.004 -1.0851  2.4320  2.7419
  310MOL0     H41831   6.109   1.216   3.247  0.5894  0.4437 -2.0310
  310MOL0     H41832   6.185   1.353   3.650 -1.9697 -2.2277 -2.0221
  310MOL0     H41833   6.155   1.386   3.888  0.4457  0.1668 -2.0396
  310MOL0     H41834   4.684   1.824   4.793 -2.1932  3.4960 -0.0386
  310MOL0     H41835   4.653   2.071   4.785 -1.7785 -0.3981  1.0179
  310MOL0     H41836   4.889   2.412   4.817 -1.8384 -0.1302 -0.8119
  310MOL0     H41837   4.911   2.654   4.756  2.8739  0.2687  0.0783
  310MOL0     H41838   5.012   2.936   5.068  0.5981  0.2762  0.6416
  310MOL0     H41839   4.837   2.968   5.072  1.3843 -1.3857  0.6212
  310MOL0     H41840   4.986   3.148   5.018 -1.1557 -0.1642  0.6245
  310MOL0     H41841   4.875   3.119   4.887  0.3256 -0.4035 -1.0685
  310MOL0     H41842   5.049   3.015   4.740 -0.9177  1.9453 -0.4911
  310MOL0     H41843   5.145   2.970   4.883 -0.9886  1.1774  4.0474
  310MOL0     H41844   5.123   3.266   4.780  0.3097 -0.0022 -1.1396
  310MOL0     H41845   5.232   3.209   4.897 -2.7348  0.1407  2.3092
  310MOL0     H41846   5.432   3.078   4.553  1.0398  0.3146  1.1711
  310MOL0     H41847   4.846   2.769   5.154  2.9502  0.9859 -0.4014
  310MOL0     H41848   4.727   2.602   5.312 -1.4271 -2.6539  1.1771
  310MOL0     H41849   4.799   2.447   5.306 -0.6647 -0.6268 -2.2487
  310MOL0     H41850   4.899   2.594   5.323 -1.1304  2.4172 -0.4636
  311MOL0     O41851  10.863   2.924   9.946 -0.4747 -0.8292  0.2512
  311MOL0     C41852  10.750   2.966   9.985 -1.8490  1.0104  0.1140
  311MOL0     O41853  10.729   3.046  10.085 -0.3586  0.0073 -0.4297
  311MOL0     C41854  10.828   3.130  10.134  0.6390  1.0781 -0.8546
  311MOL0     C41855  10.959   3.130  10.100  0.5177  0.8440 -0.7496
  311MOL0     C41856  11.048   3.208  10.165 -0.4773 -0.5391  0.2615
  311MOL0     C41857  11.007   3.294  10.263 -0.1317 -0.9450  0.0758
  311MOL0     O41858  11.092   3.383  10.325 -0.4701  0.4342 -0.0525
  311MOL0     C41859  11.229   3.365  10.297 -0.2166  0.1952 -0.0989
  311MOL0     C41860  11.326   3.461  10.368  0.1915 -0.3538 -1.4057
  311MOL0     C41861  11.279   3.607  10.364  0.0936 -0.9069  0.2365
  311MOL0     C41862  11.365   3.692  10.452 -0.5952  0.0793 -0.6240
  311MOL0     C41863  11.517   3.678  10.408  0.7885  0.5455 -0.3864
  311MOL0     C41864  11.595   3.795  10.474  0.6269 -0.1229 -0.7113
  311MOL0     C41865  11.619   3.777  10.628 -0.1701 -0.3301  0.4671
  311MOL0     C41866  11.705   3.649  10.664  0.1568 -0.0129 -0.0031
  311MOL0     N41867  11.829   3.644  10.588  0.0102  0.0065 -0.3829
  311MOL0     C41868  11.923   3.738  10.597  0.1146  0.2200 -0.3574
  311MOL0     C41869  12.025   3.692  10.524 -0.2565  0.5366 -0.3305
  311MOL0     C41870  12.163   3.756  10.523  0.0129  0.0003  0.6356
  311MOL0     C41871  12.278   3.659  10.584  0.5156  0.1508  0.0430
  311MOL0     C41872  12.405   3.669  10.511 -0.7875  0.5165 -0.4421
  311MOL0     C41873  12.525   3.702  10.595 -0.1949  0.4803 -0.0836
  311MOL0     O41874  12.623   3.772  10.514 -0.2651  0.8139  0.5304
  311MOL0     C41875  12.722   3.692  10.447 -0.5076  0.6667  0.1972
  311MOL0     C41876  12.849   3.748  10.415 -0.0203  0.7689 -0.7558
  311MOL0     C41877  12.950   3.678  10.352  0.1590  1.2376  0.2507
  311MOL0     C41878  12.939   3.538  10.322 -0.0735 -1.0143  0.9351
  311MOL0     C41879  13.050   3.472  10.252 -1.0988  0.4437  0.2324
  311MOL0     O41880  13.029   3.341  10.213 -0.3881  0.8207 -0.7178
  311MOL0     C41881  13.127   3.261  10.173 -0.6936 -0.0024 -0.4668
  311MOL0     C41882  13.266   3.284  10.174 -0.4847  1.4290 -0.0837
  311MOL0     C41883  13.361   3.181  10.136  0.3276  0.0758 -0.9754
  311MOL0     C41884  13.310   3.061  10.072  0.8132  0.1791 -0.1041
  311MOL0     O41885  13.385   2.958  10.031 -0.3156  0.9873 -0.0928
  311MOL0     C41886  13.452   2.887  10.140  0.0488 -0.3961  1.2721
  311MOL0     C41887  13.492   2.741  10.109 -0.1253  0.3016  0.2866
  311MOL0     C41888  13.568   2.730   9.982  0.8569  0.2273  0.3999
  311MOL0     C41889  13.711   2.790  10.001  0.6939 -0.0091 -0.7784
  311MOL0     C41890  13.790   2.764   9.878  0.1732  1.2079  0.2046
  311MOL0     C41891  13.936   2.820   9.880  0.6430  0.5339 -0.1771
  311MOL0     C41892  13.958   2.968   9.907 -0.4672  0.5353 -0.3270
  311MOL0     C41893  13.895   3.049   9.797  0.7690  0.6378 -0.1329
  311MOL0    Cl41894  13.904   3.214   9.842  0.0670 -0.2822 -0.0183
  311MOL0     C41895  13.171   3.044  10.063  0.5003 -0.2391  0.0921
  311MOL0     C41896  13.085   3.142  10.120  0.7324  0.6550 -1.7460
  311MOL0     O41897  13.149   3.550  10.221 -0.4395  0.0162  0.7001
  311MOL0     C41898  12.817   3.480  10.361  0.8541  0.1355 -0.4035
  311MOL0     C41899  12.715   3.553  10.425 -1.1033  0.5180 -0.4857
  311MOL0     N41900  11.992   3.574  10.470  0.0133 -0.1269  0.2054
  311MOL0     N41901  11.879   3.537  10.518 -0.0837  0.1017 -0.6876
  311MOL0     C41902  10.873   3.288  10.308 -0.5008 -0.2462  1.5418
  311MOL0     C41903  10.786   3.198  10.239 -0.2739  0.5923 -0.7947
  311MOL0     C41904  10.644   2.903   9.902 -0.7040  0.0670  0.0562
  311MOL0     C41905  10.684   2.847   9.777  0.3262 -0.1602 -0.1400
  311MOL0     C41906  10.604   2.788   9.690  0.0078  0.7527 -0.5597
  311MOL0     C41907  10.468   2.765   9.731 -0.6217 -0.0770 -0.0899
  311MOL0     O41908  10.405   2.669   9.655  0.1282  0.3747  0.1397
  311MOL0     C41909  10.289   2.704   9.582 -1.2799 -0.9074  0.2671
  311MOL0     C41910  10.306   2.668   9.436  0.2068 -0.5340 -0.8974
  311MOL0     C41911  10.337   2.517   9.421 -0.2253 -0.5547  0.2217
  311MOL0     C41912  10.304   2.464   9.278  0.6715 -0.8295 -0.1195
  311MOL0     C41913  10.328   2.320   9.277 -0.3843 -0.2199 -0.2520
  311MOL0     C41914  10.352   2.204   9.271 -1.0604 -0.1502 -1.1476
  311MOL0     C41915  10.424   2.807   9.855  0.3731 -0.3469  1.1470
  311MOL0     C41916  10.509   2.890   9.934  0.1513  1.5820  0.3082
  311MOL0     C41917  10.448   2.968  10.047  0.0560 -0.3048  0.0005
  311MOL0     H41918  11.006   3.066  10.025 -1.1123  0.1824 -1.2473
  311MOL0     H41919  11.148   3.195  10.123 -0.6792  2.4482 -1.3756
  311MOL0     H41920  11.252   3.262  10.325 -1.8823 -0.2939 -0.4434
  311MOL0     H41921  11.260   3.377  10.193 -0.9345  1.2131 -0.2125
  311MOL0     H41922  11.420   3.457  10.311  1.3919 -0.0697  0.4691
  311MOL0     H41923  11.345   3.437  10.472  0.8702  2.9454 -0.6386
  311MOL0     H41924  11.174   3.630  10.388 -0.2309 -1.6579 -0.4005
  311MOL0     H41925  11.284   3.648  10.263 -0.3283  5.0711  2.2731
  311MOL0     H41926  11.333   3.796  10.466 -0.3200  0.0650  0.1975
  311MOL0     H41927  11.354   3.664  10.558 -1.2512  3.0902  0.1882
  311MOL0     H41928  11.556   3.589  10.458 -1.9774  0.0459  1.0547
  311MOL0     H41929  11.533   3.691  10.300 -0.7625  0.5209 -0.6464
  311MOL0     H41930  11.688   3.794  10.417 -0.3322  4.7131 -2.9180
  311MOL0     H41931  11.555   3.895  10.453  2.1119  1.1900  2.0845
  311MOL0     H41932  11.517   3.772  10.669 -1.8570 -2.0477 -3.4004
  311MOL0     H41933  11.676   3.865  10.658  1.1251 -0.8100 -0.5257
  311MOL0     H41934  11.738   3.645  10.768  1.7461 -3.2617 -0.5338
  311MOL0     H41935  11.636   3.567  10.641 -1.5616  2.4013 -4.8087
  311MOL0     H41936  11.918   3.832  10.651 -1.3100  0.3680 -0.6989
  311MOL0     H41937  12.183   3.794  10.423 -0.1995 -3.2095 -0.7298
  311MOL0     H41938  12.158   3.847  10.584 -3.4143  0.8569 -0.7211
  311MOL0     H41939  12.287   3.685  10.690  1.7482 -0.7838  0.1920
  311MOL0     H41940  12.231   3.561  10.573 -2.3078  1.4062  0.0600
  311MOL0     H41941  12.389   3.753  10.442 -3.0479  0.4476 -0.0985
  311MOL0     H41942  12.430   3.579  10.455  2.4833  0.1583  1.3751
  311MOL0     H41943  12.576   3.617  10.642 -0.4143  1.0693  1.2710
  311MOL0     H41944  12.502   3.767  10.680 -1.0494 -0.8929  0.7613
  311MOL0     H41945  12.864   3.854  10.430 -0.3234  0.8733 -1.1714
  311MOL0     H41946  13.043   3.731  10.335  2.2646 -1.7200  1.6743
  311MOL0     H41947  13.311   3.376  10.210  0.3085  1.3182 -0.7527
  311MOL0     H41948  13.466   3.208  10.146 -0.0239  0.9358  0.6446
  311MOL0     H41949  13.543   2.937  10.171  2.1684 -2.1118 -1.6802
  311MOL0     H41950  13.394   2.885  10.233 -0.6437  1.5001  0.9196
  311MOL0     H41951  13.543   2.700  10.197  0.8359  1.8904  0.5096
  311MOL0     H41952  13.400   2.681  10.105  1.0771 -1.5729  0.0053
  311MOL0     H41953  13.586   2.626   9.952 -0.2064  0.5765 -1.6216
  311MOL0     H41954  13.513   2.779   9.901  1.0486  0.2202  0.2665
  311MOL0     H41955  13.766   2.746  10.086  1.0286 -1.1308 -1.5461
  311MOL0     H41956  13.711   2.896  10.028  1.4515 -0.4830  1.2767
  311MOL0     H41957  13.736   2.813   9.797 -8.1029 -1.0730  3.3254
  311MOL0     H41958  13.798   2.662   9.841  0.2506  2.8104 -4.8770
  311MOL0     H41959  13.984   2.764   9.961  2.1703 -2.8889 -3.1665
  311MOL0     H41960  13.987   2.801   9.785 -1.7844 -0.7024 -1.3338
  311MOL0     H41961  14.067   2.970   9.892 -0.3426 -1.3033  0.0976
  311MOL0     H41962  13.923   3.008  10.002  2.0055  1.3699  0.3118
  311MOL0     H41963  13.948   3.035   9.703 -2.0545 -1.7705 -1.5432
  311MOL0     H41964  13.789   3.024   9.785  0.5689  1.5352 -0.2955
  311MOL0     H41965  13.151   2.938  10.047 -0.5837  0.3746 -3.4224
  311MOL0     H41966  12.978   3.130  10.106  0.5709  1.1891 -1.0438
  311MOL0     H41967  12.787   3.377  10.349 -0.2216  0.4998 -1.0242
  311MOL0     H41968  12.626   3.503  10.464  0.4096 -3.0693 -1.2506
  311MOL0     H41969  10.825   3.346  10.386 -1.3080 -1.0752  1.6829
  311MOL0     H41970  10.682   3.181  10.267  1.0655 -3.3313  2.9776
  311MOL0     H41971  10.782   2.855   9.732  0.4185  2.5594  0.4105
  311MOL0     H41972  10.637   2.738   9.599 -0.6816  0.8685 -0.8783
  311MOL0     H41973  10.266   2.809   9.599 -0.4603 -0.6501 -0.1581
  311MOL0     H41974  10.205   2.645   9.619 -3.3552  0.2082 -2.3127
  311MOL0     H41975  10.398   2.719   9.409  0.5939 -0.8518 -0.2065
  311MOL0     H41976  10.221   2.694   9.372 -0.9531 -1.7367  0.0891
  311MOL0     H41977  10.271   2.469   9.494 -0.9056 -0.9248 -0.6154
  311MOL0     H41978  10.438   2.492   9.456 -1.0325 -3.1916  0.8734
  311MOL0     H41979  10.200   2.491   9.258  1.8717  2.8543 -2.5751
  311MOL0     H41980  10.379   2.513   9.214  3.6605 -3.2466  1.2655
  311MOL0     H41981  10.372   2.099   9.275  1.1257  0.2399  1.0722
  311MOL0     H41982  10.322   2.780   9.882  0.5230  0.8268  3.0886
  311MOL0     H41983  10.342   2.950  10.068 -0.5904  3.3144  0.4221
  311MOL0     H41984  10.488   2.935  10.144 -1.1739 -1.8088  0.0365
  311MOL0     H41985  10.455   3.076  10.036 -0.8745 -0.3242 -0.9387
  312MOL0     O41986   8.577   8.554   2.332  0.2202  0.7746 -0.0967
  312MOL0     C41987   8.519   8.655   2.381  0.6140  0.4713  0.3838
  312MOL0     O41988   8.435   8.735   2.310  0.1857 -0.6261  0.0726
  312MOL0     C41989   8.387   8.686   2.189  0.0221 -0.4466  0.0420
  312MOL0     C41990   8.255   8.635   2.186  0.3358  0.3340 -1.0126
  312MOL0     C41991   8.203   8.592   2.064  1.3847  0.2211  0.2471
  312MOL0     C41992   8.284   8.581   1.951  0.3448 -0.2827 -0.5143
  312MOL0     O41993   8.229   8.517   1.842  0.2510 -0.2130 -0.8202
  312MOL0     C41994   8.309   8.512   1.717  0.1180 -0.7744  0.5455
  312MOL0     C41995   8.304   8.652   1.648 -0.0031 -0.5521 -0.5874
  312MOL0     C41996   8.378   8.661   1.518  1.2375  0.6316 -0.4032
  312MOL0     C41997   8.361   8.793   1.446 -0.2587 -0.1904  0.1239
  312MOL0     C41998   8.406   8.914   1.519  0.2949  0.9504  0.0424
  312MOL0     C41999   8.414   9.037   1.423  0.1556 -0.3768  0.8221
  312MOL0     C42000   8.294   9.056   1.335 -0.2485 -0.0390  0.3649
  312MOL0     C42001   8.159   9.076   1.420 -0.4055  1.0476  0.0378
  312MOL0     N42002   8.115   9.212   1.427  0.5012  0.3682 -0.1919
  312MOL0     C42003   8.167   9.318   1.501  0.9362 -0.2162 -1.2162
  312MOL0     C42004   8.076   9.412   1.468  0.3506 -0.0827  0.8137
  312MOL0     C42005   8.090   9.551   1.522  0.3815  1.2391  0.9481
  312MOL0     C42006   7.959   9.628   1.535 -0.4039 -0.0613  0.1278
  312MOL0     C42007   7.872   9.670   1.418 -0.4379  0.1870  0.1377
  312MOL0     C42008   7.908   9.794   1.342 -0.3331 -0.0227 -1.1603
  312MOL0     O42009   7.858   9.918   1.404 -0.0034  0.3725 -0.4120
  312MOL0     C42010   7.821  10.025   1.325  1.5736 -0.5545 -0.3569
  312MOL0     C42011   7.736  10.117   1.385 -0.3120  0.3996  0.3750
  312MOL0     C42012   7.691  10.233   1.331  0.5708  0.1314 -0.5270
  312MOL0     C42013   7.716  10.257   1.201  0.0427 -0.7105  0.2378
  312MOL0     C42014   7.652  10.382   1.137 -0.0483  0.9177 -0.4155
  312MOL0     O42015   7.632  10.382   1.002 -0.0875 -0.3316  0.5187
  312MOL0     C42016   7.535  10.465   0.959  0.2712  0.7071 -0.6761
  312MOL0     C42017   7.562  10.545   0.850  1.3531  0.6258  0.4108
  312MOL0     C42018   7.463  10.630   0.791  0.2586 -0.5925 -0.4732
  312MOL0     C42019   7.352  10.649   0.870 -0.1930  0.6153 -0.1132
  312MOL0     O42020   7.252  10.742   0.837  0.9843 -0.6511  0.2328
  312MOL0     C42021   7.287  10.883   0.873 -0.5429 -0.0567 -0.9864
  312MOL0     C42022   7.155  10.974   0.866 -0.3493 -0.5060  1.2764
  312MOL0     C42023   7.031  10.915   0.925  0.2331  0.2189  0.0597
  312MOL0     C42024   6.906  10.909   0.842  0.3534  0.6526 -0.2180
  312MOL0     C42025   6.887  10.784   0.748  0.1122  0.4560  0.1865
  312MOL0     C42026   6.972  10.801   0.618  0.2569  0.0180 -0.3257
  312MOL0     C42027   6.946  10.697   0.507  0.8351 -0.6224 -0.1896
  312MOL0     C42028   7.037  10.740   0.388  0.3087 -0.1258 -0.6919
  312MOL0    Cl42029   7.206  10.738   0.444  0.0613  0.2324  0.2280
  312MOL0     C42030   7.319  10.565   0.965  0.9395  0.6593  0.2737
  312MOL0     C42031   7.406  10.471   1.019 -0.4276  0.9640  0.4463
  312MOL0     O42032   7.609  10.463   1.221 -0.6504 -0.6123 -0.3152
  312MOL0     C42033   7.798  10.175   1.125 -0.3431  0.1006 -0.2171
  312MOL0     C42034   7.863  10.059   1.195 -0.4583  0.2389  0.8924
  312MOL0     N42035   7.972   9.366   1.397 -0.4149 -0.0438 -0.1594
  312MOL0     N42036   7.989   9.238   1.380 -0.7529 -0.4935  0.1495
  312MOL0     C42037   8.417   8.621   1.955  0.1468 -0.3506  0.2593
  312MOL0     C42038   8.468   8.673   2.079 -0.2693 -0.5786 -0.7090
  312MOL0     C42039   8.589   8.700   2.503  1.2332  0.0372  0.3651
  312MOL0     C42040   8.724   8.729   2.485  0.0540 -0.5638 -0.4589
  312MOL0     C42041   8.795   8.750   2.600  0.2993 -0.2163 -0.4568
  312MOL0     C42042   8.736   8.757   2.726  0.1955  0.5451 -0.0533
  312MOL0     O42043   8.808   8.805   2.831 -0.1979  0.1219 -0.2902
  312MOL0     C42044   8.894   8.706   2.897 -0.0520 -0.1922 -0.8780
  312MOL0     C42045   9.035   8.744   2.909 -0.6133 -0.9099 -0.9130
  312MOL0     C42046   9.064   8.880   2.982 -0.2212  0.2684 -0.2885
  312MOL0     C42047   9.059   8.861   3.128 -1.2092  0.6329 -1.1014
  312MOL0     C42048   8.934   8.901   3.186 -0.0416 -0.1682  0.6168
  312MOL0     C42049   8.830   8.925   3.244  0.9186 -0.4216 -0.7313
  312MOL0     C42050   8.609   8.733   2.741 -0.0196  0.4549 -0.2712
  312MOL0     C42051   8.525   8.710   2.631  0.4809  2.0823 -0.4509
  312MOL0     C42052   8.372   8.688   2.640 -0.0580 -0.6143  0.6160
  312MOL0     H42053   8.199   8.641   2.279  0.4758 -0.1216 -0.8972
  312MOL0     H42054   8.103   8.552   2.050  2.1988 -1.7732 -0.3389
  312MOL0     H42055   8.412   8.481   1.738  0.4385  0.8227  1.4623
  312MOL0     H42056   8.259   8.439   1.653 -1.5987 -1.5697  2.6763
  312MOL0     H42057   8.331   8.728   1.722 -1.8271 -1.4827  1.1203
  312MOL0     H42058   8.200   8.670   1.622  0.1628  0.1237 -0.7947
  312MOL0     H42059   8.356   8.576   1.453 -0.4536 -0.0107  0.9329
  312MOL0     H42060   8.485   8.653   1.541  0.7093 -0.0901  2.1335
  312MOL0     H42061   8.405   8.794   1.346 -2.5132 -0.2644 -0.9454
  312MOL0     H42062   8.254   8.802   1.421  0.1281  1.8948 -0.9711
  312MOL0     H42063   8.334   8.928   1.600 -0.6304  2.8502 -1.0608
  312MOL0     H42064   8.510   8.903   1.554  0.2073  0.9526  0.3080
  312MOL0     H42065   8.419   9.128   1.483  0.9555 -1.9206  3.2302
  312MOL0     H42066   8.507   9.033   1.367 -0.3264 -3.7736  0.0272
  312MOL0     H42067   8.292   8.971   1.266 -0.5127 -1.7331  2.3435
  312MOL0     H42068   8.288   9.143   1.269 -1.6892 -0.7770 -0.5317
  312MOL0     H42069   8.093   9.007   1.367 -0.5063  0.5264  0.8142
  312MOL0     H42070   8.157   9.040   1.524 -0.8484 -0.6163 -0.5176
  312MOL0     H42071   8.237   9.325   1.583 -0.1006 -0.5684 -0.2871
  312MOL0     H42072   8.139   9.553   1.620  0.0071 -0.5950  1.2224
  312MOL0     H42073   8.150   9.603   1.448  0.0128 -0.9767 -1.0390
  312MOL0     H42074   7.907   9.563   1.607  0.3158 -0.9080 -0.0970
  312MOL0     H42075   7.986   9.712   1.600  3.7821 -1.0507 -0.0069
  312MOL0     H42076   7.770   9.679   1.457 -0.3343  2.0105  0.0866
  312MOL0     H42077   7.876   9.593   1.340 -1.1723 -0.6068  0.8722
  312MOL0     H42078   7.850   9.792   1.249 -1.6974 -1.0014 -0.3405
  312MOL0     H42079   8.013   9.814   1.319 -0.3234 -0.3388 -1.3973
  312MOL0     H42080   7.724  10.090   1.490  1.1428  0.5964  0.6135
  312MOL0     H42081   7.641  10.300   1.400 -1.4968 -1.1163 -0.7169
  312MOL0     H42082   7.660  10.533   0.807  0.2325 -1.5773 -1.7729
  312MOL0     H42083   7.492  10.691   0.707  1.8869  0.4372  0.7829
  312MOL0     H42084   7.322  10.888   0.976  1.2754  5.4173 -1.5613
  312MOL0     H42085   7.360  10.929   0.806 -0.1499  0.1652 -0.4094
  312MOL0     H42086   7.174  11.053   0.940  1.9858  1.0005 -0.7589
  312MOL0     H42087   7.141  11.011   0.764 -2.4834 -1.3152  1.2130
  312MOL0     H42088   7.058  10.824   0.980  0.9863  1.2973  1.5501
  312MOL0     H42089   6.991  10.983   1.000 -0.5691 -1.1523  0.9009
  312MOL0     H42090   6.890  11.002   0.787  3.0725  2.4229  1.7232
  312MOL0     H42091   6.824  10.894   0.913  0.1252 -2.7884 -1.0075
  312MOL0     H42092   6.788  10.768   0.704 -0.2892  0.5699  1.0248
  312MOL0     H42093   6.920  10.698   0.808 -0.2119  1.7378  2.3368
  312MOL0     H42094   6.951  10.902   0.580  0.1529  1.1303  2.4456
  312MOL0     H42095   7.074  10.809   0.657  0.0339  3.0931 -0.1112
  312MOL0     H42096   6.843  10.714   0.475 -0.0600 -3.6813  0.6659
  312MOL0     H42097   6.960  10.591   0.534 -2.8731 -0.9250  1.1743
  312MOL0     H42098   7.016  10.665   0.311 -1.4054  2.9179 -3.4555
  312MOL0     H42099   7.020  10.844   0.357 -0.5018  0.1847  0.7003
  312MOL0     H42100   7.226  10.583   1.019  1.0220 -3.1325  2.0092
  312MOL0     H42101   7.377  10.410   1.104  3.2857  0.3184  1.4135
  312MOL0     H42102   7.829  10.193   1.023  0.9826  0.8106  0.2788
  312MOL0     H42103   7.937  10.004   1.138 -0.1610  1.3197  0.2020
  312MOL0     H42104   8.489   8.617   1.874 -0.5027  1.9025 -0.5140
  312MOL0     H42105   8.570   8.709   2.093 -0.8477  0.6938  0.5169
  312MOL0     H42106   8.772   8.732   2.387 -0.7492  0.7030 -0.8423
  312MOL0     H42107   8.901   8.769   2.612  0.0188  0.8437  0.5197
  312MOL0     H42108   8.886   8.611   2.844  0.6142 -1.0052  0.4337
  312MOL0     H42109   8.849   8.692   2.996 -2.2964 -1.2902 -1.9764
  312MOL0     H42110   9.065   8.765   2.806  2.5562  2.5321  0.5017
  312MOL0     H42111   9.093   8.661   2.951 -3.8656 -1.4870  3.1436
  312MOL0     H42112   9.003   8.966   2.954  0.2974  1.3173  1.5874
  312MOL0     H42113   9.163   8.916   2.953  0.3047 -1.8447 -1.3209
  312MOL0     H42114   9.060   8.760   3.171  1.1332  0.1858 -2.0570
  312MOL0     H42115   9.141   8.917   3.174 -1.9765 -0.7800  2.2531
  312MOL0     H42116   8.734   8.946   3.285  0.8184  0.3303 -1.3331
  312MOL0     H42117   8.563   8.740   2.840 -0.8058 -0.5994 -0.5440
  312MOL0     H42118   8.349   8.589   2.598  3.3290  0.4453 -4.6700
  312MOL0     H42119   8.337   8.686   2.744  2.3058  1.0168  1.5116
  312MOL0     H42120   8.318   8.770   2.591 -0.3684 -1.3908 -0.3789
  313MOL0     O42121   0.098   0.728   0.820 -0.1242 -0.8509 -0.4450
  313MOL0     C42122   0.201   0.675   0.851 -0.1492 -0.7616 -0.1217
  313MOL0     O42123   0.278   0.712   0.957  0.3378 -0.0303 -0.1300
  313MOL0     C42124   0.221   0.789   1.061  0.1312 -0.3394  0.1216
  313MOL0     C42125   0.300   0.889   1.112 -0.2558  0.7510 -0.3399
  313MOL0     C42126   0.245   0.968   1.219  0.3472 -0.2983  0.7485
  313MOL0     C42127   0.108   0.958   1.255 -0.3136 -0.3999  0.7535
  313MOL0     O42128   0.048   1.052   1.330 -0.0337 -0.5889 -0.4179
  313MOL0     C42129  -0.031   1.150   1.261 -0.2677 -0.3282  0.5180
  313MOL0     C42130  -0.130   1.234   1.345 -0.4861  0.4463 -0.8257
  313MOL0     C42131  -0.116   1.383   1.319  0.5274 -0.2769 -0.0922
  313MOL0     C42132  -0.199   1.462   1.423  0.8108 -0.0881 -0.0738
  313MOL0     C42133  -0.192   1.608   1.396  0.2944 -1.4632  0.6235
  313MOL0     C42134  -0.273   1.694   1.500 -0.0374  0.2836  0.5104
  313MOL0     C42135  -0.353   1.809   1.437  0.3617 -0.1812  0.5614
  313MOL0     C42136  -0.449   1.873   1.540  0.7293 -0.4717 -1.0418
  313MOL0     N42137  -0.556   1.963   1.489 -0.2954 -0.0575  0.4424
  313MOL0     C42138  -0.653   2.019   1.567  0.5845  0.4302  0.3051
  313MOL0     C42139  -0.700   2.120   1.489 -1.3184  0.1623 -0.4964
  313MOL0     C42140  -0.805   2.221   1.533 -0.0636 -0.0307 -0.0642
  313MOL0     C42141  -0.916   2.231   1.428  0.0272 -0.5125 -0.5731
  313MOL0     C42142  -1.012   2.357   1.471  0.4228  0.3320  0.5303
  313MOL0     C42143  -1.153   2.353   1.401  0.1350 -0.1125  0.3917
  313MOL0     O42144  -1.220   2.476   1.370  0.2046  0.2550  0.4796
  313MOL0     C42145  -1.303   2.533   1.461 -0.9204 -0.0196 -0.2263
  313MOL0     C42146  -1.371   2.647   1.420  0.7268  0.3902  0.2410
  313MOL0     C42147  -1.470   2.712   1.502  0.3783 -0.0265 -0.2135
  313MOL0     C42148  -1.479   2.673   1.639  0.4986  0.3778  1.1405
  313MOL0     C42149  -1.544   2.756   1.743 -0.0337  0.5278 -1.3725
  313MOL0     O42150  -1.567   2.699   1.871 -0.7529 -0.0704  0.3192
  313MOL0     C42151  -1.644   2.774   1.962 -0.3166  0.3561  0.0202
  313MOL0     C42152  -1.579   2.867   2.043 -0.2758 -0.7835  0.1278
  313MOL0     C42153  -1.646   2.945   2.128 -0.3829  0.4369  0.1336
  313MOL0     C42154  -1.781   2.930   2.144 -1.1581  0.7343 -0.1135
  313MOL0     O42155  -1.835   3.019   2.231  0.4096 -0.0708  0.3413
  313MOL0     C42156  -1.977   3.000   2.252 -0.1616  0.1025  0.4689
  313MOL0     C42157  -2.023   3.050   2.380  0.2242  0.4921 -0.9013
  313MOL0     C42158  -1.969   2.954   2.493 -0.7111  0.2659 -0.4035
  313MOL0     C42159  -2.001   3.013   2.629 -0.0547  0.0411  0.1127
  313MOL0     C42160  -1.942   2.927   2.743  0.6121  0.4385  0.8190
  313MOL0     C42161  -1.786   2.921   2.766 -0.1413  0.6814  0.1029
  313MOL0     C42162  -1.736   3.059   2.741 -0.9214  0.1482  1.0300
  313MOL0     C42163  -1.591   3.068   2.789  0.3156 -0.0127  0.1349
  313MOL0    Cl42164  -1.595   3.135   2.957  0.0212  0.3665 -0.0949
  313MOL0     C42165  -1.850   2.834   2.060 -0.5130 -0.1977 -0.2048
  313MOL0     C42166  -1.777   2.753   1.975  0.4264  0.1904 -0.8500
  313MOL0     O42167  -1.562   2.870   1.712  0.3328  0.4532 -0.6069
  313MOL0     C42168  -1.411   2.559   1.687 -0.4048  0.0367  0.6095
  313MOL0     C42169  -1.317   2.497   1.602  0.8235 -0.7417  0.8137
  313MOL0     N42170  -0.642   2.108   1.364  0.0060  0.0965 -0.4235
  313MOL0     N42171  -0.546   2.027   1.366 -0.4747 -0.6264  0.2747
  313MOL0     C42172   0.032   0.865   1.192  0.4710  0.7158 -0.0640
  313MOL0     C42173   0.087   0.776   1.102  1.1602  0.5084 -0.3088
  313MOL0     C42174   0.247   0.574   0.756 -0.9149 -0.1392  0.3132
  313MOL0     C42175   0.374   0.514   0.770  0.9802  0.2528 -0.0267
  313MOL0     C42176   0.413   0.400   0.700 -0.4454  0.6199  0.4074
  313MOL0     C42177   0.333   0.361   0.596 -0.7332  0.7485  0.8986
  313MOL0     O42178   0.387   0.251   0.534  1.7315  0.4556 -0.7942
  313MOL0     C42179   0.320   0.201   0.417  0.2137 -0.1521 -0.2389
  313MOL0     C42180   0.421   0.101   0.351 -0.9577 -0.7907 -0.5660
  313MOL0     C42181   0.564   0.171   0.329 -0.0774 -0.0985  1.5163
  313MOL0     C42182   0.557   0.291   0.228  0.5422  0.4976  0.0778
  313MOL0     C42183   0.682   0.323   0.171  0.0619 -0.6623  0.2145
  313MOL0     C42184   0.787   0.334   0.123  0.4818  0.2908  0.6586
  313MOL0     C42185   0.213   0.417   0.569 -0.9892  0.3613  0.3227
  313MOL0     C42186   0.167   0.519   0.658  1.1634 -0.6397 -0.3294
  313MOL0     C42187   0.028   0.551   0.623  0.6722  0.4061 -0.4188
  313MOL0     H42188   0.399   0.902   1.070  0.7362 -0.2580  1.5296
  313MOL0     H42189   0.295   1.054   1.263 -2.8724 -0.3780  5.2684
  313MOL0     H42190   0.038   1.216   1.208  0.8468 -1.3015  0.7262
  313MOL0     H42191  -0.089   1.100   1.183  2.1357  3.3100 -4.1830
  313MOL0     H42192  -0.101   1.227   1.450  1.0458 -0.1930 -1.2620
  313MOL0     H42193  -0.234   1.208   1.323  0.6678 -2.3753 -3.7829
  313MOL0     H42194  -0.159   1.397   1.220  1.2958 -0.0312 -0.3998
  313MOL0     H42195  -0.011   1.414   1.314  0.3724  0.5199  1.0359
  313MOL0     H42196  -0.302   1.430   1.438  1.2053 -0.7232  1.4479
  313MOL0     H42197  -0.155   1.440   1.521  1.5215  1.3173 -0.0591
  313MOL0     H42198  -0.089   1.643   1.400 -0.3627  0.5704  0.6454
  313MOL0     H42199  -0.220   1.627   1.292  1.2710 -1.7693  0.2922
  313MOL0     H42200  -0.342   1.629   1.555 -0.9930  1.8994  1.3057
  313MOL0     H42201  -0.200   1.724   1.576  0.3829 -0.0964  0.2559
  313MOL0     H42202  -0.409   1.775   1.350  0.3506  0.6171  0.2517
  313MOL0     H42203  -0.281   1.889   1.415  0.3499 -0.9929 -2.9913
  313MOL0     H42204  -0.513   1.800   1.589 -2.5012  1.2161 -2.4253
  313MOL0     H42205  -0.386   1.912   1.621  0.5813  1.2923 -1.7399
  313MOL0     H42206  -0.681   2.000   1.670 -0.0099  3.7081  0.8599
  313MOL0     H42207  -0.840   2.196   1.634 -0.7761  1.2300  0.0184
  313MOL0     H42208  -0.758   2.319   1.533  0.4391 -0.2015 -2.5935
  313MOL0     H42209  -0.875   2.262   1.332  1.3218  2.3630  0.7564
  313MOL0     H42210  -0.972   2.138   1.418 -1.8363  0.6296 -1.4203
  313MOL0     H42211  -0.960   2.451   1.449  0.6756 -0.0766 -0.7046
  313MOL0     H42212  -1.020   2.358   1.581  2.0269  1.3157  0.6829
  313MOL0     H42213  -1.224   2.287   1.451 -0.9397  0.4374 -0.3688
  313MOL0     H42214  -1.131   2.304   1.305  2.3607 -1.2615  1.4176
  313MOL0     H42215  -1.353   2.676   1.317 -0.8989 -0.4398 -0.3055
  313MOL0     H42216  -1.538   2.791   1.471  1.1710  0.7993  0.0936
  313MOL0     H42217  -1.476   2.893   2.021 -0.3807  0.1491  0.7098
  313MOL0     H42218  -1.589   3.028   2.169  4.2151 -0.7968 -2.9226
  313MOL0     H42219  -2.022   3.050   2.166 -0.0545 -3.1508 -1.6480
  313MOL0     H42220  -2.000   2.893   2.256 -0.2549  0.0238 -1.4822
  313MOL0     H42221  -1.987   3.153   2.393  0.1496  0.4725 -0.5312
  313MOL0     H42222  -2.131   3.055   2.397  0.1302 -0.9167 -0.9516
  313MOL0     H42223  -2.000   2.851   2.473 -1.1604  0.0895  1.1295
  313MOL0     H42224  -1.860   2.943   2.487 -0.8873 -1.3628 -1.5597
  313MOL0     H42225  -2.110   3.012   2.633 -0.0710  2.0869  1.0540
  313MOL0     H42226  -1.978   3.120   2.634 -3.3482  0.9130 -0.7693
  313MOL0     H42227  -1.981   2.825   2.740 -2.4701  1.5096  0.7119
  313MOL0     H42228  -1.984   2.977   2.831  0.1098  1.1999  0.1627
  313MOL0     H42229  -1.764   2.893   2.869 -0.8236 -1.5587 -0.3022
  313MOL0     H42230  -1.733   2.854   2.698 -0.9168  1.2476 -1.0982
  313MOL0     H42231  -1.795   3.135   2.793  0.0183  0.0852  2.2375
  313MOL0     H42232  -1.743   3.100   2.640  0.3843 -0.5455  0.6385
  313MOL0     H42233  -1.540   2.971   2.787  1.7109  0.6568  1.2588
  313MOL0     H42234  -1.528   3.133   2.727  0.8197  0.0906  0.7448
  313MOL0     H42235  -1.955   2.812   2.069 -0.4901 -1.0584 -1.7143
  313MOL0     H42236  -1.830   2.676   1.920 -0.8489 -1.0754  1.9639
  313MOL0     H42237  -1.423   2.511   1.783 -0.0274 -0.9037  0.1944
  313MOL0     H42238  -1.259   2.416   1.646 -0.8178 -2.3586  0.1714
  313MOL0     H42239  -0.075   0.872   1.204  0.1788  1.2080 -2.4776
  313MOL0     H42240   0.021   0.704   1.054  1.2544  0.7067 -0.7357
  313MOL0     H42241   0.433   0.566   0.845  1.1028  0.4236 -0.2383
  313MOL0     H42242   0.504   0.346   0.726 -0.7256  1.2160  2.9802
  313MOL0     H42243   0.301   0.284   0.348 -0.1915  1.2437  1.4531
  313MOL0     H42244   0.223   0.156   0.439  0.0323 -0.3652 -1.4138
  313MOL0     H42245   0.400   0.072   0.248  2.3266 -1.5720 -1.1243
  313MOL0     H42246   0.430   0.008   0.408 -0.2170  0.2452  1.0913
  313MOL0     H42247   0.618   0.091   0.277  0.2803  0.8540  0.3624
  313MOL0     H42248   0.618   0.191   0.421  1.2513 -3.4821  1.6048
  313MOL0     H42249   0.484   0.272   0.149 -1.6455 -1.4997  2.4252
  313MOL0     H42250   0.523   0.384   0.273 -4.4372 -0.1009 -1.7723
  313MOL0     H42251   0.888   0.324   0.089  0.8934  2.2569  1.2223
  313MOL0     H42252   0.154   0.378   0.487  0.3715  0.7000 -0.8561
  313MOL0     H42253  -0.013   0.484   0.547  0.8787  0.2847 -0.4233
  313MOL0     H42254  -0.042   0.570   0.705  2.8524  0.5542  1.4876
  313MOL0     H42255   0.024   0.648   0.573 -1.4294  0.7196  0.2461
  314MOL0     O42256   5.865   2.964   6.402  0.8574 -0.0199 -0.3820
  314MOL0     C42257   5.910   3.080   6.401  0.6110 -1.0108  0.3241
  314MOL0     O42258   5.998   3.128   6.304 -0.5509  0.5240  0.5836
  314MOL0     C42259   6.025   3.042   6.200  0.0894  0.7327 -0.3113
  314MOL0     C42260   6.154   2.982   6.194 -0.0417  0.3156 -0.3637
  314MOL0     C42261   6.176   2.883   6.102 -0.3879  0.3278  1.1983
  314MOL0     C42262   6.074   2.835   6.018 -0.0763 -0.0921  0.0888
  314MOL0     O42263   6.105   2.721   5.948 -0.2077 -0.0588 -0.5952
  314MOL0     C42264   6.106   2.604   6.028 -0.5615  0.1622  1.1093
  314MOL0     C42265   6.222   2.513   5.983  0.8616 -0.6289  0.4726
  314MOL0     C42266   6.239   2.385   6.067  0.7101  0.1001 -1.4762
  314MOL0     C42267   6.139   2.265   6.037 -0.5261  0.0341  0.2145
  314MOL0     C42268   6.184   2.144   6.095 -0.2855  0.7995  0.4215
  314MOL0     C42269   6.078   2.036   6.071 -0.3750  0.4865  0.5840
  314MOL0     C42270   6.103   1.889   6.112  0.3803 -1.1709  0.4905
  314MOL0     C42271   5.974   1.794   6.130  0.3477 -0.3269  0.5851
  314MOL0     N42272   6.027   1.660   6.152 -0.3410 -0.1823 -0.3506
  314MOL0     C42273   6.121   1.632   6.252 -0.2018  0.4654  0.4134
  314MOL0     C42274   6.143   1.495   6.240 -0.3375 -0.3741 -0.6053
  314MOL0     C42275   6.237   1.418   6.329 -0.0392  0.0587  0.5883
  314MOL0     C42276   6.371   1.409   6.261  0.3145 -1.5260  1.0434
  314MOL0     C42277   6.498   1.438   6.350  0.2958  0.5312 -0.4144
  314MOL0     C42278   6.517   1.585   6.377  0.2564  0.4868  0.1566
  314MOL0     O42279   6.513   1.677   6.263  0.4235  0.3440  0.5430
  314MOL0     C42280   6.492   1.811   6.284  0.0554  0.5149  0.6318
  314MOL0     C42281   6.434   1.877   6.392  0.7735 -0.1906  0.7174
  314MOL0     C42282   6.425   2.015   6.408 -1.0050 -0.6155 -0.2720
  314MOL0     C42283   6.480   2.095   6.315  0.3386 -0.2166  0.5596
  314MOL0     C42284   6.474   2.245   6.324  0.2154  0.6802  1.1866
  314MOL0     O42285   6.557   2.317   6.244 -0.2555  0.7733  0.1247
  314MOL0     C42286   6.560   2.451   6.258  0.0173  0.1404 -0.0120
  314MOL0     C42287   6.573   2.528   6.373  1.0632  0.3126 -0.6624
  314MOL0     C42288   6.588   2.667   6.374  0.5896  0.1227  1.1926
  314MOL0     C42289   6.589   2.731   6.253 -0.1904  0.0754  0.0986
  314MOL0     O42290   6.589   2.865   6.256 -0.4381 -0.6935 -0.7882
  314MOL0     C42291   6.650   2.946   6.155  0.3962  1.3376 -0.6020
  314MOL0     C42292   6.542   3.044   6.102 -0.8648 -0.4288  0.3958
  314MOL0     C42293   6.547   3.184   6.159 -0.4539  0.1949 -0.6071
  314MOL0     C42294   6.671   3.267   6.123  0.0844  0.3500 -0.7738
  314MOL0     C42295   6.690   3.392   6.204  1.0049 -0.2819  0.8138
  314MOL0     C42296   6.801   3.476   6.143 -1.4528 -0.1020 -0.4544
  314MOL0     C42297   6.846   3.591   6.225  0.4453 -0.2022 -0.0991
  314MOL0     C42298   6.969   3.669   6.158 -0.4199  1.4134  0.1578
  314MOL0    Cl42299   6.995   3.791   6.281 -0.2869 -0.1736  0.2272
  314MOL0     C42300   6.583   2.665   6.135 -0.5872  1.2238  0.6308
  314MOL0     C42301   6.566   2.527   6.141 -0.6189 -0.3908 -0.5674
  314MOL0     O42302   6.373   2.280   6.378  0.1838 -0.5837  0.4298
  314MOL0     C42303   6.528   2.034   6.201  0.6511 -0.4282  0.8264
  314MOL0     C42304   6.522   1.897   6.184 -0.9743 -0.0179 -0.2380
  314MOL0     N42305   6.068   1.454   6.126  0.0505  0.6162 -0.9621
  314MOL0     N42306   6.005   1.555   6.072  0.8203  0.2826 -0.8259
  314MOL0     C42307   5.948   2.894   6.024 -0.7886 -0.3222  1.0258
  314MOL0     C42308   5.930   3.003   6.107  0.0818 -0.8175 -0.0565
  314MOL0     C42309   5.860   3.180   6.509 -0.0517  1.0248  0.1295
  314MOL0     C42310   5.876   3.320   6.480 -0.1676 -0.0025  1.1446
  314MOL0     C42311   5.809   3.408   6.559 -0.3283 -0.2474 -0.3941
  314MOL0     C42312   5.748   3.371   6.682 -0.1457 -0.3708  0.0296
  314MOL0     O42313   5.694   3.474   6.748 -0.1523  0.0925 -0.6642
  314MOL0     C42314   5.662   3.463   6.885 -0.2242 -0.0665  0.0836
  314MOL0     C42315   5.667   3.616   6.927 -1.3677  0.9993 -1.3389
  314MOL0     C42316   5.663   3.626   7.078  0.9597 -0.1317  0.2662
  314MOL0     C42317   5.739   3.750   7.131 -0.7256  0.6060  0.5390
  314MOL0     C42318   5.745   3.728   7.275  0.3162 -0.9590  0.4583
  314MOL0     C42319   5.745   3.724   7.397  0.1718 -0.9641 -0.0060
  314MOL0     C42320   5.741   3.239   6.714  1.1191  0.7283  0.2697
  314MOL0     C42321   5.783   3.135   6.625  0.4256 -0.7762 -0.1139
  314MOL0     C42322   5.766   2.988   6.666  0.5662 -0.2749  0.0861
  314MOL0     H42323   6.239   3.011   6.255  0.1996 -0.0986 -0.4998
  314MOL0     H42324   6.276   2.840   6.097 -0.0817  1.1587 -1.7012
  314MOL0     H42325   6.092   2.623   6.135 -4.8076  2.0186  0.4126
  314MOL0     H42326   6.017   2.548   6.000 -0.8074  1.2930 -0.4917
  314MOL0     H42327   6.318   2.565   5.986  1.1376 -0.9594 -1.2988
  314MOL0     H42328   6.218   2.485   5.877  1.1948 -1.0388  0.5624
  314MOL0     H42329   6.231   2.407   6.174 -0.4700 -0.8536 -1.3463
  314MOL0     H42330   6.337   2.338   6.052  0.1530 -1.1696 -1.2520
  314MOL0     H42331   6.035   2.285   6.065 -1.6749 -0.8082 -3.0048
  314MOL0     H42332   6.130   2.241   5.930 -3.7562  0.5293  0.2701
  314MOL0     H42333   6.284   2.124   6.055 -0.8028  1.1073 -1.0709
  314MOL0     H42334   6.192   2.159   6.203  3.4169 -2.0598  0.7838
  314MOL0     H42335   5.986   2.065   6.122 -0.8917  1.5804 -0.9121
  314MOL0     H42336   6.052   2.038   5.965  1.7378 -1.8380 -0.0936
  314MOL0     H42337   6.146   1.897   6.212 -0.5924  1.1596  0.7954
  314MOL0     H42338   6.174   1.844   6.043  1.3635  0.5929  0.2864
  314MOL0     H42339   5.913   1.822   6.216 -0.8746 -1.8972  0.2734
  314MOL0     H42340   5.920   1.802   6.035 -0.3054  0.5947  1.0207
  314MOL0     H42341   6.170   1.701   6.320  0.5876  1.1292 -0.8066
  314MOL0     H42342   6.245   1.465   6.427 -1.6184  1.5270  0.0604
  314MOL0     H42343   6.197   1.316   6.338 -1.7897  0.5620 -0.9826
  314MOL0     H42344   6.377   1.311   6.212 -1.1112 -0.8281 -0.6414
  314MOL0     H42345   6.370   1.471   6.171 -0.3306  0.3463  2.2860
  314MOL0     H42346   6.588   1.391   6.310  1.4255  0.5074  1.9653
  314MOL0     H42347   6.475   1.391   6.446  2.0437  0.0737 -0.1719
  314MOL0     H42348   6.616   1.586   6.424 -0.4966 -0.9993  1.9101
  314MOL0     H42349   6.438   1.611   6.449  0.2713 -1.4671  0.9281
  314MOL0     H42350   6.395   1.819   6.475  1.7851 -0.7316  0.8331
  314MOL0     H42351   6.403   2.058   6.505  0.3113 -0.4690 -0.0246
  314MOL0     H42352   6.563   2.476   6.468 -0.6301 -0.9419 -1.4828
  314MOL0     H42353   6.577   2.720   6.468 -3.0308 -0.1118  1.0130
  314MOL0     H42354   6.736   2.999   6.195  1.6245 -1.8468  1.3131
  314MOL0     H42355   6.701   2.883   6.081  2.0073 -3.3350  3.8853
  314MOL0     H42356   6.571   3.057   5.997 -1.2073  2.8871  0.6345
  314MOL0     H42357   6.444   2.995   6.106  0.0739 -2.5189 -0.4150
  314MOL0     H42358   6.464   3.248   6.129  1.6721  3.1079 -0.7081
  314MOL0     H42359   6.546   3.180   6.269 -3.4266  1.5736 -0.5004
  314MOL0     H42360   6.666   3.287   6.016 -3.7600  2.2104 -0.4313
  314MOL0     H42361   6.759   3.202   6.124 -1.5350 -1.9570 -0.7303
  314MOL0     H42362   6.710   3.367   6.309  1.5236  0.0500  0.7977
  314MOL0     H42363   6.600   3.454   6.193  0.0589 -1.6114  0.8172
  314MOL0     H42364   6.888   3.412   6.124 -0.9946 -0.8516  3.2701
  314MOL0     H42365   6.765   3.512   6.047 -2.2158 -1.3322 -0.6518
  314MOL0     H42366   6.863   3.559   6.328 -3.2325  1.2880  1.1468
  314MOL0     H42367   6.761   3.660   6.219  1.2784  1.0290  1.3929
  314MOL0     H42368   7.055   3.605   6.140  0.5424  1.8104  2.8933
  314MOL0     H42369   6.928   3.712   6.066 -4.1283  0.5555  1.2013
  314MOL0     H42370   6.586   2.705   6.035 -0.6938  1.6007  0.7792
  314MOL0     H42371   6.573   2.471   6.048 -0.6631 -0.3690 -0.5838
  314MOL0     H42372   6.574   2.086   6.118  2.4574 -3.8278 -0.4915
  314MOL0     H42373   6.565   1.873   6.088  1.4072 -0.4553  0.8734
  314MOL0     H42374   5.871   2.855   5.959  3.3862 -3.4363 -2.6947
  314MOL0     H42375   5.838   3.059   6.122  1.9940  2.4393  0.4968
  314MOL0     H42376   5.934   3.363   6.400  1.5982 -0.8354  1.9292
  314MOL0     H42377   5.805   3.513   6.532  0.6809  0.0487  0.5504
  314MOL0     H42378   5.735   3.402   6.939 -0.6870 -1.4394 -0.7887
  314MOL0     H42379   5.567   3.410   6.900  0.7390 -1.2943  2.4230
  314MOL0     H42380   5.604   3.690   6.876  0.3919  1.1688 -3.4128
  314MOL0     H42381   5.769   3.643   6.899 -1.8340  0.8123 -3.4295
  314MOL0     H42382   5.723   3.541   7.113  1.9733  1.3405  2.3186
  314MOL0     H42383   5.565   3.614   7.126 -0.1199  1.8005 -1.3219
  314MOL0     H42384   5.843   3.758   7.096 -0.6153 -1.1826  0.3826
  314MOL0     H42385   5.701   3.848   7.100  0.7577  0.3621 -2.3490
  314MOL0     H42386   5.732   3.722   7.503  0.6189 -2.8121  0.0418
  314MOL0     H42387   5.691   3.215   6.808 -0.8132  0.1779 -0.8471
  314MOL0     H42388   5.682   2.942   6.613 -2.3967  1.3781  2.9356
  314MOL0     H42389   5.862   2.936   6.665  0.8006  0.0909  1.3473
  314MOL0     H42390   5.730   2.996   6.769 -4.5834  3.4751 -1.5867
  315MOL0     O42391   0.252   8.973  11.447 -0.3775 -0.5415  0.2305
  315MOL0     C42392   0.276   8.914  11.550  0.2188 -0.1223 -0.1966
  315MOL0     O42393   0.240   8.792  11.570  0.1012  0.8097 -0.0365
  315MOL0     C42394   0.184   8.724  11.455 -0.3700  0.0620  0.2333
  315MOL0     C42395   0.047   8.699  11.445  0.1841 -0.0004  0.8870
  315MOL0     C42396  -0.000   8.636  11.328  0.0565 -0.9688 -0.3286
  315MOL0     C42397   0.082   8.607  11.223  0.3081 -0.3540  0.9522
  315MOL0     O42398   0.010   8.564  11.112 -0.0090  0.5305  0.4461
  315MOL0     C42399   0.077   8.469  11.028  0.8816  0.1378 -0.6972
  315MOL0     C42400  -0.020   8.356  11.014  0.1340 -0.3275 -0.2161
  315MOL0     C42401   0.035   8.228  10.937 -0.5707 -0.7378  0.2860
  315MOL0     C42402  -0.078   8.122  10.924  0.2896  0.6285 -0.0611
  315MOL0     C42403  -0.165   8.111  11.053 -0.5481  0.3642 -0.7374
  315MOL0     C42404  -0.280   8.012  11.025 -0.0844 -0.1332  0.3775
  315MOL0     C42405  -0.378   8.031  11.151 -0.4803 -0.6164  0.9200
  315MOL0     C42406  -0.521   7.978  11.126 -0.2980  0.1538  0.3844
  315MOL0     N42407  -0.608   7.997  11.240 -0.1809  0.8736 -0.1669
  315MOL0     C42408  -0.673   8.113  11.273  0.2573 -0.4927 -0.1642
  315MOL0     C42409  -0.736   8.091  11.395 -0.0906  0.3007 -1.1423
  315MOL0     C42410  -0.799   8.190  11.496 -0.2099 -0.5178 -0.2037
  315MOL0     C42411  -0.724   8.205  11.630 -0.5119 -0.2805 -0.6925
  315MOL0     C42412  -0.585   8.261  11.614 -0.1368 -0.1423  0.1857
  315MOL0     C42413  -0.501   8.258  11.738 -0.0515 -0.7182  0.1130
  315MOL0     O42414  -0.376   8.321  11.701 -0.6666 -0.1029  0.2020
  315MOL0     C42415  -0.291   8.342  11.810 -0.8986  0.1118 -0.0647
  315MOL0     C42416  -0.276   8.244  11.906  0.1468 -0.2608 -0.8075
  315MOL0     C42417  -0.193   8.267  12.023 -0.0797  0.7431  0.1110
  315MOL0     C42418  -0.121   8.381  12.029  0.3056  0.5721  0.4069
  315MOL0     C42419  -0.029   8.406  12.153 -0.6445  0.2582  0.1997
  315MOL0     O42420   0.025   8.529  12.179 -0.0032 -0.2845  0.3534
  315MOL0     C42421   0.123   8.537  12.273 -0.0332 -0.7117  0.3910
  315MOL0     C42422   0.243   8.475  12.262 -0.4555 -0.5706 -0.5428
  315MOL0     C42423   0.333   8.463  12.370  0.7108 -0.9718  0.3974
  315MOL0     C42424   0.301   8.542  12.486 -0.3201  0.7959  0.5388
  315MOL0     O42425   0.384   8.557  12.598  0.0569 -0.0465 -0.1105
  315MOL0     C42426   0.507   8.501  12.590 -0.7456  0.4343 -0.7098
  315MOL0     C42427   0.570   8.525  12.729 -0.1117  0.3263  0.3699
  315MOL0     C42428   0.699   8.433  12.741 -0.4214 -0.6471  0.1652
  315MOL0     C42429   0.763   8.445  12.881  0.0533 -0.2366  1.1227
  315MOL0     C42430   0.873   8.341  12.894 -0.5442 -0.7611  0.2352
  315MOL0     C42431   0.928   8.345  13.040 -0.1249  0.1934  0.4425
  315MOL0     C42432   0.996   8.480  13.070  1.0067 -0.1280 -0.7540
  315MOL0     C42433   1.099   8.498  13.183  0.1141 -0.6001 -0.2741
  315MOL0    Cl42434   1.055   8.402  13.318 -0.2864  0.5491 -0.1295
  315MOL0     C42435   0.186   8.618  12.487 -0.1239  0.0355  0.6616
  315MOL0     C42436   0.097   8.620  12.384 -0.3117  1.0940  1.4515
  315MOL0     O42437  -0.010   8.310  12.224 -0.4472  0.2145 -0.5130
  315MOL0     C42438  -0.128   8.482  11.924  0.4908 -0.5562 -0.2613
  315MOL0     C42439  -0.221   8.462  11.817 -0.0415  0.6351  0.3030
  315MOL0     N42440  -0.699   7.964  11.440 -0.7353 -1.5103  0.5801
  315MOL0     N42441  -0.615   7.918  11.351 -0.1232  0.9513  0.4306
  315MOL0     C42442   0.214   8.639  11.227  0.0314  0.0321  0.4731
  315MOL0     C42443   0.262   8.699  11.343 -0.4219  0.8062  0.2332
  315MOL0     C42444   0.318   8.977  11.680 -0.2692  0.1262 -0.0616
  315MOL0     C42445   0.328   8.888  11.789 -0.6250  0.6113 -0.0474
  315MOL0     C42446   0.381   8.927  11.915 -0.2841 -0.6052 -0.0852
  315MOL0     C42447   0.413   9.057  11.936 -0.6594  0.2525  0.7598
  315MOL0     O42448   0.476   9.092  12.055  0.0814 -0.0323  0.5307
  315MOL0     C42449   0.577   9.196  12.041  0.3822 -0.7317  0.1345
  315MOL0     C42450   0.679   9.213  12.151  0.8161 -0.3532  0.3298
  315MOL0     C42451   0.601   9.258  12.275 -0.1925  0.0935 -0.2580
  315MOL0     C42452   0.683   9.259  12.401 -0.3032 -0.1722 -0.5553
  315MOL0     C42453   0.597   9.295  12.519 -0.6024  0.3015  0.5148
  315MOL0     C42454   0.544   9.309  12.621 -0.0040  0.0759  0.8127
  315MOL0     C42455   0.398   9.147  11.830  0.0343 -0.8143 -0.3353
  315MOL0     C42456   0.335   9.116  11.706  0.2825 -0.0877 -0.5126
  315MOL0     C42457   0.326   9.237  11.608 -0.2003 -0.1238  1.3993
  315MOL0     H42458  -0.011   8.717  11.535  1.9486 -2.1871  2.6030
  315MOL0     H42459  -0.106   8.612  11.331 -0.3019  0.3060  4.2519
  315MOL0     H42460   0.104   8.516  10.933  0.6876  0.4225 -0.6125
  315MOL0     H42461   0.165   8.428  11.079  1.2171  1.5179 -0.1089
  315MOL0     H42462  -0.105   8.387  10.953 -0.0957  1.5858  0.9979
  315MOL0     H42463  -0.055   8.337  11.116 -1.1411 -1.7743 -0.8880
  315MOL0     H42464   0.130   8.190  10.977  0.4071  0.1292 -1.1076
  315MOL0     H42465   0.071   8.257  10.838  0.6734 -1.6589  0.4425
  315MOL0     H42466  -0.145   8.142  10.840 -0.3190  1.4535  0.6130
  315MOL0     H42467  -0.041   8.022  10.898 -0.2701  1.0314 -2.7467
  315MOL0     H42468  -0.100   8.073  11.132  2.2628 -2.0930 -3.9509
  315MOL0     H42469  -0.215   8.209  11.062  1.7180  1.5339 -0.1775
  315MOL0     H42470  -0.330   8.061  10.941  0.4376  3.0492  1.7688
  315MOL0     H42471  -0.244   7.913  10.995  1.3939  1.1709 -2.5441
  315MOL0     H42472  -0.383   8.137  11.176  0.9609 -0.4644  0.6638
  315MOL0     H42473  -0.330   7.993  11.242  2.1223  2.1809  0.8883
  315MOL0     H42474  -0.572   8.019  11.038 -0.7523  0.9858  1.0235
  315MOL0     H42475  -0.514   7.870  11.113 -0.6775  0.1518  0.1866
  315MOL0     H42476  -0.673   8.201  11.209  0.1948 -2.0245 -2.3642
  315MOL0     H42477  -0.824   8.285  11.447 -0.9676 -0.5171  0.1759
  315MOL0     H42478  -0.900   8.153  11.513 -0.3131 -2.5224 -3.9495
  315MOL0     H42479  -0.778   8.271  11.698 -1.5573 -1.0425 -0.7728
  315MOL0     H42480  -0.719   8.107  11.678 -1.1311 -0.4603 -0.9958
  315MOL0     H42481  -0.597   8.369  11.599  1.4603 -0.1965 -2.0612
  315MOL0     H42482  -0.530   8.230  11.524 -2.8077 -0.3175 -1.5146
  315MOL0     H42483  -0.480   8.158  11.776  2.1009 -0.0578  0.8519
  315MOL0     H42484  -0.544   8.320  11.818 -4.5641 -1.7837 -1.2419
  315MOL0     H42485  -0.326   8.149  11.890  0.4229 -0.7171  0.8613
  315MOL0     H42486  -0.181   8.190  12.098 -1.2348 -0.3664 -0.7975
  315MOL0     H42487   0.266   8.425  12.168 -3.3472  2.1985 -2.9874
  315MOL0     H42488   0.412   8.389  12.369 -1.9375 -4.0045 -0.4067
  315MOL0     H42489   0.506   8.393  12.577  0.6862  0.2519  0.4240
  315MOL0     H42490   0.563   8.556  12.514  2.7583 -0.7940  0.7349
  315MOL0     H42491   0.589   8.632  12.733  0.2158  0.2339  1.4288
  315MOL0     H42492   0.507   8.504  12.815  0.9926 -1.4972  0.7922
  315MOL0     H42493   0.665   8.330  12.725 -0.9400 -0.4484 -0.0243
  315MOL0     H42494   0.767   8.462  12.661 -0.4268  1.9190  1.0145
  315MOL0     H42495   0.691   8.423  12.960 -0.0864 -1.2125  0.7388
  315MOL0     H42496   0.803   8.546  12.894  1.4845 -0.1614 -2.4964
  315MOL0     H42497   0.959   8.355  12.827 -0.0027 -4.2899 -0.0335
  315MOL0     H42498   0.845   8.238  12.869 -1.3779 -0.4531 -0.1490
  315MOL0     H42499   0.851   8.323  13.115  2.7840 -1.1799  3.2577
  315MOL0     H42500   1.004   8.267  13.046 -0.5696 -0.8136 -3.9641
  315MOL0     H42501   0.917   8.553  13.089 -1.7279 -2.9318 -0.6330
  315MOL0     H42502   1.042   8.500  12.973 -0.9066  3.2215 -1.1120
  315MOL0     H42503   1.191   8.456  13.142  0.2809  0.2976 -0.8614
  315MOL0     H42504   1.102   8.603  13.214 -3.8519  0.0156 -1.3868
  315MOL0     H42505   0.164   8.690  12.565  0.6766 -0.9917  1.8703
  315MOL0     H42506   0.001   8.669  12.375 -1.2153 -0.8997 -1.0775
  315MOL0     H42507  -0.079   8.579  11.919  0.4390 -0.5932 -3.5748
  315MOL0     H42508  -0.235   8.543  11.746  0.3771 -1.0698 -1.8027
  315MOL0     H42509   0.281   8.629  11.142 -0.7968 -1.2248 -0.0546
  315MOL0     H42510   0.366   8.731  11.344  1.1637 -3.3681 -2.5891
  315MOL0     H42511   0.305   8.782  11.784  0.7304  0.3550 -1.9293
  315MOL0     H42512   0.401   8.864  12.001 -2.8042 -0.9090  0.3636
  315MOL0     H42513   0.529   9.294  12.053  1.4907 -0.3161  1.4129
  315MOL0     H42514   0.648   9.195  11.958  1.0634  3.1253  0.4428
  315MOL0     H42515   0.740   9.299  12.121  0.0654  0.2187  0.4141
  315MOL0     H42516   0.736   9.121  12.170 -0.5695 -1.1382  0.8160
  315MOL0     H42517   0.514   9.193  12.291  0.6258 -1.2341 -1.0432
  315MOL0     H42518   0.581   9.364  12.257  0.7193  0.4517  0.7205
  315MOL0     H42519   0.715   9.155  12.414 -1.3334 -0.5964 -1.2460
  315MOL0     H42520   0.763   9.333  12.395 -0.1006 -0.3439 -0.0422
  315MOL0     H42521   0.501   9.306  12.719 -2.5838  0.8214 -0.2371
  315MOL0     H42522   0.446   9.241  11.854 -0.1085 -0.6770 -0.5851
  315MOL0     H42523   0.400   9.224  11.529  0.3400  0.4101  1.8045
  315MOL0     H42524   0.227   9.242  11.561  1.6478  1.7731 -2.7832
  315MOL0     H42525   0.343   9.336  11.651  0.9661  0.7882 -1.0033
  316MOL0     O42526  11.499  10.887   3.219  0.1763 -0.1525  1.3215
  316MOL0     C42527  11.435  10.822   3.292  0.8463 -0.6747 -0.3031
  316MOL0     O42528  11.380  10.865   3.413 -0.3315 -0.8804  0.0625
  316MOL0     C42529  11.367  10.992   3.443  0.7784 -0.9198  0.3186
  316MOL0     C42530  11.451  11.051   3.536 -0.3479 -0.4347 -0.9987
  316MOL0     C42531  11.445  11.191   3.555 -0.5681 -0.0007  0.2788
  316MOL0     C42532  11.360  11.270   3.480  0.5888 -0.2576  0.5060
  316MOL0     O42533  11.343  11.406   3.486  0.2532  0.2830  0.1737
  316MOL0     C42534  11.456  11.488   3.481 -0.7357 -0.2159  0.3509
  316MOL0     C42535  11.429  11.597   3.582 -0.3104 -0.0202  0.4488
  316MOL0     C42536  11.560  11.692   3.602 -0.7103  0.6010  0.1936
  316MOL0     C42537  11.609  11.742   3.458 -0.0652 -0.6456 -0.0511
  316MOL0     C42538  11.695  11.865   3.478 -0.5380 -0.8222 -0.0483
  316MOL0     C42539  11.835  11.853   3.545  0.0369 -1.0844 -0.0825
  316MOL0     C42540  11.960  11.923   3.479 -0.1346  0.5569  0.0161
  316MOL0     C42541  11.972  12.067   3.468  0.7962 -0.8312 -0.2643
  316MOL0     N42542  11.961  12.145   3.595 -0.1366  0.1644  0.3702
  316MOL0     C42543  12.063  12.212   3.666 -0.2474  0.7125  0.1366
  316MOL0     C42544  12.007  12.265   3.772  0.3961 -0.4411  0.0003
  316MOL0     C42545  12.075  12.347   3.872  0.0562 -0.3282  0.1755
  316MOL0     C42546  11.997  12.473   3.918 -1.2120 -0.1880 -0.4566
  316MOL0     C42547  11.996  12.596   3.816  0.2923  1.0847 -0.1929
  316MOL0     C42548  11.913  12.711   3.872 -0.8670 -1.3442  0.0429
  316MOL0     O42549  11.994  12.772   3.974 -0.9103  0.2267 -0.3781
  316MOL0     C42550  11.942  12.830   4.087  0.1399  0.4384  0.0389
  316MOL0     C42551  11.810  12.842   4.098  0.2694  0.3947  0.8101
  316MOL0     C42552  11.767  12.873   4.231 -0.2383  0.0567  0.1481
  316MOL0     C42553  11.857  12.891   4.337  0.1700 -0.0458 -0.3025
  316MOL0     C42554  11.805  12.897   4.478 -0.6597 -0.2949  0.8659
  316MOL0     O42555  11.669  12.883   4.503 -0.4941  0.2977 -0.0541
  316MOL0     C42556  11.621  12.864   4.631  0.1408  0.1265  0.8338
  316MOL0     C42557  11.660  12.947   4.739  0.7573 -0.0877 -0.6745
  316MOL0     C42558  11.613  12.927   4.866  0.9701  0.1265  0.4771
  316MOL0     C42559  11.501  12.838   4.899  0.3442  1.0509  0.8340
  316MOL0     O42560  11.425  12.831   5.015 -0.2163  0.2253 -0.1616
  316MOL0     C42561  11.426  12.931   5.107 -0.1448 -0.7094 -1.2498
  316MOL0     C42562  11.335  13.049   5.094  0.2101 -0.4661 -0.2759
  316MOL0     C42563  11.319  13.099   4.950 -0.1385  0.0693  0.1816
  316MOL0     C42564  11.275  13.249   4.947  0.9353  0.0845 -0.2134
  316MOL0     C42565  11.300  13.295   4.802  0.4477 -0.1478  0.6139
  316MOL0     C42566  11.227  13.414   4.755 -0.4120 -0.9619 -0.1015
  316MOL0     C42567  11.301  13.538   4.812 -0.0446 -0.8266  0.9691
  316MOL0     C42568  11.210  13.659   4.796 -0.0944  0.5046 -0.1711
  316MOL0    Cl42569  11.172  13.690   4.632  0.0639  0.2560  0.0583
  316MOL0     C42570  11.474  12.740   4.796 -1.9963 -0.6590  0.1485
  316MOL0     C42571  11.528  12.764   4.664 -0.2957 -0.2371 -0.1693
  316MOL0     O42572  11.897  12.901   4.566  0.5278  0.4194 -0.6707
  316MOL0     C42573  11.992  12.909   4.312  0.8243 -0.3420 -0.2469
  316MOL0     C42574  12.032  12.872   4.187  0.4735  0.8117  0.7399
  316MOL0     N42575  11.872  12.234   3.760  0.4290  0.6438 -0.1943
  316MOL0     N42576  11.843  12.166   3.659 -0.5813 -0.2437 -0.2240
  316MOL0     C42577  11.263  11.207   3.394 -0.1251 -0.0263  0.2888
  316MOL0     C42578  11.263  11.069   3.378 -0.7731  0.4703 -0.8012
  316MOL0     C42579  11.425  10.683   3.243  1.1122  0.4103 -0.4487
  316MOL0     C42580  11.370  10.663   3.112 -0.4999 -0.6090 -0.2667
  316MOL0     C42581  11.342  10.537   3.068 -1.0199  0.7049 -0.1714
  316MOL0     C42582  11.356  10.424   3.150  0.0080  0.2287 -0.0564
  316MOL0     O42583  11.311  10.300   3.103 -0.1200  1.0836 -0.2594
  316MOL0     C42584  11.361  10.171   3.158  0.4975  0.3260 -0.3248
  316MOL0     C42585  11.294  10.055   3.087  0.5907 -0.3898  0.5147
  316MOL0     C42586  11.375   9.929   3.119 -0.2307 -1.2236 -0.3539
  316MOL0     C42587  11.327   9.814   3.041  0.2450  0.1677 -0.0957
  316MOL0     C42588  11.422   9.702   3.041  0.1254 -0.5493 -0.7953
  316MOL0     C42589  11.504   9.617   3.034  0.2727  1.3804 -0.0542
  316MOL0     C42590  11.407  10.446   3.275  0.1066  0.6398 -0.0317
  316MOL0     C42591  11.438  10.575   3.326 -0.1871  0.2059 -0.0024
  316MOL0     C42592  11.481  10.597   3.471 -0.2208  0.0752 -0.4589
  316MOL0     H42593  11.536  10.997   3.576 -1.6901 -1.3304  0.8252
  316MOL0     H42594  11.524  11.234   3.617 -0.1304 -0.9043  0.3623
  316MOL0     H42595  11.550  11.438   3.508 -1.0301 -0.4111  1.0158
  316MOL0     H42596  11.466  11.532   3.381 -2.0105  0.8318  0.6606
  316MOL0     H42597  11.410  11.550   3.679 -0.6365 -3.0599 -0.9753
  316MOL0     H42598  11.348  11.663   3.550 -0.0375 -0.6812 -1.7715
  316MOL0     H42599  11.646  11.632   3.633  0.1031 -0.9150 -4.2373
  316MOL0     H42600  11.549  11.779   3.666  2.8714  0.5494  1.0840
  316MOL0     H42601  11.651  11.669   3.387  0.1593  1.5054 -2.2804
  316MOL0     H42602  11.517  11.788   3.423 -2.0761 -0.7945  4.4087
  316MOL0     H42603  11.699  11.920   3.384 -1.2357  1.6845  1.2894
  316MOL0     H42604  11.639  11.930   3.546  0.5308  0.3064 -0.2064
  316MOL0     H42605  11.820  11.902   3.641 -1.8641 -1.5776 -0.0801
  316MOL0     H42606  11.857  11.750   3.572 -4.4078 -1.9100  1.1804
  316MOL0     H42607  11.972  11.886   3.377 -0.9832 -0.6807  0.3264
  316MOL0     H42608  12.035  11.885   3.549 -1.4688  1.4929  2.0589
  316MOL0     H42609  12.067  12.094   3.422  0.3690 -1.0554 -1.3262
  316MOL0     H42610  11.893  12.105   3.402 -0.3197 -0.9790  0.9304
  316MOL0     H42611  12.169  12.213   3.643 -0.2762  1.4277  0.0159
  316MOL0     H42612  12.079  12.270   3.949 -3.0884 -0.6833  0.1376
  316MOL0     H42613  12.176  12.375   3.839 -1.4224  2.4606 -2.6523
  316MOL0     H42614  11.895  12.445   3.946 -0.5075  0.2874  3.1827
  316MOL0     H42615  12.043  12.519   4.007  0.4891 -2.7068  0.0970
  316MOL0     H42616  11.945  12.550   3.732  2.6553  0.8663 -1.5992
  316MOL0     H42617  12.093  12.640   3.791  0.0328  2.0927  0.4933
  316MOL0     H42618  11.818  12.672   3.910 -0.3193 -0.5060  2.4396
  316MOL0     H42619  11.897  12.788   3.796 -2.0932  0.1662  1.7222
  316MOL0     H42620  11.741  12.828   4.015  2.8162 -0.1322 -1.3864
  316MOL0     H42621  11.661  12.868   4.253 -0.2283 -1.5471 -0.0544
  316MOL0     H42622  11.742  13.016   4.722 -0.0862  0.9727 -0.5645
  316MOL0     H42623  11.636  12.990   4.952 -3.4281  0.1250  1.9518
  316MOL0     H42624  11.406  12.883   5.203 -2.6875  2.3654 -0.0776
  316MOL0     H42625  11.524  12.977   5.120  0.6002 -2.1023 -1.6986
  316MOL0     H42626  11.240  13.011   5.133 -0.2001  0.6872 -0.1074
  316MOL0     H42627  11.358  13.130   5.164 -0.2415 -4.1037  4.5938
  316MOL0     H42628  11.424  13.096   4.919  0.1659  0.6813  1.0919
  316MOL0     H42629  11.260  13.030   4.890  0.7539 -0.8050  0.2935
  316MOL0     H42630  11.347  13.312   5.001  1.2904 -1.2380  0.9419
  316MOL0     H42631  11.173  13.259   4.986  1.1378  1.8704 -0.0765
  316MOL0     H42632  11.273  13.214   4.733  2.4297  0.6376 -1.1974
  316MOL0     H42633  11.407  13.306   4.786 -0.0554  5.5914 -1.0541
  316MOL0     H42634  11.213  13.427   4.647 -0.2468  3.0012  0.1728
  316MOL0     H42635  11.132  13.409   4.808  0.6288  4.4448  3.1007
  316MOL0     H42636  11.406  13.555   4.786  0.4381 -1.9971  2.0427
  316MOL0     H42637  11.307  13.525   4.920 -0.9057  2.4784  1.5372
  316MOL0     H42638  11.121  13.657   4.859  1.6018  3.3751  2.5786
  316MOL0     H42639  11.259  13.742   4.847 -0.3229 -0.8998  2.5251
  316MOL0     H42640  11.409  12.656   4.819 -1.7750 -0.6963  0.6580
  316MOL0     H42641  11.495  12.698   4.584 -2.3276 -2.2237  2.1455
  316MOL0     H42642  12.066  12.927   4.390  1.0616 -3.3904  0.3713
  316MOL0     H42643  12.137  12.857   4.163  0.3246 -0.6820  0.9692
  316MOL0     H42644  11.208  11.259   3.317  0.2589 -0.6147 -0.3899
  316MOL0     H42645  11.198  11.026   3.303 -3.6705  1.2212  1.0895
  316MOL0     H42646  11.352  10.744   3.042  3.7852  1.6589  0.9489
  316MOL0     H42647  11.296  10.528   2.971  0.8808 -3.6262 -0.8961
  316MOL0     H42648  11.333  10.168   3.264  0.9756 -0.0117 -0.2038
  316MOL0     H42649  11.469  10.168   3.138  0.5196  1.3333 -0.4265
  316MOL0     H42650  11.301  10.072   2.979  1.4834 -1.6319  0.3490
  316MOL0     H42651  11.187  10.055   3.106  0.2298  4.9609 -0.1963
  316MOL0     H42652  11.364   9.909   3.226 -1.4351  1.5072  0.1157
  316MOL0     H42653  11.482   9.948   3.105 -0.2768  1.0308  1.7844
  316MOL0     H42654  11.229   9.778   3.073  0.4829  1.2262  2.0007
  316MOL0     H42655  11.326   9.851   2.938 -2.4197  0.9678  0.1306
  316MOL0     H42656  11.568   9.538   3.000 -0.5857 -0.1218  1.6650
  316MOL0     H42657  11.418  10.367   3.349  1.3575 -1.7584 -2.5796
  316MOL0     H42658  11.552  10.681   3.474  1.0417 -0.9757  0.6783
  316MOL0     H42659  11.395  10.626   3.532 -0.8494  2.6664 -2.4198
  316MOL0     H42660  11.534  10.509   3.511 -0.5905 -0.2561 -0.6988
  317MOL0     O42661   1.231   7.729   3.509  0.3207 -0.7096  0.0590
  317MOL0     C42662   1.273   7.655   3.601 -0.5380  1.3170  0.8805
  317MOL0     O42663   1.227   7.522   3.622  0.0851 -0.6314  0.2531
  317MOL0     C42664   1.128   7.492   3.529 -0.3184  0.4034 -0.3451
  317MOL0     C42665   0.998   7.512   3.570 -0.9063  0.3842 -0.0482
  317MOL0     C42666   0.894   7.500   3.486  0.1592  0.1605  0.2623
  317MOL0     C42667   0.906   7.463   3.354 -0.1764  0.7889  1.0176
  317MOL0     O42668   0.792   7.454   3.273 -0.1030 -0.0731 -0.4556
  317MOL0     C42669   0.807   7.491   3.143 -0.6611 -0.7817  0.6726
  317MOL0     C42670   0.671   7.535   3.079 -0.4639  0.4362 -0.1679
  317MOL0     C42671   0.683   7.609   2.935  0.5222  0.4440 -0.2165
  317MOL0     C42672   0.569   7.583   2.851  0.1222 -0.5802 -0.8017
  317MOL0     C42673   0.572   7.666   2.721 -0.6375 -0.2941  0.1913
  317MOL0     C42674   0.427   7.685   2.658 -0.3975 -0.2650  0.0519
  317MOL0     C42675   0.411   7.740   2.517 -0.3949 -0.3408  0.0169
  317MOL0     C42676   0.264   7.772   2.492 -0.0175  0.2888  0.1278
  317MOL0     N42677   0.178   7.657   2.498  0.2876 -0.3580  0.2218
  317MOL0     C42678   0.059   7.658   2.574 -0.8019  0.0032  0.9919
  317MOL0     C42679   0.015   7.531   2.566  0.1600 -0.0021 -0.2396
  317MOL0     C42680  -0.101   7.485   2.641 -1.0771 -0.6222  1.0453
  317MOL0     C42681  -0.214   7.534   2.555 -0.1554  0.6006  0.5399
  317MOL0     C42682  -0.343   7.459   2.587  1.3626  0.0443 -0.3576
  317MOL0     C42683  -0.461   7.531   2.522  0.1572  0.4413 -1.1004
  317MOL0     O42684  -0.577   7.445   2.534  0.9713  0.3686 -0.5587
  317MOL0     C42685  -0.577   7.328   2.469  0.2285  0.3904 -0.0424
  317MOL0     C42686  -0.516   7.302   2.351 -0.5166  1.2558 -0.2080
  317MOL0     C42687  -0.523   7.173   2.288  0.3413  0.4787 -0.3348
  317MOL0     C42688  -0.597   7.073   2.358 -0.8081 -0.2677 -0.1418
  317MOL0     C42689  -0.603   6.925   2.314  0.4885 -0.0103  0.1951
  317MOL0     O42690  -0.697   6.854   2.374 -0.6219 -0.3103  0.6154
  317MOL0     C42691  -0.711   6.722   2.325 -1.0549 -0.2630 -0.4760
  317MOL0     C42692  -0.754   6.677   2.201  0.1689  0.6094 -0.4533
  317MOL0     C42693  -0.754   6.541   2.178 -0.6098 -0.3805  0.8894
  317MOL0     C42694  -0.702   6.448   2.267  0.5472 -0.2229  0.5393
  317MOL0     O42695  -0.709   6.313   2.252  0.1455  0.1358  0.1155
  317MOL0     C42696  -0.591   6.237   2.251 -0.2044 -0.2613  0.4179
  317MOL0     C42697  -0.488   6.280   2.160 -0.9674  0.3779  0.2175
  317MOL0     C42698  -0.364   6.182   2.151 -0.1582  0.1506  0.0738
  317MOL0     C42699  -0.295   6.157   2.282 -0.6027  0.1466 -1.3750
  317MOL0     C42700  -0.194   6.040   2.263 -0.3328 -0.2455 -1.5403
  317MOL0     C42701  -0.080   6.072   2.163 -0.2094  0.0916  0.0931
  317MOL0     C42702   0.032   5.954   2.162 -0.2453 -0.7160  0.3901
  317MOL0     C42703   0.160   6.011   2.089  0.5727  0.4296  0.1193
  317MOL0    Cl42704   0.127   5.999   1.920 -0.0071 -0.5361 -0.0508
  317MOL0     C42705  -0.659   6.491   2.388 -0.8376 -0.0784 -0.2122
  317MOL0     C42706  -0.661   6.629   2.418 -0.4154 -0.8009 -1.0364
  317MOL0     O42707  -0.523   6.875   2.233 -0.6214  0.1233  0.6072
  317MOL0     C42708  -0.659   7.101   2.483  0.6407  0.3179  0.3937
  317MOL0     C42709  -0.657   7.228   2.534 -1.0271  0.3336 -0.7952
  317MOL0     N42710   0.092   7.462   2.471  0.5231  0.6915  0.4916
  317MOL0     N42711   0.187   7.540   2.429  0.0363  0.1699  0.0864
  317MOL0     C42712   1.033   7.437   3.310 -0.1876 -1.2632  0.0267
  317MOL0     C42713   1.152   7.458   3.392 -0.6487 -0.3963 -0.8375
  317MOL0     C42714   1.382   7.696   3.690 -0.9216  0.2484  0.7483
  317MOL0     C42715   1.485   7.598   3.716  0.3346 -0.2977  0.7360
  317MOL0     C42716   1.588   7.631   3.792 -0.5173 -0.6389  0.3300
  317MOL0     C42717   1.602   7.755   3.847 -0.2554 -0.0118 -0.5833
  317MOL0     O42718   1.715   7.789   3.917 -0.5037  0.1371  0.6677
  317MOL0     C42719   1.814   7.869   3.843 -0.6345 -0.0633  0.1205
  317MOL0     C42720   1.892   7.942   3.959  0.4855 -0.3930  0.6093
  317MOL0     C42721   1.978   8.055   3.894 -1.2307  0.3669  0.4842
  317MOL0     C42722   2.112   8.010   3.832  0.4504  0.4458  0.7313
  317MOL0     C42723   2.161   8.103   3.730  0.3044 -1.2835  0.4185
  317MOL0     C42724   2.192   8.182   3.643  0.1461 -0.1517  0.8041
  317MOL0     C42725   1.511   7.852   3.817  0.3411 -0.5633  0.2956
  317MOL0     C42726   1.401   7.829   3.735 -0.1853  0.2743  0.1946
  317MOL0     C42727   1.310   7.937   3.688 -0.9291 -0.0343 -1.0365
  317MOL0     H42728   0.980   7.540   3.673 -0.0160 -3.9900  1.4930
  317MOL0     H42729   0.798   7.530   3.524 -0.3053 -1.4586  0.4672
  317MOL0     H42730   0.874   7.576   3.128 -0.1144 -1.2024  0.7139
  317MOL0     H42731   0.855   7.407   3.092  0.1420  1.4673 -2.5614
  317MOL0     H42732   0.628   7.603   3.153  1.5392  1.1158  0.4389
  317MOL0     H42733   0.613   7.442   3.074 -0.4948  0.4867 -0.8316
  317MOL0     H42734   0.767   7.553   2.891  0.9954 -1.4078  2.7241
  317MOL0     H42735   0.711   7.715   2.929  2.8554 -0.1813 -3.6312
  317MOL0     H42736   0.562   7.476   2.830  0.1643 -0.7968  0.2341
  317MOL0     H42737   0.483   7.606   2.915 -0.0263  3.8762 -2.2609
  317MOL0     H42738   0.606   7.765   2.755 -0.0647 -0.2891 -0.3799
  317MOL0     H42739   0.653   7.633   2.656 -1.8080 -1.1749 -0.8630
  317MOL0     H42740   0.388   7.583   2.660  0.4314 -0.5804  0.6558
  317MOL0     H42741   0.374   7.745   2.732  0.8738  0.8706  0.0813
  317MOL0     H42742   0.450   7.666   2.447 -1.1653 -1.0031  0.2665
  317MOL0     H42743   0.470   7.832   2.511  1.0766 -1.1390  1.3587
  317MOL0     H42744   0.229   7.858   2.551  1.1598 -1.5314  3.8135
  317MOL0     H42745   0.271   7.795   2.385  3.3142  0.4270  0.2492
  317MOL0     H42746   0.013   7.737   2.633  1.0548  0.8163  1.4264
  317MOL0     H42747  -0.088   7.376   2.641  0.4497 -0.5374 -1.7812
  317MOL0     H42748  -0.108   7.522   2.743  1.9636  3.4474  0.0074
  317MOL0     H42749  -0.235   7.640   2.571  1.4833  1.2131 -0.9947
  317MOL0     H42750  -0.206   7.506   2.450  1.7270  0.8590  0.5792
  317MOL0     H42751  -0.359   7.448   2.695  1.7597  0.5206 -0.2464
  317MOL0     H42752  -0.332   7.360   2.543  2.5937 -0.1630  0.3738
  317MOL0     H42753  -0.434   7.562   2.420  5.2367 -0.3244 -0.2157
  317MOL0     H42754  -0.481   7.614   2.591 -2.9012 -1.2213  0.2016
  317MOL0     H42755  -0.454   7.382   2.309  0.1639 -0.1475 -1.9979
  317MOL0     H42756  -0.477   7.144   2.194 -0.6645  0.0790 -0.7195
  317MOL0     H42757  -0.784   6.741   2.119  1.3317  1.6218 -0.1311
  317MOL0     H42758  -0.809   6.516   2.088  2.1044  0.6755 -1.2091
  317MOL0     H42759  -0.540   6.246   2.347 -1.0956  0.0883  0.8691
  317MOL0     H42760  -0.614   6.133   2.223 -2.1068 -0.3245  2.0202
  317MOL0     H42761  -0.529   6.281   2.059 -0.5577 -0.2585  0.0447
  317MOL0     H42762  -0.463   6.384   2.184  0.8909 -0.7274  3.9061
  317MOL0     H42763  -0.414   6.095   2.108 -1.7299  0.9073  0.2797
  317MOL0     H42764  -0.301   6.225   2.072  2.8482 -1.4945  1.4176
  317MOL0     H42765  -0.364   6.137   2.364  1.0701  1.6965  0.5222
  317MOL0     H42766  -0.239   6.247   2.310  1.7265 -2.0180  1.7198
  317MOL0     H42767  -0.245   5.951   2.224 -2.5064 -0.2289  1.0052
  317MOL0     H42768  -0.141   6.025   2.358  3.7141  1.1526 -3.3158
  317MOL0     H42769  -0.117   6.072   2.060  2.2620  0.8308 -0.8635
  317MOL0     H42770  -0.033   6.166   2.193 -0.7149  1.0761 -1.9827
  317MOL0     H42771  -0.001   5.859   2.118 -0.1933  0.6842 -2.9667
  317MOL0     H42772   0.060   5.931   2.265 -1.7910 -2.6285  0.4584
  317MOL0     H42773   0.174   6.117   2.112  0.1416  0.7101 -0.8632
  317MOL0     H42774   0.250   5.963   2.128 -1.0324 -0.2815  3.2871
  317MOL0     H42775  -0.630   6.418   2.463 -0.7229  1.3812  1.2434
  317MOL0     H42776  -0.614   6.651   2.513  1.4561 -4.5434 -0.8842
  317MOL0     H42777  -0.716   7.023   2.532  0.3860  1.3783  1.8596
  317MOL0     H42778  -0.707   7.244   2.629  0.1267  0.2359 -0.1572
  317MOL0     H42779   1.051   7.402   3.208  0.6723  0.0873 -0.2993
  317MOL0     H42780   1.258   7.438   3.377 -0.3744  0.6141 -0.3867
  317MOL0     H42781   1.479   7.499   3.672 -3.4011 -1.0000  2.4302
  317MOL0     H42782   1.671   7.561   3.801  0.8193  0.5259 -1.8612
  317MOL0     H42783   1.760   7.941   3.781  0.2223  1.9185  1.5772
  317MOL0     H42784   1.879   7.803   3.784  2.8229 -1.0866  4.5444
  317MOL0     H42785   1.952   7.869   4.014 -0.4760 -1.8885 -0.2532
  317MOL0     H42786   1.823   7.998   4.023  3.4645  4.1225  0.3759
  317MOL0     H42787   2.014   8.130   3.966  1.8065  1.5483 -2.0241
  317MOL0     H42788   1.929   8.108   3.812 -0.8477 -1.4458 -0.9700
  317MOL0     H42789   2.196   7.992   3.900  1.3425 -2.3696 -0.9469
  317MOL0     H42790   2.106   7.914   3.780  1.0653  0.3758  0.7732
  317MOL0     H42791   2.216   8.260   3.574  1.9945 -0.1027  1.4584
  317MOL0     H42792   1.536   7.952   3.850  1.8414 -0.7429 -0.1856
  317MOL0     H42793   1.340   7.976   3.590  0.4922  0.6729 -0.3455
  317MOL0     H42794   1.207   7.901   3.683 -1.2153  0.9166 -4.6458
  317MOL0     H42795   1.318   8.019   3.760  3.7984 -0.3544 -0.9326
  318MOL0     O42796   3.701   2.440  10.285  0.5071 -0.2428 -0.2841
  318MOL0     C42797   3.728   2.482  10.176  0.3038 -0.3840  0.2024
  318MOL0     O42798   3.638   2.536  10.084 -0.2153 -0.1218 -0.0570
  318MOL0     C42799   3.502   2.532  10.096  0.8496 -0.1050 -0.2089
  318MOL0     C42800   3.442   2.418  10.156  0.3392  0.0670  0.3988
  318MOL0     C42801   3.303   2.415  10.156 -0.1099  0.5815 -0.4396
  318MOL0     C42802   3.225   2.511  10.092  0.9915  0.3579 -0.3725
  318MOL0     O42803   3.084   2.496  10.107  0.0465 -0.3031  0.8987
  318MOL0     C42804   3.017   2.587  10.013  0.8104  0.1591 -0.0989
  318MOL0     C42805   2.859   2.547  10.008  0.4359 -0.2035  0.5518
  318MOL0     C42806   2.830   2.417   9.921  0.1714 -0.1144  0.3760
  318MOL0     C42807   2.677   2.384   9.942 -0.7168  0.8650  0.3040
  318MOL0     C42808   2.632   2.278   9.843  0.3001  0.1068  0.6380
  318MOL0     C42809   2.498   2.206   9.863  0.0685  0.6960 -0.3807
  318MOL0     C42810   2.378   2.270   9.778  0.4595  0.3413 -0.1282
  318MOL0     C42811   2.349   2.416   9.813  0.4111  0.6611  0.4870
  318MOL0     N42812   2.295   2.434   9.948  0.3607 -0.3887  0.1796
  318MOL0     C42813   2.359   2.507  10.054 -0.3372  0.0622 -0.8074
  318MOL0     C42814   2.282   2.467  10.159  0.5340 -0.4474 -0.3313
  318MOL0     C42815   2.295   2.514  10.297  1.1405  0.0486  1.0524
  318MOL0     C42816   2.382   2.415  10.371  1.4356  0.4323 -0.0135
  318MOL0     C42817   2.526   2.439  10.373  0.0936 -0.3819  0.6684
  318MOL0     C42818   2.602   2.334  10.457  0.8724  0.1841  0.5151
  318MOL0     O42819   2.622   2.205  10.390 -0.2822 -0.3319 -0.1781
  318MOL0     C42820   2.733   2.168  10.316  0.4202  0.0696  0.3572
  318MOL0     C42821   2.845   2.238  10.283 -0.5888  0.0083  0.1351
  318MOL0     C42822   2.947   2.183  10.208 -1.0378 -0.4170 -0.1440
  318MOL0     C42823   2.943   2.050  10.173  0.4052 -0.3835 -0.0429
  318MOL0     C42824   3.062   1.972  10.117 -0.5039  0.2418  0.4532
  318MOL0     O42825   3.190   2.013  10.145  0.1991  0.1211  0.1638
  318MOL0     C42826   3.298   1.980  10.074  0.8866 -0.6345 -0.0713
  318MOL0     C42827   3.281   1.951   9.927  0.1257 -0.0445 -0.0097
  318MOL0     C42828   3.390   1.941   9.846  0.3692  0.4723  0.0840
  318MOL0     C42829   3.515   1.927   9.904 -0.1419  0.2436 -0.2458
  318MOL0     O42830   3.628   1.889   9.828 -0.4027 -0.6544 -0.4829
  318MOL0     C42831   3.618   1.861   9.688 -0.2790 -0.4302 -0.4586
  318MOL0     C42832   3.753   1.785   9.641  0.1382 -0.3906  0.1949
  318MOL0     C42833   3.880   1.871   9.672 -0.4125  1.6457  0.5758
  318MOL0     C42834   4.002   1.841   9.587  0.0282 -0.2446 -0.8347
  318MOL0     C42835   4.128   1.898   9.653 -0.1896 -0.1217 -0.1482
  318MOL0     C42836   4.260   1.843   9.606  0.0642  0.7554 -0.1940
  318MOL0     C42837   4.372   1.941   9.661 -0.1866  0.3294 -0.3752
  318MOL0     C42838   4.503   1.925   9.578 -0.5431 -0.5411 -0.9448
  318MOL0    Cl42839   4.570   1.773   9.617  0.2264  0.4175 -0.7594
  318MOL0     C42840   3.530   1.940  10.037  1.4478  0.1318 -0.3159
  318MOL0     C42841   3.421   1.972  10.126 -0.2044 -0.1696  0.2401
  318MOL0     O42842   3.033   1.866  10.064 -0.2333 -0.6322 -0.2367
  318MOL0     C42843   2.831   1.975  10.199  1.1146 -0.6277 -0.3205
  318MOL0     C42844   2.732   2.037  10.274  0.3469 -0.5305 -0.2528
  318MOL0     N42845   2.179   2.378  10.128 -0.0111  0.4732  1.3158
  318MOL0     N42846   2.192   2.363  10.004 -0.5758  1.0731  0.2316
  318MOL0     C42847   3.298   2.619  10.026  1.0675 -0.0130 -0.2967
  318MOL0     C42848   3.431   2.635  10.030  0.8225 -0.0490 -0.2897
  318MOL0     C42849   3.855   2.498  10.121 -0.1780  0.0948 -0.0780
  318MOL0     C42850   3.892   2.631  10.092 -0.0174 -0.0939  0.1643
  318MOL0     C42851   4.027   2.659  10.035  0.3604 -0.3689 -0.1706
  318MOL0     C42852   4.114   2.556   9.997  0.1241  0.6226 -0.8763
  318MOL0     O42853   4.239   2.592   9.953  0.2967 -0.3309  0.1683
  318MOL0     C42854   4.305   2.515   9.857  0.3735 -0.7258 -0.0136
  318MOL0     C42855   4.446   2.536   9.892  1.1057 -0.4599  0.4510
  318MOL0     C42856   4.498   2.679   9.883 -0.2258 -0.1222 -0.0370
  318MOL0     C42857   4.597   2.689   9.999  0.2611  0.0531  0.0891
  318MOL0     C42858   4.595   2.832  10.022 -0.0161  0.3150  0.5394
  318MOL0     C42859   4.587   2.950  10.043 -0.8916 -0.7211  0.3787
  318MOL0     C42860   4.064   2.420  10.008  0.2720 -0.0646 -0.9961
  318MOL0     C42861   3.944   2.398  10.072  0.3193 -0.4542  0.2302
  318MOL0     C42862   3.894   2.251  10.081 -0.4048  0.7761  0.2399
  318MOL0     H42863   3.480   2.331  10.209 -0.4720  0.6110  1.9299
  318MOL0     H42864   3.250   2.332  10.203  1.1422  0.5582  0.9727
  318MOL0     H42865   3.024   2.694  10.030 -0.5418  0.0639  1.2487
  318MOL0     H42866   3.054   2.569   9.911 -0.7694  0.0714 -0.6936
  318MOL0     H42867   2.832   2.637   9.951  4.1105  0.9272  0.3322
  318MOL0     H42868   2.817   2.539  10.108 -0.8114  1.7887  0.2476
  318MOL0     H42869   2.894   2.332   9.948  1.7771  0.4728 -1.3452
  318MOL0     H42870   2.844   2.433   9.814 -1.8864  1.3402  0.2541
  318MOL0     H42871   2.659   2.354  10.045 -2.3337  2.3762  0.5078
  318MOL0     H42872   2.620   2.476   9.924 -0.3011  1.1467  0.4109
  318MOL0     H42873   2.636   2.325   9.744  0.3076 -0.8346  0.1796
  318MOL0     H42874   2.711   2.203   9.841  0.4173  0.2352 -0.2012
  318MOL0     H42875   2.495   2.099   9.840  1.3408  0.1323  1.8061
  318MOL0     H42876   2.490   2.210   9.972  1.8479 -2.6518  0.0228
  318MOL0     H42877   2.287   2.209   9.785  0.7455 -0.4716 -2.4287
  318MOL0     H42878   2.412   2.255   9.675 -0.5768  0.9684 -0.5750
  318MOL0     H42879   2.436   2.482   9.812  0.6947  0.2962  0.7050
  318MOL0     H42880   2.272   2.450   9.744  0.4938 -1.3832 -0.7004
  318MOL0     H42881   2.442   2.577  10.054  1.5268 -2.0635 -0.8964
  318MOL0     H42882   2.341   2.613  10.306  0.0153  0.8531 -1.2361
  318MOL0     H42883   2.199   2.537  10.344  2.3822  4.9581  1.7675
  318MOL0     H42884   2.349   2.414  10.476  0.5321 -2.7648 -0.2193
  318MOL0     H42885   2.354   2.317  10.333 -0.6079  0.1949  1.8852
  318MOL0     H42886   2.531   2.534  10.426 -2.5280 -1.3811  2.9146
  318MOL0     H42887   2.564   2.434  10.271 -0.2108  3.6240  0.2100
  318MOL0     H42888   2.543   2.319  10.548  0.1300 -1.1524 -0.1654
  318MOL0     H42889   2.701   2.370  10.487  0.7506  1.7478 -0.7753
  318MOL0     H42890   2.863   2.339  10.318  0.4838  0.4165 -1.5178
  318MOL0     H42891   3.045   2.227  10.221 -1.5937  0.2546  2.2166
  318MOL0     H42892   3.180   1.949   9.887  0.7547  1.6299 -1.8402
  318MOL0     H42893   3.374   1.945   9.739 -0.7818  0.8774  0.2636
  318MOL0     H42894   3.531   1.799   9.662 -0.5084 -0.4010  0.2250
  318MOL0     H42895   3.595   1.955   9.636 -0.3604 -0.8658 -1.2345
  318MOL0     H42896   3.767   1.688   9.688 -0.6164  0.6956  2.8184
  318MOL0     H42897   3.748   1.779   9.532 -4.0861  2.5445  0.0021
  318MOL0     H42898   3.847   1.975   9.659 -2.7929  0.8219 -0.4694
  318MOL0     H42899   3.899   1.846   9.777 -2.9122 -1.1574  0.5070
  318MOL0     H42900   3.990   1.880   9.486  0.0937  1.5666 -0.1729
  318MOL0     H42901   4.025   1.734   9.587  1.0084 -0.0493 -0.2991
  318MOL0     H42902   4.118   1.891   9.762  4.3342  0.7207  0.5157
  318MOL0     H42903   4.139   2.006   9.638 -0.0577 -0.2226 -0.8050
  318MOL0     H42904   4.284   1.748   9.654  1.4439  0.7122 -0.9215
  318MOL0     H42905   4.268   1.836   9.498  4.6057  1.0276 -0.0955
  318MOL0     H42906   4.378   1.925   9.769  4.4329  2.6631 -0.0170
  318MOL0     H42907   4.343   2.046   9.654  0.9851  0.7900  1.0956
  318MOL0     H42908   4.488   1.934   9.470  1.8748  1.0492 -1.2108
  318MOL0     H42909   4.582   1.993   9.609  0.2918 -2.8742  2.6155
  318MOL0     H42910   3.631   1.917  10.069  1.4210  0.5996  0.1142
  318MOL0     H42911   3.434   1.981  10.233  1.5858  1.0599 -0.0262
  318MOL0     H42912   2.831   1.879  10.148  2.9056 -0.0327 -1.5657
  318MOL0     H42913   2.640   1.985  10.298  1.4085 -1.5504  1.8917
  318MOL0     H42914   3.236   2.690   9.973  0.4140 -0.6558 -0.4224
  318MOL0     H42915   3.481   2.715   9.975  1.8729 -0.3920  0.1484
  318MOL0     H42916   3.834   2.714  10.131 -3.0047 -3.2553  3.2633
  318MOL0     H42917   4.056   2.759  10.007  2.4376 -0.4113  1.5163
  318MOL0     H42918   4.281   2.551   9.757 -2.1407  0.9272  1.1027
  318MOL0     H42919   4.279   2.409   9.854  2.9261 -1.4142 -0.9800
  318MOL0     H42920   4.511   2.486   9.820  1.1637  0.0044  0.1800
  318MOL0     H42921   4.463   2.480   9.984 -4.0604  1.9242  3.2831
  318MOL0     H42922   4.412   2.743   9.904 -0.2412 -0.6839  1.7769
  318MOL0     H42923   4.538   2.708   9.786  2.6047 -0.4821  0.9380
  318MOL0     H42924   4.548   2.637  10.082  1.0983 -0.9639 -0.0375
  318MOL0     H42925   4.694   2.648   9.970 -0.7050 -2.5363  0.2684
  318MOL0     H42926   4.597   3.054  10.067  0.3764 -0.9988  1.1111
  318MOL0     H42927   4.126   2.335   9.981  2.1205 -0.1479  2.9129
  318MOL0     H42928   3.866   2.209   9.984 -0.1254 -2.0889  1.2974
  318MOL0     H42929   3.976   2.192  10.122 -0.0877  1.4696  0.6153
  318MOL0     H42930   3.810   2.227  10.146  0.0916  2.4122  1.5613
  319MOL0     O42931   1.535   8.818   0.821  0.2628 -0.3454  0.3467
  319MOL0     C42932   1.503   8.801   0.701 -0.3337  0.5379 -0.6033
  319MOL0     O42933   1.576   8.737   0.600  0.1311 -0.0252 -0.1302
  319MOL0     C42934   1.710   8.711   0.629 -0.0833 -0.8573 -0.3760
  319MOL0     C42935   1.765   8.575   0.616  0.1673  0.7278  0.2833
  319MOL0     C42936   1.903   8.560   0.640  0.3913 -0.3897 -0.2005
  319MOL0     C42937   1.983   8.671   0.676  1.2268  0.2965 -0.2233
  319MOL0     O42938   2.109   8.640   0.698  0.2512 -0.0340 -0.3892
  319MOL0     C42939   2.191   8.740   0.642  0.3167 -0.1554  0.1661
  319MOL0     C42940   2.326   8.690   0.603  0.8512  0.1965  0.1465
  319MOL0     C42941   2.409   8.650   0.737  0.7198 -0.4166  0.9337
  319MOL0     C42942   2.558   8.635   0.702  1.2750  0.5321 -0.0577
  319MOL0     C42943   2.643   8.567   0.814 -0.3403  0.1865 -0.0217
  319MOL0     C42944   2.788   8.548   0.765  0.5167  0.6241 -0.6630
  319MOL0     C42945   2.860   8.458   0.866  0.0557 -1.0365 -0.1776
  319MOL0     C42946   2.988   8.388   0.815 -0.1407  0.0317 -1.1170
  319MOL0     N42947   2.956   8.260   0.749  0.1018 -0.1957 -0.3610
  319MOL0     C42948   3.059   8.191   0.690  0.2494  0.2902  0.0101
  319MOL0     C42949   2.981   8.094   0.622 -0.4825 -0.9880 -0.1572
  319MOL0     C42950   3.047   7.990   0.541 -0.3564  0.4105 -0.0459
  319MOL0     C42951   3.077   8.047   0.407 -0.6887 -0.4764  0.1135
  319MOL0     C42952   3.214   8.117   0.405  0.4026  0.2547  0.0609
  319MOL0     C42953   3.255   8.161   0.279 -0.7842  0.8136  0.8677
  319MOL0     O42954   3.397   8.135   0.278  0.7901 -0.0077 -0.6074
  319MOL0     C42955   3.448   8.012   0.236 -1.1269 -1.4868 -0.8629
  319MOL0     C42956   3.368   7.901   0.208  0.1132  0.4666  0.8659
  319MOL0     C42957   3.422   7.777   0.170  0.0731  0.3310 -0.8427
  319MOL0     C42958   3.561   7.760   0.155  0.2639 -0.1935  0.3812
  319MOL0     C42959   3.625   7.634   0.116  0.5434  0.7938 -0.0685
  319MOL0     O42960   3.554   7.519   0.138 -0.6477  0.2174  0.5620
  319MOL0     C42961   3.603   7.406   0.080 -0.5588 -0.6425 -0.8305
  319MOL0     C42962   3.515   7.335  -0.005 -0.1871  0.4735  0.9804
  319MOL0     C42963   3.548   7.222  -0.068  0.2849  0.2583 -0.2325
  319MOL0     C42964   3.679   7.168  -0.061 -0.0945 -0.4003  0.0701
  319MOL0     O42965   3.726   7.062  -0.138  0.9678  0.6687 -0.5017
  319MOL0     C42966   3.644   6.945  -0.143 -0.6874  0.0981 -0.8374
  319MOL0     C42967   3.617   6.865  -0.020 -0.2084  0.2192 -0.5329
  319MOL0     C42968   3.539   6.740  -0.055  0.1004  0.6139  0.0295
  319MOL0     C42969   3.554   6.629   0.053  0.2641 -0.0806 -0.1994
  319MOL0     C42970   3.432   6.548   0.071  0.7087  1.1685  0.0928
  319MOL0     C42971   3.453   6.404   0.125 -0.7484 -1.1333  0.5256
  319MOL0     C42972   3.321   6.328   0.157 -0.7641  0.2116  0.4483
  319MOL0     C42973   3.275   6.343   0.300 -0.0839  0.6729  0.1034
  319MOL0    Cl42974   3.115   6.258   0.299 -0.3255 -0.4118  0.1634
  319MOL0     C42975   3.764   7.245   0.019 -0.4713  0.4685  0.0457
  319MOL0     C42976   3.732   7.358   0.087 -0.5763  0.9911  0.1287
  319MOL0     O42977   3.732   7.651   0.058  0.5405  0.1376  0.7245
  319MOL0     C42978   3.642   7.874   0.179 -0.0029 -0.1553 -0.2746
  319MOL0     C42979   3.587   8.001   0.218  0.1484 -0.8047 -0.5038
  319MOL0     N42980   2.848   8.100   0.652  0.4908 -0.2577 -0.2657
  319MOL0     N42981   2.838   8.209   0.723  0.2868  0.4100  0.2287
  319MOL0     C42982   1.923   8.799   0.688 -0.2889 -0.9461  0.6189
  319MOL0     C42983   1.793   8.821   0.655 -0.2516 -0.7262 -0.6272
  319MOL0     C42984   1.372   8.843   0.654  0.3271  0.2939  0.4541
  319MOL0     C42985   1.328   8.778   0.537  0.6321  0.1663  0.1483
  319MOL0     C42986   1.193   8.784   0.495 -0.8516  0.7956 -0.3478
  319MOL0     C42987   1.109   8.874   0.559 -0.3760 -0.5359  0.1682
  319MOL0     O42988   0.985   8.908   0.505 -0.0295 -0.1521  0.0978
  319MOL0     C42989   0.914   8.818   0.421  0.3249  0.2866 -0.4176
  319MOL0     C42990   0.824   8.895   0.333  1.0212 -0.9945 -0.3529
  319MOL0     C42991   0.745   8.790   0.246 -0.4603 -0.5361  1.3704
  319MOL0     C42992   0.699   8.859   0.108 -0.3469 -0.4868 -0.8040
  319MOL0     C42993   0.629   8.755   0.031  0.1455  0.2585  1.4254
  319MOL0     C42994   0.593   8.659  -0.034 -0.2251 -0.8931 -0.5373
  319MOL0     C42995   1.158   8.956   0.660 -0.1084  0.2126 -0.3278
  319MOL0     C42996   1.288   8.936   0.713  0.3855  0.1656  0.9456
  319MOL0     C42997   1.322   9.028   0.824 -0.4489 -0.2731 -1.4057
  319MOL0     H42998   1.698   8.491   0.602  0.9444  0.3218 -1.1251
  319MOL0     H42999   1.943   8.459   0.637  1.0842 -0.1021 -0.7710
  319MOL0     H43000   2.142   8.786   0.556 -1.2692  1.6775  1.9452
  319MOL0     H43001   2.194   8.818   0.718  1.8577 -0.8210  0.8123
  319MOL0     H43002   2.377   8.759   0.535 -0.0815 -1.4905 -2.3882
  319MOL0     H43003   2.319   8.601   0.539 -0.6263  0.1690  0.3038
  319MOL0     H43004   2.363   8.554   0.764  0.3747 -1.4796 -2.8501
  319MOL0     H43005   2.398   8.732   0.808  1.6546  0.6292 -0.0978
  319MOL0     H43006   2.566   8.584   0.606 -2.1393 -0.4435  0.0471
  319MOL0     H43007   2.596   8.736   0.686 -0.8004  1.2538 -0.7502
  319MOL0     H43008   2.649   8.633   0.901  0.0649  2.0838 -1.3987
  319MOL0     H43009   2.596   8.471   0.836  0.3887 -0.3200 -0.6271
  319MOL0     H43010   2.792   8.490   0.672  1.5891 -1.3338  0.5420
  319MOL0     H43011   2.834   8.646   0.753  0.2692  0.6564 -1.4361
  319MOL0     H43012   2.800   8.374   0.902  0.5930 -1.2822  0.1431
  319MOL0     H43013   2.893   8.525   0.946  1.4159 -0.1738 -1.4037
  319MOL0     H43014   3.039   8.449   0.741 -0.8139  2.3271  0.2161
  319MOL0     H43015   3.056   8.379   0.900 -3.3974 -0.7404  1.6237
  319MOL0     H43016   3.166   8.199   0.706 -0.1107  1.0627  2.4894
  319MOL0     H43017   3.144   7.958   0.580  0.2983  2.5182  0.1659
  319MOL0     H43018   2.979   7.904   0.538  0.7774 -0.6080  1.9136
  319MOL0     H43019   3.068   7.975   0.325  1.0829  1.0517 -1.5199
  319MOL0     H43020   3.002   8.124   0.385 -2.0909 -1.6550  0.6080
  319MOL0     H43021   3.284   8.040   0.440 -2.0773 -1.1939  2.1461
  319MOL0     H43022   3.225   8.197   0.480  3.7446 -0.4776  0.5069
  319MOL0     H43023   3.232   8.268   0.267 -2.3286  0.6216  1.8701
  319MOL0     H43024   3.208   8.107   0.196 -1.0029  1.9641  0.2129
  319MOL0     H43025   3.260   7.890   0.213 -0.0452 -1.2164 -2.8175
  319MOL0     H43026   3.368   7.684   0.160  1.9760 -1.4750  3.1902
  319MOL0     H43027   3.411   7.361  -0.014 -0.8979 -1.8630  1.7112
  319MOL0     H43028   3.462   7.186  -0.123  0.2689 -0.5877  0.3396
  319MOL0     H43029   3.551   6.981  -0.188 -1.4822  1.3102  1.5882
  319MOL0     H43030   3.698   6.879  -0.210  1.8964 -0.3499  1.5130
  319MOL0     H43031   3.716   6.834   0.016 -0.3982  0.4917  0.2487
  319MOL0     H43032   3.562   6.934   0.044 -0.2893 -2.6267  2.8042
  319MOL0     H43033   3.430   6.753  -0.061 -0.2383 -0.5347  2.3758
  319MOL0     H43034   3.582   6.695  -0.144 -0.7459 -1.1697  0.4628
  319MOL0     H43035   3.595   6.667   0.147 -0.1602  3.1637 -1.2162
  319MOL0     H43036   3.631   6.566   0.008  2.9189  1.3337  2.0431
  319MOL0     H43037   3.379   6.549  -0.025 -0.8611 -0.6143  0.8697
  319MOL0     H43038   3.368   6.604   0.141  0.2461  2.2498 -1.1448
  319MOL0     H43039   3.510   6.349   0.049 -0.3044 -0.9857  0.7505
  319MOL0     H43040   3.505   6.421   0.220  0.7425 -1.0058 -0.2894
  319MOL0     H43041   3.327   6.226   0.119  1.2593  0.9503 -1.4625
  319MOL0     H43042   3.242   6.360   0.088 -0.5742 -0.2232  0.0156
  319MOL0     H43043   3.348   6.289   0.360 -0.2416 -1.3528 -1.4267
  319MOL0     H43044   3.259   6.446   0.333  0.8589  0.7466  0.3484
  319MOL0     H43045   3.861   7.197   0.029 -0.7622 -1.5042 -4.2579
  319MOL0     H43046   3.801   7.406   0.156 -1.6413  1.2975  0.9956
  319MOL0     H43047   3.750   7.865   0.189 -0.2713 -1.0403  3.5714
  319MOL0     H43048   3.664   8.070   0.249 -1.3378 -0.2643  2.3188
  319MOL0     H43049   1.975   8.889   0.719  0.1202 -1.1084  0.4195
  319MOL0     H43050   1.743   8.917   0.656 -0.9590 -1.0893  0.2316
  319MOL0     H43051   1.392   8.733   0.462  0.4778 -1.8455  1.1608
  319MOL0     H43052   1.160   8.722   0.412  3.9996 -0.3008 -1.8354
  319MOL0     H43053   0.843   8.767   0.487  0.0427  0.3444 -0.6766
  319MOL0     H43054   0.971   8.739   0.372 -2.6847 -2.4753  0.2283
  319MOL0     H43055   0.890   8.957   0.272  1.3839 -2.4202 -1.4648
  319MOL0     H43056   0.767   8.973   0.384  1.1841  0.4387 -2.2451
  319MOL0     H43057   0.667   8.744   0.307 -0.5904 -1.2802  0.6557
  319MOL0     H43058   0.811   8.708   0.216  0.9034  1.6651 -2.3376
  319MOL0     H43059   0.632   8.940   0.138  1.1616  0.1410  1.1021
  319MOL0     H43060   0.784   8.898   0.053  0.2489  0.5432  0.7858
  319MOL0     H43061   0.560   8.571  -0.086 -2.2876 -0.4717 -0.0314
  319MOL0     H43062   1.086   9.028   0.698  0.4835  0.1938  0.8649
  319MOL0     H43063   1.393   9.104   0.790  0.9814 -0.5240  0.7939
  319MOL0     H43064   1.235   9.079   0.866  0.8976  0.6428  0.4484
  319MOL0     H43065   1.366   8.984   0.915  0.2191  1.6778 -0.7242
  320MOL0     O43066   8.394   1.833   2.403 -0.2717  0.2337 -0.0056
  320MOL0     C43067   8.314   1.774   2.472  0.2277 -0.8575  0.2253
  320MOL0     O43068   8.334   1.665   2.555 -0.0140  0.4353  0.7262
  320MOL0     C43069   8.457   1.603   2.578  0.0767  0.0833  0.3844
  320MOL0     C43070   8.466   1.474   2.631 -0.4688 -0.4522 -0.2777
  320MOL0     C43071   8.588   1.406   2.655  0.1418  0.4503 -0.3051
  320MOL0     C43072   8.710   1.479   2.626  0.9286 -0.4167 -0.9946
  320MOL0     O43073   8.826   1.407   2.649 -0.7207  0.0460 -0.4989
  320MOL0     C43074   8.953   1.472   2.651 -0.6390 -0.4156 -0.0101
  320MOL0     C43075   9.057   1.356   2.691  0.3581  0.9690  0.2784
  320MOL0     C43076   9.199   1.405   2.683 -0.5660  0.2534 -0.8016
  320MOL0     C43077   9.251   1.432   2.834  0.2874  0.3428  0.5801
  320MOL0     C43078   9.356   1.544   2.853  0.1878 -0.4642  0.4786
  320MOL0     C43079   9.306   1.682   2.824 -0.9310  0.3341  0.1132
  320MOL0     C43080   9.401   1.794   2.887  0.2397 -1.1513  0.9414
  320MOL0     C43081   9.347   1.935   2.856 -1.2639 -0.3683 -0.2398
  320MOL0     N43082   9.235   1.968   2.953  0.2545 -0.7510 -0.4551
  320MOL0     C43083   9.250   1.997   3.090  0.2633 -0.2247  0.3895
  320MOL0     C43084   9.129   2.014   3.149 -0.9887  0.8219 -0.2453
  320MOL0     C43085   9.081   2.049   3.289  0.7685  0.5972 -0.2132
  320MOL0     C43086   9.082   1.919   3.382  0.4149 -0.9554 -0.6662
  320MOL0     C43087   8.965   1.916   3.475 -0.6399 -0.0185 -0.3306
  320MOL0     C43088   8.953   2.036   3.567  0.4204 -0.2791 -0.0390
  320MOL0     O43089   9.060   2.035   3.659  0.8193 -0.1254  0.1906
  320MOL0     C43090   9.034   2.110   3.771  0.8100  0.3551 -0.7799
  320MOL0     C43091   9.123   2.076   3.871 -0.4325 -0.2080  0.8227
  320MOL0     C43092   9.118   2.155   3.989  0.3221 -0.6026  0.3916
  320MOL0     C43093   9.039   2.270   4.002 -0.9200 -0.2361 -0.5152
  320MOL0     C43094   9.050   2.364   4.113 -0.6487  0.0106  0.1274
  320MOL0     O43095   9.115   2.324   4.229 -0.9927  0.4111  0.3808
  320MOL0     C43096   9.133   2.427   4.311 -0.1195 -0.8799 -0.7010
  320MOL0     C43097   9.048   2.458   4.409 -0.4397  0.1923 -0.6708
  320MOL0     C43098   9.102   2.527   4.518  0.2843  0.5420 -0.2618
  320MOL0     C43099   9.222   2.589   4.506 -0.4456 -0.3046  0.1185
  320MOL0     O43100   9.256   2.665   4.610  0.2765  0.7089  0.6650
  320MOL0     C43101   9.351   2.776   4.574  0.0414  0.0373  0.4920
  320MOL0     C43102   9.346   2.877   4.689 -0.3859  0.5799  0.5054
  320MOL0     C43103   9.399   3.018   4.644  0.6426 -0.6303  0.4126
  320MOL0     C43104   9.553   3.027   4.644 -0.9161 -0.1321 -0.1983
  320MOL0     C43105   9.599   3.152   4.570  0.4080 -0.3306 -0.2617
  320MOL0     C43106   9.703   3.123   4.466 -0.9726  0.5805 -0.7397
  320MOL0     C43107   9.740   3.257   4.413  0.0044  0.4877 -0.8065
  320MOL0     C43108   9.828   3.256   4.292 -0.7588  0.1634 -0.1478
  320MOL0    Cl43109   9.744   3.188   4.151 -0.6684 -0.3790  0.4116
  320MOL0     C43110   9.306   2.579   4.391  0.3519 -0.6426  0.1229
  320MOL0     C43111   9.257   2.492   4.299  0.2266  0.3748  0.4891
  320MOL0     O43112   9.024   2.479   4.075  0.2155 -0.5637 -1.0326
  320MOL0     C43113   8.959   2.301   3.894  0.0878  0.9002  0.4805
  320MOL0     C43114   8.948   2.223   3.779 -0.2696  0.1159 -0.5187
  320MOL0     N43115   9.046   1.994   3.044  1.4293 -0.0697  0.6242
  320MOL0     N43116   9.105   1.959   2.936 -0.2138  0.6242  0.1653
  320MOL0     C43117   8.703   1.612   2.585  0.0448 -1.0027  1.2388
  320MOL0     C43118   8.578   1.672   2.557  0.4238 -0.2335  0.0567
  320MOL0     C43119   8.170   1.811   2.464 -0.9059  0.3989 -0.3890
  320MOL0     C43120   8.067   1.721   2.496  0.0803 -0.0942  0.2296
  320MOL0     C43121   7.926   1.759   2.512  0.0377 -0.3316  0.0253
  320MOL0     C43122   7.894   1.894   2.495  0.6647  0.6489 -0.3609
  320MOL0     O43123   7.759   1.920   2.512  0.4809 -0.5903  0.7488
  320MOL0     C43124   7.725   2.025   2.603  0.2470 -0.0307 -0.0264
  320MOL0     C43125   7.723   2.173   2.567 -0.7171  0.1093  0.2283
  320MOL0     C43126   7.634   2.191   2.441  0.3064  0.3818 -0.0712
  320MOL0     C43127   7.651   2.336   2.378 -0.1801  0.0794  0.7240
  320MOL0     C43128   7.635   2.442   2.474  0.4305 -0.0033  0.4290
  320MOL0     C43129   7.616   2.538   2.538  0.8847 -0.0818 -0.1123
  320MOL0     C43130   7.994   1.982   2.462  0.0341 -0.2008  0.2134
  320MOL0     C43131   8.131   1.939   2.431  0.9504 -0.3121 -0.2976
  320MOL0     C43132   8.221   2.047   2.384  0.0802 -0.0169  0.1155
  320MOL0     H43133   8.369   1.429   2.651 -0.8843  0.6119  0.2087
  320MOL0     H43134   8.602   1.308   2.699  1.4456 -0.2835 -2.2074
  320MOL0     H43135   8.982   1.517   2.555 -0.7445  1.6276  0.8615
  320MOL0     H43136   8.942   1.553   2.723  0.2919 -1.1679  1.0139
  320MOL0     H43137   9.040   1.280   2.614 -3.7896  1.2213  0.7033
  320MOL0     H43138   9.027   1.315   2.788 -0.4795 -2.9139 -1.4554
  320MOL0     H43139   9.216   1.502   2.637 -0.4598 -0.2094 -1.7506
  320MOL0     H43140   9.263   1.331   2.635  1.4679  0.5371  1.2732
  320MOL0     H43141   9.159   1.471   2.879 -0.4094 -0.1039 -0.4448
  320MOL0     H43142   9.279   1.341   2.889 -0.2820  0.4651  1.0957
  320MOL0     H43143   9.398   1.533   2.953  2.0800 -1.3662 -0.3730
  320MOL0     H43144   9.439   1.524   2.785 -1.3907 -0.5244 -1.5502
  320MOL0     H43145   9.327   1.710   2.721 -1.4005  2.6820  0.5708
  320MOL0     H43146   9.200   1.704   2.842 -1.6256 -0.7573 -2.2551
  320MOL0     H43147   9.504   1.780   2.854  0.4330 -1.4238  1.6478
  320MOL0     H43148   9.401   1.790   2.996  1.4383  3.1539  1.3110
  320MOL0     H43149   9.431   2.006   2.861  1.0027 -2.5573 -3.2341
  320MOL0     H43150   9.323   1.947   2.750 -0.3886  5.2169 -0.1132
  320MOL0     H43151   9.346   2.013   3.138  0.3546 -0.4143  0.2728
  320MOL0     H43152   9.138   2.133   3.331  0.1521 -0.0689  2.0855
  320MOL0     H43153   8.977   2.078   3.274  1.2877  2.0314 -1.2222
  320MOL0     H43154   9.079   1.827   3.323  1.7488 -1.6143  0.2245
  320MOL0     H43155   9.174   1.929   3.440  0.2883 -2.0929 -0.2408
  320MOL0     H43156   8.967   1.828   3.540  1.1995 -0.4539 -0.9187
  320MOL0     H43157   8.879   1.909   3.408  0.5922 -1.1237 -1.8469
  320MOL0     H43158   8.864   2.023   3.629  0.7844 -2.7141  0.0953
  320MOL0     H43159   8.945   2.128   3.509 -0.4971 -2.0124 -2.8518
  320MOL0     H43160   9.177   1.983   3.883  1.0521  0.3302 -1.2045
  320MOL0     H43161   9.188   2.130   4.067  0.6447 -1.2078 -0.0813
  320MOL0     H43162   8.949   2.412   4.404 -1.2764  1.6317  1.3445
  320MOL0     H43163   9.049   2.541   4.612  0.1720 -0.3787 -0.1781
  320MOL0     H43164   9.457   2.756   4.555  0.6111  1.7660  1.5283
  320MOL0     H43165   9.308   2.825   4.486  1.5432 -0.8383 -0.7780
  320MOL0     H43166   9.243   2.886   4.725 -0.4265  0.3848  0.4362
  320MOL0     H43167   9.413   2.837   4.766  1.4989  0.2165 -1.2335
  320MOL0     H43168   9.373   3.032   4.539  3.4662 -2.4564 -0.6680
  320MOL0     H43169   9.350   3.095   4.705 -0.1786 -1.7008  1.1218
  320MOL0     H43170   9.607   2.949   4.589 -1.8344 -0.2799 -0.9075
  320MOL0     H43171   9.595   3.028   4.746  6.2959 -0.0752 -2.5694
  320MOL0     H43172   9.633   3.230   4.639 -2.0216 -0.0870  0.7813
  320MOL0     H43173   9.514   3.188   4.511 -0.4293  1.9663  2.1283
  320MOL0     H43174   9.785   3.064   4.507 -0.8826  0.3739 -1.2055
  320MOL0     H43175   9.644   3.069   4.391 -4.1941  1.1304  1.1874
  320MOL0     H43176   9.790   3.322   4.485  1.1489 -1.1143 -0.1148
  320MOL0     H43177   9.646   3.309   4.393 -1.4662 -0.0662  3.6615
  320MOL0     H43178   9.874   3.354   4.272  2.4029 -1.4547 -1.6364
  320MOL0     H43179   9.916   3.195   4.316 -1.4254 -0.0146  2.0312
  320MOL0     H43180   9.399   2.633   4.379  0.5401 -0.8361  0.7043
  320MOL0     H43181   9.313   2.440   4.221 -2.1555 -0.0748 -1.0234
  320MOL0     H43182   8.890   2.385   3.900 -0.4140  0.3671  3.2419
  320MOL0     H43183   8.892   2.260   3.694 -1.1463  2.9542  1.1624
  320MOL0     H43184   8.796   1.666   2.574 -0.8128  0.0450 -2.1444
  320MOL0     H43185   8.585   1.775   2.524  2.0724 -0.4284 -0.2480
  320MOL0     H43186   8.102   1.624   2.529  1.4560 -0.1489 -1.2328
  320MOL0     H43187   7.845   1.697   2.550 -1.8574  1.1807 -1.3571
  320MOL0     H43188   7.794   2.018   2.688 -0.7387  0.0704  0.7966
  320MOL0     H43189   7.625   1.998   2.637  0.2930 -0.3419 -0.1364
  320MOL0     H43190   7.825   2.206   2.545 -1.0639  1.3556  0.3842
  320MOL0     H43191   7.687   2.231   2.653  1.8612 -0.0317  1.5006
  320MOL0     H43192   7.527   2.180   2.461 -0.0606  2.6211 -0.5295
  320MOL0     H43193   7.673   2.122   2.366  0.4563 -0.4537  0.7623
  320MOL0     H43194   7.753   2.335   2.337 -0.2311  0.4339  0.5914
  320MOL0     H43195   7.591   2.361   2.290 -0.0306  0.6521  0.7809
  320MOL0     H43196   7.597   2.629   2.590  2.3632  0.9640 -1.2862
  320MOL0     H43197   7.978   2.088   2.446  0.8518 -0.1264 -0.1664
  320MOL0     H43198   8.281   2.079   2.469  1.8693 -0.9365 -0.7372
  320MOL0     H43199   8.276   2.005   2.299 -1.8973 -2.1454 -0.2339
  320MOL0     H43200   8.167   2.134   2.346 -2.2084 -0.2158  2.6182
  321MOL0     O43201   3.190   6.247   7.072  0.0335  0.2782 -0.5093
  321MOL0     C43202   3.142   6.359   7.099 -0.1174  0.6988  0.2219
  321MOL0     O43203   3.108   6.406   7.226 -0.4440  0.2107  0.6618
  321MOL0     C43204   3.136   6.328   7.331  0.5787  0.4101 -1.2450
  321MOL0     C43205   3.039   6.246   7.392 -1.4393  0.3271 -0.0313
  321MOL0     C43206   3.079   6.171   7.511  0.2062  0.3326 -0.4037
  321MOL0     C43207   3.214   6.164   7.553  0.1899 -0.4556 -0.5334
  321MOL0     O43208   3.244   6.091   7.665 -0.3001  0.1939  0.3865
  321MOL0     C43209   3.363   6.126   7.741 -0.9076  0.5048 -0.5753
  321MOL0     C43210   3.383   6.002   7.833 -0.1738  0.1454  0.4815
  321MOL0     C43211   3.279   5.988   7.935 -0.5913  0.1311  0.3247
  321MOL0     C43212   3.253   5.830   7.948  0.4827  0.4105  0.4941
  321MOL0     C43213   3.140   5.819   8.050  0.3264  0.0500  0.0310
  321MOL0     C43214   3.080   5.682   8.068 -0.1691  0.6395 -0.8419
  321MOL0     C43215   3.161   5.564   8.127  0.6285 -0.4358 -0.4307
  321MOL0     C43216   3.095   5.426   8.106  0.2205 -0.0388 -0.1456
  321MOL0     N43217   2.996   5.387   8.212 -1.1779  0.8972  0.3351
  321MOL0     C43218   2.862   5.395   8.197  0.1566 -0.4475 -0.0775
  321MOL0     C43219   2.815   5.342   8.311 -0.2982  0.2449  0.6392
  321MOL0     C43220   2.681   5.278   8.305 -0.9376  0.5260 -0.3096
  321MOL0     C43221   2.685   5.127   8.250 -0.4461  0.4235  0.5908
  321MOL0     C43222   2.551   5.051   8.218  1.6846 -0.7120  0.0444
  321MOL0     C43223   2.565   4.916   8.145  0.9697 -0.0381 -0.2158
  321MOL0     O43224   2.584   4.927   8.000 -0.1168 -0.2065  0.0338
  321MOL0     C43225   2.601   4.817   7.926  0.2537 -0.7354  0.0850
  321MOL0     C43226   2.660   4.813   7.803  0.4070 -0.2326 -0.3250
  321MOL0     C43227   2.669   4.699   7.728  0.1180 -0.5759 -0.0587
  321MOL0     C43228   2.644   4.580   7.793 -0.1318  0.3589  0.7004
  321MOL0     C43229   2.639   4.457   7.698 -0.3016  0.1410 -0.4633
  321MOL0     O43230   2.575   4.356   7.754 -0.0475  0.4245 -0.4181
  321MOL0     C43231   2.558   4.239   7.680 -0.0756 -0.4111  0.5691
  321MOL0     C43232   2.607   4.117   7.740  1.0885 -0.0670 -0.5386
  321MOL0     C43233   2.587   3.996   7.670  0.4987 -0.7289 -0.0548
  321MOL0     C43234   2.505   3.992   7.556 -0.9888 -0.0279 -0.5318
  321MOL0     O43235   2.485   3.871   7.496  0.0017  0.0087 -0.8946
  321MOL0     C43236   2.399   3.855   7.384  0.2256  0.4123 -0.2049
  321MOL0     C43237   2.421   3.710   7.329 -0.3863 -0.5683 -0.0613
  321MOL0     C43238   2.436   3.604   7.439  0.1380  0.5856  0.2934
  321MOL0     C43239   2.327   3.620   7.543 -0.2238  0.0085  0.8442
  321MOL0     C43240   2.350   3.521   7.664  0.2151  0.1268 -0.3391
  321MOL0     C43241   2.372   3.590   7.795 -0.0209 -1.0800 -0.0817
  321MOL0     C43242   2.244   3.658   7.849  1.5009 -0.0748  0.6702
  321MOL0     C43243   2.275   3.736   7.967 -0.3008 -0.1176 -0.3447
  321MOL0    Cl43244   2.128   3.774   8.069 -0.0868  0.0966 -0.3180
  321MOL0     C43245   2.459   4.110   7.494 -0.4276 -0.3499  0.5550
  321MOL0     C43246   2.496   4.228   7.558  0.3538 -0.2773 -0.1940
  321MOL0     O43247   2.692   4.455   7.584  0.0345 -0.7318  0.0601
  321MOL0     C43248   2.609   4.573   7.923 -0.4199  0.1464  0.2377
  321MOL0     C43249   2.568   4.692   7.987 -0.5876 -1.5141 -0.1205
  321MOL0     N43250   2.912   5.309   8.404  0.0170 -0.5286 -0.4759
  321MOL0     N43251   3.024   5.346   8.342 -0.4878 -0.4645 -0.2413
  321MOL0     C43252   3.310   6.248   7.489  0.1192  0.4360  0.9662
  321MOL0     C43253   3.268   6.327   7.383 -0.5414 -0.2345  0.6621
  321MOL0     C43254   3.097   6.453   6.990  0.0788  0.0062  0.3659
  321MOL0     C43255   3.057   6.584   7.036  0.8991 -0.5613 -0.5919
  321MOL0     C43256   2.995   6.672   6.943  0.6389  0.3270 -0.8901
  321MOL0     C43257   2.973   6.640   6.810 -0.2736 -0.0192 -0.6826
  321MOL0     O43258   2.918   6.723   6.715 -0.4016  0.0307  0.0384
  321MOL0     C43259   3.002   6.762   6.600  0.4011  0.5885 -0.4048
  321MOL0     C43260   2.920   6.803   6.480  0.8117 -0.6131  0.0862
  321MOL0     C43261   2.831   6.929   6.493 -0.5094  0.6080 -0.5864
  321MOL0     C43262   2.735   6.942   6.367 -0.5719  0.1450 -0.1214
  321MOL0     C43263   2.625   7.044   6.378 -1.1211  0.0999  0.9192
  321MOL0     C43264   2.531   7.124   6.379 -0.0334 -0.1563 -0.3184
  321MOL0     C43265   3.018   6.514   6.773 -0.1969  0.0155  0.0886
  321MOL0     C43266   3.080   6.419   6.852  0.1947  1.1936  0.3378
  321MOL0     C43267   3.106   6.279   6.785 -0.6264 -0.1151  1.2013
  321MOL0     H43268   2.933   6.242   7.367 -2.3772  4.5776  2.2068
  321MOL0     H43269   3.006   6.126   7.578 -0.1836 -2.0082 -2.2673
  321MOL0     H43270   3.452   6.131   7.677  0.2549  1.1365  1.0288
  321MOL0     H43271   3.352   6.217   7.800 -1.1570  0.4585 -0.5517
  321MOL0     H43272   3.472   6.014   7.896  2.0120 -2.2659 -1.8849
  321MOL0     H43273   3.408   5.913   7.774  1.9461  1.2967 -0.4903
  321MOL0     H43274   3.194   6.043   7.894  2.3432  3.6919 -1.6498
  321MOL0     H43275   3.314   6.029   8.030  1.7994  1.8858 -1.2053
  321MOL0     H43276   3.215   5.771   7.864  1.7501  1.4279 -0.8418
  321MOL0     H43277   3.343   5.787   7.992  0.6923  0.4182  0.0733
  321MOL0     H43278   3.178   5.853   8.147  1.0923 -1.0788  0.1485
  321MOL0     H43279   3.055   5.880   8.016  0.1345  0.4537  1.1821
  321MOL0     H43280   2.998   5.702   8.138 -0.0078 -2.1785  0.2828
  321MOL0     H43281   3.051   5.660   7.965  2.6038 -1.5783 -1.2733
  321MOL0     H43282   3.179   5.580   8.233 -0.5424  1.6619 -0.5124
  321MOL0     H43283   3.253   5.544   8.070  0.0959 -0.7412 -1.2119
  321MOL0     H43284   3.042   5.428   8.011 -2.5612  1.6306  1.3108
  321MOL0     H43285   3.170   5.346   8.114 -2.3290 -2.8172 -2.0368
  321MOL0     H43286   2.805   5.419   8.108 -0.0576 -1.9319 -0.3677
  321MOL0     H43287   2.653   5.277   8.411  1.6721  0.5877  0.4516
  321MOL0     H43288   2.606   5.331   8.245 -2.0090 -1.2553 -0.6047
  321MOL0     H43289   2.738   5.144   8.156 -1.4614 -1.3203 -0.3319
  321MOL0     H43290   2.746   5.057   8.309 -0.3282 -0.4151 -0.4948
  321MOL0     H43291   2.495   5.109   8.143  0.8869 -1.3144  0.1639
  321MOL0     H43292   2.480   5.056   8.301  2.1946  0.9847  0.4246
  321MOL0     H43293   2.477   4.854   8.163  3.7291 -3.7419  2.0917
  321MOL0     H43294   2.640   4.854   8.195  1.3214  2.8506  3.3176
  321MOL0     H43295   2.669   4.907   7.749 -3.0860  1.9159  2.4513
  321MOL0     H43296   2.681   4.708   7.621  1.9153 -5.3192 -0.5059
  321MOL0     H43297   2.656   4.133   7.835  0.6697  0.4987 -0.4116
  321MOL0     H43298   2.621   3.907   7.722  1.9417 -0.5313 -0.6126
  321MOL0     H43299   2.300   3.878   7.425 -1.0535 -4.7590  0.4356
  321MOL0     H43300   2.412   3.933   7.309  1.5044  2.0442  1.6383
  321MOL0     H43301   2.343   3.696   7.254 -1.0810  0.3534  0.4641
  321MOL0     H43302   2.515   3.714   7.274  1.8944 -1.3278  3.4455
  321MOL0     H43303   2.448   3.502   7.403 -0.0473  0.5517  0.3264
  321MOL0     H43304   2.533   3.619   7.487  0.3613 -1.2249  0.4442
  321MOL0     H43305   2.235   3.600   7.488  1.4383 -0.4343 -1.9772
  321MOL0     H43306   2.321   3.724   7.576  0.3601  0.4722 -0.4677
  321MOL0     H43307   2.447   3.473   7.645  1.9241  3.2083  0.0239
  321MOL0     H43308   2.263   3.455   7.665  1.3011 -1.5385 -2.7612
  321MOL0     H43309   2.423   3.519   7.861 -0.8394  0.2765  2.1266
  321MOL0     H43310   2.445   3.669   7.774 -1.4793  1.2758  2.9513
  321MOL0     H43311   2.196   3.562   7.871  4.8152 -1.8522  0.8502
  321MOL0     H43312   2.188   3.719   7.778  0.0050 -2.0600  0.0376
  321MOL0     H43313   2.355   3.698   8.030  0.1024 -0.7568 -1.2265
  321MOL0     H43314   2.312   3.835   7.940  0.3535  1.1789  4.3525
  321MOL0     H43315   2.402   4.108   7.402  3.1681 -1.2447 -1.8661
  321MOL0     H43316   2.465   4.317   7.502 -1.6183 -0.0119  1.2103
  321MOL0     H43317   2.588   4.470   7.951 -2.8950  0.9257  1.5817
  321MOL0     H43318   2.515   4.687   8.082 -3.3530 -0.7593 -1.5008
  321MOL0     H43319   3.417   6.251   7.510  0.2389  0.4606  0.3731
  321MOL0     H43320   3.346   6.389   7.339 -0.3097 -1.0325 -0.0781
  321MOL0     H43321   3.070   6.627   7.135  1.5132 -0.1894 -0.8270
  321MOL0     H43322   2.962   6.774   6.960  0.3037  1.0467 -4.7774
  321MOL0     H43323   3.060   6.674   6.572  0.9838 -0.4276  3.4209
  321MOL0     H43324   3.071   6.839   6.634  3.7043 -2.0782 -0.5352
  321MOL0     H43325   2.866   6.718   6.438  0.8226 -0.3339 -0.5093
  321MOL0     H43326   3.001   6.816   6.407  1.0662 -0.1601  0.4431
  321MOL0     H43327   2.892   7.019   6.501 -0.6523  0.5499  1.7420
  321MOL0     H43328   2.769   6.921   6.583  2.0213  1.0786  1.3037
  321MOL0     H43329   2.797   6.980   6.285 -2.2943  1.1122 -1.0242
  321MOL0     H43330   2.697   6.844   6.339 -3.0000  1.1868 -0.7020
  321MOL0     H43331   2.452   7.196   6.385  0.0790  0.2293 -2.4839
  321MOL0     H43332   2.994   6.487   6.670 -1.0248 -3.7031  1.1006
  321MOL0     H43333   3.101   6.288   6.676 -6.0351 -0.1667  1.1335
  321MOL0     H43334   3.206   6.261   6.824 -0.4386 -0.1029  0.7291
  321MOL0     H43335   3.037   6.197   6.810 -4.1583  1.9268 -0.8967
  322MOL0     O43336   0.735   2.360   9.801  0.2552 -0.1344 -0.3543
  322MOL0     C43337   0.626   2.341   9.743 -0.0531 -0.1296  0.9332
  322MOL0     O43338   0.559   2.439   9.673  0.2330 -0.4300 -0.0145
  322MOL0     C43339   0.605   2.565   9.651 -0.5000 -0.5786 -0.6546
  322MOL0     C43340   0.741   2.593   9.621 -0.0713  0.6674 -0.8718
  322MOL0     C43341   0.779   2.722   9.605 -0.4160  0.1758 -0.8529
  322MOL0     C43342   0.703   2.832   9.617  1.0989 -0.3517 -0.5832
  322MOL0     O43343   0.746   2.961   9.582 -0.3837 -0.7439  0.3746
  322MOL0     C43344   0.647   3.072   9.593 -0.0464 -0.2515 -0.4119
  322MOL0     C43345   0.539   3.068   9.479  0.1782 -0.5571 -0.1677
  322MOL0     C43346   0.590   3.057   9.334  0.9293 -0.1197  0.2514
  322MOL0     C43347   0.471   3.073   9.232  0.7469 -0.3285 -0.3155
  322MOL0     C43348   0.451   3.221   9.199  0.5646  0.0745  0.2573
  322MOL0     C43349   0.303   3.248   9.145  0.4074  0.2722 -0.1788
  322MOL0     C43350   0.184   3.170   9.204 -0.2814  0.3941 -0.4529
  322MOL0     C43351   0.160   3.207   9.350  0.6422 -0.7571 -0.6183
  322MOL0     N43352   0.066   3.317   9.356  0.7754 -0.4409 -0.1906
  322MOL0     C43353   0.068   3.445   9.299 -0.4954 -0.0102 -0.4935
  322MOL0     C43354  -0.045   3.512   9.327 -0.5975 -0.4519 -0.6407
  322MOL0     C43355  -0.064   3.659   9.297 -0.7772  0.5807  0.5606
  322MOL0     C43356  -0.175   3.672   9.204  0.1586  0.5446 -0.3553
  322MOL0     C43357  -0.308   3.740   9.258 -0.6906 -0.6155 -0.1082
  322MOL0     C43358  -0.375   3.660   9.363 -0.1552 -0.3106  0.9325
  322MOL0     O43359  -0.484   3.741   9.416  0.2874  1.0024 -0.3286
  322MOL0     C43360  -0.470   3.769   9.552 -0.5179  0.0117 -0.0031
  322MOL0     C43361  -0.582   3.749   9.627  0.5982 -0.2953  0.3665
  322MOL0     C43362  -0.580   3.786   9.759 -0.5416 -0.2404 -0.7116
  322MOL0     C43363  -0.455   3.816   9.822 -0.8411 -0.5532 -0.0863
  322MOL0     C43364  -0.446   3.848   9.965 -0.7736  0.6708 -1.1267
  322MOL0     O43365  -0.556   3.886  10.020  0.6959 -0.3457 -0.0329
  322MOL0     C43366  -0.555   3.924  10.145  0.4975 -0.7468  0.3075
  322MOL0     C43367  -0.621   4.043  10.177 -0.3502  0.6005  0.8351
  322MOL0     C43368  -0.614   4.100  10.303  0.6876  0.1949  0.9630
  322MOL0     C43369  -0.567   4.026  10.409 -0.5107  0.1631 -0.6112
  322MOL0     O43370  -0.556   4.080  10.538  0.3328  0.5233 -0.9589
  322MOL0     C43371  -0.621   4.200  10.584 -0.3229 -0.5134 -1.5238
  322MOL0     C43372  -0.592   4.223  10.736 -0.1393  0.4293  0.8893
  322MOL0     C43373  -0.581   4.371  10.782  0.3183 -0.5066  1.1145
  322MOL0     C43374  -0.719   4.442  10.772 -0.4528  0.6029  0.5466
  322MOL0     C43375  -0.695   4.576  10.833 -0.0026 -0.6183 -0.3598
  322MOL0     C43376  -0.598   4.663  10.758  0.4995 -0.3981 -0.0940
  322MOL0     C43377  -0.635   4.816  10.770  0.4831  0.3061  0.3076
  322MOL0     C43378  -0.537   4.905  10.691 -1.0057 -0.4450 -1.0015
  322MOL0    Cl43379  -0.500   4.833  10.535  0.1185  0.1783 -0.0589
  322MOL0     C43380  -0.514   3.901  10.380 -0.6313  0.2535 -0.8110
  322MOL0     C43381  -0.499   3.855  10.248  0.5354  0.3703  1.0748
  322MOL0     O43382  -0.330   3.860  10.019  0.7359 -0.4598 -0.0945
  322MOL0     C43383  -0.337   3.824   9.747 -0.2988 -0.2262 -0.8741
  322MOL0     C43384  -0.356   3.827   9.610 -0.5861  0.6099  0.3214
  322MOL0     N43385  -0.127   3.420   9.396  0.1226 -0.0175 -0.2617
  322MOL0     N43386  -0.063   3.313   9.409 -0.9426  0.3856  0.4355
  322MOL0     C43387   0.567   2.808   9.657  0.3354 -0.2778  1.2653
  322MOL0     C43388   0.525   2.679   9.673  0.1683 -0.2135 -0.6933
  322MOL0     C43389   0.557   2.211   9.769 -0.1747 -0.3645 -0.0459
  322MOL0     C43390   0.418   2.207   9.755 -0.4604 -0.7471  0.4238
  322MOL0     C43391   0.346   2.090   9.762  0.1764  0.7631 -1.0131
  322MOL0     C43392   0.407   1.969   9.801 -0.8270 -0.6753 -0.5834
  322MOL0     O43393   0.345   1.856   9.825 -0.9756 -0.2210 -0.2851
  322MOL0     C43394   0.206   1.836   9.814  1.1274 -0.0489  0.3305
  322MOL0     C43395   0.115   1.895   9.921  0.4528 -0.1584  0.0710
  322MOL0     C43396  -0.043   1.881   9.906  0.1602 -1.2505  0.1415
  322MOL0     C43397  -0.122   2.003   9.879  0.9677 -0.0014  0.6034
  322MOL0     C43398  -0.069   2.066   9.752 -0.1826 -0.4248 -0.0099
  322MOL0     C43399  -0.026   2.128   9.659 -0.3574  0.5853  0.6029
  322MOL0     C43400   0.553   1.971   9.817  0.5357 -1.6045 -0.0645
  322MOL0     C43401   0.621   2.094   9.799 -0.7333  0.5090 -0.2190
  322MOL0     C43402   0.773   2.081   9.794 -0.2595 -0.8159  0.2087
  322MOL0     H43403   0.814   2.513   9.627 -0.2331  0.5961  0.6697
  322MOL0     H43404   0.877   2.755   9.573 -1.0130  3.6364  0.5166
  322MOL0     H43405   0.603   3.064   9.693 -0.9077 -1.2841 -0.8532
  322MOL0     H43406   0.700   3.167   9.578  2.1640 -0.3491  4.5554
  322MOL0     H43407   0.487   3.163   9.486  1.1436 -0.0675  0.6269
  322MOL0     H43408   0.464   2.990   9.493  0.1277 -0.5417 -0.3449
  322MOL0     H43409   0.626   2.954   9.328  2.9643  0.5121  0.8975
  322MOL0     H43410   0.671   3.125   9.307 -0.6747  0.4387 -3.9242
  322MOL0     H43411   0.511   3.023   9.144 -0.6621  0.0366 -1.1922
  322MOL0     H43412   0.386   3.023   9.279 -0.1736 -2.4918 -3.8981
  322MOL0     H43413   0.460   3.286   9.287 -1.0708  0.1446  0.4202
  322MOL0     H43414   0.524   3.253   9.124 -0.5766 -0.9590 -1.3652
  322MOL0     H43415   0.286   3.353   9.170 -1.7173 -0.0980  0.1460
  322MOL0     H43416   0.297   3.238   9.036 -3.0151  0.5854 -0.1243
  322MOL0     H43417   0.200   3.062   9.200  1.2375  0.6262 -1.2909
  322MOL0     H43418   0.094   3.191   9.146 -0.2659 -0.5114 -0.8299
  322MOL0     H43419   0.126   3.124   9.413  3.1116 -1.3417  0.0671
  322MOL0     H43420   0.253   3.234   9.401 -0.2134 -1.3802  1.3866
  322MOL0     H43421   0.156   3.486   9.250  2.4668 -2.9624  1.8473
  322MOL0     H43422  -0.087   3.708   9.392 -2.2991 -0.3847  0.7142
  322MOL0     H43423   0.016   3.705   9.239 -1.0816 -0.9681 -1.1642
  322MOL0     H43424  -0.137   3.721   9.114 -1.0876  0.0892 -1.1444
  322MOL0     H43425  -0.206   3.571   9.178 -0.5116  0.6605 -0.0095
  322MOL0     H43426  -0.374   3.765   9.175 -0.7071  1.6235  0.5146
  322MOL0     H43427  -0.280   3.839   9.294  4.3603 -1.5803 -0.6363
  322MOL0     H43428  -0.293   3.636   9.432  2.2765  2.4979 -0.7688
  322MOL0     H43429  -0.395   3.557   9.334  2.4949  0.1867 -3.5300
  322MOL0     H43430  -0.675   3.715   9.582 -1.6583  2.2203  2.7598
  322MOL0     H43431  -0.674   3.779   9.813 -0.5923 -4.7446 -1.0291
  322MOL0     H43432  -0.657   4.104  10.095 -2.0072 -2.4041 -0.8599
  322MOL0     H43433  -0.665   4.194  10.322  0.5784  0.5066 -0.7587
  322MOL0     H43434  -0.586   4.284  10.524  2.4490 -0.1888  0.3519
  322MOL0     H43435  -0.724   4.195  10.548 -0.6817  2.1229 -1.0729
  322MOL0     H43436  -0.675   4.179  10.791 -0.7512  2.8125  1.9924
  322MOL0     H43437  -0.509   4.158  10.767 -0.1569  0.5723  1.2414
  322MOL0     H43438  -0.555   4.361  10.888 -2.3271 -0.8001  1.7945
  322MOL0     H43439  -0.500   4.414  10.721  1.0478 -4.4215 -1.0009
  322MOL0     H43440  -0.796   4.373  10.808  0.3709 -1.7206 -1.8477
  322MOL0     H43441  -0.749   4.454  10.667  0.3274 -2.4968 -0.1251
  322MOL0     H43442  -0.665   4.570  10.938 -3.5507 -0.8078  0.7523
  322MOL0     H43443  -0.792   4.626  10.840  0.7826  0.8562  0.5107
  322MOL0     H43444  -0.496   4.637  10.788  1.3388 -0.2471 -2.6026
  322MOL0     H43445  -0.601   4.643  10.650  0.6856  1.6152 -0.5059
  322MOL0     H43446  -0.630   4.843  10.876 -0.6778 -0.6134  0.6231
  322MOL0     H43447  -0.739   4.832  10.741 -0.2397 -1.0783  2.0060
  322MOL0     H43448  -0.578   5.004  10.667  0.1860 -0.0104 -1.3195
  322MOL0     H43449  -0.444   4.923  10.745  0.0721 -3.9069 -1.4584
  322MOL0     H43450  -0.463   3.836  10.450 -0.8722  0.1559 -0.7245
  322MOL0     H43451  -0.453   3.760  10.223  0.3691  0.1320  1.6642
  322MOL0     H43452  -0.239   3.857   9.781 -0.2105  3.2596 -3.9203
  322MOL0     H43453  -0.274   3.842   9.539  0.8149  2.1825  2.1616
  322MOL0     H43454   0.499   2.890   9.678  0.7993 -0.0436  1.8957
  322MOL0     H43455   0.431   2.656   9.722  0.9424 -2.6661 -0.2246
  322MOL0     H43456   0.383   2.301   9.714  2.1510 -0.0740 -0.4528
  322MOL0     H43457   0.238   2.092   9.746 -0.2317  0.8227  1.3239
  322MOL0     H43458   0.189   1.728   9.813  0.1178  0.0730  1.7663
  322MOL0     H43459   0.172   1.880   9.720  3.1957  2.1137  0.4774
  322MOL0     H43460   0.136   2.002   9.923  0.6896 -0.1707  3.1096
  322MOL0     H43461   0.137   1.859  10.023 -0.5165 -2.2610 -0.4081
  322MOL0     H43462  -0.082   1.843  10.001 -2.4987 -3.1417 -1.5685
  322MOL0     H43463  -0.058   1.804   9.830 -0.9732  1.2179 -2.3481
  322MOL0     H43464  -0.230   1.990   9.868  0.6910  2.8452 -1.4406
  322MOL0     H43465  -0.112   2.081   9.956  0.8690  1.1528 -0.5102
  322MOL0     H43466   0.008   2.183   9.574 -1.6788 -0.1696 -0.4553
  322MOL0     H43467   0.592   1.874   9.845 -1.9916 -2.3045  1.3830
  322MOL0     H43468   0.821   2.113   9.886  0.5430  1.2424 -0.8590
  322MOL0     H43469   0.801   1.976   9.783 -0.7500 -1.1661  2.0624
  322MOL0     H43470   0.835   2.126   9.715  0.8744 -0.9070  1.0288
  323MOL0     O43471   5.130   1.321   0.931 -0.7469  0.0734  0.0244
  323MOL0     C43472   5.007   1.321   0.960 -0.4961  0.3174  0.7701
  323MOL0     O43473   4.904   1.277   0.882  0.2225  0.2434 -0.3463
  323MOL0     C43474   4.919   1.281   0.744 -0.3962 -0.7012  1.1339
  323MOL0     C43475   4.834   1.206   0.665 -0.1634 -0.6343 -1.3177
  323MOL0     C43476   4.820   1.228   0.529  0.7033  0.2404  0.3777
  323MOL0     C43477   4.896   1.314   0.460 -0.9085 -0.4755  0.3808
  323MOL0     O43478   4.877   1.314   0.321  0.5087 -0.7533  0.1487
  323MOL0     C43479   4.911   1.435   0.251 -0.7396  0.7477  0.2675
  323MOL0     C43480   4.785   1.500   0.204  0.9537 -0.3130 -0.7183
  323MOL0     C43481   4.828   1.584   0.084 -0.1662 -0.1936  0.9590
  323MOL0     C43482   4.708   1.662   0.034  0.0410  0.0305 -0.1246
  323MOL0     C43483   4.692   1.793   0.107  0.2343 -0.3459  0.5194
  323MOL0     C43484   4.596   1.898   0.048  0.2743 -0.2091  0.3085
  323MOL0     C43485   4.603   2.032   0.112  0.1878 -0.6616 -0.3469
  323MOL0     C43486   4.545   2.045   0.252 -1.1421 -0.4401 -0.3715
  323MOL0     N43487   4.625   1.978   0.362 -0.1974 -0.2493 -1.2864
  323MOL0     C43488   4.584   1.869   0.427 -0.2498  1.0090  1.4610
  323MOL0     C43489   4.700   1.822   0.486  0.6181  0.1183 -0.4314
  323MOL0     C43490   4.704   1.692   0.563  0.3081  0.0160 -0.0778
  323MOL0     C43491   4.699   1.711   0.718 -0.0314  0.2009 -0.6487
  323MOL0     C43492   4.788   1.820   0.772  0.6089 -0.1434  0.1733
  323MOL0     C43493   4.935   1.779   0.753 -0.2193 -0.5120  0.6291
  323MOL0     O43494   5.032   1.850   0.837 -0.5932 -0.2917 -0.6013
  323MOL0     C43495   5.055   1.982   0.815 -0.8797  0.3712  0.6121
  323MOL0     C43496   5.104   2.066   0.918  0.2987  0.2428 -0.6159
  323MOL0     C43497   5.122   2.202   0.901  0.0552 -0.0676  0.3867
  323MOL0     C43498   5.090   2.261   0.779 -0.7872  0.3236  0.1346
  323MOL0     C43499   5.126   2.411   0.747  0.8803  0.6104  0.1131
  323MOL0     O43500   5.192   2.474   0.851 -0.4900  0.0537 -0.0057
  323MOL0     C43501   5.237   2.602   0.841  0.6291 -0.3438 -0.3775
  323MOL0     C43502   5.165   2.703   0.779 -0.3493  0.1909 -0.9683
  323MOL0     C43503   5.216   2.828   0.777 -0.4341 -0.7139  0.0830
  323MOL0     C43504   5.338   2.860   0.819 -1.2319 -0.3591  0.0189
  323MOL0     O43505   5.390   2.989   0.812  0.9098  0.3840 -0.5806
  323MOL0     C43506   5.526   3.001   0.813  0.6864 -0.6411 -0.5440
  323MOL0     C43507   5.570   3.143   0.788  0.2306 -0.1949  0.6528
  323MOL0     C43508   5.720   3.148   0.814  0.1377  0.3790 -0.0352
  323MOL0     C43509   5.760   3.299   0.811  0.7347 -0.5310  0.0948
  323MOL0     C43510   5.908   3.325   0.772 -0.1542  0.2429 -0.1389
  323MOL0     C43511   5.990   3.437   0.835 -0.8251 -0.0514 -0.0465
  323MOL0     C43512   6.020   3.381   0.975 -1.0586  0.1083  0.6561
  323MOL0     C43513   6.083   3.490   1.058  0.1429  0.3023  0.2595
  323MOL0    Cl43514   5.983   3.624   1.091 -0.1027 -0.0547 -0.0695
  323MOL0     C43515   5.411   2.761   0.885  0.2891  0.1096 -0.2030
  323MOL0     C43516   5.362   2.625   0.900  0.0879  0.0787 -0.2313
  323MOL0     O43517   5.095   2.457   0.638 -0.8974 -0.2950  0.6646
  323MOL0     C43518   5.043   2.183   0.677  0.2307  0.3365  1.1169
  323MOL0     C43519   5.022   2.047   0.698  0.9515 -0.2734  0.3081
  323MOL0     N43520   4.806   1.908   0.469 -1.3446  0.6401 -0.1437
  323MOL0     N43521   4.753   2.006   0.393  0.0766 -0.4998  0.0728
  323MOL0     C43522   4.991   1.389   0.534 -0.3509  0.4311 -0.3388
  323MOL0     C43523   5.007   1.370   0.669 -0.0356  0.6641 -1.0934
  323MOL0     C43524   4.980   1.343   1.102  0.1653 -0.2673  0.1698
  323MOL0     C43525   4.915   1.250   1.178  0.8513  0.6545 -0.2773
  323MOL0     C43526   4.905   1.255   1.312  0.1293  0.0873 -1.1193
  323MOL0     C43527   4.939   1.365   1.383 -1.4634  0.0255  0.6548
  323MOL0     O43528   4.926   1.357   1.521 -0.0955  1.0409  0.6989
  323MOL0     C43529   4.966   1.467   1.602  0.5600 -0.4938 -0.0654
  323MOL0     C43530   4.872   1.592   1.589 -0.5181 -0.4012 -0.0749
  323MOL0     C43531   4.890   1.715   1.683 -0.7199  0.8935  0.2715
  323MOL0     C43532   5.013   1.792   1.663 -0.4733  1.1377  0.7272
  323MOL0     C43533   5.029   1.845   1.526  0.4621 -0.1232 -0.3274
  323MOL0     C43534   5.049   1.898   1.415 -0.6666 -0.1772 -0.0745
  323MOL0     C43535   4.993   1.474   1.308 -1.2538  0.4245 -0.3667
  323MOL0     C43536   5.023   1.459   1.172  1.4253 -0.5357  0.7829
  323MOL0     C43537   5.080   1.576   1.103 -0.0369 -0.8488  0.2854
  323MOL0     H43538   4.768   1.143   0.724  0.9592 -0.3143  0.3563
  323MOL0     H43539   4.732   1.184   0.482 -0.5797  0.2215  2.6634
  323MOL0     H43540   4.972   1.509   0.303 -1.7527  0.7595  1.4759
  323MOL0     H43541   4.982   1.408   0.171 -3.0193 -1.4484 -1.1682
  323MOL0     H43542   4.737   1.562   0.280  0.6518 -0.0001 -1.1583
  323MOL0     H43543   4.700   1.434   0.186 -0.1259  0.9196 -0.3050
  323MOL0     H43544   4.864   1.513   0.009 -0.6869  1.3291 -0.8088
  323MOL0     H43545   4.913   1.650   0.105  1.1265 -1.6961  0.6884
  323MOL0     H43546   4.727   1.698  -0.067  0.8601  3.6770  1.1789
  323MOL0     H43547   4.618   1.599   0.035 -0.2620  0.3775 -2.2333
  323MOL0     H43548   4.659   1.764   0.208 -0.5993 -1.7338 -0.1144
  323MOL0     H43549   4.789   1.843   0.113 -0.6735  1.6826 -0.9028
  323MOL0     H43550   4.623   1.911  -0.057  2.3657  1.0788  0.9445
  323MOL0     H43551   4.494   1.860   0.054  0.4264 -0.6246  0.3397
  323MOL0     H43552   4.561   2.112   0.050  0.6959  0.3477  0.5701
  323MOL0     H43553   4.707   2.054   0.138 -1.3801  3.4251  4.0774
  323MOL0     H43554   4.525   2.148   0.280 -2.7372 -0.9065  0.2957
  323MOL0     H43555   4.446   1.999   0.251 -1.5845  0.3785 -3.0879
  323MOL0     H43556   4.489   1.818   0.413  0.6490 -0.7221  1.4836
  323MOL0     H43557   4.614   1.633   0.541 -1.7121  3.0275 -0.5303
  323MOL0     H43558   4.791   1.633   0.532 -0.3011 -1.7508  1.3812
  323MOL0     H43559   4.597   1.739   0.744  1.0382  1.1445  3.0804
  323MOL0     H43560   4.723   1.617   0.769 -0.4971  0.5626  0.2598
  323MOL0     H43561   4.764   1.805   0.877 -0.2481 -0.2442 -0.0229
  323MOL0     H43562   4.757   1.922   0.747  3.1602  0.6068 -0.1484
  323MOL0     H43563   4.959   1.787   0.646 -2.6147 -0.4265  0.0413
  323MOL0     H43564   4.953   1.672   0.765  3.5909  0.1014  1.6140
  323MOL0     H43565   5.114   2.036   1.022 -3.1527 -0.6060 -0.3987
  323MOL0     H43566   5.145   2.272   0.981 -3.8853  2.3213 -0.2709
  323MOL0     H43567   5.066   2.695   0.734 -1.3161  2.3985  0.5614
  323MOL0     H43568   5.158   2.907   0.731 -1.0933 -0.9074  0.5652
  323MOL0     H43569   5.564   2.965   0.909 -0.8414  5.1716  2.7431
  323MOL0     H43570   5.561   2.934   0.734  2.3660  0.3806 -0.7276
  323MOL0     H43571   5.556   3.167   0.682 -1.7319 -1.1117  0.6566
  323MOL0     H43572   5.520   3.213   0.855  1.2648  1.9027 -0.6445
  323MOL0     H43573   5.747   3.105   0.910 -1.5977  0.9004  0.7259
  323MOL0     H43574   5.771   3.096   0.732  1.5532  2.5838 -0.6535
  323MOL0     H43575   5.708   3.345   0.896 -2.8548  0.4278 -2.3708
  323MOL0     H43576   5.706   3.353   0.732  1.0644 -0.4363 -0.0699
  323MOL0     H43577   5.907   3.324   0.663 -3.4683 -3.7141 -0.2890
  323MOL0     H43578   5.969   3.237   0.794 -1.0636 -0.5195 -0.6245
  323MOL0     H43579   6.083   3.454   0.780 -0.5756 -1.5180 -0.1275
  323MOL0     H43580   5.937   3.532   0.837  0.8710  0.9238  0.2285
  323MOL0     H43581   6.080   3.290   0.969  1.8733  1.8642  1.2750
  323MOL0     H43582   5.922   3.356   1.017 -2.3046  1.1102 -1.4657
  323MOL0     H43583   6.103   3.465   1.163 -2.0920 -2.3087  0.1584
  323MOL0     H43584   6.178   3.513   1.009  0.1889 -1.5428 -0.6174
  323MOL0     H43585   5.511   2.771   0.926  0.8669 -2.6927 -0.7077
  323MOL0     H43586   5.429   2.555   0.949  0.1411  2.1353  2.8869
  323MOL0     H43587   5.002   2.236   0.591  0.7913 -1.0371 -0.0396
  323MOL0     H43588   4.988   2.006   0.603  2.2089  1.6289 -1.0502
  323MOL0     H43589   5.068   1.441   0.479  0.3972  0.7935  1.0123
  323MOL0     H43590   5.085   1.422   0.724  0.3108  0.7229 -1.6252
  323MOL0     H43591   4.877   1.157   1.138 -0.8791  0.0174  2.6044
  323MOL0     H43592   4.870   1.168   1.366  1.4492 -0.1461 -0.5832
  323MOL0     H43593   5.070   1.488   1.575  0.2028  1.2585 -0.2261
  323MOL0     H43594   4.965   1.429   1.705  1.1787 -2.3871 -0.7102
  323MOL0     H43595   4.771   1.553   1.603 -0.0548 -1.2238  1.1298
  323MOL0     H43596   4.877   1.625   1.485  0.9536  0.3814  0.2123
  323MOL0     H43597   4.884   1.698   1.791  0.2532 -2.7944 -0.1404
  323MOL0     H43598   4.802   1.777   1.664 -1.8162 -0.8762 -0.7489
  323MOL0     H43599   5.012   1.879   1.730 -4.8532  2.6121 -0.8882
  323MOL0     H43600   5.100   1.730   1.686 -1.2045 -0.0594  0.3924
  323MOL0     H43601   5.074   1.957   1.330  0.2045 -0.1801  0.1749
  323MOL0     H43602   5.036   1.569   1.339 -1.6291  1.1439 -1.9188
  323MOL0     H43603   5.057   1.668   1.156  2.2890 -0.5190  0.7987
  323MOL0     H43604   5.188   1.561   1.104  0.4367  1.9868  2.9156
  323MOL0     H43605   5.043   1.584   1.000  0.6341 -3.6471 -0.2741
  324MOL0     O43606   7.332   5.695   7.428  0.4117  0.0403 -0.2514
  324MOL0     C43607   7.356   5.674   7.310 -0.3574 -1.0957 -0.2928
  324MOL0     O43608   7.441   5.747   7.233 -0.3841  0.0564 -0.2132
  324MOL0     C43609   7.486   5.868   7.281 -0.8882 -1.2219  0.1437
  324MOL0     C43610   7.624   5.891   7.288  0.4319 -0.1000 -0.1384
  324MOL0     C43611   7.682   6.012   7.318  0.3165  0.9660 -0.4868
  324MOL0     C43612   7.603   6.123   7.333  0.0040 -0.3543  1.1220
  324MOL0     O43613   7.664   6.247   7.353 -0.6050 -0.2469 -0.2110
  324MOL0     C43614   7.590   6.360   7.333 -0.3505 -0.2256 -0.5665
  324MOL0     C43615   7.686   6.470   7.283  0.2697 -0.7125 -0.0257
  324MOL0     C43616   7.815   6.490   7.361  0.4497  0.0949  0.0704
  324MOL0     C43617   7.859   6.636   7.384 -0.3718 -0.0275  0.7346
  324MOL0     C43618   7.931   6.708   7.267  0.7243  0.1825 -0.3062
  324MOL0     C43619   7.833   6.731   7.151  0.4320 -0.2953  0.2014
  324MOL0     C43620   7.896   6.843   7.063 -0.3434  1.2480  0.2086
  324MOL0     C43621   7.835   6.833   6.925  0.1501  0.0119 -0.0050
  324MOL0     N43622   7.695   6.884   6.915 -0.2161 -0.1277  0.1992
  324MOL0     C43623   7.618   6.895   6.799  0.0215  0.0256 -0.1835
  324MOL0     C43624   7.491   6.910   6.836  0.0824  0.6609 -0.8788
  324MOL0     C43625   7.374   6.942   6.748  0.3593 -0.0213  0.0229
  324MOL0     C43626   7.344   6.841   6.630 -0.3594 -0.0403  0.0392
  324MOL0     C43627   7.234   6.899   6.547  0.5186  1.1557  0.1025
  324MOL0     C43628   7.242   7.028   6.471 -0.3747  0.9083 -0.0615
  324MOL0     O43629   7.336   7.018   6.356  0.5103  0.2477 -0.1149
  324MOL0     C43630   7.279   7.024   6.231  0.7086 -0.5029 -0.3492
  324MOL0     C43631   7.166   6.951   6.187 -0.7564  0.3089  0.3672
  324MOL0     C43632   7.117   6.959   6.058  0.0069  0.2928  1.3128
  324MOL0     C43633   7.190   7.026   5.958 -0.1866  0.8776 -0.3554
  324MOL0     C43634   7.148   7.045   5.821  0.1148  0.1604  1.1637
  324MOL0     O43635   7.234   7.103   5.726 -0.1003  0.5071  0.1348
  324MOL0     C43636   7.190   7.125   5.597  0.1500 -1.4426  1.3379
  324MOL0     C43637   7.097   7.044   5.529  0.0268  0.1807 -0.2984
  324MOL0     C43638   7.069   7.076   5.396  0.0198  0.3185  0.0865
  324MOL0     C43639   7.135   7.178   5.324  0.6116  0.0870 -0.7010
  324MOL0     O43640   7.107   7.197   5.186 -0.9554  0.6622  0.0259
  324MOL0     C43641   7.157   7.316   5.124 -0.8433 -1.4996 -0.3590
  324MOL0     C43642   7.148   7.304   4.974  0.4445  0.5413  0.5057
  324MOL0     C43643   7.181   7.437   4.899  0.2466  0.3981 -0.9638
  324MOL0     C43644   7.310   7.502   4.944 -1.1808 -1.1395  0.1396
  324MOL0     C43645   7.367   7.603   4.835 -0.2170 -0.4165  0.5110
  324MOL0     C43646   7.515   7.622   4.842 -0.7817  0.6428 -0.8451
  324MOL0     C43647   7.547   7.769   4.812 -1.5784 -0.1286  0.4786
  324MOL0     C43648   7.694   7.781   4.814 -0.0482  0.5294  0.0090
  324MOL0    Cl43649   7.739   7.931   4.745  0.3043  0.0754  0.0112
  324MOL0     C43650   7.218   7.263   5.393 -0.1966 -0.6364  0.1748
  324MOL0     C43651   7.239   7.243   5.528 -0.1651  0.4678 -0.0156
  324MOL0     O43652   7.026   7.012   5.800 -0.1387 -0.2803  0.3418
  324MOL0     C43653   7.293   7.110   6.006  0.0801 -0.2212 -0.3124
  324MOL0     C43654   7.335   7.108   6.135 -0.1831  0.4917 -0.2403
  324MOL0     N43655   7.486   6.914   6.970 -0.3134 -0.3219  0.1383
  324MOL0     N43656   7.608   6.906   7.009  0.2055 -0.0593 -0.4070
  324MOL0     C43657   7.461   6.101   7.338  0.5419  0.4191 -0.2849
  324MOL0     C43658   7.406   5.983   7.301 -0.1119  0.6902  0.0169
  324MOL0     C43659   7.297   5.555   7.252 -0.6458  0.0582 -0.0996
  324MOL0     C43660   7.166   5.542   7.201  1.2685 -0.1005 -0.9203
  324MOL0     C43661   7.128   5.433   7.120 -0.1295  0.2791 -0.3606
  324MOL0     C43662   7.218   5.324   7.095  0.1039 -0.2816  0.2101
  324MOL0     O43663   7.176   5.219   7.021  0.1773  0.4077 -0.2513
  324MOL0     C43664   7.068   5.239   6.927  0.3947  0.3802 -0.8108
  324MOL0     C43665   7.050   5.124   6.839  0.1455 -0.0946  0.5751
  324MOL0     C43666   7.006   4.997   6.911  0.9421 -0.4501 -0.0684
  324MOL0     C43667   6.988   4.872   6.820 -0.3554  0.1345  0.4418
  324MOL0     C43668   6.987   4.742   6.890 -0.1722 -0.7344  0.5407
  324MOL0     C43669   6.973   4.632   6.932 -0.6986 -0.2718 -0.5821
  324MOL0     C43670   7.342   5.331   7.160  0.4969  0.2618 -0.0636
  324MOL0     C43671   7.385   5.449   7.225 -0.5912  0.6294  0.2968
  324MOL0     C43672   7.520   5.456   7.283 -0.3989  0.3092 -0.1972
  324MOL0     H43673   7.676   5.807   7.242 -1.4563  0.0783 -2.8241
  324MOL0     H43674   7.789   6.018   7.303  0.3871 -1.5111 -1.5107
  324MOL0     H43675   7.511   6.346   7.259 -0.4249 -2.4854 -0.1098
  324MOL0     H43676   7.549   6.400   7.427 -0.9371  1.7924 -1.6071
  324MOL0     H43677   7.628   6.563   7.290  2.3917  0.9555 -2.7121
  324MOL0     H43678   7.703   6.458   7.176  0.7758  2.9508 -0.4979
  324MOL0     H43679   7.896   6.453   7.297  0.8948 -0.8920  1.1750
  324MOL0     H43680   7.806   6.439   7.458  0.6239 -1.6129 -0.7658
  324MOL0     H43681   7.778   6.705   7.412 -0.7566  0.2587 -0.9804
  324MOL0     H43682   7.928   6.635   7.469  1.7636 -0.5676 -0.9118
  324MOL0     H43683   7.989   6.793   7.304 -1.3176  0.3851  2.8097
  324MOL0     H43684   8.005   6.638   7.225  0.9337  0.3950 -0.2902
  324MOL0     H43685   7.805   6.638   7.100  3.1526 -0.7110 -0.6749
  324MOL0     H43686   7.739   6.770   7.192  0.6127  1.2034 -0.7518
  324MOL0     H43687   8.004   6.841   7.053 -0.3959 -0.6361 -0.3332
  324MOL0     H43688   7.872   6.938   7.112 -4.2745 -0.9258  3.1764
  324MOL0     H43689   7.886   6.897   6.852  2.4465 -0.3503  1.1807
  324MOL0     H43690   7.826   6.731   6.885 -2.7867 -1.1851  3.2334
  324MOL0     H43691   7.664   6.887   6.701 -2.5017  0.2727 -1.4819
  324MOL0     H43692   7.286   6.948   6.813 -0.1410  0.2106 -0.6612
  324MOL0     H43693   7.402   7.039   6.707  1.3631 -1.6791 -3.6687
  324MOL0     H43694   7.436   6.829   6.572  0.9446  1.8669  1.5499
  324MOL0     H43695   7.310   6.743   6.666 -0.1884  0.1578  0.7575
  324MOL0     H43696   7.147   6.908   6.612  1.6948  2.3147  1.6101
  324MOL0     H43697   7.209   6.831   6.465 -1.7228 -0.1543  1.7586
  324MOL0     H43698   7.258   7.118   6.531 -0.5400  1.4374 -0.7959
  324MOL0     H43699   7.148   7.035   6.416  1.1011  0.6452 -2.8369
  324MOL0     H43700   7.108   6.897   6.261 -0.8744  0.8508  0.6814
  324MOL0     H43701   7.031   6.904   6.023  1.2243 -1.6306  1.2051
  324MOL0     H43702   7.058   6.954   5.575 -0.4104 -0.0010 -1.0225
  324MOL0     H43703   7.007   7.014   5.333 -1.8632  3.3215 -1.2586
  324MOL0     H43704   7.116   7.408   5.167  2.7798  1.1114 -1.9279
  324MOL0     H43705   7.265   7.317   5.140 -0.8854 -1.7670 -0.0749
  324MOL0     H43706   7.206   7.218   4.941 -0.6928  1.0545 -3.3721
  324MOL0     H43707   7.045   7.278   4.947  1.1332  1.4531 -3.8371
  324MOL0     H43708   7.198   7.408   4.794  1.5856 -1.2672 -0.3343
  324MOL0     H43709   7.103   7.511   4.917 -2.1094 -2.5213  1.9687
  324MOL0     H43710   7.383   7.422   4.958 -1.3065 -1.3148 -0.2047
  324MOL0     H43711   7.300   7.548   5.043  1.9437 -1.9604  0.9264
  324MOL0     H43712   7.314   7.697   4.814 -1.2803 -1.3991 -1.4201
  324MOL0     H43713   7.346   7.547   4.744 -3.1488 -1.9980  2.0113
  324MOL0     H43714   7.545   7.612   4.947  1.4214 -0.2771 -1.4950
  324MOL0     H43715   7.575   7.554   4.781  1.4731  3.1042 -1.5433
  324MOL0     H43716   7.497   7.834   4.884 -0.7739 -1.3484  2.2197
  324MOL0     H43717   7.510   7.788   4.710 -1.4141 -1.4951  0.1477
  324MOL0     H43718   7.739   7.760   4.912  3.5892 -2.9367 -2.1019
  324MOL0     H43719   7.731   7.699   4.752 -3.3920  1.0402 -2.9475
  324MOL0     H43720   7.273   7.341   5.342 -0.3932  0.2279  1.2622
  324MOL0     H43721   7.305   7.309   5.584 -1.4335  0.6714  1.3097
  324MOL0     H43722   7.351   7.171   5.938 -0.2706  0.6421  0.1487
  324MOL0     H43723   7.426   7.163   6.158  0.2689 -0.7893  1.1631
  324MOL0     H43724   7.389   6.182   7.336 -1.0334 -0.9556 -1.0356
  324MOL0     H43725   7.299   5.974   7.310 -0.1171 -1.0191 -1.3097
  324MOL0     H43726   7.102   5.627   7.222  2.6936  0.2609  2.6578
  324MOL0     H43727   7.039   5.440   7.058  0.2366 -0.6037 -1.0001
  324MOL0     H43728   7.099   5.313   6.853  2.9104 -1.8482 -2.1884
  324MOL0     H43729   6.972   5.240   6.979 -0.0032 -1.5781 -1.4321
  324MOL0     H43730   7.130   5.107   6.765 -0.6383 -0.1339 -0.2854
  324MOL0     H43731   6.958   5.135   6.781  0.7854 -0.0186 -0.4627
  324MOL0     H43732   6.909   5.011   6.960  0.7477  1.0648 -0.8499
  324MOL0     H43733   7.086   4.955   6.973  0.3837  0.0217  1.0052
  324MOL0     H43734   6.903   4.897   6.757  1.1320  1.6704 -1.0665
  324MOL0     H43735   7.078   4.868   6.757 -2.0636 -1.7517 -2.0725
  324MOL0     H43736   6.988   4.535   6.976  0.5749  0.7844  1.4663
  324MOL0     H43737   7.396   5.239   7.140  1.9712  1.4573 -2.0779
  324MOL0     H43738   7.570   5.359   7.278 -0.1766  0.3059  1.4202
  324MOL0     H43739   7.581   5.530   7.231 -0.4180  0.0815 -0.5423
  324MOL0     H43740   7.505   5.481   7.389 -2.1347 -1.1513 -0.0477
  325MOL0     O43741   2.112   8.983   1.215 -0.3036 -0.5637  0.3125
  325MOL0     C43742   2.050   8.974   1.109 -0.5589  0.0474  0.5119
  325MOL0     O43743   2.091   8.897   1.005  0.3293  0.0045 -0.4006
  325MOL0     C43744   2.203   8.820   1.033 -0.3849 -0.6675  0.6151
  325MOL0     C43745   2.330   8.883   1.032  0.0591  0.3046  0.5862
  325MOL0     C43746   2.446   8.830   1.087 -0.1289 -0.4694  0.3501
  325MOL0     C43747   2.444   8.703   1.137 -0.2653 -0.1011 -0.6900
  325MOL0     O43748   2.559   8.640   1.186  0.7421 -0.2443  0.4342
  325MOL0     C43749   2.563   8.503   1.237 -0.8259  1.3070 -0.0502
  325MOL0     C43750   2.704   8.443   1.210 -0.2310 -0.5059  0.0024
  325MOL0     C43751   2.819   8.510   1.270  0.1101  0.1219 -0.1253
  325MOL0     C43752   2.960   8.434   1.253 -0.8395 -0.3284  0.4333
  325MOL0     C43753   3.029   8.446   1.388  0.4711  0.2295  0.7344
  325MOL0     C43754   3.091   8.581   1.418  0.0934  0.2841 -0.2001
  325MOL0     C43755   3.014   8.700   1.489  0.0769 -0.4488 -0.3624
  325MOL0     C43756   3.108   8.814   1.541 -0.1298  0.1405 -1.3928
  325MOL0     N43757   3.180   8.781   1.676 -1.0284 -0.3128  0.6840
  325MOL0     C43758   3.295   8.700   1.673  0.4674 -0.6861  0.6828
  325MOL0     C43759   3.346   8.733   1.798  1.5099 -0.0849  0.3429
  325MOL0     C43760   3.483   8.695   1.844 -0.0361 -0.0098 -0.3459
  325MOL0     C43761   3.569   8.820   1.882 -0.1492  0.4777  0.6730
  325MOL0     C43762   3.547   8.868   2.028  0.3663 -0.4485 -0.0407
  325MOL0     C43763   3.478   9.009   2.023 -0.6456 -0.3068 -0.1415
  325MOL0     O43764   3.566   9.107   1.967 -0.3505  0.6087 -0.6591
  325MOL0     C43765   3.646   9.194   2.047 -0.2817 -0.7118 -0.6031
  325MOL0     C43766   3.659   9.185   2.181 -0.8036  0.3991  0.0554
  325MOL0     C43767   3.718   9.293   2.261  0.0993  0.6284  0.5892
  325MOL0     C43768   3.775   9.400   2.194 -0.2190 -0.7905 -0.2346
  325MOL0     C43769   3.830   9.507   2.275 -1.1536 -0.2491 -1.0095
  325MOL0     O43770   3.826   9.628   2.212 -0.2471 -0.2093 -0.6197
  325MOL0     C43771   3.842   9.749   2.280  0.5540 -0.2698  0.2928
  325MOL0     C43772   3.776   9.767   2.407 -0.6707 -0.1434  0.2667
  325MOL0     C43773   3.789   9.890   2.476  0.9461  0.0136 -0.0770
  325MOL0     C43774   3.865   9.999   2.423 -0.6200  0.4937  0.1331
  325MOL0     O43775   3.898  10.115   2.489  0.9586  1.0197 -0.2675
  325MOL0     C43776   3.900  10.103   2.630  0.0463  0.1873  0.2200
  325MOL0     C43777   3.772  10.164   2.679  0.1530  0.6969 -0.2164
  325MOL0     C43778   3.800  10.191   2.829  1.0836 -0.0321  0.7559
  325MOL0     C43779   3.674  10.275   2.877 -1.0785 -0.8751  0.5130
  325MOL0     C43780   3.717  10.344   3.011  0.9383 -0.9553 -0.8387
  325MOL0     C43781   3.614  10.456   3.035  0.1486  0.5417  0.1374
  325MOL0     C43782   3.471  10.400   3.049 -0.9002  0.3894  0.2855
  325MOL0     C43783   3.375  10.510   3.080  0.3209 -1.0792  0.4864
  325MOL0    Cl43784   3.213  10.447   3.059 -0.2587  0.3499  0.1655
  325MOL0     C43785   3.913   9.980   2.293 -0.5689 -0.3627 -0.4925
  325MOL0     C43786   3.904   9.863   2.221 -0.5472  0.4166 -0.1155
  325MOL0     O43787   3.874   9.480   2.389 -0.3892  0.5181 -0.3558
  325MOL0     C43788   3.768   9.408   2.051  0.1709 -0.3983  0.4222
  325MOL0     C43789   3.706   9.303   1.983  0.8772  0.6725  0.8209
  325MOL0     N43790   3.254   8.813   1.866  0.4237 -0.0205  0.0404
  325MOL0     N43791   3.173   8.859   1.782  0.1086 -0.8869  0.3140
  325MOL0     C43792   2.323   8.636   1.138  0.0750  0.2895 -0.4630
  325MOL0     C43793   2.209   8.695   1.087 -0.8313  0.6541  0.4302
  325MOL0     C43794   1.915   9.044   1.092  0.8649 -0.6028 -0.1275
  325MOL0     C43795   1.829   8.995   0.989  0.7244  0.1244 -0.0967
  325MOL0     C43796   1.714   9.062   0.951  0.1543 -1.1378 -1.3039
  325MOL0     C43797   1.674   9.174   1.015  0.0540 -1.3630  0.8834
  325MOL0     O43798   1.558   9.234   0.970 -0.1333  0.2152  0.0942
  325MOL0     C43799   1.468   9.241   1.079  0.0951  1.1246  0.9055
  325MOL0     C43800   1.339   9.321   1.047 -0.4424 -0.5911 -0.1804
  325MOL0     C43801   1.376   9.472   1.050  0.2771  1.0960 -0.2568
  325MOL0     C43802   1.245   9.557   1.001 -0.4897 -0.9783 -0.2025
  325MOL0     C43803   1.262   9.701   1.035 -0.0545 -0.9570 -0.3741
  325MOL0     C43804   1.282   9.811   1.075 -0.7941 -1.0458  0.8261
  325MOL0     C43805   1.763   9.231   1.111 -0.1867  0.2830 -0.3186
  325MOL0     C43806   1.884   9.174   1.142  0.3060  1.0355  0.1957
  325MOL0     C43807   1.971   9.235   1.244  0.2015 -0.1603  0.1508
  325MOL0     H43808   2.315   8.985   0.999 -3.0356  0.4935  2.1362
  325MOL0     H43809   2.535   8.891   1.087 -2.3507  3.1052 -1.2937
  325MOL0     H43810   2.534   8.482   1.341 -1.7856 -5.0634 -1.1891
  325MOL0     H43811   2.490   8.443   1.181  1.0760 -1.2668  0.0789
  325MOL0     H43812   2.693   8.459   1.102 -0.2414  0.3313  0.1229
  325MOL0     H43813   2.696   8.339   1.243 -2.0878 -0.9712 -1.7457
  325MOL0     H43814   2.795   8.542   1.371  2.0843  2.7829 -0.3974
  325MOL0     H43815   2.829   8.605   1.216 -1.8404  0.8058  0.6419
  325MOL0     H43816   2.942   8.329   1.228  1.4086 -0.5117 -0.7056
  325MOL0     H43817   3.026   8.465   1.172  0.8574 -0.2398  1.7934
  325MOL0     H43818   2.965   8.418   1.473  2.2246 -2.2458  1.3563
  325MOL0     H43819   3.105   8.367   1.379  1.2769  0.7820  2.2537
  325MOL0     H43820   3.176   8.551   1.480  0.5328 -1.5831 -1.6318
  325MOL0     H43821   3.120   8.622   1.321  2.8041 -1.1275 -0.0825
  325MOL0     H43822   2.940   8.661   1.560 -0.1070 -0.0198 -0.3177
  325MOL0     H43823   2.953   8.735   1.405 -3.0275 -0.7362  1.6205
  325MOL0     H43824   3.188   8.842   1.472  1.5305 -2.3534 -0.6294
  325MOL0     H43825   3.048   8.905   1.551 -1.7306 -0.8662 -1.4438
  325MOL0     H43826   3.348   8.646   1.595 -2.0396  2.8361 -3.9120
  325MOL0     H43827   3.482   8.631   1.932 -1.2532 -0.3947 -0.6218
  325MOL0     H43828   3.538   8.640   1.767  1.5722 -0.2621  0.9461
  325MOL0     H43829   3.677   8.802   1.876 -0.5155 -1.4636 -3.3445
  325MOL0     H43830   3.563   8.901   1.809 -0.2173 -0.4834 -0.4187
  325MOL0     H43831   3.646   8.897   2.066 -0.3310  1.3999  0.4818
  325MOL0     H43832   3.490   8.804   2.095  0.7878  0.4945  1.2442
  325MOL0     H43833   3.448   9.038   2.124 -1.6275 -2.3036  0.2083
  325MOL0     H43834   3.385   8.999   1.968 -1.9826  0.5019  1.8576
  325MOL0     H43835   3.607   9.106   2.233 -2.2693  1.2174 -0.1243
  325MOL0     H43836   3.729   9.288   2.369 -1.0659 -0.2901  0.6844
  325MOL0     H43837   3.702   9.694   2.437 -0.2531 -1.4910 -1.7395
  325MOL0     H43838   3.739   9.892   2.572  1.2772  1.0302  0.0909
  325MOL0     H43839   3.907  10.002   2.671  1.5487  0.2969  0.3050
  325MOL0     H43840   3.994  10.150   2.662  0.9432 -0.4095 -1.4277
  325MOL0     H43841   3.757  10.254   2.619 -1.0489  0.1343 -0.8099
  325MOL0     H43842   3.688  10.096   2.661  1.2713 -1.2059  1.2827
  325MOL0     H43843   3.809  10.098   2.884  2.5945  1.4237  3.1333
  325MOL0     H43844   3.895  10.244   2.836 -0.5098  3.3456 -0.6941
  325MOL0     H43845   3.583  10.219   2.900 -1.0574 -1.4949 -0.8443
  325MOL0     H43846   3.639  10.343   2.799  0.5014 -1.9860 -1.2329
  325MOL0     H43847   3.822  10.373   3.004  1.0793 -0.5507  2.0776
  325MOL0     H43848   3.714  10.273   3.094  0.5394  0.5421  0.4483
  325MOL0     H43849   3.644  10.516   3.122  5.0533 -1.4334  0.1425
  325MOL0     H43850   3.617  10.530   2.955  1.3025  1.1044  0.6736
  325MOL0     H43851   3.473  10.329   3.133  0.9419 -0.9230 -0.8058
  325MOL0     H43852   3.441  10.361   2.952 -1.7356 -2.6515  1.6268
  325MOL0     H43853   3.401  10.550   3.178 -1.2410 -0.6812  0.7571
  325MOL0     H43854   3.379  10.585   3.001  1.8078  0.5494  2.0115
  325MOL0     H43855   3.964  10.067   2.252 -1.4882  0.6063  0.3458
  325MOL0     H43856   3.953   9.868   2.124 -1.9578  3.1168 -0.7836
  325MOL0     H43857   3.806   9.488   1.987  0.4119 -2.4386 -2.1557
  325MOL0     H43858   3.677   9.305   1.878 -0.9557  0.6836  1.2965
  325MOL0     H43859   2.311   8.540   1.187 -0.1170  0.0732 -0.9261
  325MOL0     H43860   2.114   8.644   1.094  0.0460 -1.6466 -2.3726
  325MOL0     H43861   1.870   8.915   0.929 -1.4465 -0.6986 -0.5646
  325MOL0     H43862   1.665   9.024   0.862 -0.8818 -0.7161 -0.9314
  325MOL0     H43863   1.519   9.293   1.160 -0.8917  2.1005  0.9342
  325MOL0     H43864   1.447   9.137   1.106 -0.0404  0.2634 -2.0982
  325MOL0     H43865   1.266   9.292   1.124  0.4029  2.4362  1.9734
  325MOL0     H43866   1.295   9.288   0.953 -1.9777  0.1175  0.2466
  325MOL0     H43867   1.461   9.474   0.981  3.4865 -1.6179  3.1416
  325MOL0     H43868   1.406   9.501   1.151 -2.5906  0.9736  0.7178
  325MOL0     H43869   1.227   9.550   0.893 -2.0478 -1.1951  0.0470
  325MOL0     H43870   1.155   9.510   1.040 -0.2088 -1.0020  0.4165
  325MOL0     H43871   1.296   9.914   1.100 -0.5857 -0.2192 -2.2718
  325MOL0     H43872   1.727   9.318   1.165 -1.6496  1.0058 -2.3606
  325MOL0     H43873   2.052   9.296   1.202 -0.4474  0.9811  0.5205
  325MOL0     H43874   1.902   9.306   1.290 -0.3636  0.2647 -1.2864
  325MOL0     H43875   2.006   9.163   1.319 -0.6827 -0.4235  0.3215
  326MOL0     O43876   3.981  10.611   9.780 -0.2244  0.9189  0.3312
  326MOL0     C43877   3.931  10.691   9.704 -0.3814  0.9044  0.7084
  326MOL0     O43878   3.969  10.820   9.691  0.7064 -0.1150  0.2916
  326MOL0     C43879   4.088  10.863   9.748 -0.0179  0.3352  0.4856
  326MOL0     C43880   4.204  10.787   9.747  0.9599  0.4256  0.4960
  326MOL0     C43881   4.312  10.807   9.819  0.9259  0.5770 -1.5902
  326MOL0     C43882   4.320  10.915   9.909  0.7142 -0.7289  0.6963
  326MOL0     O43883   4.433  10.934   9.983 -1.5507 -0.0687  0.2489
  326MOL0     C43884   4.418  11.012  10.099 -0.2236  0.2630  0.2114
  326MOL0     C43885   4.537  11.002  10.195  0.6474 -0.5562 -0.1626
  326MOL0     C43886   4.651  11.097  10.141 -0.3586  0.6041 -0.2860
  326MOL0     C43887   4.749  11.128  10.257  0.7082 -0.1091  1.1774
  326MOL0     C43888   4.863  11.214  10.212  0.0657 -0.0190 -0.2126
  326MOL0     C43889   4.960  11.247  10.327  0.5479 -0.2868 -0.1040
  326MOL0     C43890   5.042  11.123  10.361 -0.3888  0.3899 -0.2095
  326MOL0     C43891   5.182  11.155  10.413  0.1765 -0.1723  0.7420
  326MOL0     N43892   5.263  11.222  10.314 -0.1330 -0.6157  0.4645
  326MOL0     C43893   5.256  11.193  10.182 -0.4560  0.1935 -0.9353
  326MOL0     C43894   5.358  11.261  10.126  0.2868  0.4570  0.4950
  326MOL0     C43895   5.378  11.260   9.983  1.3566  0.1473 -0.6450
  326MOL0     C43896   5.516  11.326   9.940 -0.0322  0.4105  0.2140
  326MOL0     C43897   5.637  11.253   9.979 -0.5154 -0.0260 -0.1233
  326MOL0     C43898   5.667  11.118   9.900  0.5481 -1.3235  0.0516
  326MOL0     O43899   5.669  11.165   9.763  0.2213 -0.5029 -0.4395
  326MOL0     C43900   5.687  11.068   9.676 -0.4125 -0.2691  1.5454
  326MOL0     C43901   5.763  10.948   9.702  0.6734  0.1436  0.4890
  326MOL0     C43902   5.777  10.859   9.595  0.6932 -0.4265 -1.1565
  326MOL0     C43903   5.720  10.870   9.471 -0.4774 -0.1484 -1.1812
  326MOL0     C43904   5.762  10.786   9.362 -0.3784  0.9277  0.9406
  326MOL0     O43905   5.821  10.851   9.252  0.7946  0.5239 -0.8654
  326MOL0     C43906   5.911  10.782   9.185 -0.3600  0.2502 -0.3761
  326MOL0     C43907   5.877  10.713   9.068  0.8849 -0.6002  0.3045
  326MOL0     C43908   5.978  10.644   8.992 -0.3523  0.0237 -0.8580
  326MOL0     C43909   6.111  10.654   9.029  0.4240 -0.8117  0.0540
  326MOL0     O43910   6.202  10.577   8.956  0.6746 -0.5067  0.9718
  326MOL0     C43911   6.352  10.590   8.984  0.1349  0.2990 -0.7493
  326MOL0     C43912   6.440  10.558   8.860 -0.7871 -0.2355 -0.5315
  326MOL0     C43913   6.587  10.585   8.895  0.2515 -0.2298 -0.6147
  326MOL0     C43914   6.641  10.508   9.023  0.5102  0.1076  0.9338
  326MOL0     C43915   6.789  10.552   9.054  1.0703 -0.7580 -1.0801
  326MOL0     C43916   6.836  10.540   9.196  0.6771  0.8192 -0.8082
  326MOL0     C43917   6.824  10.391   9.241  0.3295 -0.5565 -0.1675
  326MOL0     C43918   6.865  10.372   9.389  0.5147  0.3109 -0.4554
  326MOL0    Cl43919   6.805  10.500   9.484 -0.2774  0.0907 -0.1740
  326MOL0     C43920   6.145  10.734   9.144 -0.3954 -0.0175  0.4756
  326MOL0     C43921   6.049  10.800   9.217 -0.2449  0.1381 -0.2936
  326MOL0     O43922   5.739  10.662   9.373 -0.2940 -0.1768  0.0372
  326MOL0     C43923   5.627  10.968   9.459  0.8558 -0.4216 -0.3442
  326MOL0     C43924   5.609  11.071   9.560  0.1505  0.9810 -0.8694
  326MOL0     N43925   5.419  11.330  10.221  0.8942 -0.6056  0.3697
  326MOL0     N43926   5.369  11.303  10.337  0.8212 -0.1755 -0.6450
  326MOL0     C43927   4.208  11.002   9.902 -0.2691  0.0058 -0.5479
  326MOL0     C43928   4.094  10.974   9.825  1.7445  0.9131 -0.7340
  326MOL0     C43929   3.820  10.645   9.618  0.5408 -0.1130 -0.6663
  326MOL0     C43930   3.783  10.517   9.627 -0.0412  0.3617 -0.8693
  326MOL0     C43931   3.664  10.465   9.569  0.2478  0.0604  0.1886
  326MOL0     C43932   3.591  10.542   9.480  0.5506 -0.5019 -0.3145
  326MOL0     O43933   3.488  10.501   9.400 -0.1730  0.5702 -0.0209
  326MOL0     C43934   3.466  10.358   9.379  0.6615 -0.5245 -0.6676
  326MOL0     C43935   3.577  10.274   9.309  0.6556 -0.6134 -0.2497
  326MOL0     C43936   3.594  10.338   9.180  0.4431  0.1189 -0.1391
  326MOL0     C43937   3.716  10.272   9.112 -0.7575 -1.3547  0.4538
  326MOL0     C43938   3.722  10.311   8.969  0.9237 -0.3466 -0.6733
  326MOL0     C43939   3.728  10.354   8.862  0.3658  0.4273 -0.5978
  326MOL0     C43940   3.619  10.677   9.473 -0.2990 -0.2217  0.3037
  326MOL0     C43941   3.735  10.726   9.541  0.6304 -0.1663  0.3474
  326MOL0     C43942   3.756  10.875   9.523 -0.2598  0.2378  0.7521
  326MOL0     H43943   4.198  10.692   9.695 -0.5633  0.3895  0.6841
  326MOL0     H43944   4.388  10.730   9.827  0.7527  0.4917 -0.7063
  326MOL0     H43945   4.414  11.118  10.071 -0.4356  0.7972  2.1729
  326MOL0     H43946   4.322  10.975  10.136  0.9215 -2.0251  1.0398
  326MOL0     H43947   4.564  10.896  10.191  0.1938 -0.6286 -2.5470
  326MOL0     H43948   4.497  11.031  10.293 -1.9776  0.0672 -1.3311
  326MOL0     H43949   4.613  11.191  10.100 -0.6362  0.9720  0.7720
  326MOL0     H43950   4.708  11.030  10.077 -3.6358 -3.1399  0.2925
  326MOL0     H43951   4.682  11.177  10.328 -1.7428 -2.3564  0.5635
  326MOL0     H43952   4.779  11.035  10.308  3.2272  0.8373  1.5907
  326MOL0     H43953   4.913  11.174  10.123 -2.9314  0.6190 -2.3459
  326MOL0     H43954   4.818  11.308  10.181 -2.4631 -0.1507  2.6006
  326MOL0     H43955   5.029  11.327  10.300 -0.2791  0.3757 -0.2898
  326MOL0     H43956   4.913  11.280  10.421  1.1725 -0.2744  0.2123
  326MOL0     H43957   5.054  11.053  10.278 -0.6948  0.3470 -0.2200
  326MOL0     H43958   5.007  11.075  10.452  2.2992 -1.3530  0.0007
  326MOL0     H43959   5.173  11.211  10.506  0.9537  0.9811  0.1412
  326MOL0     H43960   5.228  11.059  10.437 -0.0321 -0.3759  0.3322
  326MOL0     H43961   5.184  11.129  10.133  1.3899 -1.9250 -1.0202
  326MOL0     H43962   5.380  11.163   9.932  0.7035  0.2909 -0.9576
  326MOL0     H43963   5.296  11.312   9.931 -0.0278 -0.4924  0.8052
  326MOL0     H43964   5.510  11.349   9.834 -0.7985  3.1675  0.7902
  326MOL0     H43965   5.527  11.425   9.985 -4.2847  1.0614  0.1579
  326MOL0     H43966   5.642  11.226  10.085 -0.3360  1.4180  0.2580
  326MOL0     H43967   5.725  11.315   9.960 -0.6215  0.2334  0.1990
  326MOL0     H43968   5.590  11.041   9.913  0.5913 -1.2615  0.7311
  326MOL0     H43969   5.762  11.069   9.925  0.1784 -2.6273 -0.9936
  326MOL0     H43970   5.814  10.926   9.796  3.2914  2.0684 -0.3470
  326MOL0     H43971   5.843  10.775   9.614  1.7621  0.1920 -1.9660
  326MOL0     H43972   5.771  10.707   9.048  1.3409 -1.1871 -2.2810
  326MOL0     H43973   5.951  10.584   8.906  1.8299  0.7812 -2.1462
  326MOL0     H43974   6.382  10.692   9.008 -0.1808  0.0609  0.7826
  326MOL0     H43975   6.380  10.525   9.068  3.6934  1.9563 -0.4989
  326MOL0     H43976   6.419  10.457   8.824  1.6971 -0.9561 -0.1196
  326MOL0     H43977   6.404  10.624   8.781  3.3309  0.2982 -2.1994
  326MOL0     H43978   6.652  10.552   8.814  0.2931  0.8903 -1.0426
  326MOL0     H43979   6.600  10.692   8.911 -0.5987 -0.1008 -0.7656
  326MOL0     H43980   6.635  10.402   8.999 -0.9465 -0.0687  1.9310
  326MOL0     H43981   6.578  10.518   9.112  1.6414 -1.5527  1.9657
  326MOL0     H43982   6.800  10.661   9.045  1.1385 -0.4605  1.7353
  326MOL0     H43983   6.863  10.508   8.987  3.1377 -0.9308  1.1782
  326MOL0     H43984   6.940  10.575   9.203  0.1979  2.0320  0.9119
  326MOL0     H43985   6.785  10.613   9.260  0.4345  2.3294 -2.6316
  326MOL0     H43986   6.885  10.335   9.169 -0.4526 -2.0449  0.2658
  326MOL0     H43987   6.719  10.363   9.228  0.3442 -1.2796  1.0800
  326MOL0     H43988   6.832  10.276   9.430  3.3668 -2.1446 -3.3960
  326MOL0     H43989   6.975  10.375   9.387  0.6136  1.2197  2.0157
  326MOL0     H43990   6.250  10.731   9.172  0.5155  5.2959 -1.1127
  326MOL0     H43991   6.075  10.860   9.304 -0.4220  3.7411 -2.4986
  326MOL0     H43992   5.568  10.967   9.368  0.0707  0.0829  0.1480
  326MOL0     H43993   5.531  11.145   9.550 -2.0058 -0.8798  1.1508
  326MOL0     H43994   4.233  11.094   9.953  0.5717  0.8176 -2.3498
  326MOL0     H43995   4.011  11.043   9.809  1.3423  1.1878  1.9432
  326MOL0     H43996   3.840  10.443   9.682  0.5975 -0.1546 -2.1750
  326MOL0     H43997   3.640  10.360   9.588 -0.1037  0.3452  1.3619
  326MOL0     H43998   3.372  10.360   9.323 -0.1875 -1.4870  0.6715
  326MOL0     H43999   3.444  10.309   9.474  3.3889  0.7433  0.7612
  326MOL0     H44000   3.539  10.171   9.300  1.5159 -1.0327  0.7073
  326MOL0     H44001   3.672  10.269   9.364 -0.7319 -0.6616  2.2876
  326MOL0     H44002   3.616  10.445   9.189  2.2909  0.0809 -2.9260
  326MOL0     H44003   3.508  10.314   9.116 -0.2438  0.0337  0.7991
  326MOL0     H44004   3.812  10.293   9.160 -1.0736  2.0508 -0.1278
  326MOL0     H44005   3.713  10.163   9.121  1.4798 -1.2987  3.2092
  326MOL0     H44006   3.740  10.415   8.775  3.0850  0.3465 -0.3840
  326MOL0     H44007   3.555  10.727   9.401  0.6094 -3.1948 -2.8298
  326MOL0     H44008   3.856  10.894   9.482 -0.2849 -0.0729  0.5392
  326MOL0     H44009   3.690  10.926   9.452  1.2335  1.3680  0.1253
  326MOL0     H44010   3.747  10.930   9.617  0.1481 -0.3820  1.1615
  327MOL0     O44011   7.972   9.145   1.865  0.6128  0.4460 -0.3903
  327MOL0     C44012   8.009   9.032   1.836  0.6323 -0.2906  0.7127
  327MOL0     O44013   8.115   8.972   1.889  0.4815 -0.1568  0.6922
  327MOL0     C44014   8.228   9.044   1.926 -0.2122  0.1185  0.5975
  327MOL0     C44015   8.271   9.175   1.899  1.1059  0.0596  0.7879
  327MOL0     C44016   8.390   9.227   1.950  0.0642  1.2409  0.4863
  327MOL0     C44017   8.487   9.136   2.000  0.0668 -0.1076 -0.1658
  327MOL0     O44018   8.609   9.188   2.053 -0.0189  0.0311  0.4082
  327MOL0     C44019   8.711   9.194   1.952 -0.3087 -0.0422 -0.0467
  327MOL0     C44020   8.851   9.204   2.018 -0.1356 -0.1629  0.3149
  327MOL0     C44021   8.870   9.069   2.104  1.2602  0.1075 -0.0121
  327MOL0     C44022   9.010   9.073   2.160  0.4067  0.4860 -0.2870
  327MOL0     C44023   9.051   8.983   2.273  0.8359  0.8686  0.2680
  327MOL0     C44024   9.207   8.985   2.309  0.4714 -0.2439  0.5036
  327MOL0     C44025   9.228   8.904   2.428  0.4988  0.0341 -0.5373
  327MOL0     C44026   9.372   8.895   2.490  0.5756  0.7967 -0.3045
  327MOL0     N44027   9.373   8.808   2.611 -0.0941  0.0918  0.4666
  327MOL0     C44028   9.314   8.684   2.632 -1.0050 -1.2997 -0.0888
  327MOL0     C44029   9.346   8.655   2.763  0.6335  0.6246 -0.4497
  327MOL0     C44030   9.307   8.529   2.835  0.7196  0.4414  0.9613
  327MOL0     C44031   9.401   8.416   2.786 -0.0199 -0.1214  0.2676
  327MOL0     C44032   9.543   8.424   2.832 -0.2580 -0.1381  0.3020
  327MOL0     C44033   9.623   8.506   2.723  0.1143 -0.3904 -0.0561
  327MOL0     O44034   9.768   8.483   2.737 -0.0140 -0.3892 -0.3593
  327MOL0     C44035   9.856   8.582   2.786  0.4487  0.5859 -0.6278
  327MOL0     C44036   9.814   8.672   2.892  0.3823 -0.1963  0.2884
  327MOL0     C44037   9.900   8.758   2.960  0.3040  0.0812 -0.0012
  327MOL0     C44038  10.041   8.750   2.927  0.0235 -0.6862 -0.4924
  327MOL0     C44039  10.145   8.827   3.011  0.2639 -0.3033 -0.2153
  327MOL0     O44040  10.091   8.901   3.116  0.1400  0.0271 -0.8150
  327MOL0     C44041  10.178   8.985   3.183  0.8402 -0.8323 -0.4346
  327MOL0     C44042  10.192   9.126   3.150  0.5440 -0.3772 -0.1505
  327MOL0     C44043  10.264   9.211   3.233  0.7680 -0.0152 -0.4571
  327MOL0     C44044  10.351   9.158   3.334  0.5198  0.1676  0.8367
  327MOL0     O44045  10.420   9.233   3.419  0.1704  0.2934 -1.1673
  327MOL0     C44046  10.405   9.378   3.420 -0.4566  0.2298  0.0198
  327MOL0     C44047  10.504   9.435   3.521  0.0926 -0.0041  0.2865
  327MOL0     C44048  10.570   9.559   3.464  0.4810 -0.3448  0.6254
  327MOL0     C44049  10.486   9.687   3.480  0.0232 -0.4983 -0.9516
  327MOL0     C44050  10.476   9.727   3.635  0.1820  0.3018 -0.0354
  327MOL0     C44051  10.619   9.727   3.708 -1.0350  0.4528  0.1389
  327MOL0     C44052  10.624   9.800   3.841  0.7195 -0.8635  0.1873
  327MOL0     C44053  10.774   9.794   3.898 -0.1194  0.2658  0.3966
  327MOL0    Cl44054  10.798   9.880   4.045  0.4652 -0.2205  0.3199
  327MOL0     C44055  10.352   9.025   3.345  0.1985 -0.1011 -0.3288
  327MOL0     C44056  10.261   8.936   3.281  0.5150 -0.1516 -0.6429
  327MOL0     O44057  10.259   8.827   2.973 -0.5938 -0.2193 -0.4566
  327MOL0     C44058  10.085   8.673   2.812 -0.1477  0.2977 -1.1975
  327MOL0     C44059   9.992   8.588   2.745 -0.4893 -0.1214 -1.2521
  327MOL0     N44060   9.407   8.762   2.823 -0.0680 -0.6478  0.1947
  327MOL0     N44061   9.437   8.845   2.719  0.6084 -0.3822 -0.4148
  327MOL0     C44062   8.452   9.001   2.018 -1.6100 -0.1903 -0.0569
  327MOL0     C44063   8.322   8.958   1.993 -0.3473 -0.2348  0.4012
  327MOL0     C44064   7.930   8.967   1.733 -0.3766  2.0143  0.1603
  327MOL0     C44065   7.871   9.045   1.634 -0.8212  0.1011 -0.1997
  327MOL0     C44066   7.802   8.980   1.530  0.3149  0.5921  0.8424
  327MOL0     C44067   7.772   8.844   1.532  0.4051 -0.0789 -0.5026
  327MOL0     O44068   7.669   8.807   1.458 -0.1243  0.1360  0.0483
  327MOL0     C44069   7.605   8.676   1.486  0.1070 -0.6033  0.8866
  327MOL0     C44070   7.470   8.665   1.419 -0.0676 -0.3786 -0.7147
  327MOL0     C44071   7.406   8.798   1.373  0.6473 -0.2650  0.7236
  327MOL0     C44072   7.271   8.763   1.303 -0.7723 -0.2174 -0.4626
  327MOL0     C44073   7.297   8.683   1.183 -0.5529  0.0724  1.1058
  327MOL0     C44074   7.301   8.619   1.067  0.0617  0.9149  0.0741
  327MOL0     C44075   7.831   8.772   1.633  0.6961 -0.6449  0.3143
  327MOL0     C44076   7.913   8.827   1.725  0.5278  0.4534  0.0827
  327MOL0     C44077   7.968   8.735   1.831  0.0404  0.7923 -0.2163
  327MOL0     H44078   8.207   9.240   1.841  2.6387  1.7741  0.9410
  327MOL0     H44079   8.420   9.331   1.942  5.2139 -0.1262 -3.9898
  327MOL0     H44080   8.709   9.103   1.890 -3.1402  1.1454 -1.8792
  327MOL0     H44081   8.689   9.269   1.875 -2.1456 -0.2068  0.2901
  327MOL0     H44082   8.864   9.296   2.075 -0.0612 -0.4301  0.7384
  327MOL0     H44083   8.930   9.206   1.942 -1.3013  1.0360 -0.9059
  327MOL0     H44084   8.835   8.989   2.039  1.1281  0.1081  0.0571
  327MOL0     H44085   8.797   9.083   2.185  0.7798  1.5527 -0.6696
  327MOL0     H44086   9.070   9.054   2.070  1.7249 -1.3864  0.9127
  327MOL0     H44087   9.020   9.177   2.192  1.1813  0.9661 -1.9595
  327MOL0     H44088   8.989   9.009   2.359  0.7382 -2.2958  1.2910
  327MOL0     H44089   9.026   8.878   2.255  2.8600  0.1714  1.1291
  327MOL0     H44090   9.258   8.940   2.224  0.2381  0.3732  0.0332
  327MOL0     H44091   9.243   9.087   2.323  2.5394 -0.8693  0.0322
  327MOL0     H44092   9.209   8.798   2.408  3.0931 -0.9252  1.5067
  327MOL0     H44093   9.157   8.947   2.499  2.5983 -0.6016  2.1089
  327MOL0     H44094   9.439   8.850   2.417 -1.2263  0.5496 -1.8827
  327MOL0     H44095   9.407   8.997   2.508 -0.0139  0.9139  0.2212
  327MOL0     H44096   9.257   8.623   2.563 -0.1411 -0.6724 -1.4047
  327MOL0     H44097   9.309   8.531   2.944 -2.5667 -1.4281  1.1648
  327MOL0     H44098   9.204   8.506   2.805  1.9033  1.2799 -5.0323
  327MOL0     H44099   9.366   8.320   2.823 -2.7300 -0.1487 -2.1006
  327MOL0     H44100   9.390   8.413   2.677 -2.1928 -3.6112  0.4336
  327MOL0     H44101   9.580   8.321   2.835 -1.6153 -0.6764 -0.6619
  327MOL0     H44102   9.553   8.466   2.933  3.8512  0.1156 -0.0663
  327MOL0     H44103   9.621   8.613   2.747  2.9434 -0.5906  1.4938
  327MOL0     H44104   9.591   8.501   2.618  0.3394 -0.2576 -0.1328
  327MOL0     H44105   9.713   8.664   2.929  0.8562 -2.3137  1.3041
  327MOL0     H44106   9.870   8.826   3.039  0.3566  0.3192 -0.1853
  327MOL0     H44107  10.117   9.168   3.085 -0.3407  0.5120  1.3873
  327MOL0     H44108  10.268   9.319   3.220  0.4227  0.2881  1.6086
  327MOL0     H44109  10.428   9.412   3.319 -0.3936 -0.5731 -0.2478
  327MOL0     H44110  10.303   9.409   3.446 -0.9656 -2.1411  1.1455
  327MOL0     H44111  10.469   9.438   3.625 -0.8856 -3.2059  0.1217
  327MOL0     H44112  10.589   9.367   3.515  0.5761  0.6958 -1.2212
  327MOL0     H44113  10.670   9.585   3.498  0.3987  1.8317 -0.6295
  327MOL0     H44114  10.592   9.546   3.358 -4.0750  1.0477 -0.7490
  327MOL0     H44115  10.385   9.673   3.441 -0.9047 -2.0705  1.6831
  327MOL0     H44116  10.535   9.769   3.428  0.7833  0.2028  0.7919
  327MOL0     H44117  10.424   9.653   3.695  1.4777  1.1822  2.2866
  327MOL0     H44118  10.428   9.825   3.633  1.9725  1.2333 -1.2513
  327MOL0     H44119  10.645   9.622   3.719  2.3492  0.9216 -1.9505
  327MOL0     H44120  10.693   9.759   3.634 -1.9191  3.4474  0.4043
  327MOL0     H44121  10.549   9.748   3.901 -0.4991 -0.7407 -1.1707
  327MOL0     H44122  10.585   9.901   3.824  1.7434 -0.8037 -2.1426
  327MOL0     H44123  10.804   9.689   3.908 -0.1368  0.2199 -0.0219
  327MOL0     H44124  10.839   9.834   3.819 -0.1674 -1.4374 -0.5502
  327MOL0     H44125  10.411   8.983   3.426 -0.0188 -1.7169 -0.9687
  327MOL0     H44126  10.254   8.835   3.318 -3.2740  0.1772 -0.0134
  327MOL0     H44127  10.190   8.656   2.788 -0.4936 -0.5176 -2.1606
  327MOL0     H44128  10.022   8.521   2.665  0.4531 -0.0738 -0.9422
  327MOL0     H44129   8.529   8.946   2.071 -0.4375 -0.1847 -1.6972
  327MOL0     H44130   8.295   8.860   2.029 -1.2616  0.2114  0.9387
  327MOL0     H44131   7.888   9.152   1.632 -0.9525  0.2193  2.4064
  327MOL0     H44132   7.751   9.038   1.453  0.2951 -0.9696 -0.3847
  327MOL0     H44133   7.586   8.666   1.593 -0.8825  1.3015  0.9391
  327MOL0     H44134   7.664   8.593   1.445 -0.4603 -1.7452  2.2987
  327MOL0     H44135   7.409   8.617   1.496  1.7114 -1.1222  0.2789
  327MOL0     H44136   7.478   8.593   1.338 -0.6092 -1.4789  0.1765
  327MOL0     H44137   7.470   8.851   1.301 -0.4564 -0.1369 -0.2039
  327MOL0     H44138   7.389   8.869   1.454  2.6190  2.6011 -1.1608
  327MOL0     H44139   7.186   8.723   1.359 -1.9746  2.1764 -0.4717
  327MOL0     H44140   7.229   8.858   1.270  1.9329  1.7567  1.3767
  327MOL0     H44141   7.307   8.561   0.977 -1.9012 -0.3020  0.6653
  327MOL0     H44142   7.798   8.669   1.637  1.8125 -1.2112 -2.5540
  327MOL0     H44143   8.071   8.712   1.802 -0.8967 -2.7670 -1.2147
  327MOL0     H44144   7.963   8.784   1.928  1.3741  1.6852 -0.5661
  327MOL0     H44145   7.911   8.642   1.827 -0.1788  0.8964  0.4383
  328MOL0     O44146   8.242   0.365   5.481  0.0632  0.5198  0.0448
  328MOL0     C44147   8.191   0.478   5.475 -0.8820 -0.0041  1.1805
  328MOL0     O44148   8.208   0.572   5.571 -0.5946 -0.5764  0.7508
  328MOL0     C44149   8.282   0.544   5.681 -0.1630 -0.2820 -0.0433
  328MOL0     C44150   8.267   0.426   5.759  0.2635 -0.2952  0.4153
  328MOL0     C44151   8.331   0.426   5.882 -0.6521  0.0415 -1.2491
  328MOL0     C44152   8.432   0.512   5.924  0.5033 -1.0276  0.3997
  328MOL0     O44153   8.502   0.477   6.032 -0.1786  0.6881 -0.1930
  328MOL0     C44154   8.639   0.529   6.036 -1.0914  0.2062 -0.3741
  328MOL0     C44155   8.729   0.463   6.152  0.2679  1.0784 -0.6774
  328MOL0     C44156   8.754   0.565   6.264 -0.8287  0.2885 -0.4309
  328MOL0     C44157   8.796   0.496   6.395 -0.1526  0.5611  0.4993
  328MOL0     C44158   8.671   0.442   6.490 -0.5135  0.0226  0.4074
  328MOL0     C44159   8.721   0.378   6.621 -0.3778 -0.3569 -0.0901
  328MOL0     C44160   8.599   0.299   6.681  0.2324 -0.0611 -0.7720
  328MOL0     C44161   8.655   0.173   6.759 -0.3822  0.1131  0.3003
  328MOL0     N44162   8.541   0.086   6.803 -0.1231  0.5045  0.7562
  328MOL0     C44163   8.415   0.123   6.842 -0.5236 -1.0189  0.5206
  328MOL0     C44164   8.353   0.010   6.879 -0.2325  0.5829 -0.1947
  328MOL0     C44165   8.219  -0.006   6.961 -0.3469 -0.8744  0.3884
  328MOL0     C44166   8.111   0.016   6.852 -0.1802  0.7735 -0.1886
  328MOL0     C44167   8.057   0.152   6.877  0.9707  0.5741 -0.2567
  328MOL0     C44168   7.970   0.193   6.748 -0.2856  0.2912  0.4310
  328MOL0     O44169   7.872   0.292   6.784 -0.0031 -0.2881  0.1676
  328MOL0     C44170   7.903   0.417   6.745 -0.0166  0.5178 -0.0500
  328MOL0     C44171   7.910   0.461   6.613  0.1059 -1.1322  1.2078
  328MOL0     C44172   7.939   0.596   6.598  0.2666  0.8035  0.2684
  328MOL0     C44173   7.980   0.680   6.701  0.7232  0.8027  0.6107
  328MOL0     C44174   8.022   0.819   6.679  0.3778 -0.1465  0.9877
  328MOL0     O44175   8.014   0.902   6.776  0.4266 -1.2542 -0.5035
  328MOL0     C44176   8.053   1.034   6.750  0.6833 -0.2804 -0.3216
  328MOL0     C44177   8.190   1.069   6.711 -0.1121 -0.4834 -0.3409
  328MOL0     C44178   8.236   1.198   6.681  0.0924  1.0220 -0.5445
  328MOL0     C44179   8.139   1.303   6.695  0.5790 -0.4629 -1.0582
  328MOL0     O44180   8.166   1.437   6.697  0.4182 -0.0819 -1.0224
  328MOL0     C44181   8.291   1.475   6.759  0.6485  0.4591 -0.4892
  328MOL0     C44182   8.260   1.601   6.835  0.3994 -0.3389  0.6354
  328MOL0     C44183   8.158   1.573   6.950 -0.0032 -0.2211 -0.0092
  328MOL0     C44184   8.069   1.696   6.972  0.8075  1.3934 -0.3745
  328MOL0     C44185   7.998   1.685   7.105  0.0880 -0.9820 -0.5053
  328MOL0     C44186   7.899   1.793   7.149  0.1872  1.0636  0.5486
  328MOL0     C44187   7.769   1.801   7.061  0.2743  0.0326  0.1721
  328MOL0     C44188   7.721   1.673   7.002 -0.0174  0.1417 -0.1107
  328MOL0    Cl44189   7.544   1.674   6.946  0.0783  0.3371 -0.1941
  328MOL0     C44190   8.002   1.269   6.729  0.4861 -0.2286 -0.7444
  328MOL0     C44191   7.963   1.138   6.754  0.2064  0.1902 -0.1942
  328MOL0     O44192   8.056   0.838   6.567 -0.0045  0.5457 -0.2940
  328MOL0     C44193   7.986   0.626   6.827 -0.3216 -1.0569 -0.5000
  328MOL0     C44194   7.940   0.503   6.852 -0.7628  0.2947 -0.3685
  328MOL0     N44195   8.443  -0.099   6.866  0.3983 -0.3689  0.7796
  328MOL0     N44196   8.548  -0.050   6.805  0.0954  0.1863 -0.4102
  328MOL0     C44197   8.454   0.626   5.840 -0.7419  0.3076 -0.7870
  328MOL0     C44198   8.371   0.643   5.727  0.3690 -0.6598  0.9707
  328MOL0     C44199   8.113   0.517   5.354 -0.1292  0.1790  0.1922
  328MOL0     C44200   8.109   0.658   5.314 -0.6480 -0.0045 -0.2012
  328MOL0     C44201   8.056   0.701   5.191  0.6363 -0.0559  0.3784
  328MOL0     C44202   7.987   0.614   5.107 -0.0588 -0.1584  0.0989
  328MOL0     O44203   7.936   0.659   4.977 -0.1139 -0.1935 -0.7743
  328MOL0     C44204   7.864   0.568   4.896 -0.2815 -0.2306 -0.3395
  328MOL0     C44205   7.765   0.657   4.824  0.7549 -0.1940  0.5506
  328MOL0     C44206   7.656   0.582   4.741 -0.0002 -0.2038 -0.0531
  328MOL0     C44207   7.705   0.471   4.639  0.4937  0.3404  0.7012
  328MOL0     C44208   7.581   0.425   4.555  0.2450 -1.2139 -0.3761
  328MOL0     C44209   7.473   0.388   4.504 -0.4394  0.2625  0.1078
  328MOL0     C44210   8.003   0.470   5.144 -0.6278  0.5942 -0.4157
  328MOL0     C44211   8.058   0.421   5.265 -0.2386 -0.2619 -0.3555
  328MOL0     C44212   8.060   0.278   5.294 -0.1230  0.2478  0.3119
  328MOL0     H44213   8.207   0.345   5.720 -1.3824  2.1398 -2.5888
  328MOL0     H44214   8.316   0.344   5.951 -2.9834  2.8663  1.9775
  328MOL0     H44215   8.685   0.518   5.937 -0.5655  1.2308 -0.2538
  328MOL0     H44216   8.629   0.637   6.051  3.3229  0.8238 -0.6434
  328MOL0     H44217   8.826   0.436   6.109 -0.0649  1.8140 -1.9213
  328MOL0     H44218   8.686   0.374   6.198  1.6729  2.1777  3.2939
  328MOL0     H44219   8.664   0.622   6.291 -1.2774 -1.3952  1.9819
  328MOL0     H44220   8.828   0.640   6.233 -0.9100  0.4415 -0.2570
  328MOL0     H44221   8.868   0.421   6.361 -0.4392  1.0827 -1.3398
  328MOL0     H44222   8.864   0.568   6.442  1.1117 -0.1826 -0.1152
  328MOL0     H44223   8.618   0.532   6.521  0.6075  1.2817 -1.1159
  328MOL0     H44224   8.603   0.376   6.435 -0.5779 -0.2041  0.7565
  328MOL0     H44225   8.798   0.310   6.583 -1.4092 -2.4448  1.3971
  328MOL0     H44226   8.762   0.450   6.692 -0.6426 -0.4361  0.1395
  328MOL0     H44227   8.527   0.268   6.605 -0.6470 -2.9619  1.0618
  328MOL0     H44228   8.541   0.362   6.749 -1.3214  0.7759 -2.7654
  328MOL0     H44229   8.720   0.109   6.699 -0.2095 -0.0068  0.6120
  328MOL0     H44230   8.706   0.220   6.844 -1.2457  0.9981  0.3603
  328MOL0     H44231   8.372   0.221   6.857 -2.8200 -2.0179  0.9820
  328MOL0     H44232   8.224  -0.109   6.998  3.8811 -0.3252  1.8927
  328MOL0     H44233   8.212   0.070   7.040 -1.4830  0.1213 -0.6204
  328MOL0     H44234   8.139  -0.001   6.748  2.0236  1.8671  0.1765
  328MOL0     H44235   8.035  -0.061   6.874  0.6352  0.2498  0.8971
  328MOL0     H44236   8.124   0.234   6.902 -2.6055  2.7418  3.5588
  328MOL0     H44237   7.990   0.147   6.964 -0.0373 -0.6001 -1.0751
  328MOL0     H44238   7.918   0.105   6.709  0.9008 -0.5011  0.5956
  328MOL0     H44239   8.045   0.219   6.673 -1.0242 -0.0406 -0.4449
  328MOL0     H44240   7.879   0.398   6.530 -0.4786 -0.9803  1.3028
  328MOL0     H44241   7.932   0.634   6.496  3.3807 -2.0181 -1.1999
  328MOL0     H44242   8.258   0.985   6.698 -2.2043 -2.6513  1.7289
  328MOL0     H44243   8.335   1.235   6.657  0.0595  3.8291  2.7904
  328MOL0     H44244   8.334   1.403   6.829  0.6682  0.8105 -0.1357
  328MOL0     H44245   8.363   1.490   6.678 -1.5281 -1.9098 -3.0629
  328MOL0     H44246   8.352   1.641   6.881  2.0741 -2.9551 -0.2139
  328MOL0     H44247   8.225   1.684   6.773 -3.4028 -2.8074 -0.8366
  328MOL0     H44248   8.084   1.497   6.924 -2.6335  2.9036 -2.5306
  328MOL0     H44249   8.214   1.550   7.042  0.6776 -1.2222 -0.6520
  328MOL0     H44250   8.005   1.700   6.884  0.5802 -3.6075 -0.6892
  328MOL0     H44251   8.132   1.783   6.992 -0.1365  2.7332 -2.8446
  328MOL0     H44252   8.066   1.676   7.190 -0.1589  1.3468 -0.0009
  328MOL0     H44253   7.940   1.591   7.105 -2.2195  0.3622  0.2162
  328MOL0     H44254   7.869   1.775   7.253  0.4073 -0.3940  0.3869
  328MOL0     H44255   7.957   1.884   7.136 -0.7261  1.4632 -0.9749
  328MOL0     H44256   7.791   1.871   6.980  1.4730  0.0130  0.4623
  328MOL0     H44257   7.692   1.861   7.111 -0.3433 -1.1204  0.6598
  328MOL0     H44258   7.784   1.625   6.926  1.4293  0.1307  1.0450
  328MOL0     H44259   7.715   1.605   7.088 -1.7836  0.2366 -0.1319
  328MOL0     H44260   7.921   1.340   6.744 -0.5352 -1.6108  0.6659
  328MOL0     H44261   7.858   1.119   6.776 -1.3734  4.8768 -2.3536
  328MOL0     H44262   8.006   0.691   6.912 -3.8887 -0.5091  0.0579
  328MOL0     H44263   7.945   0.490   6.959 -3.0493  0.1092 -0.2386
  328MOL0     H44264   8.535   0.697   5.859 -0.2257 -0.2717 -0.7846
  328MOL0     H44265   8.376   0.733   5.668 -1.6845 -1.3931 -0.4214
  328MOL0     H44266   8.154   0.735   5.376  0.4380 -1.8411  1.4522
  328MOL0     H44267   8.051   0.806   5.163 -1.2337  0.1466  1.3128
  328MOL0     H44268   7.825   0.477   4.943 -1.9223  0.3062 -0.5760
  328MOL0     H44269   7.929   0.517   4.824 -3.2384 -1.8385 -2.0647
  328MOL0     H44270   7.822   0.721   4.756 -2.7941  3.5516  0.7186
  328MOL0     H44271   7.713   0.708   4.907  2.9408  1.9913  0.6963
  328MOL0     H44272   7.591   0.654   4.690 -1.9136 -1.3082  0.7151
  328MOL0     H44273   7.584   0.530   4.803  2.0523 -3.8966 -0.4823
  328MOL0     H44274   7.776   0.509   4.565  1.2385 -0.2941  1.0867
  328MOL0     H44275   7.740   0.382   4.693 -1.1226  1.5102  3.9363
  328MOL0     H44276   7.384   0.354   4.455  0.2756 -0.6745 -0.5927
  328MOL0     H44277   7.956   0.401   5.075 -1.8070 -0.3070  1.2024
  328MOL0     H44278   8.001   0.224   5.219  0.7642  0.6227 -0.6871
  328MOL0     H44279   8.159   0.237   5.272 -0.9744 -1.4004 -0.6869
  328MOL0     H44280   8.018   0.255   5.392  2.3677 -1.1844  1.1326
  329MOL0     O44281   6.603   6.365   1.563  0.2423  0.0870  0.3286
  329MOL0     C44282   6.615   6.420   1.680  0.3213  0.1060 -0.0353
  329MOL0     O44283   6.537   6.525   1.734 -0.3126  0.9093 -0.2592
  329MOL0     C44284   6.481   6.614   1.650 -0.2469 -0.5045 -0.0816
  329MOL0     C44285   6.511   6.752   1.661  0.0037  0.7350 -0.4196
  329MOL0     C44286   6.442   6.845   1.585  0.4195  0.5437  0.8358
  329MOL0     C44287   6.330   6.817   1.509  0.1398 -0.9595  0.3572
  329MOL0     O44288   6.257   6.914   1.447  0.2847 -0.2746 -1.0746
  329MOL0     C44289   6.196   6.899   1.320 -0.3638  0.2070  0.2050
  329MOL0     C44290   6.043   6.888   1.352 -0.8866  1.0198  0.3085
  329MOL0     C44291   5.966   7.023   1.387 -0.6418 -0.9819  0.5181
  329MOL0     C44292   5.946   7.115   1.266 -0.5438 -0.6101 -0.6277
  329MOL0     C44293   6.039   7.237   1.259 -0.5143 -0.6483  0.2667
  329MOL0     C44294   5.979   7.355   1.179  0.4313 -0.9609 -0.5338
  329MOL0     C44295   5.905   7.453   1.279 -0.0553  0.2100  0.1621
  329MOL0     C44296   5.799   7.553   1.229 -0.6552  0.2113  1.7054
  329MOL0     N44297   5.680   7.494   1.183  0.0451  0.7308  0.2835
  329MOL0     C44298   5.627   7.541   1.073  0.2335  0.3290  0.2359
  329MOL0     C44299   5.496   7.498   1.077 -0.8093  1.5325 -0.4296
  329MOL0     C44300   5.411   7.524   0.962  0.7480  0.2619  0.2565
  329MOL0     C44301   5.259   7.492   0.992 -1.0623  0.0531 -0.4351
  329MOL0     C44302   5.221   7.340   0.972 -0.2851 -0.0634 -0.0116
  329MOL0     C44303   5.109   7.300   1.061  0.4483  0.2285  0.0577
  329MOL0     O44304   4.984   7.353   1.027 -0.8749 -0.0814 -0.0995
  329MOL0     C44305   4.913   7.294   0.922 -0.1104 -0.2526 -0.2936
  329MOL0     C44306   4.851   7.167   0.940 -0.9392 -0.1362 -0.2168
  329MOL0     C44307   4.741   7.136   0.856  0.5150  0.1380 -0.0624
  329MOL0     C44308   4.728   7.200   0.736  0.6893 -0.0604 -0.7947
  329MOL0     C44309   4.598   7.166   0.661  0.2577  0.6690  0.6887
  329MOL0     O44310   4.592   7.227   0.534 -0.8175  0.0729  0.2936
  329MOL0     C44311   4.497   7.175   0.453  0.9446 -0.0208  0.4779
  329MOL0     C44312   4.377   7.246   0.437 -0.5165 -0.5264 -0.5860
  329MOL0     C44313   4.294   7.207   0.330  0.1750  0.2473 -0.6281
  329MOL0     C44314   4.339   7.092   0.252 -0.6214 -0.5806 -0.1172
  329MOL0     O44315   4.253   7.064   0.146 -0.4737 -0.0357 -0.1746
  329MOL0     C44316   4.270   6.954   0.056 -0.4752 -0.6484  0.2034
  329MOL0     C44317   4.153   6.962  -0.042  0.1806  0.2770 -0.5658
  329MOL0     C44318   4.171   6.868  -0.160 -0.2583  1.0363 -0.0892
  329MOL0     C44319   4.180   6.722  -0.111 -0.6154  0.8853  0.4668
  329MOL0     C44320   4.158   6.631  -0.227 -0.0429  0.2849  1.4316
  329MOL0     C44321   4.168   6.479  -0.198 -0.0343 -0.4500 -1.2546
  329MOL0     C44322   4.118   6.383  -0.309 -0.2352  0.0914 -0.1824
  329MOL0     C44323   4.219   6.381  -0.421  0.6390  0.1080 -0.3814
  329MOL0    Cl44324   4.208   6.219  -0.502  0.1882  0.1173  0.2571
  329MOL0     C44325   4.457   7.022   0.272 -0.0565 -1.4779  0.6273
  329MOL0     C44326   4.544   7.072   0.365  0.0721  0.0471  0.3906
  329MOL0     O44327   4.522   7.080   0.703  0.6694 -0.0110  0.3428
  329MOL0     C44328   4.802   7.312   0.714 -0.6537 -0.3741 -0.6060
  329MOL0     C44329   4.892   7.366   0.809  0.9893  0.2334 -0.0191
  329MOL0     N44330   5.477   7.430   1.199  0.9615  0.6441 -0.5214
  329MOL0     N44331   5.581   7.440   1.263 -0.5762 -0.9357  0.3276
  329MOL0     C44332   6.297   6.678   1.497  0.6635 -1.1519  0.9310
  329MOL0     C44333   6.374   6.583   1.571  0.9019  0.3079 -0.2534
  329MOL0     C44334   6.724   6.361   1.764  0.6552 -0.5100 -0.6983
  329MOL0     C44335   6.739   6.417   1.898  0.4487  0.9988  0.3638
  329MOL0     C44336   6.851   6.363   1.977 -0.1037 -0.3384  0.1484
  329MOL0     C44337   6.951   6.279   1.923 -0.7530  0.8902 -0.4921
  329MOL0     O44338   7.061   6.232   1.991  0.1484 -0.2312 -0.5456
  329MOL0     C44339   7.080   6.266   2.132 -0.7003  0.8803 -0.3367
  329MOL0     C44340   7.214   6.210   2.183 -0.1070  0.4017 -0.7854
  329MOL0     C44341   7.343   6.293   2.175 -0.7508  0.4818  0.2960
  329MOL0     C44342   7.381   6.305   2.025  0.1505  1.0923 -0.3750
  329MOL0     C44343   7.442   6.179   1.974  0.0009 -0.6618 -0.1283
  329MOL0     C44344   7.490   6.071   1.956  1.0833  0.3964 -0.0493
  329MOL0     C44345   6.935   6.236   1.798 -0.0153 -1.3087  0.2310
  329MOL0     C44346   6.823   6.267   1.722  0.3405  0.5800  1.1893
  329MOL0     C44347   6.826   6.186   1.589  0.5683 -0.2770 -0.7058
  329MOL0     H44348   6.586   6.801   1.724 -0.7289  1.8399 -0.3778
  329MOL0     H44349   6.478   6.948   1.578  2.1663  0.0956  2.2919
  329MOL0     H44350   6.217   6.992   1.266  3.0028  0.0864  1.0890
  329MOL0     H44351   6.214   6.808   1.263 -0.7896  0.1254  0.2022
  329MOL0     H44352   6.028   6.804   1.421 -2.5724 -1.5924 -2.9191
  329MOL0     H44353   5.991   6.848   1.264 -2.3125  1.5558  0.8796
  329MOL0     H44354   6.028   7.074   1.461  0.6244  2.6208 -2.7272
  329MOL0     H44355   5.870   6.982   1.421 -2.4024  0.0529 -2.7602
  329MOL0     H44356   5.960   7.063   1.170 -0.5504 -1.3768 -0.2208
  329MOL0     H44357   5.848   7.162   1.269 -0.2239  0.2840 -2.3778
  329MOL0     H44358   6.060   7.271   1.361 -1.0245 -0.3730  0.2840
  329MOL0     H44359   6.136   7.209   1.215  0.8732  2.8158  0.7854
  329MOL0     H44360   6.064   7.401   1.128  0.4677  0.0204  0.3852
  329MOL0     H44361   5.909   7.312   1.106  0.6967 -2.0292 -0.1865
  329MOL0     H44362   5.980   7.512   1.333  0.6781 -0.9828  0.4845
  329MOL0     H44363   5.852   7.393   1.354  2.8211 -0.4630  1.8122
  329MOL0     H44364   5.782   7.634   1.301 -2.1664  1.8183 -0.3266
  329MOL0     H44365   5.849   7.604   1.145 -0.3614 -2.1652  0.3607
  329MOL0     H44366   5.662   7.602   0.990 -1.0792 -0.2036 -0.7391
  329MOL0     H44367   5.422   7.628   0.929 -0.0798  0.7894  1.5826
  329MOL0     H44368   5.443   7.460   0.879 -0.6622 -1.2449  0.8344
  329MOL0     H44369   5.234   7.520   1.095 -0.2321  1.4867 -0.5940
  329MOL0     H44370   5.195   7.555   0.929 -0.4406  0.6917 -0.4467
  329MOL0     H44371   5.303   7.272   0.994 -1.6453 -2.0253 -0.6877
  329MOL0     H44372   5.195   7.314   0.869 -0.1038 -2.3785  0.4632
  329MOL0     H44373   5.131   7.323   1.166  0.3966 -0.5319  0.2443
  329MOL0     H44374   5.101   7.192   1.046 -3.3612  0.5902 -1.7965
  329MOL0     H44375   4.873   7.102   1.024 -2.8174  1.4269  1.5966
  329MOL0     H44376   4.683   7.048   0.881  1.4649 -0.0340  1.7939
  329MOL0     H44377   4.352   7.333   0.497 -0.5859 -0.6223 -0.4750
  329MOL0     H44378   4.204   7.264   0.310 -0.1699  0.0305  0.2358
  329MOL0     H44379   4.361   6.969  -0.003 -1.3305 -0.8886 -1.2416
  329MOL0     H44380   4.270   6.858   0.109  0.4177 -0.3454  0.7659
  329MOL0     H44381   4.056   6.945   0.006 -1.3474  2.4513 -2.5996
  329MOL0     H44382   4.155   7.066  -0.077  2.1876  1.0857  1.6840
  329MOL0     H44383   4.084   6.882  -0.225  0.4441  0.1186 -1.2820
  329MOL0     H44384   4.255   6.902  -0.221  0.2458  1.8455  1.0462
  329MOL0     H44385   4.102   6.713  -0.035  2.0072 -1.4640  3.1691
  329MOL0     H44386   4.274   6.698  -0.061  0.3147  0.2813 -1.5007
  329MOL0     H44387   4.227   6.657  -0.307 -1.6973 -2.0683 -0.8887
  329MOL0     H44388   4.056   6.646  -0.265  0.2803  0.7548  0.7435
  329MOL0     H44389   4.271   6.448  -0.177 -0.8690 -3.9873 -1.8207
  329MOL0     H44390   4.106   6.472  -0.109  0.9899  1.6497 -0.2987
  329MOL0     H44391   4.017   6.413  -0.341 -0.8094 -1.7507 -0.2380
  329MOL0     H44392   4.111   6.282  -0.268 -2.2965  0.0969 -0.4163
  329MOL0     H44393   4.191   6.458  -0.494  3.1099  2.3064  0.8158
  329MOL0     H44394   4.315   6.393  -0.371 -0.0428  0.4088  0.9050
  329MOL0     H44395   4.493   6.974   0.182  1.9454  4.4437 -2.2584
  329MOL0     H44396   4.646   7.040   0.380 -0.2440 -0.9114  0.5918
  329MOL0     H44397   4.790   7.367   0.621 -2.3248 -1.4770 -1.0976
  329MOL0     H44398   4.945   7.459   0.790  1.2765  0.8014  3.0540
  329MOL0     H44399   6.206   6.653   1.444  0.8148 -3.1916  1.5591
  329MOL0     H44400   6.350   6.477   1.578  1.3078  0.1365 -1.2645
  329MOL0     H44401   6.683   6.497   1.946 -0.9341 -0.2986  1.0074
  329MOL0     H44402   6.850   6.401   2.079  0.2802 -0.2512  0.1208
  329MOL0     H44403   6.998   6.221   2.189  0.1331 -0.4052 -0.0939
  329MOL0     H44404   7.086   6.372   2.158  2.6571  0.8604 -0.5417
  329MOL0     H44405   7.218   6.119   2.122  1.1160 -0.1862  0.1611
  329MOL0     H44406   7.199   6.175   2.285 -3.0405  0.8741 -0.9451
  329MOL0     H44407   7.427   6.253   2.232 -1.2681 -1.4072 -0.1890
  329MOL0     H44408   7.326   6.396   2.210 -0.7475  0.7275 -0.4101
  329MOL0     H44409   7.297   6.340   1.964  0.2893  1.3803 -0.4026
  329MOL0     H44410   7.458   6.382   2.025 -2.0877  3.6395  3.6403
  329MOL0     H44411   7.524   5.972   1.936  3.0122  0.3362  2.9469
  329MOL0     H44412   7.004   6.162   1.758  0.9436  1.3291 -3.6361
  329MOL0     H44413   6.852   6.256   1.509 -1.3298  0.0788 -1.0706
  329MOL0     H44414   6.902   6.108   1.577 -0.4262 -0.8603 -4.7020
  329MOL0     H44415   6.729   6.139   1.569 -0.2603  1.0159  0.1369
  330MOL0     O44416   7.552   9.192   2.816 -0.4019  0.2911 -0.5250
  330MOL0     C44417   7.533   9.068   2.802 -0.0413 -0.5689 -0.5814
  330MOL0     O44418   7.516   9.006   2.687 -0.1676 -0.2140  0.7615
  330MOL0     C44419   7.537   9.078   2.570 -0.4615 -0.5829 -0.5896
  330MOL0     C44420   7.433   9.119   2.488  0.1190  0.2133 -0.2092
  330MOL0     C44421   7.460   9.186   2.370  1.1661  0.1394 -0.4184
  330MOL0     C44422   7.601   9.207   2.333  0.0637  0.3047 -0.0464
  330MOL0     O44423   7.618   9.288   2.220  0.2561 -0.3166 -0.4180
  330MOL0     C44424   7.743   9.278   2.144  0.6949  0.1491 -0.6881
  330MOL0     C44425   7.735   9.349   2.010  0.2430  0.0394  0.7708
  330MOL0     C44426   7.631   9.285   1.914 -0.1555 -0.4278  0.5210
  330MOL0     C44427   7.647   9.328   1.764  0.2095 -0.2063  0.1950
  330MOL0     C44428   7.535   9.309   1.672  0.8845 -0.4173  0.8466
  330MOL0     C44429   7.396   9.367   1.717 -0.5127  0.0441  0.8311
  330MOL0     C44430   7.409   9.510   1.769 -0.6074  0.6850  0.2636
  330MOL0     C44431   7.444   9.619   1.668  0.3648 -0.3162  0.2664
  330MOL0     N44432   7.401   9.605   1.531  0.5489  0.4337  1.0471
  330MOL0     C44433   7.280   9.558   1.481 -0.7568 -0.2691 -1.0672
  330MOL0     C44434   7.296   9.536   1.348 -1.2151  0.6891 -0.7757
  330MOL0     C44435   7.195   9.454   1.264 -1.3354 -0.3402 -0.1926
  330MOL0     C44436   7.242   9.302   1.244 -0.8878  0.4585  0.3113
  330MOL0     C44437   7.284   9.215   1.374  0.2920 -0.4418  0.1642
  330MOL0     C44438   7.167   9.140   1.447  0.1471  0.3545  0.2495
  330MOL0     O44439   7.078   9.073   1.348 -0.4479 -0.3654  0.2030
  330MOL0     C44440   6.955   9.125   1.349  0.0582 -0.7871  0.8063
  330MOL0     C44441   6.906   9.178   1.231  0.0862  0.7598 -0.1634
  330MOL0     C44442   6.773   9.221   1.224  0.1068 -0.2668  0.8867
  330MOL0     C44443   6.693   9.231   1.341 -0.1253  0.5235 -0.5217
  330MOL0     C44444   6.550   9.276   1.350  0.4552  0.0584 -0.7711
  330MOL0     O44445   6.494   9.323   1.237 -0.3790 -0.7439  1.1141
  330MOL0     C44446   6.362   9.326   1.231  0.1267  1.0045  0.3689
  330MOL0     C44447   6.297   9.213   1.205 -0.4026  0.1150 -0.1245
  330MOL0     C44448   6.157   9.206   1.194  0.0401 -0.1997  0.1966
  330MOL0     C44449   6.072   9.320   1.226 -0.1175  0.8497  0.7713
  330MOL0     O44450   5.933   9.302   1.223  0.7558 -0.4907 -0.5156
  330MOL0     C44451   5.848   9.409   1.263 -0.2844  0.1561  0.2003
  330MOL0     C44452   5.812   9.389   1.408  0.6374 -1.3850 -0.1385
  330MOL0     C44453   5.697   9.284   1.409 -0.6744 -0.6226 -0.6048
  330MOL0     C44454   5.634   9.295   1.547 -0.8090  0.5112 -0.3661
  330MOL0     C44455   5.545   9.166   1.565  0.5159 -0.3238  0.4180
  330MOL0     C44456   5.436   9.160   1.454 -0.3244 -0.2572  0.4347
  330MOL0     C44457   5.341   9.034   1.468 -0.4103 -0.2569 -0.8762
  330MOL0     C44458   5.210   9.050   1.392  1.0662  0.2516 -0.4311
  330MOL0    Cl44459   5.102   9.178   1.464  0.4970 -0.0052  0.0722
  330MOL0     C44460   6.146   9.436   1.265  0.4578  0.1390  0.0446
  330MOL0     C44461   6.286   9.444   1.258 -0.9637  0.8254  1.4503
  330MOL0     O44462   6.487   9.275   1.460 -0.2274  0.8672  0.4075
  330MOL0     C44463   6.752   9.180   1.456 -0.2852 -0.2246 -0.0217
  330MOL0     C44464   6.889   9.140   1.465 -0.3568  0.1032 -0.3382
  330MOL0     N44465   7.427   9.567   1.314 -0.0067  0.2920 -0.1049
  330MOL0     N44466   7.485   9.618   1.418 -0.1473  0.8640  0.1648
  330MOL0     C44467   7.709   9.160   2.413  0.6495  0.3004  0.2448
  330MOL0     C44468   7.669   9.091   2.530 -0.6488  0.3025 -0.1968
  330MOL0     C44469   7.538   8.985   2.928 -0.2001  0.2161  0.3143
  330MOL0     C44470   7.547   9.056   3.057 -0.8780  0.0256  0.2179
  330MOL0     C44471   7.542   8.998   3.179 -0.4402  0.0425 -0.6313
  330MOL0     C44472   7.535   8.856   3.195  0.3769 -0.2591  0.0626
  330MOL0     O44473   7.504   8.789   3.307 -0.0744  0.4131  0.4304
  330MOL0     C44474   7.540   8.859   3.429 -0.6925  0.0537 -0.2887
  330MOL0     C44475   7.560   8.752   3.534  0.9222 -1.1930 -0.3721
  330MOL0     C44476   7.687   8.672   3.523 -0.1147  0.4957 -0.2438
  330MOL0     C44477   7.721   8.582   3.643  0.3626 -0.7829  0.9716
  330MOL0     C44478   7.646   8.463   3.672 -0.3141  0.7859 -0.7412
  330MOL0     C44479   7.609   8.353   3.709 -0.4740 -0.9158  0.9377
  330MOL0     C44480   7.517   8.788   3.069 -0.5722  0.8276  0.1997
  330MOL0     C44481   7.524   8.848   2.937 -0.2054 -0.2824 -0.6298
  330MOL0     C44482   7.501   8.763   2.819  0.3346 -0.0716 -0.4239
  330MOL0     H44483   7.328   9.110   2.513 -0.0991 -1.0456 -1.4685
  330MOL0     H44484   7.378   9.226   2.312  1.2447  2.3884  0.9185
  330MOL0     H44485   7.820   9.333   2.200  2.2559 -0.8864 -1.7261
  330MOL0     H44486   7.785   9.179   2.123 -0.0533 -0.2749 -0.2369
  330MOL0     H44487   7.834   9.330   1.967  0.2934 -2.0773  1.6865
  330MOL0     H44488   7.709   9.452   2.035 -1.2230 -0.7893  2.9573
  330MOL0     H44489   7.532   9.313   1.950  0.4705 -2.1286  4.0595
  330MOL0     H44490   7.641   9.176   1.921 -1.3761 -0.6326 -0.5325
  330MOL0     H44491   7.661   9.437   1.768  2.9400 -0.4508 -0.6994
  330MOL0     H44492   7.743   9.296   1.723  0.1505 -0.3325  0.1557
  330MOL0     H44493   7.560   9.351   1.574  0.0000 -0.7117  0.4828
  330MOL0     H44494   7.504   9.205   1.655 -3.7145  0.5082  2.2656
  330MOL0     H44495   7.328   9.366   1.631 -0.1675 -0.4072  0.5606
  330MOL0     H44496   7.348   9.309   1.797  1.4985  0.9598  2.8086
  330MOL0     H44497   7.472   9.511   1.858  0.3384  0.7717 -0.3945
  330MOL0     H44498   7.310   9.539   1.806 -0.9209  1.1095 -0.8825
  330MOL0     H44499   7.416   9.715   1.714 -0.3607  0.3848 -1.5399
  330MOL0     H44500   7.554   9.618   1.664  0.3311 -0.9788 -1.3570
  330MOL0     H44501   7.194   9.530   1.541 -0.3712  2.6416  1.0415
  330MOL0     H44502   7.097   9.450   1.311 -0.8771  0.7304  0.9203
  330MOL0     H44503   7.197   9.505   1.168  5.1961  0.4887 -0.1014
  330MOL0     H44504   7.156   9.257   1.193 -0.3661 -2.0441  1.4831
  330MOL0     H44505   7.324   9.302   1.172 -2.7582  4.8048 -2.3020
  330MOL0     H44506   7.325   9.295   1.436  1.2884  1.0955 -2.3137
  330MOL0     H44507   7.370   9.154   1.345 -0.0462 -0.7930 -0.1226
  330MOL0     H44508   7.113   9.222   1.494 -4.3038  0.4098 -4.1438
  330MOL0     H44509   7.206   9.067   1.519  0.9432 -1.6899 -2.0968
  330MOL0     H44510   6.962   9.196   1.140 -0.4601  1.8715 -0.3002
  330MOL0     H44511   6.735   9.258   1.128 -0.7483 -2.9825  0.0927
  330MOL0     H44512   6.356   9.126   1.176  2.4535  1.6449  0.7496
  330MOL0     H44513   6.117   9.108   1.169 -0.4223  0.1234 -0.3616
  330MOL0     H44514   5.889   9.507   1.234 -1.3974 -0.3756 -3.8105
  330MOL0     H44515   5.763   9.423   1.195 -2.7155 -0.9956  2.7818
  330MOL0     H44516   5.889   9.346   1.472  0.3240 -1.7539 -0.0029
  330MOL0     H44517   5.768   9.478   1.455  1.8013 -0.7197 -0.2544
  330MOL0     H44518   5.625   9.299   1.329 -1.7843  0.3292  0.5241
  330MOL0     H44519   5.744   9.186   1.398  0.4417 -0.3476  1.2335
  330MOL0     H44520   5.582   9.391   1.561  0.3518  1.1358 -0.2099
  330MOL0     H44521   5.702   9.284   1.632 -1.6080 -2.9218 -0.0503
  330MOL0     H44522   5.505   9.179   1.666 -2.0286  0.9217 -0.6650
  330MOL0     H44523   5.608   9.079   1.544  0.9209  0.4775 -1.8905
  330MOL0     H44524   5.375   9.249   1.469 -1.1011 -0.7610  0.3172
  330MOL0     H44525   5.478   9.146   1.354 -2.1654 -1.2984 -0.2306
  330MOL0     H44526   5.326   9.004   1.573 -2.4167 -1.2234 -1.3839
  330MOL0     H44527   5.398   8.946   1.438  1.3640  0.3631  0.4526
  330MOL0     H44528   5.238   9.084   1.292  0.2460 -1.3552 -1.2501
  330MOL0     H44529   5.170   8.948   1.390  2.0076 -0.1930  1.2050
  330MOL0     H44530   6.094   9.530   1.282  1.7050  1.4865 -2.8188
  330MOL0     H44531   6.339   9.538   1.267  0.8122  0.0863 -0.4773
  330MOL0     H44532   6.697   9.190   1.549 -0.3778  1.0413 -0.2005
  330MOL0     H44533   6.937   9.112   1.558 -1.1491 -3.0206 -0.7512
  330MOL0     H44534   7.814   9.161   2.384  0.8004 -0.2235  0.7288
  330MOL0     H44535   7.752   9.057   2.592  0.7223  3.1531 -0.3309
  330MOL0     H44536   7.553   9.164   3.051  2.9837 -0.0493  0.5870
  330MOL0     H44537   7.521   9.057   3.267 -0.8993 -2.0678  0.7389
  330MOL0     H44538   7.462   8.932   3.452 -0.4514  0.6404 -1.2867
  330MOL0     H44539   7.633   8.916   3.421  0.3504 -1.6128 -0.5453
  330MOL0     H44540   7.483   8.675   3.526  1.7785 -2.4825  2.2980
  330MOL0     H44541   7.561   8.801   3.633  1.5507 -1.2963 -0.3266
  330MOL0     H44542   7.768   8.744   3.508 -0.0346  1.0013  2.1176
  330MOL0     H44543   7.691   8.611   3.433  0.6833  2.0204 -1.2785
  330MOL0     H44544   7.825   8.551   3.637 -0.1148 -2.1594 -1.7739
  330MOL0     H44545   7.707   8.640   3.734 -3.1561  0.5061 -0.2272
  330MOL0     H44546   7.572   8.265   3.758  1.9639 -2.5327  0.0543
  330MOL0     H44547   7.496   8.682   3.086  3.6899 -0.5335 -1.7121
  330MOL0     H44548   7.408   8.792   2.770 -0.3881 -0.3406  0.7525
  330MOL0     H44549   7.592   8.769   2.757  1.0135 -1.8594  0.3349
  330MOL0     H44550   7.492   8.658   2.849  0.1154 -0.6119 -2.2336
  331MOL0     O44551   9.019   6.360   6.002 -0.4575  0.1783 -0.1895
  331MOL0     C44552   8.929   6.430   5.967  0.2509 -0.3358 -0.9921
  331MOL0     O44553   8.826   6.478   6.044 -1.0262  0.1486 -0.4692
  331MOL0     C44554   8.842   6.416   6.170  0.0152 -0.4353  0.0365
  331MOL0     C44555   8.812   6.282   6.173  0.9497 -0.7524 -0.2723
  331MOL0     C44556   8.846   6.206   6.287 -0.0678 -0.3685  0.7937
  331MOL0     C44557   8.918   6.255   6.393 -0.6050  0.1270 -0.6364
  331MOL0     O44558   8.952   6.173   6.501  0.0964 -0.1468 -0.1833
  331MOL0     C44559   9.006   6.232   6.612  0.6755 -0.1590 -0.2538
  331MOL0     C44560   9.036   6.125   6.720  0.2878 -0.0953  0.1208
  331MOL0     C44561   9.110   6.009   6.672  0.2096  0.7351  0.2021
  331MOL0     C44562   9.165   5.920   6.786 -1.5430  0.9111 -0.0382
  331MOL0     C44563   9.201   5.774   6.743 -0.7601  0.1472 -0.1711
  331MOL0     C44564   9.088   5.685   6.786  0.3755 -0.6087 -0.2384
  331MOL0     C44565   9.103   5.550   6.724 -0.7107  0.3497 -0.4567
  331MOL0     C44566   9.001   5.454   6.788 -1.5224 -1.4036  0.6733
  331MOL0     N44567   9.001   5.319   6.724  0.5135 -0.6855 -0.5728
  331MOL0     C44568   9.048   5.202   6.782  0.4605  0.4837 -1.2709
  331MOL0     C44569   9.037   5.105   6.687 -0.0778 -0.3100 -0.7665
  331MOL0     C44570   9.089   4.965   6.696 -0.7318 -1.0413 -0.5139
  331MOL0     C44571   8.980   4.858   6.722 -0.0904 -1.1032 -0.5538
  331MOL0     C44572   8.926   4.881   6.862 -0.0497  0.1781 -0.5252
  331MOL0     C44573   8.835   4.770   6.911  0.8067  0.3464  0.2466
  331MOL0     O44574   8.847   4.751   7.056  0.0931  0.2777 -0.2944
  331MOL0     C44575   8.803   4.629   7.089  0.0108 -0.2813  0.3075
  331MOL0     C44576   8.889   4.514   7.091 -0.4862  0.0333  0.3277
  331MOL0     C44577   8.826   4.395   7.139 -0.6616  1.1098 -0.6027
  331MOL0     C44578   8.694   4.389   7.186  0.5439 -0.7283  0.2552
  331MOL0     C44579   8.631   4.269   7.236  0.2723  1.4073  0.2151
  331MOL0     O44580   8.704   4.156   7.204 -0.0669  0.0699 -0.5083
  331MOL0     C44581   8.687   4.035   7.281 -0.0514  0.3810 -0.0571
  331MOL0     C44582   8.653   4.032   7.422 -0.2705  0.5952  0.0934
  331MOL0     C44583   8.658   3.905   7.491  1.1147  0.1659 -0.7976
  331MOL0     C44584   8.696   3.787   7.419 -0.7314 -0.5036 -0.8877
  331MOL0     O44585   8.711   3.661   7.480 -0.3822 -0.4778  0.7280
  331MOL0     C44586   8.715   3.664   7.622  0.5695 -0.2221 -0.4774
  331MOL0     C44587   8.746   3.525   7.674 -0.3911 -0.2781 -0.4092
  331MOL0     C44588   8.770   3.524   7.830  0.1643 -0.5514 -1.5088
  331MOL0     C44589   8.865   3.413   7.884  0.3820 -0.3583  0.5129
  331MOL0     C44590   8.837   3.368   8.026 -0.6772 -0.3849  0.5171
  331MOL0     C44591   8.837   3.481   8.130 -0.6205 -0.4623 -0.5293
  331MOL0     C44592   8.833   3.434   8.272  0.5510 -0.3140  0.1456
  331MOL0     C44593   8.709   3.354   8.305 -0.2221  0.1411 -0.6769
  331MOL0    Cl44594   8.710   3.356   8.485  0.1142  0.3157 -0.0238
  331MOL0     C44595   8.728   3.796   7.280  0.9186  0.3645 -0.4322
  331MOL0     C44596   8.725   3.918   7.216 -0.2926  1.0176  0.1311
  331MOL0     O44597   8.529   4.272   7.298 -0.0513 -0.2401  0.7290
  331MOL0     C44598   8.619   4.507   7.180  0.6722  0.4643  0.8702
  331MOL0     C44599   8.677   4.621   7.138  0.7672 -0.5450  0.0417
  331MOL0     N44600   8.964   5.166   6.580 -0.0937 -0.2937  0.2246
  331MOL0     N44601   8.942   5.285   6.604 -0.5567 -0.0068  0.6764
  331MOL0     C44602   8.936   6.395   6.386 -0.2457  0.7772  0.2231
  331MOL0     C44603   8.891   6.474   6.281  0.3965 -0.1435 -0.2104
  331MOL0     C44604   8.942   6.465   5.828 -0.4497  0.4502 -0.7593
  331MOL0     C44605   8.817   6.480   5.763  0.2602 -0.2903  0.4307
  331MOL0     C44606   8.814   6.519   5.626  0.2584  0.7399 -0.7771
  331MOL0     C44607   8.931   6.555   5.558  0.4057 -0.1834 -0.5194
  331MOL0     O44608   8.915   6.592   5.427  0.2191 -1.0551 -0.0932
  331MOL0     C44609   9.022   6.664   5.356 -0.6010  0.9019 -0.4999
  331MOL0     C44610   8.959   6.762   5.266  0.5988 -0.7355  0.6046
  331MOL0     C44611   8.927   6.893   5.343  0.2639  0.1283 -0.3881
  331MOL0     C44612   8.877   6.997   5.244 -0.6449 -0.2179  0.3021
  331MOL0     C44613   8.886   7.128   5.305 -0.7490 -1.1158 -0.1335
  331MOL0     C44614   8.884   7.230   5.365 -0.3249  0.5584  0.0007
  331MOL0     C44615   9.058   6.551   5.627  0.1217  0.2195 -0.3017
  331MOL0     C44616   9.063   6.487   5.749  0.0268  0.1703 -0.2638
  331MOL0     C44617   9.199   6.488   5.819  0.0110  0.4875  0.0093
  331MOL0     H44618   8.768   6.223   6.094  1.8712 -1.3408 -0.3567
  331MOL0     H44619   8.833   6.099   6.269  1.5169 -0.0534 -3.5491
  331MOL0     H44620   9.100   6.283   6.591  1.0258  0.0301  1.6208
  331MOL0     H44621   8.929   6.298   6.655  0.8026  0.0599 -0.3609
  331MOL0     H44622   8.948   6.086   6.773 -1.9022 -1.8155 -4.2849
  331MOL0     H44623   9.088   6.177   6.801 -0.4758  1.0119 -0.0812
  331MOL0     H44624   9.190   6.056   6.614 -0.9017  1.3357 -0.9194
  331MOL0     H44625   9.050   5.949   6.602  0.1723 -0.1692  0.9799
  331MOL0     H44626   9.251   5.967   6.836  0.7186 -0.8465 -2.0079
  331MOL0     H44627   9.081   5.927   6.855  0.6353  0.4296  2.8613
  331MOL0     H44628   9.219   5.771   6.636 -0.3514  0.3325 -0.1088
  331MOL0     H44629   9.294   5.732   6.784 -0.4805  1.2856  0.4180
  331MOL0     H44630   9.105   5.658   6.891  3.1574  1.6136  0.0237
  331MOL0     H44631   8.988   5.727   6.777  0.6659  0.6989  1.9806
  331MOL0     H44632   9.207   5.514   6.727 -1.8466 -3.3451 -0.8759
  331MOL0     H44633   9.079   5.558   6.618  2.7195 -0.0007 -1.3986
  331MOL0     H44634   9.026   5.443   6.894  3.4663  1.1231  0.0187
  331MOL0     H44635   8.903   5.503   6.787 -0.9491 -0.1979  1.9622
  331MOL0     H44636   9.093   5.187   6.880 -0.9182  1.3147 -0.4815
  331MOL0     H44637   9.133   4.952   6.597  1.2907  1.6624 -0.0963
  331MOL0     H44638   9.176   4.946   6.760 -0.8634  1.7072  0.5841
  331MOL0     H44639   8.904   4.862   6.643 -0.1885  0.5417 -0.4257
  331MOL0     H44640   9.028   4.760   6.718  0.0478 -1.1145  0.8952
  331MOL0     H44641   8.872   4.975   6.874  0.2056  0.0396  2.2638
  331MOL0     H44642   9.002   4.900   6.938 -1.9950  2.1185  1.0735
  331MOL0     H44643   8.856   4.671   6.870  0.1688 -1.9554  4.7777
  331MOL0     H44644   8.731   4.798   6.896  0.1560 -1.3652  1.3018
  331MOL0     H44645   8.993   4.522   7.064 -0.6459  1.3959  0.0583
  331MOL0     H44646   8.886   4.304   7.147 -1.1690  0.8488  0.4162
  331MOL0     H44647   8.618   4.127   7.462 -2.1186  0.5934 -1.3894
  331MOL0     H44648   8.634   3.902   7.596  0.5713  0.2038 -0.9170
  331MOL0     H44649   8.802   3.723   7.653  0.1082  0.6395 -0.7834
  331MOL0     H44650   8.620   3.701   7.660 -1.1031 -1.4198 -3.2351
  331MOL0     H44651   8.665   3.465   7.632  0.2888 -1.0578 -0.6336
  331MOL0     H44652   8.834   3.496   7.617  0.2457  2.3404 -0.8844
  331MOL0     H44653   8.801   3.625   7.858 -2.1391 -0.2876  0.4420
  331MOL0     H44654   8.671   3.499   7.870 -0.0578 -0.4811 -2.0048
  331MOL0     H44655   8.971   3.436   7.874  0.4472 -0.9629 -0.4014
  331MOL0     H44656   8.852   3.329   7.814  1.0120 -2.3145  2.6084
  331MOL0     H44657   8.917   3.300   8.057 -0.9295 -0.0432  1.9689
  331MOL0     H44658   8.740   3.317   8.032 -1.0554  0.0552 -1.2561
  331MOL0     H44659   8.922   3.548   8.120  0.4350 -1.5358  0.9650
  331MOL0     H44660   8.747   3.538   8.107 -0.7557 -0.2494  0.4979
  331MOL0     H44661   8.851   3.515   8.343  1.3918  2.0115 -2.5468
  331MOL0     H44662   8.920   3.369   8.284 -0.9903 -2.7437 -1.0903
  331MOL0     H44663   8.620   3.399   8.259 -1.6478  0.6166  2.2817
  331MOL0     H44664   8.728   3.252   8.270 -0.4201 -0.2175  0.2329
  331MOL0     H44665   8.771   3.708   7.234 -0.4215 -1.3336  1.3866
  331MOL0     H44666   8.769   3.927   7.117 -0.4706  3.5684  0.2100
  331MOL0     H44667   8.516   4.502   7.216 -0.9945 -1.1959 -3.4342
  331MOL0     H44668   8.628   4.716   7.158  4.7253  1.2751  2.3121
  331MOL0     H44669   8.990   6.446   6.465 -0.9012 -1.4564  2.2353
  331MOL0     H44670   8.924   6.577   6.285 -1.6441  1.2435 -6.9695
  331MOL0     H44671   8.722   6.471   5.814 -0.0937 -3.7325 -0.5472
  331MOL0     H44672   8.719   6.515   5.574 -1.5896  0.3969  2.3879
  331MOL0     H44673   9.083   6.599   5.293  0.1327  1.2708 -0.1859
  331MOL0     H44674   9.092   6.718   5.420 -1.1717 -0.6210  1.5182
  331MOL0     H44675   8.868   6.722   5.220 -0.0367  2.3997 -1.1379
  331MOL0     H44676   9.026   6.794   5.186 -1.9197  3.3473 -0.1389
  331MOL0     H44677   9.018   6.913   5.401 -0.4618 -2.4317  1.8232
  331MOL0     H44678   8.843   6.881   5.413 -1.7150  1.7223 -2.3512
  331MOL0     H44679   8.945   7.000   5.159 -1.9231 -1.9010 -0.8462
  331MOL0     H44680   8.781   6.973   5.197  0.2693  1.7763 -2.8687
  331MOL0     H44681   8.872   7.319   5.423  1.1057  0.9060 -0.1830
  331MOL0     H44682   9.148   6.566   5.568  1.1282 -0.4872  0.9993
  331MOL0     H44683   9.198   6.544   5.913 -1.0957 -2.1775  1.7247
  331MOL0     H44684   9.224   6.384   5.842 -0.5787  0.1563 -0.8109
  331MOL0     H44685   9.279   6.520   5.752  0.4242 -1.5059 -0.5315
  332MOL0     O44686   1.696   8.118   9.664  0.0745  0.0319  0.8343
  332MOL0     C44687   1.814   8.128   9.682 -0.5148 -0.5958  0.3773
  332MOL0     O44688   1.878   8.135   9.812 -0.9079 -0.4133 -0.0613
  332MOL0     C44689   1.801   8.176   9.920  0.0642  0.4725  0.2521
  332MOL0     C44690   1.848   8.120  10.046 -0.1570 -0.6280 -0.7794
  332MOL0     C44691   1.796   8.152  10.174  0.0320 -0.1526 -0.2246
  332MOL0     C44692   1.696   8.251  10.181  0.4233 -0.4204  1.8453
  332MOL0     O44693   1.632   8.294  10.294  0.3754 -0.5642 -0.2579
  332MOL0     C44694   1.701   8.311  10.428  0.2401 -0.4321  0.1827
  332MOL0     C44695   1.592   8.290  10.532 -0.1930 -0.0115 -0.0298
  332MOL0     C44696   1.638   8.301  10.666 -0.1165  0.1195  0.2530
  332MOL0     C44697   1.532   8.236  10.765 -0.5597 -0.2721  0.1728
  332MOL0     C44698   1.577   8.261  10.912 -0.1623 -0.8144  0.1311
  332MOL0     C44699   1.472   8.225  11.021 -0.0956  0.3715  1.0091
  332MOL0     C44700   1.414   8.086  11.001 -0.2429 -0.0397  0.8208
  332MOL0     C44701   1.509   7.983  11.042 -0.6618  0.3628 -0.2963
  332MOL0     N44702   1.476   7.863  10.977  0.3632 -0.4247  0.4112
  332MOL0     C44703   1.357   7.794  10.984  1.1167  0.0918  0.1180
  332MOL0     C44704   1.376   7.672  10.932 -1.7141 -1.1283  0.4848
  332MOL0     C44705   1.287   7.558  10.935  0.4971 -0.1638  0.5375
  332MOL0     C44706   1.142   7.598  10.878 -0.1098  0.0481 -0.9871
  332MOL0     C44707   1.140   7.685  10.752 -0.4469  0.0105  0.2529
  332MOL0     C44708   1.000   7.682  10.691 -0.1421  0.3668  0.2391
  332MOL0     O44709   0.904   7.723  10.781  0.3209  0.4250 -0.7630
  332MOL0     C44710   0.909   7.841  10.835  0.2080 -0.1593 -0.3058
  332MOL0     C44711   0.906   7.847  10.978 -0.3947 -1.1935 -0.7815
  332MOL0     C44712   0.915   7.977  11.033 -0.2526 -0.1810  0.1461
  332MOL0     C44713   0.938   8.097  10.954  1.0918  0.4990  0.4257
  332MOL0     C44714   0.972   8.226  11.019  0.3243 -0.0126  1.5131
  332MOL0     O44715   1.024   8.316  10.939  0.1436  0.0386 -0.1298
  332MOL0     C44716   1.060   8.446  10.975  0.7018 -0.0697 -0.0061
  332MOL0     C44717   1.017   8.545  10.892 -0.3866 -0.4233  0.1615
  332MOL0     C44718   1.044   8.677  10.913  0.1433 -0.6964 -0.1492
  332MOL0     C44719   1.130   8.708  11.024  0.5947 -0.3564  0.2791
  332MOL0     O44720   1.165   8.835  11.067  0.8276  0.1800 -0.0666
  332MOL0     C44721   1.068   8.937  11.018 -0.6460  0.0086  0.3450
  332MOL0     C44722   1.087   9.081  11.088 -0.3725 -0.6208  0.8183
  332MOL0     C44723   1.238   9.124  11.058  0.4236  0.3938 -0.0847
  332MOL0     C44724   1.239   9.281  11.041 -0.0229  0.1782  0.2130
  332MOL0     C44725   1.378   9.337  11.012 -0.4035  0.1057  0.2694
  332MOL0     C44726   1.437   9.292  10.881  0.4513 -0.5175  0.2123
  332MOL0     C44727   1.571   9.360  10.841 -0.3385 -0.3217 -0.0816
  332MOL0     C44728   1.635   9.334  10.706 -0.0624  0.1177  0.5564
  332MOL0    Cl44729   1.531   9.353  10.572  0.2428 -0.6370 -0.5587
  332MOL0     C44730   1.181   8.612  11.111 -0.1363 -0.0515 -0.4049
  332MOL0     C44731   1.140   8.477  11.085  0.3036 -0.5475  0.8193
  332MOL0     O44732   0.947   8.244  11.139  0.8011 -0.9922  0.1810
  332MOL0     C44733   0.928   8.078  10.816 -0.0786 -1.2406  1.0846
  332MOL0     C44734   0.924   7.951  10.763  0.9476 -0.3340  0.4106
  332MOL0     N44735   1.510   7.668  10.890 -0.3360  0.6449  0.2175
  332MOL0     N44736   1.571   7.788  10.919  0.9899 -0.4786 -0.1472
  332MOL0     C44737   1.646   8.301  10.058  0.1179 -0.0930 -0.2309
  332MOL0     C44738   1.695   8.267   9.932 -0.9638  0.2329  0.6532
  332MOL0     C44739   1.903   8.143   9.563 -0.0681 -0.5906  0.9758
  332MOL0     C44740   2.024   8.205   9.588  0.1488  0.6545 -0.2141
  332MOL0     C44741   2.126   8.195   9.489  0.3198  0.1124 -0.2065
  332MOL0     C44742   2.104   8.140   9.359 -0.8496 -0.5749 -1.0157
  332MOL0     O44743   2.212   8.150   9.279  0.2140  1.0984 -0.0176
  332MOL0     C44744   2.204   8.060   9.170 -0.2118  0.0987  0.3525
  332MOL0     C44745   2.330   8.046   9.092 -0.4526 -0.3239  0.2312
  332MOL0     C44746   2.451   7.989   9.171 -0.1254 -1.0897 -0.3442
  332MOL0     C44747   2.584   8.002   9.088  0.7183 -1.0894 -1.1009
  332MOL0     C44748   2.693   7.993   9.178 -0.4488  0.6711 -0.3839
  332MOL0     C44749   2.787   7.984   9.259  0.2856  0.7346 -1.0018
  332MOL0     C44750   1.970   8.107   9.333 -0.6974  0.6346 -0.0034
  332MOL0     C44751   1.873   8.092   9.435 -0.0302 -0.6056  0.7018
  332MOL0     C44752   1.739   8.023   9.391 -0.3877  0.3624  0.2579
  332MOL0     H44753   1.937   8.058  10.054 -1.0512 -1.6861  2.7102
  332MOL0     H44754   1.845   8.105  10.259 -1.1505 -0.3119  0.3868
  332MOL0     H44755   1.798   8.261  10.434  3.1563  4.4208 -0.9385
  332MOL0     H44756   1.722   8.418  10.422 -1.2154 -0.1414 -0.2254
  332MOL0     H44757   1.542   8.193  10.527 -0.8913  0.4062 -1.5769
  332MOL0     H44758   1.506   8.354  10.507 -1.8240 -2.0430  0.0911
  332MOL0     H44759   1.666   8.406  10.680 -1.2872  0.3859  0.6856
  332MOL0     H44760   1.735   8.251  10.670  1.7673  3.3866 -0.7175
  332MOL0     H44761   1.444   8.302  10.764 -0.0999  0.3813 -1.8661
  332MOL0     H44762   1.504   8.134  10.735 -1.2638  0.2910 -1.1885
  332MOL0     H44763   1.668   8.207  10.941 -0.3374 -0.5485  1.2399
  332MOL0     H44764   1.606   8.366  10.908  0.3045 -0.9354  0.2187
  332MOL0     H44765   1.515   8.241  11.120  0.9314  1.1286  0.4555
  332MOL0     H44766   1.397   8.303  11.006  0.6217  1.2001  1.6352
  332MOL0     H44767   1.379   8.076  10.898  2.4537  3.6311 -0.6888
  332MOL0     H44768   1.324   8.066  11.059 -0.7424 -2.7785 -0.7527
  332MOL0     H44769   1.610   8.005  11.005 -1.1179 -0.1708 -1.9607
  332MOL0     H44770   1.501   7.972  11.150  0.3500 -2.4802 -0.4320
  332MOL0     H44771   1.275   7.844  11.035  0.3969 -0.7525 -0.1917
  332MOL0     H44772   1.316   7.486  10.858 -3.1876 -2.0446  0.6462
  332MOL0     H44773   1.291   7.502  11.029  0.0513  0.0829  0.7063
  332MOL0     H44774   1.089   7.503  10.864  0.7678 -0.6996  0.4385
  332MOL0     H44775   1.095   7.644  10.966  0.8975 -1.1095  0.1981
  332MOL0     H44776   1.215   7.637  10.689  2.5766  1.1130  2.7263
  332MOL0     H44777   1.171   7.786  10.780  0.0592  0.2329 -1.0142
  332MOL0     H44778   1.000   7.575  10.666  1.6428  0.5479 -0.7165
  332MOL0     H44779   0.985   7.737  10.598  0.4155  3.8542  2.0412
  332MOL0     H44780   0.884   7.767  11.048  1.4340  0.0975  1.3963
  332MOL0     H44781   0.903   7.990  11.141 -0.0082  1.9047 -0.0271
  332MOL0     H44782   0.955   8.523  10.806  2.0028 -2.5413 -1.1568
  332MOL0     H44783   0.994   8.746  10.846 -3.3269 -0.9963  1.8606
  332MOL0     H44784   1.078   8.968  10.913 -2.7041  2.3575  0.7555
  332MOL0     H44785   0.966   8.901  11.030  0.0351 -1.3115  2.9428
  332MOL0     H44786   1.025   9.168  11.063  2.4374  1.4417  0.5735
  332MOL0     H44787   1.085   9.077  11.197  0.5985 -1.2409  0.8231
  332MOL0     H44788   1.294   9.103  11.149 -1.3296 -1.1598  0.7026
  332MOL0     H44789   1.286   9.062  10.982  2.3628  1.7084 -0.0068
  332MOL0     H44790   1.213   9.335  11.133 -1.7957 -0.0952 -0.1063
  332MOL0     H44791   1.171   9.310  10.960 -0.8301 -1.4963  0.2541
  332MOL0     H44792   1.447   9.304  11.091 -1.9966 -0.7946  1.3359
  332MOL0     H44793   1.363   9.445  11.002  0.3782  0.0572 -1.9551
  332MOL0     H44794   1.437   9.183  10.884 -1.6169 -0.6006 -0.9298
  332MOL0     H44795   1.372   9.328  10.801  0.4547 -0.9122  0.0315
  332MOL0     H44796   1.642   9.333  10.920  2.6789 -0.8563 -2.7460
  332MOL0     H44797   1.562   9.469  10.828  2.1205 -0.3630 -3.4254
  332MOL0     H44798   1.725   9.393  10.690  0.0549 -0.2411 -0.1133
  332MOL0     H44799   1.671   9.232  10.720  1.4055  0.7155  1.3436
  332MOL0     H44800   1.230   8.637  11.204 -1.2867 -0.4020  0.3119
  332MOL0     H44801   1.175   8.411  11.164  3.4757  0.8671  0.7583
  332MOL0     H44802   0.932   8.165  10.752  0.5448 -0.4305  2.1939
  332MOL0     H44803   0.913   7.930  10.657 -0.6241  1.0184  0.2733
  332MOL0     H44804   1.575   8.382  10.072  0.5241  0.1083  0.8042
  332MOL0     H44805   1.655   8.325   9.849 -0.8511 -0.3142  0.2166
  332MOL0     H44806   2.051   8.231   9.690 -0.9829 -1.4638  0.6804
  332MOL0     H44807   2.226   8.232   9.509  1.8984 -2.7384 -1.9903
  332MOL0     H44808   2.126   8.091   9.101  0.1140 -0.4421 -0.2614
  332MOL0     H44809   2.173   7.962   9.206  1.8715 -0.4786  0.7160
  332MOL0     H44810   2.362   8.143   9.053 -0.7050 -0.2585  0.1853
  332MOL0     H44811   2.299   7.985   9.006 -1.2163  0.9897 -0.4529
  332MOL0     H44812   2.438   7.883   9.198  0.2760 -0.9245  0.5364
  332MOL0     H44813   2.449   8.051   9.261 -4.2493 -1.2724 -0.1148
  332MOL0     H44814   2.593   7.929   9.007  3.0002 -0.7666 -1.2222
  332MOL0     H44815   2.598   8.103   9.050  0.0394 -0.3943  0.4137
  332MOL0     H44816   2.863   7.965   9.332  0.2176  1.6896 -0.6575
  332MOL0     H44817   1.948   8.073   9.233  1.5913 -1.0171 -0.0338
  332MOL0     H44818   1.690   7.982   9.480  0.7508  1.0644  1.2420
  332MOL0     H44819   1.674   8.092   9.337 -0.1033 -0.9355 -1.8733
  332MOL0     H44820   1.766   7.935   9.332  0.3528 -1.8403  3.6233
  333MOL0     O44821   2.578   3.411  11.267  0.6679 -0.8190  0.4261
  333MOL0     C44822   2.487   3.323  11.247 -0.0817  0.9672 -0.4993
  333MOL0     O44823   2.513   3.202  11.179  0.5278 -1.0998 -0.5446
  333MOL0     C44824   2.647   3.168  11.165 -0.0171 -0.0178  0.1790
  333MOL0     C44825   2.709   3.092  11.269 -0.0783 -0.3174  0.4923
  333MOL0     C44826   2.848   3.078  11.259 -0.0740 -0.0221  0.1971
  333MOL0     C44827   2.925   3.143  11.158 -0.4857 -0.1577  0.9020
  333MOL0     O44828   3.064   3.126  11.163 -0.5580 -0.2112  0.0518
  333MOL0     C44829   3.144   3.209  11.090 -0.6618  0.3366  0.1445
  333MOL0     C44830   3.273   3.164  11.141 -0.9804  0.5556  0.5725
  333MOL0     C44831   3.394   3.236  11.073 -0.0433 -0.5588 -0.0608
  333MOL0     C44832   3.542   3.213  11.126  0.4064  0.9512  1.1960
  333MOL0     C44833   3.642   3.309  11.073 -0.2710  0.6427  0.0783
  333MOL0     C44834   3.764   3.291  11.162 -0.6141 -0.2211 -0.7823
  333MOL0     C44835   3.882   3.378  11.112  0.3269  0.3136  0.4151
  333MOL0     C44836   4.025   3.333  11.144  0.1576  1.4086 -0.7243
  333MOL0     N44837   4.094   3.247  11.048 -0.4224 -0.0081  0.3498
  333MOL0     C44838   4.124   3.285  10.922  0.7026 -0.1239  0.1159
  333MOL0     C44839   4.208   3.189  10.868  0.2199  0.5949  0.7698
  333MOL0     C44840   4.290   3.182  10.744 -0.0779 -0.0354 -0.2093
  333MOL0     C44841   4.440   3.193  10.784 -0.7714 -0.2296  0.9574
  333MOL0     C44842   4.528   3.247  10.668  0.5867 -0.2460  0.2539
  333MOL0     C44843   4.471   3.339  10.555 -0.2702  0.6459 -0.2200
  333MOL0     O44844   4.572   3.342  10.454  0.0504 -0.7605  0.7619
  333MOL0     C44845   4.554   3.452  10.373  0.0431  0.2926 -0.4165
  333MOL0     C44846   4.665   3.536  10.343 -0.0615  0.2333  0.3519
  333MOL0     C44847   4.658   3.634  10.245 -0.4822  0.3722 -0.7259
  333MOL0     C44848   4.538   3.654  10.175  0.3487  0.2685 -1.2693
  333MOL0     C44849   4.535   3.760  10.066  0.0036 -0.6427  0.2228
  333MOL0     O44850   4.409   3.793  10.016 -0.4034 -0.3067  0.0070
  333MOL0     C44851   4.401   3.909   9.945  0.1992 -0.9449  0.1524
  333MOL0     C44852   4.392   4.019  10.033 -0.3264  0.2300  0.0419
  333MOL0     C44853   4.358   4.144   9.980 -0.9691  0.6928 -0.3866
  333MOL0     C44854   4.334   4.161   9.841  0.1424 -0.5574 -0.8650
  333MOL0     O44855   4.298   4.283   9.796  0.0043 -0.6636 -0.2118
  333MOL0     C44856   4.258   4.314   9.665 -0.6341 -0.4193  0.1691
  333MOL0     C44857   4.186   4.444   9.653 -0.4873 -1.0770 -0.3330
  333MOL0     C44858   4.097   4.466   9.531  0.7263  0.2214 -0.0771
  333MOL0     C44859   4.157   4.432   9.397  0.0075  0.2462 -0.5326
  333MOL0     C44860   4.266   4.535   9.367 -0.4652 -1.2584 -0.4886
  333MOL0     C44861   4.416   4.510   9.399 -0.2700  0.3968 -0.1739
  333MOL0     C44862   4.503   4.638   9.387  0.7037  0.3280 -0.1954
  333MOL0     C44863   4.645   4.623   9.446  0.1354  0.2831  0.6662
  333MOL0    Cl44864   4.747   4.757   9.389  0.5944  0.9400 -0.1869
  333MOL0     C44865   4.343   4.045   9.758  0.3876 -0.1829 -0.1228
  333MOL0     C44866   4.378   3.922   9.808 -0.9803  0.2218  0.3690
  333MOL0     O44867   4.637   3.809  10.022  0.1443 -0.1395  0.3829
  333MOL0     C44868   4.419   3.590  10.219  0.0687  0.1498 -0.0842
  333MOL0     C44869   4.429   3.490  10.322  0.3300  0.7350 -0.5838
  333MOL0     N44870   4.207   3.088  10.961  0.1549  0.9504 -0.1310
  333MOL0     N44871   4.143   3.122  11.067 -0.5877  0.4387 -0.5927
  333MOL0     C44872   2.862   3.215  11.058  0.6665 -0.2585 -0.6914
  333MOL0     C44873   2.722   3.217  11.061 -0.1099  0.5977  0.4169
  333MOL0     C44874   2.355   3.345  11.319  1.8085  0.3944 -0.2556
  333MOL0     C44875   2.324   3.484  11.338 -0.1326  0.0688  0.2480
  333MOL0     C44876   2.200   3.519  11.386  0.6831  0.0480  0.3967
  333MOL0     C44877   2.111   3.426  11.436  0.1573 -0.0098 -0.4658
  333MOL0     O44878   1.990   3.470  11.485 -0.2185 -0.6332 -0.3636
  333MOL0     C44879   1.979   3.477  11.625  0.2034 -0.8570 -0.0072
  333MOL0     C44880   1.899   3.365  11.682  0.3386 -1.0104 -0.6189
  333MOL0     C44881   1.747   3.372  11.629 -0.1502  0.3060 -0.5873
  333MOL0     C44882   1.672   3.260  11.716 -0.4494 -0.3752 -0.0292
  333MOL0     C44883   1.689   3.132  11.645  0.3577 -0.0256 -0.1479
  333MOL0     C44884   1.695   3.027  11.591  0.2477 -0.3169 -0.2577
  333MOL0     C44885   2.146   3.293  11.437  0.2813  0.9793  0.1500
  333MOL0     C44886   2.263   3.240  11.376 -0.8839  0.9694 -0.7873
  333MOL0     C44887   2.295   3.096  11.363 -0.0230  0.6128  0.4232
  333MOL0     H44888   2.654   3.066  11.359 -0.7429  3.3372  1.2789
  333MOL0     H44889   2.887   3.016  11.338 -2.6299 -0.6919  1.0249
  333MOL0     H44890   3.132   3.201  10.981  0.2707 -2.1024  0.1515
  333MOL0     H44891   3.134   3.318  11.096  0.3961  0.5067 -0.7954
  333MOL0     H44892   3.273   3.055  11.129  2.0427  0.5207  0.1066
  333MOL0     H44893   3.278   3.182  11.249  4.4753  3.2868  0.2008
  333MOL0     H44894   3.380   3.344  11.074  3.4059  0.0315  2.1991
  333MOL0     H44895   3.385   3.206  10.968 -0.5140  1.4524 -0.6303
  333MOL0     H44896   3.539   3.225  11.234  2.4562  3.3862  1.0814
  333MOL0     H44897   3.584   3.114  11.107  0.9528  0.4415  4.4780
  333MOL0     H44898   3.667   3.303  10.967 -0.6034  2.9235 -0.1827
  333MOL0     H44899   3.606   3.412  11.080  0.7142  1.1000 -1.1855
  333MOL0     H44900   3.736   3.317  11.264  0.9648  2.0492 -0.8512
  333MOL0     H44901   3.803   3.189  11.158 -2.6870 -1.0372 -2.4985
  333MOL0     H44902   3.875   3.475  11.162  2.7510  0.8826 -0.2309
  333MOL0     H44903   3.872   3.388  11.004 -1.0701  0.0649  0.5087
  333MOL0     H44904   4.092   3.414  11.172  0.3589  0.8759  0.3776
  333MOL0     H44905   4.017   3.284  11.241 -0.7002 -0.2371 -1.5762
  333MOL0     H44906   4.106   3.383  10.879  0.0206  0.1767  1.0466
  333MOL0     H44907   4.266   3.085  10.701  0.1809 -2.0810  3.8183
  333MOL0     H44908   4.258   3.271  10.687 -0.7847 -0.5287 -0.5941
  333MOL0     H44909   4.439   3.266  10.866 -1.9276 -1.7213  2.3235
  333MOL0     H44910   4.478   3.100  10.826  0.1002 -1.1544 -1.7074
  333MOL0     H44911   4.576   3.161  10.620  2.8713  0.0618  1.8215
  333MOL0     H44912   4.605   3.307  10.717  1.5112  2.3335 -3.8242
  333MOL0     H44913   4.438   3.430  10.607  0.5891 -0.1961  1.9060
  333MOL0     H44914   4.394   3.286  10.498 -0.5247  3.4789 -2.7635
  333MOL0     H44915   4.752   3.519  10.405 -2.4489  2.6582  4.9045
  333MOL0     H44916   4.748   3.687  10.215 -0.1911  0.5617  0.4517
  333MOL0     H44917   4.412   3.999  10.138  0.5320  0.5802 -0.0468
  333MOL0     H44918   4.354   4.232  10.043 -4.2120  1.4539 -1.4444
  333MOL0     H44919   4.344   4.315   9.599 -0.0901 -0.4190  0.8692
  333MOL0     H44920   4.183   4.239   9.637 -2.4806 -0.6261  4.7683
  333MOL0     H44921   4.118   4.450   9.739 -2.1495  0.8397 -1.7059
  333MOL0     H44922   4.256   4.528   9.655 -0.8246 -0.7989 -0.0259
  333MOL0     H44923   4.005   4.410   9.546  0.8595  0.6941  3.3832
  333MOL0     H44924   4.068   4.571   9.534  2.6023  0.7594  1.2124
  333MOL0     H44925   4.069   4.438   9.332 -0.7149 -0.2265  0.3674
  333MOL0     H44926   4.188   4.328   9.389 -1.4895 -0.9671  4.8663
  333MOL0     H44927   4.242   4.633   9.409 -0.7789  0.1685 -3.7255
  333MOL0     H44928   4.267   4.557   9.260  3.1044  0.6613 -0.2027
  333MOL0     H44929   4.418   4.487   9.506 -1.5144 -0.7292 -0.3560
  333MOL0     H44930   4.462   4.424   9.350 -1.0016  0.6312 -1.3048
  333MOL0     H44931   4.455   4.714   9.449 -2.2469  0.1959 -2.0777
  333MOL0     H44932   4.497   4.667   9.281  1.1181  0.5125 -0.1708
  333MOL0     H44933   4.637   4.621   9.555 -1.1464  0.3973  0.5879
  333MOL0     H44934   4.695   4.531   9.413  1.8669  0.3389  2.9231
  333MOL0     H44935   4.352   4.066   9.652 -0.8351  0.6228 -0.0741
  333MOL0     H44936   4.397   3.834   9.748 -0.4893  0.3716  0.3029
  333MOL0     H44937   4.319   3.603  10.179 -0.3840 -1.0771  0.5727
  333MOL0     H44938   4.336   3.444  10.353  1.9294 -2.2756  0.0484
  333MOL0     H44939   2.921   3.271  10.987  2.4788 -0.8369  0.2758
  333MOL0     H44940   2.694   3.279  10.976 -0.2341 -0.0179  0.0055
  333MOL0     H44941   2.400   3.556  11.309 -0.2929 -0.5543 -1.8610
  333MOL0     H44942   2.160   3.617  11.409 -1.8014 -1.2100  1.9111
  333MOL0     H44943   1.932   3.570  11.657  1.1617 -0.1965 -0.4483
  333MOL0     H44944   2.079   3.472  11.669  0.0869  1.1531  0.5781
  333MOL0     H44945   1.890   3.385  11.789 -3.9411 -2.2385 -0.5554
  333MOL0     H44946   1.949   3.269  11.668 -0.3756 -1.8985  2.2961
  333MOL0     H44947   1.734   3.351  11.523 -1.0534 -0.8580 -0.2642
  333MOL0     H44948   1.699   3.463  11.667 -0.7007 -1.0622  2.3190
  333MOL0     H44949   1.709   3.267  11.819 -1.9651  1.7070  0.4343
  333MOL0     H44950   1.565   3.278  11.705 -0.4978  0.2941  1.3007
  333MOL0     H44951   1.696   2.928  11.551  1.0936  0.3173 -1.8924
  333MOL0     H44952   2.082   3.221  11.486  0.0568  2.5479  2.3169
  333MOL0     H44953   2.206   3.034  11.381  0.7980 -2.4387 -4.3489
  333MOL0     H44954   2.325   3.073  11.261  0.0009 -2.2550  0.9907
  333MOL0     H44955   2.379   3.073  11.429 -0.5805 -0.9990  0.6172
  334MOL0     O44956   5.318   8.371   8.819  0.4394  0.3330 -0.5772
  334MOL0     C44957   5.203   8.402   8.832 -0.7516  0.8637  1.0474
  334MOL0     O44958   5.099   8.349   8.752 -0.1299  0.3504 -0.7182
  334MOL0     C44959   5.132   8.285   8.631  0.9892 -0.1648  1.1058
  334MOL0     C44960   5.193   8.364   8.524 -1.0584 -0.6327 -0.5042
  334MOL0     C44961   5.235   8.301   8.408  0.2037  0.3308 -0.1456
  334MOL0     C44962   5.178   8.175   8.379 -0.7628 -0.0996  0.2064
  334MOL0     O44963   5.222   8.117   8.264  0.1878  0.0249 -0.1455
  334MOL0     C44964   5.145   8.013   8.214  0.5827 -0.0680  0.3648
  334MOL0     C44965   5.172   7.976   8.064  0.9745 -0.6752 -0.2767
  334MOL0     C44966   5.157   8.099   7.966 -0.6443  0.4418  0.2415
  334MOL0     C44967   5.288   8.133   7.884  0.1389  0.5267  0.3114
  334MOL0     C44968   5.259   8.253   7.791 -0.0597  1.0528 -0.2988
  334MOL0     C44969   5.378   8.361   7.818  0.6533 -0.0511 -0.3924
  334MOL0     C44970   5.396   8.463   7.708 -0.1897 -0.5953  0.1766
  334MOL0     C44971   5.275   8.556   7.700 -0.6974  0.5196  0.8452
  334MOL0     N44972   5.304   8.683   7.635 -0.0079 -0.0915 -0.7067
  334MOL0     C44973   5.354   8.795   7.697 -0.1918 -0.9098  0.4195
  334MOL0     C44974   5.360   8.888   7.601 -0.4402 -0.2456 -0.1913
  334MOL0     C44975   5.399   9.028   7.626  1.1047 -0.9952  0.2676
  334MOL0     C44976   5.304   9.086   7.737  0.2641  0.2051 -0.0951
  334MOL0     C44977   5.147   9.079   7.721 -0.0452 -0.2256 -0.2224
  334MOL0     C44978   5.082   9.124   7.590 -0.3431 -0.4856 -0.0632
  334MOL0     O44979   4.948   9.158   7.623 -0.3876  0.7081 -0.1281
  334MOL0     C44980   4.853   9.054   7.604 -0.0432  0.2474  0.0253
  334MOL0     C44981   4.875   8.915   7.598  0.3924 -0.1418  0.3363
  334MOL0     C44982   4.768   8.825   7.616 -1.0830 -0.4558  0.1538
  334MOL0     C44983   4.638   8.867   7.625 -0.1102  0.9493 -0.2413
  334MOL0     C44984   4.526   8.779   7.610 -0.0015  0.4045 -0.4964
  334MOL0     O44985   4.536   8.649   7.670  0.3434  0.6320  0.0475
  334MOL0     C44986   4.414   8.577   7.668 -0.3292  0.2315  0.5431
  334MOL0     C44987   4.413   8.445   7.636 -0.0408 -0.4242  0.5046
  334MOL0     C44988   4.288   8.379   7.635  0.2829  0.2271 -0.2109
  334MOL0     C44989   4.170   8.443   7.684 -0.2119 -0.3034  0.2237
  334MOL0     O44990   4.054   8.385   7.713  0.2080 -0.3522 -0.6290
  334MOL0     C44991   4.028   8.252   7.657  0.3548 -0.3569 -0.9743
  334MOL0     C44992   3.880   8.223   7.673 -0.3481 -0.3100 -0.3612
  334MOL0     C44993   3.851   8.073   7.622 -0.3108 -0.3110 -0.6912
  334MOL0     C44994   3.861   7.971   7.731  0.3251 -0.3970  0.1995
  334MOL0     C44995   3.838   7.840   7.652  0.1522 -0.6886  0.0021
  334MOL0     C44996   3.804   7.720   7.734  0.0039  0.9356 -0.0862
  334MOL0     C44997   3.765   7.608   7.635 -0.0156  0.3466 -0.5059
  334MOL0     C44998   3.869   7.531   7.541  0.4215  0.1771 -0.0495
  334MOL0    Cl44999   3.778   7.417   7.448 -0.0742  0.0257 -0.3213
  334MOL0     C45000   4.179   8.577   7.722  0.0775 -0.9106  0.7781
  334MOL0     C45001   4.297   8.647   7.710  0.5366  0.7209  0.0008
  334MOL0     O45002   4.426   8.832   7.563 -0.5447  0.9280 -0.2201
  334MOL0     C45003   4.613   9.007   7.627 -0.1653 -0.2550  0.6085
  334MOL0     C45004   4.720   9.098   7.620 -1.0335  0.9414 -0.3179
  334MOL0     N45005   5.299   8.838   7.487  0.0341  0.3017 -0.6849
  334MOL0     N45006   5.271   8.705   7.506  0.1299  0.2808 -1.3951
  334MOL0     C45007   5.097   8.105   8.471 -0.3700 -0.9091  0.0933
  334MOL0     C45008   5.076   8.158   8.603 -0.5805  0.4413  0.1829
  334MOL0     C45009   5.172   8.509   8.935  0.3932 -0.4352  0.5507
  334MOL0     C45010   5.093   8.610   8.893 -0.1744 -0.0535 -0.0031
  334MOL0     C45011   5.062   8.720   8.974 -0.6418  0.4628 -0.9159
  334MOL0     C45012   5.104   8.717   9.110  0.6121 -0.0584 -0.0226
  334MOL0     O45013   5.060   8.823   9.187  0.1215 -0.7820 -0.4074
  334MOL0     C45014   5.136   8.853   9.306  0.1664  0.1852 -0.6054
  334MOL0     C45015   5.088   8.980   9.370  0.2953  0.3682  0.4760
  334MOL0     C45016   5.161   9.036   9.494 -0.0110 -0.5270 -0.6566
  334MOL0     C45017   5.089   9.140   9.581 -0.3124 -0.5038 -0.7044
  334MOL0     C45018   5.193   9.209   9.662 -0.0841  0.7740  0.0999
  334MOL0     C45019   5.279   9.282   9.719 -0.0414 -0.8968  1.2582
  334MOL0     C45020   5.191   8.611   9.151  0.4127  0.0993 -0.1457
  334MOL0     C45021   5.215   8.501   9.066  0.2990  0.0547 -0.6598
  334MOL0     C45022   5.292   8.385   9.129  0.8239  0.2524  0.0237
  334MOL0     H45023   5.208   8.470   8.542 -2.0317 -0.6582  0.5726
  334MOL0     H45024   5.300   8.356   8.341  2.7705 -2.3005 -0.0613
  334MOL0     H45025   5.166   7.923   8.274  1.8473 -0.9703 -1.3442
  334MOL0     H45026   5.039   8.042   8.211  1.4070  3.2933 -3.3028
  334MOL0     H45027   5.100   7.911   8.013  0.5418 -0.8498  0.5333
  334MOL0     H45028   5.265   7.920   8.051 -0.0237 -2.5342  0.1652
  334MOL0     H45029   5.125   8.190   8.017 -0.0808 -0.3757  2.1440
  334MOL0     H45030   5.075   8.070   7.900 -0.9593 -3.1577  1.9596
  334MOL0     H45031   5.361   8.167   7.959  2.1791 -0.2526 -1.2188
  334MOL0     H45032   5.340   8.052   7.832  4.3601  2.2658  1.3331
  334MOL0     H45033   5.257   8.221   7.686  0.0899 -0.0631  0.0195
  334MOL0     H45034   5.161   8.299   7.806 -1.7346 -1.7522 -1.6295
  334MOL0     H45035   5.356   8.415   7.911  2.1737 -0.8207  0.4571
  334MOL0     H45036   5.469   8.303   7.834 -2.0132 -3.9106  2.7455
  334MOL0     H45037   5.417   8.422   7.609  1.3141 -1.2119  0.7155
  334MOL0     H45038   5.472   8.532   7.746 -3.0152  1.6768  2.1324
  334MOL0     H45039   5.195   8.505   7.646 -0.9557 -1.9048  3.2667
  334MOL0     H45040   5.228   8.573   7.798 -3.5794 -0.4986 -0.2590
  334MOL0     H45041   5.396   8.803   7.797  2.0475  4.7979 -0.5377
  334MOL0     H45042   5.503   9.040   7.660  1.1972  0.1855 -0.3880
  334MOL0     H45043   5.394   9.091   7.537 -2.7357 -1.7078 -0.1815
  334MOL0     H45044   5.324   9.022   7.823  0.1385 -0.0874 -0.2839
  334MOL0     H45045   5.323   9.192   7.756 -1.5998  0.8638 -1.5530
  334MOL0     H45046   5.110   9.134   7.808 -0.2379  0.4209 -0.7077
  334MOL0     H45047   5.123   8.973   7.722  0.1770 -0.3214 -1.7968
  334MOL0     H45048   5.087   9.044   7.515 -2.6167 -0.0024 -0.8094
  334MOL0     H45049   5.120   9.212   7.537 -2.2008  0.1656 -0.3900
  334MOL0     H45050   4.974   8.874   7.579 -0.1875 -1.1940 -0.5473
  334MOL0     H45051   4.804   8.723   7.611 -0.5348 -0.2121 -1.4561
  334MOL0     H45052   4.500   8.392   7.599 -2.4681 -1.5498 -4.4001
  334MOL0     H45053   4.289   8.276   7.602 -3.8612  0.4118 -1.4295
  334MOL0     H45054   4.057   8.230   7.554 -1.3337 -2.6850 -1.0410
  334MOL0     H45055   4.088   8.190   7.724  2.5541  1.3969 -1.1965
  334MOL0     H45056   3.838   8.241   7.772 -0.7253 -0.5630 -0.4734
  334MOL0     H45057   3.829   8.274   7.591  2.1919 -0.9344 -2.4628
  334MOL0     H45058   3.748   8.075   7.585 -0.4100 -2.8917 -0.7614
  334MOL0     H45059   3.910   8.044   7.534  2.1082 -1.0120  1.0493
  334MOL0     H45060   3.779   7.994   7.800  0.0863  0.2516 -0.2834
  334MOL0     H45061   3.957   7.981   7.782  0.8790  0.6192 -0.9944
  334MOL0     H45062   3.933   7.823   7.599  0.5372 -0.3341  0.5625
  334MOL0     H45063   3.754   7.851   7.584 -0.3311  1.0169  0.8018
  334MOL0     H45064   3.892   7.698   7.795 -1.6682  1.0440  2.5280
  334MOL0     H45065   3.731   7.745   7.812 -1.2022 -0.1783 -0.8149
  334MOL0     H45066   3.679   7.644   7.578  0.0415  3.1376  1.0027
  334MOL0     H45067   3.727   7.535   7.707 -0.2897  0.1844 -0.8080
  334MOL0     H45068   3.911   7.605   7.472  1.6206  0.5675  1.0523
  334MOL0     H45069   3.939   7.470   7.599  1.6462 -0.7577 -2.3791
  334MOL0     H45070   4.092   8.625   7.765 -0.4302  1.1786 -2.3036
  334MOL0     H45071   4.296   8.754   7.729 -1.4291  1.6581 -4.2829
  334MOL0     H45072   4.515   9.054   7.623 -0.2039 -0.3403  0.5305
  334MOL0     H45073   4.688   9.201   7.604 -1.4966  1.4478  3.1490
  334MOL0     H45074   5.062   8.003   8.459  1.4596 -1.3498 -2.0407
  334MOL0     H45075   5.009   8.110   8.674 -1.6715  1.8267  0.1213
  334MOL0     H45076   5.038   8.624   8.801 -1.6803 -0.1608  0.8352
  334MOL0     H45077   4.980   8.785   8.946 -1.9525 -1.0687 -0.8112
  334MOL0     H45078   5.244   8.855   9.286  0.5216 -1.9268  0.7845
  334MOL0     H45079   5.122   8.772   9.378  0.9991  1.8035  1.4937
  334MOL0     H45080   4.989   8.949   9.405  0.4258 -0.9084 -0.2070
  334MOL0     H45081   5.062   9.059   9.299 -1.5828 -0.5122  0.1109
  334MOL0     H45082   5.249   9.087   9.454 -1.3981  1.8978 -0.8250
  334MOL0     H45083   5.174   8.943   9.550 -1.8795 -1.6212 -1.9174
  334MOL0     H45084   5.025   9.201   9.516  1.3057  1.0883 -0.9080
  334MOL0     H45085   5.018   9.086   9.643  2.6468  1.5194  5.1409
  334MOL0     H45086   5.350   9.346   9.766  0.8866 -1.2218  0.3320
  334MOL0     H45087   5.237   8.607   9.249  1.9034  1.3316 -0.7541
  334MOL0     H45088   5.291   8.296   9.066  1.8902 -1.0541  1.7729
  334MOL0     H45089   5.396   8.406   9.156  0.0801  2.1751  1.7161
  334MOL0     H45090   5.234   8.350   9.215 -1.0530  2.7166 -0.1140
  335MOL0     O45091   5.977  10.476   1.594 -0.2063 -0.9992 -0.2699
  335MOL0     C45092   6.017  10.578   1.648 -0.5337 -0.0642  0.9814
  335MOL0     O45093   6.143  10.600   1.694 -0.6836  0.4956 -0.6539
  335MOL0     C45094   6.246  10.516   1.668  0.0363 -0.3615  0.2446
  335MOL0     C45095   6.246  10.383   1.716 -0.2805 -0.5648 -0.0839
  335MOL0     C45096   6.355  10.301   1.700  0.1891  0.3988 -0.0366
  335MOL0     C45097   6.467  10.335   1.626 -0.4575 -0.3767  0.3828
  335MOL0     O45098   6.565  10.246   1.591 -0.5335 -0.0555 -0.7588
  335MOL0     C45099   6.607  10.148   1.698  0.9115  0.0616  0.2821
  335MOL0     C45100   6.722  10.069   1.641  0.2427  0.3839  0.8256
  335MOL0     C45101   6.768   9.963   1.744  1.7932 -0.1688 -0.2933
  335MOL0     C45102   6.880  10.027   1.838  0.1329 -0.5797  0.1352
  335MOL0     C45103   6.967   9.931   1.917  0.7555  0.4687  0.0506
  335MOL0     C45104   6.890   9.849   2.016  0.5724 -0.3911 -0.6300
  335MOL0     C45105   6.976   9.749   2.094  0.7488  0.3725 -0.5402
  335MOL0     C45106   6.898   9.659   2.189  0.5852 -0.4919 -0.3785
  335MOL0     N45107   6.891   9.704   2.332 -0.3136  0.1366 -0.4089
  335MOL0     C45108   7.007   9.732   2.413  0.3928  0.1479 -1.3389
  335MOL0     C45109   6.952   9.800   2.515 -0.4823 -0.4696 -0.4963
  335MOL0     C45110   7.032   9.868   2.633  0.2793 -0.0695  0.4909
  335MOL0     C45111   7.168   9.934   2.586  0.7652 -0.1034  0.7420
  335MOL0     C45112   7.276   9.945   2.695  0.0554 -0.7211 -0.1054
  335MOL0     C45113   7.244  10.058   2.796  0.3657 -0.2788  0.0446
  335MOL0     O45114   7.223  10.186   2.736 -0.4882 -0.1223 -0.3401
  335MOL0     C45115   7.093  10.228   2.731  0.7742  0.4447  0.7311
  335MOL0     C45116   7.080  10.338   2.648  1.0493  0.1291  0.0472
  335MOL0     C45117   6.951  10.364   2.594 -0.1628 -0.5070 -0.1995
  335MOL0     C45118   6.832  10.298   2.634  0.9031 -0.5761 -0.0297
  335MOL0     C45119   6.702  10.337   2.593  0.0096 -0.0231  0.0719
  335MOL0     O45120   6.708  10.445   2.510 -0.1657 -0.2713 -0.3638
  335MOL0     C45121   6.617  10.544   2.510  0.7683  0.6549  0.6993
  335MOL0     C45122   6.582  10.609   2.636 -0.8802 -0.2626  0.0736
  335MOL0     C45123   6.498  10.713   2.640  0.3817  0.9533 -0.5140
  335MOL0     C45124   6.440  10.765   2.521 -1.3173  0.0512  0.3482
  335MOL0     O45125   6.352  10.864   2.551  0.0427 -0.3389 -0.2350
  335MOL0     C45126   6.250  10.899   2.452 -0.9720  0.2015 -0.3440
  335MOL0     C45127   6.316  10.993   2.350  0.7901  1.0533  0.2238
  335MOL0     C45128   6.368  11.124   2.411 -0.0401  0.2049 -0.0861
  335MOL0     C45129   6.252  11.214   2.455  0.0883 -0.6604 -1.5877
  335MOL0     C45130   6.283  11.361   2.501 -0.0053  0.6314 -0.0909
  335MOL0     C45131   6.385  11.443   2.428  1.6067  0.2928 -0.2829
  335MOL0     C45132   6.405  11.579   2.504  0.0524  0.1102  0.8490
  335MOL0     C45133   6.470  11.689   2.420 -0.7232 -0.0032 -0.0189
  335MOL0    Cl45134   6.449  11.855   2.479 -0.0610 -0.3551 -0.2910
  335MOL0     C45135   6.471  10.701   2.397  0.2705 -0.0392 -0.4833
  335MOL0     C45136   6.559  10.597   2.390 -0.6252 -0.1151  0.0463
  335MOL0     O45137   6.601  10.296   2.654  0.1007  0.7973 -0.1838
  335MOL0     C45138   6.846  10.203   2.732  0.1861 -0.0466  0.3682
  335MOL0     C45139   6.974  10.173   2.783  0.3533  0.0696  0.4876
  335MOL0     N45140   6.814   9.820   2.494 -0.0264 -0.3763  0.4020
  335MOL0     N45141   6.781   9.750   2.388 -0.0994  0.1428 -0.4741
  335MOL0     C45142   6.468  10.461   1.564 -0.4912 -0.3328 -0.6597
  335MOL0     C45143   6.357  10.558   1.583 -0.5257 -0.5929 -0.0266
  335MOL0     C45144   5.923  10.687   1.667  0.1196 -0.0873 -0.8634
  335MOL0     C45145   5.783  10.656   1.656  0.1211  1.1156  0.5942
  335MOL0     C45146   5.680  10.750   1.660  0.2704  1.1654 -0.2173
  335MOL0     C45147   5.708  10.883   1.675 -0.0422 -0.1481  0.5987
  335MOL0     O45148   5.596  10.965   1.668  0.6881  0.2383  0.6078
  335MOL0     C45149   5.612  11.103   1.658 -0.5927  0.1173  0.4932
  335MOL0     C45150   5.471  11.162   1.662  0.3169  0.7696 -0.2957
  335MOL0     C45151   5.467  11.312   1.606 -0.0150  0.0246 -0.6102
  335MOL0     C45152   5.542  11.329   1.466 -0.5413 -0.0406 -0.1592
  335MOL0     C45153   5.521  11.465   1.409  0.1372 -1.1497 -0.8262
  335MOL0     C45154   5.509  11.558   1.329 -0.2637  0.3586  0.7084
  335MOL0     C45155   5.843  10.919   1.685 -0.2299 -0.4247  0.1397
  335MOL0     C45156   5.948  10.830   1.672  0.3661  0.5140 -0.1429
  335MOL0     C45157   6.082  10.892   1.666  0.6595  0.3339  0.8684
  335MOL0     H45158   6.165  10.328   1.764  0.5818 -1.3089  0.5579
  335MOL0     H45159   6.331  10.200   1.734 -3.7886  1.4162  0.7039
  335MOL0     H45160   6.632  10.192   1.795  2.3775 -2.7155  1.2780
  335MOL0     H45161   6.524  10.079   1.713  0.5543  0.4010 -0.0909
  335MOL0     H45162   6.807  10.125   1.600  0.9234 -1.9071 -1.1592
  335MOL0     H45163   6.681  10.013   1.556  3.3619 -1.9509  0.6500
  335MOL0     H45164   6.793   9.870   1.692  1.9061 -1.8264  2.4893
  335MOL0     H45165   6.696   9.939   1.823  3.5100 -2.4825  0.6870
  335MOL0     H45166   6.940  10.090   1.772  1.0183  0.8757  2.2257
  335MOL0     H45167   6.821  10.092   1.903  3.5278  1.4018  1.4982
  335MOL0     H45168   7.030   9.874   1.849  0.8992  0.8569 -0.1493
  335MOL0     H45169   7.050   9.971   1.976  1.7473 -2.5251  0.8692
  335MOL0     H45170   6.853   9.923   2.088  2.2017  0.3357 -0.4871
  335MOL0     H45171   6.804   9.804   1.965 -0.2690 -0.3572  0.7168
  335MOL0     H45172   7.049   9.802   2.157 -2.2905 -1.6106  5.3149
  335MOL0     H45173   7.032   9.683   2.027  1.1111 -4.9702  4.2499
  335MOL0     H45174   6.792   9.665   2.164  0.5538  2.3556  0.0780
  335MOL0     H45175   6.924   9.554   2.177 -0.2531 -0.8959  1.0816
  335MOL0     H45176   7.109   9.705   2.386  0.1731 -1.0293 -1.0285
  335MOL0     H45177   6.968   9.953   2.656 -1.6356 -0.9613 -1.2298
  335MOL0     H45178   7.054   9.800   2.716 -1.8213 -1.8424 -0.3250
  335MOL0     H45179   7.201   9.886   2.494 -1.2539  2.4004 -1.4344
  335MOL0     H45180   7.137  10.034   2.555 -3.3294 -1.0308  1.1806
  335MOL0     H45181   7.369   9.962   2.641 -0.0300  1.9823  0.4500
  335MOL0     H45182   7.294   9.853   2.752  0.4800  1.4703  3.6144
  335MOL0     H45183   7.327  10.070   2.866  0.4907 -1.7183  0.1712
  335MOL0     H45184   7.158  10.027   2.857 -0.9637  0.0278 -1.5939
  335MOL0     H45185   7.166  10.387   2.603  0.1815 -1.2418 -3.4217
  335MOL0     H45186   6.943  10.450   2.528  3.5851  0.6520  0.6072
  335MOL0     H45187   6.616  10.566   2.730 -4.5662 -0.0022  1.6984
  335MOL0     H45188   6.464  10.750   2.736  0.3018 -2.3612  0.8509
  335MOL0     H45189   6.219  10.811   2.394  1.8520 -0.7442 -0.5848
  335MOL0     H45190   6.163  10.949   2.497  0.7114 -0.6622  4.4759
  335MOL0     H45191   6.410  10.949   2.315  0.0212 -1.6727  1.3300
  335MOL0     H45192   6.242  11.014   2.272  0.5048 -0.6170 -0.0033
  335MOL0     H45193   6.438  11.109   2.495 -0.6413  2.2612  0.8347
  335MOL0     H45194   6.425  11.181   2.337 -0.8229  1.2141  0.0737
  335MOL0     H45195   6.217  11.173   2.551 -1.0010  2.6585 -0.4331
  335MOL0     H45196   6.168  11.220   2.385  0.0803 -1.5215 -1.6666
  335MOL0     H45197   6.326  11.351   2.602  0.7967 -0.4145 -0.5084
  335MOL0     H45198   6.186  11.410   2.505 -0.1470  0.4379  3.9728
  335MOL0     H45199   6.481  11.393   2.416 -0.0858 -4.1998  2.5912
  335MOL0     H45200   6.334  11.472   2.335  0.2874  1.4089  0.7509
  335MOL0     H45201   6.455  11.574   2.601 -0.9753  0.5797  1.4243
  335MOL0     H45202   6.304  11.608   2.535 -0.5408 -0.6944 -0.2538
  335MOL0     H45203   6.575  11.664   2.433 -0.9589 -0.7895  0.4779
  335MOL0     H45204   6.456  11.681   2.312  0.2862  3.2993 -0.4972
  335MOL0     H45205   6.431  10.750   2.308  1.5302  1.6562 -0.1657
  335MOL0     H45206   6.582  10.559   2.291 -1.9513 -2.1169  0.4545
  335MOL0     H45207   6.763  10.140   2.761 -1.2348  2.1601  1.3949
  335MOL0     H45208   6.979  10.097   2.861 -0.2317 -0.2173  0.2545
  335MOL0     H45209   6.558  10.493   1.513 -1.5539  3.9198 -0.2788
  335MOL0     H45210   6.374  10.655   1.538 -0.8503  1.4698  3.8958
  335MOL0     H45211   5.749  10.553   1.647  0.2674  0.8096  2.9137
  335MOL0     H45212   5.574  10.725   1.653  0.5741 -0.4197  0.3792
  335MOL0     H45213   5.655  11.122   1.559 -1.6736 -0.0477 -0.0177
  335MOL0     H45214   5.665  11.148   1.743 -1.9313  0.7537  1.0106
  335MOL0     H45215   5.426  11.147   1.761 -0.0988 -2.4329 -0.8629
  335MOL0     H45216   5.403  11.112   1.592  0.3376 -0.1367  0.3307
  335MOL0     H45217   5.493  11.386   1.681 -0.8536  0.2520 -0.5310
  335MOL0     H45218   5.368  11.346   1.575  0.0597 -1.1609 -2.2721
  335MOL0     H45219   5.651  11.330   1.475 -0.4974  2.6123 -0.3209
  335MOL0     H45220   5.516  11.251   1.393 -0.4161 -3.0045  2.7236
  335MOL0     H45221   5.496  11.636   1.257 -0.4549 -1.3063 -1.1664
  335MOL0     H45222   5.858  11.027   1.680  0.0311 -0.5076 -1.3010
  335MOL0     H45223   6.073  11.000   1.660  0.8279  0.4126  1.8819
  335MOL0     H45224   6.134  10.868   1.760 -0.6029  0.8249  1.7103
  335MOL0     H45225   6.132  10.855   1.576  0.4291  0.8518  0.5306
  336MOL0     O45226   4.414   1.951   3.429  0.4371 -0.4543 -0.3584
  336MOL0     C45227   4.452   1.940   3.317 -0.4878 -0.3186  0.1682
  336MOL0     O45228   4.482   2.038   3.221 -0.4965  0.0623  0.0762
  336MOL0     C45229   4.482   2.169   3.262 -0.4551  0.1799  0.4793
  336MOL0     C45230   4.430   2.262   3.178  1.1972 -0.0154  0.8206
  336MOL0     C45231   4.428   2.396   3.219  0.2438 -0.3213 -0.1917
  336MOL0     C45232   4.482   2.439   3.343  0.5482 -0.5379  0.2378
  336MOL0     O45233   4.479   2.574   3.372 -0.5683 -0.2245  0.4577
  336MOL0     C45234   4.399   2.613   3.478  0.1592  0.0967  0.5814
  336MOL0     C45235   4.416   2.762   3.470 -0.3780  0.1459  0.4310
  336MOL0     C45236   4.346   2.824   3.588  0.3868  0.5133  0.0748
  336MOL0     C45237   4.344   2.980   3.568  0.5238  0.3306 -0.6094
  336MOL0     C45238   4.367   3.041   3.711  0.0352  0.5041 -0.2243
  336MOL0     C45239   4.312   3.185   3.726 -0.9382 -0.0085 -0.3170
  336MOL0     C45240   4.381   3.249   3.854  0.5034 -0.2351  0.2667
  336MOL0     C45241   4.308   3.376   3.897 -0.2748  0.6648 -1.0679
  336MOL0     N45242   4.166   3.347   3.931 -1.5260  0.2710  0.8060
  336MOL0     C45243   4.114   3.272   4.034 -0.2000  0.3331 -0.2158
  336MOL0     C45244   3.979   3.291   4.010 -0.7744 -0.7372 -0.5596
  336MOL0     C45245   3.873   3.226   4.101 -0.6107  0.7606  0.3858
  336MOL0     C45246   3.854   3.077   4.082 -0.1822  0.1978  0.1740
  336MOL0     C45247   3.768   3.036   3.960  0.5013 -0.1733  0.1131
  336MOL0     C45248   3.830   3.062   3.821  0.2911 -0.2027 -0.0273
  336MOL0     O45249   3.969   3.013   3.823  0.0600 -0.8071  0.1867
  336MOL0     C45250   3.972   2.880   3.786 -0.3329  0.4036 -0.0158
  336MOL0     C45251   3.982   2.783   3.890  0.5734  0.4004  0.7871
  336MOL0     C45252   3.994   2.649   3.860 -0.7000  0.1714  0.3396
  336MOL0     C45253   3.981   2.600   3.731 -0.0078  1.2132  0.0163
  336MOL0     C45254   3.974   2.451   3.695 -0.5196 -0.2805 -0.6038
  336MOL0     O45255   4.053   2.402   3.583 -0.3160  0.2230  0.8673
  336MOL0     C45256   4.003   2.298   3.510  1.0829 -0.8540  0.0844
  336MOL0     C45257   4.087   2.211   3.447 -0.4270  0.2554  0.9743
  336MOL0     C45258   4.047   2.116   3.349 -0.3148 -1.2876 -0.1022
  336MOL0     C45259   3.903   2.104   3.335 -0.4306  0.1366 -0.7539
  336MOL0     O45260   3.844   2.003   3.264 -0.0106 -0.4116 -0.0614
  336MOL0     C45261   3.750   1.911   3.340  0.1652  0.0535  0.2214
  336MOL0     C45262   3.801   1.778   3.292 -0.1945 -0.9449  0.5076
  336MOL0     C45263   3.734   1.663   3.363  0.1334 -0.4022  0.6116
  336MOL0     C45264   3.841   1.553   3.397  0.1644 -0.1810  0.1361
  336MOL0     C45265   3.805   1.430   3.478 -0.2460 -0.2454  0.5665
  336MOL0     C45266   3.740   1.460   3.615  0.6223  0.2523  0.0268
  336MOL0     C45267   3.745   1.344   3.708  0.7226  0.0024 -0.6194
  336MOL0     C45268   3.629   1.237   3.693 -0.1186 -0.9813 -0.0014
  336MOL0    Cl45269   3.472   1.328   3.705  0.0540  0.0277 -0.1464
  336MOL0     C45270   3.818   2.195   3.410 -0.2250  1.0592  1.2475
  336MOL0     C45271   3.865   2.288   3.487  0.4930 -0.3323 -0.4573
  336MOL0     O45272   3.893   2.395   3.763 -0.2214 -0.0100 -0.6559
  336MOL0     C45273   3.963   2.697   3.627 -0.4717  0.1194 -0.4771
  336MOL0     C45274   3.948   2.831   3.658 -0.4009  0.8733 -0.1287
  336MOL0     N45275   3.954   3.379   3.901 -0.4961  0.0934  0.6006
  336MOL0     N45276   4.068   3.413   3.855  0.7793  0.4030  0.2655
  336MOL0     C45277   4.540   2.348   3.427  0.1664  0.6882 -0.7682
  336MOL0     C45278   4.532   2.207   3.395  0.2066 -1.0613 -0.1698
  336MOL0     C45279   4.481   1.801   3.274  0.4416 -0.6601  0.4215
  336MOL0     C45280   4.453   1.769   3.143  0.9670 -0.7658  0.3878
  336MOL0     C45281   4.486   1.641   3.093  0.7438 -0.6185 -0.3626
  336MOL0     C45282   4.541   1.543   3.184  0.5070 -0.6728  0.4077
  336MOL0     O45283   4.569   1.413   3.144 -0.2287  0.1651  0.7304
  336MOL0     C45284   4.611   1.407   3.010 -0.8339  0.5642  0.2846
  336MOL0     C45285   4.602   1.262   2.967  0.4197  0.3492  0.2445
  336MOL0     C45286   4.473   1.168   2.934  0.3701 -0.3044  0.1145
  336MOL0     C45287   4.394   1.235   2.820 -0.1020 -0.0262 -0.0623
  336MOL0     C45288   4.478   1.239   2.693  0.1036  0.1344 -0.5802
  336MOL0     C45289   4.541   1.247   2.590 -0.3109  0.8078  0.2738
  336MOL0     C45290   4.580   1.577   3.314  0.5699  0.1030  0.5677
  336MOL0     C45291   4.545   1.704   3.362  0.0184  0.3053 -0.2197
  336MOL0     C45292   4.562   1.717   3.512 -0.0977  0.2993  0.2819
  336MOL0     H45293   4.381   2.236   3.085 -1.9209  3.9002  1.1073
  336MOL0     H45294   4.402   2.476   3.150  1.3574 -0.7450 -1.1400
  336MOL0     H45295   4.298   2.572   3.462  0.6697 -0.5802 -1.1592
  336MOL0     H45296   4.439   2.576   3.572  1.0714  2.9928  1.4475
  336MOL0     H45297   4.381   2.799   3.373  4.0361  1.6744 -0.8540
  336MOL0     H45298   4.523   2.784   3.474  0.4375 -2.4356 -2.7816
  336MOL0     H45299   4.397   2.800   3.682 -3.6645 -0.9422  2.1402
  336MOL0     H45300   4.247   2.779   3.600 -0.2202  1.5088 -0.9263
  336MOL0     H45301   4.426   3.003   3.500  1.4219  2.1067  0.9678
  336MOL0     H45302   4.244   3.012   3.537  0.4912  0.0705 -0.7801
  336MOL0     H45303   4.317   2.973   3.781  0.3461 -0.5893 -1.0290
  336MOL0     H45304   4.471   3.035   3.744 -0.1231 -1.6054  0.0165
  336MOL0     H45305   4.342   3.244   3.639 -2.9846 -2.2243 -2.6777
  336MOL0     H45306   4.202   3.181   3.724 -1.1573  2.9761  0.5182
  336MOL0     H45307   4.481   3.272   3.817 -0.8102  2.6854 -1.8418
  336MOL0     H45308   4.375   3.183   3.941 -1.4229 -0.9830 -0.3901
  336MOL0     H45309   4.354   3.426   3.983 -0.6659 -1.5568  0.5333
  336MOL0     H45310   4.317   3.437   3.807  1.8948 -1.6036 -2.5153
  336MOL0     H45311   4.164   3.216   4.112 -3.3900 -3.1194 -0.3305
  336MOL0     H45312   3.911   3.235   4.203 -0.6712 -2.0994  0.7278
  336MOL0     H45313   3.787   3.294   4.105 -1.5830 -0.5012  2.3294
  336MOL0     H45314   3.956   3.037   4.085 -0.2280  0.0823  0.2091
  336MOL0     H45315   3.799   3.044   4.171 -0.6973 -0.3884 -0.3426
  336MOL0     H45316   3.674   3.090   3.977 -0.1662 -1.2106 -0.1762
  336MOL0     H45317   3.757   2.928   3.968 -0.4078 -0.4042 -2.8408
  336MOL0     H45318   3.824   3.169   3.800  3.0932 -0.3933 -2.3466
  336MOL0     H45319   3.775   3.020   3.737  1.6106  0.0767 -1.0607
  336MOL0     H45320   3.999   2.814   3.993  1.7999 -1.3488  1.1557
  336MOL0     H45321   4.010   2.574   3.937 -1.5347 -0.8559 -0.4551
  336MOL0     H45322   4.194   2.205   3.466 -0.3347  0.7551  0.6214
  336MOL0     H45323   4.111   2.051   3.291 -1.1234 -0.6997 -1.7115
  336MOL0     H45324   3.744   1.939   3.445 -1.5064  1.9402 -0.3143
  336MOL0     H45325   3.652   1.919   3.291  0.9722  0.4747 -1.4019
  336MOL0     H45326   3.776   1.768   3.186  1.7351  0.0180 -0.0874
  336MOL0     H45327   3.910   1.769   3.290 -0.2860 -3.0492  1.8685
  336MOL0     H45328   3.692   1.690   3.460  0.9883 -0.1252  0.9198
  336MOL0     H45329   3.659   1.622   3.295  1.0644 -0.2747 -0.5301
  336MOL0     H45330   3.914   1.606   3.459  1.2030 -1.0737 -0.2913
  336MOL0     H45331   3.896   1.512   3.312  1.7035  1.1848  0.4171
  336MOL0     H45332   3.898   1.381   3.509 -0.2354  0.5000  1.8182
  336MOL0     H45333   3.750   1.360   3.415  2.4519  0.9704 -3.5318
  336MOL0     H45334   3.792   1.542   3.665  0.2307  1.7527 -1.9201
  336MOL0     H45335   3.637   1.488   3.594  1.9013  2.5091 -4.5349
  336MOL0     H45336   3.742   1.385   3.809 -3.3085 -1.7239  0.1340
  336MOL0     H45337   3.840   1.293   3.688 -2.1720 -6.2112 -0.7112
  336MOL0     H45338   3.636   1.171   3.606 -0.1977  1.5109 -2.0147
  336MOL0     H45339   3.629   1.170   3.779 -2.2332 -1.0209  0.0243
  336MOL0     H45340   3.712   2.190   3.389 -0.0592  3.8563 -0.9345
  336MOL0     H45341   3.794   2.361   3.527  3.2343  1.1447  2.0909
  336MOL0     H45342   3.943   2.659   3.527  0.0697 -3.9583  0.7721
  336MOL0     H45343   3.945   2.902   3.576  1.4416 -0.2361 -1.2225
  336MOL0     H45344   4.600   2.376   3.513 -0.8111 -1.4265  0.6857
  336MOL0     H45345   4.582   2.135   3.457  2.3098 -0.8891 -1.5840
  336MOL0     H45346   4.413   1.844   3.076 -0.4892  0.1856  2.2298
  336MOL0     H45347   4.441   1.625   2.996 -3.1908  0.6493  1.0546
  336MOL0     H45348   4.715   1.434   2.992 -1.3288  1.2858 -1.8603
  336MOL0     H45349   4.558   1.463   2.932 -0.7802  0.8266  0.4356
  336MOL0     H45350   4.643   1.198   3.046 -0.0246 -3.3386 -2.2575
  336MOL0     H45351   4.669   1.252   2.881  1.7661 -1.4782  1.4438
  336MOL0     H45352   4.407   1.161   3.021 -0.4621  1.5674 -0.3058
  336MOL0     H45353   4.512   1.070   2.906  0.5702  0.6306 -3.3136
  336MOL0     H45354   4.302   1.181   2.797  1.3408 -2.2229 -0.9637
  336MOL0     H45355   4.361   1.335   2.851 -1.1498  1.4397 -4.9972
  336MOL0     H45356   4.585   1.255   2.492 -1.5643 -3.3556 -0.8285
  336MOL0     H45357   4.637   1.505   3.372  2.0930  0.9989  0.2166
  336MOL0     H45358   4.606   1.813   3.541 -0.6997 -0.0239  2.4134
  336MOL0     H45359   4.468   1.701   3.564  0.2531 -1.2371  0.4838
  336MOL0     H45360   4.640   1.647   3.543  1.1054  1.7165  0.5875
  337MOL0     O45361   3.883   3.378   1.330 -0.8047  0.7367 -0.8099
  337MOL0     C45362   3.953   3.402   1.429  0.4526  0.4642 -0.0462
  337MOL0     O45363   4.013   3.522   1.455  0.2763  0.1335 -0.7019
  337MOL0     C45364   4.004   3.621   1.358  0.2038 -0.1087  0.5030
  337MOL0     C45365   3.911   3.714   1.347 -0.1852 -0.8583 -0.9979
  337MOL0     C45366   3.916   3.831   1.272  0.1306 -0.0631  0.0988
  337MOL0     C45367   4.030   3.848   1.187  1.0280  0.0198 -0.5282
  337MOL0     O45368   4.025   3.963   1.117  0.1981 -0.1749  0.1143
  337MOL0     C45369   4.139   4.047   1.138  0.4972 -0.4805  0.3697
  337MOL0     C45370   4.213   4.061   1.002 -0.9084 -0.5833 -0.0856
  337MOL0     C45371   4.354   4.126   1.011  0.2425 -0.2955 -0.0614
  337MOL0     C45372   4.468   4.032   1.007  0.2319  0.5007 -0.8390
  337MOL0     C45373   4.607   4.088   1.025  0.3146 -0.9804 -0.0265
  337MOL0     C45374   4.629   4.214   0.932  0.3735 -0.3685  0.3476
  337MOL0     C45375   4.782   4.245   0.899  0.1568  0.2679 -0.4879
  337MOL0     C45376   4.833   4.344   1.002  1.1611  1.1826 -0.8608
  337MOL0     N45377   4.980   4.350   1.002 -0.0956 -1.0860 -0.1393
  337MOL0     C45378   5.052   4.439   0.933  0.1266  1.0806  0.4899
  337MOL0     C45379   5.182   4.419   0.966 -0.0706 -1.3846  0.2257
  337MOL0     C45380   5.310   4.490   0.916 -0.2681 -0.1222  0.3619
  337MOL0     C45381   5.335   4.490   0.767  0.5054  0.6698 -1.7594
  337MOL0     C45382   5.435   4.606   0.726  0.8625 -0.1964 -0.3166
  337MOL0     C45383   5.468   4.614   0.578  0.3345 -0.5187 -0.3667
  337MOL0     O45384   5.356   4.661   0.495 -0.1300  0.0305  0.3816
  337MOL0     C45385   5.338   4.792   0.465  0.2441  0.6749 -0.6031
  337MOL0     C45386   5.219   4.810   0.394 -0.9628 -0.8556 -0.5864
  337MOL0     C45387   5.170   4.941   0.365  0.0693 -0.1051  0.4110
  337MOL0     C45388   5.262   5.046   0.377 -0.2567 -0.4114 -0.0926
  337MOL0     C45389   5.218   5.185   0.337 -0.5082 -0.2961 -0.7912
  337MOL0     O45390   5.238   5.297   0.410  0.8108  0.0440 -0.2038
  337MOL0     C45391   5.297   5.312   0.534 -0.0132 -0.1856  0.0501
  337MOL0     C45392   5.244   5.238   0.646 -1.0064 -0.5140 -0.1346
  337MOL0     C45393   5.291   5.268   0.776 -0.0894 -0.6114 -0.0168
  337MOL0     C45394   5.391   5.375   0.791 -0.8937  0.2728 -0.5436
  337MOL0     O45395   5.448   5.407   0.911  0.6815 -0.4457 -0.4842
  337MOL0     C45396   5.402   5.360   1.038  0.0658 -0.5471 -1.2900
  337MOL0     C45397   5.459   5.222   1.074 -0.6253  0.5417  0.0446
  337MOL0     C45398   5.426   5.167   1.216 -0.6704 -0.3075  0.0417
  337MOL0     C45399   5.511   5.047   1.264  0.1535  0.6164  0.0177
  337MOL0     C45400   5.463   4.991   1.394 -0.3177 -0.2833 -0.4219
  337MOL0     C45401   5.394   4.857   1.382  0.4857  0.7326  0.0215
  337MOL0     C45402   5.489   4.746   1.339  0.0205  0.2374  1.1366
  337MOL0     C45403   5.404   4.624   1.367  0.2271  0.0848  0.5821
  337MOL0    Cl45404   5.500   4.490   1.301  0.2076  0.1078 -0.2588
  337MOL0     C45405   5.445   5.432   0.677  1.0187 -0.0782  0.3561
  337MOL0     C45406   5.399   5.404   0.546  1.1963 -0.9014  0.0940
  337MOL0     O45407   5.180   5.195   0.225  1.1828  0.9136  0.5954
  337MOL0     C45408   5.383   5.017   0.433  0.7455 -0.4908 -0.8413
  337MOL0     C45409   5.418   4.896   0.492  0.3123 -1.0322  0.7849
  337MOL0     N45410   5.193   4.312   1.045 -0.3274 -1.6216 -0.9321
  337MOL0     N45411   5.072   4.273   1.067  0.2936  0.1039 -0.0877
  337MOL0     C45412   4.137   3.766   1.197  0.7785  0.4580  0.2813
  337MOL0     C45413   4.119   3.647   1.275 -0.9621  0.2295  0.4352
  337MOL0     C45414   3.983   3.289   1.520 -0.0421 -0.8954  0.3709
  337MOL0     C45415   4.094   3.310   1.604  0.3116  0.0945  0.5284
  337MOL0     C45416   4.138   3.213   1.694 -0.9682  0.3331  0.3922
  337MOL0     C45417   4.075   3.092   1.705  0.0278 -0.0097  0.5129
  337MOL0     O45418   4.114   2.996   1.790 -0.1968  0.2346 -0.1566
  337MOL0     C45419   4.141   3.034   1.924  0.1807  0.7992 -0.3305
  337MOL0     C45420   4.074   2.931   2.010 -0.1222  0.1708 -0.4772
  337MOL0     C45421   4.111   2.960   2.155  0.2639  0.7277  0.9455
  337MOL0     C45422   4.053   2.872   2.265 -0.6140  0.5840 -0.4776
  337MOL0     C45423   3.968   2.759   2.226 -0.5820  0.2946  0.3108
  337MOL0     C45424   3.893   2.678   2.181  0.5549  1.1930 -0.9060
  337MOL0     C45425   3.966   3.069   1.622  0.2322 -0.4535  1.0128
  337MOL0     C45426   3.918   3.160   1.528 -0.8319 -0.5301 -0.0867
  337MOL0     C45427   3.793   3.111   1.445 -0.9672 -0.2460  0.3318
  337MOL0     H45428   3.815   3.702   1.395 -0.8656  3.8800 -0.6465
  337MOL0     H45429   3.837   3.904   1.256  1.2287  0.5792 -3.1602
  337MOL0     H45430   4.111   4.147   1.171  1.7752 -0.4966  1.5638
  337MOL0     H45431   4.215   4.005   1.204  0.5342 -0.4589  0.3408
  337MOL0     H45432   4.142   4.114   0.939 -0.1069  0.7832  0.1182
  337MOL0     H45433   4.223   3.958   0.966  0.2886 -0.4603 -0.1521
  337MOL0     H45434   4.359   4.198   1.093  0.9300  1.1952 -1.3562
  337MOL0     H45435   4.368   4.198   0.929  1.4323 -0.2594  0.1560
  337MOL0     H45436   4.477   3.969   1.096  1.9753  3.3258  1.1511
  337MOL0     H45437   4.443   3.969   0.920 -4.0166  1.1549 -0.2777
  337MOL0     H45438   4.627   4.116   1.128  1.6864 -2.2272  0.0866
  337MOL0     H45439   4.679   4.008   1.003  2.2565  0.4203  0.9712
  337MOL0     H45440   4.592   4.180   0.835  4.8776 -2.1153 -1.0323
  337MOL0     H45441   4.572   4.304   0.958  1.8522  0.6693  0.1967
  337MOL0     H45442   4.806   4.301   0.808  1.0003  0.7218 -0.0080
  337MOL0     H45443   4.838   4.151   0.903 -0.6156 -0.4005 -3.3948
  337MOL0     H45444   4.772   4.434   0.989 -3.5593 -1.3172  1.3761
  337MOL0     H45445   4.811   4.314   1.105 -1.1498  2.7244 -0.8289
  337MOL0     H45446   5.005   4.502   0.859 -0.6277 -1.9391 -1.7875
  337MOL0     H45447   5.326   4.585   0.966 -0.5037 -0.7817  1.7395
  337MOL0     H45448   5.396   4.442   0.965 -1.5805  0.0207  2.9385
  337MOL0     H45449   5.362   4.386   0.745 -0.4503  0.0446 -0.1772
  337MOL0     H45450   5.238   4.522   0.727 -0.4183  3.1409  1.9231
  337MOL0     H45451   5.521   4.588   0.790 -1.5758  2.5796  4.2835
  337MOL0     H45452   5.389   4.703   0.747  3.1542  0.6570  0.9942
  337MOL0     H45453   5.494   4.517   0.534  3.5151  0.4135 -0.8523
  337MOL0     H45454   5.549   4.687   0.564  0.9910 -0.9074  1.1769
  337MOL0     H45455   5.145   4.731   0.404 -1.5797 -0.1276  0.9848
  337MOL0     H45456   5.074   4.945   0.314 -0.4404 -0.9366  1.2586
  337MOL0     H45457   5.159   5.171   0.642 -2.5562  1.2550  1.2447
  337MOL0     H45458   5.242   5.216   0.858  1.8709  2.3608  3.3083
  337MOL0     H45459   5.445   5.431   1.110 -2.1723 -0.1366 -0.2765
  337MOL0     H45460   5.293   5.355   1.041  0.0431 -1.1015  2.7305
  337MOL0     H45461   5.422   5.152   0.999  0.3677  0.4144 -0.3429
  337MOL0     H45462   5.567   5.226   1.058 -0.2708  3.9443  2.2405
  337MOL0     H45463   5.447   5.250   1.283 -2.6284  1.4753 -1.4178
  337MOL0     H45464   5.318   5.149   1.216 -1.1329  1.2217 -4.1275
  337MOL0     H45465   5.616   5.074   1.280 -0.2933  1.5445  1.6060
  337MOL0     H45466   5.518   4.964   1.192 -1.3854  2.4325 -2.3932
  337MOL0     H45467   5.383   5.054   1.435  2.3723  2.1994  1.4147
  337MOL0     H45468   5.545   4.985   1.466  0.3752  1.4798 -1.0158
  337MOL0     H45469   5.362   4.822   1.480  1.0508 -2.9454 -0.9831
  337MOL0     H45470   5.304   4.865   1.320 -1.0032 -1.1745  1.7802
  337MOL0     H45471   5.585   4.733   1.390 -0.3856  0.6339  2.0228
  337MOL0     H45472   5.517   4.749   1.233  0.4393  2.8178  1.2457
  337MOL0     H45473   5.373   4.612   1.471 -2.5037  1.9440  0.0986
  337MOL0     H45474   5.305   4.633   1.321  1.4347 -1.3354 -2.6127
  337MOL0     H45475   5.512   5.515   0.700  0.9041 -0.0102  0.4470
  337MOL0     H45476   5.452   5.455   0.465  1.2485  0.3883  0.9036
  337MOL0     H45477   5.459   5.092   0.453  2.0890 -1.9220 -0.3415
  337MOL0     H45478   5.511   4.884   0.546  1.4418 -1.4478 -1.1442
  337MOL0     H45479   4.224   3.800   1.142 -0.0035 -2.7279 -3.3008
  337MOL0     H45480   4.209   3.589   1.292  1.5086  3.9165  1.2936
  337MOL0     H45481   4.153   3.401   1.599  0.3642  0.2189  2.4305
  337MOL0     H45482   4.234   3.230   1.741 -0.7138  0.5845 -0.2026
  337MOL0     H45483   4.106   3.136   1.939  0.0780  0.4521  2.3135
  337MOL0     H45484   4.250   3.029   1.922  0.1529 -0.0030 -2.0807
  337MOL0     H45485   4.107   2.829   1.985 -2.6907 -0.7914 -0.1952
  337MOL0     H45486   3.966   2.936   1.995 -0.0332 -1.4981 -2.0462
  337MOL0     H45487   4.084   3.059   2.194 -1.4570  1.3236 -1.4896
  337MOL0     H45488   4.218   2.941   2.148 -0.0578 -0.5521 -1.8870
  337MOL0     H45489   4.132   2.811   2.308 -1.0676  0.7668  0.6415
  337MOL0     H45490   3.986   2.928   2.331  0.5432 -1.3498  2.5522
  337MOL0     H45491   3.818   2.608   2.152  1.1936  0.0687  0.0931
  337MOL0     H45492   3.911   2.976   1.625  1.1005 -1.0369 -0.1955
  337MOL0     H45493   3.702   3.112   1.506 -0.9584  0.0256  0.3418
  337MOL0     H45494   3.761   3.171   1.359  0.1255  3.0648  2.0727
  337MOL0     H45495   3.807   3.007   1.413  0.2670  0.1304 -0.4160
  338MOL0     O45496   3.221   4.074   6.386 -0.2093 -0.0875  0.3216
  338MOL0     C45497   3.123   4.149   6.350 -0.3480 -0.6679 -0.2580
  338MOL0     O45498   3.009   4.095   6.292 -0.5455 -0.4145 -0.7974
  338MOL0     C45499   2.987   3.974   6.241 -0.0730 -0.7039 -0.4837
  338MOL0     C45500   2.949   3.970   6.111  0.3072  0.3706  0.4900
  338MOL0     C45501   2.928   3.851   6.037 -0.3472 -0.4660  0.5301
  338MOL0     C45502   2.957   3.730   6.101  0.6545  0.2433 -1.4207
  338MOL0     O45503   2.917   3.613   6.046 -0.2813  0.4812 -0.2315
  338MOL0     C45504   2.891   3.502   6.126 -0.7987 -0.7093  0.0297
  338MOL0     C45505   2.785   3.414   6.059  0.6522  1.0575 -0.0692
  338MOL0     C45506   2.735   3.301   6.152  0.5633 -0.8349 -0.1885
  338MOL0     C45507   2.699   3.182   6.066 -0.4016 -0.0658  0.5099
  338MOL0     C45508   2.590   3.101   6.128 -0.0433 -0.3841  0.6080
  338MOL0     C45509   2.464   3.165   6.146  0.7366  0.2075 -0.1640
  338MOL0     C45510   2.337   3.074   6.180 -0.6591 -0.2686  0.5647
  338MOL0     C45511   2.323   3.071   6.339 -0.5864 -0.3706  0.4947
  338MOL0     N45512   2.209   2.993   6.387 -0.5066  0.6732 -0.5145
  338MOL0     C45513   2.201   2.856   6.399  0.3850 -0.5648 -0.3292
  338MOL0     C45514   2.078   2.834   6.456  0.0871  0.5444  0.3877
  338MOL0     C45515   1.998   2.707   6.473 -0.4401 -0.3190 -0.4961
  338MOL0     C45516   1.966   2.669   6.627 -0.3356  0.2528 -0.3232
  338MOL0     C45517   1.896   2.535   6.624  0.0107 -0.4905  0.8351
  338MOL0     C45518   1.757   2.541   6.552 -0.2267 -0.1873 -0.6254
  338MOL0     O45519   1.691   2.416   6.560 -0.3122 -0.5395 -0.3562
  338MOL0     C45520   1.721   2.308   6.478 -0.0279  0.3264 -0.7427
  338MOL0     C45521   1.768   2.322   6.353 -0.0103  0.1728  0.1357
  338MOL0     C45522   1.789   2.211   6.269 -1.3719  1.9267 -0.6658
  338MOL0     C45523   1.763   2.077   6.314  1.2289 -0.6769 -1.0424
  338MOL0     C45524   1.789   1.961   6.216  0.3038  0.2642 -0.1309
  338MOL0     O45525   1.766   1.828   6.266 -0.2544 -0.1424 -0.4485
  338MOL0     C45526   1.761   1.723   6.180  0.0626  0.9394 -0.2775
  338MOL0     C45527   1.728   1.730   6.045 -0.2101 -0.3247  0.1500
  338MOL0     C45528   1.708   1.616   5.966 -0.3968 -0.2644  0.0967
  338MOL0     C45529   1.732   1.486   6.010  0.4751  0.5273  0.8959
  338MOL0     O45530   1.720   1.367   5.939  0.1964  0.1726 -0.5159
  338MOL0     C45531   1.768   1.363   5.803  0.2329  0.3806  0.3254
  338MOL0     C45532   1.781   1.225   5.737  0.0977  0.6071  0.5251
  338MOL0     C45533   1.837   1.229   5.587 -0.8604 -0.9167 -0.1122
  338MOL0     C45534   1.886   1.087   5.548  0.4446 -1.8240  0.1185
  338MOL0     C45535   1.766   0.991   5.518 -0.8882 -0.3919 -0.0653
  338MOL0     C45536   1.815   0.853   5.476  0.5650 -0.7877 -0.0272
  338MOL0     C45537   1.716   0.733   5.447 -0.7075 -0.0102  0.0690
  338MOL0     C45538   1.628   0.730   5.569  0.1791 -0.2996  0.4204
  338MOL0    Cl45539   1.533   0.579   5.553 -0.2434 -0.5096  0.2018
  338MOL0     C45540   1.761   1.477   6.145 -0.1959  0.0710  0.1399
  338MOL0     C45541   1.758   1.589   6.233 -0.1268 -0.6732  0.5127
  338MOL0     O45542   1.843   1.996   6.111  0.6217  1.4408 -0.1647
  338MOL0     C45543   1.723   2.063   6.447 -0.1682 -0.1173  0.2821
  338MOL0     C45544   1.692   2.179   6.523 -0.0688  0.0710 -0.7054
  338MOL0     N45545   2.018   2.952   6.479 -0.1702 -0.1657 -0.7870
  338MOL0     N45546   2.098   3.045   6.440 -0.2551  0.1454 -0.6534
  338MOL0     C45547   3.025   3.733   6.227  0.0601  0.6971 -0.4852
  338MOL0     C45548   3.029   3.856   6.301  0.1158  0.0329  0.1491
  338MOL0     C45549   3.131   4.291   6.383  0.2502 -0.3506 -0.2500
  338MOL0     C45550   3.234   4.336   6.470 -0.1403 -0.0229  0.4028
  338MOL0     C45551   3.234   4.465   6.534  0.8222  0.7891  0.4991
  338MOL0     C45552   3.144   4.557   6.497  0.6800  0.1276  0.3981
  338MOL0     O45553   3.150   4.684   6.555  0.3831  0.5801 -0.4934
  338MOL0     C45554   3.017   4.740   6.580  0.0262 -0.8777  0.5645
  338MOL0     C45555   3.032   4.864   6.688 -0.1637  0.1472 -0.1041
  338MOL0     C45556   3.167   4.940   6.685 -0.5140  0.1731  0.6864
  338MOL0     C45557   3.183   5.053   6.785  0.8066  0.3951 -1.1570
  338MOL0     C45558   3.306   5.131   6.772 -0.6876 -0.6871 -0.6730
  338MOL0     C45559   3.407   5.207   6.790 -0.3057  1.1906  0.2752
  338MOL0     C45560   3.044   4.519   6.394 -1.6531  0.4454 -0.7777
  338MOL0     C45561   3.033   4.393   6.343 -0.4462  0.2321 -0.0245
  338MOL0     C45562   2.917   4.366   6.249  0.8765 -0.8130 -0.1470
  338MOL0     H45563   2.935   4.068   6.067  0.4269 -0.0405 -0.4824
  338MOL0     H45564   2.879   3.856   5.940 -0.5908 -0.0160  0.6700
  338MOL0     H45565   2.980   3.459   6.175 -0.3335 -0.0883 -0.2501
  338MOL0     H45566   2.842   3.537   6.217  1.3897 -0.3735  1.1722
  338MOL0     H45567   2.831   3.355   5.979 -0.4186 -2.0163  1.4006
  338MOL0     H45568   2.700   3.473   6.024  1.3545  1.5171 -1.0054
  338MOL0     H45569   2.657   3.345   6.215  3.0203  2.3005  0.9241
  338MOL0     H45570   2.809   3.265   6.224 -0.2846 -0.7410  0.7557
  338MOL0     H45571   2.655   3.234   5.980  0.1539  3.8385  2.3493
  338MOL0     H45572   2.788   3.131   6.028 -0.7840 -0.6533  0.3899
  338MOL0     H45573   2.563   3.021   6.059 -0.8906  0.5497 -0.1896
  338MOL0     H45574   2.619   3.066   6.227  1.6122  7.1731  3.4604
  338MOL0     H45575   2.476   3.229   6.234  3.4465 -0.5855  0.1398
  338MOL0     H45576   2.429   3.229   6.064 -0.2497 -0.3971 -0.2317
  338MOL0     H45577   2.341   2.970   6.147  2.1269  0.5856 -2.2562
  338MOL0     H45578   2.240   3.107   6.142 -1.8867 -0.3092  3.3871
  338MOL0     H45579   2.416   3.044   6.390 -0.9850  1.3938  2.3361
  338MOL0     H45580   2.294   3.173   6.366  3.3554  1.0673 -0.0832
  338MOL0     H45581   2.268   2.779   6.360  2.1020 -0.1905  1.7236
  338MOL0     H45582   1.899   2.734   6.437  1.1142  5.3314 -1.5737
  338MOL0     H45583   2.045   2.630   6.411  0.6100  0.5708 -0.8324
  338MOL0     H45584   2.058   2.662   6.686  0.8683  0.5382 -2.0815
  338MOL0     H45585   1.887   2.735   6.665 -2.8630 -2.5660 -0.2860
  338MOL0     H45586   1.894   2.499   6.728  3.4569 -2.9814  0.2121
  338MOL0     H45587   1.944   2.451   6.574 -2.7890 -1.7425  0.0857
  338MOL0     H45588   1.766   2.564   6.445  1.3150  0.3514 -0.4003
  338MOL0     H45589   1.696   2.614   6.606 -0.2154  0.2618 -1.2095
  338MOL0     H45590   1.806   2.414   6.310  0.7705 -0.7520 -1.2465
  338MOL0     H45591   1.839   2.221   6.174  1.8629 -0.0511  0.6411
  338MOL0     H45592   1.705   1.824   5.996  0.9088  1.4428  2.7990
  338MOL0     H45593   1.687   1.625   5.860  1.3386 -0.0332 -0.2563
  338MOL0     H45594   1.704   1.425   5.739 -0.5518 -1.5760 -0.8766
  338MOL0     H45595   1.869   1.406   5.803 -0.5473  2.3071  0.1498
  338MOL0     H45596   1.843   1.158   5.797 -3.4611 -2.1848  1.4876
  338MOL0     H45597   1.683   1.176   5.735  0.7202 -0.6624 -0.3871
  338MOL0     H45598   1.773   1.267   5.507 -1.7025 -0.7785  0.5996
  338MOL0     H45599   1.918   1.299   5.608  0.2442 -2.0986 -0.3585
  338MOL0     H45600   1.959   1.045   5.618  1.6102 -2.3061 -1.3362
  338MOL0     H45601   1.944   1.112   5.459  2.2664  0.7239  1.8680
  338MOL0     H45602   1.692   1.026   5.445 -0.7528 -2.9739 -1.5614
  338MOL0     H45603   1.710   0.969   5.610 -1.7559 -1.1933 -0.7570
  338MOL0     H45604   1.860   0.881   5.380  0.9162  1.1280  0.6554
  338MOL0     H45605   1.898   0.820   5.540 -0.0859  1.2300  2.0032
  338MOL0     H45606   1.776   0.642   5.450 -2.7680 -1.4655 -0.6500
  338MOL0     H45607   1.667   0.752   5.351 -2.5445  0.4982  1.0772
  338MOL0     H45608   1.695   0.727   5.656  0.2414 -0.4636  0.3668
  338MOL0     H45609   1.559   0.814   5.560 -1.0924 -1.5246 -2.5609
  338MOL0     H45610   1.772   1.377   6.185 -0.0060 -0.7142 -1.7642
  338MOL0     H45611   1.782   1.583   6.339  1.6738 -2.0750  0.0683
  338MOL0     H45612   1.706   1.965   6.490 -0.3017 -0.2928 -0.1661
  338MOL0     H45613   1.647   2.168   6.621 -0.2570  1.3587 -0.6350
  338MOL0     H45614   3.062   3.638   6.265 -1.2595 -0.1956 -1.3823
  338MOL0     H45615   3.087   3.852   6.393 -1.6652 -1.0479  1.2792
  338MOL0     H45616   3.305   4.269   6.516 -0.9895 -3.1644 -2.4874
  338MOL0     H45617   3.313   4.504   6.597  0.3489  2.7212 -0.0270
  338MOL0     H45618   2.948   4.663   6.615 -0.1105  0.2686  3.1189
  338MOL0     H45619   2.975   4.787   6.491 -1.7619  0.3401  1.9803
  338MOL0     H45620   3.019   4.829   6.791  0.0957 -0.1027 -0.1565
  338MOL0     H45621   2.959   4.944   6.670  1.0557  0.7117 -3.0875
  338MOL0     H45622   3.175   4.980   6.583  0.2988 -1.1128  0.2099
  338MOL0     H45623   3.258   4.879   6.695  1.3936  2.4141 -1.5326
  338MOL0     H45624   3.101   5.122   6.761  0.1862 -0.4594 -1.5523
  338MOL0     H45625   3.182   5.010   6.885  4.5436 -3.1048 -2.3434
  338MOL0     H45626   3.492   5.272   6.795  1.4032 -0.8796 -0.3771
  338MOL0     H45627   2.973   4.593   6.358 -0.5492  1.7240 -0.3920
  338MOL0     H45628   2.829   4.319   6.293 -0.8447  1.8992 -0.4477
  338MOL0     H45629   2.892   4.460   6.198  1.0196 -0.4657  0.4125
  338MOL0     H45630   2.945   4.302   6.165 -0.5217 -1.6835  0.0204
  339MOL0     O45631   0.684  10.453   4.681  0.6400  0.2354  0.2085
  339MOL0     C45632   0.673  10.330   4.668  0.0574  0.0117  0.2382
  339MOL0     O45633   0.745  10.249   4.582  0.2814  0.0379 -0.7097
  339MOL0     C45634   0.841  10.289   4.497  0.4804  0.4030 -0.9075
  339MOL0     C45635   0.921  10.182   4.444  0.1071 -0.2151 -0.4101
  339MOL0     C45636   1.026  10.203   4.354  0.3708  0.3227 -0.1701
  339MOL0     C45637   1.051  10.333   4.301  0.3698 -0.0073  0.1379
  339MOL0     O45638   1.156  10.370   4.221  0.5516  0.5658  0.9334
  339MOL0     C45639   1.284  10.304   4.220  0.2942 -0.1944  0.5419
  339MOL0     C45640   1.375  10.359   4.101 -0.8392 -0.3558 -0.6868
  339MOL0     C45641   1.384  10.514   4.083 -0.2088  0.2463  0.3159
  339MOL0     C45642   1.531  10.566   4.049  0.2118  0.1506 -0.3522
  339MOL0     C45643   1.519  10.693   3.978 -0.3117  0.7495 -0.8614
  339MOL0     C45644   1.664  10.753   3.966  0.2456  0.6260 -0.7878
  339MOL0     C45645   1.716  10.735   3.823 -0.8831  0.0827  0.8705
  339MOL0     C45646   1.679  10.858   3.738  0.4600 -0.4408  0.6216
  339MOL0     N45647   1.691  10.828   3.594  0.1266  0.9119 -1.2765
  339MOL0     C45648   1.687  10.711   3.517  0.6636  0.5102 -0.0621
  339MOL0     C45649   1.730  10.741   3.397  0.4117  0.2472  1.0303
  339MOL0     C45650   1.740  10.659   3.273 -0.2090  1.1088 -0.1449
  339MOL0     C45651   1.858  10.559   3.268 -0.1688 -0.6722  0.5409
  339MOL0     C45652   1.834  10.452   3.165  0.2810  0.5194 -0.0118
  339MOL0     C45653   1.959  10.384   3.111  0.0230  0.6465 -0.5818
  339MOL0     O45654   2.035  10.322   3.220 -0.9118  0.3315  0.2293
  339MOL0     C45655   2.121  10.220   3.183  0.2675 -0.1653 -0.9554
  339MOL0     C45656   2.229  10.240   3.090  0.4154  0.2773 -0.3540
  339MOL0     C45657   2.318  10.144   3.058 -0.4785  0.8481  0.1218
  339MOL0     C45658   2.301  10.018   3.119  0.3733  0.6995  0.3333
  339MOL0     C45659   2.388   9.907   3.089 -0.5790  0.3965  0.7568
  339MOL0     O45660   2.347   9.786   3.127 -0.1208  0.1619  0.1288
  339MOL0     C45661   2.442   9.677   3.125 -0.6654 -0.8795  0.5685
  339MOL0     C45662   2.505   9.645   3.004  0.7722 -0.3035  0.4849
  339MOL0     C45663   2.604   9.550   2.999  0.5062  0.8240  1.6270
  339MOL0     C45664   2.644   9.489   3.121 -0.0445 -1.1608 -0.3505
  339MOL0     O45665   2.751   9.403   3.129  0.0676 -0.5551 -0.0740
  339MOL0     C45666   2.741   9.283   3.053 -0.6608 -1.2069  0.6865
  339MOL0     C45667   2.799   9.177   3.135  0.1814 -0.2252  0.6538
  339MOL0     C45668   2.732   9.048   3.086 -0.5800  0.1451 -0.4890
  339MOL0     C45669   2.783   8.931   3.171  0.0079  0.2161  0.6919
  339MOL0     C45670   2.747   8.791   3.116  0.2235  0.3889 -0.7859
  339MOL0     C45671   2.596   8.775   3.102 -0.8975 -0.0974  0.2910
  339MOL0     C45672   2.554   8.637   3.044 -0.3709  0.4734 -0.5178
  339MOL0     C45673   2.407   8.626   2.984  0.8551  0.4181  0.0029
  339MOL0    Cl45674   2.284   8.683   3.093  0.0686  0.0277 -0.2266
  339MOL0     C45675   2.580   9.511   3.235  0.4120 -0.4036  0.3297
  339MOL0     C45676   2.481   9.613   3.242 -0.8481 -0.4763 -0.9865
  339MOL0     O45677   2.490   9.932   3.028 -0.2486 -0.4200  0.0862
  339MOL0     C45678   2.202   9.989   3.213 -0.3762 -0.0502 -0.2753
  339MOL0     C45679   2.102  10.088   3.234  0.1882 -0.0488  0.4649
  339MOL0     N45680   1.783  10.864   3.404 -0.4909 -0.6832  0.2360
  339MOL0     N45681   1.761  10.918   3.518  0.2426  0.2597  1.0644
  339MOL0     C45682   0.977  10.434   4.355  0.8048  0.4732 -0.1245
  339MOL0     C45683   0.871  10.420   4.448 -0.5396  0.6652  0.1332
  339MOL0     C45684   0.567  10.253   4.731  0.0793 -0.5419 -0.2826
  339MOL0     C45685   0.504  10.153   4.649  0.3963 -0.2084  0.2639
  339MOL0     C45686   0.399  10.078   4.679  0.9677  0.2182 -1.1863
  339MOL0     C45687   0.332  10.092   4.806 -0.5178  0.4601  0.5091
  339MOL0     O45688   0.222  10.022   4.837 -0.3008  0.0477 -0.5252
  339MOL0     C45689   0.136  10.071   4.942  0.8940 -0.0480 -0.7995
  339MOL0     C45690   0.012   9.978   4.937 -0.5474 -0.8871  0.9480
  339MOL0     C45691   0.051   9.833   4.963 -0.1781 -1.5521 -0.2373
  339MOL0     C45692  -0.065   9.752   4.898 -0.5093  0.6818 -0.1628
  339MOL0     C45693  -0.055   9.738   4.750 -0.2610  0.3306 -1.2304
  339MOL0     C45694  -0.048   9.729   4.632  0.5657  0.2782  0.8886
  339MOL0     C45695   0.388  10.186   4.889 -0.6035 -0.2464 -0.8577
  339MOL0     C45696   0.504  10.256   4.857  0.5803 -0.1231  0.0887
  339MOL0     C45697   0.570  10.347   4.958  0.3624 -0.3200 -0.5145
  339MOL0     H45698   0.891  10.086   4.486 -2.5942 -0.7535 -3.1849
  339MOL0     H45699   1.092  10.126   4.315  1.9482  1.9186 -0.8155
  339MOL0     H45700   1.323  10.337   4.317 -1.3762  0.5397  1.0055
  339MOL0     H45701   1.288  10.195   4.212  0.1151 -0.0773 -1.6349
  339MOL0     H45702   1.339  10.322   4.005 -1.1640 -0.4669 -0.5244
  339MOL0     H45703   1.473  10.323   4.133 -1.2507  0.2079  1.3717
  339MOL0     H45704   1.349  10.562   4.175  0.9412  1.6856  0.0439
  339MOL0     H45705   1.310  10.537   4.005  0.4729 -3.4784 -1.6653
  339MOL0     H45706   1.579  10.604   4.139 -2.1150  2.8318 -0.0748
  339MOL0     H45707   1.590  10.500   3.984  1.6311  1.5522 -0.5361
  339MOL0     H45708   1.477  10.675   3.879  2.9916  2.2805 -2.6867
  339MOL0     H45709   1.457  10.764   4.034  2.4249  2.4772  0.1962
  339MOL0     H45710   1.641  10.858   3.990 -1.3867 -0.4160  2.8461
  339MOL0     H45711   1.739  10.707   4.030  1.7163  1.7887 -1.6209
  339MOL0     H45712   1.666  10.649   3.777 -1.3958  2.0664 -2.6218
  339MOL0     H45713   1.825  10.731   3.816 -0.8766  1.6575 -0.7454
  339MOL0     H45714   1.575  10.891   3.744  1.1672  2.4825 -1.1691
  339MOL0     H45715   1.745  10.938   3.772  1.3758 -1.1035  0.4336
  339MOL0     H45716   1.666  10.609   3.545  1.8254  0.0726 -0.7182
  339MOL0     H45717   1.648  10.601   3.262 -0.3497  1.1092  0.9552
  339MOL0     H45718   1.735  10.717   3.180  4.3280 -1.1141 -2.0559
  339MOL0     H45719   1.943  10.622   3.239 -1.2120  0.7079  0.3971
  339MOL0     H45720   1.883  10.523   3.369 -2.6611 -1.4255  0.9559
  339MOL0     H45721   1.795  10.486   3.069  0.4343 -2.3842 -1.2038
  339MOL0     H45722   1.765  10.376   3.202  0.3243  0.1922 -0.6024
  339MOL0     H45723   2.019  10.463   3.064 -1.2966  1.7162 -0.5442
  339MOL0     H45724   1.936  10.316   3.029 -0.6720 -1.1219  1.0045
  339MOL0     H45725   2.244  10.340   3.050  2.8061  0.4694  0.8598
  339MOL0     H45726   2.391  10.159   2.979 -1.9003 -1.9076 -1.9098
  339MOL0     H45727   2.468   9.679   2.907  0.1149 -1.7068  0.2099
  339MOL0     H45728   2.650   9.525   2.904 -0.4360  3.1013  0.4964
  339MOL0     H45729   2.636   9.259   3.035 -0.9291 -0.3135  0.9945
  339MOL0     H45730   2.801   9.299   2.963  0.9886  3.5952  2.2977
  339MOL0     H45731   2.908   9.171   3.128  0.3926  1.0904  2.1819
  339MOL0     H45732   2.777   9.187   3.242  2.1706 -1.9571  1.2895
  339MOL0     H45733   2.623   9.057   3.091 -0.4955  0.5586  1.0211
  339MOL0     H45734   2.765   9.029   2.983  0.1770  3.4308 -0.9757
  339MOL0     H45735   2.744   8.940   3.273 -1.6965 -2.6661  0.4207
  339MOL0     H45736   2.892   8.934   3.172  0.0329 -0.4555  0.7168
  339MOL0     H45737   2.795   8.714   3.178 -2.5289  1.6457  3.3508
  339MOL0     H45738   2.789   8.780   3.016 -1.2257 -0.5861 -1.3339
  339MOL0     H45739   2.549   8.795   3.199  1.8561 -0.6213  1.8650
  339MOL0     H45740   2.558   8.848   3.031 -1.2218  0.7900  1.3493
  339MOL0     H45741   2.566   8.554   3.115 -2.7976 -0.9845 -1.6851
  339MOL0     H45742   2.618   8.618   2.958  0.6427  0.0100  0.3090
  339MOL0     H45743   2.384   8.691   2.899 -1.8858  2.0031  1.7938
  339MOL0     H45744   2.387   8.520   2.962  2.0368 -0.0507  1.0795
  339MOL0     H45745   2.621   9.453   3.317  2.4750 -3.5117 -2.6205
  339MOL0     H45746   2.433   9.637   3.337 -0.1201  1.5757 -1.0663
  339MOL0     H45747   2.179   9.895   3.261 -0.7517  0.7051  1.0872
  339MOL0     H45748   2.013  10.081   3.296  0.1377  3.4439  0.9695
  339MOL0     H45749   0.989  10.537   4.323 -0.1997  1.7860  3.2320
  339MOL0     H45750   0.811  10.509   4.467 -0.3297  1.0081 -0.7410
  339MOL0     H45751   0.538  10.136   4.548 -0.8112 -1.3887  0.0299
  339MOL0     H45752   0.359  10.013   4.602 -0.8493 -1.9743  1.4287
  339MOL0     H45753   0.103  10.174   4.931  0.3991 -0.3717 -2.7471
  339MOL0     H45754   0.186  10.047   5.036  0.5116 -0.6042 -0.7355
  339MOL0     H45755  -0.034   9.991   4.839  0.8188  2.3354  0.5968
  339MOL0     H45756  -0.065  10.025   4.999  0.7853  1.0556  1.2267
  339MOL0     H45757   0.054   9.819   5.072  2.7419  2.0820  0.3585
  339MOL0     H45758   0.149   9.805   4.924  0.8451  0.9323  0.3832
  339MOL0     H45759  -0.071   9.647   4.929 -0.3830  0.6095 -0.3785
  339MOL0     H45760  -0.164   9.793   4.923 -0.9834  1.3185 -2.7949
  339MOL0     H45761  -0.089   9.721   4.533  0.1542  0.6043  1.0276
  339MOL0     H45762   0.341  10.196   4.986 -0.3933  2.6813 -0.9760
  339MOL0     H45763   0.548  10.309   5.058 -2.7003 -0.2960 -1.0944
  339MOL0     H45764   0.678  10.348   4.936  0.2804 -0.7048 -0.9742
  339MOL0     H45765   0.529  10.448   4.954 -1.0941 -0.8940 -0.7071
  340MOL0     O45766   4.390   8.430   4.402 -0.2978  0.2144 -0.3111
  340MOL0     C45767   4.296   8.479   4.468  0.1033  0.7324  0.4074
  340MOL0     O45768   4.175   8.415   4.486 -0.2516  0.4930  0.1745
  340MOL0     C45769   4.139   8.300   4.420  0.6265  0.0567  0.6628
  340MOL0     C45770   4.013   8.308   4.357 -0.1131  0.0834 -0.0614
  340MOL0     C45771   3.969   8.189   4.283  0.4499 -0.4855  0.2379
  340MOL0     C45772   4.037   8.070   4.284  1.1751  0.4168 -0.5371
  340MOL0     O45773   3.972   7.967   4.219 -0.4722  0.5246 -0.1427
  340MOL0     C45774   4.006   7.831   4.244  1.4791  0.2663  0.7406
  340MOL0     C45775   3.874   7.748   4.200 -0.0687  0.4814 -0.7990
  340MOL0     C45776   3.899   7.601   4.247  0.3294 -1.2937 -0.2624
  340MOL0     C45777   3.776   7.518   4.190  0.2198  0.6941 -0.2057
  340MOL0     C45778   3.798   7.376   4.230  0.0006  0.4121 -0.1593
  340MOL0     C45779   3.675   7.294   4.196 -0.4020 -0.2048 -0.4830
  340MOL0     C45780   3.703   7.148   4.220 -0.1711  0.2957 -0.4976
  340MOL0     C45781   3.599   7.056   4.150 -0.3200 -0.0212 -0.7028
  340MOL0     N45782   3.620   6.913   4.169 -0.2399  0.2229  0.1763
  340MOL0     C45783   3.633   6.826   4.066 -0.0749 -0.0638  0.6644
  340MOL0     C45784   3.627   6.705   4.126  0.4144  0.4202  0.3702
  340MOL0     C45785   3.635   6.577   4.052 -0.9772  0.2101 -0.0492
  340MOL0     C45786   3.715   6.466   4.127 -1.1887  0.0968 -0.7322
  340MOL0     C45787   3.872   6.507   4.127 -0.1880  0.1384  0.5308
  340MOL0     C45788   3.950   6.483   3.990 -0.5505 -0.1635 -0.0649
  340MOL0     O45789   3.929   6.596   3.905  0.2897 -0.5209  0.8084
  340MOL0     C45790   4.023   6.685   3.886 -0.6999  0.2529 -0.1936
  340MOL0     C45791   4.108   6.665   3.775 -0.2107 -0.6937  1.2319
  340MOL0     C45792   4.206   6.775   3.745  0.1609  0.2465  1.0941
  340MOL0     C45793   4.197   6.898   3.814 -1.0694 -0.1462  0.0065
  340MOL0     C45794   4.289   7.008   3.769  0.4643 -0.7477 -0.4080
  340MOL0     O45795   4.294   7.118   3.861  0.2487  0.2447  0.9455
  340MOL0     C45796   4.341   7.244   3.812  0.2022  0.5425  1.3414
  340MOL0     C45797   4.303   7.283   3.678  0.1170 -0.8092 -0.8992
  340MOL0     C45798   4.328   7.410   3.633  0.3299 -0.6762 -0.2730
  340MOL0     C45799   4.396   7.502   3.715  0.4294  0.2990  0.0521
  340MOL0     O45800   4.436   7.630   3.679 -0.2499 -0.3637 -0.5713
  340MOL0     C45801   4.365   7.692   3.564  0.0663 -0.1909  0.6456
  340MOL0     C45802   4.373   7.838   3.590 -0.0304  0.9570  1.0758
  340MOL0     C45803   4.291   7.929   3.497  0.1682 -0.5129 -1.0877
  340MOL0     C45804   4.307   7.891   3.345 -1.2925 -0.5677  0.6664
  340MOL0     C45805   4.269   7.989   3.235 -0.4472  0.5629  0.6950
  340MOL0     C45806   4.314   8.144   3.254  0.3979 -0.1599 -1.3718
  340MOL0     C45807   4.246   8.243   3.157  0.6713  0.1937 -0.1919
  340MOL0     C45808   4.109   8.291   3.200 -0.5630  0.0325  0.2934
  340MOL0    Cl45809   4.026   8.332   3.052  0.1363 -0.1984  0.1306
  340MOL0     C45810   4.432   7.458   3.844 -0.4478 -0.0819  0.0144
  340MOL0     C45811   4.398   7.331   3.898 -0.7936 -0.0396  0.3137
  340MOL0     O45812   4.352   6.998   3.664  0.1500  0.3934 -0.6930
  340MOL0     C45813   4.109   6.905   3.914  0.0934 -0.2803 -0.9768
  340MOL0     C45814   4.026   6.799   3.955 -1.0720 -0.1773 -0.1277
  340MOL0     N45815   3.614   6.721   4.261  0.2374 -0.5954  0.0714
  340MOL0     N45816   3.618   6.850   4.286  0.7564  0.0811  0.1810
  340MOL0     C45817   4.155   8.063   4.358 -0.3886  0.7432 -1.1474
  340MOL0     C45818   4.206   8.182   4.422  0.6513  0.0887 -0.0697
  340MOL0     C45819   4.317   8.607   4.539  0.5393  0.9427 -0.6863
  340MOL0     C45820   4.193   8.665   4.595 -0.0818 -0.3255 -0.8860
  340MOL0     C45821   4.211   8.775   4.679  0.8263 -0.1826  0.4159
  340MOL0     C45822   4.330   8.846   4.693  0.2312  0.8209  0.6216
  340MOL0     O45823   4.330   8.969   4.756 -0.2922 -0.6986  0.5435
  340MOL0     C45824   4.338   9.082   4.662  0.9889  0.2504 -0.3709
  340MOL0     C45825   4.207   9.096   4.591  0.4115 -0.1458 -0.0866
  340MOL0     C45826   4.084   9.105   4.664 -0.0760  0.9824 -0.2005
  340MOL0     C45827   3.955   9.060   4.588 -0.5603 -1.1076 -0.8695
  340MOL0     C45828   3.925   8.924   4.554 -0.3940 -0.3057 -0.0456
  340MOL0     C45829   3.915   8.808   4.526 -0.0166  0.7624  0.6397
  340MOL0     C45830   4.444   8.786   4.639 -0.5234 -0.9324  0.1044
  340MOL0     C45831   4.441   8.669   4.558  0.1617 -0.8675 -0.5468
  340MOL0     C45832   4.568   8.626   4.494 -0.0816  0.5895  0.8095
  340MOL0     H45833   3.959   8.401   4.345 -0.9895 -0.6208 -2.0715
  340MOL0     H45834   3.876   8.190   4.227  0.2638 -0.7547  0.5418
  340MOL0     H45835   4.093   7.795   4.188 -0.0306 -1.8374 -0.3677
  340MOL0     H45836   4.028   7.818   4.351 -0.8974  2.1206  1.5582
  340MOL0     H45837   3.864   7.751   4.091 -3.8743 -1.3209 -0.6970
  340MOL0     H45838   3.783   7.775   4.255  0.3504 -0.1394  0.2258
  340MOL0     H45839   3.881   7.589   4.354  0.2784  0.3856 -0.0520
  340MOL0     H45840   3.998   7.563   4.221  2.8613  2.5290  2.7107
  340MOL0     H45841   3.674   7.554   4.206 -0.7436 -1.9609  0.1726
  340MOL0     H45842   3.798   7.525   4.084  3.9290 -0.4587  0.3389
  340MOL0     H45843   3.876   7.347   4.160  1.7725  3.3617  0.4169
  340MOL0     H45844   3.827   7.363   4.335  3.0183  1.2789 -0.7796
  340MOL0     H45845   3.587   7.333   4.250 -0.4208 -1.5807  0.5291
  340MOL0     H45846   3.655   7.294   4.089  0.8742 -1.2748 -0.7324
  340MOL0     H45847   3.703   7.132   4.328  0.7674 -0.6328 -0.6175
  340MOL0     H45848   3.804   7.121   4.190 -0.8769 -0.8864 -1.9679
  340MOL0     H45849   3.502   7.089   4.186 -1.6372 -2.9091 -1.2940
  340MOL0     H45850   3.593   7.085   4.044  3.0973 -2.8402 -1.8825
  340MOL0     H45851   3.640   6.854   3.962  1.0391  3.9309  1.6785
  340MOL0     H45852   3.540   6.525   4.039  0.0006 -2.6034  2.8734
  340MOL0     H45853   3.686   6.583   3.955  1.8442 -3.2185  1.0147
  340MOL0     H45854   3.684   6.456   4.231 -1.8086  2.2814 -0.6758
  340MOL0     H45855   3.698   6.378   4.064  0.1137 -1.2631  0.7176
  340MOL0     H45856   3.918   6.435   4.195  1.4464 -1.2690 -1.9432
  340MOL0     H45857   3.882   6.613   4.153  0.1508  1.0609 -2.8687
  340MOL0     H45858   3.902   6.400   3.938 -3.8570 -0.6301  3.3481
  340MOL0     H45859   4.055   6.461   4.010 -0.8639 -2.4503 -0.6669
  340MOL0     H45860   4.099   6.574   3.716 -0.7431  1.2529 -1.9277
  340MOL0     H45861   4.260   6.759   3.653 -0.0845  2.5598  0.4884
  340MOL0     H45862   4.263   7.211   3.608 -0.1429  0.1385 -1.7454
  340MOL0     H45863   4.299   7.436   3.532  1.7912 -3.0082 -1.3826
  340MOL0     H45864   4.408   7.677   3.465 -0.8633  0.5971  0.0991
  340MOL0     H45865   4.260   7.667   3.543 -0.5637  1.2905  1.8157
  340MOL0     H45866   4.324   7.853   3.687 -2.1570  0.6314  0.0926
  340MOL0     H45867   4.479   7.864   3.599  0.4634 -0.8717  0.9486
  340MOL0     H45868   4.190   7.934   3.537  0.3796 -4.0443  0.2385
  340MOL0     H45869   4.332   8.030   3.506 -1.0295 -0.0270 -1.0153
  340MOL0     H45870   4.258   7.795   3.326  0.5627 -1.7261  1.4125
  340MOL0     H45871   4.407   7.866   3.308  0.1418  5.4587 -0.5695
  340MOL0     H45872   4.160   7.983   3.236 -0.3754 -1.1231  1.9294
  340MOL0     H45873   4.288   7.949   3.135  0.1616 -1.8037  1.6959
  340MOL0     H45874   4.287   8.183   3.352 -3.0587  2.3358 -3.1022
  340MOL0     H45875   4.420   8.162   3.233  0.9667  0.8186  1.8477
  340MOL0     H45876   4.237   8.187   3.063 -0.5132 -0.4758  0.3066
  340MOL0     H45877   4.318   8.318   3.124  2.7732 -0.6838  2.0180
  340MOL0     H45878   4.068   8.215   3.268  1.0232 -0.6924  0.4823
  340MOL0     H45879   4.114   8.387   3.253  1.2925  0.4965 -0.6694
  340MOL0     H45880   4.473   7.530   3.914 -0.3216 -2.1534  2.2313
  340MOL0     H45881   4.422   7.307   4.001 -2.1906 -0.6475  0.5142
  340MOL0     H45882   4.087   6.997   3.968  2.8884 -0.0142 -0.1125
  340MOL0     H45883   3.945   6.800   4.027 -0.9108  0.8386  0.0562
  340MOL0     H45884   4.211   7.973   4.380  0.6669  0.8963 -3.0135
  340MOL0     H45885   4.289   8.181   4.492  0.4695 -0.6183  0.1459
  340MOL0     H45886   4.101   8.609   4.598 -0.1225 -0.2127  0.2357
  340MOL0     H45887   4.118   8.809   4.724  0.9956  2.1488 -0.8323
  340MOL0     H45888   4.411   9.063   4.583 -1.5987 -0.3359 -2.8091
  340MOL0     H45889   4.356   9.182   4.703 -3.1110  1.0513 -0.0218
  340MOL0     H45890   4.186   9.008   4.529  0.2800 -1.6174  1.9366
  340MOL0     H45891   4.216   9.187   4.531  0.0546 -0.3066 -0.3916
  340MOL0     H45892   4.071   9.208   4.701  3.6878  1.6235 -0.2097
  340MOL0     H45893   4.105   9.049   4.756  0.6810  0.5096 -0.6546
  340MOL0     H45894   3.867   9.094   4.643  1.0486 -0.1998  1.3102
  340MOL0     H45895   3.959   9.107   4.489 -0.3084 -1.1611 -0.8849
  340MOL0     H45896   3.904   8.702   4.513  0.2227  0.9687 -1.5899
  340MOL0     H45897   4.543   8.824   4.662 -0.8329 -0.3887  0.5694
  340MOL0     H45898   4.653   8.692   4.510 -0.6141  1.3609  0.5272
  340MOL0     H45899   4.592   8.525   4.526  0.3883  0.5801  0.4291
  340MOL0     H45900   4.557   8.628   4.385  2.4689 -0.1480  0.4789
  341MOL0     O45901   2.320  10.858   1.271 -0.0354 -0.7171  0.3566
  341MOL0     C45902   2.286  10.747   1.239  0.2500 -0.6584  0.0243
  341MOL0     O45903   2.360  10.647   1.179 -1.4569 -0.0789 -0.2362
  341MOL0     C45904   2.460  10.679   1.092  0.9954 -0.0927 -0.3319
  341MOL0     C45905   2.443  10.658   0.957 -1.2492 -0.5653  0.5349
  341MOL0     C45906   2.538  10.713   0.867  0.2861  0.0784 -0.5393
  341MOL0     C45907   2.650  10.779   0.915  0.1676  0.2304  0.5279
  341MOL0     O45908   2.737  10.816   0.822 -0.4054 -0.3390 -0.4694
  341MOL0     C45909   2.870  10.767   0.837  0.3778  0.6262 -0.2439
  341MOL0     C45910   2.919  10.716   0.702  0.1702  0.6680 -0.3482
  341MOL0     C45911   3.055  10.653   0.719  0.1589  0.4118  0.0337
  341MOL0     C45912   3.113  10.584   0.592 -0.2233 -0.3211  0.8504
  341MOL0     C45913   3.054  10.452   0.549 -0.0539 -0.0498 -0.6167
  341MOL0     C45914   3.114  10.409   0.412  0.0374 -0.5103  0.4747
  341MOL0     C45915   3.053  10.286   0.357  1.0628 -0.2551  0.0441
  341MOL0     C45916   3.142  10.232   0.233  0.0104 -1.1029 -0.1225
  341MOL0     N45917   3.121  10.325   0.121 -0.0812  0.5139 -0.6022
  341MOL0     C45918   3.191  10.421   0.060 -1.2207  0.9524 -0.1628
  341MOL0     C45919   3.124  10.457  -0.052 -0.3974 -0.2721 -1.1154
  341MOL0     C45920   3.169  10.561  -0.149  0.3142 -0.2619  0.4190
  341MOL0     C45921   3.097  10.542  -0.286 -0.3105  0.3113 -0.2233
  341MOL0     C45922   3.177  10.624  -0.388  0.6850 -0.5638 -0.4409
  341MOL0     C45923   3.132  10.606  -0.534  0.9977  0.6155 -0.5661
  341MOL0     O45924   3.146  10.478  -0.590  0.0651 -0.1418 -0.5059
  341MOL0     C45925   3.101  10.459  -0.723 -0.7191  0.5549  0.0194
  341MOL0     C45926   3.123  10.552  -0.818  0.3560 -0.2384  0.4952
  341MOL0     C45927   3.104  10.511  -0.953  0.5389  0.2908 -0.9176
  341MOL0     C45928   3.070  10.380  -0.985 -0.2450  0.4758 -0.4466
  341MOL0     C45929   3.041  10.351  -1.126  0.0638 -0.8489  0.6093
  341MOL0     O45930   3.031  10.218  -1.165  0.1174  0.8692 -0.0319
  341MOL0     C45931   3.013  10.190  -1.302 -0.6100 -0.5631 -0.2282
  341MOL0     C45932   3.119  10.193  -1.394  0.6005 -1.0779  0.3612
  341MOL0     C45933   3.086  10.144  -1.520 -0.9411 -0.6888  0.7179
  341MOL0     C45934   2.960  10.094  -1.563  0.3023 -1.0285  1.7453
  341MOL0     O45935   2.924  10.055  -1.692  0.0851 -0.3330 -0.6729
  341MOL0     C45936   3.001  10.095  -1.807  0.6735 -0.8086  0.6510
  341MOL0     C45937   3.113  10.003  -1.833 -0.2978  0.7440 -0.4631
  341MOL0     C45938   3.165  10.031  -1.972  0.1847 -0.4368  0.0179
  341MOL0     C45939   3.255   9.930  -2.043 -0.2330 -1.2747 -1.3335
  341MOL0     C45940   3.228   9.906  -2.190 -0.0760  0.4571 -0.4262
  341MOL0     C45941   3.285  10.019  -2.281 -0.8988  0.5353 -0.3593
  341MOL0     C45942   3.247   9.988  -2.428 -0.5933  0.4385  0.2220
  341MOL0     C45943   3.325  10.055  -2.542  0.8715 -0.3480 -0.5128
  341MOL0    Cl45944   3.489   9.979  -2.564 -0.3766  0.3819  0.2530
  341MOL0     C45945   2.856  10.105  -1.475  0.2730 -0.5204 -0.2216
  341MOL0     C45946   2.882  10.140  -1.343 -0.9777  0.8029 -0.5830
  341MOL0     O45947   3.017  10.449  -1.196 -0.4551  1.2522  0.9632
  341MOL0     C45948   3.043  10.281  -0.881 -0.0478 -0.1708 -0.5194
  341MOL0     C45949   3.057  10.325  -0.748 -0.6733  0.3604 -0.0469
  341MOL0     N45950   3.010  10.380  -0.060 -0.0324 -0.1444 -0.1722
  341MOL0     N45951   3.004  10.304   0.047 -0.2759  0.1435 -1.4163
  341MOL0     C45952   2.670  10.792   1.054  0.9487  1.3744  0.0905
  341MOL0     C45953   2.568  10.747   1.139  0.0425  0.7778 -0.4115
  341MOL0     C45954   2.135  10.703   1.262 -1.3828  0.0963  0.4853
  341MOL0     C45955   2.094  10.593   1.188  0.8988 -0.1466  1.5497
  341MOL0     C45956   1.961  10.554   1.188 -1.2136 -0.6586 -0.7620
  341MOL0     C45957   1.867  10.633   1.252  0.3374 -0.3201 -0.0574
  341MOL0     O45958   1.738  10.589   1.244 -0.6346  0.0035  0.2662
  341MOL0     C45959   1.688  10.584   1.106  0.2308  0.7495  0.0556
  341MOL0     C45960   1.569  10.492   1.094 -0.5435  0.3563  0.0169
  341MOL0     C45961   1.472  10.487   1.209  0.1184  0.1474 -0.5479
  341MOL0     C45962   1.394  10.626   1.224 -0.2392  1.1184  0.8608
  341MOL0     C45963   1.256  10.620   1.269  0.7493 -0.2045 -0.1762
  341MOL0     C45964   1.132  10.635   1.300 -1.3072  0.0327  0.8344
  341MOL0     C45965   1.906  10.742   1.329 -1.3009 -0.2884 -0.0535
  341MOL0     C45966   2.046  10.783   1.332 -0.1041  1.3557  0.6585
  341MOL0     C45967   2.071  10.910   1.395 -0.1323 -0.7359 -1.1898
  341MOL0     H45968   2.352  10.608   0.928 -1.6975  0.0695  0.8063
  341MOL0     H45969   2.544  10.697   0.759 -0.5590  2.6604 -1.0275
  341MOL0     H45970   2.927  10.853   0.871 -0.1544  0.1431  2.0206
  341MOL0     H45971   2.885  10.696   0.918 -2.2561  2.5971  2.1841
  341MOL0     H45972   2.926  10.800   0.632  2.1643 -0.0945 -1.1318
  341MOL0     H45973   2.851  10.640   0.663 -2.8628  1.5093  2.7292
  341MOL0     H45974   3.038  10.570   0.788 -0.5727 -1.8068 -2.6736
  341MOL0     H45975   3.121  10.734   0.753 -2.4285  1.8111  2.0895
  341MOL0     H45976   3.114  10.658   0.512  1.0089 -2.5287 -1.2888
  341MOL0     H45977   3.220  10.573   0.612  0.3153  0.5036 -1.2826
  341MOL0     H45978   3.079  10.375   0.623 -0.0245 -1.5011 -2.0663
  341MOL0     H45979   2.948  10.475   0.538 -0.7777 -2.6577  0.0622
  341MOL0     H45980   3.095  10.497   0.350 -3.0630 -1.4371 -0.0800
  341MOL0     H45981   3.223  10.397   0.416  0.0545 -0.5017  5.4291
  341MOL0     H45982   2.951  10.315   0.332  1.7569  0.8675 -1.6625
  341MOL0     H45983   3.047  10.222   0.445 -2.3528  1.0040  0.9012
  341MOL0     H45984   3.247  10.229   0.265  0.6022 -1.0818 -1.9373
  341MOL0     H45985   3.117  10.128   0.212  3.9468 -3.0049  3.1400
  341MOL0     H45986   3.286  10.466   0.086  0.0760 -2.0932  0.8142
  341MOL0     H45987   3.154  10.660  -0.106  1.9283  0.4946 -0.6974
  341MOL0     H45988   3.275  10.538  -0.165  0.0068 -1.4660  0.0060
  341MOL0     H45989   3.110  10.435  -0.306 -2.0607  0.1479 -0.5988
  341MOL0     H45990   2.990  10.563  -0.281 -0.3307  0.2958 -0.5553
  341MOL0     H45991   3.281  10.590  -0.398  1.1192  0.1168  1.4384
  341MOL0     H45992   3.181  10.732  -0.372  3.1855 -0.5071 -0.9778
  341MOL0     H45993   3.194  10.684  -0.580  2.2010  0.1292  0.1845
  341MOL0     H45994   3.026  10.627  -0.548  0.1813 -1.3099  1.8969
  341MOL0     H45995   3.162  10.651  -0.797  2.0041 -1.1256  1.8404
  341MOL0     H45996   3.110  10.587  -1.030 -0.4296  1.6697  0.3128
  341MOL0     H45997   3.214  10.241  -1.374  0.2070 -0.1993  0.1617
  341MOL0     H45998   3.171  10.163  -1.585 -0.9266  3.4099  1.6754
  341MOL0     H45999   2.936  10.103  -1.894  0.4842  4.1166  0.9866
  341MOL0     H46000   3.036  10.197  -1.789 -0.2331  0.1095 -2.3592
  341MOL0     H46001   3.204  10.008  -1.773  0.4220  2.9711 -1.6440
  341MOL0     H46002   3.069   9.902  -1.834  1.8830 -0.3854  2.6908
  341MOL0     H46003   3.078  10.054  -2.033 -0.5839  2.8746  2.0930
  341MOL0     H46004   3.218  10.126  -1.959 -1.0311  0.1700  0.6851
  341MOL0     H46005   3.242   9.836  -1.988 -1.5595 -0.5905 -0.3984
  341MOL0     H46006   3.360   9.960  -2.042 -0.0209 -1.8274 -3.5789
  341MOL0     H46007   3.121   9.890  -2.203 -0.1724 -2.3037  2.6169
  341MOL0     H46008   3.271   9.807  -2.206 -2.4876 -0.8855  0.8861
  341MOL0     H46009   3.247  10.116  -2.249  2.1119  2.2266 -1.5172
  341MOL0     H46010   3.394  10.006  -2.276 -0.4644  3.0121 -1.7876
  341MOL0     H46011   3.141  10.012  -2.443 -1.3844 -2.9751 -0.5471
  341MOL0     H46012   3.259   9.881  -2.445  1.1068  0.6984 -0.4274
  341MOL0     H46013   3.277  10.052  -2.641  3.9756  1.1846 -2.2411
  341MOL0     H46014   3.332  10.161  -2.515 -2.2908 -0.1003 -0.2798
  341MOL0     H46015   2.759  10.072  -1.511 -1.1826  1.9099  1.2577
  341MOL0     H46016   2.807  10.126  -1.266 -1.5621 -2.0951 -1.5583
  341MOL0     H46017   3.018  10.181  -0.913  1.1736 -1.1777  1.5160
  341MOL0     H46018   3.059  10.268  -0.655  0.6692 -1.7554 -1.2836
  341MOL0     H46019   2.758  10.850   1.076  2.3832  0.6884 -3.1542
  341MOL0     H46020   2.570  10.754   1.247  1.8290 -1.6114 -0.2140
  341MOL0     H46021   2.156  10.539   1.117 -1.1755  0.5955 -0.9974
  341MOL0     H46022   1.938  10.465   1.130  0.3873 -0.1129 -2.3604
  341MOL0     H46023   1.765  10.559   1.032  1.7717  0.3352  1.7254
  341MOL0     H46024   1.645  10.682   1.085  1.4574  0.8808 -2.0863
  341MOL0     H46025   1.612  10.394   1.075  1.3632  0.9948  0.7468
  341MOL0     H46026   1.512  10.511   1.002 -0.1967 -0.8910 -0.4802
  341MOL0     H46027   1.520  10.462   1.304  3.3372  0.4605 -1.9845
  341MOL0     H46028   1.392  10.416   1.186  1.1397 -1.1820 -0.1610
  341MOL0     H46029   1.448  10.689   1.295  2.2007  1.2473 -1.0040
  341MOL0     H46030   1.404  10.685   1.132  0.7298  0.1244  0.3016
  341MOL0     H46031   1.028  10.642   1.325 -2.3809  1.8400 -3.2888
  341MOL0     H46032   1.831  10.812   1.365 -2.1901 -0.7600 -0.9340
  341MOL0     H46033   2.154  10.893   1.465 -0.1823 -1.3509 -1.2789
  341MOL0     H46034   2.105  10.991   1.329 -1.7443 -1.7244 -3.3125
  341MOL0     H46035   1.992  10.945   1.462 -0.3528 -2.0787 -0.7313
  342MOL0     O46036  10.239  11.506   3.200  0.4489  0.4474  0.3835
  342MOL0     C46037  10.281  11.484   3.085 -0.6271  0.6359 -1.4608
  342MOL0     O46038  10.355  11.579   3.019  0.0659  0.9502 -0.6273
  342MOL0     C46039  10.447  11.644   3.097  0.0935  0.2128 -0.1645
  342MOL0     C46040  10.548  11.573   3.155 -0.7274 -0.7730  0.1483
  342MOL0     C46041  10.651  11.632   3.230  1.4761 -0.1176 -0.7004
  342MOL0     C46042  10.657  11.774   3.247 -0.1327 -0.3104 -0.2192
  342MOL0     O46043  10.764  11.833   3.315 -1.5726  0.1479  0.1902
  342MOL0     C46044  10.890  11.809   3.244  0.0213  0.4197  0.4838
  342MOL0     C46045  10.997  11.916   3.240  0.2290 -0.1999 -1.0589
  342MOL0     C46046  10.927  12.056   3.240 -0.0324  0.0738  0.2344
  342MOL0     C46047  11.043  12.161   3.235  1.0898 -0.1621  0.0661
  342MOL0     C46048  11.000  12.299   3.218 -0.6825 -1.2128  0.5012
  342MOL0     C46049  11.121  12.398   3.242 -1.1997  0.6813  0.4209
  342MOL0     C46050  11.074  12.549   3.223 -0.2625  0.2153 -0.1082
  342MOL0     C46051  11.187  12.637   3.263 -0.5354 -0.9111 -0.1105
  342MOL0     N46052  11.172  12.775   3.212  0.3343 -0.4083  0.1113
  342MOL0     C46053  11.272  12.823   3.129 -0.3263 -0.9914  0.4697
  342MOL0     C46054  11.232  12.949   3.098  1.1055 -0.1681 -0.4283
  342MOL0     C46055  11.293  13.038   2.988  0.5311  0.1312 -0.1007
  342MOL0     C46056  11.325  13.176   3.040  0.3144  0.3613  0.4859
  342MOL0     C46057  11.386  13.257   2.928  0.4303  0.4071  0.0228
  342MOL0     C46058  11.395  13.403   2.960  0.7033  0.0185 -0.2581
  342MOL0     O46059  11.494  13.459   2.871  0.4318 -1.1903  0.1913
  342MOL0     C46060  11.523  13.595   2.882 -0.5808 -0.6457  1.1299
  342MOL0     C46061  11.448  13.688   2.824  0.1125  0.5276  0.0035
  342MOL0     C46062  11.493  13.817   2.842  0.3578  0.2638  0.1765
  342MOL0     C46063  11.597  13.861   2.922 -0.2149  0.6374 -1.0069
  342MOL0     C46064  11.645  14.002   2.918  0.8962 -0.6898  0.4834
  342MOL0     O46065  11.569  14.092   2.853 -0.0334  0.1832 -0.4380
  342MOL0     C46066  11.626  14.220   2.840 -0.0123 -0.4888 -0.1407
  342MOL0     C46067  11.660  14.278   2.718 -0.0989 -1.1993  1.0537
  342MOL0     C46068  11.721  14.402   2.706  0.7989 -0.7192  0.1344
  342MOL0     C46069  11.724  14.491   2.817  0.9786  0.8402 -0.4363
  342MOL0     O46070  11.759  14.624   2.808  0.3588 -0.4994  0.4753
  342MOL0     C46071  11.658  14.711   2.837  0.6322 -0.1369  0.1633
  342MOL0     C46072  11.736  14.827   2.905 -0.0725  0.3598 -0.0940
  342MOL0     C46073  11.644  14.934   2.951  0.7696  0.3722 -0.0538
  342MOL0     C46074  11.642  15.044   2.850  0.4987 -0.1553  0.3362
  342MOL0     C46075  11.529  15.152   2.875  0.2486 -1.1434  0.0949
  342MOL0     C46076  11.389  15.114   2.827 -0.1982  0.9462  0.1361
  342MOL0     C46077  11.273  15.206   2.871 -0.8924  0.4970  1.0472
  342MOL0     C46078  11.310  15.358   2.886 -0.1501  0.8477 -0.9309
  342MOL0    Cl46079  11.183  15.451   2.961  0.2059 -0.3440 -0.4427
  342MOL0     C46080  11.673  14.433   2.943  0.2935 -0.1708 -0.7270
  342MOL0     C46081  11.633  14.298   2.963  0.3009 -0.4956 -0.2319
  342MOL0     O46082  11.758  14.022   2.975  0.9426 -1.1371 -0.8514
  342MOL0     C46083  11.669  13.766   2.981  0.1719  0.6327  0.6821
  342MOL0     C46084  11.635  13.634   2.966  1.0749 -0.6854  0.0430
  342MOL0     N46085  11.110  12.977   3.169 -0.0156  0.5987  0.2191
  342MOL0     N46086  11.073  12.866   3.232 -0.2312  0.2458  0.4088
  342MOL0     C46087  10.552  11.847   3.204 -0.0845 -0.2597  0.8456
  342MOL0     C46088  10.444  11.778   3.131  0.3319  0.3644 -0.1259
  342MOL0     C46089  10.242  11.365   3.009 -0.7144  0.3679  0.8075
  342MOL0     C46090  10.204  11.391   2.873 -0.3501  0.1359 -0.1187
  342MOL0     C46091  10.172  11.288   2.789 -0.6144  0.0758 -0.0959
  342MOL0     C46092  10.175  11.152   2.826  0.4685  0.1950  0.7484
  342MOL0     O46093  10.133  11.059   2.729 -0.0876  0.5107 -0.6687
  342MOL0     C46094  10.099  10.923   2.780 -0.3419 -0.5585 -0.1920
  342MOL0     C46095  10.236  10.846   2.787  0.2971  0.7851  0.0026
  342MOL0     C46096  10.229  10.696   2.809  0.4300  0.2508 -0.5955
  342MOL0     C46097  10.185  10.656   2.950 -0.3721 -0.0306 -0.3474
  342MOL0     C46098  10.288  10.700   3.051  0.0126  0.0069 -0.8929
  342MOL0     C46099  10.363  10.721   3.151  0.7921 -0.4101 -1.1092
  342MOL0     C46100  10.203  11.126   2.956  0.7764  0.2226 -0.0995
  342MOL0     C46101  10.244  11.231   3.042  0.5661  0.2233 -0.2105
  342MOL0     C46102  10.283  11.190   3.177  0.5895  0.5762 -0.4256
  342MOL0     H46103  10.554  11.468   3.132  0.9803 -1.6834  3.9147
  342MOL0     H46104  10.725  11.563   3.270  1.2020 -0.4697 -0.7979
  342MOL0     H46105  10.945  11.727   3.292  5.1028  1.6982 -2.3977
  342MOL0     H46106  10.858  11.778   3.144  0.3130 -2.7270  1.2590
  342MOL0     H46107  11.059  11.898   3.152  1.5778  0.7356 -0.3453
  342MOL0     H46108  11.051  11.898   3.334  0.6402 -1.5406 -1.5311
  342MOL0     H46109  10.869  12.072   3.332  2.0801 -1.1001  1.8509
  342MOL0     H46110  10.860  12.047   3.154 -1.1505 -3.2810  1.3011
  342MOL0     H46111  11.093  12.165   3.333  0.7945 -1.7585  0.3217
  342MOL0     H46112  11.110  12.145   3.150  0.0127  1.2576 -1.0859
  342MOL0     H46113  10.958  12.319   3.119  0.8336  1.9866  0.3801
  342MOL0     H46114  10.924  12.323   3.292 -2.3417 -1.5393 -1.0329
  342MOL0     H46115  11.146  12.382   3.347  1.2334  0.0426 -0.1979
  342MOL0     H46116  11.214  12.377   3.188 -0.6044  4.2874 -0.2334
  342MOL0     H46117  10.989  12.565   3.289 -0.2335 -5.0693  1.7394
  342MOL0     H46118  11.045  12.565   3.119 -3.0835  0.0403  0.5934
  342MOL0     H46119  11.198  12.631   3.371  0.8778 -0.9939 -0.2403
  342MOL0     H46120  11.273  12.589   3.215 -1.2762 -2.7099  0.2844
  342MOL0     H46121  11.354  12.767   3.084 -0.3603  0.2881 -1.3278
  342MOL0     H46122  11.383  12.994   2.946 -0.5860 -3.2786  0.7767
  342MOL0     H46123  11.225  13.049   2.903 -0.1151  0.9529  0.5034
  342MOL0     H46124  11.230  13.221   3.072 -1.3597 -2.4691 -0.1449
  342MOL0     H46125  11.400  13.177   3.120  1.8831  0.2540 -0.9414
  342MOL0     H46126  11.330  13.249   2.835  1.2705 -0.1487 -0.4464
  342MOL0     H46127  11.484  13.212   2.908 -1.3642 -2.8277 -2.4237
  342MOL0     H46128  11.423  13.404   3.066  0.4072 -2.2961 -0.1075
  342MOL0     H46129  11.294  13.440   2.944 -0.6034 -3.6351 -1.6079
  342MOL0     H46130  11.356  13.671   2.768  1.0386  0.6102 -1.5988
  342MOL0     H46131  11.441  13.895   2.786 -0.1224  0.6599  1.1499
  342MOL0     H46132  11.659  14.225   2.622 -0.5829  0.2474  0.2311
  342MOL0     H46133  11.743  14.429   2.603 -1.7809 -1.0087 -0.5570
  342MOL0     H46134  11.605  14.744   2.746 -0.1004  1.6895  1.1945
  342MOL0     H46135  11.580  14.674   2.904 -1.9474  0.7986 -2.1006
  342MOL0     H46136  11.790  14.782   2.988  0.0571 -1.0653 -0.9149
  342MOL0     H46137  11.807  14.874   2.835  2.7947 -2.6107  0.5940
  342MOL0     H46138  11.541  14.901   2.967  0.7974  0.1763 -0.2631
  342MOL0     H46139  11.666  14.966   3.053 -3.4825 -0.8221  1.4312
  342MOL0     H46140  11.614  14.997   2.755 -4.8505  1.1280  0.9565
  342MOL0     H46141  11.742  15.089   2.845  1.8639 -2.9741  0.2362
  342MOL0     H46142  11.554  15.245   2.823  2.0100 -0.7455  1.5375
  342MOL0     H46143  11.525  15.180   2.981  1.7982  0.7752 -0.3046
  342MOL0     H46144  11.397  15.108   2.718 -0.9147 -1.6492  0.1612
  342MOL0     H46145  11.368  15.009   2.848 -0.5814  1.3458  1.8702
  342MOL0     H46146  11.229  15.170   2.965  1.7882  0.2476  2.3023
  342MOL0     H46147  11.190  15.183   2.804 -1.6993 -1.6118  2.6557
  342MOL0     H46148  11.405  15.382   2.935 -0.3777  2.9920 -1.4352
  342MOL0     H46149  11.319  15.389   2.782 -0.5567  4.0698 -0.1145
  342MOL0     H46150  11.673  14.496   3.031 -1.0593 -2.0722  0.7189
  342MOL0     H46151  11.587  14.262   3.054 -1.3698  0.0385 -0.8167
  342MOL0     H46152  11.747  13.781   3.055 -0.8314  3.3948  1.2955
  342MOL0     H46153  11.691  13.558   3.019  2.9172  1.0633  0.7480
  342MOL0     H46154  10.546  11.955   3.212  1.5079 -0.1297  0.5576
  342MOL0     H46155  10.361  11.835   3.091  0.7996  1.5863  0.6006
  342MOL0     H46156  10.201  11.492   2.832  0.4664 -0.3990 -1.5807
  342MOL0     H46157  10.156  11.314   2.685 -2.6246 -2.4796 -0.5231
  342MOL0     H46158  10.037  10.875   2.704  0.3200 -3.2630  0.8370
  342MOL0     H46159  10.046  10.918   2.876  0.7016 -3.3744  0.3530
  342MOL0     H46160  10.308  10.890   2.857  1.1435 -0.9480  0.2770
  342MOL0     H46161  10.293  10.856   2.694  0.6998  1.4833  0.3171
  342MOL0     H46162  10.326  10.657   2.776 -0.2410 -1.4975 -0.6051
  342MOL0     H46163  10.156  10.652   2.741 -1.0973 -2.3546  2.4468
  342MOL0     H46164  10.089  10.704   2.968 -1.7538 -1.5299 -3.0791
  342MOL0     H46165  10.184  10.547   2.950  0.8932 -0.0595 -0.2936
  342MOL0     H46166  10.437  10.754   3.221 -0.0906  1.2516 -0.8923
  342MOL0     H46167  10.208  11.022   2.987  0.8251  0.1873 -0.2217
  342MOL0     H46168  10.355  11.253   3.230 -0.4658  1.4361  0.0190
  342MOL0     H46169  10.191  11.197   3.237  1.3043  0.9251  0.6643
  342MOL0     H46170  10.336  11.094   3.187  2.8959  1.7682 -0.6201
  343MOL0     O46171   8.938   2.229   0.652 -0.3784  0.7080 -0.4141
  343MOL0     C46172   8.876   2.206   0.748 -0.2943 -0.1411 -0.8726
  343MOL0     O46173   8.826   2.302   0.837 -0.1284 -0.3070 -0.9799
  343MOL0     C46174   8.886   2.419   0.827  0.4750 -0.1181  0.4265
  343MOL0     C46175   9.018   2.457   0.864 -0.1619 -0.3355  0.5789
  343MOL0     C46176   9.063   2.590   0.876  0.8701 -0.5856 -0.1181
  343MOL0     C46177   8.970   2.700   0.857 -0.7320  0.5562  0.6007
  343MOL0     O46178   9.017   2.819   0.875 -0.3457  0.0241  0.4389
  343MOL0     C46179   8.978   2.926   0.793  0.5325 -0.2064 -0.1056
  343MOL0     C46180   8.897   3.024   0.887  0.4588  0.3655 -0.1019
  343MOL0     C46181   8.967   3.089   1.001 -0.5298  0.0177 -1.0339
  343MOL0     C46182   8.884   3.208   1.054 -0.4586  0.9045 -0.2493
  343MOL0     C46183   8.965   3.274   1.159  0.2738  0.3447  0.1398
  343MOL0     C46184   8.901   3.406   1.197  0.2577  1.5670 -0.8257
  343MOL0     C46185   8.947   3.450   1.335 -0.1026 -0.3628 -0.4778
  343MOL0     C46186   8.846   3.550   1.394  0.1126 -0.0889 -0.6506
  343MOL0     N46187   8.743   3.497   1.481 -0.1747  0.2461  0.0191
  343MOL0     C46188   8.605   3.486   1.450  0.0448  0.0651 -0.1547
  343MOL0     C46189   8.545   3.456   1.565  0.4818  0.3533 -0.5039
  343MOL0     C46190   8.392   3.450   1.590  0.4945 -0.9216  0.4007
  343MOL0     C46191   8.341   3.588   1.620  0.0785 -1.5074  0.4068
  343MOL0     C46192   8.390   3.640   1.763  0.0205 -0.7175  0.4620
  343MOL0     C46193   8.311   3.765   1.813 -0.3348  0.2776  0.0486
  343MOL0     O46194   8.382   3.815   1.930  0.4152  0.0299 -0.7164
  343MOL0     C46195   8.290   3.870   2.019  1.0520  0.4125 -0.6272
  343MOL0     C46196   8.283   3.807   2.143 -0.0667 -0.0943 -0.0916
  343MOL0     C46197   8.209   3.867   2.241  0.4951 -0.0309 -0.7950
  343MOL0     C46198   8.137   3.980   2.219  0.2187 -0.6300  0.5617
  343MOL0     C46199   8.061   4.050   2.323  0.2481  0.1390 -0.6050
  343MOL0     O46200   7.988   4.155   2.291  0.5511  0.2070  0.2446
  343MOL0     C46201   7.911   4.233   2.377 -0.4579  1.3620  0.0999
  343MOL0     C46202   7.871   4.361   2.331  0.7171  0.2338 -1.1541
  343MOL0     C46203   7.800   4.440   2.420  0.4976  0.2581  0.2093
  343MOL0     C46204   7.747   4.389   2.544 -0.1948  0.3776  0.6173
  343MOL0     O46205   7.673   4.459   2.631  0.0320  0.9904  0.3075
  343MOL0     C46206   7.617   4.582   2.593  0.2972 -0.7790 -0.9722
  343MOL0     C46207   7.690   4.688   2.678  0.7782  0.5813 -0.6958
  343MOL0     C46208   7.675   4.675   2.833  0.1189  0.0169 -0.2243
  343MOL0     C46209   7.741   4.795   2.904  0.5320  1.0789 -0.3586
  343MOL0     C46210   7.724   4.785   3.061 -0.3805 -0.5326 -0.4808
  343MOL0     C46211   7.584   4.828   3.107 -0.2681 -0.3354  0.1553
  343MOL0     C46212   7.585   4.844   3.266  0.2754  0.7191  1.2068
  343MOL0     C46213   7.445   4.847   3.324 -0.1855 -0.2727  0.7237
  343MOL0    Cl46214   7.469   4.885   3.503  0.3607 -0.7114 -0.4136
  343MOL0     C46215   7.775   4.257   2.572  0.2238  0.4488 -0.0823
  343MOL0     C46216   7.860   4.181   2.496 -1.0056 -0.3715  0.7833
  343MOL0     O46217   8.074   3.997   2.437  0.1052 -1.1655  0.4129
  343MOL0     C46218   8.131   4.032   2.084  0.5872 -0.0053  0.1636
  343MOL0     C46219   8.204   3.971   1.982 -0.1303 -0.1253  0.4661
  343MOL0     N46220   8.649   3.443   1.661 -0.9549 -0.0517  0.0479
  343MOL0     N46221   8.764   3.474   1.614 -0.1187 -0.1805 -0.8228
  343MOL0     C46222   8.842   2.662   0.823 -0.2620 -0.3928  0.3851
  343MOL0     C46223   8.796   2.528   0.807 -0.1934 -0.1115 -0.1373
  343MOL0     C46224   8.826   2.071   0.767  0.7637  0.1961  0.4997
  343MOL0     C46225   8.741   2.045   0.873 -0.7199  0.9829  0.0654
  343MOL0     C46226   8.677   1.928   0.899 -0.2912  0.1440  1.1157
  343MOL0     C46227   8.716   1.809   0.822  0.2937 -0.7514  0.1493
  343MOL0     O46228   8.660   1.682   0.841  0.1971  0.4942  0.3693
  343MOL0     C46229   8.554   1.661   0.926  0.0972  1.0492 -0.6883
  343MOL0     C46230   8.487   1.518   0.926  0.3253  0.8933  0.4709
  343MOL0     C46231   8.571   1.401   0.985  0.9264  0.8661  0.5183
  343MOL0     C46232   8.496   1.267   0.987 -1.0131 -0.0326  0.3121
  343MOL0     C46233   8.361   1.269   1.027  1.1873  0.8143  1.2969
  343MOL0     C46234   8.246   1.275   1.070  0.2011 -0.4793  0.2555
  343MOL0     C46235   8.796   1.837   0.708 -0.3901 -0.8311  0.0103
  343MOL0     C46236   8.852   1.960   0.679  1.2942 -0.1242  0.3913
  343MOL0     C46237   8.937   1.972   0.547 -0.8494 -0.2950 -0.3443
  343MOL0     H46238   9.084   2.375   0.890  0.5830  0.4899  1.3474
  343MOL0     H46239   9.164   2.601   0.916  1.5251 -4.8752 -0.1050
  343MOL0     H46240   9.061   2.973   0.740 -0.8240  0.0788 -2.0908
  343MOL0     H46241   8.911   2.893   0.713  2.4628 -1.9096 -1.1370
  343MOL0     H46242   8.806   2.976   0.922  0.9797 -0.8007 -0.3144
  343MOL0     H46243   8.861   3.103   0.820 -3.6456 -0.5133  0.8111
  343MOL0     H46244   9.060   3.124   0.955 -0.6361  0.6190 -0.8007
  343MOL0     H46245   8.985   3.012   1.077  1.2404  1.8425  0.4935
  343MOL0     H46246   8.852   3.285   0.984  1.2741  2.2879  0.4181
  343MOL0     H46247   8.800   3.169   1.113  0.3614 -1.3877 -0.5183
  343MOL0     H46248   8.967   3.217   1.252 -0.2475 -0.5932 -0.4017
  343MOL0     H46249   9.064   3.305   1.122  1.3063 -1.5553  1.1573
  343MOL0     H46250   8.917   3.481   1.119  1.1123  1.0797 -1.1257
  343MOL0     H46251   8.795   3.377   1.206  1.1334 -1.9081  0.0239
  343MOL0     H46252   9.043   3.496   1.311  0.4161 -1.6174 -0.8756
  343MOL0     H46253   8.964   3.363   1.400 -1.0646 -2.1842 -2.5076
  343MOL0     H46254   8.889   3.628   1.456 -1.0958  0.8201 -0.9111
  343MOL0     H46255   8.814   3.608   1.307  0.2493  2.3241  0.8324
  343MOL0     H46256   8.545   3.512   1.364 -0.7399 -1.6836 -0.1831
  343MOL0     H46257   8.345   3.405   1.502 -1.1352  1.9810 -0.3411
  343MOL0     H46258   8.384   3.386   1.678 -1.4059  0.5191  1.3461
  343MOL0     H46259   8.357   3.658   1.537  2.3021 -2.2496  0.1442
  343MOL0     H46260   8.234   3.587   1.646  0.1164  4.4574  2.2278
  343MOL0     H46261   8.492   3.676   1.746  0.3411 -2.2522 -1.2379
  343MOL0     H46262   8.378   3.560   1.837  0.6392 -1.5399 -0.2920
  343MOL0     H46263   8.211   3.728   1.837 -0.7612 -0.8118 -2.9740
  343MOL0     H46264   8.299   3.832   1.727 -3.6409  0.4964  0.5281
  343MOL0     H46265   8.357   3.736   2.180 -0.4807 -0.2445  0.4644
  343MOL0     H46266   8.219   3.832   2.343 -2.0183 -1.3414 -0.9234
  343MOL0     H46267   7.901   4.390   2.231  1.5092  2.5929 -0.2953
  343MOL0     H46268   7.790   4.539   2.378  0.0466 -1.0439 -3.0550
  343MOL0     H46269   7.618   4.601   2.485 -0.1303  3.2076 -0.4200
  343MOL0     H46270   7.516   4.595   2.632  1.0126  2.0914  0.2105
  343MOL0     H46271   7.796   4.689   2.654  1.2647 -2.9319  0.7421
  343MOL0     H46272   7.638   4.780   2.648 -0.6535 -1.4598 -5.3330
  343MOL0     H46273   7.567   4.672   2.850  0.4557 -3.4269  2.4546
  343MOL0     H46274   7.727   4.586   2.868  1.3227  0.9776  0.5246
  343MOL0     H46275   7.692   4.882   2.860  1.6079  0.1867 -3.5981
  343MOL0     H46276   7.850   4.805   2.894  1.1712 -1.6005  2.3528
  343MOL0     H46277   7.801   4.849   3.105 -0.7262  1.8624 -3.0794
  343MOL0     H46278   7.746   4.683   3.095 -1.1942  0.1327  2.2471
  343MOL0     H46279   7.563   4.927   3.067  1.6893  0.8213  1.7725
  343MOL0     H46280   7.504   4.761   3.075 -0.7383  0.1852  0.2374
  343MOL0     H46281   7.638   4.935   3.297  2.6152  0.0272 -0.4284
  343MOL0     H46282   7.635   4.752   3.299 -0.6955 -0.5476 -0.6449
  343MOL0     H46283   7.386   4.926   3.277  0.8638 -0.2336 -0.5921
  343MOL0     H46284   7.402   4.747   3.326 -1.6650  0.3141  0.1366
  343MOL0     H46285   7.731   4.227   2.666 -0.8796  0.6076 -0.5386
  343MOL0     H46286   7.894   4.085   2.533 -0.9393 -0.2786  0.9617
  343MOL0     H46287   8.069   4.119   2.068 -1.1211 -0.7958  2.0857
  343MOL0     H46288   8.220   4.013   1.883  2.2476 -2.6663 -0.3392
  343MOL0     H46289   8.782   2.750   0.802  3.6631  2.7532  1.1691
  343MOL0     H46290   8.693   2.506   0.783  0.0141 -1.3902  0.0521
  343MOL0     H46291   8.717   2.123   0.944  1.3238 -1.0896  3.2504
  343MOL0     H46292   8.596   1.909   0.968 -2.2935 -2.8959 -1.7625
  343MOL0     H46293   8.484   1.741   0.899  1.1916  1.4599 -2.5103
  343MOL0     H46294   8.587   1.669   1.030  0.2156  0.3017 -0.6623
  343MOL0     H46295   8.454   1.495   0.824  2.6903  0.6630 -0.3065
  343MOL0     H46296   8.395   1.522   0.985 -0.3044  0.8247 -0.4728
  343MOL0     H46297   8.609   1.428   1.084  1.4939 -2.3649  1.2873
  343MOL0     H46298   8.657   1.390   0.919  0.9348 -1.4353  0.8076
  343MOL0     H46299   8.509   1.221   0.889  2.0024  1.0888  0.0796
  343MOL0     H46300   8.551   1.202   1.055  0.9867  2.0247  0.7892
  343MOL0     H46301   8.149   1.289   1.114 -0.0125 -0.2937 -0.2640
  343MOL0     H46302   8.819   1.752   0.644  0.5767 -2.0949  1.9202
  343MOL0     H46303   9.037   2.014   0.555 -0.3753 -0.9026 -2.4080
  343MOL0     H46304   8.963   1.870   0.517 -1.6695 -0.3030 -1.0793
  343MOL0     H46305   8.881   2.026   0.470 -3.4512 -0.8648  1.0372
  344MOL0     O46306  10.952   1.148   8.299  0.6443 -0.5695 -0.7906
  344MOL0     C46307  11.073   1.122   8.319  0.4576  1.6531 -0.8896
  344MOL0     O46308  11.162   1.120   8.223  0.8174 -0.0626  0.4494
  344MOL0     C46309  11.134   1.209   8.118  0.8194  0.1064 -0.4389
  344MOL0     C46310  11.106   1.351   8.138  0.0310  0.1522  1.1231
  344MOL0     C46311  11.086   1.438   8.022 -0.0274 -0.5724  0.0902
  344MOL0     C46312  11.082   1.381   7.892  0.6115  0.0654 -0.2005
  344MOL0     O46313  11.065   1.454   7.779  0.0892 -0.2212 -0.2028
  344MOL0     C46314  10.954   1.562   7.775 -0.3833 -0.6328 -0.1986
  344MOL0     C46315  10.935   1.646   7.644 -0.5382  0.3801  0.0742
  344MOL0     C46316  10.864   1.782   7.646 -0.3251 -0.5059 -0.6554
  344MOL0     C46317  10.913   1.872   7.755  0.1168 -0.9827  0.9739
  344MOL0     C46318  10.864   2.023   7.732 -0.2749  0.0724 -0.4962
  344MOL0     C46319  10.711   2.041   7.757  0.6128  0.8432  1.7330
  344MOL0     C46320  10.681   2.186   7.816 -1.0805  0.3918  0.5486
  344MOL0     C46321  10.759   2.300   7.746 -0.0462 -0.3685  0.2472
  344MOL0     N46322  10.724   2.436   7.787  1.2177 -0.1995  0.4314
  344MOL0     C46323  10.606   2.497   7.755  1.1292  1.2386 -0.7804
  344MOL0     C46324  10.607   2.614   7.816 -0.6433 -0.2610 -0.5364
  344MOL0     C46325  10.496   2.717   7.809  0.0867 -0.1938  0.2004
  344MOL0     C46326  10.544   2.839   7.727 -0.8882 -0.4708  0.2625
  344MOL0     C46327  10.619   2.790   7.604  0.0116  0.0156 -0.4621
  344MOL0     C46328  10.626   2.897   7.493  0.0288  0.3585  0.0311
  344MOL0     O46329  10.635   2.830   7.373 -0.3089 -0.0088 -0.0802
  344MOL0     C46330  10.746   2.782   7.322  0.6505 -0.4511 -0.5166
  344MOL0     C46331  10.859   2.773   7.392 -0.2182 -0.8057  0.2954
  344MOL0     C46332  10.966   2.710   7.329 -0.7704 -0.4781 -0.2392
  344MOL0     C46333  10.948   2.642   7.206  0.0989  0.6227 -0.0337
  344MOL0     C46334  11.055   2.556   7.142  0.3271  0.1747 -0.4339
  344MOL0     O46335  11.187   2.575   7.182 -0.4167  0.2475 -0.2520
  344MOL0     C46336  11.282   2.473   7.166  0.1220 -0.0823 -0.2468
  344MOL0     C46337  11.279   2.372   7.068  0.7592 -0.5712 -0.9317
  344MOL0     C46338  11.381   2.278   7.068 -0.5786 -0.9471 -0.4270
  344MOL0     C46339  11.488   2.276   7.157  0.5085 -0.7320 -0.6663
  344MOL0     O46340  11.589   2.190   7.159 -0.3374  0.2422 -0.2368
  344MOL0     C46341  11.580   2.074   7.078 -0.8025 -0.2170  0.2022
  344MOL0     C46342  11.692   1.982   7.117 -0.1857  0.3198 -0.1241
  344MOL0     C46343  11.686   1.845   7.043  0.1813 -0.7121 -0.9480
  344MOL0     C46344  11.785   1.748   7.112 -0.2938  0.1467 -1.1896
  344MOL0     C46345  11.777   1.617   7.043 -0.1903 -0.0161 -0.1412
  344MOL0     C46346  11.866   1.515   7.114 -0.8642  0.4750  0.1900
  344MOL0     C46347  11.889   1.393   7.019 -0.8640 -0.0523  0.1683
  344MOL0     C46348  11.987   1.282   7.067 -1.0147 -0.5756  0.2392
  344MOL0    Cl46349  11.920   1.211   7.214  0.0528 -0.5252  0.0854
  344MOL0     C46350  11.497   2.392   7.234 -0.4899  0.9646 -0.6703
  344MOL0     C46351  11.394   2.489   7.246  0.0233  1.0663 -0.8395
  344MOL0     O46352  11.011   2.489   7.052  0.2735 -0.0127  0.3600
  344MOL0     C46353  10.817   2.651   7.139  0.8054  0.0828  0.2221
  344MOL0     C46354  10.723   2.720   7.197  0.0769  0.1325 -0.9164
  344MOL0     N46355  10.728   2.629   7.886  0.1228  0.3973  0.3369
  344MOL0     N46356  10.792   2.517   7.864 -0.5710  0.0545  0.3873
  344MOL0     C46357  11.103   1.242   7.884 -0.2402 -0.6942  0.4767
  344MOL0     C46358  11.132   1.163   7.993 -0.7238  0.5176  0.6175
  344MOL0     C46359  11.115   1.089   8.463  0.2125 -0.2472 -0.6050
  344MOL0     C46360  11.248   1.052   8.483  0.2043  0.5937 -0.7818
  344MOL0     C46361  11.298   1.028   8.619 -0.0046 -0.3236  0.6790
  344MOL0     C46362  11.210   1.036   8.734 -0.0518 -1.4560  0.2370
  344MOL0     O46363  11.270   1.017   8.849  0.3454 -0.1021  0.7455
  344MOL0     C46364  11.221   1.096   8.963  0.2142 -0.1572  0.2479
  344MOL0     C46365  11.267   1.243   8.945  1.1409  0.9609 -0.3202
  344MOL0     C46366  11.285   1.335   9.059  0.2252  0.1337 -0.7119
  344MOL0     C46367  11.150   1.374   9.130  0.2997  0.5190 -0.3636
  344MOL0     C46368  11.188   1.374   9.273  0.8702 -0.2228  0.2696
  344MOL0     C46369  11.233   1.386   9.385  0.1711 -0.5658 -0.5541
  344MOL0     C46370  11.079   1.074   8.711 -0.6294 -0.6025  0.7752
  344MOL0     C46371  11.027   1.104   8.581  0.4274  0.3422  1.2334
  344MOL0     C46372  10.869   1.126   8.578 -0.5024 -0.1179 -0.4332
  344MOL0     H46373  11.112   1.388   8.240  3.4344  0.8037  0.8170
  344MOL0     H46374  11.083   1.546   8.038 -0.6379 -0.9273  3.0940
  344MOL0     H46375  10.856   1.519   7.799 -0.6876 -0.2230 -0.7001
  344MOL0     H46376  10.986   1.636   7.849  2.7780  0.6857 -2.6678
  344MOL0     H46377  10.881   1.578   7.578  4.0517 -2.7969 -0.8211
  344MOL0     H46378  11.037   1.648   7.605 -0.8663 -0.3105 -0.8426
  344MOL0     H46379  10.755   1.782   7.657 -0.0888 -1.2028  2.9843
  344MOL0     H46380  10.889   1.829   7.550  0.0320 -4.3115 -2.5888
  344MOL0     H46381  10.859   1.853   7.848 -2.3344  5.5987  1.4482
  344MOL0     H46382  11.022   1.875   7.760  0.7154  0.8209 -5.1325
  344MOL0     H46383  10.920   2.086   7.801  0.0942 -1.3193  0.5155
  344MOL0     H46384  10.907   2.058   7.638  5.3084 -1.8414  0.9463
  344MOL0     H46385  10.663   2.029   7.659  2.5212  1.4508  0.6649
  344MOL0     H46386  10.672   1.963   7.822 -2.6708 -0.0301 -1.0307
  344MOL0     H46387  10.685   2.191   7.926 -0.8226  0.1979  0.5492
  344MOL0     H46388  10.574   2.204   7.805 -0.8074  1.6839 -0.2472
  344MOL0     H46389  10.864   2.292   7.778  0.1086 -0.4554 -0.2841
  344MOL0     H46390  10.759   2.288   7.638  3.5713  0.7162 -0.0325
  344MOL0     H46391  10.530   2.447   7.695  0.9587 -0.5079  0.7848
  344MOL0     H46392  10.419   2.667   7.750  3.2980 -1.5051 -3.2892
  344MOL0     H46393  10.462   2.759   7.904  1.6864  2.9327 -0.4889
  344MOL0     H46394  10.462   2.907   7.705 -0.3053 -0.0054 -0.5608
  344MOL0     H46395  10.620   2.902   7.775 -1.3084  0.0229  0.2827
  344MOL0     H46396  10.564   2.713   7.549  0.3511  2.0202 -3.9089
  344MOL0     H46397  10.717   2.748   7.627 -1.9158 -3.2219  3.0601
  344MOL0     H46398  10.698   2.976   7.514  1.3578 -0.9034  0.3923
  344MOL0     H46399  10.530   2.949   7.495 -1.8593 -2.8256  0.3814
  344MOL0     H46400  10.885   2.809   7.491  1.3161 -1.0234  0.0072
  344MOL0     H46401  11.061   2.702   7.381 -0.3200  1.1228 -0.7509
  344MOL0     H46402  11.212   2.374   6.983 -1.2569  2.5628  0.5330
  344MOL0     H46403  11.363   2.206   6.989 -0.9097 -1.0524 -0.2559
  344MOL0     H46404  11.488   2.017   7.090  0.3694 -2.9074 -2.2632
  344MOL0     H46405  11.597   2.104   6.974 -1.5163 -0.6535 -0.0480
  344MOL0     H46406  11.785   2.035   7.096  0.1137  0.4286  1.3442
  344MOL0     H46407  11.681   1.971   7.225  0.0462  2.8060  0.2281
  344MOL0     H46408  11.589   1.795   7.042  1.3818 -3.1817 -1.9940
  344MOL0     H46409  11.715   1.864   6.939  0.4785 -0.7676 -0.8775
  344MOL0     H46410  11.763   1.735   7.218  1.1575  1.6558 -0.6600
  344MOL0     H46411  11.884   1.795   7.111 -0.5511  0.7765  0.3882
  344MOL0     H46412  11.798   1.621   6.936  0.4187 -1.2463 -0.0836
  344MOL0     H46413  11.684   1.560   7.050  2.8693 -5.7368 -0.1796
  344MOL0     H46414  11.960   1.562   7.144 -0.4906 -0.3886  0.3984
  344MOL0     H46415  11.811   1.492   7.205 -0.3957 -3.8336 -0.4366
  344MOL0     H46416  11.941   1.430   6.930 -0.6755 -1.7119 -0.4450
  344MOL0     H46417  11.791   1.349   6.998 -0.8042 -0.1072  0.0047
  344MOL0     H46418  12.013   1.211   6.988 -0.2013  1.5420 -1.4946
  344MOL0     H46419  12.073   1.342   7.100 -0.1241 -1.5800 -0.2142
  344MOL0     H46420  11.589   2.411   7.289  0.1706  1.1640 -1.8155
  344MOL0     H46421  11.401   2.578   7.307 -1.2251  1.6188 -1.4623
  344MOL0     H46422  10.805   2.609   7.039 -1.6829 -0.4373  0.6685
  344MOL0     H46423  10.625   2.717   7.150 -0.5602 -1.2834  0.4183
  344MOL0     H46424  11.105   1.201   7.783 -5.2691  1.2215 -0.6774
  344MOL0     H46425  11.150   1.056   7.980 -2.3263  0.3632 -0.6147
  344MOL0     H46426  11.312   1.030   8.398 -0.0550 -1.5267 -0.4625
  344MOL0     H46427  11.401   1.015   8.651  0.2072  0.5039  0.3622
  344MOL0     H46428  11.263   1.053   9.054 -1.5911 -2.2375  0.1715
  344MOL0     H46429  11.113   1.087   8.977 -0.2613  1.7729 -1.5235
  344MOL0     H46430  11.190   1.289   8.883  0.5980  0.7241  0.1633
  344MOL0     H46431  11.360   1.244   8.887  1.3839  2.7962  0.0529
  344MOL0     H46432  11.334   1.430   9.037  0.0411  0.4859  0.3175
  344MOL0     H46433  11.361   1.288   9.122  1.4882  1.2895 -1.3243
  344MOL0     H46434  11.121   1.468   9.083  0.9525  0.8624 -0.0879
  344MOL0     H46435  11.075   1.294   9.124  0.8875 -0.0861  0.0557
  344MOL0     H46436  11.260   1.388   9.488  0.0002  2.3513 -0.4905
  344MOL0     H46437  11.017   1.076   8.799 -0.5825  1.2985  0.7903
  344MOL0     H46438  10.835   1.206   8.511  2.2475  2.0368  0.5476
  344MOL0     H46439  10.830   1.026   8.556 -4.2409  0.8571  0.9377
  344MOL0     H46440  10.834   1.147   8.680 -0.3904  0.2873 -0.4762
  345MOL0     O46441   1.463   0.827   1.301 -0.5225 -0.4064 -0.0664
  345MOL0     C46442   1.465   0.767   1.408 -1.1274 -0.4762  0.3900
  345MOL0     O46443   1.556   0.674   1.447 -0.0101  0.0954 -0.2765
  345MOL0     C46444   1.633   0.623   1.351  0.3721  0.4797  0.4714
  345MOL0     C46445   1.758   0.677   1.334 -0.3634  0.5168  0.0833
  345MOL0     C46446   1.849   0.623   1.244 -0.4939  0.6779  0.9324
  345MOL0     C46447   1.815   0.514   1.160  1.3025 -0.0412  0.5741
  345MOL0     O46448   1.909   0.464   1.070 -0.1210 -0.4400  0.3624
  345MOL0     C46449   1.864   0.461   0.933  0.2276  0.1026 -0.5561
  345MOL0     C46450   1.984   0.454   0.842 -0.2939  0.6873 -0.7098
  345MOL0     C46451   1.958   0.417   0.699  0.7632 -0.6465  0.5004
  345MOL0     C46452   2.088   0.429   0.616 -0.6022  0.0165  0.7049
  345MOL0     C46453   2.154   0.573   0.596 -0.1147 -0.2639 -1.0249
  345MOL0     C46454   2.294   0.544   0.539  0.0444  0.2196 -0.2961
  345MOL0     C46455   2.384   0.675   0.541  0.0479  0.4893 -0.3524
  345MOL0     C46456   2.361   0.770   0.424  0.2117 -0.2188  0.5290
  345MOL0     N46457   2.424   0.721   0.300  0.5747 -0.4811 -0.0203
  345MOL0     C46458   2.557   0.684   0.286 -0.4002  0.0933 -0.9819
  345MOL0     C46459   2.563   0.600   0.175 -0.3660  0.5375 -0.6441
  345MOL0     C46460   2.689   0.531   0.138 -0.4887 -0.5128 -0.1962
  345MOL0     C46461   2.776   0.457   0.242  0.2012  0.1596 -0.6349
  345MOL0     C46462   2.768   0.296   0.228  0.2928  0.0205 -0.4093
  345MOL0     C46463   2.640   0.233   0.274 -0.7472 -0.0070 -0.9384
  345MOL0     O46464   2.628   0.261   0.413  0.0469 -0.2135 -0.1643
  345MOL0     C46465   2.523   0.216   0.482 -0.3718  0.0687 -0.0827
  345MOL0     C46466   2.421   0.139   0.433 -0.1452  0.1787  0.2678
  345MOL0     C46467   2.311   0.091   0.519 -1.7105  0.4556  0.1306
  345MOL0     C46468   2.313   0.118   0.661  0.7939 -0.2066 -0.2882
  345MOL0     C46469   2.209   0.072   0.755 -0.8981 -0.6867  0.9074
  345MOL0     O46470   2.219   0.093   0.890  0.1597  0.6245  0.1069
  345MOL0     C46471   2.115   0.082   0.976  1.4919  0.4433 -0.0144
  345MOL0     C46472   2.025  -0.027   0.986  0.1787 -0.4851  0.4933
  345MOL0     C46473   1.921  -0.036   1.083 -1.2419  0.5880  0.3247
  345MOL0     C46474   1.909   0.062   1.179  0.0775  0.3346 -0.0405
  345MOL0     O46475   1.805   0.057   1.276  1.2673 -0.1407  0.5437
  345MOL0     C46476   1.796   0.159   1.378  0.1921 -0.2331  0.9702
  345MOL0     C46477   1.880   0.120   1.503 -0.3913  0.5154  0.2856
  345MOL0     C46478   1.835   0.212   1.614 -0.5672 -0.3727 -0.1692
  345MOL0     C46479   1.915   0.191   1.745  0.0002 -0.5582  0.4886
  345MOL0     C46480   1.859   0.075   1.829  0.3671  0.4977  0.9628
  345MOL0     C46481   1.940   0.047   1.953 -0.1108  0.0783  0.0037
  345MOL0     C46482   1.871  -0.067   2.033 -0.3606 -0.1557  0.8929
  345MOL0     C46483   1.952  -0.086   2.156 -0.5597  0.0356  0.3721
  345MOL0    Cl46484   2.121  -0.139   2.118 -0.1607  0.0242  0.2804
  345MOL0     C46485   1.998   0.168   1.170  0.1689 -0.3716 -1.5343
  345MOL0     C46486   2.098   0.174   1.077 -0.0677  0.8022  0.8386
  345MOL0     O46487   2.104   0.042   0.695 -0.4013  0.3489  0.3390
  345MOL0     C46488   2.409   0.213   0.700 -0.4910  0.7149 -0.5942
  345MOL0     C46489   2.515   0.256   0.613  0.0225  0.2332 -0.1111
  345MOL0     N46490   2.438   0.597   0.125  0.5074  0.5544  0.8764
  345MOL0     N46491   2.352   0.671   0.187 -0.9177  0.0805 -0.4535
  345MOL0     C46492   1.685   0.463   1.175  0.1760 -0.7351 -0.2596
  345MOL0     C46493   1.588   0.515   1.267 -0.0958 -0.2516 -0.0727
  345MOL0     C46494   1.354   0.776   1.500 -0.4120  0.3749 -0.2144
  345MOL0     C46495   1.385   0.802   1.633  0.9918  0.2021  0.1406
  345MOL0     C46496   1.288   0.805   1.731 -0.5755  0.3536  0.2275
  345MOL0     C46497   1.153   0.820   1.699 -0.5358  0.1228 -0.4872
  345MOL0     O46498   1.046   0.840   1.786 -0.3794  0.4235 -0.7271
  345MOL0     C46499   1.066   0.839   1.926 -0.7167  0.3657  0.7117
  345MOL0     C46500   1.053   0.696   1.996 -0.6408 -0.2313  1.6198
  345MOL0     C46501   1.076   0.715   2.144  0.9301  0.0247 -0.4048
  345MOL0     C46502   1.028   0.598   2.229 -0.7251  0.7451 -0.5008
  345MOL0     C46503   1.095   0.466   2.212 -0.0170 -0.0888  0.3563
  345MOL0     C46504   1.152   0.356   2.203  0.5988 -0.4712 -0.2133
  345MOL0     C46505   1.123   0.818   1.563 -0.8113 -0.1403  0.8014
  345MOL0     C46506   1.222   0.784   1.463 -0.0212 -0.7375  0.3505
  345MOL0     C46507   1.175   0.765   1.320 -1.1189 -0.0008  0.2448
  345MOL0     H46508   1.794   0.755   1.400  1.2505 -0.7501  0.7605
  345MOL0     H46509   1.952   0.656   1.235 -0.8416  1.0860 -3.6149
  345MOL0     H46510   1.803   0.370   0.925 -1.8227  1.2665  0.8863
  345MOL0     H46511   1.809   0.553   0.912 -0.0034  0.1719  0.3207
  345MOL0     H46512   2.051   0.378   0.884  0.9065  1.6742 -0.7694
  345MOL0     H46513   2.025   0.555   0.839 -2.1906  1.4753 -2.5171
  345MOL0     H46514   1.886   0.485   0.651 -2.7549 -3.5386  1.2096
  345MOL0     H46515   1.920   0.315   0.685  0.1490 -0.6899  2.2758
  345MOL0     H46516   2.155   0.360   0.669  1.1266  1.8301  0.9815
  345MOL0     H46517   2.082   0.376   0.521 -0.3091 -3.4292  2.4258
  345MOL0     H46518   2.099   0.630   0.520  1.1763  1.5390 -0.6758
  345MOL0     H46519   2.164   0.630   0.689 -0.2132 -1.9469  0.0458
  345MOL0     H46520   2.343   0.467   0.600 -0.4047  1.9260  2.4034
  345MOL0     H46521   2.299   0.517   0.433 -0.3824  1.2193 -0.5866
  345MOL0     H46522   2.488   0.643   0.535 -0.1530  0.0155 -1.8368
  345MOL0     H46523   2.385   0.738   0.630  0.2472  0.3200 -0.2321
  345MOL0     H46524   2.254   0.787   0.409  0.6344  1.6611 -0.7338
  345MOL0     H46525   2.408   0.864   0.452  0.6314  0.2369 -1.5140
  345MOL0     H46526   2.640   0.689   0.356 -0.3919 -0.8389 -0.9155
  345MOL0     H46527   2.663   0.467   0.054  0.0278  1.6297 -2.0690
  345MOL0     H46528   2.753   0.612   0.101 -1.7283  0.8444  0.5194
  345MOL0     H46529   2.877   0.485   0.211  0.9595  0.6056  2.0278
  345MOL0     H46530   2.757   0.492   0.344  0.9243  1.6283 -0.9810
  345MOL0     H46531   2.841   0.247   0.294 -1.2069  1.4598  2.5008
  345MOL0     H46532   2.785   0.274   0.122  3.2629  2.8652 -0.6641
  345MOL0     H46533   2.639   0.124   0.261 -2.4775 -0.3861  1.5629
  345MOL0     H46534   2.552   0.270   0.220  1.0006  3.0051 -1.9523
  345MOL0     H46535   2.419   0.104   0.330 -1.5909 -2.8501  1.1906
  345MOL0     H46536   2.240   0.022   0.474 -0.5725  0.0062 -1.0198
  345MOL0     H46537   2.035  -0.113   0.920 -1.0337  0.0150 -0.3571
  345MOL0     H46538   1.855  -0.121   1.097 -3.5320  2.0994 -0.7845
  345MOL0     H46539   1.815   0.256   1.333 -0.1761 -0.8708 -0.6247
  345MOL0     H46540   1.690   0.164   1.406  0.0703  1.2204  0.2921
  345MOL0     H46541   1.878   0.011   1.515  1.6887 -0.2315 -4.1566
  345MOL0     H46542   1.987   0.139   1.495 -0.2516  1.3730  3.1117
  345MOL0     H46543   1.858   0.311   1.573  3.5731 -1.1875 -0.2681
  345MOL0     H46544   1.727   0.212   1.630 -1.6768 -4.9591 -4.6664
  345MOL0     H46545   1.917   0.280   1.808  1.2699 -0.0653 -0.2148
  345MOL0     H46546   2.018   0.168   1.719  0.1630  0.2529  0.3977
  345MOL0     H46547   1.854  -0.014   1.766 -0.2378  1.5067 -0.4677
  345MOL0     H46548   1.757   0.088   1.867 -0.2830 -1.4791  0.0286
  345MOL0     H46549   2.042   0.025   1.922 -0.8002  0.2882 -2.6436
  345MOL0     H46550   1.941   0.131   2.024  0.5393 -1.4128  1.8312
  345MOL0     H46551   1.868  -0.165   1.983 -1.0098  0.3112 -0.0151
  345MOL0     H46552   1.770  -0.035   2.062  0.2896  1.1486  1.8100
  345MOL0     H46553   1.971   0.006   2.210  1.3886 -0.4857  0.6744
  345MOL0     H46554   1.893  -0.151   2.221 -4.4996  0.3606 -2.4813
  345MOL0     H46555   1.999   0.246   1.245 -0.7467 -0.9865 -0.8518
  345MOL0     H46556   2.165   0.256   1.102  1.3368 -0.8553  2.7954
  345MOL0     H46557   2.411   0.245   0.804  1.5625 -3.9136  1.0917
  345MOL0     H46558   2.592   0.321   0.653  1.5582 -2.4672  1.7023
  345MOL0     H46559   1.658   0.375   1.118 -0.7509 -1.7692  1.6527
  345MOL0     H46560   1.496   0.460   1.286 -0.2483 -0.5594 -1.5686
  345MOL0     H46561   1.488   0.794   1.667  1.5606  0.4057 -1.4389
  345MOL0     H46562   1.330   0.818   1.830  1.3602 -0.0865 -0.4809
  345MOL0     H46563   0.987   0.906   1.963  1.9575  3.3040  1.5935
  345MOL0     H46564   1.160   0.885   1.961  0.1298  0.0667 -1.0685
  345MOL0     H46565   1.115   0.615   1.957 -2.1510 -1.2338  1.2319
  345MOL0     H46566   0.949   0.673   1.972 -0.8565  1.8629  0.2979
  345MOL0     H46567   1.006   0.791   2.180  0.4926 -0.5321 -0.0669
  345MOL0     H46568   1.178   0.748   2.169  1.6406 -0.2472 -2.6901
  345MOL0     H46569   1.062   0.616   2.332 -0.0342 -0.6902 -0.4542
  345MOL0     H46570   0.919   0.599   2.220 -0.6962  0.7924 -0.8414
  345MOL0     H46571   1.205   0.265   2.186 -0.4297 -1.5541  1.9404
  345MOL0     H46572   1.026   0.849   1.527 -0.5174 -0.9507 -0.7655
  345MOL0     H46573   1.212   0.854   1.268 -3.8546  0.8661 -0.3621
  345MOL0     H46574   1.232   0.681   1.279 -1.6606 -0.7668  1.0222
  345MOL0     H46575   1.067   0.748   1.311 -1.3016  1.0740  0.2757
  346MOL0     O46576   6.602   9.872   3.030 -0.5713 -0.3195  0.7202
  346MOL0     C46577   6.691   9.802   2.988  0.0351  0.7214  0.1249
  346MOL0     O46578   6.814   9.809   3.039 -0.6551 -0.3112  0.6124
  346MOL0     C46579   6.841   9.905   3.138  0.3218  0.2573 -0.1110
  346MOL0     C46580   6.921   9.861   3.239 -1.0965  0.1885  0.1193
  346MOL0     C46581   6.984   9.954   3.328  0.2375  0.5349  0.1298
  346MOL0     C46582   6.956  10.078   3.320 -0.5681 -0.2395 -0.6064
  346MOL0     O46583   7.041  10.153   3.405  1.1185 -0.0017 -0.5910
  346MOL0     C46584   7.007  10.156   3.547 -0.7423 -0.4275 -0.4774
  346MOL0     C46585   6.927  10.280   3.560 -0.0446  0.1849  0.1323
  346MOL0     C46586   7.012  10.400   3.552  0.2449 -0.5751  0.4890
  346MOL0     C46587   6.919  10.518   3.522  0.4382 -0.7890 -0.3549
  346MOL0     C46588   6.972  10.658   3.532 -0.2080  0.2813 -0.1534
  346MOL0     C46589   7.072  10.680   3.422  0.1436 -0.0892  0.0232
  346MOL0     C46590   7.084  10.825   3.382 -0.5936 -0.6046  0.0515
  346MOL0     C46591   7.087  10.836   3.223 -0.0947  0.9990 -0.4959
  346MOL0     N46592   7.080  10.977   3.183  0.8465  0.0550  0.4625
  346MOL0     C46593   7.118  11.033   3.062 -0.8739  1.0114 -0.4257
  346MOL0     C46594   7.036  11.138   3.044 -1.0078  0.3571  0.5841
  346MOL0     C46595   7.033  11.219   2.922  1.1906  0.4814  0.2368
  346MOL0     C46596   7.165  11.253   2.863 -0.2639 -0.2421 -0.8438
  346MOL0     C46597   7.140  11.371   2.778 -0.4509 -0.4105  0.7714
  346MOL0     C46598   7.264  11.430   2.708  0.3761 -0.7844  0.5345
  346MOL0     O46599   7.381  11.413   2.787 -0.1121 -0.2396 -0.2912
  346MOL0     C46600   7.504  11.416   2.717  1.1060  0.3095 -0.5435
  346MOL0     C46601   7.616  11.383   2.796  0.3065  0.0272  0.1777
  346MOL0     C46602   7.750  11.398   2.743 -0.0367 -0.3409  0.4695
  346MOL0     C46603   7.771  11.426   2.603 -0.1226 -0.1581 -1.4004
  346MOL0     C46604   7.900  11.425   2.539  0.3941  0.2243 -0.6574
  346MOL0     O46605   8.004  11.366   2.606 -0.2175  0.2228 -0.5041
  346MOL0     C46606   8.127  11.372   2.546 -0.5566 -0.9632  0.2771
  346MOL0     C46607   8.139  11.343   2.410 -0.5586  0.1795  0.3729
  346MOL0     C46608   8.267  11.338   2.352  0.5054 -0.2220  0.6680
  346MOL0     C46609   8.386  11.360   2.431 -0.4310 -1.2488 -0.8310
  346MOL0     O46610   8.505  11.364   2.365  0.2158 -0.0678 -0.9656
  346MOL0     C46611   8.525  11.269   2.263 -1.2279 -0.3890  0.9492
  346MOL0     C46612   8.672  11.260   2.228  0.3094 -0.6507 -0.2415
  346MOL0     C46613   8.701  11.177   2.104  0.6036 -0.2100  0.6275
  346MOL0     C46614   8.857  11.158   2.092  0.3062 -1.2649  0.6723
  346MOL0     C46615   8.901  11.111   1.947 -0.0780 -0.8808  0.6334
  346MOL0     C46616   9.053  11.124   1.923  0.2067  0.4053  0.1514
  346MOL0     C46617   9.109  11.038   1.810  0.1271  0.5575 -0.4429
  346MOL0     C46618   9.259  11.046   1.808  0.1287 -0.2542 -0.7605
  346MOL0    Cl46619   9.329  10.932   1.697 -0.4852  0.0276  0.0357
  346MOL0     C46620   8.366  11.391   2.569  0.0683 -0.8495 -0.0213
  346MOL0     C46621   8.239  11.399   2.619 -0.0024  1.1278 -0.0049
  346MOL0     O46622   7.912  11.488   2.433  0.4833 -0.3952 -0.6492
  346MOL0     C46623   7.660  11.454   2.524  0.1310 -0.4402  0.5948
  346MOL0     C46624   7.526  11.444   2.578  0.6552  0.2325  0.0064
  346MOL0     N46625   6.950  11.148   3.143  0.0454 -0.6126 -0.8777
  346MOL0     N46626   6.974  11.053   3.229  0.1019 -0.2374 -0.1400
  346MOL0     C46627   6.864  10.132   3.229 -0.4002  0.6553  0.4232
  346MOL0     C46628   6.804  10.041   3.138 -0.3085  0.2330  0.5214
  346MOL0     C46629   6.653   9.683   2.905  0.3267 -0.9152  0.0437
  346MOL0     C46630   6.608   9.706   2.776  0.5222 -0.3117 -0.7825
  346MOL0     C46631   6.545   9.600   2.712  0.3191  0.3103  0.8060
  346MOL0     C46632   6.539   9.472   2.770  0.6737 -0.4608  0.2450
  346MOL0     O46633   6.486   9.376   2.687 -0.4263 -0.6696  0.5354
  346MOL0     C46634   6.369   9.301   2.738  0.4450  0.1311  0.2074
  346MOL0     C46635   6.238   9.355   2.668 -0.2081  0.2353  0.1316
  346MOL0     C46636   6.235   9.358   2.511  0.3258  0.1991  0.4391
  346MOL0     C46637   6.091   9.335   2.459  0.0841 -0.2875  0.4877
  346MOL0     C46638   5.989   9.428   2.511  0.7537 -0.1261 -0.4518
  346MOL0     C46639   5.902   9.506   2.549  0.1583  0.4499  0.5847
  346MOL0     C46640   6.602   9.444   2.893  0.5855 -0.6375  0.0656
  346MOL0     C46641   6.653   9.550   2.968  0.8172 -0.2404 -0.4548
  346MOL0     C46642   6.696   9.527   3.111 -0.7077  0.3174 -0.9793
  346MOL0     H46643   6.958   9.759   3.232  1.6182  1.0985 -0.0756
  346MOL0     H46644   7.053   9.920   3.405 -1.9180  0.5123  2.1523
  346MOL0     H46645   6.946  10.068   3.570 -0.9899 -0.1606 -0.0905
  346MOL0     H46646   7.097  10.170   3.608 -3.3256  0.6275  3.5448
  346MOL0     H46647   6.871  10.288   3.653 -2.6482  1.9309 -1.4485
  346MOL0     H46648   6.852  10.289   3.481 -1.7308 -2.8773  1.2056
  346MOL0     H46649   7.088  10.391   3.475  1.5951 -0.7739  1.8094
  346MOL0     H46650   7.067  10.421   3.644 -0.0038  1.2976  0.2617
  346MOL0     H46651   6.888  10.502   3.419  0.3949 -1.7276 -0.2057
  346MOL0     H46652   6.828  10.511   3.583 -0.9163  0.1758 -2.1711
  346MOL0     H46653   6.877  10.711   3.525 -1.5522 -2.0576 -0.6356
  346MOL0     H46654   7.019  10.681   3.628  0.6696 -1.3047 -0.1586
  346MOL0     H46655   7.171  10.640   3.447 -0.3810  1.0343  4.7272
  346MOL0     H46656   7.030  10.630   3.334 -1.4447  1.3531 -0.0849
  346MOL0     H46657   7.180  10.863   3.418 -0.3650 -1.3665  0.2628
  346MOL0     H46658   6.999  10.883   3.419 -1.7214 -0.3859 -2.6611
  346MOL0     H46659   7.183  10.792   3.197 -1.2223 -1.0173 -1.5644
  346MOL0     H46660   7.014  10.780   3.163  0.3658  0.1484 -0.2784
  346MOL0     H46661   7.196  10.988   3.002 -1.3939 -0.9415  0.2805
  346MOL0     H46662   6.978  11.173   2.840  1.1681 -0.8728  0.9803
  346MOL0     H46663   6.981  11.311   2.950  0.6640  1.2033 -2.8036
  346MOL0     H46664   7.234  11.269   2.945 -0.8890  1.2102 -0.5678
  346MOL0     H46665   7.209  11.175   2.801 -2.1400 -1.2113 -1.0348
  346MOL0     H46666   7.085  11.443   2.839  0.3121  1.7033 -0.9110
  346MOL0     H46667   7.064  11.347   2.703 -0.0369  2.0048 -0.5377
  346MOL0     H46668   7.240  11.535   2.691  0.0114 -1.2080 -1.9430
  346MOL0     H46669   7.276  11.372   2.615  2.2033  0.3898 -0.0103
  346MOL0     H46670   7.592  11.346   2.895  2.4978 -5.6857 -1.0190
  346MOL0     H46671   7.846  11.379   2.792  0.5502 -2.5622 -1.3536
  346MOL0     H46672   8.056  11.323   2.344  0.6517  3.6149 -2.5346
  346MOL0     H46673   8.265  11.328   2.244 -1.7299 -1.7076  0.7903
  346MOL0     H46674   8.479  11.170   2.269 -0.3964 -1.2386 -3.6328
  346MOL0     H46675   8.484  11.307   2.169 -0.8579 -3.2314 -0.4461
  346MOL0     H46676   8.730  11.352   2.211 -0.8062  0.0722 -0.1984
  346MOL0     H46677   8.710  11.205   2.315  1.2199  1.6460  0.9082
  346MOL0     H46678   8.636  11.091   2.116 -4.6789  2.8183 -2.4817
  346MOL0     H46679   8.660  11.232   2.019 -0.6009 -0.4057  1.0671
  346MOL0     H46680   8.890  11.080   2.161  1.0627  1.3755  3.5556
  346MOL0     H46681   8.908  11.250   2.121 -1.4008  0.3580 -1.0771
  346MOL0     H46682   8.841  11.166   1.874 -4.2622 -3.5378  1.7104
  346MOL0     H46683   8.882  11.003   1.947  3.2129 -1.5750  1.7657
  346MOL0     H46684   9.062  11.229   1.893 -3.1209  1.1461  1.3625
  346MOL0     H46685   9.108  11.114   2.017  2.6565 -2.9567 -1.4133
  346MOL0     H46686   9.071  11.069   1.712 -0.4263  2.7119  0.3927
  346MOL0     H46687   9.081  10.935   1.833 -0.3732  0.9844  0.9591
  346MOL0     H46688   9.288  11.144   1.771 -0.3882  1.3395  2.6504
  346MOL0     H46689   9.302  11.045   1.909  0.7259  2.0332 -0.9398
  346MOL0     H46690   8.436  11.401   2.651 -1.2117 -0.7921  1.0895
  346MOL0     H46691   8.215  11.427   2.721  0.4457  2.1834 -0.1776
  346MOL0     H46692   7.671  11.473   2.418  1.0095  1.6039  1.0130
  346MOL0     H46693   7.442  11.465   2.512 -0.4503 -2.0268  0.5936
  346MOL0     H46694   6.861  10.240   3.216  4.0849  1.0537  1.1147
  346MOL0     H46695   6.734  10.072   3.061 -1.3286 -0.5974  1.0912
  346MOL0     H46696   6.604   9.809   2.741 -2.6228 -0.7427 -2.0279
  346MOL0     H46697   6.509   9.606   2.610  2.1809  2.3319  0.1756
  346MOL0     H46698   6.369   9.312   2.847 -0.7046  0.3468  0.1985
  346MOL0     H46699   6.392   9.197   2.715 -3.4128 -1.1363  1.2892
  346MOL0     H46700   6.221   9.459   2.697  0.6032  0.7150 -1.0749
  346MOL0     H46701   6.155   9.299   2.712  1.0113 -1.3698  0.5129
  346MOL0     H46702   6.291   9.273   2.471 -2.7574 -1.0484 -1.6726
  346MOL0     H46703   6.275   9.449   2.467  3.1410 -1.1879 -0.1096
  346MOL0     H46704   6.093   9.342   2.350 -1.8116  2.4492  0.5192
  346MOL0     H46705   6.053   9.236   2.486 -4.5418 -0.1940 -4.1635
  346MOL0     H46706   5.837   9.574   2.601 -0.1709  1.5088 -1.0957
  346MOL0     H46707   6.599   9.348   2.944  1.0532 -0.5922  0.1874
  346MOL0     H46708   6.791   9.473   3.114 -1.8505 -1.7654 -0.5396
  346MOL0     H46709   6.696   9.619   3.170 -0.3802 -0.6964  0.6567
  346MOL0     H46710   6.617   9.460   3.144 -0.8089  2.0543  2.7843
  347MOL0     O46711  10.006   2.935   0.607 -0.1228  0.9533  0.2523
  347MOL0     C46712  10.081   3.026   0.637 -0.0079 -0.1295  0.7914
  347MOL0     O46713  10.219   3.007   0.631  0.2189  0.8119  0.0911
  347MOL0     C46714  10.263   2.877   0.611 -0.1411  0.1211  0.5624
  347MOL0     C46715  10.221   2.797   0.499  0.5997  0.1767  0.5492
  347MOL0     C46716  10.269   2.672   0.483 -0.3197 -0.2537  0.2956
  347MOL0     C46717  10.359   2.613   0.581 -0.6713 -0.0127 -0.3117
  347MOL0     O46718  10.409   2.478   0.567 -0.6365 -0.1135  0.1520
  347MOL0     C46719  10.398   2.405   0.444 -0.0130  0.1947  0.4889
  347MOL0     C46720  10.506   2.438   0.342  0.2432 -1.3820 -0.3136
  347MOL0     C46721  10.491   2.384   0.208  0.5777 -0.1810 -0.7029
  347MOL0     C46722  10.480   2.236   0.199  0.6503 -0.1528  0.4036
  347MOL0     C46723  10.468   2.183   0.055  0.2716  0.3732  0.4849
  347MOL0     C46724  10.604   2.183  -0.017 -0.8744 -1.0452 -0.5194
  347MOL0     C46725  10.602   2.159  -0.168  0.5762  0.6728  0.0245
  347MOL0     C46726  10.728   2.181  -0.247 -0.1936 -0.4250  0.1599
  347MOL0     N46727  10.820   2.063  -0.264 -0.3980 -0.6451 -0.0110
  347MOL0     C46728  10.865   1.991  -0.154  0.2539 -0.1650 -0.7436
  347MOL0     C46729  10.904   1.873  -0.208  0.9740 -0.8625 -0.5801
  347MOL0     C46730  10.949   1.753  -0.140 -0.4563  0.5072 -0.5967
  347MOL0     C46731  10.974   1.641  -0.240  0.2335  0.3480  0.2823
  347MOL0     C46732  11.046   1.518  -0.194  0.1927 -0.5331  0.0861
  347MOL0     C46733  10.954   1.435  -0.107  0.4351 -0.7885  0.4950
  347MOL0     O46734  11.033   1.329  -0.049  0.3965 -0.0657  0.0895
  347MOL0     C46735  11.061   1.212  -0.119 -0.4189 -0.5352  1.2276
  347MOL0     C46736  11.031   1.190  -0.251  0.8412  0.2948 -0.5686
  347MOL0     C46737  11.068   1.081  -0.321 -0.3997  0.6314 -0.5700
  347MOL0     C46738  11.121   0.969  -0.243 -0.6245 -0.2256  0.4315
  347MOL0     C46739  11.177   0.841  -0.307  0.2904  0.2464  0.1026
  347MOL0     O46740  11.223   0.843  -0.436  0.3002  0.8154 -0.1603
  347MOL0     C46741  11.315   0.740  -0.469  0.1640 -0.6639 -0.6140
  347MOL0     C46742  11.423   0.688  -0.386 -0.9414 -0.0142  0.5404
  347MOL0     C46743  11.500   0.583  -0.429  0.1840  0.0953  0.1588
  347MOL0     C46744  11.479   0.534  -0.563 -0.5804  0.5072  1.1674
  347MOL0     O46745  11.548   0.428  -0.622  0.6672 -0.0690  0.9627
  347MOL0     C46746  11.600   0.334  -0.533 -0.1733 -0.6308 -0.5217
  347MOL0     C46747  11.596   0.199  -0.597 -0.1286 -0.0245  0.7030
  347MOL0     C46748  11.688   0.085  -0.539  0.8645 -0.4907 -0.4689
  347MOL0     C46749  11.617  -0.039  -0.466  0.2194 -1.2337  0.8824
  347MOL0     C46750  11.693  -0.173  -0.463 -0.1020  0.4114  0.1666
  347MOL0     C46751  11.641  -0.259  -0.351 -1.0963  0.1768 -0.8733
  347MOL0     C46752  11.497  -0.317  -0.365 -0.1301  0.8509  0.2763
  347MOL0     C46753  11.483  -0.467  -0.321  0.1515 -0.8294 -0.1554
  347MOL0    Cl46754  11.328  -0.540  -0.391 -0.6674 -0.8404 -0.0212
  347MOL0     C46755  11.390   0.598  -0.646  0.6659 -0.3443  0.3105
  347MOL0     C46756  11.307   0.705  -0.610 -0.5282  0.6613  0.0574
  347MOL0     O46757  11.194   0.748  -0.225 -0.4808 -0.4719  0.4359
  347MOL0     C46758  11.139   0.982  -0.107  0.4941  0.0733 -0.8344
  347MOL0     C46759  11.111   1.106  -0.043 -0.7696 -0.7742  0.3575
  347MOL0     N46760  10.896   1.879  -0.349  0.1584 -0.5841  0.0561
  347MOL0     N46761  10.848   1.991  -0.384  0.5275 -0.1388  0.9367
  347MOL0     C46762  10.408   2.693   0.682  0.0518 -0.5601  0.2739
  347MOL0     C46763  10.357   2.823   0.699  0.3961 -0.1517 -0.1978
  347MOL0     C46764  10.044   3.174   0.635  0.7383  0.7346  0.0841
  347MOL0     C46765  10.143   3.269   0.635  1.0776 -0.2503 -0.3099
  347MOL0     C46766  10.111   3.409   0.637  0.1225  0.3353 -0.1366
  347MOL0     C46767   9.973   3.446   0.638 -0.4868  0.5796  0.5824
  347MOL0     O46768   9.929   3.570   0.633 -0.5028 -1.0675 -0.0503
  347MOL0     C46769   9.971   3.645   0.749 -0.6998  0.7456 -0.8104
  347MOL0     C46770   9.957   3.794   0.718  0.4972 -0.3907 -0.6067
  347MOL0     C46771  10.003   3.893   0.831  0.1714 -0.2582  0.1298
  347MOL0     C46772  10.156   3.907   0.839 -0.2040 -0.0997 -0.3527
  347MOL0     C46773  10.187   4.008   0.944  0.2517  0.0820  0.0781
  347MOL0     C46774  10.221   4.078   1.039  0.1390  1.4465  0.5165
  347MOL0     C46775   9.880   3.353   0.628  0.4807 -0.4400 -0.2404
  347MOL0     C46776   9.904   3.218   0.634 -0.4273  0.1645 -0.4709
  347MOL0     C46777   9.792   3.119   0.667 -0.4722 -0.1395 -0.3901
  347MOL0     H46778  10.160   2.846   0.424  0.4682  1.2141  1.3081
  347MOL0     H46779  10.238   2.632   0.387  0.6946 -0.4457  0.0292
  347MOL0     H46780  10.400   2.300   0.472 -0.3162 -0.3045 -1.2514
  347MOL0     H46781  10.304   2.420   0.390  1.1073 -2.3847 -2.5042
  347MOL0     H46782  10.608   2.414   0.374  0.4030 -1.2281 -0.6951
  347MOL0     H46783  10.513   2.548   0.343  2.1281 -1.4815 -0.1515
  347MOL0     H46784  10.578   2.412   0.148  0.1227  0.5538 -1.0386
  347MOL0     H46785  10.403   2.439   0.172 -0.9365 -1.6722  0.5020
  347MOL0     H46786  10.559   2.189   0.259 -1.5024 -3.6198  0.8747
  347MOL0     H46787  10.383   2.215   0.247 -0.6889  2.2284 -1.0502
  347MOL0     H46788  10.424   2.083   0.058 -0.4300  0.4693 -2.8598
  347MOL0     H46789  10.398   2.242  -0.004  1.3506  0.0879 -1.1379
  347MOL0     H46790  10.644   2.282   0.005 -2.3060 -0.4322 -0.5521
  347MOL0     H46791  10.670   2.105   0.023 -2.9854 -2.4014  0.5101
  347MOL0     H46792  10.522   2.217  -0.215  0.1344 -1.4926 -2.0801
  347MOL0     H46793  10.558   2.061  -0.188  1.4660  0.6496 -2.0222
  347MOL0     H46794  10.692   2.199  -0.349 -0.0447 -0.0266  0.1783
  347MOL0     H46795  10.785   2.270  -0.220 -1.3190 -0.0035  1.2661
  347MOL0     H46796  10.857   2.010  -0.048 -6.6930  0.4458 -0.9257
  347MOL0     H46797  11.035   1.783  -0.079 -0.4863  0.9565 -0.7700
  347MOL0     H46798  10.871   1.719  -0.072  2.1844 -0.5538  2.1036
  347MOL0     H46799  10.876   1.620  -0.283 -0.5705  1.3493  1.5637
  347MOL0     H46800  11.044   1.672  -0.318  0.8833 -1.6623  0.0232
  347MOL0     H46801  11.128   1.553  -0.132  0.2721  1.1197 -0.8860
  347MOL0     H46802  11.073   1.461  -0.283 -1.3452  1.2919 -1.6478
  347MOL0     H46803  10.866   1.392  -0.156 -0.5166 -1.6455  2.7851
  347MOL0     H46804  10.913   1.500  -0.029 -1.9619 -2.2026  0.4999
  347MOL0     H46805  10.983   1.267  -0.310 -0.0512 -0.6773 -1.1330
  347MOL0     H46806  11.055   1.078  -0.429 -0.1949  0.5412 -0.5942
  347MOL0     H46807  11.449   0.736  -0.292 -1.0909  2.6166 -0.6497
  347MOL0     H46808  11.556   0.537  -0.349 -1.2565 -2.0598  0.0191
  347MOL0     H46809  11.705   0.362  -0.520 -0.0941 -0.2290 -1.9289
  347MOL0     H46810  11.550   0.327  -0.435 -0.8358  0.9623 -0.7257
  347MOL0     H46811  11.489   0.175  -0.594 -0.7677  2.4094 -0.2158
  347MOL0     H46812  11.614   0.210  -0.704 -0.4843  2.4388  0.8361
  347MOL0     H46813  11.744   0.050  -0.626  1.3153 -0.2878 -0.2611
  347MOL0     H46814  11.759   0.129  -0.469  0.7722 -1.0861  0.0042
  347MOL0     H46815  11.521  -0.056  -0.516 -0.4319 -0.9751  2.0199
  347MOL0     H46816  11.583  -0.002  -0.369 -4.2429  0.0042 -0.8971
  347MOL0     H46817  11.799  -0.150  -0.446  1.0768 -1.2686 -3.7426
  347MOL0     H46818  11.683  -0.232  -0.555 -0.2464  0.6882  0.0042
  347MOL0     H46819  11.717  -0.337  -0.346  0.8596  2.0545  0.5404
  347MOL0     H46820  11.634  -0.213  -0.251 -2.4221 -0.1153 -0.8057
  347MOL0     H46821  11.461  -0.305  -0.467  2.1963  2.3249 -0.4381
  347MOL0     H46822  11.435  -0.250  -0.305 -2.2968 -1.0388  0.2976
  347MOL0     H46823  11.577  -0.521  -0.339  1.3774  0.5889  1.6441
  347MOL0     H46824  11.479  -0.462  -0.212 -2.1008  3.5425 -0.2208
  347MOL0     H46825  11.374   0.548  -0.741  0.7614 -0.6412  0.4505
  347MOL0     H46826  11.229   0.740  -0.676  0.1767  1.6543 -0.2799
  347MOL0     H46827  11.200   0.904  -0.064 -0.3882 -0.3588 -0.3340
  347MOL0     H46828  11.143   1.126   0.059  0.2633  0.7871 -0.2396
  347MOL0     H46829  10.489   2.639   0.730 -0.7711 -2.5917 -0.5447
  347MOL0     H46830  10.403   2.878   0.780  0.0224  1.2822 -0.9165
  347MOL0     H46831  10.242   3.235   0.605  1.3043  1.0951 -1.1808
  347MOL0     H46832  10.184   3.489   0.625 -0.3670  0.8045 -0.0450
  347MOL0     H46833  10.078   3.640   0.771 -1.3414  1.2051  3.1390
  347MOL0     H46834   9.928   3.622   0.846  2.2956  1.0514  0.6901
  347MOL0     H46835   9.850   3.813   0.715  0.2511 -1.1965  1.4274
  347MOL0     H46836  10.011   3.815   0.625  1.9184 -0.7818  0.0973
  347MOL0     H46837   9.958   3.855   0.924  0.1184  1.7740  0.9932
  347MOL0     H46838   9.958   3.992   0.816  0.1875 -0.4100 -0.9723
  347MOL0     H46839  10.195   3.810   0.870 -0.7588 -0.3860 -0.5221
  347MOL0     H46840  10.200   3.929   0.741  1.2229 -1.9135 -0.1632
  347MOL0     H46841  10.262   4.126   1.125  3.3566 -2.7264  1.6095
  347MOL0     H46842   9.777   3.387   0.639  0.7039  0.1246  0.1242
  347MOL0     H46843   9.739   3.073   0.583  1.0480 -3.2351  0.1736
  347MOL0     H46844   9.832   3.042   0.734  0.4608  0.8446  0.2101
  347MOL0     H46845   9.718   3.168   0.730  1.4276 -1.2157  2.9704
  348MOL0     O46846   6.809   9.374   7.466 -0.4045 -1.0340 -0.4813
  348MOL0     C46847   6.795   9.256   7.475  0.0637  0.7947 -0.5867
  348MOL0     O46848   6.888   9.163   7.519 -0.9440  0.6801  0.3465
  348MOL0     C46849   7.012   9.219   7.560 -0.5714  0.7542 -0.1443
  348MOL0     C46850   7.132   9.163   7.505  0.2030  0.0325  0.2978
  348MOL0     C46851   7.258   9.194   7.559 -0.1456 -1.6239  0.7553
  348MOL0     C46852   7.267   9.280   7.669  0.0572 -0.3604 -0.2605
  348MOL0     O46853   7.390   9.292   7.722 -0.4308  0.0996  0.0238
  348MOL0     C46854   7.445   9.421   7.688  0.3737  0.3921  1.1940
  348MOL0     C46855   7.525   9.492   7.803  0.7160 -0.0885 -0.5158
  348MOL0     C46856   7.426   9.542   7.909 -0.7593  0.2375 -0.1633
  348MOL0     C46857   7.508   9.582   8.041 -0.5493 -0.4609 -0.0267
  348MOL0     C46858   7.637   9.658   8.007 -0.2385 -0.4926  0.2435
  348MOL0     C46859   7.700   9.736   8.126  0.2816  0.3886  0.0846
  348MOL0     C46860   7.799   9.846   8.088  0.6495  0.5470 -0.0501
  348MOL0     C46861   7.722   9.952   8.005  0.0940  0.3908  0.4197
  348MOL0     N46862   7.755  10.089   8.031  0.5097 -0.4518 -0.0169
  348MOL0     C46863   7.867  10.137   8.085 -0.4036 -0.3010  0.4897
  348MOL0     C46864   7.882  10.271   8.048 -0.3531  0.5073  0.4233
  348MOL0     C46865   8.007  10.337   8.094 -0.0719 -0.7447 -0.3912
  348MOL0     C46866   8.013  10.492   8.061 -0.5931 -0.5555  0.4087
  348MOL0     C46867   8.142  10.555   8.118  0.4020  0.5431  0.4911
  348MOL0     C46868   8.166  10.708   8.104 -0.1165  0.7125  0.8547
  348MOL0     O46869   8.067  10.789   8.171  0.9463  0.5621  0.5695
  348MOL0     C46870   8.047  10.792   8.308  0.1725  0.2640 -0.6453
  348MOL0     C46871   7.920  10.839   8.351  0.6218  0.4009 -0.6117
  348MOL0     C46872   7.894  10.835   8.491  0.1361 -0.0018  0.5288
  348MOL0     C46873   7.996  10.826   8.583 -0.3298  0.7507  0.3594
  348MOL0     C46874   7.956  10.821   8.733 -0.8232  0.0157  0.7560
  348MOL0     O46875   7.842  10.870   8.771 -0.7412 -0.1456 -0.4732
  348MOL0     C46876   7.826  10.883   8.917 -1.2437  0.3513  0.3938
  348MOL0     C46877   7.864  11.003   8.988 -0.8095  0.3670 -0.9021
  348MOL0     C46878   7.838  11.009   9.129  0.0303  0.6107  0.0307
  348MOL0     C46879   7.798  10.896   9.195 -0.5900  0.1189  0.1817
  348MOL0     O46880   7.778  10.876   9.333  0.2620  0.5136  0.2617
  348MOL0     C46881   7.764  11.002   9.400 -0.5767  0.8737 -0.2371
  348MOL0     C46882   7.900  11.031   9.450  0.3731 -0.1655  0.1488
  348MOL0     C46883   7.903  11.160   9.535 -0.4315 -0.7435 -0.6209
  348MOL0     C46884   8.040  11.223   9.550  0.6656 -0.6525  0.5569
  348MOL0     C46885   8.076  11.303   9.671 -0.1079 -0.0342  0.1241
  348MOL0     C46886   8.224  11.344   9.665 -0.2124 -0.1855 -0.5868
  348MOL0     C46887   8.259  11.449   9.773 -0.4343  0.1525 -0.2925
  348MOL0     C46888   8.401  11.511   9.763  0.3792  0.2262 -0.9537
  348MOL0    Cl46889   8.424  11.588   9.602 -0.0605  0.7070  0.3911
  348MOL0     C46890   7.769  10.779   9.132  1.1376  0.4759  0.4274
  348MOL0     C46891   7.772  10.780   8.991  0.3354  0.0938  1.0166
  348MOL0     O46892   8.043  10.763   8.805 -0.6228  0.2272  0.4629
  348MOL0     C46893   8.117  10.773   8.540 -1.1651 -0.4824  0.5067
  348MOL0     C46894   8.142  10.759   8.401  0.0417 -1.1056  0.5034
  348MOL0     N46895   7.786  10.294   7.960 -0.2933 -0.2915 -0.1302
  348MOL0     N46896   7.711  10.194   7.956 -0.3965  1.1602 -0.1333
  348MOL0     C46897   7.152   9.341   7.704 -0.5547  0.0453 -0.4292
  348MOL0     C46898   7.026   9.325   7.647 -0.2512  0.5409 -0.0642
  348MOL0     C46899   6.659   9.200   7.465  1.1685 -0.5320 -1.3523
  348MOL0     C46900   6.619   9.097   7.554  0.3535  1.0315  0.2041
  348MOL0     C46901   6.491   9.034   7.550  0.2688  0.2342  0.2583
  348MOL0     C46902   6.400   9.070   7.452 -0.5334 -0.5634 -0.6723
  348MOL0     O46903   6.271   9.021   7.449 -0.0780 -0.1458  0.2246
  348MOL0     C46904   6.203   8.955   7.555 -0.0267  0.6007 -0.1629
  348MOL0     C46905   6.063   8.916   7.522  0.5363  0.6918  0.1811
  348MOL0     C46906   5.966   8.934   7.640 -0.2171  0.3881 -0.1063
  348MOL0     C46907   5.828   8.945   7.581 -0.8585 -0.5560  0.5805
  348MOL0     C46908   5.792   8.843   7.482  0.1322 -1.1458 -0.3675
  348MOL0     C46909   5.747   8.771   7.397 -0.1617 -0.7611 -1.0349
  348MOL0     C46910   6.442   9.165   7.354  0.9536 -0.1305 -0.1999
  348MOL0     C46911   6.570   9.232   7.359 -0.5520  0.0786 -0.4351
  348MOL0     C46912   6.604   9.329   7.242 -0.1892  1.0763 -0.0744
  348MOL0     H46913   7.110   9.090   7.427  0.3113 -0.5848  0.8384
  348MOL0     H46914   7.352   9.150   7.526  0.0421 -1.6656  1.3286
  348MOL0     H46915   7.506   9.408   7.598 -1.0965 -0.7941  0.2969
  348MOL0     H46916   7.378   9.493   7.639  2.0257 -1.2917 -4.3081
  348MOL0     H46917   7.583   9.572   7.755  2.9410 -0.7048  0.9796
  348MOL0     H46918   7.573   9.410   7.856 -0.4010 -1.5644 -1.7125
  348MOL0     H46919   7.358   9.460   7.935 -0.3387  0.6806  2.6118
  348MOL0     H46920   7.371   9.628   7.870  0.9199  1.7218  0.5916
  348MOL0     H46921   7.436   9.635   8.104 -0.5491 -1.0795  0.5070
  348MOL0     H46922   7.532   9.493   8.100  2.1532  0.3555  0.2098
  348MOL0     H46923   7.716   9.587   7.979  2.8247  0.8556  4.4355
  348MOL0     H46924   7.612   9.724   7.924  2.1428 -1.9706 -1.7737
  348MOL0     H46925   7.618   9.788   8.175  0.8266  0.3896  1.0347
  348MOL0     H46926   7.745   9.663   8.195  1.3258  1.7777  0.9204
  348MOL0     H46927   7.887   9.799   8.043  2.1221  1.0282  2.2120
  348MOL0     H46928   7.848   9.886   8.177  1.6876  0.0496 -0.3826
  348MOL0     H46929   7.706   9.948   7.897 -1.0442  1.6122  0.5223
  348MOL0     H46930   7.617   9.946   8.038 -0.6271  1.1680 -1.5645
  348MOL0     H46931   7.939  10.079   8.142  0.2254 -0.0232 -0.0083
  348MOL0     H46932   8.005  10.330   8.203  1.6405 -0.2652 -0.2946
  348MOL0     H46933   8.097  10.280   8.068  0.5461 -1.1679  2.3766
  348MOL0     H46934   8.018  10.504   7.952  0.9640 -0.7540  0.4361
  348MOL0     H46935   7.922  10.545   8.091 -0.9383  0.9334 -2.8500
  348MOL0     H46936   8.218  10.506   8.056 -0.6740 -0.9257  0.2775
  348MOL0     H46937   8.149  10.521   8.221 -2.0609 -1.0381  0.2039
  348MOL0     H46938   8.158  10.734   7.998 -1.8799 -1.8719  0.2591
  348MOL0     H46939   8.262  10.728   8.154  1.8233 -4.1262 -0.3900
  348MOL0     H46940   7.841  10.882   8.290 -0.4300  2.6541  2.1010
  348MOL0     H46941   7.794  10.864   8.522 -0.3134  2.2552 -2.5433
  348MOL0     H46942   7.905  11.087   8.933 -1.0721 -0.4510 -2.4124
  348MOL0     H46943   7.877  11.092   9.188  1.3721  0.8062 -1.0724
  348MOL0     H46944   7.713  11.075   9.336  1.5562  0.5287 -2.4843
  348MOL0     H46945   7.686  10.981   9.473 -3.0060  0.3882 -2.7881
  348MOL0     H46946   7.935  10.953   9.519  2.9193  2.3244  1.8985
  348MOL0     H46947   7.965  11.036   9.362 -3.3737 -0.2858 -2.8710
  348MOL0     H46948   7.834  11.233   9.491 -3.2005 -0.5029  3.5468
  348MOL0     H46949   7.855  11.143   9.632 -0.4711 -1.2760 -0.7291
  348MOL0     H46950   8.055  11.285   9.461 -1.1318 -1.4674 -0.3677
  348MOL0     H46951   8.119  11.147   9.546  0.3253 -1.3366  4.0237
  348MOL0     H46952   8.050  11.240   9.757 -1.5370 -4.1448 -2.9781
  348MOL0     H46953   8.010  11.390   9.671 -1.6518 -1.1452 -1.1969
  348MOL0     H46954   8.277  11.253   9.693  0.0197  0.2100  0.3019
  348MOL0     H46955   8.259  11.371   9.565 -1.5958 -0.9994 -1.3152
  348MOL0     H46956   8.244  11.390   9.864  0.9608  1.5380  0.9063
  348MOL0     H46957   8.189  11.533   9.773  1.4407  1.9916  3.5589
  348MOL0     H46958   8.420  11.584   9.842 -3.5916 -0.3077  0.7405
  348MOL0     H46959   8.471  11.427   9.775  2.2777  1.9793  1.0394
  348MOL0     H46960   7.727  10.694   9.186  0.8245  1.1658  1.2934
  348MOL0     H46961   7.752  10.685   8.942 -0.6038  0.2677  1.0490
  348MOL0     H46962   8.190  10.759   8.619 -0.1210  1.1075 -0.1542
  348MOL0     H46963   8.244  10.729   8.377  0.0297 -0.8879  0.1662
  348MOL0     H46964   7.157   9.416   7.782  1.8990 -1.2077  0.7562
  348MOL0     H46965   6.945   9.385   7.687  0.9594  1.7658  0.6388
  348MOL0     H46966   6.686   9.045   7.621 -0.6000 -3.3855 -1.9616
  348MOL0     H46967   6.492   8.955   7.625  2.9002  0.4100  0.4848
  348MOL0     H46968   6.204   9.011   7.649  1.7710  0.4971 -0.0975
  348MOL0     H46969   6.259   8.864   7.576 -1.7641 -0.3578  0.5805
  348MOL0     H46970   6.054   8.813   7.487  4.0740  0.2720  0.2204
  348MOL0     H46971   6.024   8.978   7.440  1.0159  0.3130 -0.3469
  348MOL0     H46972   5.990   9.018   7.706 -1.4715  0.5468  0.1705
  348MOL0     H46973   5.977   8.856   7.717 -1.6490 -2.2925 -2.4332
  348MOL0     H46974   5.757   8.959   7.664 -1.3412 -1.4396  0.3293
  348MOL0     H46975   5.822   9.034   7.518  0.6862 -1.4900 -0.9485
  348MOL0     H46976   5.709   8.687   7.342 -2.0802  0.4768 -1.7101
  348MOL0     H46977   6.367   9.186   7.278 -0.9684 -1.3042  1.2807
  348MOL0     H46978   6.557   9.279   7.156  0.0274 -0.4462  0.6494
  348MOL0     H46979   6.581   9.435   7.254  2.9355  1.9187 -0.5585
  348MOL0     H46980   6.713   9.323   7.232 -0.3838 -2.1428 -1.9648
  349MOL0     O46981  11.496   2.608   8.089  0.2842 -0.9785  0.0712
  349MOL0     C46982  11.609   2.604   8.039  0.2312  0.4172  0.4119
  349MOL0     O46983  11.677   2.707   7.981 -0.1738  0.3421 -0.0205
  349MOL0     C46984  11.615   2.827   7.952  0.4011  0.6173 -0.6013
  349MOL0     C46985  11.675   2.945   7.984 -0.3037 -0.1583  0.3005
  349MOL0     C46986  11.612   3.062   7.948 -1.0682 -0.1734  0.8008
  349MOL0     C46987  11.482   3.072   7.881 -0.4530  0.2945  0.9223
  349MOL0     O46988  11.435   3.196   7.857  0.7078  0.5102 -0.4532
  349MOL0     C46989  11.336   3.218   7.755 -0.1440 -0.1238 -0.1323
  349MOL0     C46990  11.299   3.358   7.740  0.9756 -0.2504 -0.1955
  349MOL0     C46991  11.405   3.450   7.688 -0.5703  0.2395 -0.3449
  349MOL0     C46992  11.544   3.466   7.758  0.5523 -0.1016  0.6863
  349MOL0     C46993  11.637   3.552   7.682 -0.5382 -0.0055  0.5009
  349MOL0     C46994  11.649   3.528   7.528 -0.1483 -0.2600  0.2632
  349MOL0     C46995  11.688   3.384   7.485  0.5145  0.0721 -0.0139
  349MOL0     C46996  11.826   3.353   7.538  0.1881  0.1669 -0.5590
  349MOL0     N46997  11.840   3.207   7.523 -0.3618  1.2480 -0.2305
  349MOL0     C46998  11.843   3.134   7.402  0.0505  0.2538 -0.1854
  349MOL0     C46999  11.874   3.011   7.438 -0.7100 -0.3241  0.4025
  349MOL0     C47000  11.871   2.897   7.339 -0.1921  0.6433  0.3866
  349MOL0     C47001  12.012   2.851   7.298  0.1184 -0.3855  0.4230
  349MOL0     C47002  12.029   2.735   7.206  0.1242 -0.3996  0.0144
  349MOL0     C47003  11.960   2.597   7.226  0.3155 -0.8775  0.0138
  349MOL0     O47004  12.063   2.504   7.254  0.2535 -0.4331  0.7159
  349MOL0     C47005  12.042   2.376   7.283 -0.6762 -0.0942 -0.1400
  349MOL0     C47006  12.142   2.291   7.288  0.4079 -0.3029 -0.2129
  349MOL0     C47007  12.134   2.162   7.322  0.4338 -0.6968 -0.3868
  349MOL0     C47008  12.010   2.112   7.358  0.3624  0.2932 -0.8606
  349MOL0     C47009  11.987   1.967   7.413  0.6478 -0.4239  0.1302
  349MOL0     O47010  11.877   1.938   7.489 -0.1694  0.5616  0.4031
  349MOL0     C47011  11.891   1.829   7.574  0.1797  0.3542 -1.1083
  349MOL0     C47012  11.923   1.695   7.531  0.2737  0.9485 -0.6244
  349MOL0     C47013  11.908   1.591   7.624  0.0894 -0.2863  0.1379
  349MOL0     C47014  11.859   1.620   7.756 -0.2995 -0.6743 -0.8785
  349MOL0     O47015  11.843   1.511   7.840 -0.1684 -0.0246  0.7996
  349MOL0     C47016  11.918   1.518   7.961  0.0659  0.9268 -0.0090
  349MOL0     C47017  11.964   1.370   8.004 -0.4882  1.1274 -0.0056
  349MOL0     C47018  12.081   1.337   7.918 -1.2030  0.0714 -0.3270
  349MOL0     C47019  12.217   1.379   7.976  0.5431 -0.9510 -0.1799
  349MOL0     C47020  12.332   1.413   7.882  0.2685  0.1172 -0.6787
  349MOL0     C47021  12.460   1.446   7.972  0.2292 -0.5719  1.0140
  349MOL0     C47022  12.580   1.465   7.881  0.1886  0.6552  0.0338
  349MOL0     C47023  12.712   1.480   7.962 -0.3020  0.5054  0.2091
  349MOL0    Cl47024  12.781   1.314   7.996 -0.3827  0.0562 -0.1432
  349MOL0     C47025  11.842   1.757   7.800  1.0716  0.1019 -0.8488
  349MOL0     C47026  11.863   1.856   7.710 -0.2572  0.1849  0.3408
  349MOL0     O47027  12.082   1.888   7.395 -0.0455 -0.1437  0.2473
  349MOL0     C47028  11.891   2.197   7.347 -0.0944  0.0808 -0.3697
  349MOL0     C47029  11.916   2.325   7.295  0.0949  0.3054 -0.1260
  349MOL0     N47030  11.908   3.006   7.571  0.9192  0.6690 -0.3715
  349MOL0     N47031  11.877   3.117   7.624 -0.2178 -0.1137  1.0333
  349MOL0     C47032  11.428   2.949   7.858 -0.2953 -0.1830 -0.3653
  349MOL0     C47033  11.490   2.826   7.891  0.9588  0.2678 -0.9526
  349MOL0     C47034  11.693   2.482   8.076 -0.1731 -0.1458  0.1972
  349MOL0     C47035  11.815   2.505   8.132  0.0504  0.1262 -0.5462
  349MOL0     C47036  11.896   2.408   8.168 -0.2643  1.1500 -0.5221
  349MOL0     C47037  11.856   2.270   8.158 -0.0244  0.4970 -0.3438
  349MOL0     O47038  11.921   2.164   8.215  0.0052 -0.4460  0.7242
  349MOL0     C47039  12.056   2.182   8.258  0.3774 -0.1710  0.1861
  349MOL0     C47040  12.091   2.063   8.352  0.1856  0.5857 -0.7589
  349MOL0     C47041  12.023   2.093   8.499  0.4895  0.2729  0.1399
  349MOL0     C47042  11.996   1.958   8.577 -0.2369 -0.7452  0.0760
  349MOL0     C47043  12.108   1.875   8.578 -0.3629 -0.6581 -0.1998
  349MOL0     C47044  12.205   1.803   8.561  0.2390  0.0147  0.8717
  349MOL0     C47045  11.731   2.243   8.103 -0.5089 -0.4888 -1.0482
  349MOL0     C47046  11.650   2.348   8.044 -0.4052  0.4806 -0.9657
  349MOL0     C47047  11.510   2.322   7.978  0.8685 -0.3736  0.0949
  349MOL0     H47048  11.773   2.932   8.030  0.0291 -1.3523 -0.6788
  349MOL0     H47049  11.652   3.159   7.977 -0.6411  1.0584 -3.2472
  349MOL0     H47050  11.368   3.175   7.659  2.2376 -4.8841  2.4606
  349MOL0     H47051  11.246   3.175   7.799 -1.2988  3.0797  0.9580
  349MOL0     H47052  11.253   3.392   7.833  1.2887 -1.4942  0.4340
  349MOL0     H47053  11.220   3.371   7.665  0.8754 -1.0430 -0.2310
  349MOL0     H47054  11.372   3.551   7.663  1.0158  0.8677 -0.0373
  349MOL0     H47055  11.419   3.403   7.590 -3.5802 -2.3551  0.3115
  349MOL0     H47056  11.532   3.506   7.859 -0.0967  2.1345 -0.2075
  349MOL0     H47057  11.588   3.368   7.775  1.2112 -0.2961 -1.7435
  349MOL0     H47058  11.601   3.654   7.703  2.6849  1.0085  1.6752
  349MOL0     H47059  11.738   3.541   7.723 -0.4710 -3.0401 -0.2654
  349MOL0     H47060  11.551   3.544   7.482 -0.4946  2.1676  1.7000
  349MOL0     H47061  11.712   3.606   7.483  0.6929 -0.6056  0.8143
  349MOL0     H47062  11.704   3.369   7.378  0.7816  2.4475 -0.3644
  349MOL0     H47063  11.608   3.316   7.514 -1.7716  1.3054 -2.9424
  349MOL0     H47064  11.899   3.403   7.473  0.4192 -2.3139 -2.3668
  349MOL0     H47065  11.840   3.374   7.644  0.1241  0.5301 -0.6240
  349MOL0     H47066  11.819   3.164   7.300 -0.5177 -1.4630 -0.5976
  349MOL0     H47067  11.803   2.819   7.374  1.5404 -0.6289  1.1109
  349MOL0     H47068  11.819   2.936   7.251  2.3037  0.9307 -1.0794
  349MOL0     H47069  12.052   2.940   7.248 -0.5821  1.7200  3.3367
  349MOL0     H47070  12.070   2.824   7.387 -1.6225 -0.3089  1.6242
  349MOL0     H47071  12.134   2.722   7.181 -0.2098 -0.9026 -1.2474
  349MOL0     H47072  11.990   2.760   7.106  2.8849 -0.5905 -1.2076
  349MOL0     H47073  11.900   2.561   7.142 -2.4239 -0.6075  1.7163
  349MOL0     H47074  11.885   2.617   7.303 -0.1089  0.9715 -0.8207
  349MOL0     H47075  12.238   2.338   7.267  0.0767  2.2952  3.2533
  349MOL0     H47076  12.225   2.104   7.311  0.0841 -1.0632 -1.4520
  349MOL0     H47077  11.932   1.670   7.426 -2.0739  2.1532 -1.1886
  349MOL0     H47078  11.940   1.489   7.605  1.3898  0.2477 -0.7108
  349MOL0     H47079  12.011   1.574   7.949  1.1813 -0.2127  2.4537
  349MOL0     H47080  11.863   1.554   8.048  0.3661  2.1715 -0.3214
  349MOL0     H47081  11.996   1.376   8.108  1.6430  2.8909 -0.6868
  349MOL0     H47082  11.888   1.291   7.996  0.6932  0.1166 -2.3094
  349MOL0     H47083  12.082   1.229   7.906 -3.4603 -0.0859  0.3871
  349MOL0     H47084  12.070   1.382   7.819 -0.0170 -1.3864 -1.1610
  349MOL0     H47085  12.251   1.303   8.047  2.2386  2.0632  2.4946
  349MOL0     H47086  12.191   1.468   8.034 -2.2800 -0.1941 -2.3827
  349MOL0     H47087  12.308   1.500   7.821  1.3735 -0.3357 -1.7963
  349MOL0     H47088  12.352   1.328   7.816 -0.4511 -0.2161 -0.4791
  349MOL0     H47089  12.429   1.534   8.028 -1.0780  2.0959 -3.4067
  349MOL0     H47090  12.480   1.370   8.049 -0.0721 -1.5057  0.1901
  349MOL0     H47091  12.561   1.562   7.834 -0.3083  0.7113  0.3468
  349MOL0     H47092  12.598   1.393   7.801  2.1364  1.0723  0.0348
  349MOL0     H47093  12.796   1.524   7.907 -0.4293 -1.0445 -1.3416
  349MOL0     H47094  12.695   1.533   8.056  2.6957 -0.5978  1.5313
  349MOL0     H47095  11.800   1.778   7.897  0.3584 -3.0630 -0.3487
  349MOL0     H47096  11.845   1.960   7.735 -1.8037  0.8926 -3.1419
  349MOL0     H47097  11.795   2.165   7.386  0.6206  0.2813  1.6601
  349MOL0     H47098  11.826   2.385   7.285 -0.1662  0.0266  0.4897
  349MOL0     H47099  11.331   2.959   7.810 -1.4115  1.5277  2.0621
  349MOL0     H47100  11.443   2.740   7.843  1.5926 -1.4126  1.2823
  349MOL0     H47101  11.853   2.603   8.157 -1.4965  1.0606 -1.7211
  349MOL0     H47102  11.984   2.436   8.226 -1.9957  0.3903  2.7235
  349MOL0     H47103  12.080   2.274   8.312  0.8647 -1.5594  2.4739
  349MOL0     H47104  12.119   2.169   8.170 -1.2591  0.6900 -1.1782
  349MOL0     H47105  12.200   2.058   8.356  0.2839  0.5566 -2.8405
  349MOL0     H47106  12.050   1.969   8.315 -0.1072  1.2975 -2.2942
  349MOL0     H47107  11.928   2.145   8.489  0.2269 -0.3904 -1.0887
  349MOL0     H47108  12.093   2.161   8.548  1.8925 -1.3660  0.5034
  349MOL0     H47109  11.962   1.975   8.680 -0.0003 -0.0284  0.0415
  349MOL0     H47110  11.915   1.903   8.529 -0.6220 -0.5000  0.4385
  349MOL0     H47111  12.297   1.753   8.542  1.0464  1.8469 -0.3489
  349MOL0     H47112  11.695   2.141   8.088 -3.5551 -0.2085  2.8983
  349MOL0     H47113  11.431   2.363   8.042  0.3569 -3.3869  1.5643
  349MOL0     H47114  11.487   2.357   7.877 -1.2792  1.3656  1.0969
  349MOL0     H47115  11.486   2.216   7.988  4.1312 -1.0659  2.0815
  350MOL0     O47116   1.854   9.053  10.724  0.0279 -0.3986  0.2814
  350MOL0     C47117   1.909   9.061  10.613 -0.2135 -0.1069  0.5927
  350MOL0     O47118   2.006   8.977  10.567  0.2653  0.5804  0.5484
  350MOL0     C47119   2.017   8.850  10.621  0.2899 -0.3022 -0.1635
  350MOL0     C47120   2.139   8.806  10.648 -0.2224  0.7325 -0.0868
  350MOL0     C47121   2.167   8.686  10.698  0.0068  0.1870 -0.3729
  350MOL0     C47122   2.066   8.591  10.724 -0.1768 -0.4205 -0.3903
  350MOL0     O47123   2.099   8.470  10.785  0.1623 -0.5434  1.2835
  350MOL0     C47124   2.003   8.430  10.883 -0.6656  0.8158  0.5712
  350MOL0     C47125   2.077   8.356  11.000  0.5349 -0.9619  0.4928
  350MOL0     C47126   2.163   8.239  10.950  0.3166 -0.4981 -0.2094
  350MOL0     C47127   2.211   8.149  11.056  0.6057  0.1568 -0.1390
  350MOL0     C47128   2.244   8.005  11.004 -0.0799  0.3924  0.0827
  350MOL0     C47129   2.238   7.915  11.136 -0.4313 -0.5293 -0.4762
  350MOL0     C47130   2.283   7.774  11.095  0.1396  0.0057  0.2230
  350MOL0     C47131   2.259   7.676  11.207  0.9290  0.1631  1.0134
  350MOL0     N47132   2.379   7.696  11.299 -0.4658 -0.7212  0.4427
  350MOL0     C47133   2.506   7.642  11.269  0.7312  0.9286 -0.9076
  350MOL0     C47134   2.571   7.691  11.377  0.0427  0.0081  0.9399
  350MOL0     C47135   2.718   7.645  11.391 -0.3115  0.6309 -0.0144
  350MOL0     C47136   2.734   7.495  11.435 -1.0988 -0.2898  0.3302
  350MOL0     C47137   2.686   7.456  11.572  0.5782  0.6437 -0.8055
  350MOL0     C47138   2.530   7.463  11.589 -1.1901  0.3074  0.9777
  350MOL0     O47139   2.503   7.397  11.713  0.2843 -0.1431 -0.2376
  350MOL0     C47140   2.399   7.305  11.719  0.6251  0.1678  0.2457
  350MOL0     C47141   2.301   7.276  11.620 -1.0523 -0.1675 -0.3979
  350MOL0     C47142   2.196   7.187  11.638  0.6674  0.0970  0.8842
  350MOL0     C47143   2.193   7.115  11.761  0.1099 -0.4694 -0.1927
  350MOL0     C47144   2.078   7.033  11.794 -0.4082 -0.4248 -0.6846
  350MOL0     O47145   2.003   6.981  11.690 -0.4325 -0.6892 -0.2092
  350MOL0     C47146   1.896   6.907  11.694 -0.0663 -0.0012 -1.1920
  350MOL0     C47147   1.789   6.915  11.795  0.7816 -0.3984 -0.6301
  350MOL0     C47148   1.673   6.835  11.776  0.1077 -0.0238  0.4594
  350MOL0     C47149   1.662   6.732  11.670 -0.4740  0.4977  0.6503
  350MOL0     O47150   1.569   6.632  11.672  0.1493 -0.4013 -0.5230
  350MOL0     C47151   1.430   6.670  11.708  0.2530  0.1905  0.0300
  350MOL0     C47152   1.351   6.555  11.642 -0.1298  0.0731  0.3768
  350MOL0     C47153   1.357   6.428  11.724  0.2102  0.1669  0.1012
  350MOL0     C47154   1.333   6.311  11.626 -0.1071 -1.3320 -0.3095
  350MOL0     C47155   1.452   6.224  11.602  0.9257  0.1518  0.0842
  350MOL0     C47156   1.565   6.308  11.539 -0.4716  0.0007 -0.9873
  350MOL0     C47157   1.661   6.214  11.487 -0.5580 -0.1439  0.0304
  350MOL0     C47158   1.787   6.290  11.445  0.1707 -0.3684  0.6427
  350MOL0    Cl47159   1.789   6.399  11.297  0.5620 -0.0702  0.3284
  350MOL0     C47160   1.777   6.722  11.582  0.6371  0.3051 -0.4569
  350MOL0     C47161   1.885   6.810  11.591 -0.2740 -0.7462 -0.6451
  350MOL0     O47162   2.057   7.010  11.913 -0.8564  0.0033 -0.1049
  350MOL0     C47163   2.288   7.135  11.860  0.8523 -0.2762 -0.1720
  350MOL0     C47164   2.384   7.238  11.839 -1.0277  0.3654  1.0069
  350MOL0     N47165   2.496   7.778  11.455 -0.1622 -0.2278  0.8492
  350MOL0     N47166   2.379   7.783  11.405  1.0895  0.5359  0.2005
  350MOL0     C47167   1.936   8.639  10.696  0.8164 -1.2478  0.4208
  350MOL0     C47168   1.911   8.771  10.647 -0.5936  0.7687  0.2645
  350MOL0     C47169   1.871   9.174  10.529 -0.3859 -1.4585 -0.0696
  350MOL0     C47170   1.779   9.140  10.422  0.3282 -0.2114 -1.1058
  350MOL0     C47171   1.745   9.233  10.338  0.0384 -0.2963  0.1007
  350MOL0     C47172   1.800   9.363  10.348  0.1380  0.6860  0.3774
  350MOL0     O47173   1.765   9.457  10.265  0.1361  0.1429  0.1265
  350MOL0     C47174   1.633   9.444  10.206  0.3178  0.7033 -0.7272
  350MOL0     C47175   1.578   9.563  10.122 -0.0961  0.0132 -0.5933
  350MOL0     C47176   1.516   9.689  10.198 -0.8817  0.6039 -0.8802
  350MOL0     C47177   1.397   9.661  10.297 -0.3792 -0.3980  0.2061
  350MOL0     C47178   1.287   9.584  10.240 -0.6626  0.8351  0.0133
  350MOL0     C47179   1.195   9.527  10.188  0.4147  0.1815  0.4830
  350MOL0     C47180   1.890   9.399  10.444  0.0481 -0.0621 -0.1794
  350MOL0     C47181   1.928   9.305  10.537  0.4719  1.0061  0.1797
  350MOL0     C47182   2.020   9.332  10.659 -0.0454  0.7589  0.5216
  350MOL0     H47183   2.224   8.871  10.630  0.6057  0.4568  2.4702
  350MOL0     H47184   2.271   8.657  10.699 -0.2873 -1.3941 -3.4293
  350MOL0     H47185   1.947   8.514  10.927 -0.0125  1.3361  0.4342
  350MOL0     H47186   1.928   8.366  10.837 -1.2179  1.1396  0.9959
  350MOL0     H47187   2.003   8.316  11.070  0.3409 -0.2592  0.6972
  350MOL0     H47188   2.140   8.424  11.058 -1.1699  0.4852  0.7322
  350MOL0     H47189   2.246   8.282  10.893  1.1526  0.4748  1.6811
  350MOL0     H47190   2.098   8.178  10.886 -0.0823 -1.1965  0.8370
  350MOL0     H47191   2.287   8.194  11.121 -1.2322  1.1065  1.4524
  350MOL0     H47192   2.120   8.140  11.116  0.8469  1.8958  0.5606
  350MOL0     H47193   2.156   7.978  10.943 -2.6633  0.8626  3.3301
  350MOL0     H47194   2.340   8.002  10.952 -0.2357  4.4563 -0.7022
  350MOL0     H47195   2.296   7.961  11.216  0.5180  0.9324 -1.9365
  350MOL0     H47196   2.133   7.905  11.167  0.6106 -0.4516  3.5401
  350MOL0     H47197   2.390   7.790  11.078  0.7760 -0.5238  3.2469
  350MOL0     H47198   2.234   7.742  11.002  2.1258  0.3807 -1.0143
  350MOL0     H47199   2.159   7.695  11.249  1.3473  1.7642  1.3753
  350MOL0     H47200   2.266   7.573  11.172 -1.4630  0.5762 -0.9540
  350MOL0     H47201   2.531   7.572  11.190 -1.7214  0.0959 -1.0518
  350MOL0     H47202   2.770   7.657  11.296  2.6638 -1.4273  1.1980
  350MOL0     H47203   2.767   7.708  11.466 -1.0792  1.1245  0.0851
  350MOL0     H47204   2.673   7.437  11.365 -0.8809  1.1178 -1.0930
  350MOL0     H47205   2.834   7.452  11.429 -2.2590 -3.8650  3.2866
  350MOL0     H47206   2.737   7.514  11.649 -1.1534 -1.6595  2.3019
  350MOL0     H47207   2.725   7.354  11.584 -2.6985 -0.8245 -1.3118
  350MOL0     H47208   2.485   7.419  11.499  0.4891 -0.3033  0.4013
  350MOL0     H47209   2.485   7.561  11.603  0.2913  0.8314  2.3271
  350MOL0     H47210   2.290   7.327  11.525  0.7518  2.9459  0.8988
  350MOL0     H47211   2.119   7.189  11.562 -2.1530 -0.5497  3.5214
  350MOL0     H47212   1.789   6.986  11.877  1.3444  0.4431 -1.3411
  350MOL0     H47213   1.602   6.860  11.855 -0.3815  2.8843 -0.7830
  350MOL0     H47214   1.415   6.672  11.816 -0.7012 -0.9398 -0.0675
  350MOL0     H47215   1.391   6.765  11.671 -2.4734 -0.2253  1.5872
  350MOL0     H47216   1.248   6.589  11.632  1.1194  5.5189  2.4624
  350MOL0     H47217   1.413   6.549  11.553 -0.1223  0.9205  0.3221
  350MOL0     H47218   1.458   6.410  11.764  0.4679 -0.4923 -0.7997
  350MOL0     H47219   1.284   6.426  11.805 -0.6052 -0.6056 -0.6353
  350MOL0     H47220   1.294   6.354  11.533 -0.5259 -1.0418 -0.0088
  350MOL0     H47221   1.248   6.260  11.673 -1.8782  1.4766 -0.1514
  350MOL0     H47222   1.424   6.137  11.542 -0.2619 -0.4140  1.4010
  350MOL0     H47223   1.485   6.181  11.697  2.3395  1.4702  0.2270
  350MOL0     H47224   1.536   6.378  11.459  0.9907  1.2356 -0.4794
  350MOL0     H47225   1.611   6.359  11.624 -0.0960 -1.2288 -0.4380
  350MOL0     H47226   1.624   6.166  11.396 -1.8471  1.3294 -0.2722
  350MOL0     H47227   1.681   6.145  11.570 -1.1671  2.9399  2.9752
  350MOL0     H47228   1.816   6.360  11.524  2.6850 -0.3035 -0.2687
  350MOL0     H47229   1.867   6.217  11.436 -0.1563 -1.0159  2.5436
  350MOL0     H47230   1.774   6.658  11.494 -3.0473  1.9242 -1.7077
  350MOL0     H47231   1.963   6.810  11.516  1.2410  1.0823  0.8455
  350MOL0     H47232   2.295   7.089  11.958  0.0253 -0.6435 -0.2799
  350MOL0     H47233   2.448   7.264  11.922 -2.0365  0.2189  1.8666
  350MOL0     H47234   1.854   8.568  10.703  0.8758 -1.2214  1.4708
  350MOL0     H47235   1.806   8.789  10.625  0.1937  2.7211 -2.4166
  350MOL0     H47236   1.737   9.040  10.415 -0.1594  0.0804 -2.5487
  350MOL0     H47237   1.671   9.217  10.261  2.9976 -1.2056 -2.7480
  350MOL0     H47238   1.557   9.411  10.278  0.4705  2.9622  0.5802
  350MOL0     H47239   1.649   9.374  10.123 -4.2137 -0.8497 -0.5522
  350MOL0     H47240   1.502   9.511  10.064 -1.2194 -1.5285  2.0794
  350MOL0     H47241   1.648   9.604  10.048 -0.4059 -0.5140 -1.1861
  350MOL0     H47242   1.481   9.763  10.125 -0.7439 -1.4289 -3.1323
  350MOL0     H47243   1.588   9.737  10.265 -3.4193  3.4845 -0.0124
  350MOL0     H47244   1.438   9.602  10.380 -2.2181  0.0073  1.4752
  350MOL0     H47245   1.361   9.754  10.342  3.8598  2.0457 -0.9513
  350MOL0     H47246   1.111   9.483  10.138  0.5189  1.1774 -0.6286
  350MOL0     H47247   1.923   9.502  10.448  1.4053 -0.4986  0.5340
  350MOL0     H47248   2.109   9.269  10.647 -1.5547 -1.1302 -1.6580
  350MOL0     H47249   2.043   9.439  10.660 -2.7644  1.4352 -0.8491
  350MOL0     H47250   1.971   9.309  10.754  2.7158 -0.5105  1.7531
  351MOL0     O47251   0.394   9.101   8.828 -1.0783 -0.3965 -0.1005
  351MOL0     C47252   0.313   9.195   8.825  0.0547 -0.9156 -0.7686
  351MOL0     O47253   0.263   9.257   8.710  0.2109  0.1329 -0.9224
  351MOL0     C47254   0.321   9.229   8.593  1.0779 -0.8708  0.8605
  351MOL0     C47255   0.457   9.249   8.571  0.3437  0.2259 -0.3530
  351MOL0     C47256   0.507   9.243   8.444 -0.8115 -0.0735  0.0885
  351MOL0     C47257   0.433   9.204   8.336  0.4593  0.3823 -0.4443
  351MOL0     O47258   0.484   9.200   8.213 -0.0109 -0.0497 -0.7106
  351MOL0     C47259   0.606   9.125   8.185  0.3440  0.1186  0.0764
  351MOL0     C47260   0.583   9.014   8.076 -0.7110  0.3842  0.0101
  351MOL0     C47261   0.709   8.951   8.027 -0.2389  0.2181  0.1601
  351MOL0     C47262   0.764   9.017   7.896 -0.6085  0.1001 -0.2970
  351MOL0     C47263   0.894   8.943   7.832  0.0932 -0.1114 -0.2617
  351MOL0     C47264   0.926   8.990   7.688  0.1695 -0.3211  0.4905
  351MOL0     C47265   1.058   8.934   7.642  0.2371 -0.3120 -1.5070
  351MOL0     C47266   1.174   9.021   7.685 -0.4997  0.7374  0.0509
  351MOL0     N47267   1.161   9.156   7.646  0.4698  0.2257  0.0971
  351MOL0     C47268   1.146   9.202   7.513 -0.3534 -0.6362 -0.3394
  351MOL0     C47269   1.137   9.340   7.533 -0.1799  0.2247 -0.4974
  351MOL0     C47270   1.099   9.451   7.440 -0.1670 -0.3074  0.0221
  351MOL0     C47271   0.960   9.431   7.374  0.1907 -0.8796 -0.2048
  351MOL0     C47272   0.929   9.534   7.260 -1.6806 -0.8304 -0.5497
  351MOL0     C47273   0.835   9.485   7.157 -0.3880  0.4296  0.1930
  351MOL0     O47274   0.865   9.351   7.106 -0.1932 -0.7010 -0.0705
  351MOL0     C47275   0.826   9.336   6.977 -0.3586 -0.4890 -0.5740
  351MOL0     C47276   0.700   9.291   6.948  0.6950 -0.7458 -0.3812
  351MOL0     C47277   0.653   9.274   6.816  0.2835 -0.0394 -1.4152
  351MOL0     C47278   0.733   9.310   6.718 -0.1994 -0.0694  0.7762
  351MOL0     C47279   0.684   9.305   6.577  0.3487 -0.2487 -0.5749
  351MOL0     O47280   0.776   9.330   6.483  0.6203 -0.1543 -0.8491
  351MOL0     C47281   0.762   9.267   6.363 -0.9582  0.5825  0.7565
  351MOL0     C47282   0.733   9.344   6.245  1.5521 -0.0720  0.2414
  351MOL0     C47283   0.721   9.279   6.122  0.0286 -0.9253  0.3320
  351MOL0     C47284   0.753   9.139   6.109  0.1554 -0.1542 -0.0434
  351MOL0     O47285   0.729   9.070   5.998  0.3913 -0.3934  0.1071
  351MOL0     C47286   0.848   9.001   5.954  0.4053  0.6422  0.4436
  351MOL0     C47287   0.837   8.957   5.803 -0.2774 -0.8950  0.3070
  351MOL0     C47288   0.950   8.872   5.738  0.2871 -0.1002  0.5343
  351MOL0     C47289   1.092   8.923   5.765  0.2574  0.0046  0.4774
  351MOL0     C47290   1.193   8.848   5.681  0.3066  0.5737  0.5531
  351MOL0     C47291   1.250   8.719   5.748  0.3375 -0.5459  0.9977
  351MOL0     C47292   1.347   8.644   5.645 -0.6367 -0.4397  0.4276
  351MOL0     C47293   1.446   8.553   5.713  0.0511  0.0634  0.5906
  351MOL0    Cl47294   1.552   8.624   5.837  0.4535  0.5664  0.1301
  351MOL0     C47295   0.793   9.072   6.223  0.5667 -0.1934 -0.0599
  351MOL0     C47296   0.797   9.132   6.349 -0.2905  0.3654  0.5187
  351MOL0     O47297   0.570   9.255   6.560 -0.3277 -0.0109 -0.2080
  351MOL0     C47298   0.859   9.365   6.737  0.4331 -0.9936 -0.1309
  351MOL0     C47299   0.915   9.374   6.866 -0.3788  0.5498  0.2327
  351MOL0     N47300   1.161   9.370   7.673 -0.3046  0.7423 -0.2472
  351MOL0     N47301   1.181   9.265   7.731  0.4437  0.2097  0.0166
  351MOL0     C47302   0.304   9.168   8.357  0.0243 -0.5284 -0.2125
  351MOL0     C47303   0.243   9.194   8.482  0.1200  0.8098 -0.8869
  351MOL0     C47304   0.268   9.263   8.957 -0.1530  0.1153  0.0498
  351MOL0     C47305   0.162   9.362   8.962  0.1835 -0.7390  0.2054
  351MOL0     C47306   0.117   9.413   9.083 -0.7255  0.0509 -0.1927
  351MOL0     C47307   0.184   9.377   9.203 -0.0179 -0.3129  0.4434
  351MOL0     O47308   0.149   9.418   9.327  0.1301  0.9967  0.0540
  351MOL0     C47309   0.040   9.506   9.357 -0.6164  0.2687  0.0409
  351MOL0     C47310  -0.092   9.419   9.394  1.4331  0.5013 -0.1206
  351MOL0     C47311  -0.094   9.352   9.524 -0.0604 -0.2352 -0.5126
  351MOL0     C47312  -0.155   9.437   9.641 -0.3677 -0.5863 -0.1260
  351MOL0     C47313  -0.081   9.568   9.661 -0.2048 -0.2165 -1.0349
  351MOL0     C47314  -0.010   9.659   9.694  0.2436  0.3913 -0.2960
  351MOL0     C47315   0.293   9.292   9.195  0.0440  0.2741 -0.1038
  351MOL0     C47316   0.337   9.237   9.078 -0.1286 -0.1657  0.0638
  351MOL0     C47317   0.457   9.142   9.111  0.2490 -0.3628 -0.1822
  351MOL0     H47318   0.527   9.273   8.649 -1.0901 -0.7980  1.3135
  351MOL0     H47319   0.605   9.289   8.430  0.2932 -1.2783  3.0275
  351MOL0     H47320   0.687   9.189   8.149 -0.8532  2.1026  0.7290
  351MOL0     H47321   0.638   9.069   8.274  0.8019  0.0352 -0.1360
  351MOL0     H47322   0.540   9.058   7.986 -0.1361  1.4158  0.2187
  351MOL0     H47323   0.514   8.940   8.118 -0.8053  1.0870  1.1443
  351MOL0     H47324   0.706   8.844   8.005  1.1172  0.0352  0.7951
  351MOL0     H47325   0.791   8.961   8.099  2.0913  1.9553 -2.4873
  351MOL0     H47326   0.695   9.022   7.812 -1.1718 -0.2011  0.1411
  351MOL0     H47327   0.782   9.122   7.922 -1.2173  0.4923 -1.4038
  351MOL0     H47328   0.975   8.963   7.903 -2.4143  2.4706  2.1690
  351MOL0     H47329   0.878   8.835   7.834 -0.5790 -0.0126  1.5922
  351MOL0     H47330   0.848   8.952   7.621  0.0435  1.0016 -0.1511
  351MOL0     H47331   0.924   9.099   7.683  2.3959 -0.1879  1.1876
  351MOL0     H47332   1.062   8.934   7.533  0.0900 -0.3213 -1.5115
  351MOL0     H47333   1.058   8.827   7.665 -0.4229 -0.2256 -1.1095
  351MOL0     H47334   1.179   9.026   7.795  0.7136  5.2831 -0.0229
  351MOL0     H47335   1.267   8.987   7.639  2.4488  3.4564  3.3776
  351MOL0     H47336   1.134   9.145   7.421  0.4849 -2.1922  0.4700
  351MOL0     H47337   1.099   9.543   7.498  0.2264  0.0508 -0.5293
  351MOL0     H47338   1.180   9.450   7.366 -2.3862  0.8877 -2.6033
  351MOL0     H47339   0.959   9.329   7.336 -2.9622 -0.0596 -2.7174
  351MOL0     H47340   0.886   9.434   7.454 -0.0401  2.5491 -0.3850
  351MOL0     H47341   1.023   9.551   7.208 -0.2042 -2.2213  1.5211
  351MOL0     H47342   0.892   9.632   7.294  1.8193 -0.0124  1.4165
  351MOL0     H47343   0.841   9.554   7.072  0.9759 -2.2410 -2.0417
  351MOL0     H47344   0.736   9.479   7.202 -0.0571 -1.6239  0.7331
  351MOL0     H47345   0.625   9.266   7.022 -0.1268  2.3465 -0.0124
  351MOL0     H47346   0.559   9.225   6.794  1.2662 -2.0726 -1.2739
  351MOL0     H47347   0.716   9.450   6.259 -0.6497 -0.3929  0.3411
  351MOL0     H47348   0.696   9.346   6.041 -1.9259 -0.0576  1.5682
  351MOL0     H47349   0.935   9.069   5.958  1.9945 -1.3526  3.4873
  351MOL0     H47350   0.861   8.909   6.011 -2.3957 -1.1058 -1.4618
  351MOL0     H47351   0.745   8.898   5.800 -1.6374  1.1626 -1.7851
  351MOL0     H47352   0.815   9.040   5.736 -0.3114 -2.6476 -1.9413
  351MOL0     H47353   0.947   8.765   5.756 -0.5560 -0.7825 -2.9203
  351MOL0     H47354   0.928   8.875   5.631  0.4470 -2.1851  0.4091
  351MOL0     H47355   1.110   8.911   5.872  0.5895  2.5420  0.7819
  351MOL0     H47356   1.098   9.030   5.744  2.5209 -0.2533 -0.5618
  351MOL0     H47357   1.270   8.905   5.628 -1.6381  2.7229 -0.0936
  351MOL0     H47358   1.136   8.813   5.595  1.0769 -0.9801  0.6298
  351MOL0     H47359   1.301   8.749   5.839  0.2099  1.3635  0.4935
  351MOL0     H47360   1.169   8.651   5.773 -1.3044  0.0019 -2.2121
  351MOL0     H47361   1.393   8.712   5.573 -1.0360 -1.2400 -0.5914
  351MOL0     H47362   1.302   8.566   5.583  0.3860 -0.3174 -0.5028
  351MOL0     H47363   1.395   8.469   5.763  1.4361  1.5387  4.9391
  351MOL0     H47364   1.520   8.512   5.644  2.8203 -0.7558  3.7413
  351MOL0     H47365   0.797   8.964   6.215  0.6055 -0.3584  1.7403
  351MOL0     H47366   0.824   9.058   6.424 -0.4637 -1.2352 -0.9350
  351MOL0     H47367   0.915   9.396   6.649  0.7497 -0.3924  0.2720
  351MOL0     H47368   1.012   9.419   6.884 -1.8912  3.7147  1.1879
  351MOL0     H47369   0.242   9.151   8.269 -2.2007  0.4610  1.0718
  351MOL0     H47370   0.138   9.168   8.490 -0.2222  2.3387 -0.0596
  351MOL0     H47371   0.108   9.387   8.872 -1.1366 -0.2014  1.1101
  351MOL0     H47372   0.030   9.476   9.072 -2.7070 -2.4252  0.3203
  351MOL0     H47373   0.024   9.576   9.275 -3.2207 -1.5902 -1.2098
  351MOL0     H47374   0.067   9.567   9.444 -0.6319  0.9840 -0.4555
  351MOL0     H47375  -0.111   9.330   9.333  3.4736 -1.3013  1.7110
  351MOL0     H47376  -0.179   9.486   9.398 -0.5710 -1.9713  1.1037
  351MOL0     H47377   0.009   9.320   9.542 -0.5118 -1.3293  0.1763
  351MOL0     H47378  -0.158   9.266   9.508 -2.3866  1.5144 -1.1706
  351MOL0     H47379  -0.258   9.459   9.612 -0.3261 -0.3509 -0.0925
  351MOL0     H47380  -0.154   9.374   9.730  0.2946  0.6402  0.7635
  351MOL0     H47381   0.047   9.740   9.735 -2.4463  0.2109  4.6819
  351MOL0     H47382   0.329   9.269   9.295  0.6406  1.8930  0.0845
  351MOL0     H47383   0.502   9.162   9.208 -1.4786  0.0803  0.5650
  351MOL0     H47384   0.428   9.036   9.109 -0.7372 -0.1188 -2.5108
  351MOL0     H47385   0.531   9.154   9.031  1.3231  1.2725  1.0133
  352MOL0     O47386  10.687   7.048  10.559  0.2264 -0.0507 -0.1264
  352MOL0     C47387  10.737   7.145  10.514  0.8147  0.3100 -0.2418
  352MOL0     O47388  10.753   7.176  10.381 -0.7729  0.5506  0.4377
  352MOL0     C47389  10.695   7.101  10.284 -0.4509  0.3882  0.9538
  352MOL0     C47390  10.778   7.059  10.184 -0.1177  0.6812  0.4400
  352MOL0     C47391  10.721   7.003  10.065  0.3444 -0.2716 -0.1252
  352MOL0     C47392  10.583   6.973  10.045 -0.1904  0.5362 -0.2162
  352MOL0     O47393  10.558   6.907   9.937  0.3077  0.2553  0.5746
  352MOL0     C47394  10.561   6.762   9.951  0.1326 -0.1603  0.0623
  352MOL0     C47395  10.419   6.717  10.010  0.3653 -0.5670  0.1770
  352MOL0     C47396  10.312   6.765   9.907  0.5582 -0.9312 -0.7122
  352MOL0     C47397  10.172   6.695   9.943  0.5718 -0.7445  0.1724
  352MOL0     C47398  10.094   6.779  10.053  0.2108  0.7063 -0.5880
  352MOL0     C47399   9.937   6.762  10.061 -0.5259 -0.0850  0.2533
  352MOL0     C47400   9.884   6.624  10.057  0.5662  0.3386 -0.6659
  352MOL0     C47401   9.894   6.562  10.200  1.4249 -0.7880  0.2904
  352MOL0     N47402   9.841   6.424  10.192  0.3867 -0.7326  1.0453
  352MOL0     C47403   9.872   6.327  10.275 -0.3784 -0.0359 -0.4239
  352MOL0     C47404   9.784   6.226  10.250 -0.7628 -0.6281 -0.9595
  352MOL0     C47405   9.789   6.090  10.313 -0.2744 -0.4778  0.2176
  352MOL0     C47406   9.909   6.011  10.262  0.3159  0.7928  0.0951
  352MOL0     C47407   9.872   5.952  10.123  0.2646  0.4267  0.6588
  352MOL0     C47408   9.990   5.876  10.071 -0.5153 -0.7695 -1.1272
  352MOL0     O47409   9.996   5.882   9.931 -0.8736 -0.8418 -0.8086
  352MOL0     C47410   9.906   5.794   9.877  0.1340  0.1319  0.5259
  352MOL0     C47411   9.801   5.842   9.804 -0.3060  0.3062  0.8033
  352MOL0     C47412   9.716   5.759   9.740  0.2433 -0.0162 -0.9495
  352MOL0     C47413   9.724   5.621   9.747 -0.7781 -0.1407  0.5958
  352MOL0     C47414   9.636   5.532   9.673 -0.0110  0.0025  0.4052
  352MOL0     O47415   9.647   5.398   9.705  0.5074  0.5653 -0.2340
  352MOL0     C47416   9.563   5.294   9.668 -0.1927 -0.1753  0.3470
  352MOL0     C47417   9.459   5.306   9.578 -0.7400 -0.1823  0.7793
  352MOL0     C47418   9.366   5.210   9.556 -1.1938  0.2886  0.2703
  352MOL0     C47419   9.397   5.079   9.594  0.7479 -0.5331  0.0889
  352MOL0     O47420   9.302   4.988   9.567  0.3838 -0.2548  0.2187
  352MOL0     C47421   9.321   4.853   9.614  0.3200 -0.1183 -0.1526
  352MOL0     C47422   9.186   4.770   9.612 -0.8980  0.2062  0.5054
  352MOL0     C47423   9.157   4.736   9.462 -0.1617 -0.4566 -0.0648
  352MOL0     C47424   9.008   4.710   9.438  0.6969  0.0793  0.3784
  352MOL0     C47425   8.979   4.561   9.472  0.3394 -0.2685 -0.6720
  352MOL0     C47426   8.830   4.516   9.456 -0.1992 -0.6064  0.4884
  352MOL0     C47427   8.816   4.356   9.477  0.5671  0.3910  0.1872
  352MOL0     C47428   8.674   4.307   9.437  0.6736 -1.2273 -0.7824
  352MOL0    Cl47429   8.548   4.370   9.537  0.3852 -0.2893 -0.1339
  352MOL0     C47430   9.515   5.061   9.665 -0.8593 -0.4801 -0.0675
  352MOL0     C47431   9.595   5.170   9.710  0.1275  0.4272 -0.9620
  352MOL0     O47432   9.553   5.582   9.606 -0.0880 -0.1542  0.1366
  352MOL0     C47433   9.827   5.567   9.830  0.0967  0.3642  0.0168
  352MOL0     C47434   9.917   5.650   9.893 -0.2540 -0.6437  0.1451
  352MOL0     N47435   9.700   6.274  10.160  0.7082  0.6817  0.0084
  352MOL0     N47436   9.733   6.391  10.124 -0.4889 -0.5552 -0.3360
  352MOL0     C47437  10.499   7.005  10.150 -0.3192 -1.1414 -0.1441
  352MOL0     C47438  10.556   7.070  10.275  0.2102  0.5659  0.8343
  352MOL0     C47439  10.774   7.255  10.609 -0.5428 -0.6893 -0.0245
  352MOL0     C47440  10.871   7.349  10.578 -0.4479  0.4466 -0.5470
  352MOL0     C47441  10.915   7.445  10.672  1.0411 -0.3218 -0.0977
  352MOL0     C47442  10.843   7.473  10.787  0.4332  0.2940  0.2964
  352MOL0     O47443  10.879   7.571  10.881 -0.5678  0.1381 -0.1687
  352MOL0     C47444  10.904   7.536  11.023 -0.5566 -0.1649 -0.5004
  352MOL0     C47445  11.050   7.509  11.078  0.2166 -1.0552 -0.6622
  352MOL0     C47446  11.037   7.485  11.228  0.2177 -0.6572  0.8066
  352MOL0     C47447  11.171   7.434  11.279  0.9031 -0.2811  0.0353
  352MOL0     C47448  11.143   7.322  11.373  0.1310 -1.1234  0.4613
  352MOL0     C47449  11.149   7.213  11.439  0.1334  0.2341  0.8995
  352MOL0     C47450  10.735   7.386  10.821 -0.0968 -0.0556 -0.0598
  352MOL0     C47451  10.704   7.286  10.733 -0.5646  0.4579  0.4629
  352MOL0     C47452  10.576   7.220  10.772 -0.9937 -0.3428  0.6682
  352MOL0     H47453  10.887   7.060  10.187 -0.0731 -0.7675  0.2595
  352MOL0     H47454  10.785   6.977   9.981 -0.9425  2.5507 -2.1329
  352MOL0     H47455  10.591   6.716   9.857  2.5805  0.8061  0.2980
  352MOL0     H47456  10.630   6.726  10.028 -0.7010 -3.9518 -0.7917
  352MOL0     H47457  10.406   6.762  10.109  1.1554  3.0191 -1.1798
  352MOL0     H47458  10.430   6.609  10.020  0.9831 -0.5278 -0.0381
  352MOL0     H47459  10.337   6.740   9.804 -0.4942  1.1481 -1.5118
  352MOL0     H47460  10.297   6.873   9.909  2.4619 -0.6167 -1.4698
  352MOL0     H47461  10.113   6.693   9.851 -0.5299  0.8705  0.8087
  352MOL0     H47462  10.174   6.588   9.966  0.8951 -0.7904 -0.0733
  352MOL0     H47463  10.130   6.748  10.151 -1.3706  0.4979 -0.0339
  352MOL0     H47464  10.109   6.887  10.042  1.0627  0.7964  1.1301
  352MOL0     H47465   9.897   6.798  10.157 -0.6264  1.4921 -0.3662
  352MOL0     H47466   9.895   6.817   9.977  0.2271 -2.1124 -1.5205
  352MOL0     H47467   9.941   6.565   9.984  1.2436  3.3481 -2.7109
  352MOL0     H47468   9.778   6.622  10.030  0.2983 -1.6997  0.2715
  352MOL0     H47469   9.999   6.568  10.229  2.7567 -0.5395 -4.0181
  352MOL0     H47470   9.835   6.618  10.274  1.4225 -1.1436  0.5596
  352MOL0     H47471   9.966   6.338  10.329 -0.1384  0.7079 -0.9836
  352MOL0     H47472   9.810   6.105  10.419 -3.5452  0.0746  0.9143
  352MOL0     H47473   9.692   6.039  10.304  1.3607 -4.1107  1.3320
  352MOL0     H47474  10.001   6.070  10.259 -0.2086  1.6032 -0.6463
  352MOL0     H47475   9.937   5.929  10.330 -2.4955  0.0790  0.5193
  352MOL0     H47476   9.859   6.036  10.054  3.0506 -0.5175 -1.2082
  352MOL0     H47477   9.774   5.904  10.117 -0.9306  2.8769 -2.1717
  352MOL0     H47478   9.982   5.772  10.104 -1.2987 -0.2829  0.2807
  352MOL0     H47479  10.082   5.914  10.116 -2.2517 -1.0039  3.0550
  352MOL0     H47480   9.802   5.951   9.799  0.0243  0.2922  0.5730
  352MOL0     H47481   9.622   5.797   9.700 -1.3475 -0.4547  2.0446
  352MOL0     H47482   9.434   5.393   9.518 -4.7042 -0.2134  2.1321
  352MOL0     H47483   9.276   5.224   9.497 -0.1990  2.3107 -0.8672
  352MOL0     H47484   9.394   4.791   9.561 -1.4757 -4.7587  2.2096
  352MOL0     H47485   9.347   4.855   9.720  1.4010  2.9848 -0.3778
  352MOL0     H47486   9.198   4.671   9.658  2.9669  0.3488  0.1255
  352MOL0     H47487   9.096   4.814   9.657 -0.8976  0.7682 -0.0334
  352MOL0     H47488   9.188   4.822   9.402  3.1930 -2.5290 -1.6500
  352MOL0     H47489   9.225   4.655   9.433  0.1210  0.9051 -3.6380
  352MOL0     H47490   8.979   4.725   9.334  0.2700 -0.9267  0.3477
  352MOL0     H47491   8.951   4.779   9.500 -0.9454  0.8930 -1.9112
  352MOL0     H47492   9.008   4.542   9.575  1.9938  1.2194 -0.8099
  352MOL0     H47493   9.040   4.498   9.407 -1.0305 -1.1022 -1.1791
  352MOL0     H47494   8.771   4.576   9.526  1.4556  0.6224  0.9018
  352MOL0     H47495   8.787   4.535   9.357  0.9748  1.1891  0.2599
  352MOL0     H47496   8.849   4.325   9.577  3.9840  2.3814 -0.1544
  352MOL0     H47497   8.876   4.306   9.400  1.5275  0.9810  0.5282
  352MOL0     H47498   8.657   4.321   9.329  0.1207  2.3448 -0.3593
  352MOL0     H47499   8.674   4.198   9.445  1.7929 -1.1990 -0.1718
  352MOL0     H47500   9.546   4.958   9.681 -0.4709 -0.1506  1.4607
  352MOL0     H47501   9.688   5.155   9.763  1.7703  1.6762 -3.2711
  352MOL0     H47502   9.844   5.460   9.837 -2.3159 -0.2997 -2.2267
  352MOL0     H47503  10.008   5.623   9.944  0.1054 -1.5311 -0.9088
  352MOL0     H47504  10.392   7.002  10.131 -0.4275 -3.1575  0.4920
  352MOL0     H47505  10.494   7.091  10.362 -4.4498 -1.2930 -1.6664
  352MOL0     H47506  10.937   7.335  10.493  0.1116 -2.2070  0.2201
  352MOL0     H47507  11.002   7.506  10.650  3.2991 -3.1271  0.4346
  352MOL0     H47508  10.840   7.453  11.052  0.6765 -1.2031 -0.6314
  352MOL0     H47509  10.869   7.619  11.085  0.4180  1.7912 -2.4181
  352MOL0     H47510  11.116   7.594  11.058 -1.6498  0.3535 -1.1513
  352MOL0     H47511  11.089   7.423  11.022 -1.7842 -0.4492 -3.1940
  352MOL0     H47512  10.955   7.418  11.255 -1.1762  0.8276  0.4143
  352MOL0     H47513  11.008   7.576  11.282 -0.6532 -1.2730  1.4002
  352MOL0     H47514  11.236   7.404  11.196 -0.8187  0.5321 -1.6783
  352MOL0     H47515  11.226   7.514  11.331  1.8596 -1.7997  1.4501
  352MOL0     H47516  11.174   7.138  11.511  2.6800 -2.2545 -2.2941
  352MOL0     H47517  10.686   7.409  10.915  0.9803 -0.1524  0.5360
  352MOL0     H47518  10.521   7.285  10.842 -0.4456 -0.8761  1.6237
  352MOL0     H47519  10.520   7.215  10.679  1.4479 -0.1899 -0.8898
  352MOL0     H47520  10.592   7.123  10.820  4.1948  0.7237  1.6948
  353MOL0     O47521   3.245   1.771   0.326 -0.3804 -0.4576  0.2219
  353MOL0     C47522   3.298   1.797   0.436  0.0417 -0.1146  1.0313
  353MOL0     O47523   3.345   1.924   0.470  0.1047 -0.9242  0.3937
  353MOL0     C47524   3.326   2.026   0.376  0.3121  0.6195  0.5869
  353MOL0     C47525   3.198   2.077   0.341  0.0672 -1.1124  0.6488
  353MOL0     C47526   3.194   2.196   0.270 -0.2734 -0.1943  0.2747
  353MOL0     C47527   3.310   2.243   0.201  0.3990  0.1910 -0.8416
  353MOL0     O47528   3.302   2.361   0.133  0.1188 -0.5582 -0.3419
  353MOL0     C47529   3.365   2.361  -0.001  0.3737 -0.2220  0.4924
  353MOL0     C47530   3.283   2.257  -0.088 -1.0126 -0.8573 -0.4483
  353MOL0     C47531   3.359   2.118  -0.079 -0.4389 -0.0083  0.4713
  353MOL0     C47532   3.305   2.020  -0.189 -0.4163 -0.2878 -0.1632
  353MOL0     C47533   3.165   1.968  -0.160 -0.3149 -0.6348  0.9102
  353MOL0     C47534   3.154   1.826  -0.222  0.3501  1.1157 -0.0970
  353MOL0     C47535   3.230   1.718  -0.138 -0.6079  0.3863 -0.8517
  353MOL0     C47536   3.206   1.737   0.009  0.5785 -0.0497 -0.4678
  353MOL0     N47537   3.057   1.736   0.029  0.0461  1.5395 -0.0649
  353MOL0     C47538   2.985   1.809   0.121  0.9096  0.4490  0.2851
  353MOL0     C47539   2.862   1.750   0.127 -0.3762  0.1083 -0.5240
  353MOL0     C47540   2.757   1.813   0.203 -0.5894 -1.3163 -0.6934
  353MOL0     C47541   2.799   1.898   0.329  0.0142 -0.0311 -0.9884
  353MOL0     C47542   2.674   1.946   0.403 -0.1815 -0.6365 -0.5393
  353MOL0     C47543   2.676   2.097   0.408 -0.4465  0.5246  0.2408
  353MOL0     O47544   2.779   2.132   0.500 -0.4871  0.8170  0.6053
  353MOL0     C47545   2.827   2.259   0.491  0.3944 -0.7635 -0.4745
  353MOL0     C47546   2.933   2.288   0.566 -0.5588 -0.2093  0.5003
  353MOL0     C47547   3.005   2.408   0.558 -0.9497 -1.0370  0.3936
  353MOL0     C47548   2.941   2.520   0.495 -0.5419  0.4423  1.3915
  353MOL0     C47549   3.005   2.650   0.496 -0.5244  0.0202 -0.1414
  353MOL0     O47550   3.132   2.663   0.550  0.8001  0.1352  0.3452
  353MOL0     C47551   3.194   2.788   0.554  0.8369 -0.1587 -0.3781
  353MOL0     C47552   3.317   2.787   0.511 -0.4733  0.0033  0.4489
  353MOL0     C47553   3.388   2.900   0.521 -1.2180  0.1190 -0.8412
  353MOL0     C47554   3.347   3.023   0.582 -0.5471  0.8260  0.0488
  353MOL0     O47555   3.435   3.128   0.592 -0.5164  0.3585 -1.0628
  353MOL0     C47556   3.412   3.230   0.691 -0.3611  0.3727 -0.5175
  353MOL0     C47557   3.538   3.259   0.784 -0.4573  0.3146 -1.2017
  353MOL0     C47558   3.533   3.393   0.853  0.0838  0.1289 -0.4301
  353MOL0     C47559   3.630   3.396   0.966 -1.2370  0.9497 -0.8051
  353MOL0     C47560   3.661   3.541   1.017  0.5456  0.1184  0.7431
  353MOL0     C47561   3.534   3.596   1.068 -0.2765  0.1980  0.5118
  353MOL0     C47562   3.545   3.737   1.131  0.5311 -0.1108 -0.9465
  353MOL0     C47563   3.629   3.836   1.052  0.2913  1.1906 -0.1034
  353MOL0    Cl47564   3.573   3.855   0.882 -0.5095 -0.3114  0.4618
  353MOL0     C47565   3.213   3.028   0.621  0.7356 -0.2330  0.7581
  353MOL0     C47566   3.139   2.905   0.605  0.3328 -0.2899  0.0907
  353MOL0     O47567   2.938   2.739   0.445  0.2096 -0.3905  0.4757
  353MOL0     C47568   2.819   2.493   0.434 -0.4498  0.7879  0.6383
  353MOL0     C47569   2.757   2.367   0.432 -0.6656 -0.0491 -0.8543
  353MOL0     N47570   2.854   1.642   0.047  0.9133  0.6454 -0.2111
  353MOL0     N47571   2.965   1.635  -0.013 -0.3343  0.4120  0.5601
  353MOL0     C47572   3.435   2.183   0.226 -0.0299  0.4839 -0.0901
  353MOL0     C47573   3.445   2.081   0.319  0.1238 -0.5749  0.7600
  353MOL0     C47574   3.312   1.688   0.543 -0.1540 -0.8923 -0.3661
  353MOL0     C47575   3.407   1.691   0.643  0.2164  0.1610 -0.1489
  353MOL0     C47576   3.426   1.590   0.742 -0.2262 -0.2008  0.7302
  353MOL0     C47577   3.332   1.487   0.742  0.0030 -0.0361  0.0375
  353MOL0     O47578   3.340   1.386   0.837 -0.3384 -0.0064 -0.5693
  353MOL0     C47579   3.274   1.259   0.816  0.6629  0.1501 -0.0633
  353MOL0     C47580   3.324   1.191   0.692  0.3851  0.0454  0.2529
  353MOL0     C47581   3.230   1.079   0.658 -0.5158  0.1899 -0.2068
  353MOL0     C47582   3.092   1.120   0.614  0.0221  0.6027  0.6199
  353MOL0     C47583   3.022   1.020   0.528  0.2466  0.7688  0.8580
  353MOL0     C47584   2.977   0.970   0.426  0.5482  0.3936 -0.2328
  353MOL0     C47585   3.221   1.494   0.657  0.2230  0.7463 -0.8957
  353MOL0     C47586   3.216   1.587   0.551  0.6663  0.1154 -0.3629
  353MOL0     C47587   3.083   1.583   0.468 -0.2512  0.0264 -0.1660
  353MOL0     H47588   3.111   2.032   0.386 -1.0296 -1.9540 -2.1018
  353MOL0     H47589   3.101   2.252   0.272  1.1744  2.4500 -1.1111
  353MOL0     H47590   3.335   2.456  -0.045 -0.2168 -0.0194  1.2939
  353MOL0     H47591   3.474   2.355   0.001  0.7031  3.3635 -0.1069
  353MOL0     H47592   3.280   2.299  -0.189  1.7386 -0.2812 -0.3708
  353MOL0     H47593   3.176   2.247  -0.066 -1.4924  2.2786 -0.9101
  353MOL0     H47594   3.348   2.060   0.013  1.4607  0.5971  1.1275
  353MOL0     H47595   3.466   2.138  -0.090 -0.2495  0.0551  2.2411
  353MOL0     H47596   3.322   2.059  -0.290  1.2341  0.7030  0.4395
  353MOL0     H47597   3.378   1.939  -0.191 -0.4390 -0.3069 -0.2264
  353MOL0     H47598   3.145   1.977  -0.053 -0.2393  0.9461  0.8132
  353MOL0     H47599   3.093   2.037  -0.204  1.9430  1.2018 -0.1026
  353MOL0     H47600   3.047   1.801  -0.223  1.1899 -3.3945  0.1965
  353MOL0     H47601   3.180   1.815  -0.327  1.2420 -1.6585  0.3246
  353MOL0     H47602   3.338   1.729  -0.154 -0.6206  2.6318  0.3041
  353MOL0     H47603   3.200   1.618  -0.170  4.4785 -2.8076  2.7946
  353MOL0     H47604   3.249   1.661   0.074 -1.3504 -1.8087 -1.1504
  353MOL0     H47605   3.238   1.837   0.042 -2.0152  1.1243 -1.2259
  353MOL0     H47606   3.013   1.901   0.173 -1.4210  1.2052  0.3287
  353MOL0     H47607   2.713   1.882   0.131  3.1728  0.9491 -1.0459
  353MOL0     H47608   2.700   1.725   0.237 -0.8023 -0.4918  1.2365
  353MOL0     H47609   2.854   1.843   0.405 -2.3400 -2.4875 -0.9199
  353MOL0     H47610   2.877   1.969   0.300  0.7689  0.0434  1.0655
  353MOL0     H47611   2.675   1.897   0.501 -2.1747 -4.0618 -2.0459
  353MOL0     H47612   2.586   1.918   0.345 -1.1436 -1.8207  1.3761
  353MOL0     H47613   2.575   2.123   0.441 -0.6529  1.2352 -0.9258
  353MOL0     H47614   2.693   2.132   0.306  0.3443  1.6300  0.7321
  353MOL0     H47615   2.969   2.200   0.618 -0.4674  0.0903  0.9531
  353MOL0     H47616   3.094   2.428   0.616 -1.5807  2.6842  0.3649
  353MOL0     H47617   3.370   2.700   0.471 -0.0816 -0.1847  1.3531
  353MOL0     H47618   3.495   2.892   0.504 -0.9393  1.6051 -0.0106
  353MOL0     H47619   3.379   3.315   0.630 -0.4767  0.2957 -0.5613
  353MOL0     H47620   3.335   3.198   0.761  1.2991 -3.5756 -0.2146
  353MOL0     H47621   3.543   3.175   0.853 -3.4429  0.7133 -0.3503
  353MOL0     H47622   3.620   3.246   0.712 -0.7200 -3.0574 -1.0218
  353MOL0     H47623   3.557   3.473   0.782 -4.1601  0.2624 -2.0406
  353MOL0     H47624   3.435   3.419   0.894 -0.3089 -0.2980 -1.0714
  353MOL0     H47625   3.724   3.351   0.932 -0.5613 -0.3819  2.3680
  353MOL0     H47626   3.597   3.337   1.052  0.5362  2.1968  0.8195
  353MOL0     H47627   3.691   3.600   0.930 -1.7842 -0.3785 -0.4833
  353MOL0     H47628   3.746   3.525   1.084 -0.1742 -2.8924  1.0733
  353MOL0     H47629   3.480   3.612   0.975  0.0049 -0.1970  0.2803
  353MOL0     H47630   3.479   3.531   1.137  4.4261 -2.4031  2.3386
  353MOL0     H47631   3.579   3.726   1.234  3.1171  0.6387 -1.6522
  353MOL0     H47632   3.443   3.778   1.136  0.8743  0.6712 -0.0042
  353MOL0     H47633   3.627   3.932   1.107  0.0802 -0.0983  2.2929
  353MOL0     H47634   3.726   3.787   1.060  0.2235  0.8871 -1.0787
  353MOL0     H47635   3.159   3.117   0.655  0.5071 -0.6480  1.4917
  353MOL0     H47636   3.036   2.900   0.638 -0.4599  4.2294 -1.0359
  353MOL0     H47637   2.771   2.579   0.387  1.4007  1.5856  0.1166
  353MOL0     H47638   2.663   2.359   0.379 -1.5321  1.3392  0.4002
  353MOL0     H47639   3.528   2.220   0.184  1.2195 -2.7864 -0.5249
  353MOL0     H47640   3.540   2.046   0.358  0.9307  0.2816 -0.4063
  353MOL0     H47641   3.474   1.775   0.657 -0.4276  0.6993 -0.2529
  353MOL0     H47642   3.502   1.584   0.819 -0.3241 -3.1144  0.7113
  353MOL0     H47643   3.166   1.269   0.806  0.4099 -1.9888  0.1209
  353MOL0     H47644   3.298   1.193   0.900  0.0727  0.8253  0.6569
  353MOL0     H47645   3.426   1.155   0.708  1.7857  2.5168 -2.3262
  353MOL0     H47646   3.319   1.261   0.609 -0.8569  0.1385  0.3861
  353MOL0     H47647   3.227   1.004   0.738 -2.3203  0.4902  0.0536
  353MOL0     H47648   3.276   1.015   0.583 -0.2392 -0.8966  0.8577
  353MOL0     H47649   3.026   1.133   0.700 -0.7227  1.5096 -0.0684
  353MOL0     H47650   3.094   1.205   0.545 -1.3326 -1.5598 -2.3205
  353MOL0     H47651   2.946   0.931   0.331 -0.3374  1.0705 -0.2386
  353MOL0     H47652   3.137   1.427   0.666 -0.2098  1.4275  0.3932
  353MOL0     H47653   3.013   1.505   0.498 -0.7248 -0.8205 -3.2140
  353MOL0     H47654   3.037   1.682   0.465 -0.0314  0.1026 -1.4337
  353MOL0     H47655   3.102   1.553   0.365  2.1374  2.1926 -0.4667
  354MOL0     O47656   2.747   5.984   3.431  0.2121 -0.2097  0.4434
  354MOL0     C47657   2.743   6.095   3.381  0.5032  0.6171 -0.7793
  354MOL0     O47658   2.638   6.164   3.332  0.3280  0.1303  0.4208
  354MOL0     C47659   2.527   6.083   3.318  0.1548 -0.6663  0.8162
  354MOL0     C47660   2.495   6.048   3.185 -0.6258  0.9522  1.0035
  354MOL0     C47661   2.368   5.985   3.151 -0.4921 -0.0078 -0.1981
  354MOL0     C47662   2.284   5.978   3.256  0.4976 -0.2637 -0.7250
  354MOL0     O47663   2.163   5.930   3.235 -0.1912 -0.2289 -0.8328
  354MOL0     C47664   2.156   5.786   3.210  0.2821  0.3193 -0.2005
  354MOL0     C47665   2.019   5.742   3.153 -0.0943  0.0633 -0.5054
  354MOL0     C47666   1.995   5.839   3.040  0.6526  0.5606 -0.4986
  354MOL0     C47667   1.876   5.803   2.949  1.0250 -0.0535 -0.3649
  354MOL0     C47668   1.864   5.889   2.827 -1.1817 -0.4794  0.7142
  354MOL0     C47669   1.790   5.821   2.721  0.7223 -0.0071 -0.1732
  354MOL0     C47670   1.645   5.783   2.753 -0.2020 -0.5942  0.3358
  354MOL0     C47671   1.589   5.702   2.633 -0.3872  0.3018 -0.4867
  354MOL0     N47672   1.526   5.783   2.532  0.5269  0.0551 -0.2945
  354MOL0     C47673   1.426   5.878   2.559 -0.4263 -0.5193 -0.3602
  354MOL0     C47674   1.380   5.920   2.437  1.3450 -0.2835 -0.0666
  354MOL0     C47675   1.276   6.029   2.429  0.8612 -0.4032  0.5924
  354MOL0     C47676   1.348   6.166   2.400  0.8394 -0.6824  0.3689
  354MOL0     C47677   1.257   6.269   2.335  0.4926 -0.3482 -0.0175
  354MOL0     C47678   1.187   6.356   2.450  1.1814 -0.1593  0.4531
  354MOL0     O47679   1.087   6.265   2.505  0.2482 -1.1549  0.2569
  354MOL0     C47680   0.965   6.282   2.457  0.3985 -1.0908  0.4658
  354MOL0     C47681   0.887   6.393   2.499  0.1543 -0.1671 -0.1347
  354MOL0     C47682   0.757   6.407   2.440  0.7868 -0.5938 -0.0456
  354MOL0     C47683   0.700   6.309   2.357  0.0443 -0.6080 -0.1993
  354MOL0     C47684   0.559   6.329   2.307  0.5215  0.0924 -0.4109
  354MOL0     O47685   0.484   6.421   2.381  0.4384  0.1309 -0.9280
  354MOL0     C47686   0.350   6.423   2.361  0.1895  0.0853 -0.1803
  354MOL0     C47687   0.301   6.546   2.324  0.7097 -0.5307  0.0572
  354MOL0     C47688   0.156   6.569   2.300  0.1043  0.5469  0.3416
  354MOL0     C47689   0.063   6.466   2.323  0.1657  0.8800  0.3129
  354MOL0     O47690  -0.071   6.471   2.319 -0.3296  0.0719 -0.6739
  354MOL0     C47691  -0.146   6.599   2.290 -0.1134 -0.3784 -0.0734
  354MOL0     C47692  -0.273   6.607   2.373  0.1117  0.2689  0.1166
  354MOL0     C47693  -0.245   6.637   2.517  0.8652  0.9950  1.2547
  354MOL0     C47694  -0.207   6.510   2.594 -0.3291 -0.2412 -0.4482
  354MOL0     C47695  -0.166   6.547   2.744  0.1600  0.2558  0.6762
  354MOL0     C47696  -0.282   6.623   2.817 -0.4389 -0.5635 -0.2607
  354MOL0     C47697  -0.402   6.527   2.827 -0.1060 -0.2222 -0.4448
  354MOL0     C47698  -0.505   6.577   2.925 -0.4207  0.0540 -0.3571
  354MOL0    Cl47699  -0.455   6.590   3.101  0.0252 -0.5122  0.1609
  354MOL0     C47700   0.120   6.348   2.371 -0.3316 -0.0717 -0.4191
  354MOL0     C47701   0.257   6.318   2.381 -0.2936 -0.2100 -0.5597
  354MOL0     O47702   0.526   6.267   2.209 -0.1173  0.3563  0.0645
  354MOL0     C47703   0.778   6.204   2.314  0.7279  0.8585 -0.2187
  354MOL0     C47704   0.906   6.188   2.373 -0.7877 -0.0434  0.1754
  354MOL0     N47705   1.451   5.847   2.340  0.9389  0.5190  0.6701
  354MOL0     N47706   1.528   5.762   2.396 -1.0636  1.1851  0.7916
  354MOL0     C47707   2.305   6.021   3.385  0.4006 -0.1755  0.0116
  354MOL0     C47708   2.435   6.060   3.413 -0.3971  0.3833 -0.7545
  354MOL0     C47709   2.860   6.181   3.412 -0.0997 -1.2204 -0.8632
  354MOL0     C47710   2.838   6.322   3.428  0.0650 -0.1251  0.8277
  354MOL0     C47711   2.947   6.407   3.446  0.2391  0.5388  0.0270
  354MOL0     C47712   3.075   6.353   3.468 -1.1804 -0.8441 -0.5097
  354MOL0     O47713   3.190   6.421   3.469 -0.6258 -0.4697  0.1077
  354MOL0     C47714   3.179   6.573   3.458 -0.8362  0.3013 -0.3358
  354MOL0     C47715   3.167   6.641   3.322  0.5164 -0.8953 -0.5127
  354MOL0     C47716   3.274   6.600   3.225 -0.0875 -1.5964 -0.9895
  354MOL0     C47717   3.231   6.483   3.142 -0.0892 -0.4961  0.5617
  354MOL0     C47718   3.110   6.504   3.061  0.9702  1.1378 -0.8947
  354MOL0     C47719   3.019   6.532   2.987  0.0955 -0.2213  0.7764
  354MOL0     C47720   3.095   6.214   3.457 -0.5184 -1.0287 -0.1215
  354MOL0     C47721   2.991   6.122   3.430 -0.2884 -0.3211  1.2313
  354MOL0     C47722   3.031   5.975   3.433 -0.9617  0.2254  0.1641
  354MOL0     H47723   2.556   6.062   3.096  0.0809  0.0195  1.3283
  354MOL0     H47724   2.341   5.971   3.047 -3.1972  3.2768 -0.1052
  354MOL0     H47725   2.234   5.757   3.139 -0.9005 -0.4304 -1.2391
  354MOL0     H47726   2.169   5.733   3.306  0.7713  0.2369 -0.3084
  354MOL0     H47727   1.939   5.737   3.228 -1.2540  3.1773 -1.3751
  354MOL0     H47728   2.031   5.642   3.110 -1.6635  0.5854 -2.3186
  354MOL0     H47729   2.082   5.846   2.974  0.3496 -0.2493 -0.9827
  354MOL0     H47730   1.966   5.940   3.070 -0.1540 -0.1064  1.0880
  354MOL0     H47731   1.875   5.694   2.942 -1.7443 -0.6159  4.4776
  354MOL0     H47732   1.782   5.817   3.002  0.6851 -0.4302 -0.8554
  354MOL0     H47733   1.834   5.986   2.866  0.0299 -0.2736  1.1799
  354MOL0     H47734   1.957   5.917   2.776 -1.7133 -0.4955 -0.3050
  354MOL0     H47735   1.785   5.883   2.632 -1.9756  0.5168  0.2380
  354MOL0     H47736   1.842   5.728   2.698  0.0633 -0.3861 -0.1790
  354MOL0     H47737   1.585   5.874   2.768  0.7575  0.2941 -1.0171
  354MOL0     H47738   1.641   5.726   2.846 -0.9009  0.9122  1.2737
  354MOL0     H47739   1.661   5.633   2.588 -1.6161 -0.7581 -0.8829
  354MOL0     H47740   1.512   5.633   2.670  0.3323 -0.4980 -0.4310
  354MOL0     H47741   1.391   5.923   2.652 -1.4734  0.2308 -1.1021
  354MOL0     H47742   1.200   6.006   2.354 -1.4113  0.9618  2.3595
  354MOL0     H47743   1.232   6.050   2.527  1.4415 -1.1024  1.0104
  354MOL0     H47744   1.418   6.201   2.477  2.1961  1.2429 -1.6461
  354MOL0     H47745   1.424   6.142   2.325  0.5354 -1.2265  0.2279
  354MOL0     H47746   1.179   6.222   2.273 -1.6229  0.5858  1.8175
  354MOL0     H47747   1.302   6.352   2.280 -3.9877  1.3426 -1.6180
  354MOL0     H47748   1.135   6.449   2.426 -2.0841 -2.0535 -0.2962
  354MOL0     H47749   1.266   6.369   2.526 -0.1780 -1.2255  2.1253
  354MOL0     H47750   0.939   6.472   2.554  2.9940 -2.0331  0.0571
  354MOL0     H47751   0.698   6.495   2.463 -2.1277 -1.7106 -2.5326
  354MOL0     H47752   0.361   6.635   2.312 -2.4424  1.5458 -1.7378
  354MOL0     H47753   0.114   6.664   2.265 -1.6678  0.5025  2.1917
  354MOL0     H47754  -0.095   6.696   2.298 -2.5364  1.1074 -1.2004
  354MOL0     H47755  -0.174   6.588   2.185  2.2202  1.1253 -0.9471
  354MOL0     H47756  -0.336   6.680   2.322  4.0650  3.5621 -0.5766
  354MOL0     H47757  -0.312   6.506   2.357 -2.9446  1.3310  0.2085
  354MOL0     H47758  -0.168   6.712   2.535  3.2386 -1.0132  0.1745
  354MOL0     H47759  -0.339   6.678   2.554 -1.2676  0.2215 -2.6969
  354MOL0     H47760  -0.116   6.470   2.547 -0.7699 -2.2213  0.2791
  354MOL0     H47761  -0.281   6.430   2.586  1.8105 -2.3247 -0.4961
  354MOL0     H47762  -0.071   6.600   2.750  0.1769  0.4398 -0.8117
  354MOL0     H47763  -0.158   6.454   2.800 -2.4665 -0.3604  0.1811
  354MOL0     H47764  -0.244   6.652   2.916 -1.2741 -0.5564  0.0695
  354MOL0     H47765  -0.301   6.720   2.768  0.2410 -0.4983 -0.3978
  354MOL0     H47766  -0.365   6.426   2.849 -0.3782 -0.1138  0.5552
  354MOL0     H47767  -0.443   6.529   2.725  4.2073  0.4124 -2.3592
  354MOL0     H47768  -0.556   6.671   2.901 -2.7064  0.0235  3.4905
  354MOL0     H47769  -0.583   6.500   2.918 -0.0940 -0.1242 -2.9813
  354MOL0     H47770   0.058   6.261   2.390 -1.1245  0.3493 -1.0345
  354MOL0     H47771   0.275   6.214   2.406 -1.3349 -0.4457 -0.7417
  354MOL0     H47772   0.733   6.141   2.237 -1.0586  2.6812 -0.7809
  354MOL0     H47773   0.967   6.104   2.341  0.0033 -1.4064  4.5611
  354MOL0     H47774   2.230   6.016   3.463  0.9124 -2.6701  0.4265
  354MOL0     H47775   2.458   6.082   3.517  1.7456  0.1055 -1.1247
  354MOL0     H47776   2.745   6.376   3.416  0.4888  0.9030  1.9449
  354MOL0     H47777   2.918   6.511   3.452 -0.8681  0.1960  1.1160
  354MOL0     H47778   3.279   6.606   3.487 -0.9776  0.4404  0.0055
  354MOL0     H47779   3.103   6.607   3.530  1.7751 -2.7982  4.4366
  354MOL0     H47780   3.165   6.747   3.348 -2.1540 -0.7175 -1.0854
  354MOL0     H47781   3.066   6.628   3.280 -1.4574 -1.3534  3.8452
  354MOL0     H47782   3.369   6.575   3.272 -0.0835 -2.4651 -1.4171
  354MOL0     H47783   3.285   6.683   3.154 -1.4551  0.5212  1.1368
  354MOL0     H47784   3.317   6.460   3.079  0.8578  2.8721  0.4536
  354MOL0     H47785   3.215   6.396   3.207  0.7523 -0.2567  1.1021
  354MOL0     H47786   2.940   6.558   2.920  0.6456 -1.9583 -0.6074
  354MOL0     H47787   3.194   6.172   3.476  0.1182  0.6272  0.3484
  354MOL0     H47788   2.998   5.927   3.525  0.3958  1.2297  1.2395
  354MOL0     H47789   2.997   5.921   3.345  1.1729 -0.9681  0.0084
  354MOL0     H47790   3.140   5.964   3.433 -1.1395 -1.9709 -1.0906
  355MOL0     O47791   9.615  10.151   7.226  0.2923  0.0651 -0.6417
  355MOL0     C47792   9.576  10.267   7.199 -1.0350  0.7428 -0.2193
  355MOL0     O47793   9.618  10.376   7.269  0.0056  0.2026  0.0793
  355MOL0     C47794   9.694  10.384   7.381 -0.5432  1.1618  0.2256
  355MOL0     C47795   9.754  10.274   7.454 -0.5228  0.3515  0.2163
  355MOL0     C47796   9.834  10.307   7.571 -0.5906 -0.4616 -0.1152
  355MOL0     C47797   9.840  10.437   7.617  0.8786 -1.4603  0.2639
  355MOL0     O47798   9.907  10.480   7.728 -0.4401  0.8437  0.3855
  355MOL0     C47799   9.872  10.427   7.856 -0.1889 -0.6596  0.5464
  355MOL0     C47800   9.929  10.544   7.944 -1.6700 -0.5196 -0.1003
  355MOL0     C47801   9.949  10.492   8.091 -0.2582 -0.6847  0.2022
  355MOL0     C47802   9.967  10.608   8.188  0.0666 -0.0593  0.2735
  355MOL0     C47803  10.053  10.579   8.314  0.9760 -0.8464 -0.3503
  355MOL0     C47804  10.049  10.705   8.401  0.3134 -1.7322  0.7860
  355MOL0     C47805  10.137  10.675   8.518 -0.1075  0.6144 -1.0978
  355MOL0     C47806  10.160  10.817   8.585  0.6679 -0.5253  0.2975
  355MOL0     N47807  10.244  10.798   8.702 -0.2727 -0.4898 -0.6682
  355MOL0     C47808  10.199  10.729   8.815 -0.1540  0.6421 -0.4636
  355MOL0     C47809  10.307  10.724   8.898 -1.2292 -0.5741 -0.4795
  355MOL0     C47810  10.315  10.678   9.040  0.1880 -0.5111  0.1381
  355MOL0     C47811  10.333  10.790   9.128 -0.4919 -0.2100 -0.2016
  355MOL0     C47812  10.464  10.879   9.111  1.0022 -1.4692 -0.3603
  355MOL0     C47813  10.514  10.932   9.245  0.0116  0.1292  0.0160
  355MOL0     O47814  10.650  10.982   9.222  0.3355 -0.5424  0.1091
  355MOL0     C47815  10.657  11.109   9.165 -0.2329  0.3338 -0.5400
  355MOL0     C47816  10.775  11.138   9.102  0.7189  0.1048  0.1767
  355MOL0     C47817  10.784  11.259   9.030  0.3709  0.3360 -0.7707
  355MOL0     C47818  10.680  11.348   9.025  0.4412 -1.5995 -0.1527
  355MOL0     C47819  10.690  11.484   8.972 -0.2288  0.0738 -0.0488
  355MOL0     O47820  10.803  11.542   8.957 -0.4723  0.0071 -0.1534
  355MOL0     C47821  10.807  11.656   8.878 -0.1399  0.3527  0.2136
  355MOL0     C47822  10.813  11.639   8.739  0.3662 -0.1680 -0.0171
  355MOL0     C47823  10.819  11.745   8.645  0.2607 -0.0739  0.4917
  355MOL0     C47824  10.800  11.879   8.686 -0.0220  0.3950  0.8422
  355MOL0     O47825  10.811  11.977   8.596  0.1016 -0.8716 -0.4117
  355MOL0     C47826  10.866  12.106   8.646  0.1199  0.7378 -0.8298
  355MOL0     C47827  10.898  12.202   8.530 -0.0887  0.7143 -0.1364
  355MOL0     C47828  10.764  12.266   8.477  0.3690  0.8801  0.2257
  355MOL0     C47829  10.796  12.362   8.353 -0.1391  0.2910  0.2850
  355MOL0     C47830  10.672  12.438   8.303 -0.3460  0.6768 -1.1377
  355MOL0     C47831  10.586  12.336   8.237  0.5625  0.1488  0.1127
  355MOL0     C47832  10.534  12.372   8.098 -0.0200  0.4477  0.1007
  355MOL0     C47833  10.444  12.492   8.106  0.5816 -0.4983 -0.2099
  355MOL0    Cl47834  10.289  12.452   8.170 -0.4742 -0.6049  0.7838
  355MOL0     C47835  10.779  11.891   8.828  0.3336  0.2342  1.4631
  355MOL0     C47836  10.786  11.783   8.920 -0.0846  0.8525  0.8604
  355MOL0     O47837  10.581  11.534   8.939 -0.0151 -0.6024 -1.1048
  355MOL0     C47838  10.560  11.317   9.081  1.0600 -1.4699 -0.2013
  355MOL0     C47839  10.556  11.200   9.157  0.2507  0.3327 -0.3086
  355MOL0     N47840  10.416  10.768   8.820  0.4747  0.0588  0.1820
  355MOL0     N47841  10.377  10.824   8.715  0.1319 -0.3512 -0.5344
  355MOL0     C47842   9.766  10.537   7.548  0.0684 -0.3723 -0.2301
  355MOL0     C47843   9.706  10.510   7.428  0.0168  0.3856 -0.9233
  355MOL0     C47844   9.477  10.284   7.089 -1.1799 -0.5634 -0.4626
  355MOL0     C47845   9.442  10.423   7.062 -0.4972  0.0429 -0.7861
  355MOL0     C47846   9.393  10.463   6.943 -0.1833  0.0919 -0.8642
  355MOL0     C47847   9.341  10.371   6.855 -0.1824  1.0009  0.0912
  355MOL0     O47848   9.275  10.417   6.739 -0.0808  0.5659 -0.7464
  355MOL0     C47849   9.352  10.431   6.619 -0.4471 -0.0159 -0.4070
  355MOL0     C47850   9.291  10.334   6.513 -0.3882  0.3445  0.1096
  355MOL0     C47851   9.318  10.394   6.379  0.1270 -0.6218  1.3181
  355MOL0     C47852   9.342  10.286   6.273  0.0318 -0.2259 -0.2509
  355MOL0     C47853   9.373  10.350   6.140  0.6873 -0.2151  0.1561
  355MOL0     C47854   9.407  10.403   6.033  0.4213 -0.2442  0.7182
  355MOL0     C47855   9.370  10.236   6.880 -0.6198 -0.2600  0.4836
  355MOL0     C47856   9.429  10.189   6.998 -0.1352 -0.7281  0.2621
  355MOL0     C47857   9.441  10.042   7.016  0.7542  0.2280  0.0646
  355MOL0     H47858   9.749  10.167   7.434 -1.8655  0.2530  0.9531
  355MOL0     H47859   9.892  10.237   7.629 -4.3331 -1.7209  2.5057
  355MOL0     H47860   9.767  10.397   7.862 -1.1358  1.7361 -2.0588
  355MOL0     H47861   9.921  10.334   7.888  1.6523  0.8909  2.5602
  355MOL0     H47862   9.874  10.638   7.952  2.2809  2.1034 -0.7684
  355MOL0     H47863  10.030  10.574   7.913 -0.8967 -1.0442  1.7571
  355MOL0     H47864  10.044  10.438   8.100  0.9518  0.9469 -1.8147
  355MOL0     H47865   9.861  10.435   8.121 -0.3667 -0.7110 -0.1637
  355MOL0     H47866  10.001  10.701   8.142 -0.1642  0.9957  2.1284
  355MOL0     H47867   9.864  10.620   8.223 -0.0817  2.6537 -0.8275
  355MOL0     H47868  10.007  10.492   8.361  2.3653 -1.3896  0.0588
  355MOL0     H47869  10.155  10.551   8.285  0.2206 -1.0320 -3.1236
  355MOL0     H47870  10.090  10.785   8.338  0.6158 -1.2986  1.5272
  355MOL0     H47871   9.945  10.717   8.431  0.0157 -1.6000 -0.2421
  355MOL0     H47872  10.228  10.627   8.482  0.2852 -1.6212  2.4431
  355MOL0     H47873  10.095  10.603   8.589 -2.4100  3.0436  0.2040
  355MOL0     H47874  10.216  10.879   8.515  1.3748 -2.0450 -0.5274
  355MOL0     H47875  10.073  10.877   8.616  1.0955 -0.4541  1.4083
  355MOL0     H47876  10.098  10.694   8.834 -0.4118  0.5714 -1.8660
  355MOL0     H47877  10.226  10.624   9.074  1.4158 -2.0813  0.9943
  355MOL0     H47878  10.400  10.611   9.055 -0.0940 -0.3523  2.8928
  355MOL0     H47879  10.244  10.854   9.135 -0.0263  0.8870 -2.7456
  355MOL0     H47880  10.327  10.734   9.221 -2.1728  0.6534  0.2583
  355MOL0     H47881  10.437  10.959   9.042 -1.6273 -1.4618  0.5576
  355MOL0     H47882  10.548  10.819   9.074  2.8262  0.7814 -0.0590
  355MOL0     H47883  10.509  10.841   9.305 -3.9732  0.0407 -0.1994
  355MOL0     H47884  10.450  11.002   9.301  1.6959 -0.8868  3.5102
  355MOL0     H47885  10.863  11.076   9.117 -0.2028 -1.7715 -1.6914
  355MOL0     H47886  10.880  11.294   8.994  0.9756 -1.1138 -0.6167
  355MOL0     H47887  10.833  11.540   8.699 -0.9830 -1.6886  2.7534
  355MOL0     H47888  10.852  11.718   8.545 -0.2322  2.2124 -0.3602
  355MOL0     H47889  10.812  12.157   8.726  0.7523 -0.7502  0.6082
  355MOL0     H47890  10.959  12.074   8.693 -1.3473 -3.3810 -0.2549
  355MOL0     H47891  10.964  12.279   8.570  1.3825  0.8762 -2.6277
  355MOL0     H47892  10.954  12.155   8.448 -1.6331 -0.7291 -0.4310
  355MOL0     H47893  10.698  12.180   8.464  4.5418 -3.2325  3.0306
  355MOL0     H47894  10.721  12.323   8.561 -2.1740 -2.7467  1.6575
  355MOL0     H47895  10.838  12.315   8.264  2.8744 -0.1138  1.7900
  355MOL0     H47896  10.867  12.443   8.371 -2.8206  3.5369 -2.5923
  355MOL0     H47897  10.720  12.508   8.234  2.1449  1.1922  0.9517
  355MOL0     H47898  10.611  12.488   8.378 -0.0666  0.3803 -0.7031
  355MOL0     H47899  10.642  12.244   8.220 -1.3008 -1.2001  0.9871
  355MOL0     H47900  10.504  12.309   8.303  0.6559  1.4262  0.7932
  355MOL0     H47901  10.484  12.286   8.054 -1.0385  0.9187  0.3192
  355MOL0     H47902  10.619  12.406   8.037 -0.9111  1.6809 -0.5007
  355MOL0     H47903  10.482  12.563   8.180 -1.2660  0.2643  0.0759
  355MOL0     H47904  10.433  12.540   8.008 -0.0288  1.5445  0.8001
  355MOL0     H47905  10.755  11.993   8.856  1.2201  0.6275  0.8231
  355MOL0     H47906  10.768  11.795   9.026 -0.1918 -1.0040  1.0720
  355MOL0     H47907  10.470  11.371   9.054  2.4752  0.8456 -0.5459
  355MOL0     H47908  10.457  11.183   9.198  2.1141 -2.3477  3.6982
  355MOL0     H47909   9.752  10.635   7.592 -1.6515 -0.8466  0.3646
  355MOL0     H47910   9.654  10.585   7.371  0.1386  1.1631 -0.0372
  355MOL0     H47911   9.474  10.509   7.122 -0.8510  2.7493 -4.1601
  355MOL0     H47912   9.375  10.570   6.933 -0.8762 -0.2810 -5.4764
  355MOL0     H47913   9.457  10.400   6.623 -0.9862 -2.0199 -0.6869
  355MOL0     H47914   9.355  10.531   6.575 -0.5541 -1.1701 -3.2617
  355MOL0     H47915   9.186  10.304   6.519 -1.1518  1.8490 -3.2899
  355MOL0     H47916   9.346  10.241   6.531  1.2687  1.6975  2.8597
  355MOL0     H47917   9.405  10.460   6.380  0.7156 -1.3639  0.3403
  355MOL0     H47918   9.228  10.445   6.345  0.5540  0.1622  1.3523
  355MOL0     H47919   9.426  10.232   6.318  1.3658  4.0582  3.0498
  355MOL0     H47920   9.253  10.222   6.275 -0.0995 -0.0258  0.4133
  355MOL0     H47921   9.450  10.435   5.940  4.5465 -1.1642  2.1021
  355MOL0     H47922   9.343  10.175   6.795  4.3123  0.3642 -1.8756
  355MOL0     H47923   9.361  10.003   7.079  0.0580 -1.7772 -1.9403
  355MOL0     H47924   9.415   9.989   6.925 -2.1917 -0.3672  1.1392
  355MOL0     H47925   9.540  10.005   7.047  1.1502  0.2573 -1.1218
  356MOL0     O47926   4.288   6.354   3.906  0.2405 -0.4028 -0.2503
  356MOL0     C47927   4.342   6.250   3.939  0.3852  0.3408  0.2157
  356MOL0     O47928   4.431   6.188   3.861  0.5120  0.5587  0.2427
  356MOL0     C47929   4.434   6.203   3.722  1.2495 -0.5039  0.4193
  356MOL0     C47930   4.400   6.096   3.634 -0.6132  0.9466  0.5626
  356MOL0     C47931   4.428   6.105   3.496  0.7605  0.5078  0.2091
  356MOL0     C47932   4.473   6.233   3.443 -0.2899  0.1656 -0.3613
  356MOL0     O47933   4.482   6.247   3.311 -0.3452  0.7495  0.2552
  356MOL0     C47934   4.592   6.324   3.256 -0.0702  0.3100  0.7134
  356MOL0     C47935   4.580   6.323   3.107  0.4565 -0.4987 -0.3334
  356MOL0     C47936   4.499   6.449   3.071 -0.2517 -0.2619 -0.5938
  356MOL0     C47937   4.462   6.443   2.930 -0.9187  0.5803  0.8246
  356MOL0     C47938   4.362   6.545   2.886  1.0117 -0.0466  0.3500
  356MOL0     C47939   4.294   6.502   2.751 -0.7660 -0.6498 -0.2999
  356MOL0     C47940   4.190   6.590   2.691  0.4878 -0.7321  0.1461
  356MOL0     C47941   4.056   6.583   2.770 -0.6044  0.7159 -0.2558
  356MOL0     N47942   3.947   6.627   2.679  0.3280 -0.4230  0.2321
  356MOL0     C47943   3.891   6.547   2.582  0.2994 -0.1505  0.1703
  356MOL0     C47944   3.772   6.609   2.551 -1.3885  0.0310  0.4466
  356MOL0     C47945   3.667   6.571   2.454  0.2570  0.1031 -0.4240
  356MOL0     C47946   3.556   6.680   2.447 -0.8072 -0.3480  0.1563
  356MOL0     C47947   3.465   6.659   2.323  0.4711 -0.1491 -0.1749
  356MOL0     C47948   3.404   6.517   2.316  0.8316 -0.4066 -0.2366
  356MOL0     O47949   3.333   6.499   2.435  0.5543  0.4481 -0.0015
  356MOL0     C47950   3.287   6.373   2.455 -0.9358 -0.3380  0.1221
  356MOL0     C47951   3.359   6.258   2.409  0.7569 -0.5769  0.1885
  356MOL0     C47952   3.306   6.130   2.436 -0.3270  0.2156  0.0836
  356MOL0     C47953   3.193   6.108   2.524 -1.0698 -0.4333  0.6452
  356MOL0     C47954   3.131   5.971   2.547  0.6049 -0.8275 -0.8779
  356MOL0     O47955   3.209   5.868   2.500 -0.0876  0.2152 -0.4731
  356MOL0     C47956   3.157   5.744   2.484  0.6758  0.9228 -0.4601
  356MOL0     C47957   3.191   5.639   2.572 -0.2172  0.1002  0.0968
  356MOL0     C47958   3.140   5.511   2.557 -0.9251  0.0484 -0.9224
  356MOL0     C47959   3.050   5.484   2.446 -0.0009 -0.5951  0.1792
  356MOL0     O47960   2.997   5.369   2.408 -0.3034 -0.2551  0.6279
  356MOL0     C47961   3.003   5.259   2.502  0.5219 -0.4535 -0.4283
  356MOL0     C47962   2.880   5.175   2.489  0.0945  0.2320  0.3795
  356MOL0     C47963   2.882   5.048   2.572  0.3389  0.6499 -0.2049
  356MOL0     C47964   2.759   4.954   2.549 -0.1434 -0.7137 -0.0270
  356MOL0     C47965   2.616   5.000   2.595 -0.0932  0.2157  0.7803
  356MOL0     C47966   2.627   5.034   2.748 -0.4941  0.9652  0.1324
  356MOL0     C47967   2.490   5.082   2.812 -0.2163  0.2076 -0.0052
  356MOL0     C47968   2.367   4.995   2.781  0.4928  0.4666 -0.1909
  356MOL0    Cl47969   2.404   4.826   2.791 -0.2563  0.1162  0.6329
  356MOL0     C47970   3.012   5.592   2.359 -0.0971 -0.7400  0.1927
  356MOL0     C47971   3.062   5.718   2.378 -0.7745 -0.1936 -0.6735
  356MOL0     O47972   3.016   5.963   2.594 -0.5505 -0.4557 -0.2607
  356MOL0     C47973   3.139   6.227   2.580 -0.0461  0.8541  0.2224
  356MOL0     C47974   3.181   6.355   2.544 -0.1732  0.0592 -0.6775
  356MOL0     N47975   3.777   6.721   2.628 -0.5109 -0.4102 -0.0456
  356MOL0     N47976   3.876   6.738   2.707  0.0065  0.5239  0.6357
  356MOL0     C47977   4.496   6.338   3.535 -0.2053 -0.2945 -0.2239
  356MOL0     C47978   4.479   6.327   3.676  0.1219  0.4246  0.7464
  356MOL0     C47979   4.308   6.185   4.071 -0.0216  0.3699  0.3458
  356MOL0     C47980   4.261   6.272   4.164  1.7277  0.5709  0.5604
  356MOL0     C47981   4.240   6.245   4.299  1.8680  0.2180  0.5559
  356MOL0     C47982   4.262   6.111   4.346 -0.0821  0.1367  0.4183
  356MOL0     O47983   4.258   6.080   4.477 -0.7219  0.3297  1.0538
  356MOL0     C47984   4.341   6.155   4.569 -1.0490 -0.5127 -0.0150
  356MOL0     C47985   4.254   6.220   4.683  0.4281 -0.1779 -0.2039
  356MOL0     C47986   4.325   6.302   4.790  0.6030  0.2686 -0.0506
  356MOL0     C47987   4.222   6.352   4.899  0.0952 -0.1078 -0.1099
  356MOL0     C47988   4.274   6.470   4.979  0.1612 -0.8130 -0.1955
  356MOL0     C47989   4.292   6.553   5.066 -0.5121 -0.2216  0.0765
  356MOL0     C47990   4.293   6.015   4.249 -0.6679 -0.1522 -0.0768
  356MOL0     C47991   4.316   6.045   4.113 -0.2629 -0.7776 -0.6285
  356MOL0     C47992   4.339   5.940   4.006  0.0626 -0.6166  0.0932
  356MOL0     H47993   4.364   6.002   3.675  0.3086  0.4321  0.2143
  356MOL0     H47994   4.422   6.016   3.434  2.2195 -0.3532  1.2524
  356MOL0     H47995   4.580   6.424   3.299 -2.0335 -0.5346  2.3645
  356MOL0     H47996   4.687   6.276   3.280  0.3242  0.3475 -0.6973
  356MOL0     H47997   4.544   6.229   3.063  0.9356 -0.4457 -0.8518
  356MOL0     H47998   4.682   6.339   3.070 -0.0753  0.8061 -1.3271
  356MOL0     H47999   4.546   6.544   3.098  0.4639  0.2951 -3.5273
  356MOL0     H48000   4.407   6.450   3.131 -0.8037  4.4015 -1.1458
  356MOL0     H48001   4.544   6.422   2.861 -0.4625  0.1029  1.5112
  356MOL0     H48002   4.403   6.353   2.912 -2.4845  1.5777  0.7088
  356MOL0     H48003   4.282   6.546   2.960 -2.2831 -3.8249 -2.6651
  356MOL0     H48004   4.407   6.644   2.881 -0.0101  0.4562  0.8247
  356MOL0     H48005   4.377   6.490   2.681 -1.7024 -0.3564 -1.4934
  356MOL0     H48006   4.243   6.407   2.767  0.8114 -1.3661  0.6670
  356MOL0     H48007   4.170   6.546   2.593  0.3374  0.5243 -0.4076
  356MOL0     H48008   4.229   6.692   2.679  1.2092 -0.3751  4.1685
  356MOL0     H48009   4.040   6.478   2.793 -0.8273  0.5551 -1.1012
  356MOL0     H48010   4.060   6.634   2.867  0.1185  0.2545 -0.0378
  356MOL0     H48011   3.936   6.454   2.547  1.9834  0.0321  1.7399
  356MOL0     H48012   3.714   6.553   2.356  1.0554 -1.4450  0.2042
  356MOL0     H48013   3.603   6.486   2.482 -2.4077  1.5599 -1.7146
  356MOL0     H48014   3.495   6.669   2.537  0.8665 -1.9868  1.1686
  356MOL0     H48015   3.599   6.780   2.441  1.7151 -1.3720 -0.2746
  356MOL0     H48016   3.527   6.681   2.236  1.9756 -2.1390  0.3481
  356MOL0     H48017   3.376   6.723   2.331  0.0123 -0.4689 -2.2495
  356MOL0     H48018   3.487   6.447   2.303  0.8292 -0.4578  0.0310
  356MOL0     H48019   3.343   6.495   2.227  1.2350 -0.0918 -0.5937
  356MOL0     H48020   3.448   6.256   2.347  0.0331  0.4732 -0.9311
  356MOL0     H48021   3.343   6.038   2.391 -2.4194 -0.0333 -1.2567
  356MOL0     H48022   3.271   5.665   2.641 -0.0919  1.1055 -0.4072
  356MOL0     H48023   3.176   5.437   2.628  1.0564  0.4927 -1.3811
  356MOL0     H48024   3.094   5.201   2.486  0.1999 -0.6112 -1.8281
  356MOL0     H48025   3.005   5.288   2.608 -1.2196  0.0888 -0.4999
  356MOL0     H48026   2.798   5.242   2.517  1.8856  2.6388  0.1319
  356MOL0     H48027   2.874   5.155   2.382  0.7970  1.8261  0.0145
  356MOL0     H48028   2.967   4.991   2.533 -1.0917 -0.0129 -2.5444
  356MOL0     H48029   2.894   5.068   2.679  0.5620  2.7798 -0.5851
  356MOL0     H48030   2.778   4.859   2.600  1.7069 -1.2725 -1.6091
  356MOL0     H48031   2.761   4.920   2.445  1.3597  1.1942 -0.6853
  356MOL0     H48032   2.536   4.925   2.586 -2.1035  2.2430  0.8807
  356MOL0     H48033   2.589   5.092   2.544 -0.8832  0.4221  1.5449
  356MOL0     H48034   2.672   4.948   2.798  1.1743  1.0572 -1.1025
  356MOL0     H48035   2.703   5.108   2.775  0.9642 -0.7878  1.1046
  356MOL0     H48036   2.457   5.184   2.791 -6.7037 -1.7036 -1.3498
  356MOL0     H48037   2.499   5.070   2.921 -0.0674 -1.5846 -0.1824
  356MOL0     H48038   2.289   5.007   2.857 -2.0950 -1.9406 -2.2460
  356MOL0     H48039   2.327   5.017   2.681  0.8250  2.4185  0.0683
  356MOL0     H48040   2.940   5.566   2.282  0.9372 -1.3864 -0.5891
  356MOL0     H48041   3.036   5.800   2.311  0.6810 -1.1558 -2.5144
  356MOL0     H48042   3.048   6.214   2.638 -1.2082  2.5044 -1.1296
  356MOL0     H48043   3.126   6.441   2.580  1.4344 -0.0534  2.3840
  356MOL0     H48044   4.519   6.438   3.499 -0.4325  1.1430  3.2274
  356MOL0     H48045   4.488   6.416   3.738 -0.6515  1.7358 -0.9403
  356MOL0     H48046   4.243   6.373   4.128  3.7564  0.5023 -0.7723
  356MOL0     H48047   4.220   6.319   4.376 -1.2633  0.1374 -0.0543
  356MOL0     H48048   4.408   6.233   4.532 -0.6028  0.0953  1.9502
  356MOL0     H48049   4.408   6.086   4.620 -1.9438 -0.5509  1.1464
  356MOL0     H48050   4.182   6.156   4.734 -1.5817  1.8086 -0.3704
  356MOL0     H48051   4.191   6.291   4.627  2.1553 -0.9527 -3.3445
  356MOL0     H48052   4.356   6.395   4.741 -0.2729  0.1248 -0.9116
  356MOL0     H48053   4.410   6.241   4.822 -1.3107 -2.3610  0.3960
  356MOL0     H48054   4.132   6.378   4.844  0.3098  2.2308  0.5531
  356MOL0     H48055   4.200   6.273   4.972  0.0419  0.3089  0.3255
  356MOL0     H48056   4.322   6.623   5.142  0.3309 -0.0451 -0.4090
  356MOL0     H48057   4.313   5.911   4.272  1.1423  0.4066  1.0633
  356MOL0     H48058   4.430   5.966   3.951 -0.7287  1.4253 -0.3499
  356MOL0     H48059   4.351   5.840   4.049  0.9222 -0.2031  0.8338
  356MOL0     H48060   4.258   5.942   3.933 -0.3257  0.3204  0.5360
  357MOL0     O48061   1.795   9.843   2.873 -0.6170  0.5411 -0.0224
  357MOL0     C48062   1.908   9.871   2.826  0.0308 -0.6449 -0.3243
  357MOL0     O48063   2.007   9.785   2.801  0.0038 -0.2632  0.1699
  357MOL0     C48064   1.973   9.654   2.831 -0.3722 -0.3284 -0.0890
  357MOL0     C48065   2.032   9.577   2.938  0.9240 -0.3287 -0.6681
  357MOL0     C48066   2.012   9.433   2.934 -0.7993 -0.8183 -0.2627
  357MOL0     C48067   1.947   9.365   2.834 -0.4889  0.1231 -0.3127
  357MOL0     O48068   1.923   9.230   2.827  0.1486 -0.6738  1.0214
  357MOL0     C48069   1.982   9.145   2.931 -0.2040  0.5483  0.1172
  357MOL0     C48070   1.991   8.995   2.877  0.3009  0.4250  0.7344
  357MOL0     C48071   2.038   8.991   2.738 -0.2806 -0.9848  0.9514
  357MOL0     C48072   2.047   8.844   2.685  0.6668 -0.4315 -0.7829
  357MOL0     C48073   2.078   8.841   2.536  0.6295 -0.6888 -0.4594
  357MOL0     C48074   2.213   8.792   2.513 -0.4451 -0.7050 -0.6100
  357MOL0     C48075   2.266   8.778   2.362 -0.1939 -0.4170 -0.1412
  357MOL0     C48076   2.418   8.749   2.369  0.2101  0.0665 -0.2967
  357MOL0     N48077   2.482   8.769   2.238  0.1514 -0.9128 -0.1997
  357MOL0     C48078   2.494   8.881   2.157  0.1663  0.8560  0.6896
  357MOL0     C48079   2.546   8.830   2.042 -0.5689  0.1323 -0.9409
  357MOL0     C48080   2.571   8.931   1.932 -1.2874  0.4568 -0.3513
  357MOL0     C48081   2.706   8.906   1.856  0.0109 -0.2884 -0.7075
  357MOL0     C48082   2.708   8.947   1.710 -0.6107 -0.3044 -0.2167
  357MOL0     C48083   2.627   8.848   1.611 -0.0432 -0.4009  0.4543
  357MOL0     O48084   2.482   8.868   1.625 -0.1723 -0.3720 -0.3039
  357MOL0     C48085   2.400   8.767   1.568 -0.4971  0.4059 -0.4321
  357MOL0     C48086   2.407   8.635   1.605 -0.3429 -0.1479 -0.5935
  357MOL0     C48087   2.328   8.534   1.541  1.1162 -0.1561  0.3948
  357MOL0     C48088   2.228   8.577   1.444  0.0287  0.1828  0.7725
  357MOL0     C48089   2.154   8.475   1.369  0.5855  1.3807 -0.2423
  357MOL0     O48090   2.197   8.351   1.383 -0.1432 -0.4021  0.0759
  357MOL0     C48091   2.100   8.254   1.354  0.4204 -0.1587 -0.3276
  357MOL0     C48092   2.119   8.188   1.232 -0.5969 -0.5750 -1.4193
  357MOL0     C48093   2.016   8.109   1.190  0.8609  0.1454  1.0086
  357MOL0     C48094   1.907   8.077   1.278 -0.2072  0.2254  0.1744
  357MOL0     O48095   1.814   7.979   1.255  0.5159  0.4819  0.2484
  357MOL0     C48096   1.847   7.893   1.138  0.9422  0.1929 -0.2575
  357MOL0     C48097   1.977   7.816   1.161 -0.1700  0.8774 -0.7602
  357MOL0     C48098   1.970   7.745   1.309 -0.1689 -0.8482 -0.1901
  357MOL0     C48099   2.100   7.661   1.317 -0.0614  1.1752 -0.8461
  357MOL0     C48100   2.089   7.555   1.435  0.0821  0.4710  0.0356
  357MOL0     C48101   1.977   7.448   1.393  0.3184 -0.2016  0.2520
  357MOL0     C48102   1.978   7.324   1.472 -0.2650  0.6229 -0.7225
  357MOL0     C48103   1.832   7.282   1.506  0.1754  0.3360 -0.7653
  357MOL0    Cl48104   1.755   7.191   1.374 -0.0785  0.3468 -0.2491
  357MOL0     C48105   1.896   8.137   1.406  0.7051  0.4527 -0.0032
  357MOL0     C48106   1.988   8.228   1.449  0.7574 -0.3207  1.0131
  357MOL0     O48107   2.042   8.518   1.335 -0.0713  0.3291 -0.4523
  357MOL0     C48108   2.216   8.715   1.421  0.1006  0.6670 -0.3050
  357MOL0     C48109   2.300   8.803   1.479  0.1766 -0.2624 -0.1106
  357MOL0     N48110   2.560   8.695   2.048  0.3335  0.3265  0.5694
  357MOL0     N48111   2.519   8.661   2.171 -0.6385  0.5782 -0.4625
  357MOL0     C48112   1.894   9.444   2.736 -0.9873  0.2298  0.0547
  357MOL0     C48113   1.905   9.581   2.739  0.5514  0.1346  0.6500
  357MOL0     C48114   1.960  10.011   2.790 -0.0594 -0.4824  1.1536
  357MOL0     C48115   2.097  10.045   2.783 -0.4336  0.7170  0.8016
  357MOL0     C48116   2.133  10.177   2.749 -0.1660 -0.2818 -1.3992
  357MOL0     C48117   2.042  10.278   2.734  0.0347  0.1889  0.0425
  357MOL0     O48118   2.079  10.410   2.710 -0.3299 -0.4291 -0.2055
  357MOL0     C48119   2.212  10.454   2.732 -0.4318  0.7646  0.2157
  357MOL0     C48120   2.221  10.599   2.790  0.0551 -0.2589  0.0059
  357MOL0     C48121   2.175  10.698   2.688 -0.0300  0.1064 -1.4704
  357MOL0     C48122   2.035  10.763   2.715  0.8879 -0.6857 -0.0480
  357MOL0     C48123   2.054  10.876   2.812  0.6735  0.1607 -0.1666
  357MOL0     C48124   2.064  10.983   2.874  0.3296  1.1089 -0.4054
  357MOL0     C48125   1.907  10.247   2.738 -0.1313  0.1642  0.2832
  357MOL0     C48126   1.864  10.117   2.767 -0.2760  0.5268  0.0845
  357MOL0     C48127   1.716  10.089   2.769 -0.7142  0.6874 -0.3690
  357MOL0     H48128   2.099   9.622   3.011  0.6630  0.3606 -0.8364
  357MOL0     H48129   2.059   9.375   3.012 -0.1696 -0.5283 -0.4179
  357MOL0     H48130   2.085   9.173   2.958 -0.1592 -2.6434  4.3934
  357MOL0     H48131   1.910   9.148   3.014 -1.1866  4.6214 -0.6677
  357MOL0     H48132   1.894   8.945   2.881  1.9524 -2.9665  1.9777
  357MOL0     H48133   2.046   8.932   2.947 -0.8138 -0.2605  1.0114
  357MOL0     H48134   2.134   9.043   2.733 -0.2188 -0.6836  3.5202
  357MOL0     H48135   1.975   9.048   2.669 -0.7500 -1.4914  0.9543
  357MOL0     H48136   2.123   8.790   2.742 -0.3290 -0.4214  0.6137
  357MOL0     H48137   1.951   8.799   2.714 -0.7742  1.3189 -2.5618
  357MOL0     H48138   2.006   8.780   2.480  1.4637  0.6650 -3.1842
  357MOL0     H48139   2.066   8.938   2.487  0.5495 -0.7681 -0.5967
  357MOL0     H48140   2.273   8.867   2.566  0.9813 -0.6134 -2.2493
  357MOL0     H48141   2.226   8.695   2.563 -0.6462  0.4935  1.9454
  357MOL0     H48142   2.242   8.871   2.309  1.3351  0.5534  0.7820
  357MOL0     H48143   2.227   8.692   2.307  0.7481 -0.6322 -0.4872
  357MOL0     H48144   2.480   8.796   2.445 -0.1890 -0.9810  0.7044
  357MOL0     H48145   2.420   8.644   2.400 -0.0047  0.8395  2.5698
  357MOL0     H48146   2.478   8.985   2.184 -1.0728  0.9881 -0.4644
  357MOL0     H48147   2.478   8.927   1.875 -0.7997  1.4595 -1.2581
  357MOL0     H48148   2.575   9.035   1.967 -3.5974  1.2131 -2.0742
  357MOL0     H48149   2.783   8.962   1.909 -1.2384  1.6361 -0.8240
  357MOL0     H48150   2.739   8.802   1.865 -0.5093 -0.2912  1.9465
  357MOL0     H48151   2.805   8.951   1.659 -2.3344  0.8870 -3.6801
  357MOL0     H48152   2.680   9.053   1.701  4.3620  1.4875  1.6915
  357MOL0     H48153   2.645   8.745   1.645 -0.2158 -0.8019 -0.6198
  357MOL0     H48154   2.647   8.863   1.505  0.9060  4.8509  1.1304
  357MOL0     H48155   2.468   8.615   1.693 -1.4148  2.0052  0.7205
  357MOL0     H48156   2.346   8.429   1.563 -0.4041 -0.8328 -1.2644
  357MOL0     H48157   2.198   8.221   1.167  0.2566  1.9930  0.7383
  357MOL0     H48158   2.033   8.058   1.096  1.6798  2.2074 -0.0315
  357MOL0     H48159   1.759   7.828   1.129  0.4381  0.9716 -1.2058
  357MOL0     H48160   1.842   7.956   1.048  0.2576 -0.4510 -0.6886
  357MOL0     H48161   1.960   7.740   1.084  0.3766  1.5929 -1.6083
  357MOL0     H48162   2.072   7.864   1.134 -1.3621  1.5015 -4.5477
  357MOL0     H48163   1.974   7.822   1.387 -2.2057 -0.6593 -0.2179
  357MOL0     H48164   1.878   7.685   1.319 -2.0300  1.8908  0.2657
  357MOL0     H48165   2.193   7.715   1.336  2.9704 -3.8762  0.8128
  357MOL0     H48166   2.116   7.602   1.227  4.1991 -0.2344  0.5849
  357MOL0     H48167   2.072   7.597   1.534 -2.0954 -1.7958  0.7090
  357MOL0     H48168   2.181   7.495   1.436 -0.6214 -1.0502 -4.3158
  357MOL0     H48169   1.888   7.505   1.420  0.8078  0.1321  1.2536
  357MOL0     H48170   1.987   7.415   1.289 -0.8312 -0.8239  0.3281
  357MOL0     H48171   2.037   7.341   1.562  0.6976  0.1065 -1.2480
  357MOL0     H48172   2.030   7.250   1.411  1.2848  2.8898 -2.3483
  357MOL0     H48173   1.851   7.214   1.589  1.7171 -0.2043 -1.5130
  357MOL0     H48174   1.776   7.373   1.531  0.4500  0.6127 -1.1381
  357MOL0     H48175   1.818   8.099   1.471  1.6463  0.2199  1.0269
  357MOL0     H48176   1.972   8.267   1.550 -0.7033 -0.0874  0.7107
  357MOL0     H48177   2.149   8.766   1.353  0.8817  1.9852 -0.1199
  357MOL0     H48178   2.299   8.908   1.451 -0.0079 -0.1564  0.2930
  357MOL0     H48179   1.839   9.398   2.654  2.2585 -0.2316 -2.0380
  357MOL0     H48180   1.852   9.620   2.652  2.0247  0.3260 -0.1864
  357MOL0     H48181   2.180   9.974   2.790 -1.8491 -1.3799 -1.7888
  357MOL0     H48182   2.240  10.195   2.752  0.1127 -1.8452  1.3711
  357MOL0     H48183   2.266  10.447   2.638 -2.4810 -0.4607 -0.9380
  357MOL0     H48184   2.265  10.393   2.805 -5.1476 -2.8799  1.1039
  357MOL0     H48185   2.328  10.617   2.800 -0.0380  0.0228  0.5065
  357MOL0     H48186   2.172  10.603   2.887  0.8996 -0.8965  0.4714
  357MOL0     H48187   2.187  10.659   2.586  3.6676  2.7193 -2.2888
  357MOL0     H48188   2.253  10.775   2.676  0.3313  0.8183  3.4667
  357MOL0     H48189   1.979  10.798   2.628 -2.4365  1.4643  2.6822
  357MOL0     H48190   1.972  10.684   2.758 -0.4823  0.8299  0.8413
  357MOL0     H48191   2.070  11.081   2.917  1.8355  0.6654  0.4667
  357MOL0     H48192   1.836  10.328   2.725 -1.0767 -0.6146  0.4522
  357MOL0     H48193   1.674  10.100   2.870  1.4922  1.3528  0.5428
  357MOL0     H48194   1.658  10.159   2.708 -0.7582  0.9344 -0.0456
  357MOL0     H48195   1.698   9.990   2.725  0.4139 -0.4313  1.4942
  358MOL0     O48196   6.484   3.152   4.854 -0.2412 -0.7594 -0.1374
  358MOL0     C48197   6.399   3.238   4.813  0.7651 -0.0288 -0.2589
  358MOL0     O48198   6.424   3.378   4.824  0.4661  0.8619 -0.0913
  358MOL0     C48199   6.517   3.417   4.917  0.6488 -0.5957 -0.4138
  358MOL0     C48200   6.514   3.384   5.055  0.0767  0.2812  0.7811
  358MOL0     C48201   6.616   3.423   5.144 -0.7289 -0.2221 -0.8886
  358MOL0     C48202   6.718   3.513   5.099 -0.3102  0.0723  0.2559
  358MOL0     O48203   6.818   3.547   5.186  1.2865 -0.5864 -0.1874
  358MOL0     C48204   6.918   3.642   5.144  0.5643  0.1206 -0.2571
  358MOL0     C48205   7.042   3.618   5.222 -0.3335  0.4148  0.6374
  358MOL0     C48206   7.109   3.483   5.171  1.0312 -0.1563  0.1967
  358MOL0     C48207   7.242   3.528   5.104  0.3027  0.1688 -0.5676
  358MOL0     C48208   7.299   3.387   5.048 -0.2200  0.1865  0.4748
  358MOL0     C48209   7.421   3.406   4.946 -0.2910  1.4645  0.1423
  358MOL0     C48210   7.396   3.478   4.810  0.4271 -0.5341 -0.2628
  358MOL0     C48211   7.515   3.472   4.714  0.4305  1.6860  0.8381
  358MOL0     N48212   7.453   3.482   4.578  0.1418  0.5539  0.4905
  358MOL0     C48213   7.481   3.568   4.476  0.8957  0.0595  0.2813
  358MOL0     C48214   7.414   3.524   4.362  0.3841 -0.7710 -0.1814
  358MOL0     C48215   7.424   3.586   4.223 -0.3095  0.3786 -0.5210
  358MOL0     C48216   7.285   3.632   4.176 -0.4064  0.4959 -0.6603
  358MOL0     C48217   7.220   3.740   4.264 -0.5026 -0.3329 -0.0297
  358MOL0     C48218   7.074   3.763   4.234  0.2445  0.2661  0.0362
  358MOL0     O48219   7.047   3.781   4.099 -0.6274  0.1347 -0.3861
  358MOL0     C48220   6.917   3.769   4.055  0.4417  0.3210 -0.7752
  358MOL0     C48221   6.811   3.792   4.139  0.3470  0.5426 -0.2823
  358MOL0     C48222   6.680   3.792   4.087 -0.5849  0.0507 -0.5461
  358MOL0     C48223   6.651   3.775   3.953 -0.3127 -0.1487 -0.1866
  358MOL0     C48224   6.512   3.779   3.912  0.3684  0.1399  0.4568
  358MOL0     O48225   6.484   3.780   3.778 -0.5913  0.2769 -0.9911
  358MOL0     C48226   6.358   3.776   3.721  0.3229  0.2386  0.3269
  358MOL0     C48227   6.250   3.700   3.776 -0.5471  0.1938 -0.5772
  358MOL0     C48228   6.116   3.704   3.717 -1.0142 -0.8500 -0.1955
  358MOL0     C48229   6.100   3.775   3.596  0.0479  0.0164 -0.8554
  358MOL0     O48230   5.979   3.792   3.534 -0.5960 -0.4227  0.4772
  358MOL0     C48231   5.975   3.699   3.418  0.4144  0.2492  0.4535
  358MOL0     C48232   5.861   3.758   3.338 -0.3294  1.0856  0.1518
  358MOL0     C48233   5.730   3.753   3.408 -0.2857  0.2965  0.1916
  358MOL0     C48234   5.668   3.624   3.439 -0.0583 -0.5844  0.3139
  358MOL0     C48235   5.524   3.628   3.491  0.0801 -0.2066  0.9737
  358MOL0     C48236   5.431   3.751   3.429 -0.6950 -0.3769 -0.5649
  358MOL0     C48237   5.293   3.746   3.504  0.1949  0.5451 -0.8606
  358MOL0     C48238   5.203   3.845   3.442  0.7411  0.2912  0.6697
  358MOL0    Cl48239   5.236   4.003   3.502  0.1149  0.3411  0.0994
  358MOL0     C48240   6.214   3.835   3.531  0.1002 -0.2890 -0.8387
  358MOL0     C48241   6.334   3.841   3.598 -0.0410  1.1201  0.0192
  358MOL0     O48242   6.428   3.797   4.005  0.0423 -0.4424  0.0368
  358MOL0     C48243   6.756   3.748   3.866 -0.4857 -0.3088  0.0597
  358MOL0     C48244   6.885   3.742   3.919  0.1439 -0.2240 -0.5033
  358MOL0     N48245   7.333   3.425   4.399 -0.3291 -0.4973 -0.4363
  358MOL0     N48246   7.364   3.393   4.518  1.1946  0.0311 -1.2326
  358MOL0     C48247   6.717   3.551   4.960 -1.3412  0.3993 -0.1726
  358MOL0     C48248   6.625   3.497   4.875  0.0512 -0.8510  0.5767
  358MOL0     C48249   6.284   3.198   4.737  2.2347 -0.4399  0.4645
  358MOL0     C48250   6.209   3.295   4.660  0.5648  0.8029 -0.7832
  358MOL0     C48251   6.117   3.268   4.565  0.2683  0.1427 -0.2189
  358MOL0     C48252   6.078   3.135   4.549  0.2307  0.4637 -0.0158
  358MOL0     O48253   5.970   3.112   4.470  0.3831 -0.2657 -0.0327
  358MOL0     C48254   5.943   2.972   4.434 -0.0978 -0.6186 -0.2491
  358MOL0     C48255   5.847   2.967   4.312 -0.5961 -0.1589 -0.4640
  358MOL0     C48256   5.743   3.081   4.336  0.8060  0.4654  0.3168
  358MOL0     C48257   5.655   3.067   4.210  0.6193 -0.9072 -0.4236
  358MOL0     C48258   5.523   3.133   4.227  0.0969  0.5010  0.2197
  358MOL0     C48259   5.428   3.206   4.223  0.5495 -0.0049  0.4173
  358MOL0     C48260   6.131   3.036   4.634  0.5083 -0.6544 -0.3974
  358MOL0     C48261   6.237   3.064   4.726 -0.2561  0.6094 -0.5979
  358MOL0     C48262   6.284   2.951   4.811 -0.3843  0.2444  0.3062
  358MOL0     H48263   6.444   3.307   5.085  0.0876 -0.2522 -0.4803
  358MOL0     H48264   6.610   3.385   5.246 -1.5983  3.4124  0.5843
  358MOL0     H48265   6.957   3.641   5.042  1.0638 -0.0512 -0.0656
  358MOL0     H48266   6.879   3.742   5.167  2.6631  1.1331 -0.8890
  358MOL0     H48267   7.019   3.635   5.328 -0.8727  2.3357  0.2406
  358MOL0     H48268   7.107   3.702   5.195  0.5304  0.1747  1.8358
  358MOL0     H48269   7.046   3.446   5.089 -3.5416  0.8097  2.9495
  358MOL0     H48270   7.113   3.409   5.251  2.0394  0.4766  0.7608
  358MOL0     H48271   7.223   3.604   5.028 -2.2314 -0.8332 -1.0401
  358MOL0     H48272   7.312   3.574   5.174  1.5458 -0.8144 -1.0982
  358MOL0     H48273   7.327   3.313   5.124 -1.3473 -0.8216 -0.0635
  358MOL0     H48274   7.221   3.338   4.990  0.9886  1.1541 -2.1264
  358MOL0     H48275   7.509   3.456   4.988  0.8716  0.2302 -0.7193
  358MOL0     H48276   7.447   3.304   4.914 -1.7941  0.9984  0.3428
  358MOL0     H48277   7.379   3.584   4.829 -3.1671 -1.1065  0.4420
  358MOL0     H48278   7.310   3.432   4.760 -0.4003 -3.3628  3.2760
  358MOL0     H48279   7.580   3.560   4.714  3.2959 -0.0638 -3.9884
  358MOL0     H48280   7.571   3.379   4.725 -2.5285 -0.2741  0.4956
  358MOL0     H48281   7.556   3.646   4.471  1.0790 -0.1636 -0.7172
  358MOL0     H48282   7.504   3.661   4.217  1.3609 -1.4403 -3.3833
  358MOL0     H48283   7.444   3.502   4.155  1.6250  0.3339  0.0412
  358MOL0     H48284   7.287   3.676   4.076 -3.6982 -0.0908 -1.0673
  358MOL0     H48285   7.232   3.537   4.165  0.8968 -0.2384 -0.8058
  358MOL0     H48286   7.267   3.836   4.241  0.4787 -1.5166 -3.6827
  358MOL0     H48287   7.229   3.727   4.373  0.0550 -0.7490 -0.1145
  358MOL0     H48288   7.047   3.847   4.300  2.5887  0.1534  1.2468
  358MOL0     H48289   7.010   3.686   4.278  1.8826  1.2784  4.8292
  358MOL0     H48290   6.834   3.819   4.242  0.0896  0.6423 -0.2487
  358MOL0     H48291   6.614   3.804   4.173  1.3247  2.6844  0.6808
  358MOL0     H48292   6.259   3.643   3.868 -1.8102 -0.2445 -0.6993
  358MOL0     H48293   6.033   3.657   3.768 -1.0033 -0.3427  0.3084
  358MOL0     H48294   6.063   3.704   3.353  0.0610  2.3912  0.0492
  358MOL0     H48295   5.952   3.598   3.452  0.2034 -1.1788 -3.3882
  358MOL0     H48296   5.893   3.858   3.307  3.1157  0.1273  0.2479
  358MOL0     H48297   5.852   3.682   3.259 -2.5847 -1.6145  2.7653
  358MOL0     H48298   5.734   3.816   3.498  1.3290 -2.0383  1.8757
  358MOL0     H48299   5.650   3.798   3.349 -1.0207  0.6765  1.4490
  358MOL0     H48300   5.736   3.579   3.511 -0.8689 -1.3784  0.6033
  358MOL0     H48301   5.658   3.568   3.346 -1.3495 -1.4563  0.9460
  358MOL0     H48302   5.537   3.656   3.596 -0.1975  2.4617  0.3770
  358MOL0     H48303   5.487   3.526   3.486  2.2945 -1.0808  1.1912
  358MOL0     H48304   5.486   3.842   3.455 -0.2572 -0.3367 -1.6196
  358MOL0     H48305   5.422   3.734   3.322 -0.1306  0.0617 -0.6854
  358MOL0     H48306   5.298   3.774   3.609  1.2545 -2.5258  0.0199
  358MOL0     H48307   5.237   3.651   3.502  3.4698 -1.7848  2.8186
  358MOL0     H48308   5.211   3.854   3.333  1.5599 -1.0394  0.6127
  358MOL0     H48309   5.100   3.817   3.467  0.6766 -0.3006 -0.2188
  358MOL0     H48310   6.200   3.894   3.441 -1.0662  1.0699  0.1665
  358MOL0     H48311   6.409   3.904   3.553  2.3327 -1.1494  0.5328
  358MOL0     H48312   6.729   3.742   3.761 -1.8204  0.2726  0.3437
  358MOL0     H48313   6.967   3.715   3.853 -0.9946 -1.4837 -1.4428
  358MOL0     H48314   6.804   3.597   4.913 -0.0553 -2.3545 -0.7323
  358MOL0     H48315   6.635   3.538   4.775 -0.8976  0.8164  1.1322
  358MOL0     H48316   6.225   3.401   4.680 -0.5679  1.0858 -1.2894
  358MOL0     H48317   6.056   3.345   4.519 -0.3656 -0.4906 -0.4443
  358MOL0     H48318   5.891   2.916   4.513  0.0608 -1.6877 -0.8891
  358MOL0     H48319   6.036   2.921   4.411 -0.9057 -1.9830 -0.5877
  358MOL0     H48320   5.793   2.872   4.313 -1.0534  0.0955 -0.5690
  358MOL0     H48321   5.905   2.988   4.222 -0.0714  1.3857  0.1996
  358MOL0     H48322   5.799   3.175   4.338  1.7184 -0.0421  2.5037
  358MOL0     H48323   5.684   3.059   4.426 -0.7276  1.6418 -0.3634
  358MOL0     H48324   5.699   3.108   4.118 -1.1356 -0.1711 -0.9867
  358MOL0     H48325   5.638   2.960   4.194  0.0525 -0.9971  0.6939
  358MOL0     H48326   5.346   3.275   4.224  0.2892 -0.3109  1.5127
  358MOL0     H48327   6.088   2.937   4.633  0.1764 -0.5118 -0.2522
  358MOL0     H48328   6.380   2.914   4.773  0.5487  0.1494  2.5970
  358MOL0     H48329   6.301   2.994   4.910 -2.4721  1.4637  0.1883
  358MOL0     H48330   6.224   2.860   4.806 -1.3843  0.9572 -1.5020
  359MOL0     O48331   9.413   2.003   5.168  0.0179  0.0305 -0.1786
  359MOL0     C48332   9.335   2.016   5.259  0.8464  0.7654  0.3501
  359MOL0     O48333   9.335   1.935   5.376  0.0536  0.4189  0.6238
  359MOL0     C48334   9.235   1.966   5.462  0.0029 -0.4174 -0.0129
  359MOL0     C48335   9.238   2.087   5.532 -0.5909  0.5694 -0.9472
  359MOL0     C48336   9.129   2.117   5.611  0.3920  0.2733 -0.7649
  359MOL0     C48337   9.021   2.039   5.621  0.7442  0.2296 -0.1309
  359MOL0     O48338   8.908   2.088   5.683 -0.6545 -0.2503  0.0976
  359MOL0     C48339   8.869   2.008   5.796  0.0036  0.0226  0.9190
  359MOL0     C48340   8.904   2.070   5.928  1.4137  0.3414 -0.2151
  359MOL0     C48341   9.050   2.087   5.959 -0.2492  0.3018 -0.2001
  359MOL0     C48342   9.121   1.948   5.983  0.0369 -0.2014  0.5101
  359MOL0     C48343   9.260   1.949   6.041 -0.2873 -1.2374 -0.2653
  359MOL0     C48344   9.349   2.053   5.978 -0.2498 -0.2691 -1.0292
  359MOL0     C48345   9.497   2.054   6.008 -0.2751 -0.0374 -0.1857
  359MOL0     C48346   9.564   2.190   6.004 -0.5437 -1.4246 -1.2208
  359MOL0     N48347   9.572   2.246   5.871  0.0198  0.2933  0.4210
  359MOL0     C48348   9.688   2.249   5.790  0.4851 -0.0714  1.4732
  359MOL0     C48349   9.641   2.291   5.669  0.0862  0.2481  0.3722
  359MOL0     C48350   9.729   2.313   5.544 -0.2408  0.1020 -0.8731
  359MOL0     C48351   9.726   2.206   5.444  0.2495  0.6761  0.2247
  359MOL0     C48352   9.833   2.214   5.343 -0.9887  0.5812  0.1862
  359MOL0     C48353   9.814   2.339   5.254 -0.1675  0.2097 -0.3845
  359MOL0     O48354   9.918   2.336   5.159  0.3990 -0.2690  0.7153
  359MOL0     C48355   9.893   2.267   5.039  0.5070  0.4461 -0.7948
  359MOL0     C48356   9.798   2.167   5.014 -0.1334 -0.3511  0.6684
  359MOL0     C48357   9.780   2.116   4.886 -0.3202 -0.0100 -0.9632
  359MOL0     C48358   9.856   2.159   4.780  0.0042 -0.9019  0.4928
  359MOL0     C48359   9.824   2.104   4.649  0.5569  0.9122 -0.2100
  359MOL0     O48360   9.757   1.983   4.644  0.5667  0.4522 -0.0082
  359MOL0     C48361   9.704   1.930   4.532  0.5442 -0.7698  0.9917
  359MOL0     C48362   9.751   1.941   4.397 -0.0718 -0.1563 -0.6195
  359MOL0     C48363   9.686   1.884   4.284 -0.8205 -1.0792  0.3527
  359MOL0     C48364   9.573   1.806   4.309 -0.3675  0.4371  0.0779
  359MOL0     O48365   9.505   1.746   4.202  0.2476  0.5593 -0.1768
  359MOL0     C48366   9.399   1.656   4.237  1.0177 -0.5208  0.1907
  359MOL0     C48367   9.333   1.599   4.109 -0.3357 -0.1702 -0.1221
  359MOL0     C48368   9.281   1.717   4.022  0.5646 -0.1763 -1.0525
  359MOL0     C48369   9.199   1.657   3.914  0.3022 -0.2789  0.3711
  359MOL0     C48370   9.050   1.640   3.944  0.0197  0.5843 -0.6134
  359MOL0     C48371   8.982   1.562   3.824  0.0312 -0.6666 -1.3329
  359MOL0     C48372   8.825   1.539   3.843  0.3013  0.0851 -0.4979
  359MOL0     C48373   8.753   1.672   3.857 -0.6363  0.1444 -0.2460
  359MOL0    Cl48374   8.580   1.648   3.933 -0.5266  0.5343  0.2865
  359MOL0     C48375   9.525   1.785   4.443 -0.3197  0.4582 -0.4107
  359MOL0     C48376   9.591   1.850   4.549  0.9492  0.2043  0.3593
  359MOL0     O48377   9.857   2.179   4.555 -0.0251  0.0748  0.6250
  359MOL0     C48378   9.956   2.254   4.803  0.4434 -0.7611  0.5876
  359MOL0     C48379   9.972   2.311   4.929  0.3301  0.0569  0.0014
  359MOL0     N48380   9.508   2.333   5.682 -0.0110  0.3478 -0.1507
  359MOL0     N48381   9.463   2.295   5.799  0.0476 -0.1209 -0.1869
  359MOL0     C48382   9.016   1.925   5.548 -0.0381 -0.2843  1.1529
  359MOL0     C48383   9.118   1.887   5.463  0.4325  0.4216 -0.6404
  359MOL0     C48384   9.229   2.121   5.237 -0.6422  1.2900 -1.3694
  359MOL0     C48385   9.099   2.082   5.220  0.6651  0.3903  0.6099
  359MOL0     C48386   8.996   2.177   5.214  0.0145  0.3846  0.7601
  359MOL0     C48387   9.025   2.309   5.223  0.7008  0.1660 -0.0505
  359MOL0     O48388   8.943   2.413   5.219 -0.0062  0.1028  0.4116
  359MOL0     C48389   8.811   2.381   5.198 -0.1493 -0.0615 -0.6739
  359MOL0     C48390   8.731   2.514   5.224 -0.1887 -0.0174 -0.7004
  359MOL0     C48391   8.787   2.582   5.357 -0.1941  0.1827  0.1230
  359MOL0     C48392   8.706   2.707   5.408  0.8736  0.5286  0.4953
  359MOL0     C48393   8.706   2.802   5.299  1.1544 -0.3554 -0.3278
  359MOL0     C48394   8.691   2.883   5.204 -0.2856  0.0977 -0.2840
  359MOL0     C48395   9.161   2.349   5.225  0.8008 -0.3994 -0.4830
  359MOL0     C48396   9.262   2.254   5.241 -0.0468  0.0407 -0.5082
  359MOL0     C48397   9.402   2.306   5.260  1.6666 -0.0461 -0.0495
  359MOL0     H48398   9.325   2.151   5.524 -1.8180  2.4034 -0.2592
  359MOL0     H48399   9.133   2.215   5.658 -0.6430  0.3751 -0.8641
  359MOL0     H48400   8.761   2.000   5.780  0.0868  2.8618 -2.2315
  359MOL0     H48401   8.902   1.904   5.792 -2.6584 -0.8814  0.1183
  359MOL0     H48402   8.866   1.996   5.999 -0.7326 -0.2319 -1.8755
  359MOL0     H48403   8.848   2.164   5.933  1.3407  0.6698 -4.1952
  359MOL0     H48404   9.047   2.134   6.058 -0.2518 -0.2573  0.0662
  359MOL0     H48405   9.106   2.150   5.889  0.6097 -0.3969 -0.1565
  359MOL0     H48406   9.061   1.885   6.050  0.4356 -1.5581 -0.3633
  359MOL0     H48407   9.115   1.893   5.889  0.6188  4.1578 -2.3785
  359MOL0     H48408   9.254   1.978   6.146  1.1015  0.3575 -0.5869
  359MOL0     H48409   9.308   1.851   6.032  0.9642 -0.7024  0.4510
  359MOL0     H48410   9.340   2.045   5.869  0.3573 -1.7081 -0.9984
  359MOL0     H48411   9.292   2.142   6.006 -0.1223 -1.1872  2.5608
  359MOL0     H48412   9.536   1.994   5.926 -1.4476 -0.2724 -0.5998
  359MOL0     H48413   9.509   2.005   6.105  0.6544  0.9179  0.2043
  359MOL0     H48414   9.510   2.257   6.071 -1.0430 -1.2116 -1.8221
  359MOL0     H48415   9.669   2.178   6.030  0.2044 -3.2657 -4.4917
  359MOL0     H48416   9.780   2.194   5.807 -1.1129 -3.2858  0.5373
  359MOL0     H48417   9.687   2.405   5.503 -0.9223 -0.0698 -0.5702
  359MOL0     H48418   9.835   2.328   5.564 -0.2086 -2.9482  2.0729
  359MOL0     H48419   9.748   2.112   5.495  0.9238 -0.2829 -1.7175
  359MOL0     H48420   9.628   2.194   5.396  1.3660 -1.0785 -1.7707
  359MOL0     H48421   9.848   2.119   5.291 -1.1419 -0.2956  1.6797
  359MOL0     H48422   9.930   2.221   5.394 -0.3155 -1.9572 -0.6115
  359MOL0     H48423   9.824   2.421   5.326 -3.0716  0.4148 -0.1148
  359MOL0     H48424   9.711   2.342   5.218 -1.8704  2.1444  3.8894
  359MOL0     H48425   9.726   2.135   5.089 -1.4415  0.8487 -0.0086
  359MOL0     H48426   9.697   2.046   4.878  1.0676 -2.5023  3.0477
  359MOL0     H48427   9.838   2.004   4.379  0.1651 -0.1199  0.5803
  359MOL0     H48428   9.715   1.894   4.180  0.4800  0.6099  0.8363
  359MOL0     H48429   9.431   1.574   4.302  0.7536  0.0967  1.1246
  359MOL0     H48430   9.320   1.712   4.288  2.5463  2.4540 -0.4331
  359MOL0     H48431   9.409   1.542   4.055  0.3734 -0.4970  1.1674
  359MOL0     H48432   9.256   1.526   4.138  1.0899 -2.0858 -0.9588
  359MOL0     H48433   9.218   1.785   4.080 -1.4730 -0.9755 -2.2447
  359MOL0     H48434   9.368   1.761   3.972  0.2100 -1.9951 -3.4696
  359MOL0     H48435   9.239   1.560   3.885 -0.9674  0.7505 -6.2909
  359MOL0     H48436   9.204   1.713   3.821 -0.4102 -0.1163  0.4188
  359MOL0     H48437   9.018   1.741   3.970  0.6340  0.5398  0.3658
  359MOL0     H48438   9.032   1.581   4.034 -1.2610 -0.7932 -1.7121
  359MOL0     H48439   8.989   1.637   3.745  2.0409  0.5936 -0.0487
  359MOL0     H48440   9.032   1.468   3.800 -2.6509 -2.4350 -0.4801
  359MOL0     H48441   8.805   1.475   3.929 -0.3659  0.7826 -0.1343
  359MOL0     H48442   8.795   1.484   3.753  1.5120 -1.1504 -0.1880
  359MOL0     H48443   8.816   1.735   3.919  1.8381 -1.8626 -0.5809
  359MOL0     H48444   8.741   1.717   3.758 -1.5058 -0.2419 -0.3283
  359MOL0     H48445   9.433   1.732   4.464 -0.3249  0.5961 -0.0779
  359MOL0     H48446   9.564   1.829   4.652  0.9864 -1.9575 -0.0224
  359MOL0     H48447  10.019   2.290   4.722  0.9068  0.0465  1.2734
  359MOL0     H48448  10.054   2.379   4.947  1.1497 -0.9112  0.0332
  359MOL0     H48449   8.924   1.870   5.534 -1.3257  2.1754 -1.1159
  359MOL0     H48450   9.091   1.794   5.414  2.7683 -0.9243  0.4865
  359MOL0     H48451   9.074   1.976   5.219  1.5367  0.1080 -2.4187
  359MOL0     H48452   8.907   2.125   5.178  2.0666 -0.9973 -2.9481
  359MOL0     H48453   8.791   2.302   5.271  2.1413 -1.9352 -1.9477
  359MOL0     H48454   8.786   2.345   5.097 -2.8092  2.0784 -0.9084
  359MOL0     H48455   8.627   2.482   5.237  0.3476 -0.8203  2.3786
  359MOL0     H48456   8.736   2.587   5.143 -0.7910  0.7442 -0.0550
  359MOL0     H48457   8.893   2.609   5.354 -0.1200  0.1049  1.4401
  359MOL0     H48458   8.790   2.498   5.427  4.2735 -0.9228 -1.1120
  359MOL0     H48459   8.603   2.675   5.430 -0.0842  1.2250 -2.3993
  359MOL0     H48460   8.753   2.764   5.488  0.3702  3.1931 -0.9685
  359MOL0     H48461   8.667   2.928   5.109 -2.0182  1.1410  0.6100
  359MOL0     H48462   9.185   2.455   5.226 -0.5197 -0.0931 -0.1615
  359MOL0     H48463   9.400   2.354   5.359 -2.5229  0.2155 -0.1059
  359MOL0     H48464   9.484   2.234   5.252  0.7390 -1.7994  3.8555
  359MOL0     H48465   9.416   2.394   5.196 -2.0772 -0.2763 -1.3949
  360MOL0     O48466   5.153   5.898  11.310 -0.4446 -0.0954 -0.8168
  360MOL0     C48467   5.078   6.000  11.338 -0.6515 -0.1249 -0.4222
  360MOL0     O48468   4.988   6.049  11.250  0.3194 -0.8924  0.2143
  360MOL0     C48469   4.989   6.014  11.118  0.3786  0.3425  0.7937
  360MOL0     C48470   4.866   5.963  11.053 -1.0105  0.3028 -0.3919
  360MOL0     C48471   4.871   5.940  10.916 -0.0040 -0.3177 -1.0323
  360MOL0     C48472   4.984   5.946  10.836 -0.4353 -0.2480  0.0944
  360MOL0     O48473   4.988   5.934  10.704 -0.0755  0.4540  0.1901
  360MOL0     C48474   4.906   5.838  10.637 -0.0751 -0.2499  0.4056
  360MOL0     C48475   4.948   5.834  10.490 -0.1786  1.2510  0.4506
  360MOL0     C48476   4.885   5.722  10.402 -0.8819 -0.1443 -0.5741
  360MOL0     C48477   4.727   5.724  10.397  0.6454  0.0188 -0.0416
  360MOL0     C48478   4.687   5.825  10.290 -0.2947  0.3088  0.2222
  360MOL0     C48479   4.538   5.856  10.302 -0.1478 -1.0073 -0.9152
  360MOL0     C48480   4.486   5.871  10.161  0.4715 -0.2969 -0.2630
  360MOL0     C48481   4.335   5.861  10.156 -0.3239  0.4891  0.3526
  360MOL0     N48482   4.274   5.981  10.218 -0.1040  0.5844  0.0544
  360MOL0     C48483   4.231   5.993  10.350  0.0293 -0.6814  0.1727
  360MOL0     C48484   4.167   6.110  10.351 -0.5070  0.3251  0.1741
  360MOL0     C48485   4.117   6.182  10.469 -0.0084  0.8198 -0.1696
  360MOL0     C48486   4.199   6.306  10.496 -1.1238 -1.0808  0.3298
  360MOL0     C48487   4.145   6.385  10.619 -0.2573  0.7810 -0.7811
  360MOL0     C48488   4.036   6.481  10.593 -0.6188 -0.6134 -0.5903
  360MOL0     O48489   4.098   6.583  10.510 -0.4600  0.3155 -0.0500
  360MOL0     C48490   4.036   6.642  10.406 -0.1433 -0.1199 -0.3217
  360MOL0     C48491   3.899   6.654  10.389 -0.8629  0.5338  0.1494
  360MOL0     C48492   3.854   6.718  10.277 -0.5228  0.6675  0.1020
  360MOL0     C48493   3.928   6.786  10.181  0.2280  0.6892  0.2104
  360MOL0     C48494   3.864   6.852  10.069 -0.2290 -0.0199  0.5531
  360MOL0     O48495   3.731   6.822  10.043  0.2676  0.2553 -0.0479
  360MOL0     C48496   3.676   6.883   9.937 -0.1708  0.4518  0.3480
  360MOL0     C48497   3.535   6.883   9.935 -0.6082 -0.3773  0.2186
  360MOL0     C48498   3.459   6.944   9.826 -1.2611 -0.2110 -0.1443
  360MOL0     C48499   3.534   6.997   9.709 -0.8622 -0.6777  0.7157
  360MOL0     O48500   3.457   7.055   9.615 -0.6253 -0.6145 -0.4129
  360MOL0     C48501   3.492   7.056   9.473 -0.9404  0.4702 -0.0175
  360MOL0     C48502   3.536   7.188   9.421  1.5665 -0.1808 -0.5846
  360MOL0     C48503   3.549   7.206   9.271  0.1816  0.5706 -0.3405
  360MOL0     C48504   3.604   7.346   9.232 -0.3374  0.7248 -0.7959
  360MOL0     C48505   3.582   7.381   9.080 -0.0751 -0.2480  0.6372
  360MOL0     C48506   3.655   7.285   8.980 -0.0861 -0.1700 -0.5734
  360MOL0     C48507   3.579   7.289   8.861  0.4877  0.0148  0.2645
  360MOL0     C48508   3.650   7.192   8.762 -0.4523  0.0744 -1.0863
  360MOL0    Cl48509   3.570   7.221   8.603  0.0971  0.0315  0.4461
  360MOL0     C48510   3.670   6.977   9.709  0.4935  0.3060 -0.4527
  360MOL0     C48511   3.745   6.919   9.818 -0.0537 -0.1555  0.5677
  360MOL0     O48512   3.929   6.947  10.022 -0.9714  0.4251 -0.0229
  360MOL0     C48513   4.071   6.791  10.216  0.9772 -0.2121  0.1837
  360MOL0     C48514   4.118   6.707  10.311 -0.1832  0.6981 -0.6750
  360MOL0     N48515   4.169   6.166  10.230 -0.5806 -0.5377 -0.7513
  360MOL0     N48516   4.238   6.089  10.146 -0.3019 -0.3398 -0.1403
  360MOL0     C48517   5.101   5.981  10.908  0.8488  0.2590 -0.6934
  360MOL0     C48518   5.106   6.015  11.044 -0.2963 -1.2211 -0.4535
  360MOL0     C48519   5.062   6.047  11.486  1.2652 -0.1013  0.3166
  360MOL0     C48520   5.053   5.949  11.583  0.2935  0.5868 -0.0310
  360MOL0     C48521   5.025   5.971  11.716  0.4133 -0.5112  0.1747
  360MOL0     C48522   5.019   6.106  11.759 -0.7758  0.5764 -0.1018
  360MOL0     O48523   5.007   6.138  11.892 -0.5108  0.6581 -1.0280
  360MOL0     C48524   5.088   6.061  11.981 -0.1108  0.2286 -0.3223
  360MOL0     C48525   5.213   6.145  12.032 -0.4296  0.6864 -0.7357
  360MOL0     C48526   5.266   6.109  12.172  0.6111  0.3545 -1.0196
  360MOL0     C48527   5.369   5.989  12.166  0.3676 -0.7028 -0.3043
  360MOL0     C48528   5.308   5.860  12.177  0.6250  0.8322 -0.2484
  360MOL0     C48529   5.266   5.750  12.182  0.5024  0.1945 -0.1633
  360MOL0     C48530   5.035   6.210  11.668  0.3663 -0.1988  0.1255
  360MOL0     C48531   5.047   6.180  11.529 -0.3247  0.0593  0.1246
  360MOL0     C48532   5.062   6.294  11.434 -0.1907 -0.8439  0.2029
  360MOL0     H48533   4.769   5.941  11.098 -0.6631  0.5903  0.5148
  360MOL0     H48534   4.772   5.913  10.883 -0.9006 -0.4251  1.5326
  360MOL0     H48535   4.932   5.744  10.687  4.1483  1.2071  1.3539
  360MOL0     H48536   4.807   5.885  10.631  0.3843  0.5417 -3.4245
  360MOL0     H48537   5.057   5.832  10.485 -0.1952  1.1997  0.0773
  360MOL0     H48538   4.919   5.929  10.443 -0.7797 -0.1551 -2.2348
  360MOL0     H48539   4.898   5.630  10.461 -2.9186 -0.6283 -0.7970
  360MOL0     H48540   4.948   5.708  10.313 -1.4899  0.2682 -1.0720
  360MOL0     H48541   4.684   5.626  10.374 -2.0067  1.2466 -0.6458
  360MOL0     H48542   4.692   5.759  10.495  4.1270 -0.5204  1.5579
  360MOL0     H48543   4.748   5.915  10.302 -1.6976  1.1177  1.6821
  360MOL0     H48544   4.716   5.780  10.195 -1.3183 -1.5910  0.7786
  360MOL0     H48545   4.479   5.772  10.340  0.7172 -0.3021  2.3328
  360MOL0     H48546   4.521   5.943  10.366  2.1233  0.3450 -1.9981
  360MOL0     H48547   4.541   5.803  10.095  2.6509 -1.0922  2.2294
  360MOL0     H48548   4.506   5.975  10.130 -1.7689 -0.1968 -1.5760
  360MOL0     H48549   4.303   5.858  10.051 -0.0439  2.3381  0.1885
  360MOL0     H48550   4.299   5.770  10.206  2.9539  1.1389  4.4277
  360MOL0     H48551   4.256   5.927  10.433 -1.1219 -1.1054  0.2010
  360MOL0     H48552   4.012   6.211  10.457 -0.7246 -2.0277 -1.8510
  360MOL0     H48553   4.116   6.113  10.554 -0.9824 -2.3254 -2.5462
  360MOL0     H48554   4.299   6.271  10.524 -0.7900 -0.8694 -0.5639
  360MOL0     H48555   4.223   6.370  10.410 -0.8381  1.4941  2.2022
  360MOL0     H48556   4.221   6.438  10.677 -0.6466  1.0641 -0.5174
  360MOL0     H48557   4.096   6.318  10.691  0.1463  3.6949  2.5017
  360MOL0     H48558   4.017   6.537  10.686  2.3748 -0.0829 -0.2176
  360MOL0     H48559   3.945   6.436  10.551 -0.3403 -0.8527 -0.9436
  360MOL0     H48560   3.840   6.610  10.469  2.7746 -1.6512  1.8783
  360MOL0     H48561   3.748   6.736  10.274 -0.1704  3.8659  2.1571
  360MOL0     H48562   3.483   6.845  10.023 -0.6299  1.5329  1.0737
  360MOL0     H48563   3.351   6.956   9.821 -1.1180  0.6614 -2.2070
  360MOL0     H48564   3.563   6.973   9.468  0.2784  1.2070  3.0848
  360MOL0     H48565   3.400   7.022   9.424 -1.4990 -1.5025  2.2501
  360MOL0     H48566   3.477   7.268   9.467  1.2482 -1.2946  1.0369
  360MOL0     H48567   3.638   7.213   9.453  1.4612  1.9653 -1.6915
  360MOL0     H48568   3.622   7.129   9.243 -0.8896 -0.7281  0.3347
  360MOL0     H48569   3.453   7.196   9.221  0.0908  1.7559 -0.4326
  360MOL0     H48570   3.712   7.345   9.252 -0.5772  1.1360  0.5988
  360MOL0     H48571   3.570   7.417   9.307  1.2966 -2.3755  3.2921
  360MOL0     H48572   3.615   7.484   9.065  0.1909 -0.2147  1.4181
  360MOL0     H48573   3.474   7.376   9.067  0.0517 -1.6978 -0.1831
  360MOL0     H48574   3.757   7.323   8.979  0.1681 -0.8337  0.0018
  360MOL0     H48575   3.664   7.182   9.016  1.5674  0.8412  2.2675
  360MOL0     H48576   3.576   7.391   8.823 -0.3571  0.4694  1.5030
  360MOL0     H48577   3.474   7.268   8.884  0.4511  0.9881  1.0268
  360MOL0     H48578   3.755   7.222   8.756 -1.1226  3.0263  0.3249
  360MOL0     H48579   3.649   7.085   8.787 -1.2337 -1.3775 -6.1915
  360MOL0     H48580   3.729   7.027   9.632  0.0208 -0.7158 -1.5082
  360MOL0     H48581   3.852   6.910   9.809  0.0816  0.8320  1.0116
  360MOL0     H48582   4.148   6.845  10.162 -0.1512  0.8355 -0.4637
  360MOL0     H48583   4.224   6.702  10.333 -0.7853  1.7342  3.1383
  360MOL0     H48584   5.187   6.007  10.847  1.7181 -2.9714 -1.0349
  360MOL0     H48585   5.198   6.056  11.086 -1.0942  1.0359 -0.7965
  360MOL0     H48586   5.060   5.843  11.561  0.7401  0.6117 -0.0225
  360MOL0     H48587   5.010   5.887  11.783 -4.1813 -2.5189 -2.8670
  360MOL0     H48588   5.121   5.967  11.936  1.0096  1.0744 -1.3216
  360MOL0     H48589   5.023   6.031  12.064 -2.7469 -1.3651 -2.7324
  360MOL0     H48590   5.172   6.245  12.047 -0.3508  0.8482 -1.5416
  360MOL0     H48591   5.297   6.155  11.962 -0.5514 -0.3353 -1.0382
  360MOL0     H48592   5.177   6.086  12.231 -0.7868  2.4752 -2.1934
  360MOL0     H48593   5.311   6.202  12.207  0.5512  0.5019 -1.3303
  360MOL0     H48594   5.444   5.996  12.087  1.0581  1.2754  0.4625
  360MOL0     H48595   5.435   6.003  12.252 -0.0327  2.7037 -0.4033
  360MOL0     H48596   5.236   5.648  12.178  2.4214 -0.4333  0.6798
  360MOL0     H48597   5.023   6.313  11.701  1.2082 -0.3758  1.0528
  360MOL0     H48598   5.061   6.390  11.487 -0.8715 -0.7023 -0.0473
  360MOL0     H48599   5.158   6.287  11.382  0.2533  1.5478  0.5870
  360MOL0     H48600   4.987   6.295  11.354 -0.1391 -1.7404  0.1318
  361MOL0     O48601  10.293  11.083   4.360 -0.1548 -0.3827  0.4697
  361MOL0     C48602  10.401  11.086   4.308 -0.0327  0.0203 -0.0617
  361MOL0     O48603  10.434  11.011   4.203  0.5626  0.3600  0.2503
  361MOL0     C48604  10.361  10.895   4.173  0.7639  0.9608 -0.3777
  361MOL0     C48605  10.342  10.792   4.260  0.3962 -0.2194 -0.1983
  361MOL0     C48606  10.272  10.678   4.226  0.5406 -0.6216  1.2775
  361MOL0     C48607  10.248  10.648   4.090  0.8593 -0.4452  1.1460
  361MOL0     O48608  10.219  10.529   4.042 -0.2305 -0.0004  0.3795
  361MOL0     C48609  10.184  10.423   4.145 -0.9645 -0.1433  0.0268
  361MOL0     C48610  10.137  10.297   4.075 -0.1279  0.0077  0.3581
  361MOL0     C48611  10.016  10.310   3.981  0.8992  1.0408  0.6763
  361MOL0     C48612   9.895  10.359   4.060 -0.1447 -0.5482  1.2279
  361MOL0     C48613   9.769  10.327   3.983  0.1029 -0.3319  0.4599
  361MOL0     C48614   9.643  10.417   4.014 -0.2468  1.0886 -0.8783
  361MOL0     C48615   9.568  10.354   4.134  0.1153  0.0451  0.5729
  361MOL0     C48616   9.599  10.422   4.273  0.2573 -0.0034  0.3015
  361MOL0     N48617   9.521  10.355   4.372 -0.1431 -0.1534 -0.0642
  361MOL0     C48618   9.380  10.342   4.366 -0.5699 -0.2041 -0.7889
  361MOL0     C48619   9.343  10.285   4.490 -0.2497 -1.0535  0.0435
  361MOL0     C48620   9.200  10.252   4.542 -0.1385  0.0476 -0.0559
  361MOL0     C48621   9.160  10.125   4.475  0.7694  0.3474 -0.0272
  361MOL0     C48622   9.010  10.083   4.486 -0.1009 -0.4611  0.4991
  361MOL0     C48623   8.977  10.048   4.628  0.9059  0.3302 -0.0233
  361MOL0     O48624   8.986  10.170   4.700 -0.2955 -0.3389 -0.6051
  361MOL0     C48625   9.027  10.156   4.828 -0.1272  0.0306 -0.1013
  361MOL0     C48626   9.017  10.044   4.919  0.6217  0.2229  0.3686
  361MOL0     C48627   9.022  10.076   5.058 -0.5257  0.6507  0.4721
  361MOL0     C48628   9.072  10.201   5.100  0.0006  0.6809  0.0414
  361MOL0     C48629   9.089  10.220   5.248  0.3516 -0.2609  0.8119
  361MOL0     O48630   9.125  10.113   5.320 -0.3408  0.7293 -0.5263
  361MOL0     C48631   9.122  10.129   5.455  0.2711  0.1532 -0.7348
  361MOL0     C48632   9.217  10.194   5.541 -0.5374  1.2112 -0.1612
  361MOL0     C48633   9.207  10.175   5.683 -0.1344 -0.0090  0.8654
  361MOL0     C48634   9.097  10.109   5.738  0.3049 -0.1285  0.2693
  361MOL0     O48635   9.095  10.087   5.873  1.0512  0.6403  0.3252
  361MOL0     C48636   9.129  10.196   5.958 -0.4551 -0.0830 -0.1959
  361MOL0     C48637   9.004  10.254   6.018 -0.8961 -0.1991 -0.1043
  361MOL0     C48638   9.012  10.336   6.144 -1.7662  0.5043  0.5103
  361MOL0     C48639   8.890  10.435   6.150 -0.7707  0.5304 -0.0507
  361MOL0     C48640   8.843  10.463   6.291  0.4997  0.8054  0.1594
  361MOL0     C48641   8.745  10.583   6.283 -0.0716 -0.0280 -0.2586
  361MOL0     C48642   8.622  10.572   6.374  1.0756 -0.3165 -0.5277
  361MOL0     C48643   8.642  10.590   6.525 -0.1814  0.0643  0.3104
  361MOL0    Cl48644   8.514  10.520   6.619  0.0459  0.0411 -0.7710
  361MOL0     C48645   8.995  10.069   5.653  0.8985  0.2516  0.1341
  361MOL0     C48646   9.006  10.080   5.519  0.3085  0.6808 -0.3623
  361MOL0     O48647   9.078  10.340   5.287  0.1605  0.2069 -0.3244
  361MOL0     C48648   9.091  10.304   5.006 -0.2194 -0.9773  1.2540
  361MOL0     C48649   9.059  10.278   4.879  0.2039  0.2094 -0.6251
  361MOL0     N48650   9.468  10.246   4.553 -0.7473 -0.0772 -0.9057
  361MOL0     N48651   9.569  10.280   4.482 -0.6255  0.2298  0.7978
  361MOL0     C48652  10.263  10.754   4.003  0.7882 -0.2468 -0.1301
  361MOL0     C48653  10.312  10.876   4.043  0.2151  0.2082 -0.4772
  361MOL0     C48654  10.497  11.190   4.358  0.0955  0.0137 -0.9890
  361MOL0     C48655  10.453  11.284   4.450 -0.3271 -0.3134 -1.0478
  361MOL0     C48656  10.531  11.387   4.499  0.9486 -0.6389 -0.6289
  361MOL0     C48657  10.659  11.404   4.456  0.5336 -0.3466 -0.2320
  361MOL0     O48658  10.729  11.519   4.476  0.0639 -0.7964  0.2575
  361MOL0     C48659  10.648  11.650   4.490 -0.1003 -0.2759 -0.6607
  361MOL0     C48660  10.706  11.792   4.482 -0.2518  0.3519  1.0512
  361MOL0     C48661  10.827  11.782   4.398 -0.2186  0.4091  0.4413
  361MOL0     C48662  10.793  11.737   4.263  0.3330 -0.3408  0.2219
  361MOL0     C48663  10.913  11.732   4.180 -1.4711 -0.1983  0.1661
  361MOL0     C48664  11.016  11.726   4.115 -0.4261  0.5966 -0.2517
  361MOL0     C48665  10.705  11.310   4.358 -0.6639 -0.6912 -0.0386
  361MOL0     C48666  10.626  11.204   4.308 -0.9095 -0.5605 -0.2305
  361MOL0     C48667  10.705  11.122   4.205 -0.1761 -0.3215 -0.0326
  361MOL0     H48668  10.394  10.804   4.354 -0.8122  1.1147  0.3270
  361MOL0     H48669  10.247  10.604   4.301 -1.7078 -3.6429 -2.1082
  361MOL0     H48670  10.279  10.411   4.198  0.3566  0.0313 -2.1816
  361MOL0     H48671  10.108  10.453   4.217 -1.9213 -2.2530 -0.0547
  361MOL0     H48672  10.102  10.220   4.144 -1.9385 -0.2765 -0.8000
  361MOL0     H48673  10.225  10.264   4.019  1.2869  3.3984  0.3829
  361MOL0     H48674   9.997  10.217   3.926 -2.3757  2.0424 -0.0704
  361MOL0     H48675  10.039  10.384   3.904  3.0810  1.2287  1.4423
  361MOL0     H48676   9.886  10.309   4.157 -3.0399 -1.2202  0.7041
  361MOL0     H48677   9.906  10.465   4.083  1.0424 -0.1428 -0.9300
  361MOL0     H48678   9.783  10.345   3.876 -1.3928  0.7567  0.4126
  361MOL0     H48679   9.755  10.221   4.006  4.5782 -0.9731  1.1496
  361MOL0     H48680   9.675  10.518   4.040  1.6609  0.0740  1.0410
  361MOL0     H48681   9.572  10.426   3.931 -1.2635  3.4158  0.1638
  361MOL0     H48682   9.584  10.246   4.146 -1.0097 -0.1091  0.8609
  361MOL0     H48683   9.466  10.372   4.097  0.3576 -1.0199 -0.6859
  361MOL0     H48684   9.706  10.414   4.296  0.7249  1.6707 -1.0577
  361MOL0     H48685   9.582  10.531   4.270 -0.6455 -0.1530 -0.9835
  361MOL0     H48686   9.312  10.375   4.287 -1.2531 -0.8183 -0.4679
  361MOL0     H48687   9.213  10.231   4.648  0.2277  1.4730  0.2004
  361MOL0     H48688   9.134  10.334   4.512  0.2273 -0.2875 -1.9142
  361MOL0     H48689   9.168  10.152   4.369  1.6410  1.3357  0.2714
  361MOL0     H48690   9.220  10.034   4.491 -0.8497 -0.4329  2.0410
  361MOL0     H48691   8.987   9.995   4.424 -4.2669  1.2077 -0.6640
  361MOL0     H48692   8.961  10.166   4.434  2.0599 -1.9303 -4.5895
  361MOL0     H48693   9.037   9.967   4.673 -0.5048 -0.0577  1.2236
  361MOL0     H48694   8.873  10.016   4.624  0.9162 -0.0390  1.7736
  361MOL0     H48695   8.994   9.947   4.877  0.7650 -0.1819  1.1937
  361MOL0     H48696   8.986  10.005   5.131  0.5123  1.6658  2.0424
  361MOL0     H48697   9.314  10.215   5.497  1.0745 -2.4112  1.2906
  361MOL0     H48698   9.288  10.205   5.747  2.1325 -0.5210 -1.5998
  361MOL0     H48699   9.189  10.166   6.045  0.5941  1.5812 -0.3106
  361MOL0     H48700   9.187  10.275   5.910 -1.6508  0.1548 -1.3035
  361MOL0     H48701   8.949  10.319   5.949  1.0760  3.3029  1.3349
  361MOL0     H48702   8.937  10.169   6.031 -1.8601  0.4426 -0.7536
  361MOL0     H48703   9.018  10.273   6.233  3.8170  1.5445  1.2640
  361MOL0     H48704   9.110  10.385   6.148 -0.6495 -1.2691 -2.1591
  361MOL0     H48705   8.801  10.409   6.091 -0.9605 -2.4965  1.3492
  361MOL0     H48706   8.938  10.523   6.107  0.1448 -0.3082 -0.8295
  361MOL0     H48707   8.922  10.494   6.361 -0.8913 -0.0229  2.1601
  361MOL0     H48708   8.800  10.376   6.342  3.5030 -1.5597 -0.9997
  361MOL0     H48709   8.790  10.679   6.311 -0.9306  0.0971  0.7225
  361MOL0     H48710   8.697  10.602   6.186  0.0789  3.1256  0.1568
  361MOL0     H48711   8.587  10.474   6.341  2.7502 -1.2406  0.3472
  361MOL0     H48712   8.548  10.646   6.341  2.7181  0.7282 -2.1365
  361MOL0     H48713   8.735  10.540   6.553  0.1141 -0.8549 -2.0195
  361MOL0     H48714   8.644  10.697   6.547  0.9332  0.2950 -0.7561
  361MOL0     H48715   8.903  10.031   5.696  0.1622 -1.1073 -2.4389
  361MOL0     H48716   8.927  10.039   5.456  1.9794 -0.6904 -1.6888
  361MOL0     H48717   9.128  10.403   5.032  1.1123 -1.5328  1.6076
  361MOL0     H48718   9.075  10.358   4.807  2.8035 -0.7008 -1.1470
  361MOL0     H48719  10.232  10.743   3.900 -0.6092 -1.1844  0.3638
  361MOL0     H48720  10.336  10.963   3.982  0.3476  3.2536  3.5014
  361MOL0     H48721  10.349  11.279   4.481  0.1560 -1.4896  0.5097
  361MOL0     H48722  10.489  11.460   4.568 -0.9003 -1.9192 -0.3171
  361MOL0     H48723  10.581  11.641   4.577  1.6037 -1.0820  0.6349
  361MOL0     H48724  10.586  11.653   4.400  1.8959  1.6469 -2.0508
  361MOL0     H48725  10.730  11.830   4.582  1.1805  0.9001  0.5320
  361MOL0     H48726  10.636  11.858   4.429 -3.6000 -2.8979  1.0587
  361MOL0     H48727  10.887  11.705   4.446 -0.9917 -0.9169 -0.6264
  361MOL0     H48728  10.868  11.883   4.406 -0.6608  0.4972  1.8185
  361MOL0     H48729  10.746  11.639   4.270 -1.9555  0.7371  0.6999
  361MOL0     H48730  10.730  11.812   4.215 -3.5205 -2.9850  0.7531
  361MOL0     H48731  11.104  11.733   4.055  0.2227 -2.6130  0.1567
  361MOL0     H48732  10.805  11.328   4.320 -0.7953 -0.2554 -0.1872
  361MOL0     H48733  10.802  11.088   4.242  0.3517  0.4529 -0.6685
  361MOL0     H48734  10.656  11.034   4.163 -1.1099  0.3309 -0.3552
  361MOL0     H48735  10.740  11.186   4.123 -0.8860 -0.6455 -0.6019
  362MOL0     O48736   7.930   6.620   1.214 -0.4642  0.1472 -0.6719
  362MOL0     C48737   8.024   6.544   1.227 -0.2724 -1.3936  0.2432
  362MOL0     O48738   8.048   6.452   1.326  0.5172 -0.1139 -0.1679
  362MOL0     C48739   7.939   6.419   1.407  0.5217 -0.4579 -0.4543
  362MOL0     C48740   7.862   6.310   1.369 -1.7244 -0.3348  0.0164
  362MOL0     C48741   7.771   6.259   1.466  0.1080  0.4528 -0.1982
  362MOL0     C48742   7.716   6.339   1.565 -0.4951  0.8108  0.1411
  362MOL0     O48743   7.602   6.297   1.623  0.8181 -0.1972 -0.7333
  362MOL0     C48744   7.503   6.398   1.633  0.0074 -0.1546  0.3771
  362MOL0     C48745   7.453   6.443   1.491 -0.5151 -0.6510 -0.2917
  362MOL0     C48746   7.394   6.329   1.399  0.1285  0.0355  0.4114
  362MOL0     C48747   7.255   6.362   1.341 -0.6460 -0.0153 -0.9476
  362MOL0     C48748   7.224   6.266   1.225 -0.2067  0.6820 -0.2605
  362MOL0     C48749   7.082   6.288   1.161  0.0406 -0.5370  0.9545
  362MOL0     C48750   6.966   6.227   1.230  0.8217 -0.5808  0.1067
  362MOL0     C48751   6.838   6.252   1.153 -0.3110 -0.0363  0.5310
  362MOL0     N48752   6.798   6.393   1.145 -0.5150  0.4753 -0.3408
  362MOL0     C48753   6.753   6.462   1.259 -1.1797 -0.6157  0.2658
  362MOL0     C48754   6.711   6.582   1.216 -0.0730 -0.2020  0.0337
  362MOL0     C48755   6.633   6.685   1.306 -0.3374  0.1140  0.3196
  362MOL0     C48756   6.661   6.832   1.285 -0.7450 -0.2736  0.0085
  362MOL0     C48757   6.609   6.897   1.151  0.7559  0.2258 -0.1892
  362MOL0     C48758   6.645   7.046   1.144 -0.7221 -0.3709 -0.3791
  362MOL0     O48759   6.634   7.107   1.010 -0.3889 -0.0896 -0.4847
  362MOL0     C48760   6.508   7.164   0.971 -0.7112 -0.0907 -0.9896
  362MOL0     C48761   6.377   7.120   0.983 -0.1490  0.2142  0.7202
  362MOL0     C48762   6.275   7.195   0.944  0.1333  0.8327  0.6078
  362MOL0     C48763   6.292   7.323   0.883  0.2076  0.6670 -0.0786
  362MOL0     C48764   6.168   7.391   0.828 -1.0656  0.8301 -0.8655
  362MOL0     O48765   6.047   7.339   0.868  0.1507 -0.3356 -0.1218
  362MOL0     C48766   5.928   7.382   0.812 -0.6156  0.4104  0.0673
  362MOL0     C48767   5.838   7.283   0.789 -0.2748  0.3557  0.7289
  362MOL0     C48768   5.720   7.308   0.715  0.6048  1.2141  0.1924
  362MOL0     C48769   5.680   7.435   0.678 -0.1587 -0.0419 -1.1181
  362MOL0     O48770   5.554   7.466   0.622 -0.4833  0.3961 -0.5005
  362MOL0     C48771   5.457   7.360   0.601  0.5522 -0.0780  0.1983
  362MOL0     C48772   5.319   7.413   0.547 -1.1237  0.2041 -0.7796
  362MOL0     C48773   5.325   7.491   0.414 -0.3771 -0.1120  0.1096
  362MOL0     C48774   5.186   7.510   0.350  0.2695 -0.1928 -0.5525
  362MOL0     C48775   5.191   7.588   0.221 -0.5133  0.6223  0.8608
  362MOL0     C48776   5.053   7.605   0.149  0.1932  0.6591 -0.3614
  362MOL0     C48777   5.068   7.694   0.027 -0.0148 -0.5010 -0.3810
  362MOL0     C48778   4.953   7.782  -0.011  0.4790 -0.2497  0.5335
  362MOL0    Cl48779   4.806   7.704  -0.053  0.2386  0.2334  0.1415
  362MOL0     C48780   5.761   7.538   0.723 -0.1366  0.2177 -0.4882
  362MOL0     C48781   5.885   7.514   0.787  0.5315 -0.2440  0.0866
  362MOL0     O48782   6.190   7.485   0.753 -0.4781 -1.0192 -0.5899
  362MOL0     C48783   6.419   7.369   0.868  0.9550  0.3206  0.4775
  362MOL0     C48784   6.525   7.291   0.915  0.2174  0.4595  1.4804
  362MOL0     N48785   6.743   6.590   1.076  0.9940 -0.3395 -0.4448
  362MOL0     N48786   6.801   6.475   1.031  0.2969  0.4225 -0.1543
  362MOL0     C48787   7.783   6.453   1.588 -0.3305  0.1812 -0.5635
  362MOL0     C48788   7.890   6.495   1.513  0.4039  0.8295  1.0179
  362MOL0     C48789   8.131   6.558   1.130  0.3171  0.6052 -0.7364
  362MOL0     C48790   8.266   6.558   1.178  0.6035 -0.7339  0.3336
  362MOL0     C48791   8.380   6.556   1.087 -0.2072 -0.5788 -0.6944
  362MOL0     C48792   8.356   6.584   0.949  0.3614 -1.3149 -0.0470
  362MOL0     O48793   8.454   6.607   0.856 -0.8257  0.0758 -0.1420
  362MOL0     C48794   8.569   6.520   0.856 -1.0565  0.6337 -0.4429
  362MOL0     C48795   8.543   6.375   0.820  0.5375  0.7461  0.5168
  362MOL0     C48796   8.674   6.294   0.808 -0.1231  0.5369  0.4444
  362MOL0     C48797   8.723   6.258   0.675 -0.5459 -0.8023 -0.1033
  362MOL0     C48798   8.777   6.382   0.606 -0.2023  0.5076 -0.3387
  362MOL0     C48799   8.807   6.492   0.559  0.2663  0.8623  0.4269
  362MOL0     C48800   8.229   6.573   0.902 -0.7482 -0.3186  0.0101
  362MOL0     C48801   8.118   6.560   0.989  0.1541  0.0526 -0.9964
  362MOL0     C48802   7.981   6.568   0.929 -0.4637 -0.2998  0.3251
  362MOL0     H48803   7.878   6.253   1.278  0.0894  0.2720 -0.0843
  362MOL0     H48804   7.725   6.161   1.459  2.2928 -0.5115 -5.1463
  362MOL0     H48805   7.429   6.380   1.712  0.0733  3.0282  1.3253
  362MOL0     H48806   7.540   6.486   1.686 -4.6553  0.2589  3.6172
  362MOL0     H48807   7.531   6.491   1.431 -0.2974 -1.2205 -0.4785
  362MOL0     H48808   7.372   6.516   1.501 -0.5056 -0.4806 -1.3431
  362MOL0     H48809   7.394   6.226   1.435 -0.9789 -0.7750 -1.7421
  362MOL0     H48810   7.469   6.335   1.319  2.3057  1.3239  2.3970
  362MOL0     H48811   7.187   6.339   1.424  0.7390 -2.4299 -0.3893
  362MOL0     H48812   7.249   6.469   1.321  1.5546  0.7967  1.9993
  362MOL0     H48813   7.296   6.285   1.145 -4.1050  1.4574 -3.9743
  362MOL0     H48814   7.245   6.164   1.256  2.2828  1.3323  0.3950
  362MOL0     H48815   7.066   6.394   1.138  4.8425  0.1579 -0.2463
  362MOL0     H48816   7.088   6.246   1.060  2.4959 -0.3846  0.9746
  362MOL0     H48817   6.962   6.257   1.336  1.1759  0.3679 -0.1330
  362MOL0     H48818   6.982   6.121   1.210  1.1638 -0.3114 -1.1040
  362MOL0     H48819   6.852   6.201   1.057 -1.1404  1.3616 -0.3595
  362MOL0     H48820   6.767   6.187   1.206  0.4510 -0.9165  0.4890
  362MOL0     H48821   6.749   6.423   1.360  0.4191 -2.9292 -0.4755
  362MOL0     H48822   6.529   6.663   1.281  0.3873 -1.8839 -1.2659
  362MOL0     H48823   6.652   6.665   1.412 -2.5103 -1.3691  0.4880
  362MOL0     H48824   6.606   6.890   1.360 -0.3508  1.3191 -0.8672
  362MOL0     H48825   6.768   6.850   1.300  1.0573 -7.1733 -1.3073
  362MOL0     H48826   6.502   6.876   1.144  1.1655 -1.7617 -1.3079
  362MOL0     H48827   6.650   6.846   1.063 -1.0060  0.5800 -1.2678
  362MOL0     H48828   6.745   7.060   1.187 -1.3491  1.4814  0.5913
  362MOL0     H48829   6.578   7.101   1.212 -0.7635  0.2029 -0.8765
  362MOL0     H48830   6.350   7.040   1.052 -0.1402  0.5171  1.0795
  362MOL0     H48831   6.175   7.154   0.954  0.5196  0.3237  2.9762
  362MOL0     H48832   5.866   7.179   0.803  0.7638  0.1734 -2.0607
  362MOL0     H48833   5.656   7.224   0.694 -1.5696  2.1376  2.6282
  362MOL0     H48834   5.494   7.283   0.533 -0.7552  1.2082 -2.1239
  362MOL0     H48835   5.437   7.315   0.698 -3.4193 -0.4376 -0.6389
  362MOL0     H48836   5.243   7.339   0.519  0.7982 -1.4777 -1.7655
  362MOL0     H48837   5.259   7.464   0.624 -4.6554 -4.4578  0.0386
  362MOL0     H48838   5.384   7.581   0.433  1.0269 -1.3199  1.6901
  362MOL0     H48839   5.381   7.423   0.349  2.2101  0.4513  1.6044
  362MOL0     H48840   5.116   7.552   0.423 -0.9956 -2.8004 -0.1468
  362MOL0     H48841   5.138   7.416   0.322 -0.3885 -0.1323  0.3065
  362MOL0     H48842   5.256   7.543   0.146  2.2174 -0.1071  3.4950
  362MOL0     H48843   5.240   7.683   0.244 -1.5619  0.6518  3.2377
  362MOL0     H48844   5.013   7.508   0.118  1.5232  0.6068 -2.0742
  362MOL0     H48845   4.983   7.647   0.221 -2.0851 -2.1503 -0.7802
  362MOL0     H48846   5.106   7.638  -0.060 -1.1032  0.3837 -1.4545
  362MOL0     H48847   5.151   7.764   0.040  1.6289 -2.7279  2.0275
  362MOL0     H48848   4.940   7.841   0.080 -0.1843 -1.6929  1.4161
  362MOL0     H48849   4.987   7.848  -0.091  0.8701 -0.3113  0.6466
  362MOL0     H48850   5.733   7.635   0.683 -1.3313  2.3294  4.6668
  362MOL0     H48851   5.945   7.601   0.811  2.2062 -1.5663  0.8819
  362MOL0     H48852   6.448   7.459   0.815  0.2647  0.6626  0.6666
  362MOL0     H48853   6.626   7.332   0.909  0.5395 -0.5166 -0.8202
  362MOL0     H48854   7.752   6.514   1.673  0.5775 -1.1949  0.8040
  362MOL0     H48855   7.941   6.585   1.546  2.5369 -0.1335  0.5180
  362MOL0     H48856   8.270   6.551   1.286 -0.5480  2.1024  0.6510
  362MOL0     H48857   8.481   6.544   1.125 -0.0634  1.8826 -0.1116
  362MOL0     H48858   8.618   6.513   0.953 -1.0132 -0.7584 -0.5357
  362MOL0     H48859   8.641   6.562   0.785  1.1945 -2.8673 -0.4537
  362MOL0     H48860   8.493   6.389   0.723 -0.2778  3.9909  1.2586
  362MOL0     H48861   8.472   6.324   0.886  0.7967 -2.1215 -1.2396
  362MOL0     H48862   8.640   6.199   0.851 -1.0704  0.6943  0.0751
  362MOL0     H48863   8.752   6.344   0.865  0.2896 -1.6539  1.9282
  362MOL0     H48864   8.797   6.178   0.683 -0.9701 -1.0748  1.3455
  362MOL0     H48865   8.645   6.216   0.610 -1.8391  2.4906 -0.8687
  362MOL0     H48866   8.814   6.595   0.529 -2.0387  2.1331  3.6210
  362MOL0     H48867   8.216   6.580   0.795  2.1379 -0.6382 -0.4204
  362MOL0     H48868   7.990   6.525   0.828  0.3789  4.8766 -2.1327
  362MOL0     H48869   7.908   6.506   0.983 -0.7782  1.0275  1.4710
  362MOL0     H48870   7.944   6.668   0.905  0.6969 -0.0188 -0.3936
  363MOL0     O48871   8.615   5.844   5.595  0.5804  0.1723  0.3540
  363MOL0     C48872   8.701   5.927   5.615  0.0614 -0.1647 -0.5115
  363MOL0     O48873   8.743   5.969   5.739 -0.6120 -0.0257  0.0831
  363MOL0     C48874   8.662   5.933   5.844  0.7091  0.1331 -0.1944
  363MOL0     C48875   8.561   6.011   5.897 -0.3959  0.3205 -0.9409
  363MOL0     C48876   8.480   5.961   6.003 -0.9281  0.7740 -1.3032
  363MOL0     C48877   8.518   5.847   6.070 -0.3100  0.0863 -0.1863
  363MOL0     O48878   8.421   5.811   6.165 -0.0315  0.3788 -0.3497
  363MOL0     C48879   8.420   5.672   6.215  0.3682 -0.0700 -0.2244
  363MOL0     C48880   8.318   5.661   6.328  0.5013  1.2352  0.2859
  363MOL0     C48881   8.350   5.740   6.452  0.0624  0.0636 -0.0171
  363MOL0     C48882   8.237   5.736   6.558 -0.5871  0.0923 -0.9737
  363MOL0     C48883   8.254   5.847   6.667  0.2291 -0.5771  0.9353
  363MOL0     C48884   8.154   5.829   6.781  0.0846  0.6706  1.0906
  363MOL0     C48885   8.202   5.907   6.901  0.4974  0.3270 -0.5974
  363MOL0     C48886   8.197   6.056   6.891 -0.7533 -0.1698 -0.1874
  363MOL0     N48887   8.059   6.105   6.910 -0.2088 -0.4555 -0.0372
  363MOL0     C48888   8.018   6.228   6.847 -0.0177 -0.3687 -0.8347
  363MOL0     C48889   7.900   6.258   6.905 -0.3544 -1.1798 -0.2873
  363MOL0     C48890   7.823   6.392   6.868  0.1904 -0.0903  0.1667
  363MOL0     C48891   7.658   6.399   6.870 -0.0824  0.7512 -0.1368
  363MOL0     C48892   7.610   6.498   6.758  0.3319 -1.3153  0.2315
  363MOL0     C48893   7.636   6.468   6.608 -0.8444  0.1010 -0.3169
  363MOL0     O48894   7.572   6.568   6.525 -0.3940 -0.3288  0.7497
  363MOL0     C48895   7.454   6.544   6.461  0.4331  0.5684 -1.0367
  363MOL0     C48896   7.366   6.438   6.512 -0.0403 -0.2929 -0.5854
  363MOL0     C48897   7.241   6.428   6.461 -0.0543  0.1534 -0.3469
  363MOL0     C48898   7.190   6.501   6.360 -0.2346  0.2066 -0.4400
  363MOL0     C48899   7.059   6.485   6.303  0.2148  1.1727  0.7752
  363MOL0     O48900   6.974   6.406   6.380  0.5022  0.6408 -0.1325
  363MOL0     C48901   6.842   6.397   6.336  0.8768  0.2735 -0.7086
  363MOL0     C48902   6.754   6.510   6.325  0.1354  0.1280  0.5897
  363MOL0     C48903   6.614   6.501   6.297 -0.7815  0.2537  0.1797
  363MOL0     C48904   6.568   6.378   6.258  0.6241 -0.1369  0.9454
  363MOL0     O48905   6.436   6.372   6.203 -0.2466  0.7374 -1.2030
  363MOL0     C48906   6.420   6.317   6.067  0.2778 -0.3640 -0.6983
  363MOL0     C48907   6.322   6.201   6.064 -0.0887  0.3669  0.3695
  363MOL0     C48908   6.255   6.200   5.931  0.6293  1.0509 -0.4897
  363MOL0     C48909   6.161   6.076   5.926 -0.1608 -0.2539 -0.9005
  363MOL0     C48910   6.098   6.062   5.791  0.0897  0.1314  0.5797
  363MOL0     C48911   6.198   5.999   5.684  0.0641  0.0864 -0.0388
  363MOL0     C48912   6.129   5.982   5.562 -0.2224  0.1707 -0.0567
  363MOL0     C48913   6.177   5.864   5.478 -0.8114  0.6163 -1.0154
  363MOL0    Cl48914   6.070   5.857   5.331 -0.7866 -0.6247  0.0576
  363MOL0     C48915   6.645   6.263   6.249 -0.1032  0.5508  0.2348
  363MOL0     C48916   6.778   6.279   6.281 -0.2617 -0.0383 -0.6476
  363MOL0     O48917   7.029   6.553   6.203  0.2034 -0.3214  0.7527
  363MOL0     C48918   7.281   6.605   6.316  0.5372  0.3800  0.9592
  363MOL0     C48919   7.408   6.626   6.365  0.2158 -0.0212 -0.1012
  363MOL0     N48920   7.877   6.168   7.001 -0.0138 -0.2427  0.0184
  363MOL0     N48921   7.972   6.068   7.002 -0.3593 -0.6363 -0.4432
  363MOL0     C48922   8.626   5.772   6.022  0.2941 -0.5458  0.5675
  363MOL0     C48923   8.698   5.817   5.911  0.8444 -0.9379  0.0476
  363MOL0     C48924   8.763   5.993   5.501 -1.2037  0.1308  0.5191
  363MOL0     C48925   8.794   6.132   5.514  0.6066  0.1238 -0.6209
  363MOL0     C48926   8.825   6.216   5.414 -0.3970 -0.1923  0.2104
  363MOL0     C48927   8.839   6.165   5.291 -1.1405  0.7192  0.4202
  363MOL0     O48928   8.871   6.251   5.193 -0.1251 -0.0798  0.6021
  363MOL0     C48929   8.880   6.208   5.065 -0.0928 -0.5839  0.4477
  363MOL0     C48930   8.909   6.330   4.975 -0.2082  0.0985 -0.8377
  363MOL0     C48931   9.038   6.411   5.019  0.6454 -0.5586  0.0274
  363MOL0     C48932   9.101   6.495   4.905  0.4662 -0.6512 -0.6421
  363MOL0     C48933   9.027   6.621   4.873 -0.0015 -0.6149  0.6433
  363MOL0     C48934   8.972   6.725   4.844  0.8167 -0.0033  0.1403
  363MOL0     C48935   8.810   6.027   5.262  0.4395  0.9072 -0.2655
  363MOL0     C48936   8.780   5.934   5.368 -0.3453 -0.8393 -0.4804
  363MOL0     C48937   8.761   5.785   5.352 -0.1085  0.5750  0.7493
  363MOL0     H48938   8.538   6.104   5.846  0.5933  1.4137  0.5224
  363MOL0     H48939   8.399   6.010   6.057  0.6004  1.1329  0.7719
  363MOL0     H48940   8.376   5.608   6.138 -3.6192 -0.5066  2.1659
  363MOL0     H48941   8.519   5.634   6.238  0.3361  1.1532  2.3120
  363MOL0     H48942   8.315   5.557   6.359  3.3115  0.6881 -0.9603
  363MOL0     H48943   8.218   5.688   6.294  0.1761 -0.0740  0.1459
  363MOL0     H48944   8.376   5.844   6.431  0.9487  0.1165  1.2001
  363MOL0     H48945   8.440   5.698   6.497 -2.0619 -3.2278  1.5723
  363MOL0     H48946   8.145   5.749   6.500 -1.3361  0.5901  0.2926
  363MOL0     H48947   8.231   5.640   6.611 -0.6762 -0.8019 -2.5439
  363MOL0     H48948   8.357   5.840   6.704 -0.8356 -3.1216  3.7889
  363MOL0     H48949   8.244   5.933   6.601  1.2568 -2.3836 -1.7631
  363MOL0     H48950   8.054   5.863   6.751  1.2698  1.1520 -2.9960
  363MOL0     H48951   8.154   5.721   6.799  0.4090  0.5764  0.5682
  363MOL0     H48952   8.304   5.877   6.930 -0.3325 -4.4440 -1.8098
  363MOL0     H48953   8.139   5.880   6.987  2.9374 -2.9576  0.3872
  363MOL0     H48954   8.261   6.094   6.971 -0.2871 -0.7669 -0.2672
  363MOL0     H48955   8.247   6.093   6.800  2.3969  0.7564  1.7478
  363MOL0     H48956   8.075   6.279   6.770 -0.4500  2.7684  0.7677
  363MOL0     H48957   7.864   6.473   6.930  2.0960  1.4382 -2.8534
  363MOL0     H48958   7.858   6.413   6.766  0.7819  0.7245  0.5245
  363MOL0     H48959   7.619   6.298   6.856  1.7149  0.0788 -0.5814
  363MOL0     H48960   7.630   6.429   6.971  1.0515 -2.6143  1.2953
  363MOL0     H48961   7.659   6.594   6.779 -1.1208 -0.6483  0.6981
  363MOL0     H48962   7.501   6.508   6.766  0.1031  0.1578 -3.1602
  363MOL0     H48963   7.607   6.365   6.586 -0.3927 -0.2407  0.6512
  363MOL0     H48964   7.743   6.472   6.585 -0.5447 -4.0937 -0.3778
  363MOL0     H48965   7.395   6.385   6.603 -1.4108  3.2800  2.2053
  363MOL0     H48966   7.170   6.354   6.496  1.7959 -2.3491 -1.6178
  363MOL0     H48967   6.792   6.605   6.359  0.4118 -0.6125  2.4497
  363MOL0     H48968   6.542   6.581   6.299 -0.9043  0.2019 -1.0794
  363MOL0     H48969   6.393   6.402   6.003  0.2222  0.0282 -0.1545
  363MOL0     H48970   6.516   6.283   6.029  0.0680 -0.1679 -1.4217
  363MOL0     H48971   6.370   6.103   6.068  2.1497  1.2197 -2.3208
  363MOL0     H48972   6.241   6.213   6.136 -1.3587  1.0445 -1.1117
  363MOL0     H48973   6.205   6.293   5.904  0.3075  1.4657  1.3932
  363MOL0     H48974   6.335   6.173   5.861  1.2957  0.1102  0.5894
  363MOL0     H48975   6.086   6.104   6.000  2.4978  1.2067  1.4558
  363MOL0     H48976   6.215   5.985   5.956  2.9407  1.6644 -0.1706
  363MOL0     H48977   6.060   6.161   5.761 -2.2040 -0.3360  1.6869
  363MOL0     H48978   6.012   5.995   5.803 -1.3390  1.5730 -0.9365
  363MOL0     H48979   6.289   6.056   5.663 -0.1991  0.1910 -0.9512
  363MOL0     H48980   6.212   5.905   5.738 -4.3693  0.6734  2.6296
  363MOL0     H48981   6.126   6.077   5.507 -2.4520 -0.0821 -0.4995
  363MOL0     H48982   6.024   5.954   5.576  0.0377 -1.4663 -1.1417
  363MOL0     H48983   6.280   5.892   5.452 -0.0825  1.0099  1.9278
  363MOL0     H48984   6.163   5.767   5.525 -0.4378  1.3813  0.7799
  363MOL0     H48985   6.596   6.169   6.226 -0.1690  0.4680  0.7062
  363MOL0     H48986   6.831   6.184   6.281 -0.3979 -0.1590  1.3393
  363MOL0     H48987   7.250   6.668   6.233  2.7111 -0.4988 -0.6320
  363MOL0     H48988   7.462   6.709   6.319  0.6127  0.3155  0.9402
  363MOL0     H48989   8.646   5.670   6.054  2.2169 -1.9860 -4.2692
  363MOL0     H48990   8.769   5.746   5.870  2.4845  1.8743 -2.4141
  363MOL0     H48991   8.770   6.178   5.609 -2.7601  1.0097 -1.7674
  363MOL0     H48992   8.845   6.321   5.434 -0.1123 -0.1656 -0.1991
  363MOL0     H48993   8.782   6.165   5.040 -0.0212 -0.7623  0.4798
  363MOL0     H48994   8.965   6.141   5.056 -0.4104 -1.0369  0.7690
  363MOL0     H48995   8.827   6.401   4.965  0.4200  0.8887 -0.5202
  363MOL0     H48996   8.922   6.296   4.872 -3.0120 -3.0165 -0.3314
  363MOL0     H48997   9.114   6.348   5.066 -0.5668 -2.1245 -0.0329
  363MOL0     H48998   9.005   6.480   5.097  0.3923  2.7275 -2.6990
  363MOL0     H48999   9.207   6.516   4.924  1.9959 -5.6101 -2.2327
  363MOL0     H49000   9.113   6.427   4.820 -2.4906  1.9896 -3.4526
  363MOL0     H49001   8.910   6.806   4.810 -4.1043 -2.5618  2.0824
  363MOL0     H49002   8.793   5.984   5.164 -1.6398  1.4003 -0.1683
  363MOL0     H49003   8.658   5.757   5.327  1.5071 -2.7714 -3.3679
  363MOL0     H49004   8.827   5.755   5.270  0.0178 -0.4439  1.2052
  363MOL0     H49005   8.787   5.720   5.436  3.9564 -1.8817 -2.0459
  364MOL0     O49006  10.704   4.934   0.213 -0.5046 -1.3729  0.1606
  364MOL0     C49007  10.727   4.911   0.328  0.6490 -0.0475 -0.2247
  364MOL0     O49008  10.848   4.888   0.384  0.4177  0.4317 -0.1495
  364MOL0     C49009  10.970   4.927   0.342 -1.1382  0.3903  0.5475
  364MOL0     C49010  11.055   4.954   0.446 -0.7324 -0.5654  0.0817
  364MOL0     C49011  11.181   5.014   0.426 -0.4368  0.7572 -0.9380
  364MOL0     C49012  11.223   5.047   0.295  0.0357 -0.7560  0.5831
  364MOL0     O49013  11.338   5.108   0.264  0.4938 -0.4896  0.3468
  364MOL0     C49014  11.417   5.161   0.372 -0.4728  0.8467 -0.0145
  364MOL0     C49015  11.543   5.079   0.386  0.6006  0.2366  0.2270
  364MOL0     C49016  11.656   5.162   0.440 -0.2539 -0.6813 -0.5121
  364MOL0     C49017  11.777   5.074   0.476 -0.2056  0.3058 -0.1077
  364MOL0     C49018  11.902   5.149   0.530 -0.2621  0.0889  0.1454
  364MOL0     C49019  11.974   5.232   0.418 -0.7310  0.0157  0.3418
  364MOL0     C49020  12.117   5.277   0.463 -0.6531  0.9732 -0.3295
  364MOL0     C49021  12.198   5.340   0.356  0.3326  1.1975  0.3036
  364MOL0     N49022  12.323   5.412   0.399  0.2469  0.8671 -0.0825
  364MOL0     C49023  12.423   5.361   0.485 -0.2863  0.4062  0.4948
  364MOL0     C49024  12.528   5.439   0.456  0.0778  0.1829 -0.6778
  364MOL0     C49025  12.656   5.439   0.539  0.0663 -0.3866 -0.5465
  364MOL0     C49026  12.787   5.407   0.453 -0.4594 -0.3443 -0.4218
  364MOL0     C49027  12.920   5.419   0.529  0.0455 -0.1028  0.4852
  364MOL0     C49028  13.042   5.387   0.437 -0.8495 -0.1875 -0.3876
  364MOL0     O49029  13.066   5.246   0.409  0.1251 -0.6037  1.1533
  364MOL0     C49030  13.169   5.226   0.310 -1.0404  0.1900 -0.4173
  364MOL0     C49031  13.203   5.091   0.274  0.1213 -0.4260  0.8804
  364MOL0     C49032  13.306   5.067   0.183 -1.3505 -0.3109  0.2437
  364MOL0     C49033  13.386   5.177   0.134 -0.0072  0.1361 -0.9030
  364MOL0     C49034  13.505   5.152   0.055 -0.2570 -0.1178  0.5603
  364MOL0     O49035  13.531   5.020   0.026 -0.3612  0.4227 -0.1125
  364MOL0     C49036  13.615   4.993  -0.089  0.1249  0.8790 -0.0964
  364MOL0     C49037  13.721   4.896  -0.085 -0.8860  0.4043  0.1637
  364MOL0     C49038  13.806   4.878  -0.190  0.5671  0.3444 -0.9194
  364MOL0     C49039  13.792   4.946  -0.304  0.2312  0.3129  0.7599
  364MOL0     O49040  13.866   4.900  -0.410 -0.9852  0.1442  0.2000
  364MOL0     C49041  13.787   4.849  -0.518  0.8907 -0.2053 -1.0111
  364MOL0     C49042  13.826   4.707  -0.566  0.4495 -0.5391 -0.2000
  364MOL0     C49043  13.715   4.606  -0.584  0.3288 -0.2978  0.7308
  364MOL0     C49044  13.768   4.468  -0.617 -0.3471  0.5429 -0.0057
  364MOL0     C49045  13.836   4.457  -0.757 -0.3183 -0.0958  0.1629
  364MOL0     C49046  13.885   4.318  -0.781  0.1863 -0.1584  0.0906
  364MOL0     C49047  13.929   4.307  -0.924 -0.5101  0.7044 -0.4956
  364MOL0     C49048  14.034   4.198  -0.944 -0.1337  0.2792 -1.0443
  364MOL0    Cl49049  14.190   4.237  -0.859 -0.0323  0.6787  0.5688
  364MOL0     C49050  13.686   5.038  -0.324  1.1375  0.3125 -0.3238
  364MOL0     C49051  13.609   5.069  -0.205 -0.6401 -0.7536 -0.9754
  364MOL0     O49052  13.567   5.253   0.022 -0.0463 -0.5228 -0.1133
  364MOL0     C49053  13.342   5.308   0.167 -0.1653  0.1007  1.2407
  364MOL0     C49054  13.234   5.335   0.248 -0.7153 -0.3828  0.1997
  364MOL0     N49055  12.496   5.534   0.360  0.5608 -0.5296  0.4249
  364MOL0     N49056  12.378   5.513   0.315  0.2032  0.4620 -0.7144
  364MOL0     C49057  11.133   5.021   0.185  0.3534  0.3385 -0.3530
  364MOL0     C49058  11.010   4.954   0.209 -0.1330 -0.4251  0.1898
  364MOL0     C49059  10.596   4.911   0.414 -0.7634  0.5887 -0.1696
  364MOL0     C49060  10.490   4.985   0.357 -1.0058  0.6665  0.4696
  364MOL0     C49061  10.373   5.006   0.429  0.4089  0.2675 -0.8847
  364MOL0     C49062  10.353   4.932   0.546  0.3779 -0.5370  0.0499
  364MOL0     O49063  10.241   4.938   0.625 -0.7916 -0.0115  0.4172
  364MOL0     C49064  10.123   4.971   0.552  0.0795 -0.0129 -0.2295
  364MOL0     C49065  10.006   4.947   0.660  1.1031  0.2039 -1.3335
  364MOL0     C49066   9.913   5.070   0.688 -0.0830 -0.2084  0.5639
  364MOL0     C49067   9.765   5.025   0.717 -1.1674  0.0181  0.4841
  364MOL0     C49068   9.679   5.146   0.740  0.8404  0.3074  0.4746
  364MOL0     C49069   9.601   5.233   0.763 -1.5447  0.5914 -0.2112
  364MOL0     C49070  10.455   4.851   0.592  0.1112 -0.9452  0.5227
  364MOL0     C49071  10.575   4.846   0.541 -1.1396 -0.2966  0.9393
  364MOL0     C49072  10.678   4.765   0.608  0.3780  0.2390 -1.1291
  364MOL0     H49073  11.012   4.938   0.545  1.7659  0.5182  1.4558
  364MOL0     H49074  11.233   5.044   0.516  0.8012  2.4086 -2.1601
  364MOL0     H49075  11.451   5.263   0.351  5.3336 -0.8157 -0.2595
  364MOL0     H49076  11.355   5.183   0.460 -1.1275 -0.4246 -0.1457
  364MOL0     H49077  11.578   5.044   0.289  0.2746  2.3324 -0.7061
  364MOL0     H49078  11.518   4.987   0.439  1.2409 -1.2250 -1.8964
  364MOL0     H49079  11.616   5.206   0.532  1.7036  1.5640 -0.6630
  364MOL0     H49080  11.679   5.240   0.368 -4.3141  1.0654 -0.1584
  364MOL0     H49081  11.738   5.013   0.558 -0.0015 -0.5001 -0.6011
  364MOL0     H49082  11.798   5.000   0.399 -0.2235  0.0174  0.1635
  364MOL0     H49083  11.865   5.209   0.614 -0.4110 -1.4629  1.2177
  364MOL0     H49084  11.974   5.072   0.557 -0.5390 -0.4241 -0.5668
  364MOL0     H49085  11.979   5.169   0.329 -4.5039  2.5030 -1.9006
  364MOL0     H49086  11.918   5.323   0.396 -0.0273  0.5724  0.8229
  364MOL0     H49087  12.172   5.191   0.502  3.6523  1.9765 -3.4551
  364MOL0     H49088  12.107   5.351   0.544 -0.3724  2.3843 -1.5322
  364MOL0     H49089  12.227   5.266   0.280 -0.8606 -1.1394  1.9947
  364MOL0     H49090  12.143   5.405   0.287  0.6694 -0.9783 -2.1958
  364MOL0     H49091  12.413   5.292   0.569 -2.7396 -1.0281 -0.8735
  364MOL0     H49092  12.668   5.530   0.598 -0.4096 -1.3105  1.0246
  364MOL0     H49093  12.646   5.363   0.617  1.9106 -0.8222 -0.7017
  364MOL0     H49094  12.784   5.304   0.414 -2.1918 -1.1870  1.7154
  364MOL0     H49095  12.799   5.476   0.369  0.6151  3.1216  2.3643
  364MOL0     H49096  12.934   5.336   0.599  3.8173 -3.0785 -3.2448
  364MOL0     H49097  12.923   5.514   0.582 -2.2207  0.8832 -1.0398
  364MOL0     H49098  13.134   5.421   0.485 -0.2077 -3.2143  0.7596
  364MOL0     H49099  13.029   5.452   0.350  0.8237  1.7504  0.7117
  364MOL0     H49100  13.143   5.012   0.318  0.3261  0.0221  2.0047
  364MOL0     H49101  13.344   4.965   0.175  1.0545  0.5931 -0.7613
  364MOL0     H49102  13.749   4.836   0.002  2.1905 -2.2799 -2.4151
  364MOL0     H49103  13.893   4.813  -0.189  0.9506  0.8499 -1.0851
  364MOL0     H49104  13.690   4.832  -0.470  1.5430  0.1262  0.4938
  364MOL0     H49105  13.789   4.935  -0.586  1.1594 -0.4404 -1.3015
  364MOL0     H49106  13.888   4.714  -0.656  0.3801 -1.7080 -0.3474
  364MOL0     H49107  13.887   4.652  -0.495  0.3856 -1.9902 -1.2268
  364MOL0     H49108  13.667   4.588  -0.487  2.2048 -2.8376  1.2651
  364MOL0     H49109  13.646   4.633  -0.664  0.1192 -2.5293  0.0860
  364MOL0     H49110  13.684   4.398  -0.616  0.8894 -1.0423  2.2249
  364MOL0     H49111  13.846   4.436  -0.547 -0.3511 -2.6360 -1.2930
  364MOL0     H49112  13.918   4.528  -0.745 -0.0551 -0.1335 -1.2505
  364MOL0     H49113  13.773   4.493  -0.839  1.1774  0.2887 -0.8573
  364MOL0     H49114  13.970   4.292  -0.717 -1.0564  0.2911  2.0059
  364MOL0     H49115  13.804   4.249  -0.757 -0.3701  0.2833 -0.4744
  364MOL0     H49116  13.966   4.400  -0.969  3.3215 -0.5361 -0.2766
  364MOL0     H49117  13.843   4.280  -0.985  2.1242 -2.7979 -3.1025
  364MOL0     H49118  14.001   4.099  -0.911  1.7471 -0.4170 -1.1279
  364MOL0     H49119  14.048   4.185  -1.052 -1.5232  0.0048 -1.2084
  364MOL0     H49120  13.660   5.086  -0.418  1.3730  1.0963  0.0038
  364MOL0     H49121  13.537   5.149  -0.215 -0.6701 -0.5168  0.8386
  364MOL0     H49122  13.404   5.392   0.137 -2.0196  0.6015 -1.5307
  364MOL0     H49123  13.212   5.442   0.250 -2.6745 -0.5058 -4.0478
  364MOL0     H49124  11.163   5.057   0.088  2.3979 -2.4083 -0.9019
  364MOL0     H49125  10.934   4.938   0.133 -0.3714 -0.0901  0.3605
  364MOL0     H49126  10.500   5.033   0.260  0.5325  0.4372  0.5028
  364MOL0     H49127  10.300   5.085   0.412  0.2059  0.5770  1.1301
  364MOL0     H49128  10.109   4.908   0.463 -0.4729 -0.5357  0.2203
  364MOL0     H49129  10.109   5.074   0.517 -2.5080 -0.4660 -0.6845
  364MOL0     H49130  10.041   4.897   0.751  1.9148  1.1280 -1.1190
  364MOL0     H49131   9.936   4.875   0.616 -1.2182 -1.3847  4.1147
  364MOL0     H49132   9.915   5.150   0.613 -1.8637  0.8060  1.5461
  364MOL0     H49133   9.955   5.120   0.776  1.7627  0.5874 -0.6999
  364MOL0     H49134   9.727   4.967   0.633  1.5928 -2.2219  0.6448
  364MOL0     H49135   9.765   4.955   0.801 -2.0395 -1.9988 -1.1246
  364MOL0     H49136   9.529   5.310   0.782 -1.0601  1.0344 -0.1536
  364MOL0     H49137  10.446   4.795   0.685 -0.2784  0.5886  1.4398
  364MOL0     H49138  10.764   4.823   0.642 -0.2822  1.4171 -1.4011
  364MOL0     H49139  10.625   4.722   0.693 -0.3489  0.2826 -1.5471
  364MOL0     H49140  10.717   4.683   0.548  2.5560  0.7727 -0.5181
  365MOL0     O49141  10.331   7.294  11.428  0.7059 -0.4633  0.2968
  365MOL0     C49142  10.431   7.244  11.481  0.6577 -0.9934  0.4786
  365MOL0     O49143  10.467   7.265  11.614 -0.0311 -1.0310 -0.6097
  365MOL0     C49144  10.402   7.349  11.705 -0.4165 -0.8320  0.2643
  365MOL0     C49145  10.370   7.479  11.666 -0.0487  0.2923  0.0936
  365MOL0     C49146  10.296   7.559  11.752 -0.4994 -0.1800 -0.0167
  365MOL0     C49147  10.270   7.517  11.884  0.0787  0.6261  0.2752
  365MOL0     O49148  10.189   7.591  11.963  0.6560 -0.3201  0.3024
  365MOL0     C49149  10.245   7.710  12.019 -0.4741  0.1024 -0.1193
  365MOL0     C49150  10.142   7.824  12.001  0.5366  0.4809 -0.2211
  365MOL0     C49151   9.995   7.807  12.047 -0.3510 -0.8916  0.2810
  365MOL0     C49152   9.902   7.902  11.971 -0.4077  0.3667 -0.6575
  365MOL0     C49153   9.766   7.916  12.036  0.4098 -0.1799  0.7278
  365MOL0     C49154   9.768   8.043  12.116  0.3672 -0.3795 -0.0204
  365MOL0     C49155   9.633   8.059  12.193 -0.2632 -0.2815  0.5365
  365MOL0     C49156   9.545   8.162  12.117  0.1583  0.9055  0.2410
  365MOL0     N49157   9.550   8.295  12.176 -0.3477  0.2864 -0.0686
  365MOL0     C49158   9.504   8.307  12.306  0.4463  0.3363  0.8893
  365MOL0     C49159   9.533   8.441  12.337  0.1064  0.4453 -0.5004
  365MOL0     C49160   9.517   8.523  12.460 -0.2671 -0.2950 -0.0700
  365MOL0     C49161   9.389   8.611  12.464  0.1052 -0.4030  0.4143
  365MOL0     C49162   9.356   8.669  12.596  0.1327  0.5436 -0.6739
  365MOL0     C49163   9.332   8.583  12.718 -0.4574  0.2672  0.1603
  365MOL0     O49164   9.269   8.655  12.822 -0.3873  0.6346 -0.1748
  365MOL0     C49165   9.348   8.706  12.918  0.0254  0.0186  0.3149
  365MOL0     C49166   9.363   8.655  13.048  0.6900  0.4936 -0.4687
  365MOL0     C49167   9.409   8.735  13.160  0.9969 -0.3126 -0.0797
  365MOL0     C49168   9.463   8.858  13.141  0.2773 -0.1212 -0.1054
  365MOL0     C49169   9.519   8.928  13.255 -0.6224 -0.2664 -0.0521
  365MOL0     O49170   9.545   8.864  13.378 -0.7399 -1.0420 -0.1555
  365MOL0     C49171   9.594   8.940  13.479  0.1557 -0.0500  0.6171
  365MOL0     C49172   9.728   8.938  13.511 -0.9195 -0.1966 -0.1226
  365MOL0     C49173   9.787   9.004  13.624  0.6066 -1.0140  0.4253
  365MOL0     C49174   9.704   9.087  13.694 -0.3515  0.1075  0.1235
  365MOL0     O49175   9.760   9.168  13.788  0.9745  0.6679  0.7097
  365MOL0     C49176   9.874   9.245  13.753 -0.9839 -0.3318  0.7035
  365MOL0     C49177  10.000   9.197  13.827  0.0118 -0.7034 -0.3542
  365MOL0     C49178  10.114   9.307  13.822  0.7750 -0.6059 -0.2802
  365MOL0     C49179  10.077   9.421  13.923 -0.1633 -0.3112 -0.8808
  365MOL0     C49180  10.174   9.536  13.915  0.1280 -0.5934  0.4482
  365MOL0     C49181  10.106   9.654  14.004 -0.9358 -0.0984 -0.8095
  365MOL0     C49182  10.030   9.753  13.917  0.3514  0.3154 -0.7806
  365MOL0     C49183  10.076   9.893  13.950 -0.3081 -0.8220  0.0683
  365MOL0    Cl49184  10.016  10.010  13.830 -0.0420  0.1118  0.2127
  365MOL0     C49185   9.568   9.085  13.674 -1.1530 -0.1333  0.4318
  365MOL0     C49186   9.521   9.028  13.557 -0.3141  0.2490 -0.6041
  365MOL0     O49187   9.535   9.045  13.241  0.3471 -0.7086 -1.6181
  365MOL0     C49188   9.460   8.908  13.009  0.0519 -1.1884 -0.9543
  365MOL0     C49189   9.411   8.834  12.896 -0.2888 -0.1955 -0.2292
  365MOL0     N49190   9.597   8.484  12.222  1.1913  0.6329 -0.1912
  365MOL0     N49191   9.608   8.396  12.139  0.4591 -0.6431  1.1707
  365MOL0     C49192  10.311   7.394  11.922  0.0152  0.8160  0.0683
  365MOL0     C49193  10.377   7.311  11.834 -1.3408  0.0699  0.0818
  365MOL0     C49194  10.538   7.178  11.387  0.4371  0.4948 -0.7198
  365MOL0     C49195  10.554   7.215  11.244 -0.8581 -0.0119 -0.5007
  365MOL0     C49196  10.659   7.167  11.170 -0.4967 -1.1588 -0.1852
  365MOL0     C49197  10.746   7.087  11.224 -0.1990 -0.3048  0.1533
  365MOL0     O49198  10.863   7.034  11.157  0.1918  1.2013 -0.6253
  365MOL0     C49199  10.901   7.075  11.030  0.4883  0.1882  0.3827
  365MOL0     C49200  11.050   7.100  11.023 -0.0898  0.1131 -0.2501
  365MOL0     C49201  11.109   7.144  10.884 -0.0313  1.5638  0.7374
  365MOL0     C49202  11.184   7.032  10.797 -0.8922  0.5527 -0.1538
  365MOL0     C49203  11.090   6.955  10.722  0.8260 -0.1921 -0.6013
  365MOL0     C49204  11.003   6.884  10.673  0.4920  0.3582  0.0077
  365MOL0     C49205  10.739   7.056  11.358  0.8307 -0.0733  0.2696
  365MOL0     C49206  10.635   7.085  11.436 -0.3541 -0.1262 -0.0764
  365MOL0     C49207  10.645   7.044  11.579 -0.0826  0.3540 -0.5364
  365MOL0     H49208  10.377   7.510  11.563 -0.9884 -0.3840 -0.1884
  365MOL0     H49209  10.266   7.660  11.728  1.1089  1.4029  3.8427
  365MOL0     H49210  10.265   7.696  12.126  3.0012  1.6029 -0.4262
  365MOL0     H49211  10.341   7.744  11.978  0.2886 -0.2536  1.3015
  365MOL0     H49212  10.144   7.832  11.892  1.4151 -1.3259 -0.3796
  365MOL0     H49213  10.182   7.913  12.052 -0.2985 -0.3483  2.0141
  365MOL0     H49214   9.977   7.813  12.155 -0.0381  0.9272  0.2741
  365MOL0     H49215   9.967   7.703  12.029  2.3004 -1.6379  0.1177
  365MOL0     H49216   9.945   8.000  11.950 -2.4191  1.0170 -1.9535
  365MOL0     H49217   9.893   7.850  11.875  3.9126  2.6241 -2.5715
  365MOL0     H49218   9.689   7.944  11.964  0.8622  3.2664  1.4095
  365MOL0     H49219   9.746   7.826  12.095 -0.3364 -1.1008 -0.8512
  365MOL0     H49220   9.846   8.030  12.192 -0.1570 -3.9650  0.0822
  365MOL0     H49221   9.780   8.121  12.041 -2.4525  1.3691  1.1781
  365MOL0     H49222   9.658   8.106  12.289 -1.2500  2.2809 -0.3749
  365MOL0     H49223   9.575   7.970  12.216  0.2967 -0.1264  2.7535
  365MOL0     H49224   9.577   8.165  12.012 -3.1755 -2.1162 -1.1038
  365MOL0     H49225   9.441   8.128  12.118  0.4807 -0.1034  0.6065
  365MOL0     H49226   9.450   8.241  12.373 -4.0248  1.7409 -0.9784
  365MOL0     H49227   9.508   8.443  12.534  1.2765  1.2390  1.9144
  365MOL0     H49228   9.612   8.575  12.474  0.2881 -1.5141  0.9678
  365MOL0     H49229   9.405   8.693  12.393  2.6281 -0.5095  0.7680
  365MOL0     H49230   9.306   8.549  12.429  0.3369 -0.8013  0.5627
  365MOL0     H49231   9.278   8.745  12.585 -0.6385 -0.0092  0.6866
  365MOL0     H49232   9.441   8.737  12.603  2.0548 -1.5966 -1.7946
  365MOL0     H49233   9.424   8.543  12.761 -1.2987  0.1009  1.8932
  365MOL0     H49234   9.278   8.493  12.687  2.6526 -1.3410 -1.0409
  365MOL0     H49235   9.317   8.559  13.069  1.0191  0.5350  0.4715
  365MOL0     H49236   9.413   8.698  13.262 -2.5010 -0.9963 -0.0551
  365MOL0     H49237   9.799   8.890  13.445 -0.0749 -0.1620  0.7413
  365MOL0     H49238   9.892   9.006  13.648  0.6275  4.4606  1.0136
  365MOL0     H49239   9.898   9.243  13.646 -1.1732 -1.7341  0.6593
  365MOL0     H49240   9.849   9.346  13.785 -1.2786 -0.6332  1.4536
  365MOL0     H49241   9.978   9.177  13.932 -2.4671  0.9882 -0.4524
  365MOL0     H49242  10.045   9.109  13.781 -0.5713 -0.0521 -2.2728
  365MOL0     H49243  10.207   9.256  13.848  0.3168 -0.4236  1.8579
  365MOL0     H49244  10.122   9.343  13.719  2.9856  2.9310  0.9447
  365MOL0     H49245  10.093   9.384  14.025  2.7731 -0.2843 -1.2353
  365MOL0     H49246   9.976   9.462  13.910 -1.2018 -2.3763  0.1689
  365MOL0     H49247  10.197   9.566  13.812  1.4623 -0.5615  0.7334
  365MOL0     H49248  10.267   9.504  13.963  0.3171 -1.6155 -0.5790
  365MOL0     H49249  10.036   9.612  14.078 -0.3479 -3.5824 -2.0428
  365MOL0     H49250  10.178   9.714  14.060 -1.2484  0.6369 -1.1799
  365MOL0     H49251   9.923   9.734  13.931  0.3774  1.0179  0.5370
  365MOL0     H49252  10.055   9.726  13.813 -0.1623 -1.8778 -0.3843
  365MOL0     H49253  10.041   9.927  14.048  1.3208 -2.4288  1.2860
  365MOL0     H49254  10.185   9.901  13.952 -0.3542  0.1609 -0.6217
  365MOL0     H49255   9.513   9.140  13.750  1.4496  1.7701  1.0535
  365MOL0     H49256   9.415   9.044  13.539 -0.4899 -0.4979 -0.2739
  365MOL0     H49257   9.502   9.005  12.986 -1.6778  0.3686  1.9169
  365MOL0     H49258   9.393   8.873  12.796 -0.4100 -1.0662 -0.5560
  365MOL0     H49259  10.287   7.355  12.020 -3.0907 -0.3704 -1.0433
  365MOL0     H49260  10.390   7.206  11.855  1.1842  0.5077  1.0044
  365MOL0     H49261  10.489   7.297  11.213 -2.5706 -1.6970 -1.6314
  365MOL0     H49262  10.665   7.196  11.065 -1.8097  1.4422  0.3595
  365MOL0     H49263  10.855   7.165  10.988  1.0183  1.3893  2.2918
  365MOL0     H49264  10.877   6.994  10.960  5.1815 -1.3613  0.2663
  365MOL0     H49265  11.103   7.008  11.051 -0.7928 -1.0483 -2.5380
  365MOL0     H49266  11.079   7.181  11.090 -3.4333  0.3887  1.0712
  365MOL0     H49267  11.194   7.210  10.905  1.4589  0.4920 -1.4830
  365MOL0     H49268  11.034   7.189  10.818  0.4237  0.6067 -0.4631
  365MOL0     H49269  11.245   7.099  10.736 -2.2615  0.6247 -1.5121
  365MOL0     H49270  11.240   6.959  10.855  0.7004 -0.4630 -2.7920
  365MOL0     H49271  10.927   6.828  10.623  1.3891  1.9628 -3.5045
  365MOL0     H49272  10.823   7.005  11.405 -1.9555 -2.9584  2.5793
  365MOL0     H49273  10.706   6.956  11.601 -0.0571  0.7379  1.0813
  365MOL0     H49274  10.683   7.117  11.651  2.3866 -2.9944  1.9463
  365MOL0     H49275  10.543   7.017  11.608  0.3081  0.3470  0.9254
  366MOL0     O49276   6.822   0.670   1.921 -0.4434 -0.4921 -0.2475
  366MOL0     C49277   6.789   0.580   1.845  1.0635  0.6078  0.3120
  366MOL0     O49278   6.868   0.515   1.761 -0.1666 -0.7822 -0.3987
  366MOL0     C49279   7.004   0.552   1.742 -0.2306  0.2282 -0.1982
  366MOL0     C49280   7.103   0.471   1.799 -0.4074 -0.0182 -0.9549
  366MOL0     C49281   7.238   0.503   1.799 -0.3541 -1.3959 -0.2717
  366MOL0     C49282   7.272   0.627   1.743 -1.1879 -0.4962  0.1690
  366MOL0     O49283   7.407   0.656   1.736 -0.1954  0.1783  0.2901
  366MOL0     C49284   7.460   0.751   1.643  0.6510  0.5687  0.1782
  366MOL0     C49285   7.601   0.795   1.683 -0.8832 -0.5272 -0.0241
  366MOL0     C49286   7.701   0.807   1.575 -0.8800 -0.2418  0.4061
  366MOL0     C49287   7.827   0.873   1.634 -0.8025 -0.3532  0.1959
  366MOL0     C49288   7.944   0.875   1.532 -0.2808 -0.1969  1.7304
  366MOL0     C49289   8.073   0.935   1.578  0.2537 -0.1002  0.0379
  366MOL0     C49290   8.048   1.071   1.657  0.0063 -0.8749  1.4888
  366MOL0     C49291   8.174   1.153   1.676  0.7078 -0.4461 -0.0302
  366MOL0     N49292   8.210   1.228   1.554  0.5201 -0.3398 -0.9796
  366MOL0     C49293   8.267   1.353   1.566  0.7237  0.3087 -0.1435
  366MOL0     C49294   8.339   1.369   1.449  0.1381  0.8057  0.0895
  366MOL0     C49295   8.369   1.504   1.399  0.6455 -0.7382 -0.1250
  366MOL0     C49296   8.518   1.551   1.376  1.1631  0.0134  0.5497
  366MOL0     C49297   8.512   1.694   1.308  0.0198 -0.1889  1.1171
  366MOL0     C49298   8.649   1.764   1.287  0.3569  0.2637  0.8271
  366MOL0     O49299   8.744   1.674   1.231  0.8959 -0.0520  0.4213
  366MOL0     C49300   8.833   1.725   1.142  0.0707  0.4516 -0.2432
  366MOL0     C49301   8.882   1.849   1.138 -0.4903  0.2176  0.6294
  366MOL0     C49302   8.987   1.888   1.053  1.1276  1.0677  0.3475
  366MOL0     C49303   9.054   1.788   0.973 -0.6323  0.6623 -0.6676
  366MOL0     C49304   9.173   1.816   0.884 -0.6325  0.4248 -0.4014
  366MOL0     O49305   9.223   1.707   0.816  0.0653 -0.6552  0.0934
  366MOL0     C49306   9.353   1.713   0.764  0.1615  0.3046 -0.3494
  366MOL0     C49307   9.399   1.796   0.658 -0.0625  0.6543  0.2653
  366MOL0     C49308   9.533   1.783   0.601 -0.9196  0.1834  0.2769
  366MOL0     C49309   9.614   1.678   0.640  0.6863 -0.1809 -0.6198
  366MOL0     O49310   9.738   1.672   0.583  0.2667 -0.2741  0.3215
  366MOL0     C49311   9.800   1.546   0.566 -0.5597 -0.3314  0.1093
  366MOL0     C49312   9.825   1.546   0.413  0.5644  0.1071  0.2128
  366MOL0     C49313   9.926   1.430   0.395  0.1758 -0.2481  0.1357
  366MOL0     C49314   9.933   1.391   0.250  0.4617  0.9487  0.5766
  366MOL0     C49315  10.017   1.282   0.216 -0.4044  0.4470 -1.2648
  366MOL0     C49316   9.976   1.144   0.274  1.0692 -0.0978  0.7629
  366MOL0     C49317  10.073   1.029   0.281 -0.3919 -0.1910  1.0402
  366MOL0     C49318  10.096   0.981   0.129 -0.2101 -1.3936 -0.2295
  366MOL0    Cl49319  10.256   0.885   0.132  0.5330 -0.0032  0.4563
  366MOL0     C49320   9.573   1.589   0.746 -0.6210 -0.7317 -0.1565
  366MOL0     C49321   9.442   1.612   0.804  0.8145  0.5944 -0.0600
  366MOL0     O49322   9.224   1.924   0.884 -0.3831 -0.4112  0.0704
  366MOL0     C49323   8.985   1.660   0.972 -0.1883  0.1133  0.2886
  366MOL0     C49324   8.882   1.622   1.058 -0.0762  0.7905  0.6976
  366MOL0     N49325   8.333   1.247   1.373 -0.5673  0.5796 -0.0291
  366MOL0     N49326   8.254   1.175   1.438 -0.8061  0.7831  0.2453
  366MOL0     C49327   7.169   0.701   1.681 -0.1700  0.2827  0.1358
  366MOL0     C49328   7.036   0.665   1.675 -0.0511  0.5228 -0.6181
  366MOL0     C49329   6.644   0.530   1.845 -0.2678 -0.3866 -0.0854
  366MOL0     C49330   6.619   0.398   1.791 -0.5291 -0.7661 -0.2049
  366MOL0     C49331   6.491   0.344   1.791  0.2996 -0.1953  0.4064
  366MOL0     C49332   6.384   0.410   1.849  0.9455  0.7659  0.2690
  366MOL0     O49333   6.269   0.333   1.850  0.6263  0.1127 -0.8461
  366MOL0     C49334   6.151   0.403   1.894  1.1204  0.3792  0.4513
  366MOL0     C49335   6.019   0.310   1.886  0.4232 -0.0807 -0.1941
  366MOL0     C49336   6.039   0.185   1.973  0.0658 -0.8379 -0.1335
  366MOL0     C49337   6.003   0.216   2.117  0.8289  0.4101  0.9377
  366MOL0     C49338   5.977   0.116   2.211 -0.1310 -0.1010 -0.3993
  366MOL0     C49339   5.954   0.036   2.293  0.0040  0.2121  1.2242
  366MOL0     C49340   6.403   0.537   1.896  1.1448 -0.4659  0.0758
  366MOL0     C49341   6.528   0.603   1.897  0.2151 -0.3944  0.9038
  366MOL0     C49342   6.543   0.750   1.953 -0.1233  0.0767  0.1871
  366MOL0     H49343   7.073   0.384   1.857  1.8195 -0.7520 -0.8346
  366MOL0     H49344   7.308   0.454   1.867 -0.2545 -0.9404 -0.0417
  366MOL0     H49345   7.455   0.717   1.539 -2.1316 -1.0265  0.7253
  366MOL0     H49346   7.408   0.847   1.644 -0.5263 -0.0170 -1.0592
  366MOL0     H49347   7.648   0.711   1.735 -2.6772 -1.4094  0.2651
  366MOL0     H49348   7.600   0.880   1.752 -2.9132 -2.2254  2.2569
  366MOL0     H49349   7.660   0.847   1.482  0.4447 -3.0629 -1.5294
  366MOL0     H49350   7.746   0.713   1.543  0.2869  0.5200 -0.2708
  366MOL0     H49351   7.800   0.975   1.665  2.4997  1.4215 -2.1609
  366MOL0     H49352   7.863   0.824   1.724 -2.3079  1.1386  1.6854
  366MOL0     H49353   7.967   0.772   1.504 -3.3205 -0.4724 -0.3018
  366MOL0     H49354   7.902   0.924   1.444  0.6919  0.0673  1.3993
  366MOL0     H49355   8.133   0.871   1.643  3.1612  0.8907 -1.4474
  366MOL0     H49356   8.127   0.948   1.484 -0.5482 -1.7478 -0.6800
  366MOL0     H49357   7.999   1.041   1.750 -2.4476  2.3514  1.4344
  366MOL0     H49358   7.973   1.129   1.603 -1.6334 -3.8731  0.3413
  366MOL0     H49359   8.151   1.234   1.746 -0.6014  0.9189 -1.9381
  366MOL0     H49360   8.260   1.104   1.723 -0.0429 -1.4665  0.3323
  366MOL0     H49361   8.245   1.426   1.642 -0.5012 -0.7859  0.5946
  366MOL0     H49362   8.316   1.510   1.304  4.4257  3.0605 -2.3506
  366MOL0     H49363   8.322   1.575   1.469 -0.3856 -1.3123 -0.2188
  366MOL0     H49364   8.564   1.557   1.475  1.5514 -1.6035  0.4936
  366MOL0     H49365   8.563   1.472   1.314 -1.2032  1.4973 -3.4338
  366MOL0     H49366   8.448   1.756   1.372  0.8709  1.0368  0.8191
  366MOL0     H49367   8.460   1.698   1.212 -1.7303 -2.1382  1.9165
  366MOL0     H49368   8.672   1.821   1.377 -3.4295  3.7775 -0.1078
  366MOL0     H49369   8.617   1.835   1.211 -4.4318 -2.3184  0.0477
  366MOL0     H49370   8.845   1.931   1.199  0.5212  0.5006  0.8669
  366MOL0     H49371   9.024   1.990   1.055 -0.6967  1.8570 -1.8046
  366MOL0     H49372   9.336   1.874   0.617  1.8355  0.2108 -3.9446
  366MOL0     H49373   9.578   1.843   0.523  3.6126 -0.9842  1.6666
  366MOL0     H49374   9.889   1.522   0.625  1.2882  0.0252 -2.3678
  366MOL0     H49375   9.736   1.458   0.572  0.6889 -1.4583 -2.1393
  366MOL0     H49376   9.729   1.531   0.362  0.1770  0.9665  0.6555
  366MOL0     H49377   9.872   1.641   0.386 -0.5700  0.7207  0.3311
  366MOL0     H49378  10.020   1.473   0.432  0.3040 -1.0379  0.7663
  366MOL0     H49379   9.883   1.350   0.457 -2.7091  0.5144 -0.7034
  366MOL0     H49380   9.974   1.475   0.193 -0.1319  0.3490 -0.7661
  366MOL0     H49381   9.830   1.371   0.217  0.4778 -2.3371  2.1457
  366MOL0     H49382  10.115   1.316   0.250  0.7796 -1.4083 -2.6131
  366MOL0     H49383  10.021   1.281   0.106  0.9596 -0.0964 -1.2302
  366MOL0     H49384   9.925   1.163   0.369 -3.1873 -0.0578 -1.3030
  366MOL0     H49385   9.895   1.110   0.208  0.1315  1.3182  1.1363
  366MOL0     H49386  10.047   0.941   0.341  2.9829 -2.1804 -0.1028
  366MOL0     H49387  10.167   1.076   0.312 -0.0355  1.9474 -2.7111
  366MOL0     H49388  10.006   0.934   0.088 -1.5575  1.0942 -0.3216
  366MOL0     H49389  10.113   1.066   0.062  0.3165 -1.6458 -0.4234
  366MOL0     H49390   9.639   1.519   0.796 -2.6123 -1.4835  1.5844
  366MOL0     H49391   9.398   1.544   0.876 -1.2846  1.1914 -0.7085
  366MOL0     H49392   9.027   1.598   0.893  2.9550  3.3206 -0.8641
  366MOL0     H49393   8.826   1.529   1.060 -3.0950  2.4747  1.0362
  366MOL0     H49394   7.189   0.789   1.620 -2.1646 -0.1288 -1.2238
  366MOL0     H49395   6.951   0.726   1.644  1.9435  3.6772 -0.3460
  366MOL0     H49396   6.693   0.341   1.735  1.0395 -0.7530  1.7633
  366MOL0     H49397   6.485   0.245   1.749  1.3441  0.8131 -2.3512
  366MOL0     H49398   6.132   0.491   1.832 -1.9634 -3.1377 -4.3571
  366MOL0     H49399   6.162   0.423   2.001 -3.3633  1.7175  0.8528
  366MOL0     H49400   5.997   0.270   1.787  0.7708 -0.2073 -0.2233
  366MOL0     H49401   5.927   0.363   1.915 -0.2528 -2.5455  2.8488
  366MOL0     H49402   6.144   0.156   1.966  0.0820 -0.8422  0.1195
  366MOL0     H49403   5.968   0.109   1.938 -3.8763  1.7190  1.5898
  366MOL0     H49404   6.076   0.287   2.158 -0.8306  1.2647  2.5541
  366MOL0     H49405   5.919   0.286   2.115 -0.2163 -0.8459 -0.0151
  366MOL0     H49406   5.934  -0.036   2.370 -3.4253 -0.4446 -0.1233
  366MOL0     H49407   6.325   0.584   1.955  1.4420 -0.7049  0.6617
  366MOL0     H49408   6.602   0.744   2.045 -1.7369 -2.1781  1.1763
  366MOL0     H49409   6.592   0.803   1.871  2.1451 -5.3696 -2.5339
  366MOL0     H49410   6.448   0.803   1.951  0.9088  2.2529 -4.1776
  367MOL0     O49411   5.499  10.263   8.049  0.3919 -0.1735  1.2391
  367MOL0     C49412   5.484  10.183   7.963 -0.6569  0.3959  0.1097
  367MOL0     O49413   5.488  10.208   7.831  0.0348 -0.0030 -0.6609
  367MOL0     C49414   5.510  10.333   7.770 -0.0092 -0.1374 -0.3899
  367MOL0     C49415   5.442  10.352   7.657  0.2794 -0.5402  0.6204
  367MOL0     C49416   5.471  10.471   7.576  0.1548  0.9315  0.4319
  367MOL0     C49417   5.579  10.560   7.606 -0.2722  0.8396  0.0278
  367MOL0     O49418   5.626  10.659   7.519  0.0429 -0.0418  0.0781
  367MOL0     C49419   5.534  10.718   7.425 -0.0756  0.0304  0.2308
  367MOL0     C49420   5.591  10.842   7.358 -0.4271  0.5728  0.1340
  367MOL0     C49421   5.505  10.899   7.240  0.5642  0.8765 -0.0884
  367MOL0     C49422   5.591  11.019   7.187 -0.0362  0.7751  0.0283
  367MOL0     C49423   5.531  11.074   7.056 -0.8980  0.7641 -0.1374
  367MOL0     C49424   5.409  11.163   7.072 -0.0869 -0.3582 -0.2516
  367MOL0     C49425   5.398  11.274   6.958  0.4802  0.8324 -0.1795
  367MOL0     C49426   5.377  11.218   6.820  0.1256 -0.0003 -0.9101
  367MOL0     N49427   5.368  11.331   6.716  0.1158 -0.0399 -0.8842
  367MOL0     C49428   5.355  11.309   6.579  0.5083 -0.2236  0.3817
  367MOL0     C49429   5.350  11.433   6.526 -0.1036  0.7958  0.0216
  367MOL0     C49430   5.316  11.473   6.388 -0.0937  0.5676  0.3626
  367MOL0     C49431   5.431  11.426   6.306  0.2135 -0.8149  0.4433
  367MOL0     C49432   5.404  11.419   6.154 -0.4366  0.3959  0.4188
  367MOL0     C49433   5.501  11.329   6.084 -0.4723 -0.2767 -0.4064
  367MOL0     O49434   5.488  11.191   6.124  0.1976  0.7142 -1.0274
  367MOL0     C49435   5.526  11.098   6.034 -0.0719 -0.5126  0.0671
  367MOL0     C49436   5.438  10.996   6.005 -0.3736  0.5005  1.0633
  367MOL0     C49437   5.474  10.881   5.919  0.0572 -0.1410 -0.4504
  367MOL0     C49438   5.604  10.877   5.863 -0.0092 -1.2242 -1.0172
  367MOL0     C49439   5.656  10.761   5.793  0.4018  0.5987  0.3981
  367MOL0     O49440   5.786  10.749   5.777  1.0095 -0.1893  0.0895
  367MOL0     C49441   5.832  10.640   5.712  0.0460  0.6504 -1.0167
  367MOL0     C49442   5.898  10.544   5.794 -0.3319 -0.2652  0.7977
  367MOL0     C49443   5.951  10.429   5.737 -0.4002  0.6930 -0.2982
  367MOL0     C49444   5.925  10.399   5.603 -0.4606 -0.2586 -1.0830
  367MOL0     O49445   5.967  10.274   5.565 -0.3689 -0.8469 -0.3857
  367MOL0     C49446   5.909  10.229   5.439  0.8174 -0.5617  0.3247
  367MOL0     C49447   5.768  10.188   5.448 -0.4265 -0.5729 -0.7696
  367MOL0     C49448   5.719  10.108   5.328  0.1860  0.2253  0.2559
  367MOL0     C49449   5.567  10.067   5.335 -0.8965  0.2087 -0.5085
  367MOL0     C49450   5.513  10.001   5.215 -0.9198  0.3272 -0.2352
  367MOL0     C49451   5.383   9.927   5.252 -0.4378  0.1918  0.2129
  367MOL0     C49452   5.313   9.863   5.130 -0.6347  1.0769 -0.3226
  367MOL0     C49453   5.192   9.777   5.164 -0.0604  0.7788 -0.5224
  367MOL0    Cl49454   5.083   9.881   5.258 -0.5446  0.4109 -0.4716
  367MOL0     C49455   5.869  10.500   5.515 -0.0131  0.2212  0.4499
  367MOL0     C49456   5.817  10.613   5.576 -0.6276 -0.3054 -0.1188
  367MOL0     O49457   5.575  10.672   5.774 -0.4219  0.4365  0.5958
  367MOL0     C49458   5.693  10.986   5.892 -0.1569  0.2464 -0.4125
  367MOL0     C49459   5.649  11.091   5.975  0.8758 -0.5191  0.1553
  367MOL0     N49460   5.353  11.526   6.630  0.7521  0.3263  0.0189
  367MOL0     N49461   5.360  11.461   6.744  0.0304 -0.0389  0.4852
  367MOL0     C49462   5.648  10.530   7.723 -0.1297 -1.6144 -0.5639
  367MOL0     C49463   5.613  10.418   7.806  0.0842 -1.2346 -0.2174
  367MOL0     C49464   5.461  10.049   8.000 -0.2230  0.1176  0.1150
  367MOL0     C49465   5.561   9.955   7.968 -0.0223 -0.2906 -0.2246
  367MOL0     C49466   5.553   9.830   8.027 -0.1221 -0.5003 -0.2279
  367MOL0     C49467   5.432   9.780   8.088 -1.1927 -0.6192 -0.6418
  367MOL0     O49468   5.426   9.651   8.138 -0.1999  0.0964  0.2099
  367MOL0     C49469   5.363   9.543   8.055 -1.0633  0.1548 -1.4798
  367MOL0     C49470   5.420   9.540   7.909 -0.6385  0.1721 -0.4397
  367MOL0     C49471   5.532   9.440   7.889  0.3390  0.0218 -0.3036
  367MOL0     C49472   5.617   9.458   7.759  0.1915  0.0456 -0.4026
  367MOL0     C49473   5.570   9.398   7.631 -0.1568  0.9967  0.4344
  367MOL0     C49474   5.557   9.339   7.530  0.0175  1.0194 -0.1456
  367MOL0     C49475   5.326   9.873   8.101 -0.0507  0.6726 -0.4945
  367MOL0     C49476   5.340  10.005   8.062 -0.4718  0.3783 -0.2184
  367MOL0     C49477   5.229  10.097   8.093  0.8209 -0.1164 -0.4689
  367MOL0     H49478   5.366  10.278   7.633 -3.9305  3.0475  1.7681
  367MOL0     H49479   5.409  10.501   7.493  1.0419  0.6939 -0.3378
  367MOL0     H49480   5.501  10.660   7.339 -1.0770  1.8332 -0.6581
  367MOL0     H49481   5.446  10.759   7.477 -0.2781 -0.3535  0.1980
  367MOL0     H49482   5.689  10.813   7.319  0.4237 -0.7452  2.9997
  367MOL0     H49483   5.604  10.921   7.432 -0.0014  1.4835 -0.8798
  367MOL0     H49484   5.405  10.930   7.272  1.6979  1.5706  3.1601
  367MOL0     H49485   5.492  10.817   7.169 -3.2409  0.6787  0.6340
  367MOL0     H49486   5.593  11.095   7.266  2.0011  1.6096 -0.7556
  367MOL0     H49487   5.697  10.997   7.168 -0.6106 -2.5812  0.0628
  367MOL0     H49488   5.603  11.148   7.020 -0.6617  0.2021 -0.8529
  367MOL0     H49489   5.534  10.997   6.979  0.5092  0.5534  0.0940
  367MOL0     H49490   5.318  11.103   7.067 -1.3924  1.4939  0.0515
  367MOL0     H49491   5.415  11.213   7.169 -0.3615 -0.4723 -0.1768
  367MOL0     H49492   5.489  11.336   6.954  0.5152  0.8724  0.8542
  367MOL0     H49493   5.317  11.344   6.980  0.3342  1.1575 -1.6796
  367MOL0     H49494   5.446  11.138   6.793  0.3624 -0.6560  1.5010
  367MOL0     H49495   5.278  11.172   6.818 -0.1600  0.6145 -1.3950
  367MOL0     H49496   5.343  11.218   6.521  0.3464 -1.6253  2.5113
  367MOL0     H49497   5.220  11.428   6.361  0.3251  0.2396 -0.6309
  367MOL0     H49498   5.314  11.582   6.389  0.9013  0.6635  3.4028
  367MOL0     H49499   5.529  11.467   6.333  0.6894 -1.8546  0.3705
  367MOL0     H49500   5.453  11.324   6.341  2.3985 -1.2735 -1.8720
  367MOL0     H49501   5.412  11.519   6.110  0.4641 -0.2199 -0.8692
  367MOL0     H49502   5.305  11.377   6.133  0.1847 -1.2045  0.5493
  367MOL0     H49503   5.600  11.367   6.111 -0.6818  0.5692 -0.7892
  367MOL0     H49504   5.487  11.333   5.976 -0.0481 -0.7137 -0.4829
  367MOL0     H49505   5.338  10.996   6.047 -0.4170  0.1176  0.9638
  367MOL0     H49506   5.402  10.800   5.908  1.6348 -2.0108  2.0649
  367MOL0     H49507   5.900  10.551   5.902  1.7176  0.1112  0.7594
  367MOL0     H49508   5.999  10.357   5.803 -2.6820 -2.2232 -1.5909
  367MOL0     H49509   5.905  10.306   5.362  1.4236 -0.6397  0.2068
  367MOL0     H49510   5.971  10.148   5.398 -0.6868 -1.4761 -0.2166
  367MOL0     H49511   5.746  10.125   5.535 -0.8366  1.3126  0.5531
  367MOL0     H49512   5.710  10.278   5.469 -2.9703 -2.2967  0.0746
  367MOL0     H49513   5.725  10.165   5.235  0.5250  0.4393  0.4073
  367MOL0     H49514   5.771  10.012   5.331 -0.0088  0.0884 -0.4238
  367MOL0     H49515   5.501  10.145   5.374 -0.8689 -0.9516  2.0556
  367MOL0     H49516   5.575   9.995   5.417  1.9732 -0.1647 -0.9929
  367MOL0     H49517   5.591   9.940   5.168  0.6584 -0.5011  3.1339
  367MOL0     H49518   5.481  10.076   5.143 -0.6514 -1.6352 -2.5499
  367MOL0     H49519   5.398   9.855   5.332  1.9212  1.8209  1.3587
  367MOL0     H49520   5.315  10.007   5.282 -2.3463 -0.0540 -2.9864
  367MOL0     H49521   5.383   9.790   5.089  0.5589  1.0774  1.5682
  367MOL0     H49522   5.296   9.946   5.061 -1.2625  0.0361 -1.4608
  367MOL0     H49523   5.131   9.734   5.084  0.4280 -2.0677  0.5142
  367MOL0     H49524   5.230   9.696   5.228  0.2613 -0.4906 -2.2551
  367MOL0     H49525   5.827  10.490   5.415 -0.7204 -0.6603  0.8197
  367MOL0     H49526   5.752  10.684   5.525 -1.1872 -2.5700 -2.7964
  367MOL0     H49527   5.797  10.975   5.861  0.2862 -3.1713  1.7299
  367MOL0     H49528   5.715  11.174   6.001  0.2495 -0.3336  1.2048
  367MOL0     H49529   5.739  10.584   7.748 -0.5066 -1.2928  0.1317
  367MOL0     H49530   5.672  10.387   7.892  0.4514 -0.9641 -0.3697
  367MOL0     H49531   5.658   9.983   7.928  0.7280  0.6633  2.0275
  367MOL0     H49532   5.634   9.758   8.024  0.5298  0.2417 -0.8997
  367MOL0     H49533   5.254   9.540   8.046 -1.4116 -0.5834  1.7964
  367MOL0     H49534   5.391   9.451   8.107 -4.5588  0.8212  2.1006
  367MOL0     H49535   5.450   9.640   7.877 -2.4848  0.4321 -1.5361
  367MOL0     H49536   5.339   9.506   7.843  0.4238 -2.3868 -0.5477
  367MOL0     H49537   5.515   9.333   7.906  0.8927 -0.0207  0.0047
  367MOL0     H49538   5.599   9.472   7.969 -0.4778 -0.7458  0.7121
  367MOL0     H49539   5.638   9.565   7.747 -1.2579  0.5951  1.2948
  367MOL0     H49540   5.710   9.413   7.792  0.8439  1.8936  0.4410
  367MOL0     H49541   5.558   9.290   7.434  2.4542  0.4018  0.1364
  367MOL0     H49542   5.238   9.834   8.151  1.4954  0.5745  2.3459
  367MOL0     H49543   5.267  10.188   8.141  1.7926  0.4536 -2.1956
  367MOL0     H49544   5.191  10.149   8.005 -0.4454  2.8495  1.6735
  367MOL0     H49545   5.147  10.044   8.141 -0.1375 -0.1185 -2.0600
  368MOL0     O49546   9.406   3.683   0.660 -0.5172  0.2526  0.1777
  368MOL0     C49547   9.482   3.691   0.759  0.5297 -0.7009  0.0865
  368MOL0     O49548   9.542   3.796   0.800 -0.7991 -0.3851 -0.0714
  368MOL0     C49549   9.484   3.913   0.761 -0.7796 -0.1276 -1.2500
  368MOL0     C49550   9.377   3.964   0.838 -0.4878 -0.5455  0.4940
  368MOL0     C49551   9.337   4.101   0.803 -0.7236  1.0183  0.3491
  368MOL0     C49552   9.397   4.175   0.698  0.5319  1.1385 -0.5448
  368MOL0     O49553   9.359   4.309   0.670 -0.6635 -0.2357  0.4382
  368MOL0     C49554   9.367   4.387   0.794  0.8078 -0.2670 -0.6053
  368MOL0     C49555   9.503   4.397   0.865 -0.8630  0.2279  0.7681
  368MOL0     C49556   9.538   4.535   0.909 -0.4091  0.0392 -0.5691
  368MOL0     C49557   9.688   4.545   0.953  0.0144 -0.6538  0.3443
  368MOL0     C49558   9.732   4.687   0.997 -0.5485  0.0533 -0.2367
  368MOL0     C49559   9.882   4.705   1.024  0.7090  0.1910 -1.0503
  368MOL0     C49560   9.908   4.856   1.054  0.6633 -0.4523  0.7227
  368MOL0     C49561  10.055   4.891   1.095  0.4396  0.5565 -0.4941
  368MOL0     N49562  10.083   5.039   1.098  0.5103 -0.0860 -0.1504
  368MOL0     C49563  10.006   5.153   1.104  0.0368 -0.3435 -0.8262
  368MOL0     C49564  10.086   5.254   1.109 -0.5300  0.3479 -0.3208
  368MOL0     C49565  10.055   5.401   1.148  0.0290 -0.0398 -0.1070
  368MOL0     C49566  10.107   5.498   1.033 -0.0915  0.8547 -0.2942
  368MOL0     C49567  10.110   5.649   1.067 -0.4729  0.0161 -0.1007
  368MOL0     C49568   9.981   5.725   1.089  0.4034 -1.3673  0.2061
  368MOL0     O49569   9.920   5.695   1.217 -0.4423 -0.2879  0.3099
  368MOL0     C49570   9.822   5.775   1.265 -0.3827  0.3912 -0.5229
  368MOL0     C49571   9.804   5.905   1.243 -0.5616  0.6779  0.2480
  368MOL0     C49572   9.702   5.981   1.278  0.3174 -0.2794 -1.1687
  368MOL0     C49573   9.587   5.918   1.338 -0.0914  0.0885 -0.4709
  368MOL0     C49574   9.462   5.994   1.359 -0.2596 -0.0282  0.5472
  368MOL0     O49575   9.456   6.116   1.305  0.2165 -0.4326  1.1535
  368MOL0     C49576   9.331   6.168   1.282 -1.3063 -0.2121  0.5280
  368MOL0     C49577   9.246   6.128   1.173  0.4540  0.2968 -0.4257
  368MOL0     C49578   9.109   6.160   1.155 -0.2913 -0.1613 -0.1601
  368MOL0     C49579   9.047   6.238   1.255 -0.3608 -0.6664  0.6376
  368MOL0     O49580   8.914   6.268   1.234  0.2518  0.1046  0.2023
  368MOL0     C49581   8.827   6.308   1.341 -0.2408  0.1092  1.0852
  368MOL0     C49582   8.685   6.323   1.288  0.4400 -0.1847 -0.0481
  368MOL0     C49583   8.583   6.288   1.387  0.7895 -0.7099 -0.5734
  368MOL0     C49584   8.443   6.246   1.331 -0.3206  0.3187  0.0058
  368MOL0     C49585   8.319   6.257   1.424  0.5997 -0.3974  0.7828
  368MOL0     C49586   8.341   6.188   1.553  0.6903 -1.2272  0.9497
  368MOL0     C49587   8.219   6.213   1.645 -0.2865  0.1458 -0.6605
  368MOL0     C49588   8.219   6.108   1.754  0.7947  1.3573 -0.9197
  368MOL0    Cl49589   8.377   6.121   1.849  0.6946 -0.2508  0.1604
  368MOL0     C49590   9.122   6.282   1.365 -0.7959 -0.0292  0.3287
  368MOL0     C49591   9.257   6.251   1.378 -0.3909 -0.1011 -0.8594
  368MOL0     O49592   9.369   5.940   1.415  0.3304  0.0469  0.8048
  368MOL0     C49593   9.609   5.785   1.383  0.7431 -0.7343  0.8854
  368MOL0     C49594   9.721   5.717   1.341 -0.1951  0.0170  0.0107
  368MOL0     N49595  10.217   5.209   1.103 -0.2895  0.1025  0.5799
  368MOL0     N49596  10.213   5.079   1.098  0.6830  0.2194 -0.0207
  368MOL0     C49597   9.498   4.120   0.633 -0.0956  0.2586 -0.3683
  368MOL0     C49598   9.548   3.995   0.666 -0.0360  0.5216 -0.8839
  368MOL0     C49599   9.503   3.568   0.829 -0.4534 -0.3273 -0.9425
  368MOL0     C49600   9.633   3.546   0.879  0.3519 -0.4856  0.4177
  368MOL0     C49601   9.671   3.431   0.947 -0.5437  0.9804 -0.2864
  368MOL0     C49602   9.573   3.333   0.969 -0.7655  0.4341  0.0849
  368MOL0     O49603   9.613   3.213   1.032 -0.4348  0.3362 -0.8996
  368MOL0     C49604   9.535   3.189   1.156 -0.5129  0.5322  0.3073
  368MOL0     C49605   9.573   3.052   1.212  0.0212  0.7426  0.2334
  368MOL0     C49606   9.684   3.066   1.317  0.7523  0.3484 -1.0390
  368MOL0     C49607   9.723   2.947   1.388  0.4145 -0.1150 -0.3901
  368MOL0     C49608   9.772   2.842   1.298  0.0644  0.5196  0.0778
  368MOL0     C49609   9.801   2.753   1.219 -0.5640  0.9040  0.0154
  368MOL0     C49610   9.441   3.363   0.932 -0.6743 -0.1094  0.1322
  368MOL0     C49611   9.404   3.480   0.859 -0.0215  0.5192 -0.1024
  368MOL0     C49612   9.253   3.484   0.826 -0.8537 -1.0745 -0.3203
  368MOL0     H49613   9.327   3.898   0.908 -2.2095 -0.3517 -0.4966
  368MOL0     H49614   9.251   4.140   0.857  0.0863  2.7924  0.4135
  368MOL0     H49615   9.338   4.489   0.766  0.5347 -0.7286 -2.0892
  368MOL0     H49616   9.285   4.345   0.853 -1.1228  2.2240 -1.3180
  368MOL0     H49617   9.578   4.346   0.803 -3.8894 -0.7062 -2.4605
  368MOL0     H49618   9.496   4.346   0.961  3.4792  0.1454  1.2418
  368MOL0     H49619   9.473   4.563   0.992  0.3202 -1.4097  0.5380
  368MOL0     H49620   9.523   4.606   0.827 -1.2163 -1.8611 -2.1504
  368MOL0     H49621   9.702   4.475   1.036 -2.1030 -1.6090 -0.0264
  368MOL0     H49622   9.752   4.511   0.871 -0.1451  1.4640 -0.7366
  368MOL0     H49623   9.708   4.750   0.911  3.9817  1.1314 -0.9416
  368MOL0     H49624   9.678   4.712   1.089 -0.0016 -0.8929  0.3659
  368MOL0     H49625   9.904   4.653   1.118 -1.8554  3.1427  1.3946
  368MOL0     H49626   9.935   4.678   0.932 -2.5527 -0.3085 -2.9459
  368MOL0     H49627   9.830   4.896   1.119  0.6618  1.3951 -0.3376
  368MOL0     H49628   9.887   4.901   0.956  1.9562  2.9759  1.8733
  368MOL0     H49629  10.079   4.853   1.194  2.8804 -2.1906 -1.9738
  368MOL0     H49630  10.119   4.839   1.023  0.8439  0.5767 -0.1489
  368MOL0     H49631   9.898   5.156   1.119  0.2674 -2.2149  1.8824
  368MOL0     H49632   9.952   5.422   1.175  0.2855  0.6388  0.3674
  368MOL0     H49633  10.110   5.418   1.241 -0.3249  1.6754 -0.1919
  368MOL0     H49634  10.212   5.479   1.011  0.0018  0.8546  0.1492
  368MOL0     H49635  10.049   5.482   0.942  2.5554  0.7170 -2.0370
  368MOL0     H49636  10.148   5.707   0.983  1.7640 -1.4235 -0.1727
  368MOL0     H49637  10.170   5.677   1.155  0.4736  0.3035 -0.8202
  368MOL0     H49638   9.914   5.705   1.004 -1.0166 -1.2554  1.2550
  368MOL0     H49639  10.011   5.830   1.080  0.7856 -1.0672  3.6267
  368MOL0     H49640   9.874   5.958   1.178  2.7839 -2.0836  1.3121
  368MOL0     H49641   9.691   6.080   1.236  0.1963 -1.0456 -3.0492
  368MOL0     H49642   9.288   6.060   1.100  0.7394 -2.8636  2.4324
  368MOL0     H49643   9.046   6.126   1.073  1.6790  0.3944 -1.9989
  368MOL0     H49644   8.823   6.231   1.418 -1.3889  0.6005  1.5419
  368MOL0     H49645   8.863   6.395   1.395  0.4051 -0.2169  1.1860
  368MOL0     H49646   8.668   6.408   1.222  1.2219 -0.0908 -0.1389
  368MOL0     H49647   8.688   6.238   1.219  4.2401 -2.9597  3.0880
  368MOL0     H49648   8.628   6.210   1.450  1.9795  1.2841  1.1880
  368MOL0     H49649   8.575   6.375   1.453  0.2035 -0.1776 -1.3194
  368MOL0     H49650   8.440   6.144   1.293  3.7264  0.8336 -2.2615
  368MOL0     H49651   8.436   6.314   1.246  3.4745 -2.3542 -2.7319
  368MOL0     H49652   8.236   6.213   1.368  2.1968  1.6115 -3.5425
  368MOL0     H49653   8.300   6.363   1.442  0.0535  0.0989 -2.2388
  368MOL0     H49654   8.342   6.080   1.534 -2.8265 -0.9779 -1.7521
  368MOL0     H49655   8.434   6.220   1.602  0.7551 -1.6449  1.1105
  368MOL0     H49656   8.119   6.205   1.603 -2.0294 -0.7628  3.2351
  368MOL0     H49657   8.227   6.316   1.680 -3.6878  0.7333 -1.2478
  368MOL0     H49658   8.139   6.134   1.824 -0.5092  4.7638 -3.4203
  368MOL0     H49659   8.193   6.010   1.712  0.1476  0.2201  1.8795
  368MOL0     H49660   9.067   6.345   1.435  0.6085  1.5212  0.0984
  368MOL0     H49661   9.313   6.284   1.464 -2.2443 -1.6870  1.0595
  368MOL0     H49662   9.529   5.735   1.436  2.9430 -2.5851  2.6719
  368MOL0     H49663   9.714   5.611   1.365 -3.5905  0.0998 -0.0988
  368MOL0     H49664   9.548   4.182   0.560 -0.6638  0.3534 -0.6848
  368MOL0     H49665   9.635   3.956   0.616  0.2832 -0.8714  0.6543
  368MOL0     H49666   9.701   3.629   0.865  2.8988 -1.8477  3.5841
  368MOL0     H49667   9.767   3.413   0.995 -0.7147 -0.6745 -0.5221
  368MOL0     H49668   9.428   3.208   1.146 -1.1823 -2.3563  0.9821
  368MOL0     H49669   9.584   3.271   1.210  0.8075 -1.5433  2.4641
  368MOL0     H49670   9.614   2.992   1.130  0.1473  1.4267 -0.2045
  368MOL0     H49671   9.489   2.994   1.252 -0.1364 -1.1892 -2.6458
  368MOL0     H49672   9.637   3.128   1.394  0.9560  0.0369 -0.6608
  368MOL0     H49673   9.772   3.122   1.284  0.9905  0.6376  0.0587
  368MOL0     H49674   9.807   2.964   1.457  1.4972 -1.3442 -1.3596
  368MOL0     H49675   9.636   2.908   1.441  0.1007 -1.1577 -1.6367
  368MOL0     H49676   9.839   2.672   1.160 -0.0479 -1.7917  3.6790
  368MOL0     H49677   9.368   3.285   0.948 -0.1543 -0.1974  2.3468
  368MOL0     H49678   9.250   3.474   0.717  0.6601 -2.9415 -0.2307
  368MOL0     H49679   9.211   3.394   0.871  0.4315 -2.4086 -1.6883
  368MOL0     H49680   9.216   3.576   0.872  2.1334 -0.1271  0.3872
  369MOL0     O49681   3.446   6.898   3.042  0.0358 -0.8065 -0.4425
  369MOL0     C49682   3.523   6.809   2.995  0.0459 -0.6308 -0.9813
  369MOL0     O49683   3.514   6.755   2.870 -0.4581 -0.5648 -0.0215
  369MOL0     C49684   3.415   6.798   2.792  0.5777 -0.6355  0.7823
  369MOL0     C49685   3.306   6.713   2.761  0.3624  0.8003 -0.9436
  369MOL0     C49686   3.198   6.756   2.668 -1.3361 -0.2062 -0.7255
  369MOL0     C49687   3.215   6.880   2.608 -0.1155 -0.5133  0.1411
  369MOL0     O49688   3.116   6.932   2.532  0.2337 -0.1976 -0.4375
  369MOL0     C49689   3.112   6.885   2.402 -0.2701  0.1914 -0.2690
  369MOL0     C49690   3.002   6.948   2.305 -0.2461  0.1855 -0.1762
  369MOL0     C49691   3.036   7.085   2.262  0.4695  0.2880 -0.6744
  369MOL0     C49692   2.969   7.207   2.340 -0.0751 -0.2469 -0.4740
  369MOL0     C49693   2.827   7.268   2.310 -0.4255  0.3193 -0.7336
  369MOL0     C49694   2.714   7.164   2.333  1.3863  0.4914  0.1725
  369MOL0     C49695   2.580   7.221   2.274  0.1244 -0.4228  0.4484
  369MOL0     C49696   2.498   7.301   2.374 -0.5755 -0.5000 -0.5076
  369MOL0     N49697   2.356   7.300   2.345  0.4918  0.5139 -0.1081
  369MOL0     C49698   2.301   7.278   2.220  0.6785 -0.1692 -0.6484
  369MOL0     C49699   2.169   7.276   2.232  1.1273  0.2741  0.3210
  369MOL0     C49700   2.051   7.265   2.132 -0.1503  0.3775  0.0876
  369MOL0     C49701   1.937   7.163   2.165 -0.5775 -0.6433 -0.5441
  369MOL0     C49702   1.856   7.132   2.042 -0.2357  0.2987  0.6924
  369MOL0     C49703   1.782   7.252   1.988 -0.4458  0.3861  0.6037
  369MOL0     O49704   1.713   7.215   1.867  0.0630 -0.0195 -0.0886
  369MOL0     C49705   1.587   7.160   1.873  0.5581 -0.3115 -0.9481
  369MOL0     C49706   1.503   7.127   1.994 -1.0548  0.3715 -0.1474
  369MOL0     C49707   1.368   7.095   1.974 -0.8961 -0.3461  0.0656
  369MOL0     C49708   1.304   7.080   1.845  0.2682 -0.2210 -0.5617
  369MOL0     C49709   1.162   7.029   1.816  0.0154  0.1946  1.4377
  369MOL0     O49710   1.073   7.039   1.923 -0.1624  0.0812  0.4018
  369MOL0     C49711   0.948   7.015   1.882  0.2131 -0.0593  0.6770
  369MOL0     C49712   0.905   6.899   1.814  0.0664 -1.4070 -0.3111
  369MOL0     C49713   0.774   6.881   1.761 -0.4757 -0.4473  0.6241
  369MOL0     C49714   0.680   6.978   1.784 -1.4201 -0.9737 -0.1348
  369MOL0     O49715   0.556   6.937   1.741 -0.1331 -0.5377  1.0662
  369MOL0     C49716   0.466   7.038   1.692  0.0563  0.2627 -0.1574
  369MOL0     C49717   0.327   6.981   1.676 -0.2621  1.3735  0.1793
  369MOL0     C49718   0.238   7.081   1.589 -1.1427 -0.1816  0.2320
  369MOL0     C49719   0.245   7.228   1.649 -0.1285 -0.2475  0.0821
  369MOL0     C49720   0.142   7.311   1.568 -0.4039 -0.5712 -0.2321
  369MOL0     C49721   0.133   7.459   1.611  0.1351 -0.2129 -0.2048
  369MOL0     C49722   0.088   7.485   1.759  0.8562  0.2644 -0.6097
  369MOL0     C49723   0.067   7.640   1.771 -0.7584  0.1476  0.2423
  369MOL0    Cl49724   0.107   7.662   1.945 -0.0879  0.5093  0.1045
  369MOL0     C49725   0.710   7.091   1.863 -0.7837  0.6737 -0.0276
  369MOL0     C49726   0.847   7.107   1.903  0.8562 -0.5203  0.2099
  369MOL0     O49727   1.139   6.997   1.696 -0.2989 -0.2718 -0.1419
  369MOL0     C49728   1.393   7.104   1.737  0.0337  0.8938 -0.2923
  369MOL0     C49729   1.522   7.152   1.753 -0.0575  0.0654 -0.1540
  369MOL0     N49730   2.147   7.275   2.370 -0.0714 -0.0605  0.1301
  369MOL0     N49731   2.252   7.286   2.434  0.0377 -0.2683 -1.3805
  369MOL0     C49732   3.328   6.956   2.629  0.2506  0.8124  0.5134
  369MOL0     C49733   3.422   6.920   2.720  0.5544 -0.6079 -0.2777
  369MOL0     C49734   3.629   6.766   3.088  0.3603  0.0681 -0.0265
  369MOL0     C49735   3.724   6.679   3.041 -0.3126 -0.9012  0.1827
  369MOL0     C49736   3.844   6.644   3.114  0.3311  0.0226  0.5693
  369MOL0     C49737   3.855   6.697   3.242  0.2863  0.6242 -0.1795
  369MOL0     O49738   3.961   6.666   3.322  0.0088 -0.2488 -0.6209
  369MOL0     C49739   3.931   6.596   3.445 -0.2289  0.3236  0.2067
  369MOL0     C49740   3.900   6.447   3.435  0.2296 -0.1998  0.0072
  369MOL0     C49741   4.029   6.380   3.368  0.5877  0.7654 -0.4092
  369MOL0     C49742   4.151   6.354   3.454 -0.0036 -0.9493 -0.5276
  369MOL0     C49743   4.113   6.281   3.580  0.2264  0.8222 -0.2111
  369MOL0     C49744   4.107   6.208   3.678  0.4776 -1.3669 -0.3404
  369MOL0     C49745   3.754   6.772   3.290 -0.1746 -1.3746 -0.0023
  369MOL0     C49746   3.638   6.814   3.221  0.4234  0.1608  0.9146
  369MOL0     C49747   3.542   6.901   3.306  0.1624  0.4574  0.9363
  369MOL0     H49748   3.306   6.611   2.797 -5.1440  0.1845 -1.8597
  369MOL0     H49749   3.119   6.684   2.649 -1.3460 -1.2071  2.5536
  369MOL0     H49750   3.214   6.888   2.363  1.0828  2.1495  2.9824
  369MOL0     H49751   3.083   6.779   2.401  0.9540 -0.1691 -1.4864
  369MOL0     H49752   2.906   6.948   2.357 -0.3348 -1.4049 -0.3038
  369MOL0     H49753   2.998   6.887   2.215 -0.3847 -0.9181  0.5589
  369MOL0     H49754   3.006   7.103   2.158 -1.3248  0.2489 -0.1995
  369MOL0     H49755   3.145   7.088   2.273  0.2571  0.9753  1.9594
  369MOL0     H49756   2.970   7.174   2.444  0.1900 -0.8204 -0.6512
  369MOL0     H49757   3.027   7.298   2.324 -0.0664 -0.4665 -1.8681
  369MOL0     H49758   2.813   7.349   2.381 -0.7647  0.8966 -1.4452
  369MOL0     H49759   2.825   7.303   2.206 -0.1762 -1.4605 -1.3801
  369MOL0     H49760   2.742   7.066   2.296  2.9826 -0.3936  3.3965
  369MOL0     H49761   2.706   7.137   2.438  1.3738 -0.1179  0.0198
  369MOL0     H49762   2.523   7.132   2.247  1.0048 -1.5040  1.9543
  369MOL0     H49763   2.608   7.282   2.187  0.7862 -0.8256  0.3746
  369MOL0     H49764   2.511   7.259   2.474  0.5849 -2.9150 -1.6006
  369MOL0     H49765   2.528   7.406   2.373  0.6254 -0.6729  2.9953
  369MOL0     H49766   2.349   7.270   2.123  0.1102 -0.2692 -0.9250
  369MOL0     H49767   2.002   7.363   2.123 -1.1884  0.0987  2.0305
  369MOL0     H49768   2.095   7.228   2.039  0.7035  0.3717  0.4898
  369MOL0     H49769   1.983   7.071   2.203  2.2187  0.7781 -0.2382
  369MOL0     H49770   1.872   7.200   2.245  0.4479  2.4319 -1.0146
  369MOL0     H49771   1.797   7.045   2.071  3.0165 -2.8581 -1.2496
  369MOL0     H49772   1.925   7.111   1.960  0.0652 -0.5463  1.1475
  369MOL0     H49773   1.838   7.345   1.974  0.4087 -0.3056 -0.7321
  369MOL0     H49774   1.716   7.272   2.073 -0.4698 -2.0038  1.2265
  369MOL0     H49775   1.541   7.147   2.094 -1.6621 -2.2671  0.6974
  369MOL0     H49776   1.305   7.081   2.062 -1.3948 -0.6462 -0.3312
  369MOL0     H49777   0.975   6.820   1.786 -0.2487 -1.0101 -2.4096
  369MOL0     H49778   0.756   6.785   1.713 -0.3298 -1.4172  2.4145
  369MOL0     H49779   0.464   7.118   1.767 -1.8139  1.1665 -1.0941
  369MOL0     H49780   0.505   7.084   1.601 -1.1627  2.6764  0.4570
  369MOL0     H49781   0.334   6.887   1.622 -1.8784  2.1005 -1.4059
  369MOL0     H49782   0.278   6.975   1.774 -2.8782  3.3299 -0.8703
  369MOL0     H49783   0.275   7.093   1.487 -0.0882  1.9306  0.8102
  369MOL0     H49784   0.134   7.047   1.584 -1.6789  1.2787  0.9207
  369MOL0     H49785   0.343   7.275   1.638 -1.9392  3.4558 -2.0999
  369MOL0     H49786   0.222   7.230   1.756  1.4976  1.0950  0.4527
  369MOL0     H49787   0.044   7.265   1.584 -0.1087 -3.0592 -4.1954
  369MOL0     H49788   0.157   7.313   1.460  3.6723 -0.6810  0.1500
  369MOL0     H49789   0.221   7.516   1.579  2.3233 -2.0872  2.1520
  369MOL0     H49790   0.045   7.507   1.566 -2.7621 -0.5538  4.4121
  369MOL0     H49791   0.162   7.452   1.832  1.2173  0.1777 -1.0115
  369MOL0     H49792  -0.009   7.440   1.782  0.4610  2.3784  2.4743
  369MOL0     H49793   0.138   7.702   1.717 -0.8154  0.1589  0.1801
  369MOL0     H49794  -0.028   7.684   1.740  1.2865  3.6617 -1.6301
  369MOL0     H49795   0.634   7.167   1.874 -0.7897  0.4483  1.7090
  369MOL0     H49796   0.861   7.194   1.967  2.0912  0.0769 -0.8206
  369MOL0     H49797   1.354   7.089   1.637 -5.2179  2.5420  1.2143
  369MOL0     H49798   1.587   7.165   1.667  0.5452 -2.1572 -0.1030
  369MOL0     H49799   3.336   7.054   2.585 -0.8197  0.7428  0.1278
  369MOL0     H49800   3.506   6.983   2.746 -1.3756  1.0770  2.3508
  369MOL0     H49801   3.710   6.638   2.942 -4.0837  0.1045  0.1482
  369MOL0     H49802   3.918   6.584   3.062  1.7935  0.9754  1.5086
  369MOL0     H49803   3.844   6.638   3.497  0.7288  0.4736  1.7461
  369MOL0     H49804   4.017   6.599   3.513  0.3504  0.7340 -0.5294
  369MOL0     H49805   3.814   6.427   3.371  0.3627 -2.0857  0.3686
  369MOL0     H49806   3.886   6.407   3.536  1.0369 -0.1350  0.1489
  369MOL0     H49807   4.065   6.435   3.280  0.4181 -2.4228 -2.6392
  369MOL0     H49808   3.999   6.279   3.341  0.8081 -0.1705  2.5183
  369MOL0     H49809   4.221   6.289   3.401  1.1697  0.3439 -0.6032
  369MOL0     H49810   4.207   6.445   3.477  1.3333 -1.3379 -2.1165
  369MOL0     H49811   4.096   6.136   3.757 -2.1312 -1.0471 -0.3194
  369MOL0     H49812   3.763   6.810   3.391  0.2997 -1.1647 -0.1166
  369MOL0     H49813   3.436   6.875   3.305  0.3572 -0.4929 -1.6305
  369MOL0     H49814   3.573   6.901   3.411 -1.5138 -1.3830  1.4840
  369MOL0     H49815   3.562   7.005   3.278  1.8556  0.8424  3.2443
  370MOL0     O49816  10.149   8.055  10.419 -1.2598 -0.1098 -0.5937
  370MOL0     C49817  10.261   8.057  10.366 -0.5424  0.6813  0.6400
  370MOL0     O49818  10.304   7.960  10.266 -0.3251  0.1419 -0.4821
  370MOL0     C49819  10.212   7.859  10.254 -0.2911 -0.7786  0.6790
  370MOL0     C49820  10.210   7.759  10.342  0.0746 -0.0919 -0.4076
  370MOL0     C49821  10.121   7.655  10.328  0.0704 -0.2191  0.2825
  370MOL0     C49822  10.027   7.656  10.221 -0.1763 -0.2469 -0.2641
  370MOL0     O49823   9.961   7.534  10.201 -1.0681 -0.4569 -0.3295
  370MOL0     C49824   9.869   7.531  10.096 -0.2483  0.1024 -0.6433
  370MOL0     C49825   9.814   7.385  10.111  0.5766 -0.4316 -0.5458
  370MOL0     C49826   9.671   7.361  10.066  0.4443  0.6400  0.7836
  370MOL0     C49827   9.635   7.208  10.095  0.1028 -0.7305 -0.0805
  370MOL0     C49828   9.509   7.173  10.009  0.4820  0.3442  0.0476
  370MOL0     C49829   9.544   7.139   9.864  0.1013 -0.5993 -0.4781
  370MOL0     C49830   9.418   7.074   9.804  0.0171  0.5940 -1.5683
  370MOL0     C49831   9.403   7.101   9.656 -0.2397 -0.6523  0.7178
  370MOL0     N49832   9.508   7.060   9.561  0.2847  0.2741  0.3525
  370MOL0     C49833   9.532   6.932   9.520 -0.7060 -0.4555  0.6902
  370MOL0     C49834   9.628   6.957   9.427  0.0727 -0.2689 -0.2335
  370MOL0     C49835   9.699   6.856   9.342 -0.3179  0.3519  0.1103
  370MOL0     C49836   9.853   6.861   9.365  0.6559  0.1681  0.6770
  370MOL0     C49837   9.924   6.774   9.255 -0.1926  0.7441  0.2671
  370MOL0     C49838  10.071   6.768   9.301  0.3398 -0.0124  0.7451
  370MOL0     O49839  10.119   6.904   9.294 -0.9947  0.0005  0.2771
  370MOL0     C49840  10.216   6.952   9.371 -0.1075 -0.7041 -0.8093
  370MOL0     C49841  10.274   6.899   9.491  0.3549 -0.7528  0.0604
  370MOL0     C49842  10.365   6.984   9.557  0.8969 -0.4302 -0.6525
  370MOL0     C49843  10.407   7.107   9.507 -0.8127  0.9527  0.1276
  370MOL0     C49844  10.526   7.174   9.571  0.5742  0.3858 -0.1117
  370MOL0     O49845  10.606   7.116   9.650 -0.4359  0.1506 -0.3307
  370MOL0     C49846  10.681   7.194   9.739  1.0555 -0.1098  0.9865
  370MOL0     C49847  10.631   7.278   9.841 -0.3951 -0.0707  0.6605
  370MOL0     C49848  10.713   7.350   9.931  0.9346 -0.3609 -0.5023
  370MOL0     C49849  10.848   7.317   9.945 -0.1842 -0.3539  0.2265
  370MOL0     O49850  10.939   7.367  10.031  0.2039  0.1659 -0.2836
  370MOL0     C49851  10.895   7.436  10.154  0.4936  0.0555  0.5062
  370MOL0     C49852  11.016   7.506  10.216  1.0012  0.6791  0.3709
  370MOL0     C49853  11.119   7.406  10.260  0.0860  0.2654 -0.8439
  370MOL0     C49854  11.226   7.477  10.334  0.3405 -0.0961 -0.0392
  370MOL0     C49855  11.312   7.372  10.398  0.1638  0.0141 -0.4453
  370MOL0     C49856  11.409   7.300  10.302  0.0302  0.3538 -0.2514
  370MOL0     C49857  11.491   7.176  10.359  0.2501 -0.5939  0.6920
  370MOL0     C49858  11.531   7.175  10.510 -0.2919 -1.0925 -0.3358
  370MOL0    Cl49859  11.627   7.036  10.540  0.3703 -0.1480 -0.1772
  370MOL0     C49860  10.893   7.216   9.855 -0.4335  0.3170  0.0471
  370MOL0     C49861  10.817   7.168   9.749  0.0932 -0.5390  0.7553
  370MOL0     O49862  10.544   7.290   9.531  0.8203 -0.0574  0.6756
  370MOL0     C49863  10.345   7.152   9.398 -0.1203 -0.5213  0.3008
  370MOL0     C49864  10.251   7.076   9.328 -0.7518  0.2621 -0.3821
  370MOL0     N49865   9.665   7.094   9.417 -0.5746 -0.4871 -0.1923
  370MOL0     N49866   9.578   7.153   9.501  0.2147 -0.7330 -0.2005
  370MOL0     C49867  10.042   7.752  10.124 -1.0500 -1.1053  0.1859
  370MOL0     C49868  10.142   7.848  10.137  0.6538  0.6669  0.5702
  370MOL0     C49869  10.364   8.161  10.388 -0.5745  0.5787  0.1212
  370MOL0     C49870  10.459   8.174  10.284  0.3373 -0.3071  0.6526
  370MOL0     C49871  10.544   8.275  10.298 -0.4518  0.1847  0.1461
  370MOL0     C49872  10.553   8.365  10.404  0.7433 -0.2873  0.4078
  370MOL0     O49873  10.626   8.481  10.405  0.2880  0.8338 -0.5423
  370MOL0     C49874  10.747   8.497  10.330  0.0389 -0.0900 -0.2069
  370MOL0     C49875  10.859   8.415  10.376  0.4003  0.5599  0.2098
  370MOL0     C49876  10.985   8.427  10.288  0.7101 -0.6235 -0.2146
  370MOL0     C49877  11.097   8.325  10.306  0.0158 -0.0722  1.2353
  370MOL0     C49878  11.227   8.383  10.245  0.8014  0.1824 -0.1972
  370MOL0     C49879  11.303   8.446  10.189 -0.4997  0.7395 -0.5962
  370MOL0     C49880  10.471   8.347  10.502  0.0209  0.7469 -0.1735
  370MOL0     C49881  10.369   8.251  10.491  0.5971 -0.0447 -0.6254
  370MOL0     C49882  10.266   8.253  10.612  0.1312 -0.0498  0.2003
  370MOL0     H49883  10.285   7.754  10.420  0.5541  1.3686 -0.7569
  370MOL0     H49884  10.140   7.576  10.401  1.7542  0.9741  1.2213
  370MOL0     H49885   9.787   7.602  10.109 -0.1541  0.4497 -1.9023
  370MOL0     H49886   9.917   7.553  10.001  1.3446  2.1515  0.5433
  370MOL0     H49887   9.823   7.358  10.216  1.7413 -0.6027 -0.6733
  370MOL0     H49888   9.881   7.329  10.046 -1.7312 -3.0422 -0.8396
  370MOL0     H49889   9.670   7.373   9.957 -1.1333  1.9208  0.8930
  370MOL0     H49890   9.588   7.425  10.098 -0.0011  0.0804  0.7643
  370MOL0     H49891   9.719   7.148  10.061 -0.3649 -2.1380  1.1340
  370MOL0     H49892   9.627   7.193  10.203  0.1377 -0.1822 -0.0011
  370MOL0     H49893   9.469   7.090  10.068 -0.4629  2.2915  2.3107
  370MOL0     H49894   9.432   7.251  10.007  0.8124  0.6718 -1.2014
  370MOL0     H49895   9.558   7.239   9.823 -2.5704  0.2900  0.5547
  370MOL0     H49896   9.636   7.080   9.853 -1.0399 -2.4296 -0.6667
  370MOL0     H49897   9.325   7.097   9.858  1.0370  0.1357  0.4973
  370MOL0     H49898   9.413   6.966   9.819 -0.3463  0.9269  1.2926
  370MOL0     H49899   9.308   7.053   9.630 -0.5987  1.7331 -3.0238
  370MOL0     H49900   9.391   7.207   9.636 -0.0576 -0.7873 -0.1146
  370MOL0     H49901   9.479   6.840   9.542 -0.3503 -0.1230  3.3285
  370MOL0     H49902   9.665   6.757   9.372  3.3249 -0.7752  1.1251
  370MOL0     H49903   9.686   6.878   9.236  0.0805 -1.0287 -0.2395
  370MOL0     H49904   9.884   6.966   9.354  0.9848 -0.1246 -1.9567
  370MOL0     H49905   9.867   6.825   9.467 -2.8220 -0.3877  1.0768
  370MOL0     H49906   9.920   6.829   9.161  0.8198  1.1149  0.4340
  370MOL0     H49907   9.885   6.672   9.246  0.6194 -0.0588  3.9518
  370MOL0     H49908  10.133   6.708   9.233  1.4846 -0.1791  1.9010
  370MOL0     H49909  10.071   6.715   9.396 -0.5240 -2.4060 -0.4855
  370MOL0     H49910  10.233   6.802   9.517 -2.2364  0.2546  0.0618
  370MOL0     H49911  10.420   6.946   9.642 -1.0464  2.2094  1.9945
  370MOL0     H49912  10.523   7.291   9.840 -0.5759 -1.0885 -2.0861
  370MOL0     H49913  10.666   7.420   9.999 -2.9131 -2.4635 -0.7021
  370MOL0     H49914  10.811   7.501  10.128 -0.0827 -1.9028 -3.3044
  370MOL0     H49915  10.861   7.356  10.221 -0.7803  0.2227  0.0713
  370MOL0     H49916  11.059   7.573  10.141 -1.5121 -0.0695 -1.9040
  370MOL0     H49917  10.980   7.565  10.301  2.8184  3.1220 -0.4158
  370MOL0     H49918  11.084   7.329  10.329 -0.1879  0.7293 -0.4647
  370MOL0     H49919  11.165   7.351  10.177 -1.4611 -2.9260  0.2321
  370MOL0     H49920  11.191   7.532  10.421  3.3992  0.7866  0.7613
  370MOL0     H49921  11.291   7.533  10.266  1.3500  2.0033  2.4848
  370MOL0     H49922  11.253   7.308  10.465  2.0392  1.6192  2.9957
  370MOL0     H49923  11.381   7.408  10.475 -1.7560  1.9047  0.5027
  370MOL0     H49924  11.359   7.267  10.211 -1.5100 -0.0372  0.6854
  370MOL0     H49925  11.471   7.373  10.250  0.9252 -1.2741 -1.5626
  370MOL0     H49926  11.588   7.172  10.309 -0.2837 -0.6255 -0.3581
  370MOL0     H49927  11.438   7.081  10.350 -0.7900  0.1624 -2.4316
  370MOL0     H49928  11.591   7.259  10.545  0.2413 -3.1611  4.6889
  370MOL0     H49929  11.453   7.174  10.587 -2.3919  0.2575 -2.3455
  370MOL0     H49930  10.998   7.186   9.850 -0.4080  0.4471 -0.2628
  370MOL0     H49931  10.859   7.121   9.661  0.3981 -0.6924  0.9816
  370MOL0     H49932  10.379   7.248   9.361 -3.7925  0.5217 -0.7488
  370MOL0     H49933  10.196   7.111   9.242 -0.9659 -0.9566 -0.7567
  370MOL0     H49934   9.988   7.742  10.030  2.6097 -0.8467 -2.1338
  370MOL0     H49935  10.154   7.931  10.068  2.0882 -1.1151 -1.4318
  370MOL0     H49936  10.471   8.103  10.202  1.9085 -0.4789  1.0139
  370MOL0     H49937  10.621   8.291  10.223  0.3249  0.9132  1.0730
  370MOL0     H49938  10.783   8.600  10.323  1.3739 -0.6232 -1.9146
  370MOL0     H49939  10.728   8.467  10.227 -0.0270 -0.5000 -0.0780
  370MOL0     H49940  10.834   8.309  10.389  1.0324  0.1770 -1.4438
  370MOL0     H49941  10.881   8.451  10.477 -1.0661  0.2937  0.6403
  370MOL0     H49942  11.035   8.520  10.315 -1.0504  0.6796 -1.2171
  370MOL0     H49943  10.951   8.448  10.186  0.5226 -0.0569 -0.0402
  370MOL0     H49944  11.134   8.301  10.406  1.1400 -3.0616  0.2083
  370MOL0     H49945  11.077   8.234  10.248  2.6438 -0.6739  1.1610
  370MOL0     H49946  11.368   8.518  10.143  0.0809  0.9944  0.5836
  370MOL0     H49947  10.471   8.424  10.578  1.6774 -1.1030  1.8245
  370MOL0     H49948  10.187   8.320  10.578  0.9948  1.4547  1.0251
  370MOL0     H49949  10.232   8.151  10.635 -0.4827 -0.0765 -0.7672
  370MOL0     H49950  10.306   8.293  10.706  1.2892 -2.0002  0.6034
  371MOL0     O49951   5.174   5.258   6.274 -0.5346 -0.5684  0.6506
  371MOL0     C49952   5.091   5.343   6.298  0.2281  0.2603  0.0520
  371MOL0     O49953   4.998   5.336   6.405 -0.5334  0.2978  0.0996
  371MOL0     C49954   4.983   5.221   6.466 -0.6403 -0.5034 -0.4314
  371MOL0     C49955   4.867   5.141   6.449 -0.0636 -0.1048  0.1498
  371MOL0     C49956   4.851   5.028   6.530 -0.0470  0.7199  0.0222
  371MOL0     C49957   4.956   4.987   6.621  0.0080 -0.1800 -0.0242
  371MOL0     O49958   4.953   4.871   6.692 -0.2806  0.4653  0.0656
  371MOL0     C49959   4.939   4.747   6.615  0.1550  0.4180  0.2555
  371MOL0     C49960   5.071   4.703   6.539 -0.1070 -0.0608  0.0280
  371MOL0     C49961   5.057   4.591   6.435  0.4322  0.5713 -0.7152
  371MOL0     C49962   4.988   4.643   6.308  0.4286  0.4060 -0.2463
  371MOL0     C49963   4.946   4.521   6.213 -0.1451  0.3327 -0.1581
  371MOL0     C49964   5.054   4.427   6.169 -0.1177 -0.4858 -0.2857
  371MOL0     C49965   5.010   4.358   6.041  0.5032 -0.6948 -0.1938
  371MOL0     C49966   5.112   4.258   5.987  1.1390  0.2909  0.5769
  371MOL0     N49967   5.065   4.140   5.912 -0.2058  0.1555 -0.2243
  371MOL0     C49968   4.978   4.129   5.803  0.1988 -1.4453 -0.3987
  371MOL0     C49969   4.981   3.997   5.770  0.3069  0.3796  0.3339
  371MOL0     C49970   4.918   3.941   5.649  0.5728 -0.6040 -0.4744
  371MOL0     C49971   4.786   3.871   5.694 -0.3366  0.1837  0.5273
  371MOL0     C49972   4.807   3.758   5.796  0.1577  0.5032  0.1226
  371MOL0     C49973   4.695   3.659   5.790 -0.5483  0.1721 -0.1106
  371MOL0     O49974   4.733   3.559   5.883  0.4239 -0.0741  0.0288
  371MOL0     C49975   4.662   3.440   5.875 -0.7277 -0.0072 -0.5789
  371MOL0     C49976   4.713   3.340   5.966  0.4560  0.3388  0.2401
  371MOL0     C49977   4.642   3.218   5.976  0.3862  0.0382 -0.4085
  371MOL0     C49978   4.531   3.191   5.894  0.1396  0.5126  0.1094
  371MOL0     C49979   4.453   3.062   5.901 -0.0833 -0.0994 -0.4518
  371MOL0     O49980   4.326   3.064   5.866  0.1413  0.0703 -0.5117
  371MOL0     C49981   4.266   2.946   5.895 -0.5356  0.5714  0.4185
  371MOL0     C49982   4.210   2.915   6.020  0.5441 -0.7753  0.6690
  371MOL0     C49983   4.133   2.805   6.048 -0.4185  0.0883  0.0341
  371MOL0     C49984   4.114   2.720   5.941  0.4082  0.2339  0.4786
  371MOL0     O49985   4.032   2.615   5.966  0.6998  0.3312  0.5142
  371MOL0     C49986   3.991   2.515   5.874  1.2384 -0.2175  0.0582
  371MOL0     C49987   3.970   2.382   5.949  0.0783 -0.2395 -0.2328
  371MOL0     C49988   4.093   2.305   5.977 -0.3603  0.1378 -0.1280
  371MOL0     C49989   4.195   2.397   6.062  0.7976  0.1379 -0.1517
  371MOL0     C49990   4.284   2.317   6.159  0.6444  0.1773  0.2577
  371MOL0     C49991   4.395   2.404   6.227  0.2896  0.7430  0.8585
  371MOL0     C49992   4.480   2.322   6.325  0.9816  0.3596  0.9552
  371MOL0     C49993   4.565   2.420   6.420  1.3411  0.9988  0.0032
  371MOL0    Cl49994   4.674   2.306   6.491 -0.1000 -0.0373 -0.4495
  371MOL0     C49995   4.163   2.751   5.817 -0.6614  0.2160  0.0325
  371MOL0     C49996   4.252   2.859   5.790  1.6323 -0.0750 -0.1350
  371MOL0     O49997   4.520   2.962   5.937 -0.0161  0.2745 -0.1500
  371MOL0     C49998   4.482   3.291   5.805 -0.2400  0.6545 -0.3787
  371MOL0     C49999   4.549   3.408   5.794 -0.1731 -0.4546  0.2019
  371MOL0     N50000   5.051   3.933   5.866 -0.2703 -0.1292 -0.4419
  371MOL0     N50001   5.107   4.016   5.951 -0.0992  0.8432  0.3451
  371MOL0     C50002   5.078   5.064   6.619  1.0438 -0.6333 -0.2295
  371MOL0     C50003   5.087   5.183   6.544 -0.0592 -0.8283 -0.1299
  371MOL0     C50004   5.070   5.447   6.197  0.7690 -0.6461 -0.7408
  371MOL0     C50005   4.968   5.548   6.223 -0.3773  0.4205  0.3333
  371MOL0     C50006   4.933   5.638   6.127 -0.3441  0.2319  0.4831
  371MOL0     C50007   5.007   5.650   6.007  0.8752 -0.3019  0.4408
  371MOL0     O50008   4.991   5.745   5.914  0.3297 -1.3717 -0.0376
  371MOL0     C50009   4.963   5.712   5.784 -0.8980  0.7721  0.6164
  371MOL0     C50010   4.832   5.758   5.732 -0.2457 -0.2667 -0.0984
  371MOL0     C50011   4.719   5.671   5.767 -0.7194  0.1886 -0.7620
  371MOL0     C50012   4.730   5.514   5.775  0.1038 -0.7784 -0.7762
  371MOL0     C50013   4.733   5.456   5.646 -0.0008  0.8705  0.3458
  371MOL0     C50014   4.719   5.422   5.528  0.1515  0.2153 -0.7844
  371MOL0     C50015   5.110   5.562   5.983  0.0396  0.0088  1.1939
  371MOL0     C50016   5.149   5.464   6.072  0.0454 -0.1181  0.1570
  371MOL0     C50017   5.277   5.388   6.050 -0.4533 -0.6114  0.8874
  371MOL0     H50018   4.793   5.183   6.382 -2.1093  0.6351  2.6906
  371MOL0     H50019   4.752   4.986   6.546 -0.1703  1.2209  0.6550
  371MOL0     H50020   4.911   4.666   6.683 -1.4033 -0.6369 -1.5441
  371MOL0     H50021   4.861   4.749   6.538  0.9774  0.0328 -0.6026
  371MOL0     H50022   5.135   4.670   6.622 -1.4873  0.0724  1.1758
  371MOL0     H50023   5.116   4.790   6.490  1.7515  0.1299  1.9120
  371MOL0     H50024   4.995   4.509   6.473  1.3381  0.3924  0.4430
  371MOL0     H50025   5.157   4.548   6.420 -0.5173 -3.4688  2.6022
  371MOL0     H50026   4.897   4.693   6.341  0.1761  1.0862 -1.8758
  371MOL0     H50027   5.056   4.718   6.265  2.8612 -2.2849 -1.4454
  371MOL0     H50028   4.871   4.459   6.264  0.3369  0.6685  0.9799
  371MOL0     H50029   4.894   4.561   6.126  2.1282  3.3021 -0.3214
  371MOL0     H50030   5.148   4.481   6.157 -0.4466 -0.0938 -1.1924
  371MOL0     H50031   5.082   4.345   6.237  1.8492 -1.2478 -1.9149
  371MOL0     H50032   4.984   4.436   5.969 -0.2916  1.1940  2.0443
  371MOL0     H50033   4.923   4.295   6.059 -0.3085  0.2362 -0.7816
  371MOL0     H50034   5.191   4.302   5.925 -0.8646  4.0698  0.4417
  371MOL0     H50035   5.175   4.218   6.067  1.3936 -0.4927  0.0038
  371MOL0     H50036   4.923   4.199   5.740 -1.8469 -0.1716  2.5924
  371MOL0     H50037   4.911   4.015   5.569 -0.2036  0.6308  0.6936
  371MOL0     H50038   4.981   3.861   5.609 -2.8481 -1.9875 -3.7086
  371MOL0     H50039   4.709   3.943   5.724 -0.7290 -0.6140  1.5235
  371MOL0     H50040   4.742   3.814   5.611  0.7807  0.2218 -0.0995
  371MOL0     H50041   4.814   3.796   5.898 -3.0859 -0.5301  0.8546
  371MOL0     H50042   4.903   3.712   5.772 -0.8723 -1.7799  0.2013
  371MOL0     H50043   4.697   3.607   5.695 -0.1262 -0.1146  0.0532
  371MOL0     H50044   4.594   3.699   5.807 -0.6789 -0.0389 -0.3882
  371MOL0     H50045   4.798   3.366   6.028  1.0258 -1.5099  0.2792
  371MOL0     H50046   4.688   3.147   6.044  0.1413  0.1894 -0.0787
  371MOL0     H50047   4.231   2.989   6.097 -1.8273 -0.3627  0.9904
  371MOL0     H50048   4.095   2.784   6.147 -1.0994 -2.5553 -0.7362
  371MOL0     H50049   3.898   2.531   5.819 -1.3982 -3.8853  2.9515
  371MOL0     H50050   4.072   2.506   5.801  3.0942  3.9277  1.2882
  371MOL0     H50051   3.919   2.402   6.044  0.8880 -1.7950  0.5632
  371MOL0     H50052   3.904   2.312   5.898 -0.8678 -1.1182  2.0720
  371MOL0     H50053   4.061   2.228   6.048 -0.7990 -0.2597 -0.7499
  371MOL0     H50054   4.144   2.279   5.884 -0.8651  1.2692 -0.7439
  371MOL0     H50055   4.136   2.471   6.117  1.0430 -1.2578  2.0844
  371MOL0     H50056   4.263   2.445   5.991  4.0802 -2.8435  0.7474
  371MOL0     H50057   4.322   2.226   6.111  0.9977  1.6768 -2.4769
  371MOL0     H50058   4.231   2.288   6.251  0.8871  2.0585  1.0285
  371MOL0     H50059   4.471   2.438   6.157  0.1481  0.2070  0.4436
  371MOL0     H50060   4.348   2.488   6.280 -0.5598 -1.2926  3.5251
  371MOL0     H50061   4.535   2.256   6.257 -3.1267 -3.1286  0.6237
  371MOL0     H50062   4.416   2.254   6.382 -1.2877  1.3923 -0.2046
  371MOL0     H50063   4.614   2.494   6.357  2.5552  0.0912 -0.1587
  371MOL0     H50064   4.502   2.458   6.501  0.9337 -0.4347  0.3937
  371MOL0     H50065   4.143   2.679   5.739  3.0985 -2.8656  1.6385
  371MOL0     H50066   4.290   2.873   5.690  3.4444 -1.2430  0.3461
  371MOL0     H50067   4.405   3.269   5.732  2.5187 -0.9874 -3.0619
  371MOL0     H50068   4.525   3.486   5.723 -0.9084 -2.1380 -1.4817
  371MOL0     H50069   5.166   5.024   6.670  0.5022 -1.3730  0.1371
  371MOL0     H50070   5.175   5.244   6.561 -1.1752  0.6998  0.4131
  371MOL0     H50071   4.910   5.560   6.314  2.0997  1.4744  1.8750
  371MOL0     H50072   4.872   5.723   6.154  2.2397  1.6481  2.2730
  371MOL0     H50073   4.962   5.602   5.780 -1.0075  0.6272  3.2072
  371MOL0     H50074   5.040   5.746   5.714 -0.5838  2.2547  1.6401
  371MOL0     H50075   4.848   5.759   5.624  2.1833 -3.3349  0.0934
  371MOL0     H50076   4.813   5.860   5.765 -0.8078 -0.8386  1.4063
  371MOL0     H50077   4.639   5.696   5.696 -0.2090 -0.7854 -1.7127
  371MOL0     H50078   4.681   5.700   5.865 -0.2322 -1.2672 -0.1113
  371MOL0     H50079   4.800   5.480   5.852 -2.8408  0.5998  2.8109
  371MOL0     H50080   4.635   5.473   5.808  1.2803 -1.4342  2.0673
  371MOL0     H50081   4.702   5.400   5.425  2.5053 -0.1456 -1.1566
  371MOL0     H50082   5.177   5.567   5.897  2.0001 -0.3801  2.6386
  371MOL0     H50083   5.334   5.434   5.969 -3.4382 -0.3323 -1.2207
  371MOL0     H50084   5.327   5.380   6.147 -2.1389  0.4709  1.8863
  371MOL0     H50085   5.241   5.286   6.030 -0.3703 -1.0547  2.8059
  372MOL0     O50086   7.106   0.088   7.274 -0.5807  0.0636  0.3101
  372MOL0     C50087   7.028   0.008   7.333  0.6112  0.2562 -0.1018
  372MOL0     O50088   6.934   0.050   7.429 -0.2268  0.3325 -0.1333
  372MOL0     C50089   6.945   0.181   7.455  0.6464  0.2286  0.5654
  372MOL0     C50090   6.996   0.235   7.568 -0.0089 -0.1003 -0.3509
  372MOL0     C50091   6.989   0.372   7.599  0.6372 -0.0740 -0.3701
  372MOL0     C50092   6.936   0.465   7.513  0.6249 -0.3121  0.1687
  372MOL0     O50093   6.909   0.598   7.538  0.7014 -0.0905 -0.0749
  372MOL0     C50094   6.958   0.670   7.647  0.3993  0.4656  0.0140
  372MOL0     C50095   6.858   0.785   7.684  0.7165  0.4967 -0.5191
  372MOL0     C50096   6.840   0.881   7.564  0.2064  0.1045 -0.5103
  372MOL0     C50097   6.732   0.993   7.563  0.0113  0.0196  0.6935
  372MOL0     C50098   6.745   1.096   7.672  0.4326  0.7059 -0.5701
  372MOL0     C50099   6.641   1.213   7.680  0.3982  1.0249  0.7331
  372MOL0     C50100   6.599   1.279   7.541 -0.1938  0.6049  0.1919
  372MOL0     C50101   6.648   1.427   7.519 -0.9843  0.0130 -0.1161
  372MOL0     N50102   6.559   1.538   7.568  0.0384  0.3621 -0.3194
  372MOL0     C50103   6.492   1.623   7.476  0.2136  0.5283  1.0472
  372MOL0     C50104   6.445   1.719   7.563  0.4865  0.6212 -0.6393
  372MOL0     C50105   6.358   1.833   7.534  0.0908 -0.2425  0.2685
  372MOL0     C50106   6.219   1.803   7.580 -0.6740  0.5275 -1.2506
  372MOL0     C50107   6.125   1.912   7.564  0.5216 -1.1125 -0.7048
  372MOL0     C50108   5.992   1.872   7.616 -0.0903 -0.5750  0.0038
  372MOL0     O50109   5.918   1.803   7.511  0.3382  0.3392  0.4628
  372MOL0     C50110   5.792   1.738   7.529 -1.0985 -0.7588 -0.3109
  372MOL0     C50111   5.722   1.687   7.418 -0.1097 -0.6327  0.0586
  372MOL0     C50112   5.587   1.648   7.426  0.6316 -0.2843  0.3985
  372MOL0     C50113   5.537   1.640   7.558  0.3518  0.0109  0.3782
  372MOL0     C50114   5.391   1.622   7.575  0.0591  0.3818 -0.5917
  372MOL0     O50115   5.319   1.599   7.460  0.3843 -0.4443  0.0500
  372MOL0     C50116   5.186   1.590   7.458  0.5866  0.0950  0.1104
  372MOL0     C50117   5.109   1.692   7.513 -0.3316  0.4121  0.1308
  372MOL0     C50118   4.966   1.683   7.496  0.0034 -0.5602 -0.7633
  372MOL0     C50119   4.900   1.566   7.454 -0.6679 -0.0971 -0.0708
  372MOL0     O50120   4.770   1.569   7.487 -0.1616  0.5271  0.0925
  372MOL0     C50121   4.687   1.472   7.411 -0.1568 -0.4526 -0.1363
  372MOL0     C50122   4.539   1.484   7.434 -0.8694 -0.2127 -0.9828
  372MOL0     C50123   4.470   1.415   7.316  0.5516  1.0259 -0.7932
  372MOL0     C50124   4.327   1.364   7.371 -0.2059 -0.1807  1.1796
  372MOL0     C50125   4.224   1.307   7.266  0.3645  0.1748 -0.5491
  372MOL0     C50126   4.096   1.266   7.334  0.0902  0.3486  0.3672
  372MOL0     C50127   4.020   1.160   7.249 -0.2009  0.6972  0.6383
  372MOL0     C50128   3.889   1.119   7.319  0.0603 -0.3979  0.0527
  372MOL0    Cl50129   3.800   1.259   7.361  0.2996 -0.4537  0.2359
  372MOL0     C50130   4.985   1.462   7.410  0.1529  0.1756  0.5943
  372MOL0     C50131   5.124   1.475   7.397 -0.3081 -0.8003  0.5184
  372MOL0     O50132   5.352   1.619   7.692  0.4283  0.1594  0.1241
  372MOL0     C50133   5.612   1.666   7.670  0.5478 -0.0779 -0.0037
  372MOL0     C50134   5.731   1.729   7.650 -0.2314  0.5984 -0.2799
  372MOL0     N50135   6.476   1.685   7.690 -0.4839 -0.5363  0.1713
  372MOL0     N50136   6.547   1.582   7.696  0.4599 -0.4158  0.1586
  372MOL0     C50137   6.913   0.420   7.382  0.3535  0.4684  0.5879
  372MOL0     C50138   6.912   0.280   7.354  0.1576 -0.4988 -0.0988
  372MOL0     C50139   7.059  -0.134   7.332 -0.0004  0.1758 -0.4026
  372MOL0     C50140   6.963  -0.228   7.366 -0.5547 -0.5482  0.6436
  372MOL0     C50141   6.989  -0.366   7.368 -0.1552 -0.2622  0.2517
  372MOL0     C50142   7.119  -0.412   7.336  1.0427  0.0257 -0.3842
  372MOL0     O50143   7.146  -0.552   7.336  0.2369 -0.2193  0.0120
  372MOL0     C50144   7.194  -0.602   7.459  0.2286 -0.1275 -0.3750
  372MOL0     C50145   7.347  -0.634   7.440  0.7265 -0.0356  0.9597
  372MOL0     C50146   7.407  -0.724   7.562 -0.0796  0.5213  0.3320
  372MOL0     C50147   7.375  -0.685   7.705  0.2295 -0.4285 -0.3307
  372MOL0     C50148   7.455  -0.759   7.801 -0.5709  1.0423  0.0732
  372MOL0     C50149   7.535  -0.806   7.878  0.2622  0.5417 -0.1087
  372MOL0     C50150   7.218  -0.327   7.316 -0.1397 -0.1406  0.6942
  372MOL0     C50151   7.194  -0.188   7.308  0.4050 -0.4645 -0.2621
  372MOL0     C50152   7.328  -0.119   7.277  0.3290  0.0269 -0.0312
  372MOL0     H50153   7.027   0.164   7.644  2.6047 -0.8129 -1.9240
  372MOL0     H50154   7.012   0.389   7.704  0.5988  0.3449 -0.4279
  372MOL0     H50155   6.962   0.600   7.732  1.1183  0.8448  0.3028
  372MOL0     H50156   7.059   0.709   7.634  0.3841  0.8914  1.0845
  372MOL0     H50157   6.904   0.845   7.763  1.8977 -0.0076 -0.8015
  372MOL0     H50158   6.762   0.739   7.710  0.7106  0.5133 -0.5122
  372MOL0     H50159   6.819   0.823   7.474  0.3767 -0.4174 -0.2206
  372MOL0     H50160   6.939   0.927   7.558 -0.1775  0.9337 -0.6300
  372MOL0     H50161   6.750   1.045   7.468 -3.0203  2.7773  1.4518
  372MOL0     H50162   6.637   0.940   7.568 -0.7182  1.4141  2.7812
  372MOL0     H50163   6.745   1.044   7.769 -1.6516 -0.4940 -1.1683
  372MOL0     H50164   6.847   1.137   7.667  1.9070 -2.5768  0.1722
  372MOL0     H50165   6.553   1.177   7.735  0.5032  1.6821  1.3495
  372MOL0     H50166   6.679   1.291   7.746 -0.9524  0.8534  1.7696
  372MOL0     H50167   6.491   1.264   7.527 -0.2721 -3.1264  3.1579
  372MOL0     H50168   6.656   1.219   7.470 -1.0927 -1.4183  1.1195
  372MOL0     H50169   6.747   1.439   7.564  0.3011 -2.0768 -2.1585
  372MOL0     H50170   6.670   1.448   7.414 -0.2236  0.0902  0.0480
  372MOL0     H50171   6.469   1.625   7.370 -1.3107 -0.8183  1.3191
  372MOL0     H50172   6.389   1.924   7.585 -0.3794 -0.9299  1.8465
  372MOL0     H50173   6.366   1.860   7.428  0.5894 -0.5221  0.2285
  372MOL0     H50174   6.186   1.711   7.531 -1.2968 -0.8210  1.4911
  372MOL0     H50175   6.225   1.796   7.689 -0.6805  6.3931 -0.5611
  372MOL0     H50176   6.114   1.952   7.463 -2.3217 -1.1186 -0.4678
  372MOL0     H50177   6.145   1.994   7.633  0.7927 -1.1555 -0.7329
  372MOL0     H50178   5.940   1.966   7.636  1.0930  0.3997 -1.3085
  372MOL0     H50179   6.011   1.823   7.712 -0.6564  0.2234  0.5389
  372MOL0     H50180   5.761   1.698   7.318 -0.0209  1.5300  0.2810
  372MOL0     H50181   5.528   1.645   7.335 -3.2789  1.1703  2.6123
  372MOL0     H50182   5.166   1.773   7.559  1.0560 -0.5077  0.0990
  372MOL0     H50183   4.907   1.760   7.547 -1.1709 -1.5763 -0.5407
  372MOL0     H50184   4.709   1.479   7.304  0.0420  2.5539  0.0080
  372MOL0     H50185   4.714   1.375   7.454  1.6482  2.3859  6.3503
  372MOL0     H50186   4.522   1.424   7.524 -1.3630 -0.5305 -1.2853
  372MOL0     H50187   4.510   1.588   7.455  1.2524  0.0221  1.4040
  372MOL0     H50188   4.471   1.478   7.227 -1.1257  0.6013 -1.1419
  372MOL0     H50189   4.517   1.323   7.280  1.8153  2.0730 -1.9204
  372MOL0     H50190   4.278   1.444   7.427 -1.2714  2.1276 -2.6639
  372MOL0     H50191   4.354   1.281   7.436  0.5447 -0.4431  0.5463
  372MOL0     H50192   4.261   1.229   7.200 -1.4449 -1.6468  0.4979
  372MOL0     H50193   4.198   1.386   7.195  3.6964  2.9742  0.9788
  372MOL0     H50194   4.127   1.216   7.426  1.2141 -1.5102 -0.9371
  372MOL0     H50195   4.032   1.350   7.362  3.8020  3.5634  0.0680
  372MOL0     H50196   4.086   1.074   7.233  0.0947  0.8692  0.9068
  372MOL0     H50197   3.996   1.207   7.154 -1.1210 -1.4737 -0.2744
  372MOL0     H50198   3.822   1.064   7.251 -2.9056  0.6811  1.9201
  372MOL0     H50199   3.919   1.057   7.404  2.7586 -0.9205 -1.1746
  372MOL0     H50200   4.940   1.365   7.393  1.4334  0.0007 -2.6355
  372MOL0     H50201   5.190   1.398   7.359  3.5156  1.3749  2.2166
  372MOL0     H50202   5.575   1.669   7.772 -0.1210  1.4415 -0.2646
  372MOL0     H50203   5.786   1.764   7.737 -1.2565 -1.2776  1.2199
  372MOL0     H50204   6.882   0.482   7.298 -0.7738 -0.4904  0.2711
  372MOL0     H50205   6.876   0.246   7.258 -1.8775 -0.7706  0.7036
  372MOL0     H50206   6.864  -0.187   7.383 -1.2272 -1.5965 -0.5361
  372MOL0     H50207   6.902  -0.429   7.380 -2.6578  3.0433  1.0643
  372MOL0     H50208   7.149  -0.698   7.487  1.4866 -0.9493 -1.0497
  372MOL0     H50209   7.184  -0.533   7.542 -0.6441 -0.8771  0.1699
  372MOL0     H50210   7.398  -0.537   7.438 -1.0408  1.4003  6.3576
  372MOL0     H50211   7.350  -0.698   7.351 -4.1631  1.3655 -0.5330
  372MOL0     H50212   7.513  -0.744   7.542 -0.8180 -1.7051 -1.9661
  372MOL0     H50213   7.362  -0.821   7.542 -0.6671  0.9041 -0.2572
  372MOL0     H50214   7.384  -0.577   7.722 -1.2032 -0.3275 -0.0742
  372MOL0     H50215   7.270  -0.707   7.724  0.4324  0.8243  2.7270
  372MOL0     H50216   7.614  -0.860   7.926  0.9987  1.4301 -0.2935
  372MOL0     H50217   7.318  -0.359   7.287  0.0498  4.0131 -4.7973
  372MOL0     H50218   7.378  -0.154   7.186 -0.6532  0.9983 -0.9749
  372MOL0     H50219   7.305  -0.015   7.251 -3.1634 -0.2025  1.5723
  372MOL0     H50220   7.394  -0.134   7.363  1.2461 -2.1639 -1.0433
  373MOL0     O50221   0.569   0.877   8.399 -0.9668 -0.2762  0.3597
  373MOL0     C50222   0.661   0.866   8.480 -0.2588 -0.6591  0.4029
  373MOL0     O50223   0.789   0.881   8.444 -0.5807 -0.3865  0.0601
  373MOL0     C50224   0.817   0.833   8.316  0.2632 -0.7092  0.4482
  373MOL0     C50225   0.790   0.908   8.194  1.4795 -0.4757 -0.3685
  373MOL0     C50226   0.826   0.871   8.068 -0.7962  0.5981  0.5262
  373MOL0     C50227   0.888   0.747   8.052 -0.1491 -0.6296 -0.9248
  373MOL0     O50228   0.929   0.719   7.928 -0.5853  0.7952 -0.3117
  373MOL0     C50229   0.897   0.591   7.874  0.2293 -0.6601  1.5990
  373MOL0     C50230   0.818   0.617   7.749 -1.5851 -0.8814 -0.9535
  373MOL0     C50231   0.796   0.502   7.654 -0.3060  0.6385  0.3015
  373MOL0     C50232   0.663   0.547   7.590 -0.1828  0.2025  1.0413
  373MOL0     C50233   0.646   0.464   7.463 -0.4845  0.2461 -0.2908
  373MOL0     C50234   0.627   0.307   7.490  0.4516  0.6600  0.3535
  373MOL0     C50235   0.563   0.232   7.374  0.2049  0.7794  0.1051
  373MOL0     C50236   0.552   0.081   7.377 -0.0908 -0.1961  1.0915
  373MOL0     N50237   0.682   0.019   7.410  0.0913 -0.3209  0.1388
  373MOL0     C50238   0.747   0.006   7.540  0.3850 -0.2579  0.7691
  373MOL0     C50239   0.844  -0.080   7.526  0.0017 -0.2125 -0.1197
  373MOL0     C50240   0.934  -0.141   7.631  0.8327 -0.3508  0.8197
  373MOL0     C50241   0.854  -0.184   7.757 -0.0116 -0.4377  0.3227
  373MOL0     C50242   0.951  -0.206   7.873 -0.4265  0.2929 -0.5594
  373MOL0     C50243   0.873  -0.260   7.991  0.1018 -1.0968 -0.0116
  373MOL0     O50244   0.957  -0.338   8.081 -0.3558  0.0226  1.6421
  373MOL0     C50245   0.997  -0.275   8.197  0.6932 -0.3196 -0.0059
  373MOL0     C50246   1.022  -0.364   8.303 -1.8082 -0.2079 -0.0215
  373MOL0     C50247   1.074  -0.319   8.428 -0.3590  0.4068  0.6018
  373MOL0     C50248   1.094  -0.184   8.448 -0.2152 -0.1076 -0.0077
  373MOL0     C50249   1.159  -0.128   8.579 -0.4899  0.0548 -0.5762
  373MOL0     O50250   1.264  -0.207   8.628 -0.0548  0.8203  0.4789
  373MOL0     C50251   1.326  -0.163   8.742 -0.7339 -0.8160  0.0198
  373MOL0     C50252   1.326  -0.241   8.854  0.6560  0.5566  0.3806
  373MOL0     C50253   1.393  -0.206   8.971 -1.4854  0.2133 -0.1226
  373MOL0     C50254   1.467  -0.083   8.975  0.5960 -0.3663 -0.5727
  373MOL0     O50255   1.528  -0.050   9.093  0.1294 -0.2426  0.7045
  373MOL0     C50256   1.600   0.074   9.100  0.3566  0.3605 -0.8145
  373MOL0     C50257   1.511   0.195   9.102  0.4339 -1.1296  0.4831
  373MOL0     C50258   1.419   0.190   9.225  0.0043  0.0055 -0.4994
  373MOL0     C50259   1.349   0.330   9.236  0.5443  1.0665  0.7134
  373MOL0     C50260   1.236   0.339   9.331 -0.3455  0.2636 -0.3739
  373MOL0     C50261   1.200   0.483   9.369 -0.3930 -1.2047 -0.9055
  373MOL0     C50262   1.075   0.476   9.456  0.2680  0.7259 -0.5018
  373MOL0     C50263   1.005   0.609   9.463 -0.6761  1.1395 -0.7349
  373MOL0    Cl50264   1.082   0.697   9.609 -0.0778 -0.2286  0.4708
  373MOL0     C50265   1.478  -0.007   8.858  0.1617  0.3038  0.7682
  373MOL0     C50266   1.403  -0.044   8.747 -1.2651  0.4603  1.2246
  373MOL0     O50267   1.137  -0.008   8.610 -0.4822  0.2330  0.2169
  373MOL0     C50268   1.059  -0.093   8.344 -0.0104 -0.5906 -0.1903
  373MOL0     C50269   1.011  -0.134   8.223 -0.7190  0.3629  0.5127
  373MOL0     N50270   0.845  -0.118   7.395 -0.5615  0.3523  0.0178
  373MOL0     N50271   0.763  -0.053   7.322  0.2928 -0.1370  0.0904
  373MOL0     C50272   0.922   0.667   8.166 -0.4312 -0.0138  0.1036
  373MOL0     C50273   0.888   0.706   8.296  0.5062  0.1991 -0.9220
  373MOL0     C50274   0.629   0.829   8.623 -0.5840 -1.0785 -0.4413
  373MOL0     C50275   0.494   0.804   8.654 -0.2935  0.7154 -0.3713
  373MOL0     C50276   0.452   0.778   8.784 -0.0753  0.2419  0.0633
  373MOL0     C50277   0.536   0.777   8.892 -0.6059 -0.4968  0.7845
  373MOL0     O50278   0.494   0.780   9.017 -0.6685  0.6713 -0.0348
  373MOL0     C50279   0.357   0.748   9.055  1.1011  0.3484 -0.3859
  373MOL0     C50280   0.265   0.882   9.041 -1.0438 -0.4430  0.9716
  373MOL0     C50281   0.117   0.836   9.028  0.4884 -1.1284 -0.1977
  373MOL0     C50282   0.014   0.944   8.993  0.2116  1.1837  0.4849
  373MOL0     C50283   0.034   1.067   9.063 -0.4728 -0.8398 -0.4720
  373MOL0     C50284   0.063   1.163   9.134  0.9734 -0.2484  0.6472
  373MOL0     C50285   0.671   0.783   8.864  0.6661 -0.5737 -0.4195
  373MOL0     C50286   0.721   0.808   8.729  0.7284  0.1603 -0.5517
  373MOL0     C50287   0.871   0.811   8.716  0.4536 -0.3567 -0.4937
  373MOL0     H50288   0.736   1.001   8.190  1.7097 -0.2158  1.5841
  373MOL0     H50289   0.810   0.927   7.977  3.2504 -1.6333 -1.8548
  373MOL0     H50290   0.986   0.529   7.860 -2.6417 -4.4786 -2.6717
  373MOL0     H50291   0.828   0.538   7.940  0.1726 -0.5569  1.6232
  373MOL0     H50292   0.880   0.693   7.701  0.6923 -0.9274  1.6390
  373MOL0     H50293   0.730   0.673   7.781 -0.7105 -0.3718  0.6926
  373MOL0     H50294   0.796   0.404   7.703 -2.8573 -0.1703 -1.1306
  373MOL0     H50295   0.876   0.503   7.578  1.8012 -0.6047  2.3593
  373MOL0     H50296   0.575   0.525   7.651 -1.9705  0.6493 -1.2650
  373MOL0     H50297   0.660   0.653   7.565  2.6677  0.0407 -0.3250
  373MOL0     H50298   0.553   0.502   7.419  1.6679  4.5572 -1.6269
  373MOL0     H50299   0.724   0.484   7.388 -1.4624  3.5197 -0.5560
  373MOL0     H50300   0.729   0.270   7.502 -0.4335 -3.2994 -2.4625
  373MOL0     H50301   0.572   0.287   7.583  3.2548 -0.7351  1.8376
  373MOL0     H50302   0.625   0.253   7.287  1.0472  2.4149  1.0517
  373MOL0     H50303   0.464   0.273   7.354 -1.1435 -1.7786  1.0661
  373MOL0     H50304   0.485   0.045   7.456 -2.1826  1.3941  0.1229
  373MOL0     H50305   0.514   0.053   7.278  1.0575  1.5657  0.0916
  373MOL0     H50306   0.702   0.050   7.629 -2.2646  0.0460 -0.6046
  373MOL0     H50307   0.981  -0.233   7.594  2.9772  1.2401 -0.5923
  373MOL0     H50308   1.012  -0.067   7.648  0.7054 -0.1756  0.6463
  373MOL0     H50309   0.774  -0.114   7.785  0.1177  1.5763 -3.5027
  373MOL0     H50310   0.810  -0.279   7.725 -0.9061  0.8066 -2.5027
  373MOL0     H50311   0.999  -0.112   7.901  1.1884  0.2007 -2.7174
  373MOL0     H50312   1.016  -0.287   7.840 -1.3886 -0.1188 -1.4848
  373MOL0     H50313   0.805  -0.331   7.943 -0.3684  1.1053 -2.8570
  373MOL0     H50314   0.807  -0.182   8.028  0.8035 -0.3210 -0.3606
  373MOL0     H50315   1.012  -0.468   8.274  1.7500 -0.1157 -2.2848
  373MOL0     H50316   1.090  -0.397   8.501  2.6122  1.4691  1.2460
  373MOL0     H50317   1.282  -0.340   8.859  1.7534  0.0217 -0.0877
  373MOL0     H50318   1.386  -0.277   9.052  1.4232  1.6854  1.5721
  373MOL0     H50319   1.655   0.070   9.194  0.5880 -3.7214 -0.9379
  373MOL0     H50320   1.679   0.069   9.025  0.1703 -1.9781 -0.9362
  373MOL0     H50321   1.577   0.279   9.123 -0.3965 -0.0809 -0.9677
  373MOL0     H50322   1.449   0.211   9.014 -0.8395  1.7521  1.7707
  373MOL0     H50323   1.351   0.105   9.210  0.9500 -1.6957  3.4864
  373MOL0     H50324   1.471   0.173   9.320  2.1054  1.5600 -1.3035
  373MOL0     H50325   1.311   0.335   9.133  0.0670 -0.8964  0.7582
  373MOL0     H50326   1.412   0.419   9.245 -0.5866  1.8102  1.4720
  373MOL0     H50327   1.257   0.275   9.417 -0.0041 -0.6090 -1.0839
  373MOL0     H50328   1.149   0.303   9.275 -0.4220 -1.1143  0.5868
  373MOL0     H50329   1.277   0.535   9.427 -0.6092  1.7314 -3.0465
  373MOL0     H50330   1.184   0.538   9.276  0.7855  1.0308  0.1296
  373MOL0     H50331   1.117   0.445   9.553  3.1604 -0.8646 -2.1156
  373MOL0     H50332   1.017   0.391   9.420  0.2515  1.2149 -1.6802
  373MOL0     H50333   1.024   0.665   9.371  1.7543 -0.5513 -1.3794
  373MOL0     H50334   0.898   0.593   9.477 -0.5160  1.4937  1.1123
  373MOL0     H50335   1.534   0.086   8.847  0.6745 -0.0318  0.5177
  373MOL0     H50336   1.402   0.014   8.655  0.6065  2.9063  2.6220
  373MOL0     H50337   1.097   0.007   8.363  4.6497 -2.2142  0.5126
  373MOL0     H50338   0.982  -0.064   8.145 -2.9116 -1.9818 -0.9593
  373MOL0     H50339   0.995   0.587   8.161 -0.0883  0.0973  2.3524
  373MOL0     H50340   0.918   0.651   8.384  1.7286 -0.8632 -1.9627
  373MOL0     H50341   0.425   0.811   8.571  2.9532  3.3345 -3.1573
  373MOL0     H50342   0.346   0.772   8.805 -0.5034  2.6976 -1.0496
  373MOL0     H50343   0.356   0.710   9.158  1.3457 -0.5830 -0.7211
  373MOL0     H50344   0.320   0.663   8.997  2.9483 -2.2791  2.0489
  373MOL0     H50345   0.290   0.923   8.943  1.3612  0.7960  2.0200
  373MOL0     H50346   0.295   0.957   9.115  1.5619 -0.9069  0.4622
  373MOL0     H50347   0.083   0.791   9.121 -3.4493 -0.0870 -0.9693
  373MOL0     H50348   0.116   0.756   8.954 -0.5557 -2.4643  1.1875
  373MOL0     H50349   0.031   0.948   8.885 -1.4583 -4.0887 -0.2641
  373MOL0     H50350  -0.084   0.899   9.008 -0.3027  2.1412  0.0857
  373MOL0     H50351   0.100   1.249   9.186 -3.1016  1.4680  1.0632
  373MOL0     H50352   0.735   0.770   8.950  0.1156  0.6302  0.1971
  373MOL0     H50353   0.932   0.802   8.807  0.5972  0.3871 -0.5136
  373MOL0     H50354   0.896   0.726   8.653 -1.5756 -3.4948  2.5313
  373MOL0     H50355   0.898   0.905   8.669 -2.6340  2.2582  2.4013
  374MOL0     O50356   2.640   4.664  10.391 -0.7672 -1.3588 -0.0387
  374MOL0     C50357   2.546   4.599  10.355 -0.3249  0.0413 -0.1353
  374MOL0     O50358   2.416   4.623  10.373 -0.6888 -0.4186 -0.1008
  374MOL0     C50359   2.378   4.736  10.434 -0.0009  0.5738  0.2049
  374MOL0     C50360   2.405   4.768  10.569 -0.0961 -0.0191  0.3512
  374MOL0     C50361   2.359   4.884  10.633 -0.2799 -0.0206  0.6455
  374MOL0     C50362   2.284   4.979  10.559 -0.5981 -0.1672  0.0710
  374MOL0     O50363   2.242   5.101  10.610  0.1140 -0.6013 -0.3795
  374MOL0     C50364   2.318   5.164  10.716  0.0048  0.9413 -0.5474
  374MOL0     C50365   2.261   5.295  10.762 -0.3281 -0.4117  0.3206
  374MOL0     C50366   2.245   5.383  10.641 -0.6875 -0.6340  0.5407
  374MOL0     C50367   2.172   5.510  10.673  0.5512 -1.1686  1.0281
  374MOL0     C50368   2.020   5.469  10.656  0.8114  0.1725 -0.2929
  374MOL0     C50369   1.919   5.584  10.693  0.1883  0.5806 -0.2608
  374MOL0     C50370   1.871   5.583  10.836  0.6207  0.4520 -0.4437
  374MOL0     C50371   1.845   5.720  10.896  0.3153  0.4745 -0.4404
  374MOL0     N50372   1.710   5.779  10.875  0.0566  0.6452 -0.1208
  374MOL0     C50373   1.692   5.912  10.853 -0.9219  0.3198  0.6146
  374MOL0     C50374   1.562   5.934  10.887  0.8816  0.3473 -0.1257
  374MOL0     C50375   1.491   6.059  10.860  0.3419 -0.1993 -0.1583
  374MOL0     C50376   1.511   6.159  10.979  0.2049  1.2985  0.7170
  374MOL0     C50377   1.432   6.287  10.973 -1.3043  0.5395  0.9758
  374MOL0     C50378   1.518   6.405  11.010  0.0243  0.1149 -0.2670
  374MOL0     O50379   1.448   6.524  11.001 -0.1136  0.7125 -0.0744
  374MOL0     C50380   1.510   6.638  11.046  0.2247  0.0377 -0.1565
  374MOL0     C50381   1.644   6.641  11.088  0.5358 -0.2558 -0.7994
  374MOL0     C50382   1.693   6.747  11.162  0.1126 -0.7763 -0.4727
  374MOL0     C50383   1.605   6.862  11.185 -0.7177  0.8306  0.0806
  374MOL0     C50384   1.660   6.989  11.237 -0.3869  0.5564 -0.4277
  374MOL0     O50385   1.786   6.991  11.284  0.3347  0.5367  1.2173
  374MOL0     C50386   1.842   7.111  11.330  0.1402 -0.0326 -0.6223
  374MOL0     C50387   1.818   7.164  11.457 -0.8912 -0.3387  0.8525
  374MOL0     C50388   1.860   7.297  11.488 -0.7088 -0.1505 -0.2993
  374MOL0     C50389   1.953   7.363  11.399  0.6013  0.6700 -0.8177
  374MOL0     O50390   2.013   7.484  11.420  0.1232  0.1336 -0.2397
  374MOL0     C50391   2.018   7.537  11.555  0.4321 -0.7046  0.7925
  374MOL0     C50392   2.035   7.692  11.558 -0.6065 -0.0487 -0.5720
  374MOL0     C50393   1.931   7.762  11.474 -0.7169  0.5778  0.1199
  374MOL0     C50394   1.950   7.913  11.473  0.6536  0.1337  1.4406
  374MOL0     C50395   1.835   7.987  11.394  0.4686  0.2238 -0.6735
  374MOL0     C50396   1.873   8.123  11.368  0.4997 -1.0435 -0.5880
  374MOL0     C50397   1.791   8.205  11.273  1.0571  0.1351  0.4125
  374MOL0     C50398   1.806   8.361  11.296  0.9125  0.0800  0.7150
  374MOL0    Cl50399   1.687   8.464  11.193  0.3722  0.1991  0.3664
  374MOL0     C50400   1.994   7.296  11.286  0.2046  0.1944  0.0663
  374MOL0     C50401   1.941   7.174  11.254  0.0446  0.5849 -0.0416
  374MOL0     O50402   1.573   7.070  11.275 -0.2897  0.0668  0.3769
  374MOL0     C50403   1.470   6.856  11.128 -0.1443  0.1842 -0.4688
  374MOL0     C50404   1.421   6.735  11.078  0.1272  0.0972  0.4703
  374MOL0     N50405   1.505   5.816  10.936 -0.1674  0.2490 -0.0984
  374MOL0     N50406   1.596   5.724  10.938 -0.3163  0.3246  1.2028
  374MOL0     C50407   2.247   4.951  10.424  0.4676  0.0238 -0.3969
  374MOL0     C50408   2.294   4.829  10.366  0.2271 -0.4385 -0.1200
  374MOL0     C50409   2.568   4.484  10.265 -0.2738  0.1149  0.5609
  374MOL0     C50410   2.474   4.454  10.173 -0.1298  0.8110  0.0426
  374MOL0     C50411   2.484   4.353  10.072  0.2104 -0.5528  0.0652
  374MOL0     C50412   2.595   4.277  10.078 -0.6110  0.1133 -0.0452
  374MOL0     O50413   2.625   4.181   9.982 -0.2151 -0.3993 -0.5069
  374MOL0     C50414   2.526   4.081   9.974 -0.3730  0.0253 -1.1843
  374MOL0     C50415   2.598   3.939   9.978  0.4896  0.1020  0.0944
  374MOL0     C50416   2.692   3.931  10.095 -0.3673 -0.7420  0.7087
  374MOL0     C50417   2.611   3.961  10.233 -0.8709 -0.2003  0.1129
  374MOL0     C50418   2.711   3.965  10.343 -0.5072 -0.2417 -0.0659
  374MOL0     C50419   2.802   3.974  10.424  0.1991  0.2739  0.3505
  374MOL0     C50420   2.688   4.300  10.176 -0.6588  1.0302 -1.2336
  374MOL0     C50421   2.677   4.397  10.272 -0.3583  0.3040 -0.0658
  374MOL0     C50422   2.775   4.396  10.383 -0.0594 -0.1781 -0.5848
  374MOL0     H50423   2.458   4.690  10.623 -1.0972  0.4295  2.0342
  374MOL0     H50424   2.387   4.892  10.738  1.7658  4.2304 -0.0410
  374MOL0     H50425   2.324   5.100  10.805 -1.4970  1.3797 -0.1151
  374MOL0     H50426   2.416   5.188  10.672 -0.1098  1.1350 -0.6948
  374MOL0     H50427   2.319   5.344  10.841 -1.8815  0.1784  1.1257
  374MOL0     H50428   2.168   5.278  10.817  0.6049 -0.9286  1.8029
  374MOL0     H50429   2.207   5.328  10.554  0.3923 -0.7180  0.1060
  374MOL0     H50430   2.347   5.409  10.611 -0.3577 -1.4786  0.8881
  374MOL0     H50431   2.185   5.548  10.775 -0.8256  0.5541  0.6186
  374MOL0     H50432   2.198   5.588  10.601  3.3652 -0.1087  3.0218
  374MOL0     H50433   2.004   5.455  10.548  0.4255  0.5654 -0.2898
  374MOL0     H50434   1.993   5.380  10.713 -0.5744  1.5478  1.3070
  374MOL0     H50435   1.959   5.683  10.668 -0.8273  1.0230 -0.1790
  374MOL0     H50436   1.824   5.565  10.642 -0.5781 -1.9280  1.8706
  374MOL0     H50437   1.951   5.539  10.897  0.6041  0.2161 -0.5929
  374MOL0     H50438   1.778   5.527  10.846  1.6883 -1.3079  0.0964
  374MOL0     H50439   1.848   5.711  11.005  0.5365  0.9108 -0.4095
  374MOL0     H50440   1.927   5.784  10.862  2.3104 -1.5731  0.2568
  374MOL0     H50441   1.759   5.982  10.803 -1.8367 -1.5740 -3.7104
  374MOL0     H50442   1.532   6.097  10.766 -1.7780  1.8163 -0.3483
  374MOL0     H50443   1.383   6.059  10.846  0.3610  2.0937 -0.7112
  374MOL0     H50444   1.462   6.099  11.057 -0.6811 -2.3393 -2.3486
  374MOL0     H50445   1.614   6.185  11.006  0.2291  3.2556 -1.0501
  374MOL0     H50446   1.338   6.295  11.029 -3.5169  2.3194 -2.6296
  374MOL0     H50447   1.407   6.302  10.868  0.8503 -0.8339  0.1766
  374MOL0     H50448   1.607   6.418  10.947 -0.4374  2.3368 -0.5368
  374MOL0     H50449   1.545   6.384  11.114 -1.4251 -0.2362  0.0601
  374MOL0     H50450   1.714   6.561  11.064 -0.3866 -0.4144 -3.2617
  374MOL0     H50451   1.800   6.752  11.175  0.0564 -1.4186  0.3354
  374MOL0     H50452   1.743   7.118  11.520 -0.4260  0.5026  2.0657
  374MOL0     H50453   1.829   7.339  11.583  0.5128  0.3363 -0.0973
  374MOL0     H50454   1.922   7.532  11.607 -0.0293 -0.8744 -0.0616
  374MOL0     H50455   2.099   7.477  11.597  1.2079 -0.8046 -0.7893
  374MOL0     H50456   2.028   7.718  11.664 -2.1644  0.4638 -0.7845
  374MOL0     H50457   2.132   7.735  11.528 -0.6219 -2.4006 -4.7823
  374MOL0     H50458   1.944   7.722  11.373 -0.9566  0.4981  0.1193
  374MOL0     H50459   1.830   7.744  11.512 -1.5684 -0.2568 -2.2959
  374MOL0     H50460   2.042   7.921  11.415 -0.6945 -1.8319 -1.1567
  374MOL0     H50461   1.963   7.958  11.572  2.2927  3.9391 -0.3093
  374MOL0     H50462   1.744   7.977  11.455  2.6387 -1.9396  2.4926
  374MOL0     H50463   1.806   7.931  11.304  0.6658 -0.4037 -0.3566
  374MOL0     H50464   1.879   8.172  11.466 -0.2389 -0.3002 -0.8984
  374MOL0     H50465   1.970   8.122  11.317 -0.2603  0.5775 -2.1831
  374MOL0     H50466   1.695   8.158  11.298  2.2311 -1.6461  1.8558
  374MOL0     H50467   1.818   8.179  11.170  2.5127  2.1542  0.2361
  374MOL0     H50468   1.785   8.398  11.397 -0.3725  0.3332  0.3657
  374MOL0     H50469   1.907   8.390  11.266  1.5088 -3.6943 -1.6039
  374MOL0     H50470   2.057   7.326  11.203 -1.1299 -1.6633 -1.7205
  374MOL0     H50471   1.972   7.133  11.159  0.8537  1.7207 -0.2913
  374MOL0     H50472   1.396   6.935  11.138 -0.1233 -0.0485  2.3243
  374MOL0     H50473   1.324   6.716  11.033  1.0502  0.1812 -1.6588
  374MOL0     H50474   2.175   5.014  10.372 -3.0214 -1.6984  1.9326
  374MOL0     H50475   2.267   4.826  10.260 -2.8431 -0.4226  0.5557
  374MOL0     H50476   2.376   4.502  10.174 -1.6792 -2.1505  0.1326
  374MOL0     H50477   2.401   4.329  10.006  0.6252 -1.6529 -0.0740
  374MOL0     H50478   2.479   4.095   9.876 -1.2525  0.6749 -0.6835
  374MOL0     H50479   2.456   4.076  10.058 -0.2671  5.1916 -0.5090
  374MOL0     H50480   2.662   3.933   9.889  1.8708 -1.8036  1.1252
  374MOL0     H50481   2.525   3.858   9.986  0.6759  0.0573  1.7012
  374MOL0     H50482   2.780   3.995  10.085 -0.7704 -0.1747  0.7874
  374MOL0     H50483   2.721   3.826  10.082 -3.9325 -1.4949 -4.7438
  374MOL0     H50484   2.563   4.060  10.237  1.0690  0.8052 -0.5714
  374MOL0     H50485   2.540   3.883  10.262  1.4931 -1.1986  3.9104
  374MOL0     H50486   2.891   3.988  10.481 -0.7798 -2.6272  2.8819
  374MOL0     H50487   2.782   4.245  10.174  1.0474  3.7199 -0.3741
  374MOL0     H50488   2.830   4.490  10.373  0.4143 -0.2716  0.8935
  374MOL0     H50489   2.729   4.405  10.482  0.3545  0.1723 -0.4199
  374MOL0     H50490   2.842   4.309  10.392  0.3882  0.2262  0.1355
  375MOL0     O50491  10.005   6.354   6.696  0.5890  0.0901 -0.0617
  375MOL0     C50492  10.049   6.267   6.625  0.1451  0.3058  0.5377
  375MOL0     O50493  10.181   6.257   6.597 -0.0999  0.5570  0.8607
  375MOL0     C50494  10.260   6.342   6.655 -0.7713 -0.1870 -0.2132
  375MOL0     C50495  10.277   6.480   6.621  0.0003 -0.9990  0.9713
  375MOL0     C50496  10.371   6.556   6.688  0.4667 -0.6580  0.2869
  375MOL0     C50497  10.454   6.491   6.782  0.8152  0.6712  0.1475
  375MOL0     O50498  10.553   6.565   6.841  0.8074 -0.3249  0.2546
  375MOL0     C50499  10.619   6.527   6.963 -0.0094  0.2754 -0.7060
  375MOL0     C50500  10.691   6.654   7.012  0.6617  0.6835 -0.4612
  375MOL0     C50501  10.810   6.711   6.933  1.3674 -0.8132 -0.7894
  375MOL0     C50502  10.939   6.658   6.998  0.3273  1.2580 -0.8177
  375MOL0     C50503  11.069   6.722   6.960  0.2549  0.3548  0.7084
  375MOL0     C50504  11.094   6.870   6.998 -0.2757 -0.3020 -0.1084
  375MOL0     C50505  11.242   6.915   6.947 -0.6285 -0.2310 -0.4866
  375MOL0     C50506  11.271   6.887   6.801  0.3848 -0.0992  0.3899
  375MOL0     N50507  11.222   6.995   6.716 -0.0726 -0.3596 -0.1334
  375MOL0     C50508  11.301   7.061   6.613  0.1882 -0.2190  0.7661
  375MOL0     C50509  11.211   7.132   6.537 -0.2949 -0.2196 -1.0275
  375MOL0     C50510  11.238   7.201   6.407 -1.6369  0.5305  0.2842
  375MOL0     C50511  11.345   7.305   6.423 -1.5165 -0.2013 -0.6164
  375MOL0     C50512  11.345   7.406   6.306 -0.0855 -0.5776  0.0987
  375MOL0     C50513  11.464   7.508   6.316  0.2347  0.4945  0.2070
  375MOL0     O50514  11.580   7.434   6.303 -0.5457  0.1620  0.2159
  375MOL0     C50515  11.700   7.489   6.345 -0.1518 -0.2050  1.1918
  375MOL0     C50516  11.809   7.408   6.317 -0.1862  0.2477 -0.5298
  375MOL0     C50517  11.939   7.453   6.342 -0.6691 -0.4962 -0.1171
  375MOL0     C50518  11.954   7.579   6.405 -0.4633  0.7853 -0.1987
  375MOL0     C50519  12.090   7.631   6.444  0.5478  1.3303 -0.4945
  375MOL0     O50520  12.189   7.545   6.464 -0.1047  0.4762  0.4138
  375MOL0     C50521  12.319   7.587   6.439 -0.2470 -0.3748  0.7558
  375MOL0     C50522  12.410   7.557   6.538 -0.3446 -0.3516 -0.8397
  375MOL0     C50523  12.545   7.571   6.512  0.9141 -0.4066  0.4143
  375MOL0     C50524  12.591   7.626   6.393  0.0312  1.1818 -0.3329
  375MOL0     O50525  12.722   7.633   6.354 -0.1615  0.4390 -0.1032
  375MOL0     C50526  12.816   7.554   6.428  0.6895 -0.5713  0.6121
  375MOL0     C50527  12.910   7.638   6.520 -0.0228  0.7388  0.0983
  375MOL0     C50528  13.048   7.660   6.462  0.2917  0.0524 -0.6048
  375MOL0     C50529  13.151   7.700   6.573 -0.9933  0.4236 -0.0792
  375MOL0     C50530  13.293   7.717   6.517 -0.2313 -0.3530 -0.3607
  375MOL0     C50531  13.402   7.768   6.619  0.6416 -0.4348 -0.6393
  375MOL0     C50532  13.520   7.834   6.547 -0.3459 -0.1460  0.0955
  375MOL0     C50533  13.624   7.866   6.651 -0.7044 -0.0334  1.0024
  375MOL0    Cl50534  13.732   7.725   6.704  0.5062  0.2146 -0.2886
  375MOL0     C50535  12.496   7.661   6.299 -0.7100 -0.0131  0.3453
  375MOL0     C50536  12.361   7.631   6.313 -0.1681 -0.6363 -0.2834
  375MOL0     O50537  12.094   7.753   6.467  0.0164 -0.1029 -0.5691
  375MOL0     C50538  11.843   7.657   6.416  1.1223  0.7676 -0.2626
  375MOL0     C50539  11.718   7.613   6.396 -0.4235 -0.4275  0.4137
  375MOL0     N50540  11.082   7.111   6.596 -0.6411  0.1583  0.1861
  375MOL0     N50541  11.094   7.017   6.691 -0.4128  0.0242 -1.2123
  375MOL0     C50542  10.436   6.359   6.823  0.0518  0.5836 -0.0785
  375MOL0     C50543  10.334   6.293   6.758 -0.2515  0.4795  0.2415
  375MOL0     C50544   9.965   6.176   6.555  0.9380 -0.1397 -0.3371
  375MOL0     C50545   9.836   6.225   6.530  0.4623 -0.4573 -1.2137
  375MOL0     C50546   9.731   6.139   6.486 -0.0784 -0.1536  0.7641
  375MOL0     C50547   9.761   6.000   6.462  0.6590  0.4525 -0.4740
  375MOL0     O50548   9.664   5.904   6.421  0.6255 -0.3801 -0.2026
  375MOL0     C50549   9.517   5.932   6.440 -0.0684 -0.2818  0.1762
  375MOL0     C50550   9.428   6.015   6.342 -0.9023  0.0621  0.6130
  375MOL0     C50551   9.438   5.963   6.204 -0.7315 -0.3253 -0.5987
  375MOL0     C50552   9.338   5.852   6.173 -0.8041  0.0312 -0.4088
  375MOL0     C50553   9.335   5.727   6.264 -0.7095 -0.3495 -0.8149
  375MOL0     C50554   9.332   5.624   6.336 -0.7046  0.6334 -0.0043
  375MOL0     C50555   9.889   5.960   6.470 -0.4548 -0.0336 -0.3930
  375MOL0     C50556   9.997   6.043   6.517  0.2735  0.0238  0.4644
  375MOL0     C50557  10.134   5.983   6.542 -0.3524 -0.0172 -0.1190
  375MOL0     H50558  10.205   6.523   6.553  0.8997  2.5274  2.0378
  375MOL0     H50559  10.399   6.657   6.658  0.4810 -1.2700 -1.9306
  375MOL0     H50560  10.552   6.490   7.041 -2.6743 -3.0498 -4.2518
  375MOL0     H50561  10.690   6.447   6.942  0.5171  0.1241  1.3763
  375MOL0     H50562  10.729   6.623   7.110  1.0520 -0.4193 -0.9477
  375MOL0     H50563  10.610   6.726   7.029 -0.2761 -0.8058  1.8546
  375MOL0     H50564  10.802   6.820   6.943  0.6380 -0.7130 -2.1086
  375MOL0     H50565  10.808   6.687   6.826  1.1571 -2.5154 -0.4381
  375MOL0     H50566  10.932   6.668   7.106  1.7524  2.5810 -0.8032
  375MOL0     H50567  10.949   6.551   6.977 -2.6428  0.7359 -0.0657
  375MOL0     H50568  11.143   6.650   6.994 -2.8718 -1.6390  4.0910
  375MOL0     H50569  11.064   6.723   6.851  1.4601  1.0132  0.6436
  375MOL0     H50570  11.023   6.935   6.947  0.8189  3.2731  2.5312
  375MOL0     H50571  11.095   6.873   7.107  3.3461 -2.0639  0.0881
  375MOL0     H50572  11.308   6.849   7.005 -0.0457 -0.7160 -1.6569
  375MOL0     H50573  11.265   7.016   6.982 -1.0462 -0.2192 -0.2392
  375MOL0     H50574  11.378   6.899   6.782 -0.1183 -0.4898 -3.5365
  375MOL0     H50575  11.239   6.791   6.759 -1.8401  0.2643  1.1510
  375MOL0     H50576  11.407   7.045   6.594  0.5212 -1.1627  3.1059
  375MOL0     H50577  11.280   7.125   6.341  0.7586 -1.0604  3.3615
  375MOL0     H50578  11.150   7.244   6.358 -0.5568  4.2429  1.2722
  375MOL0     H50579  11.347   7.340   6.527  4.0648 -1.6216  0.0839
  375MOL0     H50580  11.440   7.254   6.405 -0.7643  1.1350 -0.6068
  375MOL0     H50581  11.252   7.463   6.304  0.0682 -0.3309 -0.0335
  375MOL0     H50582  11.362   7.343   6.218 -1.6494 -1.9659  0.7397
  375MOL0     H50583  11.464   7.555   6.415  0.8944  3.3927 -1.0701
  375MOL0     H50584  11.448   7.575   6.231 -2.8137  0.1983  0.4371
  375MOL0     H50585  11.799   7.308   6.278 -0.8844  0.9802 -2.3300
  375MOL0     H50586  12.021   7.385   6.319 -1.4234 -1.0794 -1.1503
  375MOL0     H50587  12.367   7.506   6.624  0.9594  0.5960  0.4239
  375MOL0     H50588  12.618   7.542   6.586  1.6014  0.6232  0.1619
  375MOL0     H50589  12.770   7.481   6.495 -1.8664 -0.9086 -1.3555
  375MOL0     H50590  12.875   7.494   6.358 -0.5634 -0.3480 -0.6902
  375MOL0     H50591  12.858   7.733   6.534  0.5298  0.9512  0.7554
  375MOL0     H50592  12.922   7.594   6.619  0.7597  3.1402  1.1311
  375MOL0     H50593  13.078   7.563   6.420 -0.3391 -0.6886  0.5842
  375MOL0     H50594  13.053   7.727   6.376  0.9052 -0.1295 -0.7160
  375MOL0     H50595  13.148   7.625   6.653 -1.0173  1.7906  1.2396
  375MOL0     H50596  13.126   7.801   6.607 -1.9754  1.0694 -2.4803
  375MOL0     H50597  13.285   7.795   6.441 -0.4062 -0.5855 -0.5813
  375MOL0     H50598  13.314   7.618   6.478 -0.5977 -0.6324  0.1374
  375MOL0     H50599  13.354   7.833   6.693 -1.7595 -1.6743 -1.0017
  375MOL0     H50600  13.446   7.678   6.662 -0.3156 -0.1336  1.0891
  375MOL0     H50601  13.483   7.934   6.525  1.0975  0.1025 -1.3446
  375MOL0     H50602  13.570   7.768   6.475 -0.2335 -1.8274  1.6475
  375MOL0     H50603  13.685   7.949   6.613 -0.6064 -1.2206 -1.6446
  375MOL0     H50604  13.572   7.899   6.742 -2.0803 -1.7137  0.8673
  375MOL0     H50605  12.536   7.703   6.207 -1.5823  0.7564  0.3008
  375MOL0     H50606  12.287   7.654   6.237 -0.4592  1.3575  0.5437
  375MOL0     H50607  11.858   7.752   6.465 -0.9266  1.7252 -1.3393
  375MOL0     H50608  11.640   7.681   6.431 -0.8737 -1.2867  1.1045
  375MOL0     H50609  10.486   6.296   6.896 -2.2925 -0.9753  0.2942
  375MOL0     H50610  10.314   6.187   6.772  0.4449  0.6211  2.9430
  375MOL0     H50611   9.802   6.325   6.556 -1.8354 -2.0746  2.8357
  375MOL0     H50612   9.630   6.171   6.462  0.1899 -1.1076 -2.0186
  375MOL0     H50613   9.505   5.975   6.539 -0.9981  0.2493 -0.1548
  375MOL0     H50614   9.468   5.834   6.451 -1.0979  0.0762 -0.9654
  375MOL0     H50615   9.455   6.120   6.326  0.2050 -0.4511 -1.2217
  375MOL0     H50616   9.329   6.016   6.387  0.2396 -1.4205  3.3988
  375MOL0     H50617   9.535   5.918   6.179 -1.2366 -0.9275 -1.5414
  375MOL0     H50618   9.430   6.038   6.125  2.5846 -0.6555 -1.3980
  375MOL0     H50619   9.240   5.901   6.175 -0.2594  1.1996 -1.0723
  375MOL0     H50620   9.354   5.835   6.066 -1.7386  2.1753 -0.9629
  375MOL0     H50621   9.326   5.535   6.396  1.4513  1.7499  2.0537
  375MOL0     H50622   9.895   5.854   6.450  0.4956  0.2154 -1.4901
  375MOL0     H50623  10.167   6.013   6.642 -2.7456 -0.5914  0.9109
  375MOL0     H50624  10.142   5.874   6.537  0.2855 -0.2675  3.5238
  375MOL0     H50625  10.210   6.025   6.475  0.5789 -3.3441 -1.3203
  376MOL0     O50626   9.605   5.270   8.710 -0.2247 -0.7347  0.5680
  376MOL0     C50627   9.547   5.167   8.751  0.0888  0.0356 -0.6684
  376MOL0     O50628   9.537   5.043   8.695 -0.2323 -0.4422 -0.0699
  376MOL0     C50629   9.590   5.029   8.570  0.3513 -0.6434 -0.5219
  376MOL0     C50630   9.537   5.090   8.460  0.1541  0.1428 -0.2214
  376MOL0     C50631   9.590   5.077   8.333 -0.5831 -0.5357  0.5162
  376MOL0     C50632   9.706   4.995   8.305  0.5466 -0.9025  0.1820
  376MOL0     O50633   9.773   4.969   8.188  0.0016 -0.0458 -0.1958
  376MOL0     C50634   9.802   5.088   8.106 -0.8559  0.6415  0.0136
  376MOL0     C50635   9.921   5.059   8.018  0.0907 -1.1785  0.2884
  376MOL0     C50636   9.945   5.164   7.912  0.7089 -0.2761  0.0653
  376MOL0     C50637   9.909   5.104   7.766  0.1898 -0.2035 -0.1317
  376MOL0     C50638   9.904   5.213   7.653  0.0799 -0.2373  0.2178
  376MOL0     C50639   9.779   5.310   7.662 -0.0827  0.3613  0.6133
  376MOL0     C50640   9.793   5.429   7.558  0.2181 -0.8172 -0.5994
  376MOL0     C50641   9.891   5.536   7.605  0.1997 -0.0011 -0.2246
  376MOL0     N50642   9.851   5.624   7.712  0.3524  0.0195  0.4792
  376MOL0     C50643   9.941   5.684   7.804  0.6391 -0.0799  0.4458
  376MOL0     C50644   9.853   5.744   7.888 -0.5632  0.3500 -0.6102
  376MOL0     C50645   9.887   5.813   8.011 -0.6678 -0.6462 -0.7942
  376MOL0     C50646  10.011   5.915   7.987  0.0896  0.1395  0.2990
  376MOL0     C50647  10.019   6.012   8.110  0.0104  0.4137 -0.2675
  376MOL0     C50648  10.077   6.136   8.082  0.1093 -0.4595  0.7566
  376MOL0     O50649  10.210   6.118   8.117  0.0169 -0.7428 -0.1684
  376MOL0     C50650  10.302   6.210   8.161 -0.1505  0.8359  0.2389
  376MOL0     C50651  10.432   6.151   8.187  0.5457 -0.6235 -0.1269
  376MOL0     C50652  10.543   6.222   8.217 -0.2016  0.6929  0.2097
  376MOL0     C50653  10.537   6.362   8.209  0.8969 -0.3550 -0.8198
  376MOL0     C50654  10.656   6.444   8.231 -0.8005 -0.5405  0.6575
  376MOL0     O50655  10.645   6.582   8.222 -0.6589 -0.1210  0.5861
  376MOL0     C50656  10.750   6.674   8.228  0.5164  0.3580 -0.5589
  376MOL0     C50657  10.884   6.649   8.213 -0.0171 -0.6947  0.5608
  376MOL0     C50658  10.971   6.756   8.221  0.3380  0.4036 -0.6433
  376MOL0     C50659  10.933   6.887   8.254  0.6917 -0.0036 -0.9115
  376MOL0     O50660  11.028   6.973   8.294  0.1071  0.1266 -0.4885
  376MOL0     C50661  11.006   7.107   8.327 -0.1452 -0.3334 -0.0164
  376MOL0     C50662  11.138   7.183   8.340  0.3430 -0.3319  0.1698
  376MOL0     C50663  11.237   7.145   8.222 -1.2689  0.3860 -0.8074
  376MOL0     C50664  11.368   7.217   8.236 -0.0524 -0.4894 -0.1074
  376MOL0     C50665  11.349   7.366   8.250 -0.4967 -0.2260  0.1951
  376MOL0     C50666  11.488   7.440   8.267  0.0897  0.5722 -0.4490
  376MOL0     C50667  11.468   7.588   8.219  0.0761 -0.6799  0.0179
  376MOL0     C50668  11.586   7.678   8.249  0.4676 -0.4388  0.1173
  376MOL0    Cl50669  11.742   7.602   8.200  0.0970  0.4483 -0.4912
  376MOL0     C50670  10.801   6.914   8.241 -0.0211 -0.0827 -0.2112
  376MOL0     C50671  10.703   6.810   8.247  0.1069  1.0787 -0.3328
  376MOL0     O50672  10.762   6.390   8.265 -0.0339  0.0173  0.4156
  376MOL0     C50673  10.414   6.423   8.183  0.3563 -0.3162 -0.2710
  376MOL0     C50674  10.298   6.350   8.175  0.6336 -0.0249 -0.2512
  376MOL0     N50675   9.719   5.730   7.851  0.3819 -0.1413 -0.3808
  376MOL0     N50676   9.721   5.669   7.742 -0.1482  0.7027  0.5696
  376MOL0     C50677   9.753   4.940   8.423 -0.7357 -0.6166 -1.0598
  376MOL0     C50678   9.704   4.949   8.548  0.4080 -0.0536  0.3849
  376MOL0     C50679   9.470   5.181   8.878 -0.6743 -0.6854 -0.1398
  376MOL0     C50680   9.363   5.094   8.893 -0.5711  0.2216  0.0530
  376MOL0     C50681   9.279   5.103   9.014  0.0619 -0.0550 -0.5404
  376MOL0     C50682   9.300   5.211   9.104  0.1646  0.8049 -0.1773
  376MOL0     O50683   9.223   5.247   9.214 -0.2098 -0.6437  0.3681
  376MOL0     C50684   9.111   5.173   9.254  0.6177 -0.3919  0.8858
  376MOL0     C50685   8.980   5.251   9.230  0.9754  0.9238  0.3900
  376MOL0     C50686   8.943   5.292   9.087 -0.3200 -0.4251 -0.9485
  376MOL0     C50687   9.009   5.422   9.051 -0.7881  0.2930  0.0645
  376MOL0     C50688   8.915   5.513   8.983 -0.3351 -0.4855  0.3819
  376MOL0     C50689   8.841   5.593   8.931  0.2382 -0.2940  0.2310
  376MOL0     C50690   9.401   5.307   9.079 -0.0630  0.0400 -0.3399
  376MOL0     C50691   9.490   5.292   8.973 -0.8889  0.3541  0.5625
  376MOL0     C50692   9.598   5.402   8.979  0.6208  0.9545 -0.8510
  376MOL0     H50693   9.449   5.154   8.465 -0.5720 -0.9408  2.0852
  376MOL0     H50694   9.533   5.115   8.248  0.5848 -0.4097 -0.2347
  376MOL0     H50695   9.720   5.118   8.040  0.6275  0.2250 -2.1389
  376MOL0     H50696   9.840   5.166   8.172  1.5433 -0.3863 -0.0326
  376MOL0     H50697   9.914   4.963   7.966  2.0389 -0.2772 -1.8140
  376MOL0     H50698  10.014   5.056   8.076  1.1095 -1.5367 -1.2768
  376MOL0     H50699  10.051   5.185   7.927  0.2244  0.2636  3.7817
  376MOL0     H50700   9.894   5.257   7.938  0.2057 -0.6314  0.3639
  376MOL0     H50701   9.986   5.030   7.745  1.6809  0.2908  3.0385
  376MOL0     H50702   9.814   5.049   7.766  0.9794 -1.6620 -1.6892
  376MOL0     H50703   9.999   5.265   7.666  0.5658 -1.5350  2.5337
  376MOL0     H50704   9.907   5.170   7.553  1.1224 -3.0285  1.3188
  376MOL0     H50705   9.683   5.258   7.650  0.2228 -0.4695  1.5835
  376MOL0     H50706   9.779   5.362   7.759 -0.5515  0.0766  0.7691
  376MOL0     H50707   9.694   5.476   7.554 -0.5740 -2.4728 -3.7270
  376MOL0     H50708   9.803   5.388   7.457 -1.7381 -1.6932 -0.5019
  376MOL0     H50709   9.988   5.497   7.637  1.5274  2.9536 -0.3325
  376MOL0     H50710   9.910   5.579   7.507  0.6272 -0.5404 -0.3810
  376MOL0     H50711  10.049   5.675   7.815  1.1770 -2.4428 -4.2005
  376MOL0     H50712   9.809   5.878   8.053 -1.2578 -1.7351 -0.1435
  376MOL0     H50713   9.918   5.745   8.091  0.6020  1.1650  0.3341
  376MOL0     H50714  10.108   5.864   7.984  0.0827  0.1239  0.3544
  376MOL0     H50715   9.999   5.976   7.897 -0.7309 -1.4083 -0.6867
  376MOL0     H50716  10.057   5.962   8.199 -2.0164  2.5586  1.9452
  376MOL0     H50717   9.916   6.031   8.141 -0.3998 -2.2439  0.2776
  376MOL0     H50718  10.025   6.204   8.150 -1.7635  0.7697 -1.7681
  376MOL0     H50719  10.076   6.170   7.978 -1.5158 -3.0382 -0.1426
  376MOL0     H50720  10.446   6.043   8.186 -0.4909 -0.7664 -0.3193
  376MOL0     H50721  10.634   6.166   8.237 -0.3008  0.4185 -0.0988
  376MOL0     H50722  10.924   6.553   8.185  3.2645 -0.1350  2.7247
  376MOL0     H50723  11.075   6.729   8.239 -0.0305 -0.2693  0.5742
  376MOL0     H50724  10.949   7.161   8.251 -0.9085  0.4285  1.0727
  376MOL0     H50725  10.940   7.133   8.411  2.2910  3.8379  0.8747
  376MOL0     H50726  11.121   7.291   8.336  0.5678 -0.3309 -2.0144
  376MOL0     H50727  11.186   7.163   8.436 -0.6877  0.2203  0.8135
  376MOL0     H50728  11.267   7.040   8.225  0.7893  0.9291  2.4535
  376MOL0     H50729  11.202   7.156   8.119 -1.8237 -0.6727 -0.7422
  376MOL0     H50730  11.430   7.196   8.148 -3.2623  0.0945 -2.7363
  376MOL0     H50731  11.420   7.175   8.323  0.1624  0.0216  0.0105
  376MOL0     H50732  11.299   7.392   8.344 -0.2975 -0.3658  0.3412
  376MOL0     H50733  11.290   7.412   8.171  1.6295 -2.6164 -3.0018
  376MOL0     H50734  11.529   7.435   8.369  3.9966  1.2707 -1.8032
  376MOL0     H50735  11.555   7.394   8.194 -1.1794  1.6713 -2.3918
  376MOL0     H50736  11.375   7.619   8.268  1.2338 -0.6675  2.3579
  376MOL0     H50737  11.449   7.592   8.111  3.4691 -0.6298 -0.7020
  376MOL0     H50738  11.587   7.784   8.220 -3.9590  0.1449  1.3679
  376MOL0     H50739  11.580   7.680   8.359 -3.2056 -2.1147  0.0713
  376MOL0     H50740  10.779   7.020   8.246  1.2367  0.2248 -0.8759
  376MOL0     H50741  10.600   6.845   8.252  0.6445  2.5713  1.4305
  376MOL0     H50742  10.395   6.529   8.171 -3.0158 -0.6098  1.3517
  376MOL0     H50743  10.202   6.397   8.155 -0.1857 -2.6817 -3.5164
  376MOL0     H50744   9.843   4.886   8.395  2.7573  2.8764  2.1474
  376MOL0     H50745   9.764   4.902   8.625  0.1894  0.1576  0.6881
  376MOL0     H50746   9.316   5.029   8.820 -2.1498  0.0399  1.1725
  376MOL0     H50747   9.187   5.046   9.012  0.2075 -0.2792 -1.1823
  376MOL0     H50748   9.121   5.152   9.361 -0.9219 -1.5010  0.8504
  376MOL0     H50749   9.111   5.075   9.204 -1.1399 -0.5681  1.1687
  376MOL0     H50750   8.969   5.332   9.302 -0.5076  0.8866  0.2392
  376MOL0     H50751   8.915   5.166   9.252  1.0313  1.1683  1.5532
  376MOL0     H50752   8.834   5.303   9.088 -0.5172 -2.1797 -0.9410
  376MOL0     H50753   8.981   5.220   9.015  0.8155 -1.0403  0.2136
  376MOL0     H50754   9.048   5.469   9.142 -0.4034  0.8593 -0.3879
  376MOL0     H50755   9.090   5.392   8.984 -2.4956 -1.4091 -1.3295
  376MOL0     H50756   8.774   5.670   8.900  2.9643  2.0975 -0.1660
  376MOL0     H50757   9.414   5.393   9.144  2.1664  0.3215 -1.0611
  376MOL0     H50758   9.691   5.371   8.930 -0.8912 -1.0901 -2.6161
  376MOL0     H50759   9.556   5.489   8.928 -1.4645 -0.9255 -2.5585
  376MOL0     H50760   9.621   5.431   9.082 -0.8143 -0.1817 -0.1797
  377MOL0     O50761  10.000   7.674   6.394 -0.3692 -0.0269  0.5784
  377MOL0     C50762   9.880   7.642   6.404  0.3322 -0.1610 -0.9978
  377MOL0     O50763   9.800   7.674   6.516 -0.6621  0.3859  0.2799
  377MOL0     C50764   9.830   7.783   6.589 -0.4771 -0.3261 -0.3331
  377MOL0     C50765   9.880   7.906   6.524  0.3391  0.4267 -0.1136
  377MOL0     C50766   9.890   8.023   6.592 -0.2914 -0.4208 -0.1221
  377MOL0     C50767   9.865   8.030   6.725  0.8016  0.4359  0.7588
  377MOL0     O50768   9.868   8.148   6.798 -1.1667 -0.1925  0.2537
  377MOL0     C50769   9.891   8.280   6.743 -0.1223 -0.1706  0.7556
  377MOL0     C50770  10.045   8.302   6.729 -1.4320 -0.1486 -0.6977
  377MOL0     C50771  10.085   8.439   6.688  0.4093  0.1856  1.2897
  377MOL0     C50772  10.068   8.478   6.548 -0.2244 -0.6725  0.8804
  377MOL0     C50773  10.154   8.410   6.432 -0.5912 -0.3849 -0.3388
  377MOL0     C50774  10.133   8.480   6.298  0.1251 -0.3618 -0.6487
  377MOL0     C50775  10.181   8.383   6.192 -0.4219 -0.6400 -0.6112
  377MOL0     C50776  10.203   8.448   6.056  0.4871  0.7954  0.4875
  377MOL0     N50777  10.233   8.349   5.956  0.5129  0.2547  0.0469
  377MOL0     C50778  10.350   8.271   5.939 -0.8081  0.0341 -0.1808
  377MOL0     C50779  10.326   8.188   5.836 -0.3686  0.2000 -0.5647
  377MOL0     C50780  10.445   8.107   5.780  0.9028 -0.2265  0.5954
  377MOL0     C50781  10.565   8.180   5.714  0.1169  0.0455 -0.3517
  377MOL0     C50782  10.525   8.314   5.648 -1.4668 -0.2763  0.5316
  377MOL0     C50783  10.649   8.392   5.577 -0.5743  1.0337 -0.0606
  377MOL0     O50784  10.741   8.447   5.674  0.9150  0.1501 -0.2742
  377MOL0     C50785  10.782   8.579   5.654 -0.2336  0.5881  0.0965
  377MOL0     C50786  10.803   8.674   5.760  0.2547  0.1049 -0.0361
  377MOL0     C50787  10.819   8.811   5.737  0.0915 -0.3350 -0.1251
  377MOL0     C50788  10.833   8.861   5.609  0.0393 -0.5174 -0.7281
  377MOL0     C50789  10.858   8.999   5.586 -0.0055  1.0910 -0.0613
  377MOL0     O50790  10.821   9.044   5.457  0.3964  0.4809  0.2127
  377MOL0     C50791  10.847   9.173   5.429  0.1673 -0.6217 -0.2916
  377MOL0     C50792  10.968   9.247   5.450  0.2539  0.3644 -1.0468
  377MOL0     C50793  10.982   9.378   5.406 -0.2332 -0.5967  0.0037
  377MOL0     C50794  10.872   9.452   5.363  0.6291  0.2063  0.1756
  377MOL0     O50795  10.882   9.576   5.322  0.3622  0.4691 -0.0667
  377MOL0     C50796  10.976   9.660   5.387 -0.2586 -0.7610 -0.1537
  377MOL0     C50797  10.936   9.794   5.329  0.0091 -0.4776  0.9726
  377MOL0     C50798  10.925   9.802   5.176 -0.6295 -0.4090  0.8199
  377MOL0     C50799  10.976   9.939   5.126  0.1486 -0.3707 -0.3658
  377MOL0     C50800  10.983   9.960   4.979 -0.3136  0.2753 -0.6155
  377MOL0     C50801  11.084  10.082   4.960 -0.0785  0.5710  0.2537
  377MOL0     C50802  11.088  10.125   4.818 -0.0385  0.8696  0.2875
  377MOL0     C50803  11.152  10.266   4.818  0.9714  0.0280 -0.1443
  377MOL0    Cl50804  11.163  10.306   4.640  0.0805  0.1917 -0.0125
  377MOL0     C50805  10.762   9.376   5.333  0.3034  0.1816  0.9749
  377MOL0     C50806  10.741   9.243   5.364 -0.5514 -0.9285  0.0554
  377MOL0     O50807  10.912   9.070   5.667  0.9643 -0.1903 -0.3896
  377MOL0     C50808  10.836   8.766   5.501  0.3252  0.2831  0.5680
  377MOL0     C50809  10.802   8.633   5.519  0.1182 -0.0665 -1.4966
  377MOL0     N50810  10.199   8.208   5.790  0.0044  0.4940  0.3419
  377MOL0     N50811  10.139   8.303   5.855  0.1187  0.7852  0.3851
  377MOL0     C50812   9.819   7.913   6.792 -0.0370 -0.4811 -0.6462
  377MOL0     C50813   9.816   7.794   6.729 -0.2447  0.3525 -0.1158
  377MOL0     C50814   9.810   7.574   6.297  0.5989  0.0571  0.9427
  377MOL0     C50815   9.673   7.539   6.324  0.7860 -0.2101 -0.4313
  377MOL0     C50816   9.588   7.463   6.243  0.2962 -0.8324  0.0153
  377MOL0     C50817   9.644   7.424   6.121  0.2641 -0.5016  0.2250
  377MOL0     O50818   9.551   7.364   6.043  0.0565 -0.3733  0.0191
  377MOL0     C50819   9.586   7.228   6.013  0.0164 -0.9949 -0.2475
  377MOL0     C50820   9.631   7.197   5.873  1.2658  0.0639  0.0502
  377MOL0     C50821   9.699   7.060   5.866  0.0485  0.5252  0.5785
  377MOL0     C50822   9.764   7.033   5.726  0.6986 -0.4774  0.7736
  377MOL0     C50823   9.868   7.129   5.693 -0.3584 -0.6961 -0.4376
  377MOL0     C50824   9.953   7.207   5.648  1.0331 -0.1376  0.7731
  377MOL0     C50825   9.765   7.476   6.074  0.4661 -0.3855 -0.8453
  377MOL0     C50826   9.849   7.551   6.159  0.4078  0.2349 -0.7591
  377MOL0     C50827   9.987   7.596   6.105  1.0409 -0.9827  0.5232
  377MOL0     H50828   9.912   7.902   6.420  5.0536  0.4272  1.1302
  377MOL0     H50829   9.909   8.106   6.525  1.0762 -0.5275  0.0973
  377MOL0     H50830   9.852   8.282   6.641  3.7024  2.0987 -0.8716
  377MOL0     H50831   9.838   8.345   6.813 -3.3812 -0.4309 -1.2503
  377MOL0     H50832  10.093   8.234   6.659 -0.4158  0.2479 -0.4035
  377MOL0     H50833  10.085   8.279   6.828 -2.2908 -0.2046 -0.3578
  377MOL0     H50834  10.189   8.461   6.713  0.2284  2.0409  0.5959
  377MOL0     H50835  10.028   8.508   6.750 -0.3890  1.7633 -1.0547
  377MOL0     H50836   9.966   8.472   6.510  0.3165 -1.2826 -0.5495
  377MOL0     H50837  10.088   8.584   6.535  2.5092 -1.2352 -0.1546
  377MOL0     H50838  10.261   8.415   6.456 -0.9819 -1.6819  2.0408
  377MOL0     H50839  10.130   8.304   6.420 -0.3605 -0.5308  0.4127
  377MOL0     H50840  10.032   8.499   6.259  0.4998 -3.1318 -3.3585
  377MOL0     H50841  10.189   8.574   6.295  0.1948 -0.4171 -1.2121
  377MOL0     H50842  10.096   8.317   6.174 -0.1680 -1.5761  1.3617
  377MOL0     H50843  10.275   8.331   6.210 -1.5438 -1.9693  1.8732
  377MOL0     H50844  10.115   8.501   6.019 -1.4024 -2.9781 -0.9353
  377MOL0     H50845  10.282   8.523   6.063 -0.4989  1.8163  1.0032
  377MOL0     H50846  10.447   8.275   5.988 -1.1846 -0.0537  0.5831
  377MOL0     H50847  10.482   8.037   5.855 -1.5310 -2.5638 -0.2369
  377MOL0     H50848  10.399   8.049   5.699  1.1579  1.9404 -1.1927
  377MOL0     H50849  10.642   8.195   5.790  0.3401  0.0040 -0.5698
  377MOL0     H50850  10.605   8.124   5.630 -1.2519  0.0948 -1.0641
  377MOL0     H50851  10.492   8.388   5.721 -1.9449 -0.1109  0.1443
  377MOL0     H50852  10.447   8.284   5.579  0.5898 -4.4204 -0.3471
  377MOL0     H50853  10.602   8.463   5.508 -0.4727  0.2228 -0.9883
  377MOL0     H50854  10.716   8.329   5.518  1.0284  0.6097  2.0900
  377MOL0     H50855  10.800   8.651   5.866  0.1627  2.4335  0.5098
  377MOL0     H50856  10.832   8.873   5.825  0.4131 -1.7623  0.8530
  377MOL0     H50857  11.048   9.193   5.499 -1.0567 -2.0077 -1.3858
  377MOL0     H50858  11.081   9.419   5.426 -0.6660  0.2171  0.5192
  377MOL0     H50859  10.970   9.648   5.496 -1.0888 -1.2181 -0.2431
  377MOL0     H50860  11.082   9.642   5.366  0.4128  1.6412  0.8775
  377MOL0     H50861  10.849   9.838   5.379  2.6536  5.5767  1.1697
  377MOL0     H50862  11.023   9.856   5.354  0.6586 -0.1224 -1.8687
  377MOL0     H50863  10.986   9.725   5.126 -0.6425  0.2953 -0.3315
  377MOL0     H50864  10.822   9.783   5.145  0.4347 -1.7289 -2.4137
  377MOL0     H50865  11.072   9.957   5.175  0.7461  0.0677 -1.6675
  377MOL0     H50866  10.906  10.017   5.160  0.9857 -1.3350  4.2079
  377MOL0     H50867  10.886   9.972   4.929 -0.4489 -0.2477 -0.4874
  377MOL0     H50868  11.027   9.873   4.929 -2.1519  0.5602 -2.9178
  377MOL0     H50869  11.044  10.167   5.015  1.9612  2.7503 -1.4417
  377MOL0     H50870  11.185  10.052   4.990  0.0777  1.3419  0.5061
  377MOL0     H50871  10.991  10.125   4.767 -0.5200 -1.3611  1.0835
  377MOL0     H50872  11.140  10.059   4.748  0.4087  1.2610  0.2418
  377MOL0     H50873  11.077  10.330   4.865 -1.9066 -1.7876 -1.9558
  377MOL0     H50874  11.243  10.261   4.879  1.2916  1.3567 -0.4715
  377MOL0     H50875  10.689   9.438   5.282  3.1536  3.6000  0.6519
  377MOL0     H50876  10.640   9.208   5.344 -1.1346  0.8787 -0.3273
  377MOL0     H50877  10.860   8.798   5.400  2.5219 -1.7656  0.3675
  377MOL0     H50878  10.808   8.565   5.434  3.2210  1.9658 -3.0471
  377MOL0     H50879   9.796   7.907   6.898  1.8641  1.4060 -0.0565
  377MOL0     H50880   9.788   7.708   6.789 -0.6077 -2.1208 -3.5858
  377MOL0     H50881   9.630   7.558   6.422  0.2163 -2.0804 -0.2808
  377MOL0     H50882   9.487   7.433   6.266  0.0363 -0.4084 -0.5494
  377MOL0     H50883   9.500   7.164   6.036  0.6243 -1.7430 -0.0374
  377MOL0     H50884   9.666   7.188   6.075 -0.8286 -2.5495 -0.1163
  377MOL0     H50885   9.695   7.281   5.842  0.6705  0.8513  0.9366
  377MOL0     H50886   9.539   7.202   5.814  1.6213 -3.6831 -1.0808
  377MOL0     H50887   9.627   6.981   5.891  1.0390 -1.4874 -2.2898
  377MOL0     H50888   9.780   7.052   5.939 -0.3062  1.1827  1.0451
  377MOL0     H50889   9.813   6.935   5.728  3.0720  0.6509  0.9678
  377MOL0     H50890   9.686   7.037   5.650  1.3860  1.6123  0.1147
  377MOL0     H50891  10.033   7.270   5.612  1.1183 -1.7889 -2.2447
  377MOL0     H50892   9.804   7.441   5.979 -0.0520  1.0366 -1.6142
  377MOL0     H50893  10.040   7.674   6.160 -2.2583  0.7635  1.5489
  377MOL0     H50894  10.050   7.508   6.088  2.1217  0.0689 -1.1856
  377MOL0     H50895   9.974   7.636   6.004  2.8783 -1.1004  0.2141
  378MOL0     O50896   7.355  10.977   1.236  0.2526 -0.0689  0.3696
  378MOL0     C50897   7.382  11.086   1.186 -0.6690  0.7218  0.4962
  378MOL0     O50898   7.494  11.113   1.094  0.1241 -0.1858 -0.6979
  378MOL0     C50899   7.573  11.005   1.049 -0.4832  0.1065  0.3850
  378MOL0     C50900   7.603  11.011   0.915  0.4674  0.3059  0.1014
  378MOL0     C50901   7.700  10.916   0.870 -0.2551 -1.1505 -1.0061
  378MOL0     C50902   7.746  10.809   0.948 -0.1149 -0.3405  0.5151
  378MOL0     O50903   7.836  10.718   0.898 -0.1723  0.0243  0.0404
  378MOL0     C50904   7.899  10.630   0.989 -0.0046  1.4864  0.2390
  378MOL0     C50905   7.978  10.530   0.915 -0.4606 -0.7197 -0.7429
  378MOL0     C50906   8.049  10.440   1.005 -0.5694  0.3419  0.3712
  378MOL0     C50907   8.142  10.340   0.941 -0.3310 -0.0348 -1.2252
  378MOL0     C50908   8.218  10.252   1.047 -0.2366 -0.5410 -0.7651
  378MOL0     C50909   8.300  10.145   0.974  0.7017  0.4827 -0.2752
  378MOL0     C50910   8.410  10.083   1.070 -0.5441 -0.6691  0.7811
  378MOL0     C50911   8.457   9.952   1.011 -0.0180 -0.5092 -0.7296
  378MOL0     N50912   8.564   9.897   1.087 -0.5532  0.3581 -0.9817
  378MOL0     C50913   8.692   9.909   1.059  0.6404  0.3040  0.3909
  378MOL0     C50914   8.763   9.852   1.166  0.2714  0.7200  0.2128
  378MOL0     C50915   8.916   9.841   1.164  0.0445 -0.4931 -0.8201
  378MOL0     C50916   8.961   9.699   1.215  0.8163  0.5252 -0.1942
  378MOL0     C50917   8.942   9.672   1.363  0.4091 -1.3243  0.4748
  378MOL0     C50918   9.068   9.718   1.436  0.9894  0.2985 -0.2238
  378MOL0     O50919   9.164   9.614   1.460 -0.0582  0.2483  0.2481
  378MOL0     C50920   9.276   9.651   1.518  0.8587 -0.2866 -0.3455
  378MOL0     C50921   9.298   9.771   1.594  0.5911 -0.2027 -0.1089
  378MOL0     C50922   9.428   9.794   1.631 -0.2362 -0.1515  0.5271
  378MOL0     C50923   9.541   9.713   1.591 -0.0558  0.0608 -0.0001
  378MOL0     C50924   9.678   9.766   1.634 -0.8991 -0.8708  1.1424
  378MOL0     O50925   9.779   9.726   1.571 -0.4910 -0.3252  0.7871
  378MOL0     C50926   9.905   9.776   1.598 -0.0468  0.4632  1.0457
  378MOL0     C50927   9.944   9.903   1.624  0.2741  0.4446 -0.2938
  378MOL0     C50928  10.077   9.938   1.655 -0.3096  0.5650 -0.1818
  378MOL0     C50929  10.180   9.848   1.635  0.8112 -1.0047 -0.2631
  378MOL0     O50930  10.313   9.860   1.669 -0.0133 -0.0834 -1.3567
  378MOL0     C50931  10.362   9.966   1.748  0.2323 -0.5099 -0.5363
  378MOL0     C50932  10.502   9.950   1.801 -1.0878  0.3358  0.4643
  378MOL0     C50933  10.613   9.898   1.700 -1.0008 -0.6332  0.1849
  378MOL0     C50934  10.613   9.965   1.563  0.3892  1.5018  0.4702
  378MOL0     C50935  10.709   9.874   1.470  0.7720  0.0795  0.5481
  378MOL0     C50936  10.687   9.906   1.320 -0.3683 -0.1170  0.2442
  378MOL0     C50937  10.740   9.799   1.225 -0.1663  0.2415  0.0956
  378MOL0     C50938  10.688   9.815   1.084 -0.1735 -0.2378 -0.1157
  378MOL0    Cl50939  10.779   9.752   0.954 -0.1381 -0.1298  0.0667
  378MOL0     C50940  10.146   9.715   1.596 -0.1056  0.3830  0.1448
  378MOL0     C50941  10.010   9.681   1.577  0.0382  0.4752  0.2082
  378MOL0     O50942   9.677   9.847   1.718 -0.3470 -1.4471 -0.0716
  378MOL0     C50943   9.515   9.595   1.529 -0.6010  0.1483  0.1170
  378MOL0     C50944   9.379   9.567   1.483  0.4806  0.4814 -1.7410
  378MOL0     N50945   8.669   9.818   1.266  0.4039  0.0076  0.0613
  378MOL0     N50946   8.553   9.838   1.213 -0.1315  0.4866  0.0286
  378MOL0     C50947   7.706  10.802   1.086 -0.5153 -0.3637  0.5853
  378MOL0     C50948   7.630  10.909   1.135 -0.3641 -0.1246 -0.2723
  378MOL0     C50949   7.306  11.210   1.220  1.1455 -0.3978 -0.1291
  378MOL0     C50950   7.361  11.337   1.181 -0.2613 -0.5820 -0.8651
  378MOL0     C50951   7.303  11.455   1.214 -0.4601  0.2681  0.2046
  378MOL0     C50952   7.189  11.447   1.283  0.5626 -0.2189 -0.5550
  378MOL0     O50953   7.107  11.556   1.299  0.1836 -0.2826 -0.2514
  378MOL0     C50954   7.076  11.613   1.423  0.0267  0.3004  0.9709
  378MOL0     C50955   7.100  11.757   1.425 -0.0627  0.0316  1.1108
  378MOL0     C50956   7.045  11.843   1.316 -0.2412 -0.3804 -0.6507
  378MOL0     C50957   7.055  11.996   1.347 -0.1101 -0.0535 -0.0592
  378MOL0     C50958   6.966  12.050   1.246  1.1753  0.0637  0.2827
  378MOL0     C50959   6.893  12.122   1.178 -0.8920  0.3439 -0.5800
  378MOL0     C50960   7.131  11.326   1.320 -0.8164  0.2545  0.2025
  378MOL0     C50961   7.181  11.200   1.290  0.5351  0.1270  0.0311
  378MOL0     C50962   7.103  11.078   1.317  0.4404  0.8214 -0.8694
  378MOL0     H50963   7.556  11.080   0.846 -0.3659 -0.2965  0.0511
  378MOL0     H50964   7.727  10.928   0.766 -2.1323  1.6744 -1.2559
  378MOL0     H50965   7.954  10.689   1.062  0.0869  2.1240 -0.3326
  378MOL0     H50966   7.835  10.573   1.057  0.6401 -0.4200 -0.6644
  378MOL0     H50967   8.042  10.593   0.853 -0.0316  0.0123  0.4071
  378MOL0     H50968   7.908  10.471   0.855  2.4377 -2.7807 -2.3485
  378MOL0     H50969   7.970  10.389   1.061 -0.6776 -0.3204 -0.3682
  378MOL0     H50970   8.101  10.499   1.081 -0.9173 -1.9465  2.5171
  378MOL0     H50971   8.085  10.272   0.877  0.1635  0.2586 -2.0028
  378MOL0     H50972   8.215  10.378   0.869  0.3105 -0.4865 -0.8164
  378MOL0     H50973   8.285  10.320   1.101 -0.8975  0.2778 -0.9517
  378MOL0     H50974   8.141  10.209   1.111 -0.6850 -4.6505 -3.6449
  378MOL0     H50975   8.239  10.059   0.946  0.4920  1.3027 -2.4954
  378MOL0     H50976   8.341  10.205   0.892  3.3308  1.0138  1.2897
  378MOL0     H50977   8.351  10.059   1.159 -0.0492 -1.2952  0.9466
  378MOL0     H50978   8.488  10.156   1.092 -1.0219  0.1780 -0.1832
  378MOL0     H50979   8.376   9.880   0.995  2.6185 -2.9036 -5.9093
  378MOL0     H50980   8.497   9.977   0.912  0.2116 -3.0080 -1.3561
  378MOL0     H50981   8.740   9.943   0.968  1.6252  2.8891  1.7830
  378MOL0     H50982   8.949   9.854   1.060 -1.9363 -0.1160 -1.4413
  378MOL0     H50983   8.966   9.919   1.222 -3.5022  2.4368 -1.3243
  378MOL0     H50984   8.901   9.622   1.166 -2.2994  3.4815 -1.4266
  378MOL0     H50985   9.065   9.683   1.187  0.1684 -3.2721 -0.8731
  378MOL0     H50986   8.924   9.568   1.392  1.7801 -1.3846  1.1921
  378MOL0     H50987   8.859   9.734   1.399  1.6403  0.0768  0.9992
  378MOL0     H50988   9.025   9.757   1.529  0.7532  2.8815 -1.3097
  378MOL0     H50989   9.116   9.803   1.385 -0.9943  1.4292 -0.3108
  378MOL0     H50990   9.210   9.831   1.613 -0.4552 -1.3710 -1.0393
  378MOL0     H50991   9.443   9.883   1.692 -0.9927  0.1070  0.3497
  378MOL0     H50992   9.861   9.972   1.636 -0.8040 -0.6061 -1.4211
  378MOL0     H50993  10.091  10.030   1.711  0.1061 -0.6265  1.7579
  378MOL0     H50994  10.366  10.050   1.678  1.7813 -0.0226  0.0884
  378MOL0     H50995  10.312   9.990   1.843  3.2533  2.4440  0.5129
  378MOL0     H50996  10.516  10.053   1.836 -2.8721  0.2379  1.6300
  378MOL0     H50997  10.497   9.881   1.885  1.4380 -0.5323 -0.0153
  378MOL0     H50998  10.710   9.918   1.748 -0.9406 -2.2965  0.8234
  378MOL0     H50999  10.598   9.791   1.682 -1.8263 -0.5131  0.1202
  378MOL0     H51000  10.634  10.072   1.569 -0.7912  1.7559  0.2356
  378MOL0     H51001  10.516   9.961   1.513  0.7719 -0.2517 -0.2079
  378MOL0     H51002  10.695   9.767   1.488  0.6022 -0.3504 -1.8455
  378MOL0     H51003  10.810   9.896   1.504  1.5557 -0.5823 -1.2686
  378MOL0     H51004  10.581   9.929   1.304 -0.8873 -1.4596  1.5553
  378MOL0     H51005  10.725  10.006   1.297 -1.0323 -0.1959 -1.3362
  378MOL0     H51006  10.709   9.700   1.260  1.8235  0.5191  3.0017
  378MOL0     H51007  10.849   9.797   1.228 -0.1611  0.1284 -0.1671
  378MOL0     H51008  10.594   9.759   1.083 -1.1178  1.0545  3.1685
  378MOL0     H51009  10.665   9.921   1.073 -1.1110 -0.4027  0.1246
  378MOL0     H51010  10.218   9.637   1.573  1.3553  2.0389 -1.2751
  378MOL0     H51011   9.969   9.585   1.545 -2.8278  1.3976  0.7996
  378MOL0     H51012   9.588   9.516   1.514 -1.1835 -0.8021  2.0304
  378MOL0     H51013   9.368   9.484   1.414 -2.0229  1.2780 -2.4005
  378MOL0     H51014   7.729  10.717   1.149  0.4671  0.1933  1.0073
  378MOL0     H51015   7.618  10.911   1.243 -1.3339  3.5924 -0.3054
  378MOL0     H51016   7.457  11.341   1.129 -0.2602  2.3634 -0.8195
  378MOL0     H51017   7.347  11.554   1.201  0.6129  0.1759  2.5893
  378MOL0     H51018   7.133  11.569   1.505 -0.3772  1.1732  1.7409
  378MOL0     H51019   6.971  11.587   1.443  0.1364 -1.4167 -0.4107
  378MOL0     H51020   7.208  11.772   1.429  0.5488 -3.1803 -0.1983
  378MOL0     H51021   7.058  11.787   1.522 -0.2953 -3.2335  2.1240
  378MOL0     H51022   6.943  11.813   1.290 -0.5675 -0.7775  1.0072
  378MOL0     H51023   7.101  11.827   1.223 -0.1914 -0.1125 -0.6703
  378MOL0     H51024   7.022  12.028   1.446 -0.9253 -1.1002  0.0329
  378MOL0     H51025   7.154  12.038   1.329 -0.9351  2.3108  0.4861
  378MOL0     H51026   6.831  12.198   1.137 -0.5468  2.0017  1.7502
  378MOL0     H51027   7.033  11.315   1.366 -2.0913 -1.4860 -2.6525
  378MOL0     H51028   6.999  11.108   1.331  1.2556  3.5143  0.0408
  378MOL0     H51029   7.098  11.002   1.239 -3.2718 -1.1235  0.9744
  378MOL0     H51030   7.142  11.021   1.402 -0.7134 -0.1633 -0.9752
  379MOL0     O51031  11.441   5.212   6.861  0.1450  0.1169  0.5300
  379MOL0     C51032  11.450   5.331   6.875 -0.9831 -0.3223  0.1664
  379MOL0     O51033  11.540   5.397   6.957  0.3347  0.4370 -0.4370
  379MOL0     C51034  11.599   5.310   7.056  0.1408  0.3392  1.1654
  379MOL0     C51035  11.706   5.231   7.009  0.0280 -0.6016  0.0841
  379MOL0     C51036  11.785   5.159   7.101 -0.4798 -0.2258  1.0142
  379MOL0     C51037  11.757   5.162   7.235  0.6249 -0.5343  0.2826
  379MOL0     O51038  11.834   5.082   7.307  0.4800 -0.5492  0.1902
  379MOL0     C51039  11.895   5.143   7.414  0.6810  0.6207  0.0375
  379MOL0     C51040  11.994   5.033   7.463  0.9654  0.2606  0.4794
  379MOL0     C51041  12.040   5.054   7.607  0.3156 -0.3070 -0.0924
  379MOL0     C51042  12.115   5.188   7.612 -0.8372 -0.4458  0.6865
  379MOL0     C51043  12.238   5.183   7.710 -0.4072 -0.8365 -0.7860
  379MOL0     C51044  12.305   5.321   7.725 -0.8863 -0.8215 -0.0874
  379MOL0     C51045  12.387   5.313   7.847  0.3605 -0.6429 -0.8370
  379MOL0     C51046  12.461   5.436   7.880  0.3701  0.3719 -0.3809
  379MOL0     N51047  12.373   5.539   7.936 -1.3226  0.3608  0.7839
  379MOL0     C51048  12.288   5.521   8.032  0.6022  0.3159 -0.1265
  379MOL0     C51049  12.202   5.626   8.028 -0.4785  0.1804 -0.8839
  379MOL0     C51050  12.097   5.654   8.132 -0.0314 -0.6927  0.4075
  379MOL0     C51051  11.951   5.624   8.070 -0.2311 -1.2326  0.5626
  379MOL0     C51052  11.836   5.605   8.185  0.1603 -0.8434  1.0750
  379MOL0     C51053  11.831   5.464   8.232  0.2827 -0.4439 -0.2289
  379MOL0     O51054  11.733   5.449   8.341  0.0408  1.1118  0.0508
  379MOL0     C51055  11.735   5.328   8.405  0.3772 -0.4718 -0.4261
  379MOL0     C51056  11.621   5.309   8.486 -0.7225  0.0489 -0.1322
  379MOL0     C51057  11.606   5.199   8.573 -1.0015  0.3904 -0.4499
  379MOL0     C51058  11.703   5.104   8.574 -0.8631  0.8475 -0.2133
  379MOL0     C51059  11.695   4.984   8.667 -0.6619 -0.3996 -0.5584
  379MOL0     O51060  11.621   5.014   8.774 -0.7172 -0.2486 -0.9359
  379MOL0     C51061  11.573   4.912   8.846  0.1195  0.6661 -0.3018
  379MOL0     C51062  11.577   4.940   8.985 -1.0465 -0.7800  0.2395
  379MOL0     C51063  11.522   4.847   9.076  0.2612 -0.3030 -0.2359
  379MOL0     C51064  11.459   4.728   9.017  0.0609  0.2870  0.8143
  379MOL0     O51065  11.431   4.623   9.094 -0.6714 -0.4296  0.0758
  379MOL0     C51066  11.345   4.647   9.196  0.6760  0.5325  0.1251
  379MOL0     C51067  11.327   4.516   9.283 -0.2241 -0.0383 -0.2326
  379MOL0     C51068  11.365   4.543   9.435 -1.0425  0.8449  0.3441
  379MOL0     C51069  11.370   4.414   9.509 -0.8731 -0.1412  0.4257
  379MOL0     C51070  11.327   4.421   9.649  0.0200 -0.7094 -0.6510
  379MOL0     C51071  11.364   4.287   9.724  0.6204 -0.0508  0.3944
  379MOL0     C51072  11.333   4.291   9.875  0.3338  0.2235  0.3590
  379MOL0     C51073  11.214   4.210   9.922  0.4676  0.3634 -0.1291
  379MOL0    Cl51074  11.059   4.250   9.837  0.2753  0.6160  0.1911
  379MOL0     C51075  11.458   4.702   8.879  1.3145 -0.7243  0.1912
  379MOL0     C51076  11.520   4.791   8.795  0.0079 -0.2170  0.3542
  379MOL0     O51077  11.737   4.866   8.641  0.9446  0.2553  0.2205
  379MOL0     C51078  11.817   5.124   8.490  0.1177  0.8492  0.1203
  379MOL0     C51079  11.836   5.229   8.409  0.5031 -1.1080  0.5810
  379MOL0     N51080  12.238   5.704   7.922 -0.1161  0.1576 -1.0366
  379MOL0     N51081  12.344   5.654   7.870  1.2149 -0.1434  0.2799
  379MOL0     C51082  11.659   5.250   7.283  0.3044  0.0719 -0.2230
  379MOL0     C51083  11.578   5.327   7.191  0.6971  0.1910  0.9987
  379MOL0     C51084  11.343   5.417   6.820 -0.0900 -0.3329  0.0657
  379MOL0     C51085  11.341   5.548   6.869 -1.0237  0.3034 -0.2664
  379MOL0     C51086  11.232   5.635   6.858  0.9611 -0.5731  0.1489
  379MOL0     C51087  11.128   5.601   6.777  0.1883  0.1021  0.2298
  379MOL0     O51088  11.025   5.690   6.762  0.0067 -0.9027  0.2878
  379MOL0     C51089  10.900   5.638   6.697  0.1571  0.5753  0.1074
  379MOL0     C51090  10.776   5.727   6.743 -0.8137  0.1201  0.3345
  379MOL0     C51091  10.650   5.677   6.708 -0.5677  0.3181 -1.4737
  379MOL0     C51092  10.583   5.737   6.582 -0.0608  0.0281  0.2150
  379MOL0     C51093  10.584   5.878   6.597  0.0332 -0.6161  0.8786
  379MOL0     C51094  10.567   5.990   6.624 -0.7834  0.3593 -0.2862
  379MOL0     C51095  11.134   5.478   6.706 -0.6388  0.9201  0.6656
  379MOL0     C51096  11.235   5.378   6.735  0.6957  0.5529  0.2344
  379MOL0     C51097  11.218   5.244   6.667 -0.3614  0.4267 -0.3355
  379MOL0     H51098  11.719   5.223   6.902 -0.1258  0.5889 -0.0388
  379MOL0     H51099  11.868   5.101   7.061 -0.1559  1.2541 -0.5726
  379MOL0     H51100  11.955   5.233   7.400 -1.2165  1.9394  0.0992
  379MOL0     H51101  11.819   5.152   7.492  1.0304 -1.1096  0.6311
  379MOL0     H51102  12.070   5.032   7.385 -0.9658 -1.1679 -1.5242
  379MOL0     H51103  11.953   4.931   7.466  3.9808 -1.0661 -0.1516
  379MOL0     H51104  12.101   4.966   7.629 -0.7648 -0.9695  0.3382
  379MOL0     H51105  11.960   5.063   7.681  0.2294 -2.7176  0.1747
  379MOL0     H51106  12.154   5.220   7.515 -0.9650  0.9098  1.0677
  379MOL0     H51107  12.049   5.268   7.644 -1.2033  0.1644 -1.4020
  379MOL0     H51108  12.209   5.141   7.806  1.3897 -0.2051  0.0897
  379MOL0     H51109  12.307   5.116   7.657  4.7776  2.4425  1.0099
  379MOL0     H51110  12.359   5.343   7.633 -2.6405 -3.6955 -1.9426
  379MOL0     H51111  12.222   5.391   7.739 -2.3528 -2.1368 -1.6520
  379MOL0     H51112  12.469   5.240   7.842  3.5779  2.4816  1.3819
  379MOL0     H51113  12.329   5.270   7.930  0.1938 -0.4768 -0.8660
  379MOL0     H51114  12.523   5.409   7.967 -0.5646 -0.9978 -0.1184
  379MOL0     H51115  12.523   5.478   7.800  0.0580 -1.9437 -1.9379
  379MOL0     H51116  12.290   5.428   8.089  0.4670 -1.0916 -2.2926
  379MOL0     H51117  12.122   5.589   8.216 -0.5180 -0.5053  0.7007
  379MOL0     H51118  12.093   5.758   8.166  0.5895 -0.5000 -0.0840
  379MOL0     H51119  11.916   5.690   7.990  0.3831  0.2419  1.4623
  379MOL0     H51120  11.965   5.527   8.022  0.1635 -0.5164 -0.8095
  379MOL0     H51121  11.737   5.634   8.147  0.3480  0.0158  1.2317
  379MOL0     H51122  11.864   5.673   8.265  1.7643  0.7981 -0.7951
  379MOL0     H51123  11.936   5.441   8.257  1.9478  0.8363 -5.0504
  379MOL0     H51124  11.805   5.395   8.152 -1.5840  1.0929 -1.0235
  379MOL0     H51125  11.541   5.382   8.475 -0.5307  0.1731 -0.7919
  379MOL0     H51126  11.530   5.189   8.651 -0.6168  0.1103 -0.1029
  379MOL0     H51127  11.633   5.025   9.021  0.6265 -2.0901  0.9061
  379MOL0     H51128  11.529   4.866   9.183 -1.8745 -0.1201 -0.0888
  379MOL0     H51129  11.379   4.732   9.256 -0.8214  0.4618  1.1168
  379MOL0     H51130  11.251   4.678   9.149  0.5651  4.7931  2.6764
  379MOL0     H51131  11.223   4.485   9.297  0.0720 -1.1582 -0.4296
  379MOL0     H51132  11.382   4.431   9.241 -0.3964  0.8344 -2.3640
  379MOL0     H51133  11.467   4.583   9.438 -1.3693  1.8650 -1.2166
  379MOL0     H51134  11.298   4.622   9.471 -0.1702  1.6674  0.2144
  379MOL0     H51135  11.457   4.350   9.492 -2.6096 -2.7830  0.7183
  379MOL0     H51136  11.292   4.356   9.458  0.4667 -0.2837 -1.5466
  379MOL0     H51137  11.223   4.453   9.652 -0.1426 -1.2019 -0.9014
  379MOL0     H51138  11.389   4.500   9.692 -1.4647  0.1091  0.0532
  379MOL0     H51139  11.316   4.199   9.681  0.6093  0.8334 -1.4926
  379MOL0     H51140  11.469   4.260   9.708 -0.0805 -1.5952 -2.0481
  379MOL0     H51141  11.322   4.394   9.911 -0.2852 -0.0283  0.9248
  379MOL0     H51142  11.419   4.245   9.925 -1.1837 -2.6657  0.5473
  379MOL0     H51143  11.244   4.107   9.904 -0.7921 -0.1156  0.3843
  379MOL0     H51144  11.185   4.211  10.028 -1.4094 -0.8743 -0.5862
  379MOL0     H51145  11.413   4.608   8.847  1.6588 -0.9155  0.2698
  379MOL0     H51146  11.523   4.766   8.690  3.0049 -0.6803  0.4729
  379MOL0     H51147  11.889   5.043   8.487 -1.5303 -0.6773  0.4767
  379MOL0     H51148  11.925   5.229   8.347  1.5455  0.6816  1.9779
  379MOL0     H51149  11.651   5.258   7.391 -1.6853 -1.7037 -0.1755
  379MOL0     H51150  11.508   5.404   7.224 -0.2572 -1.5308  3.2843
  379MOL0     H51151  11.423   5.587   6.928 -0.9308 -0.9492  0.4689
  379MOL0     H51152  11.220   5.728   6.913 -0.4269 -1.3313  1.2103
  379MOL0     H51153  10.867   5.542   6.739 -3.4472  2.1490  1.3145
  379MOL0     H51154  10.914   5.628   6.589  0.2920  1.8994 -0.0199
  379MOL0     H51155  10.793   5.835   6.736  4.9420 -0.4358  1.1264
  379MOL0     H51156  10.782   5.712   6.851  1.8456  1.6682  0.5052
  379MOL0     H51157  10.584   5.700   6.793  0.8541  3.9529 -1.1491
  379MOL0     H51158  10.652   5.569   6.694  0.5555  0.0092  0.6794
  379MOL0     H51159  10.647   5.719   6.495  1.4008 -0.6104  1.3995
  379MOL0     H51160  10.488   5.686   6.561 -0.6339  1.9432 -2.3363
  379MOL0     H51161  10.549   6.095   6.632  1.8826  0.8497 -0.1380
  379MOL0     H51162  11.053   5.463   6.635 -1.5049  4.6136  0.6535
  379MOL0     H51163  11.242   5.170   6.745  1.5353  0.5229 -0.7852
  379MOL0     H51164  11.117   5.233   6.625 -1.0348 -0.8263  1.4517
  379MOL0     H51165  11.287   5.241   6.583  1.4738  2.4654  1.0107
  380MOL0     O51166   9.354   6.704   5.423 -1.2759 -0.0128  0.6418
  380MOL0     C51167   9.350   6.823   5.398 -0.8047 -0.0047 -0.3146
  380MOL0     O51168   9.325   6.920   5.489  0.1749 -0.1588 -0.0492
  380MOL0     C51169   9.333   6.876   5.618  0.9083 -0.6508  0.0318
  380MOL0     C51170   9.455   6.847   5.680  0.3247  0.5640 -0.4189
  380MOL0     C51171   9.456   6.810   5.813 -0.7298 -0.4777  0.1754
  380MOL0     C51172   9.346   6.814   5.900 -0.3530  0.5259  0.3081
  380MOL0     O51173   9.368   6.768   6.030  0.0624 -0.0089  0.4237
  380MOL0     C51174   9.266   6.795   6.130  0.1843 -0.5165  0.7770
  380MOL0     C51175   9.269   6.941   6.174 -0.3622 -0.1085  0.6185
  380MOL0     C51176   9.404   6.980   6.235 -0.0390  0.1217  0.4940
  380MOL0     C51177   9.415   6.944   6.375  0.4195 -1.0054 -0.7112
  380MOL0     C51178   9.532   6.997   6.448 -0.5828  0.6828  0.1166
  380MOL0     C51179   9.507   7.027   6.596 -0.2295  0.0412 -0.8043
  380MOL0     C51180   9.440   7.156   6.626 -0.6113 -0.3962  0.1359
  380MOL0     C51181   9.508   7.283   6.564  0.7877  0.1723 -0.4878
  380MOL0     N51182   9.575   7.371   6.668 -0.2328 -0.8378 -0.2561
  380MOL0     C51183   9.661   7.310   6.758  0.6783  0.2139  0.4103
  380MOL0     C51184   9.698   7.402   6.850 -0.1228 -0.2927  0.0042
  380MOL0     C51185   9.795   7.405   6.958 -0.3563 -0.3376  0.1333
  380MOL0     C51186   9.932   7.438   6.901 -0.8541 -1.5565 -0.3408
  380MOL0     C51187  10.011   7.512   7.002  0.2235 -0.1585  0.2131
  380MOL0     C51188  10.167   7.508   6.964  0.3099 -0.3088  0.9601
  380MOL0     O51189  10.205   7.369   6.983  0.5645 -0.2242 -0.3226
  380MOL0     C51190  10.331   7.326   7.022  0.4040 -1.6704  0.2424
  380MOL0     C51191  10.376   7.205   6.984 -0.2159  0.6620 -0.2496
  380MOL0     C51192  10.510   7.156   7.022 -0.3801  0.3602 -0.8731
  380MOL0     C51193  10.589   7.237   7.101 -0.1103 -0.0559  0.7785
  380MOL0     C51194  10.717   7.195   7.150 -0.0226  0.0832  0.4753
  380MOL0     O51195  10.782   7.278   7.231 -0.4344 -0.2237 -0.3903
  380MOL0     C51196  10.908   7.228   7.266 -0.9973 -0.4802  0.3024
  380MOL0     C51197  11.028   7.214   7.190  0.6470  0.4573  0.0304
  380MOL0     C51198  11.136   7.157   7.246 -0.6569  0.7959 -0.0669
  380MOL0     C51199  11.137   7.111   7.382  0.4373 -0.0263  0.2317
  380MOL0     O51200  11.241   7.056   7.448 -0.7996  0.1420  0.0861
  380MOL0     C51201  11.364   7.026   7.374 -0.7635 -0.0581  0.1316
  380MOL0     C51202  11.335   6.903   7.282 -0.9366 -0.0848  0.2917
  380MOL0     C51203  11.364   6.779   7.365 -0.9404 -0.9994  0.6488
  380MOL0     C51204  11.347   6.637   7.297 -0.1745 -0.9611 -0.6684
  380MOL0     C51205  11.404   6.527   7.376 -0.5626 -0.2117 -0.9074
  380MOL0     C51206  11.558   6.494   7.359 -0.6305 -1.0472 -0.0052
  380MOL0     C51207  11.610   6.374   7.440  1.0294 -0.1653  0.7213
  380MOL0     C51208  11.526   6.250   7.417  0.6025  0.9449 -0.4154
  380MOL0    Cl51209  11.508   6.204   7.242  0.1851  0.0871 -0.1733
  380MOL0     C51210  11.018   7.123   7.456 -0.0860 -0.6003  0.1791
  380MOL0     C51211  10.906   7.171   7.395 -0.4587  0.6626 -0.1207
  380MOL0     O51212  10.757   7.084   7.112 -0.4650 -0.0037 -0.0133
  380MOL0     C51213  10.538   7.357   7.157 -0.1296  0.2337 -0.5311
  380MOL0     C51214  10.407   7.398   7.120  0.3442 -0.1988 -0.0355
  380MOL0     N51215   9.628   7.518   6.823  0.3739  0.3834  0.9501
  380MOL0     N51216   9.562   7.503   6.710  0.1260 -0.2362 -0.6956
  380MOL0     C51217   9.225   6.852   5.842 -0.1174 -1.3259 -0.7726
  380MOL0     C51218   9.221   6.881   5.701  0.9182  0.1919 -0.8873
  380MOL0     C51219   9.367   6.865   5.256 -0.1924  0.6937 -0.6541
  380MOL0     C51220   9.299   6.774   5.173  0.3979  0.0830  0.0678
  380MOL0     C51221   9.271   6.814   5.043 -0.2548 -0.1977 -0.1215
  380MOL0     C51222   9.344   6.925   4.983  0.5999  0.8863  0.3786
  380MOL0     O51223   9.320   6.959   4.857 -1.0298 -0.4377  0.7224
  380MOL0     C51224   9.259   7.089   4.834 -0.5546  0.4219 -0.5990
  380MOL0     C51225   9.125   7.099   4.899  0.3084 -0.1984  0.0392
  380MOL0     C51226   9.036   7.223   4.841 -0.4736 -0.7493 -0.1349
  380MOL0     C51227   8.902   7.204   4.899  0.2600 -0.6165 -0.5185
  380MOL0     C51228   8.816   7.314   4.856  0.1727  0.3038  0.1779
  380MOL0     C51229   8.755   7.410   4.814  0.0729 -0.1595 -0.6003
  380MOL0     C51230   9.422   7.002   5.067  0.1973 -0.5725 -0.4457
  380MOL0     C51231   9.425   6.986   5.209  0.9131 -1.4462  0.4565
  380MOL0     C51232   9.483   7.095   5.294  0.0490  0.2183 -0.3506
  380MOL0     H51233   9.533   6.826   5.608 -0.8164 -1.0322 -1.2394
  380MOL0     H51234   9.543   6.757   5.850 -2.1771 -4.7798 -1.8635
  380MOL0     H51235   9.169   6.771   6.084  0.7817  1.2351 -1.5942
  380MOL0     H51236   9.289   6.741   6.222  1.1039 -0.3205  0.6640
  380MOL0     H51237   9.194   6.948   6.254  0.8238 -3.2111  2.1584
  380MOL0     H51238   9.243   7.008   6.092 -0.6255 -0.1595  0.6598
  380MOL0     H51239   9.423   7.086   6.218  0.2908 -0.4557 -3.7585
  380MOL0     H51240   9.479   6.927   6.175 -2.4969 -1.7587 -1.1365
  380MOL0     H51241   9.322   6.960   6.430  1.2285  1.9394 -0.0419
  380MOL0     H51242   9.423   6.835   6.365 -1.3142 -0.9420 -4.5395
  380MOL0     H51243   9.591   6.906   6.457  0.3067  1.0722 -1.5048
  380MOL0     H51244   9.589   7.073   6.394  0.7489  0.2630  0.9100
  380MOL0     H51245   9.458   6.938   6.636  0.0994  0.5407  0.7878
  380MOL0     H51246   9.607   7.038   6.640  0.7232  0.1942 -2.8713
  380MOL0     H51247   9.425   7.168   6.733 -2.6562  0.5297 -0.2013
  380MOL0     H51248   9.337   7.158   6.590 -1.3440  4.7132  1.7051
  380MOL0     H51249   9.577   7.249   6.486 -2.7019 -0.7372 -3.5163
  380MOL0     H51250   9.427   7.342   6.519  0.5978 -1.2173 -2.1064
  380MOL0     H51251   9.706   7.211   6.753 -1.8278 -0.9619 -2.5133
  380MOL0     H51252   9.767   7.474   7.038 -0.0464  0.8309 -0.7284
  380MOL0     H51253   9.794   7.308   7.007  2.7490 -0.2384  0.6253
  380MOL0     H51254   9.976   7.339   6.887  1.6045 -0.4733 -0.7513
  380MOL0     H51255   9.922   7.496   6.809 -1.8847 -2.7470 -1.0132
  380MOL0     H51256  10.000   7.472   7.103  0.8912  1.3466  0.9230
  380MOL0     H51257   9.961   7.610   7.011 -2.0230 -0.3904 -5.5072
  380MOL0     H51258  10.226   7.584   7.015  1.2511  0.3526 -0.9998
  380MOL0     H51259  10.177   7.541   6.860 -0.9818  2.8039  1.7143
  380MOL0     H51260  10.309   7.137   6.934  0.9772 -1.1135  0.4720
  380MOL0     H51261  10.549   7.060   6.989  4.5257  1.1221  1.8453
  380MOL0     H51262  11.043   7.231   7.083  2.2418 -1.0932 -0.0361
  380MOL0     H51263  11.221   7.154   7.178  0.4874  1.8461  1.2500
  380MOL0     H51264  11.408   7.111   7.321  0.2354 -0.7686 -0.2061
  380MOL0     H51265  11.437   6.991   7.448 -0.3983  1.0709  0.3171
  380MOL0     H51266  11.234   6.903   7.240 -1.4049  2.0658  1.3052
  380MOL0     H51267  11.416   6.907   7.208 -2.4566  0.3824 -1.4327
  380MOL0     H51268  11.471   6.785   7.387 -0.5658  0.0534 -1.2940
  380MOL0     H51269  11.303   6.795   7.454 -2.4386  3.1005 -0.8877
  380MOL0     H51270  11.399   6.650   7.201  2.8107 -0.5712  0.8803
  380MOL0     H51271  11.239   6.628   7.286  0.0082 -1.1060 -2.7131
  380MOL0     H51272  11.337   6.448   7.340 -2.0624  1.6299 -2.4038
  380MOL0     H51273  11.375   6.539   7.481 -0.5236 -0.4433 -0.8695
  380MOL0     H51274  11.581   6.463   7.256  0.7707  2.1304 -0.7775
  380MOL0     H51275  11.623   6.579   7.381  1.5317 -2.3464 -0.9977
  380MOL0     H51276  11.623   6.395   7.546  3.7276  2.1771  0.0402
  380MOL0     H51277  11.713   6.362   7.406  1.4730  5.2072 -0.6157
  380MOL0     H51278  11.581   6.174   7.473  1.6276  0.5974 -1.8222
  380MOL0     H51279  11.426   6.259   7.460  0.4136 -0.9863 -0.3463
  380MOL0     H51280  11.036   7.092   7.558  0.9278 -1.3945 -0.2169
  380MOL0     H51281  10.810   7.172   7.446  0.7870  1.0787  2.3738
  380MOL0     H51282  10.601   7.414   7.225  0.2112  0.3317 -0.9260
  380MOL0     H51283  10.367   7.495   7.149  4.2222  2.9110 -3.7789
  380MOL0     H51284   9.129   6.845   5.891 -1.9138  0.7424 -3.6645
  380MOL0     H51285   9.125   6.891   5.651  0.6721 -2.5609 -1.1302
  380MOL0     H51286   9.247   6.686   5.210 -2.9354  2.0869  0.6293
  380MOL0     H51287   9.198   6.751   4.993  0.5307 -1.7450  0.6048
  380MOL0     H51288   9.239   7.102   4.727  2.9769 -3.4200 -1.9901
  380MOL0     H51289   9.324   7.173   4.861  1.4056 -0.5174 -2.1860
  380MOL0     H51290   9.135   7.114   5.007 -1.4423 -0.9648  0.3404
  380MOL0     H51291   9.071   7.004   4.894  0.1016 -0.0225 -2.6496
  380MOL0     H51292   9.044   7.227   4.732 -2.7412 -0.0535 -0.3329
  380MOL0     H51293   9.082   7.315   4.879 -0.5704  0.7701 -3.3502
  380MOL0     H51294   8.849   7.115   4.864 -1.6372  0.6594 -1.0726
  380MOL0     H51295   8.918   7.199   5.007  3.1039 -4.5842 -0.9042
  380MOL0     H51296   8.688   7.475   4.760 -0.8319 -1.6579 -1.3380
  380MOL0     H51297   9.486   7.079   5.025 -0.1281 -0.6081 -1.0273
  380MOL0     H51298   9.561   7.154   5.246 -1.8849  0.9339 -2.8526
  380MOL0     H51299   9.402   7.166   5.315  1.9071  1.9191  1.4674
  380MOL0     H51300   9.516   7.043   5.384 -0.7846 -1.3879 -0.9284
  381MOL0     O51301   7.138   2.260   6.219 -0.4017  0.6893  0.5026
  381MOL0     C51302   7.038   2.219   6.154  0.0538 -0.3549  0.3281
  381MOL0     O51303   6.929   2.290   6.136 -0.1939 -0.2045  0.5064
  381MOL0     C51304   6.946   2.424   6.156 -0.6556  0.4720 -0.2064
  381MOL0     C51305   6.920   2.467   6.286  0.8024  0.4042 -0.1805
  381MOL0     C51306   6.927   2.606   6.323 -0.5055 -0.3443  0.5816
  381MOL0     C51307   6.970   2.703   6.226 -0.4410  0.1614 -0.4527
  381MOL0     O51308   6.990   2.840   6.244  0.1805 -0.3385  0.3162
  381MOL0     C51309   6.969   2.900   6.371  0.5788  0.4544 -0.0360
  381MOL0     C51310   7.082   2.885   6.468  0.1649 -0.2991  0.5156
  381MOL0     C51311   7.038   2.910   6.609  0.5009 -0.0377  1.0156
  381MOL0     C51312   7.170   2.933   6.696  1.1264 -0.1419  0.6036
  381MOL0     C51313   7.136   2.951   6.851 -0.3553 -0.2538 -0.5850
  381MOL0     C51314   7.249   3.014   6.924  0.0335  0.0658 -0.1206
  381MOL0     C51315   7.376   2.934   6.938  0.2316 -0.8630 -0.3746
  381MOL0     C51316   7.468   3.008   7.035  0.7828  0.7237  0.3119
  381MOL0     N51317   7.589   2.932   7.072 -0.0861 -0.0522 -0.2199
  381MOL0     C51318   7.655   2.844   6.994 -0.4991 -0.3390 -0.3757
  381MOL0     C51319   7.759   2.803   7.065 -0.7798 -0.1961  0.6503
  381MOL0     C51320   7.851   2.687   7.041 -0.1618 -0.0910 -0.8813
  381MOL0     C51321   7.993   2.733   7.038  0.7539 -0.6485 -0.2959
  381MOL0     C51322   8.090   2.620   7.002 -0.3334  0.1342  0.1806
  381MOL0     C51323   8.229   2.672   6.982 -0.8709 -0.8189 -0.6571
  381MOL0     O51324   8.239   2.746   6.859  0.0044 -0.1645 -0.5525
  381MOL0     C51325   8.348   2.828   6.830 -0.1297  0.0482  0.8103
  381MOL0     C51326   8.471   2.823   6.896 -0.5311 -1.0961 -0.0278
  381MOL0     C51327   8.575   2.912   6.863 -0.2579  0.0443 -1.0330
  381MOL0     C51328   8.550   3.023   6.766  1.5478  0.3037  0.0593
  381MOL0     C51329   8.646   3.135   6.752  1.1144 -0.0189  0.2476
  381MOL0     O51330   8.596   3.235   6.680 -0.3548 -1.2205 -0.5284
  381MOL0     C51331   8.676   3.337   6.646  0.5740  0.0630 -0.1254
  381MOL0     C51332   8.629   3.457   6.701  0.0362 -0.6308 -0.2776
  381MOL0     C51333   8.688   3.579   6.655 -0.4452 -0.1611 -0.5894
  381MOL0     C51334   8.791   3.575   6.556 -0.2612  0.5152  0.1006
  381MOL0     O51335   8.858   3.688   6.519  0.1317 -0.0254  0.6592
  381MOL0     C51336   8.779   3.795   6.466 -0.7292  0.0299 -0.6077
  381MOL0     C51337   8.875   3.904   6.405  0.6471  0.2334 -0.8262
  381MOL0     C51338   8.967   3.961   6.507 -0.0078 -0.7597 -0.3145
  381MOL0     C51339   9.023   4.088   6.440  0.2813  0.1628  0.1393
  381MOL0     C51340   9.144   4.126   6.509  1.4771 -0.2394 -0.3509
  381MOL0     C51341   9.205   4.255   6.460 -0.4259  0.1941 -0.2102
  381MOL0     C51342   9.308   4.317   6.554  0.2721  0.2909  0.1941
  381MOL0     C51343   9.374   4.450   6.514  0.1106  0.3398 -0.5645
  381MOL0    Cl51344   9.499   4.421   6.395 -0.2610  0.4907  0.2405
  381MOL0     C51345   8.846   3.450   6.526  0.4550  1.2901  0.2163
  381MOL0     C51346   8.777   3.330   6.553  0.1348 -1.4821  0.2010
  381MOL0     O51347   8.758   3.128   6.799 -0.0262  0.9246 -0.3064
  381MOL0     C51348   8.433   3.014   6.687 -0.2289 -0.1241 -0.0254
  381MOL0     C51349   8.343   2.910   6.721 -0.3885 -0.3799  1.2378
  381MOL0     N51350   7.769   2.879   7.177 -0.7096  0.0021 -0.5128
  381MOL0     N51351   7.664   2.953   7.185 -0.1327  0.1015  0.4792
  381MOL0     C51352   6.988   2.656   6.098  0.4274  0.6655  0.3877
  381MOL0     C51353   6.985   2.521   6.058 -0.1071 -0.2855  0.2160
  381MOL0     C51354   7.018   2.070   6.125 -0.6817 -0.3990 -1.1911
  381MOL0     C51355   6.896   2.030   6.063  0.6806  0.9273 -0.8278
  381MOL0     C51356   6.872   1.898   6.036  0.7646  0.2324 -0.5897
  381MOL0     C51357   6.962   1.802   6.077  0.3765 -0.2180 -0.4727
  381MOL0     O51358   6.929   1.672   6.069  0.0707 -0.1197  0.1590
  381MOL0     C51359   6.793   1.623   6.039 -0.1738 -0.1032 -0.3319
  381MOL0     C51360   6.810   1.541   5.907 -0.2556  0.3349  0.8408
  381MOL0     C51361   6.928   1.450   5.898  0.0016  0.9469 -0.4277
  381MOL0     C51362   6.895   1.360   5.787  0.0876  0.2295  0.4010
  381MOL0     C51363   6.979   1.240   5.784 -0.8913 -0.5527 -0.3680
  381MOL0     C51364   7.063   1.156   5.784  0.4456  0.2075 -0.1677
  381MOL0     C51365   7.082   1.839   6.131  0.0224 -0.3270 -0.6155
  381MOL0     C51366   7.115   1.970   6.149 -0.0728  1.2465  0.7294
  381MOL0     C51367   7.252   1.999   6.205  0.5793 -0.1257 -0.8530
  381MOL0     H51368   6.887   2.398   6.363  0.8576 -0.2979 -0.7817
  381MOL0     H51369   6.896   2.634   6.423 -0.2045  0.8510  0.3588
  381MOL0     H51370   6.942   3.006   6.359  1.5380  0.8370  1.0518
  381MOL0     H51371   6.874   2.860   6.408 -0.3075  2.0867 -0.4031
  381MOL0     H51372   7.167   2.952   6.450  1.4272 -1.9989 -0.1561
  381MOL0     H51373   7.127   2.786   6.467  1.3449  0.1628  2.7845
  381MOL0     H51374   6.978   2.825   6.643  0.2977 -0.6450 -0.7438
  381MOL0     H51375   6.976   3.000   6.616 -1.5038 -1.1714 -0.9291
  381MOL0     H51376   7.236   2.852   6.662 -0.8205 -2.4461  1.9314
  381MOL0     H51377   7.217   3.020   6.650 -0.1988 -0.4892 -1.5628
  381MOL0     H51378   7.044   3.008   6.862 -0.4715 -0.6126  0.3918
  381MOL0     H51379   7.116   2.848   6.884 -2.7992  0.5202  0.5440
  381MOL0     H51380   7.280   3.113   6.890 -1.0221  1.4318  2.5370
  381MOL0     H51381   7.208   3.027   7.025  2.5488 -4.0807  1.7061
  381MOL0     H51382   7.434   2.923   6.846 -1.2770  0.8329 -1.5915
  381MOL0     H51383   7.351   2.837   6.982 -0.0617 -0.1791  1.0219
  381MOL0     H51384   7.500   3.107   7.002  2.5177  0.4790  1.1615
  381MOL0     H51385   7.415   3.027   7.129  0.7106  2.1556  0.0118
  381MOL0     H51386   7.621   2.813   6.895 -0.8163 -0.1975 -0.3093
  381MOL0     H51387   7.850   2.606   7.115  4.2800  1.1401  0.8319
  381MOL0     H51388   7.818   2.640   6.948 -0.3280 -1.2756 -0.2373
  381MOL0     H51389   7.993   2.811   6.961 -0.4279 -0.2664  0.0677
  381MOL0     H51390   8.018   2.770   7.138 -0.3408  0.0310 -0.2473
  381MOL0     H51391   8.058   2.582   6.905  0.7440  0.8915 -0.4811
  381MOL0     H51392   8.092   2.546   7.082  2.3588  0.0859  0.1364
  381MOL0     H51393   8.299   2.589   6.965 -1.1777 -0.9232 -1.4579
  381MOL0     H51394   8.269   2.719   7.072  1.0287 -0.1051 -1.8259
  381MOL0     H51395   8.485   2.755   6.979 -0.5619  1.4502  2.2054
  381MOL0     H51396   8.667   2.900   6.920  1.5862 -3.0148 -4.2240
  381MOL0     H51397   8.554   3.461   6.779 -0.1126 -1.6950 -0.3488
  381MOL0     H51398   8.674   3.679   6.697  0.6820 -0.0580 -0.4282
  381MOL0     H51399   8.727   3.741   6.387  1.3635  0.4650 -2.3765
  381MOL0     H51400   8.719   3.852   6.537  1.6247  0.6763  1.0001
  381MOL0     H51401   8.939   3.859   6.328  2.0099  2.0563 -0.8342
  381MOL0     H51402   8.811   3.981   6.362  2.9775  3.4565  0.9367
  381MOL0     H51403   8.916   3.978   6.602 -0.9240  0.1185 -0.9481
  381MOL0     H51404   9.037   3.879   6.527 -0.7708 -0.9460  1.8699
  381MOL0     H51405   8.943   4.159   6.460  0.5047 -0.5213  4.5518
  381MOL0     H51406   9.039   4.070   6.333 -0.6146 -3.4270  0.4576
  381MOL0     H51407   9.212   4.041   6.499 -1.8806 -2.9421 -2.4584
  381MOL0     H51408   9.120   4.136   6.616 -0.2411 -2.0843 -0.4995
  381MOL0     H51409   9.259   4.222   6.370 -0.1710 -1.1570  0.4154
  381MOL0     H51410   9.112   4.307   6.436 -0.6680  0.1493  0.6387
  381MOL0     H51411   9.385   4.240   6.563  2.6178  2.1817 -2.0177
  381MOL0     H51412   9.269   4.327   6.656 -2.6758 -0.3332 -0.7960
  381MOL0     H51413   9.300   4.518   6.470  0.5674  2.0796  1.2287
  381MOL0     H51414   9.415   4.502   6.601  0.8987 -2.1999  0.6754
  381MOL0     H51415   8.921   3.438   6.449 -0.7092 -0.7282 -0.6845
  381MOL0     H51416   8.807   3.233   6.512 -0.0683 -0.4767 -2.4889
  381MOL0     H51417   8.410   3.083   6.607 -0.7519 -2.1243 -1.6833
  381MOL0     H51418   8.254   2.895   6.660  0.5155 -0.8248 -0.0050
  381MOL0     H51419   7.001   2.734   6.024  2.2129  2.4165  2.4222
  381MOL0     H51420   7.015   2.482   5.961 -2.0245  1.5850 -1.2215
  381MOL0     H51421   6.814   2.097   6.038  1.8465  2.3283 -1.0715
  381MOL0     H51422   6.782   1.885   5.977  2.4060  0.0843 -3.1831
  381MOL0     H51423   6.698   1.678   6.038 -2.0449 -3.1524 -0.3515
  381MOL0     H51424   6.770   1.544   6.111 -1.3244 -0.7021 -1.3150
  381MOL0     H51425   6.807   1.609   5.822  0.7763  1.3819  1.6030
  381MOL0     H51426   6.718   1.483   5.900  0.8123 -1.2937 -0.1563
  381MOL0     H51427   6.929   1.385   5.986 -4.2825 -0.1725 -0.9638
  381MOL0     H51428   7.023   1.505   5.895  0.1169  0.6903 -1.7441
  381MOL0     H51429   6.794   1.319   5.790  0.1026 -0.2111 -2.3861
  381MOL0     H51430   6.916   1.408   5.691 -0.8492  1.6599  0.8824
  381MOL0     H51431   7.131   1.074   5.773 -0.9698 -0.7850 -2.1760
  381MOL0     H51432   7.155   1.763   6.158 -0.8183 -0.9830 -0.1226
  381MOL0     H51433   7.332   2.013   6.131  1.4206  3.7054  0.5087
  381MOL0     H51434   7.269   2.085   6.271  1.4311  0.2640 -1.5534
  381MOL0     H51435   7.282   1.916   6.269  1.8867  0.1450 -1.0933
  382MOL0     O51436   4.664   4.599  11.042 -0.1505  1.0306 -0.8396
  382MOL0     C51437   4.695   4.693  11.117 -0.0739 -0.3544 -0.4981
  382MOL0     O51438   4.791   4.687  11.216  0.8405  0.1366 -0.2520
  382MOL0     C51439   4.851   4.562  11.249 -0.3540 -0.4114 -1.0283
  382MOL0     C51440   4.975   4.516  11.213 -0.5030  0.2264  0.3392
  382MOL0     C51441   5.026   4.392  11.260 -0.1969  0.6099 -0.2606
  382MOL0     C51442   4.942   4.311  11.340  0.0928  0.2078  0.2859
  382MOL0     O51443   4.981   4.185  11.377  0.3417 -0.6720  0.3926
  382MOL0     C51444   5.117   4.146  11.368  0.3097 -0.0217 -0.3783
  382MOL0     C51445   5.128   4.002  11.407 -0.6214 -0.1522 -0.3159
  382MOL0     C51446   5.046   3.917  11.304  0.6914  0.4419  0.3554
  382MOL0     C51447   5.118   3.781  11.261 -0.2621  0.8228  0.2748
  382MOL0     C51448   5.040   3.687  11.169  0.1447  0.1536 -0.7300
  382MOL0     C51449   4.963   3.570  11.228 -0.8639  0.6661  1.2156
  382MOL0     C51450   4.866   3.608  11.347 -0.8042  0.8282  0.2799
  382MOL0     C51451   4.774   3.499  11.390  0.9918  0.4407  0.3136
  382MOL0     N51452   4.835   3.379  11.446 -0.3180  0.1932 -0.1698
  382MOL0     C51453   4.908   3.383  11.564  0.4811  0.3590  0.3742
  382MOL0     C51454   4.953   3.258  11.580 -0.4308 -0.3877  0.0250
  382MOL0     C51455   5.044   3.201  11.683 -0.4588 -1.8987 -0.0169
  382MOL0     C51456   4.972   3.144  11.801  0.8575  0.2293  0.7188
  382MOL0     C51457   5.053   3.031  11.866  0.1726  1.4223 -0.6098
  382MOL0     C51458   5.152   3.102  11.965 -0.5281  0.6510 -0.2465
  382MOL0     O51459   5.094   3.165  12.077  0.6154 -0.3856  0.5825
  382MOL0     C51460   5.171   3.265  12.129  0.0035  0.3437 -0.6280
  382MOL0     C51461   5.200   3.381  12.053 -0.1316 -0.4700 -0.0445
  382MOL0     C51462   5.277   3.479  12.113 -0.3632  1.0474  0.7969
  382MOL0     C51463   5.307   3.487  12.249 -0.4650 -0.5782  0.5083
  382MOL0     C51464   5.370   3.598  12.319 -0.2776  1.0154 -0.1389
  382MOL0     O51465   5.426   3.573  12.437 -0.7245  0.6540  0.5474
  382MOL0     C51466   5.482   3.681  12.510 -0.2754 -0.0817  0.1818
  382MOL0     C51467   5.424   3.809  12.518 -0.6271  0.2837 -0.2819
  382MOL0     C51468   5.483   3.900  12.598  0.0092  0.0669 -0.9004
  382MOL0     C51469   5.591   3.869  12.678  0.4580 -0.5759  0.8149
  382MOL0     O51470   5.631   3.969  12.763 -0.4766 -0.2871 -0.3951
  382MOL0     C51471   5.767   3.967  12.810 -0.6994 -0.5929 -0.5736
  382MOL0     C51472   5.811   4.095  12.895 -0.8758  0.1312 -0.6354
  382MOL0     C51473   5.762   4.230  12.845 -0.7572 -0.2502  0.7715
  382MOL0     C51474   5.835   4.348  12.893 -0.4453  0.1347  0.5029
  382MOL0     C51475   5.801   4.366  13.043 -0.1107 -0.2229 -0.3588
  382MOL0     C51476   5.878   4.487  13.108  0.7405  0.1465 -0.5131
  382MOL0     C51477   5.863   4.621  13.025  0.2896  0.0501  0.6166
  382MOL0     C51478   5.918   4.746  13.108  0.5685  0.8296  0.5347
  382MOL0    Cl51479   5.849   4.776  13.262 -0.3369  0.2693 -0.5302
  382MOL0     C51480   5.640   3.733  12.679 -0.0688 -0.5702 -0.9216
  382MOL0     C51481   5.596   3.640  12.585 -0.0048  1.3636 -0.0786
  382MOL0     O51482   5.362   3.710  12.266  0.0848 -0.6834  0.1553
  382MOL0     C51483   5.274   3.376  12.322  0.4804 -0.2304 -0.1066
  382MOL0     C51484   5.212   3.270  12.264 -0.3260 -0.6887  0.0251
  382MOL0     N51485   4.918   3.186  11.465  0.1582  0.2803  1.1163
  382MOL0     N51486   4.850   3.258  11.385 -0.4148 -0.5807 -0.4312
  382MOL0     C51487   4.816   4.355  11.383 -1.9012 -0.0585 -0.5064
  382MOL0     C51488   4.781   4.484  11.344  0.2350 -0.0014 -0.0404
  382MOL0     C51489   4.633   4.832  11.085  0.5568 -0.4159  0.2812
  382MOL0     C51490   4.675   4.942  11.168 -0.1802 -0.4671  0.8442
  382MOL0     C51491   4.625   5.072  11.142 -0.8806 -0.1902 -0.3072
  382MOL0     C51492   4.538   5.103  11.044 -0.1475 -0.7261  0.0070
  382MOL0     O51493   4.468   5.213  11.032 -0.0370 -0.3954  0.6202
  382MOL0     C51494   4.455   5.324  11.126  0.2924  0.0625 -0.1893
  382MOL0     C51495   4.371   5.277  11.242 -0.5561 -0.1547 -0.2565
  382MOL0     C51496   4.309   5.408  11.309  0.0428 -0.0936 -0.7240
  382MOL0     C51497   4.419   5.482  11.388  0.1161  0.1676 -0.4608
  382MOL0     C51498   4.480   5.571  11.294  0.6787  0.9827  0.5385
  382MOL0     C51499   4.506   5.656  11.205 -0.1280  1.2337 -0.1555
  382MOL0     C51500   4.489   5.002  10.959 -0.5092 -0.2220  0.1739
  382MOL0     C51501   4.536   4.871  10.979 -0.4532 -0.2963 -0.7532
  382MOL0     C51502   4.500   4.762  10.875 -0.7065  0.6880 -0.5631
  382MOL0     H51503   5.027   4.581  11.144 -1.0023  1.7267  1.3447
  382MOL0     H51504   5.122   4.358  11.221 -1.3491 -2.2090 -0.8626
  382MOL0     H51505   5.144   4.148  11.262  0.5178 -1.4400 -0.3747
  382MOL0     H51506   5.178   4.205  11.437 -0.3411 -0.6405  0.7702
  382MOL0     H51507   5.088   3.984  11.508  0.8407 -2.7058 -0.1014
  382MOL0     H51508   5.234   3.976  11.411  0.4895  3.6745 -1.0614
  382MOL0     H51509   5.029   3.977  11.214  1.3970 -1.4861 -1.1426
  382MOL0     H51510   4.952   3.885  11.349  0.6010 -2.3220 -1.5583
  382MOL0     H51511   5.214   3.808  11.218  1.7081 -4.6955  0.4597
  382MOL0     H51512   5.154   3.729  11.350 -0.3877  1.2576  0.5844
  382MOL0     H51513   4.977   3.757  11.114 -0.0365  1.6817  1.3078
  382MOL0     H51514   5.100   3.640  11.090  0.0309 -0.7348 -0.3104
  382MOL0     H51515   4.902   3.518  11.154  0.4417 -0.1634  0.6849
  382MOL0     H51516   5.033   3.495  11.267 -1.6908  0.0408  1.5115
  382MOL0     H51517   4.809   3.689  11.303  0.5917  1.1872 -0.9691
  382MOL0     H51518   4.922   3.656  11.427  1.0663  1.4911 -1.3311
  382MOL0     H51519   4.706   3.527  11.471 -2.3491 -1.5285 -1.5566
  382MOL0     H51520   4.710   3.475  11.304 -1.5203 -2.5253  2.7651
  382MOL0     H51521   4.916   3.462  11.638 -1.6645  1.2401 -0.2757
  382MOL0     H51522   5.100   3.119  11.637 -0.4614 -0.1634 -3.3926
  382MOL0     H51523   5.104   3.288  11.710 -0.2948 -1.9211 -0.3045
  382MOL0     H51524   4.947   3.217  11.877 -1.5851  0.2515 -0.0179
  382MOL0     H51525   4.869   3.113  11.782  0.4301 -0.4383  3.7297
  382MOL0     H51526   5.110   2.972  11.793 -0.3477  0.0917  0.0210
  382MOL0     H51527   5.000   2.949  11.916  0.8088 -0.3536 -2.6606
  382MOL0     H51528   5.225   3.162  11.910  2.9041 -0.3461  2.8144
  382MOL0     H51529   5.206   3.014  11.999 -1.4899  0.4639  0.8747
  382MOL0     H51530   5.158   3.398  11.954 -1.3099  1.1487  0.6846
  382MOL0     H51531   5.310   3.552  12.040  2.2276 -1.1799 -0.4461
  382MOL0     H51532   5.332   3.835  12.468 -1.5514  0.9778  1.6734
  382MOL0     H51533   5.446   4.001  12.615  2.5832  0.8133  0.9519
  382MOL0     H51534   5.768   3.885  12.883 -3.1158 -0.5472 -0.4245
  382MOL0     H51535   5.835   3.968  12.725  2.1215 -1.7803  1.5189
  382MOL0     H51536   5.791   4.075  13.001  0.2673 -3.2443 -0.9227
  382MOL0     H51537   5.920   4.091  12.892 -0.7208  1.3603  1.4410
  382MOL0     H51538   5.749   4.232  12.736 -0.8655  3.2753  0.7394
  382MOL0     H51539   5.661   4.244  12.885  0.5973 -0.7069  4.8871
  382MOL0     H51540   5.798   4.438  12.844  1.3669  3.3265  4.4111
  382MOL0     H51541   5.943   4.334  12.886 -0.3988 -0.4007  1.9055
  382MOL0     H51542   5.818   4.269  13.091  0.4963  0.0007 -0.1107
  382MOL0     H51543   5.696   4.391  13.060  0.1157 -0.4292  1.5332
  382MOL0     H51544   5.833   4.509  13.205  2.2397 -1.6612  0.6901
  382MOL0     H51545   5.982   4.457  13.127  0.0139 -2.0669  0.3000
  382MOL0     H51546   5.757   4.633  13.003  0.6387  0.8365 -0.7889
  382MOL0     H51547   5.920   4.626  12.932 -1.0654 -0.5533 -0.2790
  382MOL0     H51548   6.025   4.727  13.120  0.3599  0.2163  1.5879
  382MOL0     H51549   5.914   4.838  13.049  0.3007  0.5260  0.0746
  382MOL0     H51550   5.718   3.720  12.753  0.6761  1.7248 -1.2463
  382MOL0     H51551   5.634   3.543  12.555  2.0661  1.2302  2.5776
  382MOL0     H51552   5.297   3.366  12.428  1.4433 -3.0966 -0.5145
  382MOL0     H51553   5.190   3.181  12.323 -2.9133 -2.9040 -3.8157
  382MOL0     H51554   4.768   4.296  11.461  5.1887 -4.4458  1.5012
  382MOL0     H51555   4.687   4.525  11.380  0.2692  1.2224 -1.2535
  382MOL0     H51556   4.756   4.937  11.241 -1.6075  0.0051  2.5271
  382MOL0     H51557   4.674   5.151  11.198  1.8855 -3.2872  2.0870
  382MOL0     H51558   4.407   5.400  11.063 -0.8462 -1.2927 -1.0145
  382MOL0     H51559   4.552   5.363  11.155 -0.4027 -0.4449  3.2617
  382MOL0     H51560   4.435   5.222  11.312 -0.9083  1.3670  1.3201
  382MOL0     H51561   4.295   5.207  11.205  1.0400 -1.1349 -1.8121
  382MOL0     H51562   4.233   5.365  11.376  0.1512  1.3478  0.3760
  382MOL0     H51563   4.240   5.469  11.249 -0.6819  2.8931  2.8126
  382MOL0     H51564   4.391   5.545  11.473  0.4160 -0.5950  0.2132
  382MOL0     H51565   4.491   5.412  11.432  0.3950  2.0472  2.3723
  382MOL0     H51566   4.530   5.739  11.141  5.3876  1.3865  1.5470
  382MOL0     H51567   4.415   5.029  10.884  0.7283 -2.4683 -2.0088
  382MOL0     H51568   4.460   4.668  10.916 -0.6885  2.0608  2.9792
  382MOL0     H51569   4.429   4.815  10.811 -0.5413  1.2927 -0.2565
  382MOL0     H51570   4.589   4.736  10.816  0.1365 -1.7508  1.5741
  383MOL0     O51571   2.466  11.102   6.566 -0.7907  0.5046 -0.5176
  383MOL0     C51572   2.357  11.047   6.558  0.7060  0.8545 -0.1012
  383MOL0     O51573   2.240  11.101   6.529 -0.3074 -0.1950  0.4344
  383MOL0     C51574   2.237  11.236   6.491 -0.2241  1.4320 -0.7628
  383MOL0     C51575   2.160  11.273   6.384  0.6316  0.0829 -0.0759
  383MOL0     C51576   2.149  11.407   6.342  0.0819  0.8356 -0.1943
  383MOL0     C51577   2.201  11.513   6.416 -0.4031 -0.3007 -0.5477
  383MOL0     O51578   2.180  11.637   6.374  0.0367  0.1380  0.0646
  383MOL0     C51579   2.211  11.748   6.448 -0.0530  0.3797  0.3377
  383MOL0     C51580   2.359  11.786   6.401  0.5056  0.2872 -1.3934
  383MOL0     C51581   2.434  11.862   6.511 -0.5214  0.4876 -0.2952
  383MOL0     C51582   2.566  11.932   6.459  1.4130 -0.0838  0.3089
  383MOL0     C51583   2.547  12.087   6.421 -0.0966  0.1661  0.5641
  383MOL0     C51584   2.662  12.148   6.336  0.0728 -0.8193 -0.3656
  383MOL0     C51585   2.636  12.290   6.285 -1.0804 -1.0215  0.2708
  383MOL0     C51586   2.765  12.354   6.230  0.1497 -0.5151 -0.4564
  383MOL0     N51587   2.734  12.492   6.183 -0.7390  0.4228 -0.7109
  383MOL0     C51588   2.802  12.563   6.081 -0.1608  0.2012  0.3224
  383MOL0     C51589   2.765  12.693   6.099 -0.0250  0.3393  0.5399
  383MOL0     C51590   2.794  12.820   6.016  0.7432  0.3723  0.5616
  383MOL0     C51591   2.929  12.895   6.052 -0.1085  0.1986  0.9832
  383MOL0     C51592   2.941  12.991   5.932 -0.7336 -0.4535 -0.0702
  383MOL0     C51593   3.060  13.080   5.960 -0.6166  1.1731  0.9674
  383MOL0     O51594   3.073  13.175   5.855 -0.3517  0.1739  0.3361
  383MOL0     C51595   3.190  13.161   5.785 -0.6404  0.1457 -0.1649
  383MOL0     C51596   3.200  13.056   5.693  0.0302  0.2397  1.4167
  383MOL0     C51597   3.309  13.042   5.610  0.2836 -0.7304 -1.2223
  383MOL0     C51598   3.415  13.129   5.624  0.9773 -1.0869  0.0512
  383MOL0     C51599   3.538  13.105   5.553 -0.1069 -0.3064 -0.2144
  383MOL0     O51600   3.644  13.168   5.610  0.6187  0.4569 -0.1258
  383MOL0     C51601   3.769  13.151   5.573 -0.3004  0.1514 -0.5389
  383MOL0     C51602   3.877  13.148   5.667  1.2996 -1.3913  0.9842
  383MOL0     C51603   4.007  13.149   5.623 -1.2313  0.7216 -0.0061
  383MOL0     C51604   4.038  13.147   5.487 -0.7389  0.1600 -0.4801
  383MOL0     O51605   4.174  13.151   5.441 -0.7599 -0.9750  0.2290
  383MOL0     C51606   4.278  13.115   5.530  0.1266  0.0546  0.1139
  383MOL0     C51607   4.428  13.127   5.482  0.7374  0.1344  0.1928
  383MOL0     C51608   4.458  13.277   5.481 -0.1737  0.7078  1.0188
  383MOL0     C51609   4.592  13.296   5.414 -0.7134 -0.8548  0.0229
  383MOL0     C51610   4.605  13.448   5.367 -0.6591  0.6098 -0.9303
  383MOL0     C51611   4.551  13.479   5.231  0.5501  0.1109  1.0468
  383MOL0     C51612   4.565  13.629   5.196  0.8642  0.7436  0.7910
  383MOL0     C51613   4.452  13.681   5.099 -0.2213  0.3329  0.7613
  383MOL0    Cl51614   4.483  13.851   5.071  0.4569  0.2518 -0.1531
  383MOL0     C51615   3.937  13.145   5.392 -0.2137 -0.3130 -0.1270
  383MOL0     C51616   3.799  13.154   5.433  1.3301 -0.2221 -0.3195
  383MOL0     O51617   3.544  13.031   5.452  0.2249 -0.5721 -0.3547
  383MOL0     C51618   3.402  13.236   5.712  0.2958  0.2518 -0.7231
  383MOL0     C51619   3.287  13.252   5.796 -1.0186  0.7412 -0.4518
  383MOL0     N51620   2.668  12.701   6.193 -0.0926  0.2333 -0.8303
  383MOL0     N51621   2.652  12.582   6.242  0.4216  1.7522  0.0190
  383MOL0     C51622   2.280  11.473   6.528 -0.4617 -0.4646  0.8459
  383MOL0     C51623   2.292  11.342   6.573 -0.0976 -0.1314  0.8033
  383MOL0     C51624   2.371  10.896   6.579  1.1671  0.6911  0.2592
  383MOL0     C51625   2.477  10.842   6.656 -0.7640 -0.4129  0.4995
  383MOL0     C51626   2.484  10.709   6.691 -0.5323  0.4885  0.3859
  383MOL0     C51627   2.387  10.617   6.657  0.0065  0.4222  0.4925
  383MOL0     O51628   2.391  10.491   6.706 -0.3116  1.1291 -0.5190
  383MOL0     C51629   2.282  10.422   6.763  0.5086 -0.3155 -0.0228
  383MOL0     C51630   2.304  10.277   6.787 -0.7174  0.1363  0.2524
  383MOL0     C51631   2.439  10.250   6.850  0.6540  0.2212 -0.4604
  383MOL0     C51632   2.488  10.108   6.841 -0.3213 -0.5598 -0.4065
  383MOL0     C51633   2.629  10.099   6.879  0.4193  0.1311  0.2954
  383MOL0     C51634   2.750  10.070   6.919 -0.0032  0.4177  0.2008
  383MOL0     C51635   2.282  10.666   6.587  0.9750  0.8843  0.8421
  383MOL0     C51636   2.272  10.798   6.547 -0.6530  0.4471 -0.1123
  383MOL0     C51637   2.148  10.833   6.468  1.0094  0.1961  0.1043
  383MOL0     H51638   2.116  11.191   6.328 -3.6405 -0.7989  3.9534
  383MOL0     H51639   2.088  11.435   6.256 -0.3672  4.9075  1.2009
  383MOL0     H51640   2.141  11.826   6.414 -0.3460  0.1073  0.3063
  383MOL0     H51641   2.196  11.733   6.555 -0.3720 -0.9141  0.1288
  383MOL0     H51642   2.352  11.849   6.311  1.8187  1.4058 -0.7520
  383MOL0     H51643   2.414  11.695   6.378  1.2671 -0.1827  1.8339
  383MOL0     H51644   2.468  11.784   6.579  1.7864  1.5367 -0.1192
  383MOL0     H51645   2.383  11.943   6.563  0.6008 -0.7264  2.9327
  383MOL0     H51646   2.623  11.946   6.551 -2.4953 -0.2329  2.9580
  383MOL0     H51647   2.610  11.862   6.387 -1.6964 -0.9495 -0.9183
  383MOL0     H51648   2.456  12.103   6.362 -1.6080 -1.5611  2.2949
  383MOL0     H51649   2.526  12.146   6.511 -0.6996  0.7805  0.0320
  383MOL0     H51650   2.750  12.146   6.402 -0.3709  0.2827  0.2778
  383MOL0     H51651   2.676  12.089   6.245 -0.8731  0.2149 -1.1908
  383MOL0     H51652   2.592  12.348   6.366 -0.8913 -0.4349 -0.0418
  383MOL0     H51653   2.563  12.280   6.205 -0.9336 -1.1006  0.1456
  383MOL0     H51654   2.848  12.362   6.301 -1.4602  1.4385  1.3245
  383MOL0     H51655   2.787  12.296   6.140 -1.8849 -1.1904 -0.5594
  383MOL0     H51656   2.868  12.527   6.002  1.0162  0.6580  1.0835
  383MOL0     H51657   2.809  12.791   5.912  2.7454  0.9698  0.6297
  383MOL0     H51658   2.710  12.889   6.023 -0.4848 -0.9902 -0.1818
  383MOL0     H51659   2.916  12.948   6.147 -0.8716  2.0752 -0.1170
  383MOL0     H51660   3.016  12.829   6.061  0.6358  1.0548  0.2216
  383MOL0     H51661   2.855  13.055   5.912 -1.1315 -1.4965 -1.8327
  383MOL0     H51662   2.947  12.938   5.837 -0.8484 -0.0326 -0.3127
  383MOL0     H51663   3.152  13.026   5.983  0.0161  2.0065  0.4861
  383MOL0     H51664   3.050  13.147   6.046 -0.8344  0.4506  1.5123
  383MOL0     H51665   3.118  12.988   5.672  1.9390 -1.3674 -1.5196
  383MOL0     H51666   3.305  12.961   5.539  0.2218 -0.5238 -1.4573
  383MOL0     H51667   3.841  13.150   5.769  2.6866 -0.1505  1.4923
  383MOL0     H51668   4.088  13.143   5.695  2.6884 -3.4702 -4.0562
  383MOL0     H51669   4.263  13.184   5.614 -0.8419 -1.0515  0.8825
  383MOL0     H51670   4.261  13.017   5.575 -1.0181  1.1156  2.1643
  383MOL0     H51671   4.494  13.084   5.558 -0.5314  0.7201  1.6982
  383MOL0     H51672   4.442  13.074   5.388  1.5067  0.0267  0.3608
  383MOL0     H51673   4.385  13.335   5.425  0.4230  0.7380  0.2682
  383MOL0     H51674   4.464  13.314   5.584 -0.2704 -0.8004  1.6061
  383MOL0     H51675   4.598  13.223   5.333 -3.2018 -2.7005  1.3797
  383MOL0     H51676   4.666  13.264   5.488  0.9912  1.1742 -0.7066
  383MOL0     H51677   4.713  13.466   5.377 -0.7181  1.0827 -1.1829
  383MOL0     H51678   4.561  13.517   5.439  0.6882  2.1753 -1.5392
  383MOL0     H51679   4.593  13.419   5.150  4.2112  1.4078  1.8070
  383MOL0     H51680   4.446  13.447   5.231  0.3323  0.6016 -1.4946
  383MOL0     H51681   4.662  13.648   5.150  1.6567 -0.5437  1.8773
  383MOL0     H51682   4.571  13.676   5.294  1.6929 -0.7179  1.4735
  383MOL0     H51683   4.451  13.621   5.008  1.6061 -0.1877  1.0426
  383MOL0     H51684   4.351  13.673   5.143 -0.5918  2.3855  0.3848
  383MOL0     H51685   3.976  13.159   5.291 -0.9346  2.1491 -0.1226
  383MOL0     H51686   3.723  13.167   5.357  0.9956 -2.2161 -0.3769
  383MOL0     H51687   3.483  13.307   5.718  0.7043 -0.2651  0.2931
  383MOL0     H51688   3.282  13.333   5.868  2.3847  0.8603 -0.1599
  383MOL0     H51689   2.333  11.549   6.584 -0.5532 -0.1939  0.5684
  383MOL0     H51690   2.341  11.317   6.666 -0.1837  1.3819  1.2787
  383MOL0     H51691   2.553  10.904   6.703  0.8549 -0.3268 -2.0628
  383MOL0     H51692   2.568  10.669   6.746 -1.8561 -2.6515  0.3034
  383MOL0     H51693   2.192  10.430   6.701  1.4568  2.5354 -1.2262
  383MOL0     H51694   2.272  10.476   6.857  1.6283 -1.1314  0.5918
  383MOL0     H51695   2.325  10.241   6.685 -1.7105  3.2403 -1.1701
  383MOL0     H51696   2.216  10.223   6.824  0.1610  0.3201  2.7915
  383MOL0     H51697   2.430  10.271   6.957 -0.2866 -3.4121  0.3054
  383MOL0     H51698   2.505  10.319   6.796 -1.3918  0.6808 -2.5372
  383MOL0     H51699   2.432  10.052   6.917 -0.2706 -0.7438 -0.5054
  383MOL0     H51700   2.469  10.063   6.743 -1.6634  0.4215 -0.6201
  383MOL0     H51701   2.848  10.032   6.939  0.6914  1.9672 -0.0733
  383MOL0     H51702   2.206  10.590   6.572  0.8880  0.6308  2.4765
  383MOL0     H51703   2.096  10.740   6.443  3.9229 -2.1377  2.0588
  383MOL0     H51704   2.074  10.888   6.526  1.3224 -0.5569  1.2564
  383MOL0     H51705   2.167  10.876   6.369 -0.1502 -3.0199 -1.6650
  384MOL0     O51706   9.153   2.015   9.932 -0.0384  0.1259  0.5754
  384MOL0     C51707   9.219   2.084  10.008 -0.6261 -0.5617  0.4183
  384MOL0     O51708   9.214   2.216  10.019  0.1817 -0.0291 -0.4447
  384MOL0     C51709   9.113   2.279   9.958 -0.3519  0.7386  0.3843
  384MOL0     C51710   9.003   2.323  10.030  0.2868 -0.1048 -0.1195
  384MOL0     C51711   8.898   2.392   9.964 -0.3352 -0.1164  0.5195
  384MOL0     C51712   8.908   2.411   9.820 -0.8883  0.8482  0.3894
  384MOL0     O51713   8.810   2.481   9.754  0.4613 -0.1380  0.1520
  384MOL0     C51714   8.796   2.615   9.807 -0.5563  0.4414  0.3244
  384MOL0     C51715   8.799   2.732   9.710 -0.2806  0.1405  0.7781
  384MOL0     C51716   8.675   2.746   9.617 -0.3248  0.9249 -0.3389
  384MOL0     C51717   8.694   2.855   9.512  0.2647  0.4372  0.5288
  384MOL0     C51718   8.579   2.859   9.415 -0.1626  0.9373  0.2361
  384MOL0     C51719   8.590   2.989   9.343 -0.1649 -1.1163  0.0206
  384MOL0     C51720   8.478   3.014   9.240  0.4117  1.0293 -0.3558
  384MOL0     C51721   8.442   3.156   9.221  0.0327 -0.1350  0.2880
  384MOL0     N51722   8.536   3.227   9.125 -0.3593 -0.3807 -0.6113
  384MOL0     C51723   8.523   3.217   8.986 -0.1345 -0.0424 -0.2113
  384MOL0     C51724   8.646   3.247   8.939  0.5216  0.3777  0.7228
  384MOL0     C51725   8.710   3.253   8.803  0.2671  0.2566  0.5929
  384MOL0     C51726   8.654   3.140   8.709 -0.2299 -0.8006  0.7270
  384MOL0     C51727   8.756   3.041   8.646  0.0963  0.0534 -0.3963
  384MOL0     C51728   8.824   2.964   8.756  0.4108 -0.3523  0.0133
  384MOL0     O51729   8.737   2.916   8.862  0.0379 -0.4688  0.5400
  384MOL0     C51730   8.759   2.802   8.925  0.3973  0.4706 -0.2969
  384MOL0     C51731   8.663   2.769   9.018  0.7501 -0.3138 -0.3661
  384MOL0     C51732   8.672   2.651   9.093 -0.3224  0.2266 -0.4021
  384MOL0     C51733   8.790   2.576   9.088  0.1634  0.0489 -0.4360
  384MOL0     C51734   8.812   2.468   9.197  0.8539  0.2135 -0.2983
  384MOL0     O51735   8.711   2.419   9.274  0.5880 -0.7117  0.1351
  384MOL0     C51736   8.729   2.323   9.361  0.1567  0.0187  0.0104
  384MOL0     C51737   8.688   2.346   9.493 -0.7358  0.9838  0.2809
  384MOL0     C51738   8.701   2.239   9.587  0.2431 -0.9906  0.6543
  384MOL0     C51739   8.748   2.115   9.543  0.6434 -0.1245 -0.2661
  384MOL0     O51740   8.737   1.994   9.608  0.0010  0.4808 -0.1992
  384MOL0     C51741   8.766   2.002   9.754  0.3216 -0.2103  0.0936
  384MOL0     C51742   8.863   1.893   9.787 -0.6291  1.2164 -0.0158
  384MOL0     C51743   8.790   1.748   9.778  1.2566  0.0701 -0.6995
  384MOL0     C51744   8.744   1.691   9.916  0.0127 -0.2798  0.6719
  384MOL0     C51745   8.616   1.605   9.915 -0.4517  1.0400  0.6175
  384MOL0     C51746   8.486   1.668   9.855 -0.2024 -0.4560 -0.9497
  384MOL0     C51747   8.431   1.768   9.953 -0.2119 -1.0465  0.2286
  384MOL0     C51748   8.281   1.756   9.956 -0.3180  0.7049  0.2626
  384MOL0    Cl51749   8.205   1.600  10.003  0.0661  0.1603 -0.0902
  384MOL0     C51750   8.794   2.093   9.414  1.0259  0.5021 -0.1134
  384MOL0     C51751   8.772   2.199   9.323 -0.9153  0.8531  0.2867
  384MOL0     O51752   8.930   2.458   9.221 -0.4129 -0.4109 -0.0664
  384MOL0     C51753   8.885   2.620   9.003 -0.0376  0.2466 -0.6265
  384MOL0     C51754   8.872   2.723   8.919 -0.1730 -1.1340 -0.3366
  384MOL0     N51755   8.734   3.275   9.043 -0.2220  0.2957 -0.2984
  384MOL0     N51756   8.661   3.267   9.155  0.1319  0.5118  0.1450
  384MOL0     C51757   9.019   2.358   9.751  1.4073  0.8630 -0.2180
  384MOL0     C51758   9.118   2.288   9.814  0.2272 -0.2470 -0.4663
  384MOL0     C51759   9.329   2.014  10.093  0.5279 -0.1455 -0.5406
  384MOL0     C51760   9.349   2.073  10.224  0.3233 -0.6768  0.5002
  384MOL0     C51761   9.445   2.034  10.318  0.0286  0.4776 -0.4346
  384MOL0     C51762   9.527   1.921  10.276  0.5414 -0.1406  0.1464
  384MOL0     O51763   9.630   1.866  10.355  0.8255 -0.3967  0.0483
  384MOL0     C51764   9.613   1.891  10.496 -0.3239  0.3349  0.0863
  384MOL0     C51765   9.707   1.806  10.573  0.1688 -0.1350 -0.0313
  384MOL0     C51766   9.855   1.836  10.541 -0.4380  0.6148 -0.7504
  384MOL0     C51767   9.910   1.775  10.403  0.8971  0.0538 -0.2215
  384MOL0     C51768  10.052   1.738  10.405  0.3442 -1.3805  0.3175
  384MOL0     C51769  10.165   1.698  10.381  0.5590  0.2755  0.0871
  384MOL0     C51770   9.504   1.866  10.147 -0.0032 -0.2272 -0.3192
  384MOL0     C51771   9.404   1.905  10.062  0.2645 -0.4780  0.4130
  384MOL0     C51772   9.380   1.822   9.940  0.1041 -1.0113 -0.1257
  384MOL0     H51773   9.010   2.317  10.138  1.5770  3.6748  0.1274
  384MOL0     H51774   8.815   2.431  10.022  0.4524 -1.7251  2.8425
  384MOL0     H51775   8.700   2.619   9.858 -2.2676 -0.7774 -2.5322
  384MOL0     H51776   8.884   2.628   9.870  1.6684 -0.4610 -2.3973
  384MOL0     H51777   8.891   2.707   9.655  0.7246 -1.6033  3.0954
  384MOL0     H51778   8.823   2.814   9.778  1.2910 -2.2919  3.3999
  384MOL0     H51779   8.595   2.769   9.688  1.9565 -3.1542  4.2024
  384MOL0     H51780   8.641   2.660   9.558 -1.4056  2.7360 -2.5092
  384MOL0     H51781   8.695   2.953   9.559 -2.9423  1.1063 -0.5634
  384MOL0     H51782   8.790   2.861   9.460  2.4507 -0.8084  4.0304
  384MOL0     H51783   8.595   2.778   9.344  2.4183 -1.4669  3.2747
  384MOL0     H51784   8.484   2.839   9.465 -0.1266  0.5135  0.1419
  384MOL0     H51785   8.583   3.070   9.417 -0.5471 -1.1623  0.0358
  384MOL0     H51786   8.688   2.992   9.294 -1.2563 -0.7453 -2.2689
  384MOL0     H51787   8.396   2.948   9.269  1.6182  0.5952  2.5126
  384MOL0     H51788   8.511   2.974   9.144  2.1651 -4.1274  1.9991
  384MOL0     H51789   8.339   3.153   9.185 -0.5243  1.1285  1.6980
  384MOL0     H51790   8.428   3.213   9.313  0.9543 -2.3576  1.9028
  384MOL0     H51791   8.436   3.182   8.932  0.7406 -0.3066 -1.5109
  384MOL0     H51792   8.692   3.339   8.739 -0.8087 -0.8208 -0.5937
  384MOL0     H51793   8.817   3.240   8.820  1.0498 -1.6514 -4.2609
  384MOL0     H51794   8.577   3.084   8.764 -0.6626  0.9615  1.9793
  384MOL0     H51795   8.599   3.194   8.632  1.2659  1.7322  1.3302
  384MOL0     H51796   8.837   3.082   8.583 -0.1951  2.0522  0.4548
  384MOL0     H51797   8.696   2.973   8.584 -0.6219 -1.4844  1.8559
  384MOL0     H51798   8.903   3.018   8.808  0.8877 -0.4843 -0.5652
  384MOL0     H51799   8.883   2.882   8.713  2.0554  0.8161 -0.0242
  384MOL0     H51800   8.575   2.832   9.026  0.8065 -0.1114 -1.2860
  384MOL0     H51801   8.584   2.624   9.151 -1.4727  0.6352 -1.8883
  384MOL0     H51802   8.657   2.444   9.529 -1.8653  0.4223  0.8791
  384MOL0     H51803   8.671   2.245   9.692  0.5863 -2.7972  0.8954
  384MOL0     H51804   8.821   2.094   9.776  0.6885 -0.6528  1.0988
  384MOL0     H51805   8.679   2.001   9.820  0.3331  2.1429  0.2215
  384MOL0     H51806   8.945   1.889   9.716 -3.1666  1.3841 -3.2093
  384MOL0     H51807   8.904   1.913   9.887  1.7019  0.7881 -0.8403
  384MOL0     H51808   8.712   1.753   9.701  2.6734  2.0108 -2.1134
  384MOL0     H51809   8.868   1.685   9.734 -1.0220 -3.2243 -0.4280
  384MOL0     H51810   8.728   1.770   9.990  0.2272  1.1669 -0.7616
  384MOL0     H51811   8.836   1.648   9.958 -0.1929  0.2146  1.6511
  384MOL0     H51812   8.601   1.557  10.012 -0.7135  0.8517  0.4841
  384MOL0     H51813   8.643   1.530   9.839  0.3930  4.1472 -2.3918
  384MOL0     H51814   8.497   1.706   9.753 -1.7452  1.1988 -0.5449
  384MOL0     H51815   8.418   1.584   9.841 -1.8832  0.9763 -1.7511
  384MOL0     H51816   8.467   1.863   9.914 -0.6656 -0.7561  0.4961
  384MOL0     H51817   8.470   1.760  10.055  1.8856  2.1174 -0.2092
  384MOL0     H51818   8.243   1.833  10.024 -1.6652  0.6918 -0.4305
  384MOL0     H51819   8.238   1.786   9.860  0.7033 -1.2610 -0.8731
  384MOL0     H51820   8.829   1.992   9.393  2.0746  0.2050  2.6980
  384MOL0     H51821   8.790   2.177   9.218 -1.7618 -1.9492  0.6434
  384MOL0     H51822   8.978   2.565   9.006  0.2808  0.7911  2.0077
  384MOL0     H51823   8.957   2.736   8.853  1.4520 -1.6358  1.5378
  384MOL0     H51824   9.014   2.351   9.643  0.8468 -0.5152 -0.1225
  384MOL0     H51825   9.185   2.244   9.741 -0.7323 -0.0453 -1.5051
  384MOL0     H51826   9.290   2.160  10.254  0.7917 -0.4705  0.8409
  384MOL0     H51827   9.476   2.094  10.403  3.2169 -1.0066 -0.4009
  384MOL0     H51828   9.512   1.877  10.535 -0.5148 -1.1334 -0.8860
  384MOL0     H51829   9.636   1.998  10.507  0.7778 -0.1244  3.4496
  384MOL0     H51830   9.680   1.703  10.551 -0.9205 -0.0621  0.8635
  384MOL0     H51831   9.681   1.812  10.679 -3.3034  2.0498 -0.8597
  384MOL0     H51832   9.915   1.793  10.622  1.9406  3.6215 -0.7133
  384MOL0     H51833   9.878   1.942  10.557 -1.2834  0.4748  1.9697
  384MOL0     H51834   9.845   1.692  10.374  0.7276  0.2934 -0.5382
  384MOL0     H51835   9.899   1.848  10.322 -1.4662 -0.8577 -0.8275
  384MOL0     H51836  10.262   1.679  10.342  1.0804 -0.0841  1.5061
  384MOL0     H51837   9.578   1.791  10.121  1.2379  1.8583 -3.3865
  384MOL0     H51838   9.454   1.742   9.927  1.5589  0.3064 -0.2371
  384MOL0     H51839   9.285   1.770   9.953  1.1664 -2.9150  0.5007
  384MOL0     H51840   9.377   1.877   9.846 -2.2161  0.2253  0.6113
  385MOL0     O51841   9.844   2.187   2.403 -0.7391  1.4120 -0.2258
  385MOL0     C51842   9.873   2.076   2.367  0.8891 -0.0996 -0.6435
  385MOL0     O51843   9.788   1.994   2.293 -0.7460 -0.1306  0.3590
  385MOL0     C51844   9.662   2.039   2.252  0.3348  0.7177  0.4553
  385MOL0     C51845   9.613   2.011   2.119  0.1366  0.0744 -1.2559
  385MOL0     C51846   9.473   2.035   2.084 -0.3840 -0.3242  0.4217
  385MOL0     C51847   9.393   2.116   2.168 -0.4623 -0.2206 -0.5155
  385MOL0     O51848   9.262   2.149   2.142 -0.0023  0.0176  0.2403
  385MOL0     C51849   9.190   2.090   2.034 -0.5193  0.2852 -0.1544
  385MOL0     C51850   9.048   2.150   2.034 -0.0582  0.0670 -0.5807
  385MOL0     C51851   8.978   2.128   2.171 -0.5624  0.2593  0.6354
  385MOL0     C51852   8.834   2.181   2.183 -0.2740  0.2147 -0.0644
  385MOL0     C51853   8.755   2.147   2.309  0.0645  0.0744  0.2293
  385MOL0     C51854   8.604   2.211   2.306  0.2220  0.2500 -0.6477
  385MOL0     C51855   8.599   2.361   2.255  0.7562 -0.2814 -1.0249
  385MOL0     C51856   8.675   2.458   2.352  0.0982  0.3213  0.4268
  385MOL0     N51857   8.589   2.499   2.465  1.0227 -0.7826  0.1032
  385MOL0     C51858   8.518   2.616   2.448  0.1409 -1.1873 -1.1040
  385MOL0     C51859   8.411   2.609   2.529  0.5221 -0.4671 -0.7903
  385MOL0     C51860   8.320   2.723   2.558 -1.1663  0.4609 -0.7393
  385MOL0     C51861   8.179   2.699   2.513 -0.5847  0.7442  0.0270
  385MOL0     C51862   8.121   2.560   2.564  0.1538 -0.1193  0.0976
  385MOL0     C51863   7.978   2.559   2.524 -0.1926  0.5309  0.1362
  385MOL0     O51864   7.903   2.491   2.643 -0.0998 -0.2518  1.1400
  385MOL0     C51865   7.876   2.547   2.763 -0.6337 -0.2954 -0.6091
  385MOL0     C51866   7.812   2.465   2.853  0.7027 -0.2095 -0.3686
  385MOL0     C51867   7.779   2.526   2.978 -1.0260  0.5198 -0.1177
  385MOL0     C51868   7.816   2.650   3.020 -0.7806 -0.5073  0.4854
  385MOL0     C51869   7.787   2.694   3.154 -0.2849  0.3142  0.5964
  385MOL0     O51870   7.765   2.595   3.241  0.1284 -1.0301 -0.3017
  385MOL0     C51871   7.717   2.613   3.373  0.4971 -0.5049 -0.9920
  385MOL0     C51872   7.795   2.673   3.473 -0.6264  0.1881  0.9085
  385MOL0     C51873   7.757   2.684   3.610  0.4995  0.7438 -0.5930
  385MOL0     C51874   7.630   2.636   3.646 -0.9281 -0.2673 -0.1983
  385MOL0     O51875   7.592   2.669   3.767 -0.0060  0.6281  0.1845
  385MOL0     C51876   7.451   2.668   3.784 -0.0273 -0.1040  0.0140
  385MOL0     C51877   7.415   2.720   3.922 -0.8412 -1.1542  0.5844
  385MOL0     C51878   7.270   2.680   3.955  0.8588  0.3456 -0.3975
  385MOL0     C51879   7.233   2.741   4.093 -0.1583 -0.0675 -0.2574
  385MOL0     C51880   7.091   2.700   4.143  0.2486 -0.3852  0.0616
  385MOL0     C51881   7.055   2.557   4.208  0.0706 -0.0331  0.9142
  385MOL0     C51882   6.902   2.534   4.189 -0.1062  0.0330  0.5109
  385MOL0     C51883   6.864   2.460   4.063  0.3162  0.1032 -0.5725
  385MOL0    Cl51884   6.941   2.292   4.039 -0.3158  0.1622 -0.1869
  385MOL0     C51885   7.555   2.568   3.549 -0.8111  0.8019 -0.3769
  385MOL0     C51886   7.600   2.559   3.413  0.0204 -0.0801 -0.4834
  385MOL0     O51887   7.765   2.814   3.168  0.3823  0.9211  0.0743
  385MOL0     C51888   7.865   2.731   2.918  1.0086 -0.1778  0.4521
  385MOL0     C51889   7.900   2.679   2.793  0.3203 -0.6557 -0.8563
  385MOL0     N51890   8.426   2.493   2.612  0.4311 -0.6944 -0.5601
  385MOL0     N51891   8.530   2.425   2.564  0.3786  0.0387  0.1261
  385MOL0     C51892   9.443   2.160   2.291 -0.1259  0.9857 -0.8685
  385MOL0     C51893   9.573   2.118   2.333 -0.1537  0.5360 -0.1612
  385MOL0     C51894   9.980   1.995   2.432 -1.1844 -0.4711 -1.3325
  385MOL0     C51895   9.991   1.863   2.397 -0.0557  0.7620 -0.5244
  385MOL0     C51896  10.091   1.790   2.452  0.3635  0.2381  0.5942
  385MOL0     C51897  10.179   1.830   2.544 -0.1891 -0.9173  0.6787
  385MOL0     O51898  10.271   1.741   2.589 -0.1534  0.3392  0.1886
  385MOL0     C51899  10.386   1.788   2.660  0.3066  0.0012  1.3555
  385MOL0     C51900  10.450   1.667   2.737 -0.1077 -0.4789 -0.3229
  385MOL0     C51901  10.520   1.572   2.647  0.1838 -1.0524 -1.1346
  385MOL0     C51902  10.613   1.626   2.538 -0.0673  0.2875 -0.5219
  385MOL0     C51903  10.655   1.513   2.461  0.2759  1.2460 -0.1371
  385MOL0     C51904  10.680   1.413   2.394 -0.4839 -0.2812  0.1342
  385MOL0     C51905  10.165   1.964   2.583 -0.1195 -0.7475  1.4822
  385MOL0     C51906  10.081   2.054   2.524  1.3263 -0.3656 -0.2929
  385MOL0     C51907  10.083   2.197   2.570  0.0028 -0.4746 -0.2553
  385MOL0     H51908   9.673   1.971   2.039  3.2067  0.7175  0.5789
  385MOL0     H51909   9.439   2.011   1.984 -0.1201  2.3671 -0.3794
  385MOL0     H51910   9.229   2.112   1.934  1.8443 -1.5572  0.2476
  385MOL0     H51911   9.205   1.983   2.053 -1.4827  0.2808  0.6805
  385MOL0     H51912   8.985   2.098   1.962 -0.0980  0.1489 -0.6039
  385MOL0     H51913   9.040   2.255   2.007 -1.3503 -0.6188 -3.1458
  385MOL0     H51914   9.035   2.164   2.258 -2.7272  2.8897  1.1377
  385MOL0     H51915   8.970   2.020   2.186  1.8408 -0.4630 -2.4490
  385MOL0     H51916   8.837   2.290   2.174  0.5316  0.1334 -1.0515
  385MOL0     H51917   8.781   2.146   2.094  1.4050  0.9246 -1.4088
  385MOL0     H51918   8.756   2.038   2.312  0.1753  0.0541 -0.5058
  385MOL0     H51919   8.805   2.195   2.394  1.8447 -0.6648 -0.3473
  385MOL0     H51920   8.534   2.142   2.259 -2.4365  0.5325  2.5089
  385MOL0     H51921   8.560   2.200   2.406  2.4810 -0.3245  0.3753
  385MOL0     H51922   8.496   2.392   2.239 -0.0540 -2.8164 -1.1713
  385MOL0     H51923   8.642   2.361   2.154  2.6462 -4.0417 -0.4189
  385MOL0     H51924   8.768   2.405   2.376  0.0581 -0.0629 -0.2267
  385MOL0     H51925   8.711   2.534   2.282 -0.7295 -1.0095 -1.5502
  385MOL0     H51926   8.537   2.698   2.380 -3.0315  0.6740  0.0674
  385MOL0     H51927   8.338   2.741   2.664  0.0874 -1.6260 -0.5434
  385MOL0     H51928   8.369   2.809   2.511  3.3878 -1.8386 -0.7698
  385MOL0     H51929   8.126   2.783   2.559  1.4328  1.9613  0.2310
  385MOL0     H51930   8.178   2.707   2.404  2.8678 -1.2104 -0.2944
  385MOL0     H51931   8.134   2.545   2.672  2.5374  1.9581  0.1918
  385MOL0     H51932   8.166   2.474   2.514 -0.4904  0.0648 -0.8252
  385MOL0     H51933   7.964   2.503   2.431  0.9686  3.1537 -1.7532
  385MOL0     H51934   7.937   2.660   2.510  2.1879  1.5457 -0.0070
  385MOL0     H51935   7.787   2.365   2.820 -2.9046  0.3457  0.2884
  385MOL0     H51936   7.722   2.460   3.042 -3.3296  1.5511 -0.9575
  385MOL0     H51937   7.888   2.715   3.434 -1.8439  2.0668 -0.1144
  385MOL0     H51938   7.819   2.734   3.683 -0.8952  0.4507  0.8511
  385MOL0     H51939   7.394   2.726   3.711  0.5955 -0.6701 -0.9344
  385MOL0     H51940   7.416   2.565   3.786 -1.3813  0.3364 -0.0464
  385MOL0     H51941   7.486   2.681   3.995 -1.6345  1.4768  2.9695
  385MOL0     H51942   7.430   2.829   3.915  2.6305 -1.5970 -1.2964
  385MOL0     H51943   7.207   2.719   3.875  3.2036 -0.0515 -2.5769
  385MOL0     H51944   7.265   2.571   3.950 -2.8780  0.2245  2.0730
  385MOL0     H51945   7.229   2.849   4.077  2.0458 -0.3793 -4.0138
  385MOL0     H51946   7.307   2.707   4.167  1.2690  0.8735 -1.2062
  385MOL0     H51947   7.028   2.705   4.053 -1.2915  1.4920  1.1624
  385MOL0     H51948   7.051   2.780   4.205 -1.9110 -1.2571 -0.1130
  385MOL0     H51949   7.121   2.480   4.167  2.3897  1.4142  1.6765
  385MOL0     H51950   7.067   2.562   4.317 -1.7173  2.7782  1.0785
  385MOL0     H51951   6.850   2.630   4.187 -2.1618 -1.0364  0.0181
  385MOL0     H51952   6.854   2.478   4.271 -4.7186  1.6005 -0.8205
  385MOL0     H51953   6.758   2.433   4.059  0.3658 -0.3041  0.3669
  385MOL0     H51954   6.884   2.528   3.980 -2.6327 -1.0611 -2.3853
  385MOL0     H51955   7.457   2.527   3.573  0.1511 -0.5736  1.4854
  385MOL0     H51956   7.537   2.490   3.358  1.0025 -0.2087 -1.4893
  385MOL0     H51957   7.882   2.833   2.950 -1.9059 -0.2368  2.6773
  385MOL0     H51958   7.946   2.749   2.724 -1.6541  1.2756 -0.3522
  385MOL0     H51959   9.382   2.226   2.352  1.0114  1.4770 -0.2218
  385MOL0     H51960   9.607   2.139   2.434 -2.2333  2.5787  0.1817
  385MOL0     H51961   9.925   1.802   2.336 -1.4844  1.6611  0.0466
  385MOL0     H51962  10.077   1.690   2.413  0.8862  0.8688 -1.3208
  385MOL0     H51963  10.353   1.855   2.740  2.2132 -0.9964  3.1077
  385MOL0     H51964  10.460   1.843   2.602 -0.0202 -0.4563  0.4960
  385MOL0     H51965  10.370   1.624   2.798 -1.4685  1.3000 -0.7461
  385MOL0     H51966  10.528   1.706   2.803  2.5788 -3.2880 -1.5863
  385MOL0     H51967  10.441   1.510   2.603 -1.0669 -0.4142  0.1288
  385MOL0     H51968  10.578   1.514   2.719  1.2042 -1.9427 -2.6208
  385MOL0     H51969  10.561   1.690   2.466 -0.6809 -0.2563 -0.5705
  385MOL0     H51970  10.693   1.687   2.581  0.9253 -0.4531 -1.2609
  385MOL0     H51971  10.695   1.314   2.353 -0.4613 -0.4873  0.6356
  385MOL0     H51972  10.237   2.001   2.655  0.1516 -1.0223  1.3567
  385MOL0     H51973  10.158   2.223   2.647 -1.5734  1.1810  0.8013
  385MOL0     H51974  10.118   2.256   2.485 -1.8001 -0.1090 -0.7658
  385MOL0     H51975   9.979   2.225   2.590 -0.7808 -2.2841 -1.6023
  386MOL0     O51976   6.853   9.882   8.236 -0.2523  0.2716 -0.4266
  386MOL0     C51977   6.769   9.806   8.280 -1.1184 -1.1006 -0.0636
  386MOL0     O51978   6.628   9.818   8.268  0.0952 -0.8640  0.3878
  386MOL0     C51979   6.571   9.889   8.175 -0.3622 -0.5204  0.8193
  386MOL0     C51980   6.451   9.835   8.109 -0.3357 -0.2130 -0.8706
  386MOL0     C51981   6.388   9.919   8.022  0.1463  0.0009  0.5585
  386MOL0     C51982   6.437  10.045   7.988 -0.0827  0.4440  0.3569
  386MOL0     O51983   6.344  10.121   7.912 -0.7509 -0.8852  0.6376
  386MOL0     C51984   6.390  10.118   7.779  0.0999  0.0122  0.2008
  386MOL0     C51985   6.327  10.220   7.692  0.3399  0.3566 -0.2799
  386MOL0     C51986   6.363  10.364   7.732  0.2677  0.1871  0.1679
  386MOL0     C51987   6.311  10.468   7.640  0.7051 -0.1365  0.5433
  386MOL0     C51988   6.174  10.524   7.665 -0.1158  0.7072  0.3291
  386MOL0     C51989   6.162  10.657   7.588  0.3027 -0.1266 -0.4497
  386MOL0     C51990   6.027  10.738   7.614  0.1062 -0.5206 -1.0126
  386MOL0     C51991   5.911  10.740   7.506  0.3345  0.5784  0.8473
  386MOL0     N51992   5.950  10.814   7.381  0.0302  1.0469 -0.5351
  386MOL0     C51993   5.958  10.949   7.360 -0.0867 -0.6687  0.7250
  386MOL0     C51994   6.001  10.951   7.232  1.4763  0.2025 -0.1119
  386MOL0     C51995   6.023  11.084   7.168 -0.0171  0.3211 -0.4861
  386MOL0     C51996   6.113  11.070   7.050 -0.0954 -0.5018  0.7173
  386MOL0     C51997   6.139  11.198   6.971  0.2713 -0.5543 -1.1952
  386MOL0     C51998   6.016  11.268   6.906  0.2375  0.9663  0.3918
  386MOL0     O51999   6.065  11.364   6.818  0.9164  0.7213  0.1977
  386MOL0     C52000   5.968  11.446   6.760  0.3045  1.5820 -0.5874
  386MOL0     C52001   5.824  11.436   6.775  0.0481  0.0569  0.0358
  386MOL0     C52002   5.737  11.522   6.701  0.6108 -0.0135 -0.1037
  386MOL0     C52003   5.794  11.605   6.609  0.0807 -0.0253 -0.7269
  386MOL0     C52004   5.710  11.690   6.525  0.2782 -0.2329  0.5238
  386MOL0     O52005   5.602  11.758   6.586  0.0859  0.3585  0.4478
  386MOL0     C52006   5.538  11.848   6.513  0.7713  0.1486  0.1184
  386MOL0     C52007   5.604  11.942   6.437 -0.4621  0.1931 -0.4658
  386MOL0     C52008   5.547  12.023   6.349  0.8948 -1.1878 -0.1725
  386MOL0     C52009   5.410  12.011   6.329 -0.4261 -1.1532  0.1825
  386MOL0     O52010   5.331  12.073   6.233 -0.1301  0.0866 -0.9081
  386MOL0     C52011   5.404  12.150   6.134 -0.1012  0.8906 -0.1957
  386MOL0     C52012   5.324  12.228   6.021 -0.6202  0.3245 -0.1123
  386MOL0     C52013   5.248  12.346   6.081  1.3573 -0.1934 -0.5560
  386MOL0     C52014   5.139  12.395   5.977  0.3068 -0.0774 -0.6141
  386MOL0     C52015   5.110  12.542   5.995  0.6226  0.6226  1.0157
  386MOL0     C52016   5.016  12.582   5.882  0.1423  1.1193 -0.9185
  386MOL0     C52017   5.093  12.593   5.749  0.2440  0.2455  0.4243
  386MOL0     C52018   5.086  12.727   5.684 -0.4448  0.6091  0.6051
  386MOL0    Cl52019   5.138  12.713   5.515 -0.3454 -0.0106  0.0525
  386MOL0     C52020   5.334  11.933   6.411 -0.3617 -1.2752 -0.1845
  386MOL0     C52021   5.395  11.854   6.510 -0.5111  0.4347  0.0152
  386MOL0     O52022   5.733  11.684   6.405  0.4230 -0.6975  0.0136
  386MOL0     C52023   5.931  11.606   6.584  0.8487  0.5090  0.5707
  386MOL0     C52024   6.015  11.527   6.661  0.9019 -0.1326  0.3172
  386MOL0     N52025   6.019  10.825   7.181 -0.0561 -0.3654 -0.0893
  386MOL0     N52026   6.004  10.747   7.279  0.8005  0.3341  0.5046
  386MOL0     C52027   6.555  10.097   8.040 -0.2301 -0.3352 -0.1811
  386MOL0     C52028   6.622  10.024   8.140 -0.1670  1.0144 -0.6529
  386MOL0     C52029   6.812   9.697   8.371 -0.1057 -0.4641 -0.3393
  386MOL0     C52030   6.710   9.633   8.444  0.9982  0.2381  0.4696
  386MOL0     C52031   6.726   9.554   8.561 -0.4649  0.0601  0.7476
  386MOL0     C52032   6.859   9.547   8.610  0.4399 -0.5014 -0.6046
  386MOL0     O52033   6.905   9.464   8.705  0.7162  0.6764 -0.0684
  386MOL0     C52034   6.813   9.384   8.785 -0.4843 -0.2823  0.7275
  386MOL0     C52035   6.751   9.455   8.910 -0.2817 -0.3453  0.2881
  386MOL0     C52036   6.858   9.544   8.978  0.1394  0.5580  0.3671
  386MOL0     C52037   6.850   9.558   9.137 -0.0936 -0.6577 -0.5615
  386MOL0     C52038   6.736   9.624   9.200  0.4979 -0.7996 -1.1992
  386MOL0     C52039   6.625   9.660   9.256 -1.3979 -0.6988 -0.2826
  386MOL0     C52040   6.958   9.610   8.540 -1.1964  0.9320 -0.2085
  386MOL0     C52041   6.943   9.686   8.424  0.1667 -0.2756  0.7598
  386MOL0     C52042   7.057   9.751   8.353  0.1413  0.2866  0.1778
  386MOL0     H52043   6.416   9.735   8.128  0.4545  0.0321  2.6197
  386MOL0     H52044   6.289   9.902   7.981  0.4733 -1.0201  0.1675
  386MOL0     H52045   6.496  10.140   7.765 -0.2998  3.1923  1.4395
  386MOL0     H52046   6.364  10.023   7.730  0.5530  1.5511 -3.3320
  386MOL0     H52047   6.218  10.205   7.688  0.4418 -0.3215 -0.7234
  386MOL0     H52048   6.371  10.209   7.593  3.3184  1.0958  0.8734
  386MOL0     H52049   6.472  10.365   7.732  0.3322 -1.9236  1.1864
  386MOL0     H52050   6.335  10.372   7.837  2.6182 -0.1139  0.8654
  386MOL0     H52051   6.383  10.549   7.656 -1.4875  1.6510  1.8234
  386MOL0     H52052   6.321  10.447   7.533 -1.5329  3.1372 -0.4515
  386MOL0     H52053   6.104  10.443   7.647 -1.0587  1.5542  0.1125
  386MOL0     H52054   6.160  10.537   7.773  1.3576 -1.0520  0.7818
  386MOL0     H52055   6.244  10.724   7.616 -0.6354  1.9585 -2.3422
  386MOL0     H52056   6.178  10.643   7.480  1.5472 -0.8674 -0.1872
  386MOL0     H52057   6.070  10.838   7.608  0.8727 -0.8670 -1.3825
  386MOL0     H52058   5.996  10.723   7.718 -2.4889 -2.0651 -1.9000
  386MOL0     H52059   5.899  10.634   7.481 -1.9404  0.6640  1.3681
  386MOL0     H52060   5.821  10.780   7.554  1.1807  2.0122  1.2960
  386MOL0     H52061   5.928  11.028   7.429 -4.3949  1.9353 -3.4627
  386MOL0     H52062   5.927  11.126   7.136 -1.0073 -0.0511  1.7848
  386MOL0     H52063   6.055  11.158   7.242 -3.8863  0.0786  1.6751
  386MOL0     H52064   6.206  11.035   7.093 -0.2834  1.3388  2.7695
  386MOL0     H52065   6.073  10.992   6.985  2.2328  0.3610 -1.9653
  386MOL0     H52066   6.220  11.184   6.900  0.4208  0.9913 -1.3605
  386MOL0     H52067   6.176  11.276   7.038 -1.9156  0.4742 -1.0946
  386MOL0     H52068   5.956  11.317   6.984 -0.5247  1.0129 -0.2027
  386MOL0     H52069   5.948  11.197   6.857  4.0035 -3.0194  0.3857
  386MOL0     H52070   5.780  11.362   6.841  1.3319 -0.8816 -0.1124
  386MOL0     H52071   5.630  11.520   6.718  0.6868 -2.4012  0.5576
  386MOL0     H52072   5.713  11.941   6.434 -0.2312 -4.9916  0.4261
  386MOL0     H52073   5.614  12.090   6.296  2.2217 -1.2285  1.3934
  386MOL0     H52074   5.465  12.225   6.185  2.3932 -1.6545  0.8108
  386MOL0     H52075   5.472  12.089   6.074  3.5973  1.8319  2.6582
  386MOL0     H52076   5.395  12.265   5.946 -1.2583  1.1973 -0.2997
  386MOL0     H52077   5.247  12.159   5.983 -0.2490 -1.2005  1.7352
  386MOL0     H52078   5.197  12.314   6.172 -0.7462 -1.9937 -2.2653
  386MOL0     H52079   5.316  12.429   6.101  0.0314  1.0670 -1.0676
  386MOL0     H52080   5.049  12.336   5.998  0.5696  0.5803  2.8089
  386MOL0     H52081   5.181  12.382   5.877  0.1821  1.4204 -0.8874
  386MOL0     H52082   5.200  12.604   5.986  0.3893  0.7021 -1.2870
  386MOL0     H52083   5.059  12.558   6.091 -1.5573  4.4943 -0.5672
  386MOL0     H52084   4.929  12.516   5.875  1.8064 -1.6340  1.7246
  386MOL0     H52085   4.962  12.674   5.907 -1.3025 -0.2934  1.5045
  386MOL0     H52086   5.063  12.519   5.675  3.0157 -1.5209  0.9317
  386MOL0     H52087   5.197  12.565   5.767  0.0585 -0.9252 -0.2186
  386MOL0     H52088   4.984  12.767   5.686 -1.0993 -0.9284 -0.2199
  386MOL0     H52089   5.150  12.799   5.736  1.2960 -0.4276 -0.0285
  386MOL0     H52090   5.226  11.936   6.398 -0.1635 -0.9137 -2.1010
  386MOL0     H52091   5.347  11.781   6.574  1.3537 -2.0544 -1.2653
  386MOL0     H52092   5.975  11.676   6.513  0.8196 -0.4971 -0.4665
  386MOL0     H52093   6.122  11.524   6.644  0.7529 -0.6847 -0.6110
  386MOL0     H52094   6.591  10.195   8.009  2.3788 -0.9281  0.6823
  386MOL0     H52095   6.709  10.064   8.190 -1.3248  1.7955  0.8348
  386MOL0     H52096   6.607   9.658   8.421  0.9002 -0.7391 -0.2153
  386MOL0     H52097   6.640   9.501   8.599  0.9633 -1.8073  1.5131
  386MOL0     H52098   6.859   9.295   8.827  0.8387 -0.2002 -0.4784
  386MOL0     H52099   6.731   9.344   8.724  1.1913 -1.3535 -0.9323
  386MOL0     H52100   6.715   9.380   8.981 -1.2756 -0.9286 -0.7957
  386MOL0     H52101   6.667   9.519   8.881  0.3672 -0.0610 -1.0939
  386MOL0     H52102   6.850   9.637   8.920  1.3946 -0.4937 -1.5989
  386MOL0     H52103   6.959   9.504   8.968  1.9639  3.9039  3.1167
  386MOL0     H52104   6.849   9.461   9.186 -1.0756 -0.6222 -0.4869
  386MOL0     H52105   6.926   9.622   9.183 -2.5008  2.6531 -0.7410
  386MOL0     H52106   6.540   9.691   9.313  1.4876  2.2537  2.9017
  386MOL0     H52107   7.062   9.602   8.570 -1.0220 -3.3565 -1.3119
  386MOL0     H52108   7.150   9.711   8.395 -0.4113 -0.8942  0.3315
  386MOL0     H52109   7.053   9.738   8.245  4.3654  1.1030 -0.2488
  386MOL0     H52110   7.056   9.855   8.387 -1.2100 -0.5868  3.2343
  387MOL0     O52111  10.174  10.494   1.873  0.1519 -0.1440 -0.0859
  387MOL0     C52112  10.244  10.561   1.947 -0.4271  0.1686 -0.0173
  387MOL0     O52113  10.382  10.580   1.931 -0.3218  0.1681 -1.0278
  387MOL0     C52114  10.441  10.525   1.817 -0.6820 -0.4520  0.4417
  387MOL0     C52115  10.418  10.398   1.759 -0.4524 -0.6828  0.8053
  387MOL0     C52116  10.482  10.366   1.641  0.7484  1.0940  0.1149
  387MOL0     C52117  10.571  10.455   1.585 -0.5419  0.0206 -0.2521
  387MOL0     O52118  10.628  10.430   1.462  0.5981 -0.0918 -0.1507
  387MOL0     C52119  10.769  10.443   1.443  0.5133 -1.0120 -0.4508
  387MOL0     C52120  10.822  10.365   1.323  0.0431  0.3112 -0.2705
  387MOL0     C52121  10.746  10.397   1.194 -0.1853  0.6671  0.1768
  387MOL0     C52122  10.769  10.286   1.080  0.4578 -0.0919  0.2301
  387MOL0     C52123  10.755  10.340   0.938  0.2999 -0.5536 -0.6792
  387MOL0     C52124  10.814  10.241   0.837  0.8354  0.7690  0.9862
  387MOL0     C52125  10.728  10.107   0.821 -0.6611 -0.1551  0.0926
  387MOL0     C52126  10.640  10.106   0.695 -0.5377 -0.6699 -0.3106
  387MOL0     N52127  10.576   9.971   0.702 -0.3930 -0.2944 -0.0736
  387MOL0     C52128  10.637   9.838   0.693  0.5505 -1.1040  0.4543
  387MOL0     C52129  10.539   9.749   0.705 -0.1976 -0.4557 -0.1755
  387MOL0     C52130  10.558   9.603   0.710  0.5262 -0.5663 -0.2520
  387MOL0     C52131  10.507   9.533   0.584  0.0351  0.3113  0.1783
  387MOL0     C52132  10.590   9.558   0.450  0.8703  0.0819 -0.5543
  387MOL0     C52133  10.487   9.575   0.328 -1.2953  0.7667  0.6344
  387MOL0     O52134  10.562   9.594   0.205  0.6539 -0.1165 -1.1870
  387MOL0     C52135  10.496   9.651   0.101  0.8483 -0.8704 -0.0938
  387MOL0     C52136  10.577   9.724   0.017 -0.3733 -0.4008 -1.5338
  387MOL0     C52137  10.528   9.803  -0.086  0.5530  0.3643 -0.2775
  387MOL0     C52138  10.391   9.799  -0.110  0.1899 -0.2090  0.1855
  387MOL0     C52139  10.327   9.866  -0.224 -0.4964 -0.2530  0.4943
  387MOL0     O52140  10.193   9.839  -0.243  0.1301  0.1714 -0.0985
  387MOL0     C52141  10.141   9.897  -0.351  0.5629  0.6846 -0.0527
  387MOL0     C52142  10.077  10.021  -0.348  0.0716 -2.0473  0.1132
  387MOL0     C52143  10.016  10.066  -0.467  0.3677  0.9000  0.8623
  387MOL0     C52144  10.026   9.994  -0.588  0.5088  0.2575 -0.2169
  387MOL0     O52145   9.971  10.038  -0.707 -0.2129  0.2832 -0.7537
  387MOL0     C52146   9.952  10.186  -0.723 -1.0034  0.3067 -0.9080
  387MOL0     C52147   9.885  10.205  -0.859 -0.7051 -0.2455  0.5709
  387MOL0     C52148   9.892  10.345  -0.925 -0.2879  0.2754  0.5237
  387MOL0     C52149   9.801  10.449  -0.863  0.5154  0.7793  0.0591
  387MOL0     C52150   9.838  10.586  -0.914  0.0747 -0.5175  0.6610
  387MOL0     C52151   9.737  10.694  -0.862 -0.6401  0.5217  0.8138
  387MOL0     C52152   9.803  10.749  -0.735  0.7918 -0.5367 -0.5534
  387MOL0     C52153   9.693  10.833  -0.666  0.4047 -0.6828  0.0148
  387MOL0    Cl52154   9.764  10.936  -0.542 -0.0452 -0.5127  0.3418
  387MOL0     C52155  10.092   9.876  -0.589  0.2925  0.6807 -0.2320
  387MOL0     C52156  10.149   9.826  -0.476 -0.3370 -0.4704 -0.0949
  387MOL0     O52157  10.399   9.945  -0.287  0.3502  0.2798  0.4246
  387MOL0     C52158  10.306   9.715  -0.029  0.1562  0.1786 -0.5674
  387MOL0     C52159  10.350   9.655   0.085 -0.1025  0.0339 -0.3469
  387MOL0     N52160  10.422   9.826   0.716 -1.3253  0.0112  0.4885
  387MOL0     N52161  10.442   9.954   0.719 -0.4727  0.0454  0.3675
  387MOL0     C52162  10.612  10.569   1.652 -0.1432 -0.2839  0.2600
  387MOL0     C52163  10.539  10.610   1.769 -0.3732  0.2253 -0.1924
  387MOL0     C52164  10.180  10.637   2.062 -0.6948 -0.2571  0.5350
  387MOL0     C52165  10.237  10.763   2.108  0.5756  0.2693  1.0221
  387MOL0     C52166  10.187  10.841   2.205  0.8895 -1.2270 -0.1801
  387MOL0     C52167  10.076  10.791   2.276  0.1757  0.4512 -0.8144
  387MOL0     O52168  10.010  10.848   2.387  0.9431  0.1284  0.4630
  387MOL0     C52169  10.010  10.990   2.388 -0.7770 -0.0829  0.5052
  387MOL0     C52170   9.915  11.051   2.279 -0.5029  0.1943 -0.7528
  387MOL0     C52171   9.884  11.192   2.319  0.2456  0.8128 -0.3562
  387MOL0     C52172   9.790  11.241   2.212 -0.6206  0.5676  0.2685
  387MOL0     C52173   9.734  11.369   2.238 -0.3351 -0.2812  0.0901
  387MOL0     C52174   9.677  11.477   2.249  0.2226 -0.3042  0.3122
  387MOL0     C52175  10.025  10.656   2.251  0.9778 -0.4108  0.2856
  387MOL0     C52176  10.071  10.578   2.138 -0.8548 -0.0486 -1.3380
  387MOL0     C52177  10.029  10.436   2.132 -0.8279 -0.3292  0.0871
  387MOL0     H52178  10.350  10.323   1.798 -0.7018 -0.8532  0.0725
  387MOL0     H52179  10.462  10.265   1.607  1.4243  0.5376  1.3042
  387MOL0     H52180  10.780  10.551   1.428  0.2620 -0.8598  0.3675
  387MOL0     H52181  10.822  10.409   1.533 -1.0515  1.6268  1.6296
  387MOL0     H52182  10.812  10.258   1.342  0.3406  0.2306 -0.5508
  387MOL0     H52183  10.929  10.385   1.312  0.1845 -1.0095 -1.5885
  387MOL0     H52184  10.786  10.493   1.160 -2.8263  2.3614  1.4790
  387MOL0     H52185  10.639  10.416   1.207  0.2233  2.2803  1.5822
  387MOL0     H52186  10.873  10.257   1.097 -0.2012 -2.1607  1.0411
  387MOL0     H52187  10.705  10.200   1.102  1.1993 -1.2211 -1.7955
  387MOL0     H52188  10.652  10.367   0.913  0.7172 -1.7597 -4.2848
  387MOL0     H52189  10.812  10.433   0.925  2.2331 -1.5362  0.3105
  387MOL0     H52190  10.841  10.302   0.751 -1.5141  0.7921  0.1839
  387MOL0     H52191  10.909  10.206   0.878  0.5544 -0.9002  0.2929
  387MOL0     H52192  10.664  10.083   0.907 -1.3301 -1.1263 -0.6519
  387MOL0     H52193  10.804  10.031   0.802  2.3190  3.0039 -1.8780
  387MOL0     H52194  10.566  10.186   0.690  2.5021  2.3687 -0.5168
  387MOL0     H52195  10.701  10.104   0.604  0.7375  1.5963  0.4142
  387MOL0     H52196  10.743   9.823   0.673 -0.0312 -1.3430 -3.0838
  387MOL0     H52197  10.663   9.578   0.725  0.1665 -0.9809  1.9235
  387MOL0     H52198  10.509   9.559   0.798 -0.0202  1.8095  0.6985
  387MOL0     H52199  10.491   9.426   0.600 -0.4183 -0.0007 -2.0981
  387MOL0     H52200  10.411   9.583   0.569 -0.4855 -0.6229  0.3288
  387MOL0     H52201  10.648   9.468   0.429  1.0510  0.3936 -1.4320
  387MOL0     H52202  10.656   9.645   0.452 -1.6323  2.0965 -0.5027
  387MOL0     H52203  10.415   9.657   0.339 -0.0679  2.4181 -2.4644
  387MOL0     H52204  10.436   9.479   0.317 -1.7807  1.0234  0.6223
  387MOL0     H52205  10.682   9.729   0.044 -0.8740  0.6958  0.4395
  387MOL0     H52206  10.581   9.876  -0.147  1.3756 -0.5555 -0.6788
  387MOL0     H52207  10.077  10.075  -0.254  0.6730  1.5723 -1.7629
  387MOL0     H52208   9.961  10.159  -0.455  0.3604  1.0681 -0.3699
  387MOL0     H52209   9.889  10.227  -0.643 -1.7771  4.9356 -3.5388
  387MOL0     H52210  10.047  10.240  -0.718 -0.3027 -0.5623 -3.5984
  387MOL0     H52211   9.939  10.136  -0.924  3.6678  2.2708  1.1343
  387MOL0     H52212   9.777  10.188  -0.861 -0.8927  0.2925 -3.9865
  387MOL0     H52213   9.996  10.375  -0.937  0.8765 -3.0948  1.2546
  387MOL0     H52214   9.858  10.339  -1.029  4.1996 -0.3097 -1.0988
  387MOL0     H52215   9.805  10.457  -0.754 -1.8378 -0.7739  0.3211
  387MOL0     H52216   9.697  10.444  -0.896  0.1184 -0.5863  1.4226
  387MOL0     H52217   9.842  10.589  -1.023 -0.1504  0.1285  0.6618
  387MOL0     H52218   9.938  10.610  -0.876  0.5903 -1.7389  0.0967
  387MOL0     H52219   9.728  10.773  -0.938  2.5945 -0.9354 -1.3028
  387MOL0     H52220   9.636  10.654  -0.856 -1.2718  2.2536  3.2737
  387MOL0     H52221   9.895  10.806  -0.748  0.2119  0.8445  1.0060
  387MOL0     H52222   9.830  10.661  -0.677  0.7161 -0.0368  0.2596
  387MOL0     H52223   9.640  10.893  -0.740  0.9757 -1.2960 -0.9209
  387MOL0     H52224   9.617  10.766  -0.625  0.9102  0.6659  3.4687
  387MOL0     H52225  10.101   9.825  -0.684 -0.2819 -0.5522  0.3645
  387MOL0     H52226  10.214   9.739  -0.476  1.3922  0.7582 -0.9356
  387MOL0     H52227  10.200   9.713  -0.053  0.0046 -2.5672  0.0018
  387MOL0     H52228  10.278   9.594   0.138 -2.2888  0.4720 -2.6548
  387MOL0     H52229  10.689  10.636   1.615  1.1445 -0.3951  2.5597
  387MOL0     H52230  10.556  10.703   1.823  0.9088  0.5096 -1.0298
  387MOL0     H52231  10.323  10.812   2.065  0.4979 -0.8600 -0.5084
  387MOL0     H52232  10.231  10.938   2.227  0.6302 -0.4734 -2.6369
  387MOL0     H52233  10.109  11.029   2.365 -1.1600 -0.2588 -1.5799
  387MOL0     H52234  10.002  11.018   2.494  1.3577  2.0075  0.1957
  387MOL0     H52235   9.821  10.997   2.292 -0.7743  1.1817  2.1365
  387MOL0     H52236   9.954  11.040   2.177  1.4385  0.6378 -0.0991
  387MOL0     H52237   9.982  11.241   2.319 -0.7874  2.9905 -1.0568
  387MOL0     H52238   9.819  11.208   2.406 -0.3074  0.7712 -0.7615
  387MOL0     H52239   9.836  11.241   2.113  0.5590 -0.1201  0.7901
  387MOL0     H52240   9.704  11.174   2.208  0.1290 -0.4362  0.4077
  387MOL0     H52241   9.610  11.557   2.274 -2.3421 -2.3516  0.3637
  387MOL0     H52242   9.966  10.604   2.326 -1.0175  1.4481  0.1045
  387MOL0     H52243   9.950  10.429   2.208 -1.0204  3.2951  0.3843
  387MOL0     H52244   9.984  10.411   2.036 -2.4593 -1.0511  0.9794
  387MOL0     H52245  10.119  10.377   2.151  2.0128  1.3942 -5.8156
  388MOL0     O52246   1.673   8.078   8.319  0.1954  0.3160 -0.0843
  388MOL0     C52247   1.586   8.043   8.396 -0.1032  0.0980  0.3143
  388MOL0     O52248   1.501   7.939   8.379 -1.1737  0.3647  0.6368
  388MOL0     C52249   1.549   7.845   8.288  1.0354  0.1812  1.0918
  388MOL0     C52250   1.531   7.879   8.156  0.8803  0.4068  0.1774
  388MOL0     C52251   1.591   7.803   8.055 -0.2551  0.2951 -0.1771
  388MOL0     C52252   1.639   7.678   8.085 -0.7215  0.2252 -0.8361
  388MOL0     O52253   1.664   7.582   7.992  0.2564 -0.3553  0.6197
  388MOL0     C52254   1.564   7.573   7.886  0.3355  1.5993 -0.2692
  388MOL0     C52255   1.446   7.496   7.941  0.2071  0.7655  1.4975
  388MOL0     C52256   1.337   7.473   7.834  0.7209  0.5840  0.5429
  388MOL0     C52257   1.226   7.585   7.828 -0.1639 -1.0952 -0.2703
  388MOL0     C52258   1.098   7.549   7.758 -0.2320  0.7138  0.1671
  388MOL0     C52259   0.990   7.649   7.748  0.8449 -0.5979  0.1602
  388MOL0     C52260   1.037   7.797   7.732 -0.1247  0.0564  0.4761
  388MOL0     C52261   0.918   7.891   7.693 -1.1339  0.2995  0.5106
  388MOL0     N52262   0.837   7.907   7.814 -0.2683  0.0518  0.5798
  388MOL0     C52263   0.871   8.003   7.907 -0.2007 -0.5024 -0.4317
  388MOL0     C52264   0.754   8.031   7.985 -0.4215  1.0335 -0.0854
  388MOL0     C52265   0.749   8.125   8.109 -0.4817 -0.4085 -0.0640
  388MOL0     C52266   0.610   8.146   8.158 -0.3616  0.0810 -0.8212
  388MOL0     C52267   0.619   8.224   8.293 -0.1434 -0.7407  0.6535
  388MOL0     C52268   0.476   8.281   8.322 -1.2009 -0.0874 -0.2276
  388MOL0     O52269   0.396   8.171   8.347  0.0136  0.1392  0.0228
  388MOL0     C52270   0.267   8.198   8.380 -1.0267  0.3132 -0.0158
  388MOL0     C52271   0.213   8.329   8.391  0.2641  0.1063  0.4765
  388MOL0     C52272   0.075   8.343   8.425 -0.0259 -0.1545 -1.0678
  388MOL0     C52273  -0.002   8.225   8.455 -0.2228 -0.7699 -0.1995
  388MOL0     C52274  -0.149   8.239   8.492  0.6505  0.4466  0.9975
  388MOL0     O52275  -0.209   8.352   8.449  0.8210 -0.1684  0.2620
  388MOL0     C52276  -0.335   8.389   8.475  0.1695 -0.3305 -0.1493
  388MOL0     C52277  -0.448   8.306   8.482  0.0681 -0.8003 -0.0517
  388MOL0     C52278  -0.572   8.359   8.488  0.8563 -0.1073  0.3925
  388MOL0     C52279  -0.596   8.498   8.497 -0.4545  0.0150  0.6358
  388MOL0     O52280  -0.716   8.568   8.519 -0.2667  0.3670  0.2966
  388MOL0     C52281  -0.824   8.503   8.579  0.2793 -0.1539  0.6882
  388MOL0     C52282  -0.801   8.471   8.723 -0.3630 -0.1180 -1.3381
  388MOL0     C52283  -0.750   8.603   8.795  0.1979  1.0266  0.7087
  388MOL0     C52284  -0.764   8.602   8.946 -0.8929 -0.2970  0.6519
  388MOL0     C52285  -0.694   8.727   9.015  0.7914  1.6725  1.2125
  388MOL0     C52286  -0.697   8.739   9.165  0.9985  0.0904 -0.3193
  388MOL0     C52287  -0.614   8.860   9.200  0.1242 -0.1752 -1.3130
  388MOL0     C52288  -0.466   8.832   9.183 -0.8935 -0.1582 -0.6437
  388MOL0    Cl52289  -0.399   8.972   9.276  0.1510  0.3646 -0.4105
  388MOL0     C52290  -0.485   8.585   8.482  1.0982 -0.3436 -0.0561
  388MOL0     C52291  -0.359   8.524   8.472  0.3223 -0.0206  0.1057
  388MOL0     O52292  -0.199   8.151   8.558 -0.4894 -0.5734 -0.0492
  388MOL0     C52293   0.053   8.095   8.460 -1.2645  0.0399  0.4189
  388MOL0     C52294   0.188   8.086   8.414  0.2046  0.0254 -0.1989
  388MOL0     N52295   0.671   7.929   7.947  0.3057  1.2053 -0.2661
  388MOL0     N52296   0.719   7.857   7.851  0.1483 -0.0047  0.1856
  388MOL0     C52297   1.644   7.640   8.221  0.1313 -1.1930 -0.2590
  388MOL0     C52298   1.598   7.719   8.330  0.1259 -0.2895  0.6357
  388MOL0     C52299   1.571   8.126   8.525  0.6402 -0.0773  0.4809
  388MOL0     C52300   1.449   8.102   8.594 -0.4620  0.1144  0.1884
  388MOL0     C52301   1.414   8.180   8.695 -0.2454  0.0170 -0.4536
  388MOL0     C52302   1.495   8.284   8.743 -1.4425  0.2016 -0.2145
  388MOL0     O52303   1.454   8.366   8.844  0.6255  0.3698  0.4837
  388MOL0     C52304   1.355   8.329   8.935 -0.2008  0.2806  0.4883
  388MOL0     C52305   1.388   8.405   9.062 -0.3969 -0.4144 -0.0717
  388MOL0     C52306   1.348   8.560   9.042 -0.0084 -0.3427 -0.2539
  388MOL0     C52307   1.350   8.624   9.188 -0.1145 -0.5660  0.2265
  388MOL0     C52308   1.256   8.575   9.281 -0.6837 -0.1194  0.4772
  388MOL0     C52309   1.181   8.511   9.351 -0.2176 -0.1116  0.1550
  388MOL0     C52310   1.624   8.306   8.688 -0.5621  0.6721  0.2651
  388MOL0     C52311   1.661   8.226   8.573  1.1876  0.3384 -0.1424
  388MOL0     C52312   1.790   8.265   8.512 -0.2053  0.5165 -0.0457
  388MOL0     H52313   1.494   7.980   8.137 -3.7858 -0.9092  1.0222
  388MOL0     H52314   1.585   7.834   7.951  1.9634  0.9251 -0.1680
  388MOL0     H52315   1.522   7.665   7.843  0.8119  1.1519 -1.7794
  388MOL0     H52316   1.609   7.522   7.800 -1.0953  0.3706 -0.3446
  388MOL0     H52317   1.413   7.530   8.040  0.1519  0.9537  1.4154
  388MOL0     H52318   1.480   7.393   7.957 -2.3986 -0.2837  0.8033
  388MOL0     H52319   1.291   7.376   7.855  0.7104  0.6809  0.9665
  388MOL0     H52320   1.369   7.466   7.729 -1.9540 -1.9953 -0.2571
  388MOL0     H52321   1.204   7.615   7.930 -0.5492  1.3417 -1.0173
  388MOL0     H52322   1.280   7.668   7.782  2.5983 -2.1030  0.9385
  388MOL0     H52323   1.114   7.517   7.655 -2.5406 -1.3625  0.3514
  388MOL0     H52324   1.066   7.455   7.804  3.5648 -0.5449  0.5467
  388MOL0     H52325   0.916   7.621   7.673 -1.9792 -1.2300  2.9532
  388MOL0     H52326   0.925   7.643   7.836 -0.1595 -2.8813 -0.6628
  388MOL0     H52327   1.123   7.798   7.665  0.2078 -2.9027  0.7203
  388MOL0     H52328   1.079   7.831   7.827 -0.0246 -0.9035  0.7899
  388MOL0     H52329   0.954   7.988   7.658 -3.3295  1.6440  1.7646
  388MOL0     H52330   0.856   7.845   7.615 -0.1440 -0.5939  0.2162
  388MOL0     H52331   0.966   8.054   7.923 -0.3131 -0.7412  1.1634
  388MOL0     H52332   0.822   8.083   8.179  1.0555  0.2549 -1.2096
  388MOL0     H52333   0.788   8.222   8.076 -2.9882  0.8482  0.4035
  388MOL0     H52334   0.549   8.198   8.083  0.4755  0.3978 -1.2892
  388MOL0     H52335   0.559   8.056   8.193  2.5653 -1.5547 -0.4403
  388MOL0     H52336   0.685   8.309   8.270  4.1352 -4.6752 -3.7510
  388MOL0     H52337   0.660   8.152   8.364  0.9963 -4.3650 -3.2810
  388MOL0     H52338   0.453   8.331   8.227  1.7955 -1.2389 -1.6919
  388MOL0     H52339   0.472   8.335   8.417  0.9077  0.9130 -0.6277
  388MOL0     H52340   0.278   8.413   8.370 -1.2077  1.5385  1.4375
  388MOL0     H52341   0.032   8.441   8.436 -1.0976 -0.9461  4.3164
  388MOL0     H52342  -0.439   8.200   8.461  2.2172 -0.6612 -0.0545
  388MOL0     H52343  -0.664   8.304   8.499 -2.1039  3.0443 -4.6043
  388MOL0     H52344  -0.908   8.571   8.564  0.5184 -0.3099 -1.7580
  388MOL0     H52345  -0.837   8.403   8.537 -0.2049 -0.6876  2.0784
  388MOL0     H52346  -0.901   8.440   8.755 -0.0367  0.4079  0.2875
  388MOL0     H52347  -0.734   8.385   8.733  0.0815  0.4201  0.7120
  388MOL0     H52348  -0.645   8.614   8.767 -0.2840  1.0379 -1.2356
  388MOL0     H52349  -0.797   8.694   8.757  0.4534  0.4879 -0.9476
  388MOL0     H52350  -0.708   8.518   8.988  2.6343  1.4180 -0.1613
  388MOL0     H52351  -0.867   8.598   8.981 -0.8945  0.3826  0.7382
  388MOL0     H52352  -0.734   8.809   8.955 -2.1327 -1.8167 -2.1149
  388MOL0     H52353  -0.589   8.703   8.995 -0.3065 -1.0614 -2.4655
  388MOL0     H52354  -0.801   8.757   9.192  0.8594 -0.0193 -0.7772
  388MOL0     H52355  -0.665   8.647   9.216 -3.3055 -1.2349  0.3660
  388MOL0     H52356  -0.633   8.875   9.307  0.4664 -2.2315 -0.9272
  388MOL0     H52357  -0.642   8.944   9.135  0.2285  1.7253  0.9426
  388MOL0     H52358  -0.433   8.737   9.227 -2.9630 -0.2630  0.8120
  388MOL0     H52359  -0.429   8.835   9.080 -0.9427  0.2408 -0.6510
  388MOL0     H52360  -0.489   8.693   8.479 -0.5439 -0.2954  1.8587
  388MOL0     H52361  -0.267   8.578   8.452  0.7882 -0.7388  0.3186
  388MOL0     H52362  -0.001   8.009   8.497  0.2431 -0.7533  0.8574
  388MOL0     H52363   0.235   7.990   8.397  0.9094  0.1621  0.8254
  388MOL0     H52364   1.667   7.541   8.260 -3.7079 -1.0073  3.2125
  388MOL0     H52365   1.606   7.693   8.435 -2.6601  1.9421  1.5537
  388MOL0     H52366   1.382   8.028   8.550  2.5613 -1.8455 -1.5636
  388MOL0     H52367   1.315   8.157   8.735 -1.4691  2.3894 -1.8748
  388MOL0     H52368   1.363   8.221   8.948  0.5194 -0.1673 -2.6832
  388MOL0     H52369   1.265   8.370   8.887 -0.0092  1.6905  1.2612
  388MOL0     H52370   1.497   8.404   9.069 -0.3475 -0.6460 -0.7922
  388MOL0     H52371   1.343   8.358   9.150  0.9138 -3.4961 -0.9462
  388MOL0     H52372   1.245   8.567   9.008  0.9449  1.3000 -3.0786
  388MOL0     H52373   1.420   8.601   8.971 -0.2291 -1.7056 -1.3074
  388MOL0     H52374   1.447   8.595   9.230 -0.8278 -2.2757  0.8025
  388MOL0     H52375   1.339   8.731   9.169 -1.7284 -1.0857 -2.1100
  388MOL0     H52376   1.120   8.457   9.421  0.8142 -0.4260  0.8376
  388MOL0     H52377   1.671   8.396   8.726 -2.1349  1.2223  1.0386
  388MOL0     H52378   1.855   8.181   8.484  3.0396  1.8970  2.5821
  388MOL0     H52379   1.758   8.311   8.418 -3.2118 -2.3502 -0.5705
  388MOL0     H52380   1.853   8.337   8.566  0.9949  0.4433 -1.2961
  389MOL0     O52381   2.620   9.871   1.175 -0.5894  0.2122 -0.0079
  389MOL0     C52382   2.691   9.823   1.260  0.0440 -0.0845 -0.4805
  389MOL0     O52383   2.644   9.768   1.381 -0.7763  0.0056  0.0380
  389MOL0     C52384   2.515   9.785   1.407  0.0526 -0.7705  0.1748
  389MOL0     C52385   2.477   9.913   1.454 -0.8706  0.0806 -0.0490
  389MOL0     C52386   2.343   9.936   1.478  0.2719  0.7879  0.1149
  389MOL0     C52387   2.241   9.842   1.463  1.0947  0.3747 -0.4808
  389MOL0     O52388   2.101   9.864   1.473 -0.6518  0.0393  0.1550
  389MOL0     C52389   2.025   9.776   1.557 -0.1984 -1.0510 -0.1146
  389MOL0     C52390   1.876   9.802   1.541  0.0235 -0.1103 -0.3555
  389MOL0     C52391   1.808   9.732   1.424 -0.2534  0.6111  1.3786
  389MOL0     C52392   1.851   9.815   1.304 -0.5364 -0.3120 -0.5800
  389MOL0     C52393   1.774   9.777   1.173  0.0230 -0.5582  0.0914
  389MOL0     C52394   1.776   9.626   1.122  0.5189 -0.1054 -0.0563
  389MOL0     C52395   1.924   9.580   1.101  0.8308 -1.2646  0.6564
  389MOL0     C52396   2.007   9.660   1.003 -0.1826 -0.5741  0.9707
  389MOL0     N52397   2.140   9.602   0.980 -0.4130  0.0127  0.1224
  389MOL0     C52398   2.265   9.647   1.028 -0.3691  0.2812  0.4175
  389MOL0     C52399   2.361   9.594   0.950 -0.8161 -0.2318 -0.0102
  389MOL0     C52400   2.517   9.615   0.956 -0.0239  0.3933  0.0627
  389MOL0     C52401   2.590   9.473   0.971 -1.0471 -0.1694 -0.1468
  389MOL0     C52402   2.741   9.490   0.980 -0.7724  0.0079 -0.6037
  389MOL0     C52403   2.807   9.357   0.949 -0.8404  0.0778 -0.4959
  389MOL0     O52404   2.956   9.378   0.937  0.2911 -0.5741  0.3421
  389MOL0     C52405   3.020   9.398   0.815 -0.2780 -0.0189  0.1351
  389MOL0     C52406   2.957   9.433   0.698 -0.3231  0.4996 -0.1285
  389MOL0     C52407   3.027   9.442   0.580 -0.0910  0.8935  0.4104
  389MOL0     C52408   3.163   9.413   0.575 -0.2464 -0.2145  0.0452
  389MOL0     C52409   3.240   9.436   0.449 -0.8867 -0.2278  0.2868
  389MOL0     O52410   3.369   9.458   0.471 -0.3348  0.7766 -0.7839
  389MOL0     C52411   3.462   9.497   0.372 -0.5568  0.4819 -0.4425
  389MOL0     C52412   3.444   9.535   0.236  0.6769 -0.4258  0.0102
  389MOL0     C52413   3.546   9.581   0.159  0.1960  1.1698 -0.6578
  389MOL0     C52414   3.676   9.587   0.216  0.0834 -0.0427 -0.4549
  389MOL0     O52415   3.777   9.634   0.139 -0.0813  0.4288  0.3219
  389MOL0     C52416   3.787   9.582   0.012  0.5126 -0.5383 -0.5692
  389MOL0     C52417   3.865   9.452   0.010 -0.3378 -0.2171 -0.5492
  389MOL0     C52418   3.988   9.452  -0.077 -0.2882  0.2551  0.3099
  389MOL0     C52419   4.031   9.322  -0.157 -0.2725 -0.3457  0.1723
  389MOL0     C52420   4.010   9.192  -0.084 -0.0032  0.5019  0.0068
  389MOL0     C52421   4.092   9.161   0.041 -1.0919  0.3742 -0.4934
  389MOL0     C52422   4.108   9.013   0.078 -0.5128  0.4018  0.3872
  389MOL0     C52423   4.256   8.959   0.098 -1.1944 -0.7062 -0.7473
  389MOL0    Cl52424   4.359   9.017  -0.041 -0.2050 -0.0515  0.1220
  389MOL0     C52425   3.702   9.550   0.343 -1.2283  0.7687 -0.2853
  389MOL0     C52426   3.593   9.504   0.424 -0.6416 -0.2462  0.5696
  389MOL0     O52427   3.178   9.451   0.344  0.0165  0.1407  0.1607
  389MOL0     C52428   3.227   9.383   0.697  0.7344 -0.1700 -0.3800
  389MOL0     C52429   3.156   9.379   0.814  0.6523  0.3217  0.5433
  389MOL0     N52430   2.299   9.517   0.850  0.4337 -0.4780  0.1495
  389MOL0     N52431   2.172   9.522   0.869  0.7562 -0.1866  0.1904
  389MOL0     C52432   2.278   9.715   1.412  0.2100  0.5870 -0.1855
  389MOL0     C52433   2.413   9.684   1.388 -0.1119  0.5490 -1.2681
  389MOL0     C52434   2.841   9.806   1.242  0.0160  0.0084 -0.3446
  389MOL0     C52435   2.907   9.738   1.346 -0.3170 -0.3500  0.1195
  389MOL0     C52436   3.048   9.720   1.350  0.0451 -0.4024 -0.0638
  389MOL0     C52437   3.116   9.770   1.242 -0.7987 -0.4903 -0.3393
  389MOL0     O52438   3.249   9.772   1.250  0.2028  0.1410  0.3941
  389MOL0     C52439   3.326   9.866   1.175  0.9537  0.3205  0.1587
  389MOL0     C52440   3.472   9.844   1.219 -0.2201  0.5522  0.1807
  389MOL0     C52441   3.571   9.909   1.116  0.6475 -0.2293 -0.0123
  389MOL0     C52442   3.579  10.060   1.156 -1.3158  0.0283 -0.7746
  389MOL0     C52443   3.640  10.086   1.291  0.3407 -0.1597  0.7097
  389MOL0     C52444   3.687  10.119   1.403  0.1734 -0.0059 -0.2114
  389MOL0     C52445   3.047   9.827   1.130 -0.5458 -0.5874 -0.1941
  389MOL0     C52446   2.908   9.848   1.127 -0.6483  0.2011 -0.0283
  389MOL0     C52447   2.842   9.921   1.006  0.2814  0.6487 -0.4928
  389MOL0     H52448   2.542  10.000   1.458 -1.7600  0.7747 -0.3809
  389MOL0     H52449   2.300  10.031   1.511 -2.9213  0.2111 -1.9686
  389MOL0     H52450   2.048   9.671   1.534  0.9292 -0.9768  0.5840
  389MOL0     H52451   2.054   9.801   1.659 -0.1261 -1.8148  0.0584
  389MOL0     H52452   1.871   9.911   1.529 -2.3310  0.1171  1.8329
  389MOL0     H52453   1.821   9.781   1.633  1.5817 -0.0666  0.6086
  389MOL0     H52454   1.699   9.721   1.422 -0.3753  0.7482 -3.1381
  389MOL0     H52455   1.847   9.630   1.411  1.4085  1.2767  0.8987
  389MOL0     H52456   1.843   9.921   1.326  1.8557 -0.0800 -0.5787
  389MOL0     H52457   1.959   9.797   1.301  0.2079  3.2591  0.2600
  389MOL0     H52458   1.669   9.805   1.185  0.2167  0.4435 -0.5241
  389MOL0     H52459   1.822   9.837   1.096  0.0983 -0.2003  0.4120
  389MOL0     H52460   1.724   9.568   1.198 -1.0158  2.3223  0.8552
  389MOL0     H52461   1.737   9.630   1.020 -0.0183  4.8401  0.1008
  389MOL0     H52462   1.934   9.475   1.074  2.0293 -0.4583 -2.4084
  389MOL0     H52463   1.975   9.597   1.196 -1.6337 -0.8574  1.9895
  389MOL0     H52464   1.956   9.664   0.906  1.1954 -3.5677 -0.0260
  389MOL0     H52465   2.004   9.766   1.028 -2.7341 -0.4528  0.4592
  389MOL0     H52466   2.279   9.715   1.111  0.2634  0.1452  0.4248
  389MOL0     H52467   2.545   9.646   0.855 -2.5715 -0.4418 -0.9684
  389MOL0     H52468   2.545   9.688   1.033 -0.2196  1.1507 -0.5709
  389MOL0     H52469   2.555   9.410   1.053 -0.5919 -0.3155 -0.0613
  389MOL0     H52470   2.565   9.415   0.881  1.6288 -0.8992 -0.5260
  389MOL0     H52471   2.765   9.529   1.079  0.7730  1.0579 -1.3526
  389MOL0     H52472   2.776   9.575   0.921  2.2235  1.6377  3.0757
  389MOL0     H52473   2.767   9.311   0.858 -0.4686 -2.2951  0.4726
  389MOL0     H52474   2.787   9.291   1.034  4.1660  0.3883  1.2054
  389MOL0     H52475   2.850   9.451   0.689 -0.2831  2.0226  1.8031
  389MOL0     H52476   2.958   9.463   0.498 -0.8668  1.0124  1.0799
  389MOL0     H52477   3.344   9.537   0.192  0.7233 -2.4714 -0.3062
  389MOL0     H52478   3.532   9.613   0.057  0.7081  0.5252 -0.9355
  389MOL0     H52479   3.691   9.569  -0.039 -1.1666  0.6985  2.0630
  389MOL0     H52480   3.838   9.657  -0.050  1.9514 -3.4149 -3.1488
  389MOL0     H52481   3.889   9.420   0.112 -1.1969 -2.2672 -0.9510
  389MOL0     H52482   3.790   9.378  -0.017 -0.7114 -0.0188 -0.0681
  389MOL0     H52483   3.985   9.545  -0.135 -1.2222  1.2431  1.8828
  389MOL0     H52484   4.073   9.457  -0.008 -0.8947  1.0248  1.0158
  389MOL0     H52485   4.135   9.329  -0.190 -0.4466 -0.0645 -0.3227
  389MOL0     H52486   3.970   9.314  -0.247  0.9287 -1.2317 -0.6023
  389MOL0     H52487   4.040   9.115  -0.156  1.3956 -2.1627  3.1968
  389MOL0     H52488   3.905   9.176  -0.058  0.5272 -1.2186  1.2195
  389MOL0     H52489   4.186   9.214   0.026  0.2429 -0.9382  2.4033
  389MOL0     H52490   4.060   9.207   0.135  2.5844 -3.4699  3.0690
  389MOL0     H52491   4.060   8.943   0.010 -3.5065  1.3293  1.3941
  389MOL0     H52492   4.051   9.003   0.171 -1.0463  1.5787  0.1960
  389MOL0     H52493   4.297   9.000   0.191 -1.1040  0.5218 -1.3118
  389MOL0     H52494   4.261   8.853   0.127 -0.8258  0.2268  3.1054
  389MOL0     H52495   3.799   9.570   0.386 -0.5507 -1.4832 -0.6196
  389MOL0     H52496   3.600   9.484   0.530  0.6875 -2.3737  0.1525
  389MOL0     H52497   3.335   9.377   0.697  0.6789 -1.8780 -1.6957
  389MOL0     H52498   3.213   9.348   0.901  0.9365 -0.8070 -0.0274
  389MOL0     H52499   2.206   9.636   1.394  0.4786  0.0247  1.0932
  389MOL0     H52500   2.447   9.587   1.352 -1.0442 -1.6833  3.1692
  389MOL0     H52501   2.857   9.701   1.436 -2.3257 -2.1930 -1.6196
  389MOL0     H52502   3.103   9.670   1.428 -3.9906 -3.1928  1.3406
  389MOL0     H52503   3.309   9.970   1.204 -0.3944 -0.4558  2.4582
  389MOL0     H52504   3.319   9.851   1.067 -0.5036  1.3460  0.0893
  389MOL0     H52505   3.488   9.736   1.211 -2.8345 -0.1611  2.9010
  389MOL0     H52506   3.486   9.855   1.327  0.9177 -3.8963  0.6737
  389MOL0     H52507   3.534   9.915   1.013 -0.9001  1.5912  0.5835
  389MOL0     H52508   3.668   9.860   1.121 -0.2934 -2.7351 -2.9488
  389MOL0     H52509   3.634  10.103   1.072 -2.9423  1.0914 -1.3338
  389MOL0     H52510   3.479  10.104   1.160 -1.4545 -0.3405  0.2179
  389MOL0     H52511   3.707  10.165   1.498 -1.9411  3.4304 -1.2307
  389MOL0     H52512   3.111   9.854   1.047  0.8502  0.7911  1.2613
  389MOL0     H52513   2.763   9.852   0.975 -0.0631 -0.7198  2.9974
  389MOL0     H52514   2.796  10.016   1.034  0.0745  1.0760 -2.1785
  389MOL0     H52515   2.909   9.941   0.922  0.4629  1.6690 -0.1234
  390MOL0     O52516  11.088   6.255   5.697 -0.2359  0.9465 -0.6010
  390MOL0     C52517  11.028   6.328   5.779 -0.3025 -0.0493 -0.2820
  390MOL0     O52518  11.049   6.327   5.910 -0.6247 -0.3132 -0.6741
  390MOL0     C52519  11.146   6.236   5.945 -1.1815 -0.5974  0.2434
  390MOL0     C52520  11.277   6.273   5.978  0.4242 -0.5040 -0.4022
  390MOL0     C52521  11.377   6.179   6.018 -0.2224 -0.9896  0.3612
  390MOL0     C52522  11.354   6.045   6.025  0.0838 -0.2097  0.5103
  390MOL0     O52523  11.455   5.946   6.052 -0.1815 -0.4062  0.8740
  390MOL0     C52524  11.595   5.983   6.037  0.2281 -0.3674  0.5337
  390MOL0     C52525  11.661   5.869   5.966  0.6192  0.2699 -0.1846
  390MOL0     C52526  11.812   5.888   5.965 -0.1994  0.1643  0.0991
  390MOL0     C52527  11.866   5.829   6.093  0.3471 -0.3962  0.8731
  390MOL0     C52528  12.024   5.825   6.095  0.1825  0.4177  0.2440
  390MOL0     C52529  12.080   5.961   6.130 -0.1574  0.2328 -0.1156
  390MOL0     C52530  12.042   6.015   6.272 -0.4314  0.1924  0.0101
  390MOL0     C52531  12.149   6.114   6.325  0.0360  0.2949 -0.2723
  390MOL0     N52532  12.174   6.223   6.238 -0.7015 -0.6122 -0.5019
  390MOL0     C52533  12.245   6.218   6.122 -0.6007 -0.0908  0.9980
  390MOL0     C52534  12.219   6.331   6.055 -0.1024 -0.4621  0.3351
  390MOL0     C52535  12.270   6.375   5.922 -1.5478 -0.3975  0.2695
  390MOL0     C52536  12.425   6.425   5.933  0.5337  0.2286 -0.1299
  390MOL0     C52537  12.460   6.520   5.827 -0.4447 -0.0338 -0.4070
  390MOL0     C52538  12.604   6.579   5.861 -1.3470 -0.2096  0.2170
  390MOL0     O52539  12.700   6.473   5.867  0.1864 -0.1329 -0.0563
  390MOL0     C52540  12.791   6.446   5.774 -0.8678  0.3321  0.3221
  390MOL0     C52541  12.838   6.535   5.676 -0.3542 -0.0610 -0.3192
  390MOL0     C52542  12.943   6.510   5.593 -0.3629  0.6998  0.6597
  390MOL0     C52543  13.000   6.380   5.605  0.0508  0.0999  0.1670
  390MOL0     C52544  13.105   6.333   5.507 -1.4859 -0.9175  0.0276
  390MOL0     O52545  13.132   6.421   5.399 -0.0890  0.3347  0.1558
  390MOL0     C52546  13.226   6.393   5.300  0.0724 -0.2078 -0.4169
  390MOL0     C52547  13.237   6.491   5.203 -0.2596 -0.2373 -0.2941
  390MOL0     C52548  13.344   6.482   5.107 -0.4001  0.4750  0.3218
  390MOL0     C52549  13.444   6.381   5.098 -1.2584 -0.1148 -0.4009
  390MOL0     O52550  13.555   6.417   5.025 -0.1222  0.9749 -0.6234
  390MOL0     C52551  13.674   6.337   5.050 -0.3230 -0.0389 -0.2196
  390MOL0     C52552  13.691   6.230   4.949  0.3550  0.1874  0.5993
  390MOL0     C52553  13.644   6.267   4.813  0.4131  0.3441  0.6283
  390MOL0     C52554  13.623   6.146   4.724 -0.3940 -0.0209 -0.0897
  390MOL0     C52555  13.546   6.191   4.591  0.1708  0.4928  0.1997
  390MOL0     C52556  13.474   6.078   4.516 -0.3512 -0.0468 -0.3746
  390MOL0     C52557  13.564   5.959   4.503 -0.7693  0.6381  0.2815
  390MOL0     C52558  13.489   5.847   4.447  0.6560 -0.4437  0.0005
  390MOL0    Cl52559  13.344   5.793   4.553  0.0529  0.6460  0.5584
  390MOL0     C52560  13.419   6.278   5.192  0.3384  0.7848  0.3894
  390MOL0     C52561  13.314   6.284   5.290 -0.2104 -0.6669 -0.0553
  390MOL0     O52562  13.153   6.222   5.531 -0.6790 -0.0673  0.0111
  390MOL0     C52563  12.968   6.294   5.710  0.3276 -0.1655 -0.1799
  390MOL0     C52564  12.869   6.328   5.797 -0.0386  0.0125  0.9706
  390MOL0     N52565  12.127   6.399   6.132 -0.2685 -0.5944  0.0754
  390MOL0     N52566  12.101   6.336   6.235  0.4668  0.0770 -0.7776
  390MOL0     C52567  11.223   6.010   5.995 -0.4498 -0.1022  1.1845
  390MOL0     C52568  11.123   6.100   5.951  0.4343 -0.1305  1.1679
  390MOL0     C52569  10.921   6.420   5.726 -1.1439  0.3205  0.9665
  390MOL0     C52570  10.892   6.410   5.583  0.4856 -0.2375 -0.3787
  390MOL0     C52571  10.800   6.505   5.518 -0.0932 -0.5887 -1.1402
  390MOL0     C52572  10.766   6.620   5.596 -1.3031 -0.7509 -1.2040
  390MOL0     O52573  10.704   6.732   5.561 -0.2241 -0.1986 -0.3895
  390MOL0     C52574  10.668   6.758   5.432  0.7362 -1.0090  0.5491
  390MOL0     C52575  10.540   6.685   5.412 -0.4026  0.6434  0.6316
  390MOL0     C52576  10.427   6.709   5.517 -0.5271  0.4003 -0.3254
  390MOL0     C52577  10.283   6.683   5.459  0.3571 -0.1507 -0.8297
  390MOL0     C52578  10.270   6.560   5.386 -1.0741  0.1987 -1.2398
  390MOL0     C52579  10.273   6.451   5.327  0.5013 -1.1629  0.4318
  390MOL0     C52580  10.788   6.629   5.733 -0.1522  1.0642 -1.0616
  390MOL0     C52581  10.849   6.521   5.800 -0.5434  0.0321  0.6432
  390MOL0     C52582  10.850   6.530   5.947  0.5337  0.1188 -0.2666
  390MOL0     H52583  11.293   6.381   5.976  0.4077 -0.4935 -0.0671
  390MOL0     H52584  11.476   6.222   6.028 -1.0755  0.9309  1.0690
  390MOL0     H52585  11.608   6.075   5.980 -1.6329  1.2725  2.6049
  390MOL0     H52586  11.634   5.991   6.139 -0.1673 -1.5257  0.7940
  390MOL0     H52587  11.618   5.871   5.866  2.8209 -2.0592 -1.3090
  390MOL0     H52588  11.644   5.770   6.010  0.8186 -0.3294 -1.4210
  390MOL0     H52589  11.838   5.992   5.943  0.3340  0.5122  2.1005
  390MOL0     H52590  11.862   5.828   5.888 -3.3724 -1.7604 -0.6103
  390MOL0     H52591  11.822   5.891   6.172  1.6653  1.2708  0.3726
  390MOL0     H52592  11.841   5.723   6.100 -1.4230 -0.1577 -1.1611
  390MOL0     H52593  12.062   5.744   6.159 -1.7653 -0.7074  0.0695
  390MOL0     H52594  12.060   5.794   5.997 -1.4056  0.8047 -0.4970
  390MOL0     H52595  12.188   5.948   6.117 -0.4108 -1.5810 -0.7203
  390MOL0     H52596  12.065   6.042   6.059  1.1450  1.9855  1.4841
  390MOL0     H52597  12.040   5.934   6.345 -0.0847 -0.2792 -0.4927
  390MOL0     H52598  11.948   6.071   6.277 -0.6025  0.2956 -2.5578
  390MOL0     H52599  12.115   6.150   6.422  0.4801  2.0442 -0.7243
  390MOL0     H52600  12.244   6.061   6.341 -0.5596 -0.9237 -0.6586
  390MOL0     H52601  12.303   6.133   6.086  0.6870  1.0431  0.2909
  390MOL0     H52602  12.270   6.281   5.866  0.6933 -0.3787  0.1756
  390MOL0     H52603  12.203   6.448   5.873 -2.3427 -0.7331  0.8438
  390MOL0     H52604  12.451   6.472   6.029  2.3995 -4.3957  1.9680
  390MOL0     H52605  12.474   6.326   5.934 -0.9568 -0.5495 -1.1786
  390MOL0     H52606  12.389   6.603   5.833 -0.1634  0.2841 -1.3670
  390MOL0     H52607  12.459   6.484   5.724 -0.0959 -3.0034  0.5405
  390MOL0     H52608  12.602   6.626   5.960  0.9298 -1.5370  0.9663
  390MOL0     H52609  12.631   6.666   5.801  1.7357 -1.1982 -0.0297
  390MOL0     H52610  12.782   6.628   5.683 -1.3007 -0.7051  1.1015
  390MOL0     H52611  12.972   6.581   5.516  0.5631 -2.3938 -2.0566
  390MOL0     H52612  13.175   6.580   5.194 -2.6894 -1.3917  3.0006
  390MOL0     H52613  13.368   6.568   5.046  1.8917 -0.2177  0.1429
  390MOL0     H52614  13.762   6.401   5.033 -1.6860  2.0320  0.1715
  390MOL0     H52615  13.688   6.306   5.154  2.1138  1.0381 -0.1462
  390MOL0     H52616  13.787   6.178   4.946 -1.4145 -3.3830 -1.1251
  390MOL0     H52617  13.621   6.148   4.969 -2.2104  1.7976 -1.0961
  390MOL0     H52618  13.548   6.320   4.816  0.9412  1.6545 -2.3428
  390MOL0     H52619  13.718   6.333   4.766 -0.1319 -0.0703 -0.8574
  390MOL0     H52620  13.586   6.059   4.781  4.3920 -1.5888  1.0501
  390MOL0     H52621  13.722   6.115   4.690 -0.0317  1.4001 -0.3882
  390MOL0     H52622  13.610   6.245   4.521 -1.1305 -1.6687 -2.8503
  390MOL0     H52623  13.470   6.264   4.620 -0.1068  0.5615 -0.6866
  390MOL0     H52624  13.375   6.072   4.563 -0.8698  3.2722 -0.8055
  390MOL0     H52625  13.450   6.113   4.415 -1.0891 -2.5745 -1.1623
  390MOL0     H52626  13.595   5.933   4.604 -0.8363 -1.6666 -0.2388
  390MOL0     H52627  13.648   5.978   4.436  0.4228 -1.9690  0.9010
  390MOL0     H52628  13.457   5.865   4.343  0.3671 -6.1585 -1.2120
  390MOL0     H52629  13.547   5.761   4.413 -0.4190  0.3182 -4.5392
  390MOL0     H52630  13.479   6.188   5.189 -2.3866 -1.1662  0.2636
  390MOL0     H52631  13.303   6.208   5.365 -1.1209 -1.6393 -1.1475
  390MOL0     H52632  13.020   6.199   5.717  0.0415 -0.3490 -0.4843
  390MOL0     H52633  12.839   6.253   5.869  1.8174 -2.7007 -0.8471
  390MOL0     H52634  11.197   5.905   5.995 -2.0462  0.1322 -2.2612
  390MOL0     H52635  11.029   6.061   5.914  0.7101 -0.4057  0.7457
  390MOL0     H52636  10.932   6.329   5.524  0.2723  0.5534 -1.6452
  390MOL0     H52637  10.807   6.499   5.410 -0.6075 -1.1216 -1.1457
  390MOL0     H52638  10.746   6.740   5.358 -0.3764 -0.6582 -0.7490
  390MOL0     H52639  10.631   6.861   5.429  0.2944 -1.0644  2.4412
  390MOL0     H52640  10.565   6.578   5.409  0.9833  0.9679  0.0223
  390MOL0     H52641  10.508   6.719   5.313  4.2381  4.3507  0.0701
  390MOL0     H52642  10.433   6.811   5.555 -4.0115  1.3337 -1.8613
  390MOL0     H52643  10.457   6.642   5.597  1.1120  1.7646  0.2820
  390MOL0     H52644  10.204   6.681   5.534 -2.7843  0.9182 -3.8000
  390MOL0     H52645  10.249   6.768   5.400 -0.8498  1.3164  1.8147
  390MOL0     H52646  10.267   6.355   5.279  0.4127 -0.3113 -1.3367
  390MOL0     H52647  10.745   6.709   5.791 -2.2126  0.8496 -2.2107
  390MOL0     H52648  10.846   6.430   5.990 -0.2586 -0.0461 -0.7148
  390MOL0     H52649  10.929   6.583   6.002  0.5042 -0.7721  0.6507
  390MOL0     H52650  10.754   6.580   5.960 -0.5168 -1.9623  0.1802
  391MOL0     O52651   0.903   6.502   9.422  0.0647 -0.1337 -0.3280
  391MOL0     C52652   0.797   6.495   9.488  0.4830  0.1473 -0.7636
  391MOL0     O52653   0.786   6.425   9.610  0.1691 -0.4406  0.4738
  391MOL0     C52654   0.893   6.372   9.663  0.4167  0.3815  0.7458
  391MOL0     C52655   0.981   6.282   9.599  1.4951  0.0493  0.7933
  391MOL0     C52656   1.081   6.221   9.671 -0.3641 -0.1116  0.6193
  391MOL0     C52657   1.098   6.244   9.809 -0.6984  1.4290  0.0818
  391MOL0     O52658   1.192   6.183   9.892  0.5225  0.2359 -0.3864
  391MOL0     C52659   1.329   6.188   9.847  0.3942 -0.4700 -0.0699
  391MOL0     C52660   1.385   6.334   9.876  0.3845  0.0852  0.3862
  391MOL0     C52661   1.384   6.344  10.032 -0.8688 -1.7952  0.4041
  391MOL0     C52662   1.453   6.487  10.057 -0.7369 -0.9115 -0.9804
  391MOL0     C52663   1.452   6.528  10.207 -0.4507 -0.4575  0.4414
  391MOL0     C52664   1.523   6.420  10.308 -0.1382  0.3746  0.4216
  391MOL0     C52665   1.477   6.456  10.449  0.3386  0.3323 -0.5450
  391MOL0     C52666   1.544   6.355  10.553  0.3980 -0.1092 -0.2705
  391MOL0     N52667   1.675   6.392  10.572  0.1314 -0.6799  0.2431
  391MOL0     C52668   1.726   6.515  10.619  0.4087 -0.3181 -0.1324
  391MOL0     C52669   1.844   6.487  10.678 -0.0545  0.5916  0.0835
  391MOL0     C52670   1.932   6.572  10.767 -0.2192 -0.7003  0.8161
  391MOL0     C52671   1.910   6.728  10.745  0.2991  0.2652 -0.3963
  391MOL0     C52672   2.028   6.804  10.814 -0.3732  0.0785 -0.4335
  391MOL0     C52673   2.024   6.810  10.966  0.1959  0.2617 -1.1281
  391MOL0     O52674   2.045   6.683  11.033  1.1041  0.3479 -0.1437
  391MOL0     C52675   2.159   6.645  11.097  0.0719  0.0751  0.2878
  391MOL0     C52676   2.256   6.735  11.143 -0.3240  0.0892  1.0305
  391MOL0     C52677   2.373   6.683  11.201 -0.0664  0.0067 -0.4911
  391MOL0     C52678   2.391   6.540  11.218  0.6171  0.4247  0.6333
  391MOL0     C52679   2.507   6.478  11.293 -0.6893  0.2955  1.0848
  391MOL0     O52680   2.510   6.341  11.292  0.0034 -0.8605 -0.3668
  391MOL0     C52681   2.583   6.256  11.365 -0.7095 -0.4647 -0.3440
  391MOL0     C52682   2.661   6.287  11.476 -0.6029 -0.1322  0.9984
  391MOL0     C52683   2.746   6.191  11.549 -0.1303 -0.6465  0.1651
  391MOL0     C52684   2.741   6.061  11.506  0.6685  0.3115 -0.4143
  391MOL0     O52685   2.810   5.952  11.555 -0.5697 -0.7935 -0.4891
  391MOL0     C52686   2.949   5.973  11.558 -0.0817 -1.4393  0.6194
  391MOL0     C52687   3.035   5.856  11.552  0.1992 -0.5292  0.7815
  391MOL0     C52688   3.177   5.889  11.517  0.5844 -0.3896  0.1756
  391MOL0     C52689   3.258   5.790  11.595 -0.0795 -0.3141  1.1446
  391MOL0     C52690   3.407   5.791  11.555  0.6690 -0.2924 -1.2595
  391MOL0     C52691   3.472   5.920  11.607 -0.5867 -0.0752 -0.9336
  391MOL0     C52692   3.626   5.929  11.591 -0.1569  0.8629 -0.2471
  391MOL0     C52693   3.680   6.065  11.609  1.2830  1.1619  0.1438
  391MOL0    Cl52694   3.860   6.047  11.623  0.1665 -0.4000  0.2647
  391MOL0     C52695   2.650   6.027  11.401  0.7574  0.7958 -0.9026
  391MOL0     C52696   2.570   6.120  11.338 -0.4201 -0.2717  1.0945
  391MOL0     O52697   2.592   6.547  11.344  0.1339 -0.1915  0.8205
  391MOL0     C52698   2.282   6.457  11.189  0.5736  0.3743  0.7405
  391MOL0     C52699   2.171   6.512  11.128  0.3238 -0.3490  0.3293
  391MOL0     N52700   1.860   6.349  10.673  0.0865  0.9097  0.2855
  391MOL0     N52701   1.762   6.296  10.604 -0.1147 -0.8911  0.4741
  391MOL0     C52702   1.003   6.322   9.877 -0.3656 -0.0537 -0.4411
  391MOL0     C52703   0.897   6.381   9.807 -0.0613 -0.3007  0.8075
  391MOL0     C52704   0.666   6.538   9.422 -0.5701  0.2517  0.3904
  391MOL0     C52705   0.552   6.466   9.452  0.2545 -0.0284 -0.4951
  391MOL0     C52706   0.425   6.514   9.408  0.0787  0.5525  1.1920
  391MOL0     C52707   0.426   6.625   9.325  0.4613 -0.1171 -0.3428
  391MOL0     O52708   0.307   6.646   9.269  0.1794 -0.0765 -1.2021
  391MOL0     C52709   0.292   6.616   9.131  0.7905 -1.1618  0.1348
  391MOL0     C52710   0.166   6.679   9.078  0.1975 -1.6294 -0.0533
  391MOL0     C52711   0.145   6.655   8.924 -0.7379 -0.3738  0.0350
  391MOL0     C52712   0.012   6.708   8.876  0.2697 -0.0655  0.0783
  391MOL0     C52713   0.016   6.857   8.910 -0.4615  0.3548  0.6131
  391MOL0     C52714   0.008   6.981   8.913 -0.0041  0.0189 -0.5316
  391MOL0     C52715   0.545   6.693   9.293 -0.5110 -0.0500  0.2902
  391MOL0     C52716   0.664   6.651   9.332 -0.2370  0.2818 -0.2070
  391MOL0     C52717   0.788   6.724   9.299  0.8556  0.6590  0.6671
  391MOL0     H52718   0.964   6.268   9.493 -1.0356 -1.4136  1.3094
  391MOL0     H52719   1.134   6.160   9.599 -0.1428  0.6843  0.0946
  391MOL0     H52720   1.384   6.115   9.906 -2.8124  0.2742  4.3020
  391MOL0     H52721   1.335   6.177   9.738  0.4613 -1.5976  0.0351
  391MOL0     H52722   1.315   6.413   9.849  0.7724  1.1099  2.2781
  391MOL0     H52723   1.483   6.356   9.830 -0.9493  2.2467 -1.6312
  391MOL0     H52724   1.445   6.266  10.078 -0.8543 -3.1896 -1.8119
  391MOL0     H52725   1.281   6.341  10.069 -2.4266  1.9145 -2.9037
  391MOL0     H52726   1.556   6.494  10.022 -0.9861  0.2838 -1.5037
  391MOL0     H52727   1.401   6.567  10.003  1.1578  1.0535 -0.0384
  391MOL0     H52728   1.495   6.628  10.202 -3.5792  0.9939  0.5685
  391MOL0     H52729   1.345   6.537  10.230 -0.4454 -0.4154  0.4491
  391MOL0     H52730   1.490   6.319  10.280 -2.8042  0.8471  1.5439
  391MOL0     H52731   1.628   6.438  10.284 -0.6921  0.8457 -1.8859
  391MOL0     H52732   1.368   6.452  10.457  0.0926 -1.1551 -3.2775
  391MOL0     H52733   1.510   6.558  10.471  0.6193  0.2956 -0.7849
  391MOL0     H52734   1.488   6.369  10.647 -2.3696  3.8109 -2.2165
  391MOL0     H52735   1.535   6.252  10.518 -1.8601  0.3635 -1.2674
  391MOL0     H52736   1.677   6.611  10.611  0.4410 -0.1475  1.3262
  391MOL0     H52737   1.906   6.533  10.866  0.9643  0.3232  1.5584
  391MOL0     H52738   2.032   6.551  10.728 -0.3830  1.9707 -1.3194
  391MOL0     H52739   1.893   6.750  10.639 -3.0126  0.8562  0.1281
  391MOL0     H52740   1.819   6.744  10.804  1.7950 -1.0947  2.4886
  391MOL0     H52741   2.033   6.904  10.771 -0.1686  0.1598 -0.2247
  391MOL0     H52742   2.126   6.757  10.795 -1.2439 -2.1690  0.2446
  391MOL0     H52743   1.925   6.840  11.004  0.0123  0.7548 -1.9718
  391MOL0     H52744   2.090   6.887  11.008 -1.5029  1.9219 -1.3645
  391MOL0     H52745   2.254   6.840  11.116 -3.0043  0.3584  2.0661
  391MOL0     H52746   2.449   6.751  11.239  0.6642 -1.1757  0.2242
  391MOL0     H52747   2.670   6.391  11.505 -0.4126  0.0358  0.3443
  391MOL0     H52748   2.812   6.228  11.627  0.8347  0.2664 -1.0510
  391MOL0     H52749   2.984   6.026  11.469  1.4886 -4.4755 -0.7138
  391MOL0     H52750   2.983   6.028  11.646 -0.5074 -3.7294  2.3232
  391MOL0     H52751   3.028   5.820  11.655 -4.4085 -2.0667  0.1516
  391MOL0     H52752   2.985   5.787  11.483 -1.1303  1.5068 -0.4197
  391MOL0     H52753   3.199   5.886  11.410  0.2399  0.8093  0.0582
  391MOL0     H52754   3.209   5.990  11.546  0.4789 -0.1102 -0.6542
  391MOL0     H52755   3.221   5.689  11.578 -0.6738  0.1577 -0.6228
  391MOL0     H52756   3.265   5.824  11.699 -1.0037  4.3166 -0.0968
  391MOL0     H52757   3.420   5.774  11.448  0.5234  1.9240 -1.6693
  391MOL0     H52758   3.454   5.704  11.603  2.3094 -0.7129 -3.4943
  391MOL0     H52759   3.434   6.007  11.553  1.0386  2.9111  2.3209
  391MOL0     H52760   3.448   5.925  11.713 -0.9984 -1.0778 -0.9730
  391MOL0     H52761   3.647   5.912  11.485  1.3548  1.7952 -0.1239
  391MOL0     H52762   3.668   5.859  11.663 -2.0958  1.4329  1.5421
  391MOL0     H52763   3.649   6.134  11.530 -3.4135  1.7916  2.2022
  391MOL0     H52764   3.641   6.111  11.700  1.3251 -1.2519  1.4619
  391MOL0     H52765   2.626   5.926  11.370 -1.1424  1.3553 -1.3797
  391MOL0     H52766   2.498   6.093  11.262  0.1164  0.9030  0.1398
  391MOL0     H52767   2.282   6.350  11.204 -2.3462 -0.1721 -1.9167
  391MOL0     H52768   2.099   6.434  11.104  0.7947 -0.6228 -0.2273
  391MOL0     H52769   1.024   6.323   9.983  2.2380 -2.7886 -0.8069
  391MOL0     H52770   0.822   6.439   9.861  0.1412 -1.3931  2.3314
  391MOL0     H52771   0.550   6.384   9.523  0.5869  1.8387  1.7716
  391MOL0     H52772   0.338   6.453   9.433  1.0441 -0.8208  1.3263
  391MOL0     H52773   0.277   6.509   9.116  1.4248 -1.1354 -0.7583
  391MOL0     H52774   0.379   6.648   9.073  2.1659 -0.2656  2.5039
  391MOL0     H52775   0.155   6.786   9.099 -2.6285 -1.9420  0.5563
  391MOL0     H52776   0.088   6.630   9.137  0.2642 -0.4888  1.0149
  391MOL0     H52777   0.144   6.547   8.907  2.0845 -0.4474 -0.1719
  391MOL0     H52778   0.227   6.688   8.860 -1.8072  0.2481 -1.0445
  391MOL0     H52779   0.001   6.702   8.767 -0.0294 -1.2063  0.1510
  391MOL0     H52780  -0.075   6.660   8.923 -0.1258  1.3977  0.9121
  391MOL0     H52781  -0.008   7.083   8.938 -1.0922 -0.8069  2.5461
  391MOL0     H52782   0.538   6.762   9.209  3.8383 -0.8570 -1.0242
  391MOL0     H52783   0.761   6.817   9.248 -1.0238 -1.3246 -2.2818
  391MOL0     H52784   0.838   6.739   9.395  0.8107  0.7629  0.6731
  391MOL0     H52785   0.849   6.667   9.227  0.8988 -1.9510  2.6103
  392MOL0     O52786   7.960   0.348   7.851  0.2565 -0.6414  0.3279
  392MOL0     C52787   7.903   0.242   7.829 -0.5528 -0.7339  0.1860
  392MOL0     O52788   7.787   0.197   7.888 -0.7226 -0.3594 -0.2595
  392MOL0     C52789   7.703   0.286   7.956  0.5214 -0.6353  0.4328
  392MOL0     C52790   7.638   0.235   8.064 -0.9010  0.2801 -0.1301
  392MOL0     C52791   7.543   0.304   8.129  0.0605 -0.9074  0.6445
  392MOL0     C52792   7.522   0.445   8.103  1.2489 -0.2548 -0.5059
  392MOL0     O52793   7.423   0.522   8.177 -0.0854  0.3646  0.3865
  392MOL0     C52794   7.427   0.497   8.321  0.2916 -0.1989 -0.0570
  392MOL0     C52795   7.307   0.575   8.364  0.1897 -0.5950 -0.5823
  392MOL0     C52796   7.178   0.528   8.287 -0.3489 -0.2787 -0.1510
  392MOL0     C52797   7.050   0.605   8.333  0.5828  0.3932  0.1726
  392MOL0     C52798   6.992   0.568   8.470  0.1277  0.6811 -0.5270
  392MOL0     C52799   6.935   0.418   8.493 -0.3101 -0.3579  0.0918
  392MOL0     C52800   6.847   0.390   8.621  1.2097  0.2691 -0.3935
  392MOL0     C52801   6.721   0.479   8.647 -0.6853  0.4959  0.1504
  392MOL0     N52802   6.616   0.477   8.532 -0.0067  0.3859  0.2539
  392MOL0     C52803   6.494   0.411   8.532  0.6887  0.1888  0.9922
  392MOL0     C52804   6.424   0.476   8.433 -0.5743 -0.0270  0.0513
  392MOL0     C52805   6.279   0.442   8.396 -0.0921 -0.1248  0.6730
  392MOL0     C52806   6.192   0.518   8.505  0.3097 -0.8155 -0.4693
  392MOL0     C52807   6.133   0.429   8.608  0.1295  0.5512 -0.5494
  392MOL0     C52808   6.002   0.362   8.565  0.0131  0.2005  0.0929
  392MOL0     O52809   6.025   0.277   8.449 -0.5973  0.0111 -0.3025
  392MOL0     C52810   5.912   0.216   8.407  0.2199  0.0106  0.7377
  392MOL0     C52811   5.795   0.180   8.482 -1.1733  0.1485 -0.3403
  392MOL0     C52812   5.685   0.126   8.409  0.2398 -0.2825 -0.6933
  392MOL0     C52813   5.702   0.093   8.277 -0.5371  0.0827  0.3191
  392MOL0     C52814   5.592   0.022   8.198  0.0822 -0.6372 -1.1672
  392MOL0     O52815   5.600   0.010   8.064 -0.5009 -0.6700 -0.0299
  392MOL0     C52816   5.502  -0.067   8.000 -0.3497 -0.2706 -1.2750
  392MOL0     C52817   5.426  -0.017   7.893 -0.3940 -1.1972 -1.2302
  392MOL0     C52818   5.321  -0.088   7.842 -0.2332 -0.4673  0.6659
  392MOL0     C52819   5.284  -0.214   7.893 -0.1339  0.8210  0.5381
  392MOL0     O52820   5.174  -0.279   7.826  0.1451  0.0486 -0.6446
  392MOL0     C52821   5.158  -0.419   7.846  0.8473  0.5393  0.8190
  392MOL0     C52822   5.047  -0.494   7.770 -0.4258 -0.7077  0.4676
  392MOL0     C52823   5.046  -0.464   7.622 -0.0185  0.1378  0.0405
  392MOL0     C52824   4.965  -0.571   7.547  0.0231  0.5184 -0.0215
  392MOL0     C52825   4.944  -0.513   7.396 -0.7481  0.2175  0.5171
  392MOL0     C52826   4.848  -0.600   7.308  0.4845  0.1704  0.0675
  392MOL0     C52827   4.832  -0.520   7.185  0.4665  1.4058  0.8419
  392MOL0     C52828   4.756  -0.595   7.067 -0.1836 -0.0352 -0.7381
  392MOL0    Cl52829   4.594  -0.519   7.071 -0.0865  0.2361 -0.3572
  392MOL0     C52830   5.364  -0.273   7.991 -0.0589  0.1713  0.0077
  392MOL0     C52831   5.475  -0.204   8.043  0.0052 -0.6473  0.6685
  392MOL0     O52832   5.494  -0.010   8.268  0.5987 -0.3112  0.5622
  392MOL0     C52833   5.811   0.144   8.202 -0.5395  0.2153 -0.0425
  392MOL0     C52834   5.917   0.197   8.267 -0.3830  0.7826 -0.1138
  392MOL0     N52835   6.493   0.584   8.377  0.6926 -0.0326 -0.0235
  392MOL0     N52836   6.612   0.581   8.434 -0.5746  0.7369  0.1023
  392MOL0     C52837   7.590   0.502   7.996 -0.6697  0.0431  0.5781
  392MOL0     C52838   7.678   0.423   7.915  1.2764  0.3687 -0.6128
  392MOL0     C52839   7.983   0.149   7.754  0.0741 -0.1993 -1.2446
  392MOL0     C52840   8.105   0.091   7.808  0.2789 -2.0236  0.2020
  392MOL0     C52841   8.169  -0.010   7.739 -0.2510  0.0157  0.4247
  392MOL0     C52842   8.123  -0.050   7.615  0.3189 -0.2246 -0.1931
  392MOL0     O52843   8.194  -0.160   7.566  0.7412 -0.3478 -0.6963
  392MOL0     C52844   8.198  -0.202   7.433 -1.2439  0.3512 -0.3774
  392MOL0     C52845   8.259  -0.102   7.335 -0.5233  0.3028  0.1655
  392MOL0     C52846   8.419  -0.088   7.333 -0.7244  0.0543 -0.5193
  392MOL0     C52847   8.473  -0.027   7.212  0.7507  0.3979  0.4824
  392MOL0     C52848   8.434   0.120   7.197  0.4026 -0.3941 -0.3808
  392MOL0     C52849   8.391   0.230   7.185  0.8544 -1.0176 -0.3509
  392MOL0     C52850   8.003  -0.005   7.566 -0.2798 -0.2781  0.0438
  392MOL0     C52851   7.925   0.093   7.638  0.1272  1.0375 -0.7092
  392MOL0     C52852   7.796   0.133   7.583 -0.3510 -0.5513 -0.3582
  392MOL0     H52853   7.658   0.131   8.085  1.4819  1.2481  3.1386
  392MOL0     H52854   7.498   0.267   8.221  0.4937 -0.2291  1.1377
  392MOL0     H52855   7.413   0.396   8.360  0.8556 -0.7590 -1.2500
  392MOL0     H52856   7.520   0.533   8.367 -0.8914  2.5999  0.3563
  392MOL0     H52857   7.331   0.681   8.351 -2.6526  0.5841  2.4665
  392MOL0     H52858   7.294   0.548   8.469  0.2466  4.7119  1.0797
  392MOL0     H52859   7.161   0.421   8.302 -0.7032  0.2304  5.0053
  392MOL0     H52860   7.185   0.536   8.179 -2.0411 -3.5206 -0.6130
  392MOL0     H52861   7.068   0.713   8.330 -3.1369  1.1500 -0.5998
  392MOL0     H52862   6.976   0.598   8.253  1.1105  2.8284 -0.6113
  392MOL0     H52863   7.067   0.587   8.547  1.9748  1.4611 -2.3950
  392MOL0     H52864   6.910   0.634   8.499  0.8616  0.0668  3.5822
  392MOL0     H52865   6.871   0.403   8.406 -0.6753  4.8560 -0.8129
  392MOL0     H52866   7.025   0.357   8.499  1.3569  1.9711 -0.1578
  392MOL0     H52867   6.906   0.400   8.712 -0.1467  1.6007  0.3768
  392MOL0     H52868   6.821   0.285   8.605  4.0074 -0.8685  1.7373
  392MOL0     H52869   6.679   0.444   8.742  1.8219 -1.0767  0.7772
  392MOL0     H52870   6.749   0.584   8.662 -0.7442  0.2996  1.8629
  392MOL0     H52871   6.449   0.326   8.582  1.0661 -2.1034 -2.2255
  392MOL0     H52872   6.259   0.491   8.300 -2.1104 -1.7085  0.2312
  392MOL0     H52873   6.267   0.334   8.385  1.0358 -0.4303  2.0920
  392MOL0     H52874   6.253   0.599   8.548  0.3246 -0.0169 -1.9177
  392MOL0     H52875   6.110   0.562   8.447  0.7734 -1.4699 -1.6592
  392MOL0     H52876   6.120   0.495   8.694  1.4432  0.9704 -0.6563
  392MOL0     H52877   6.205   0.354   8.642 -1.9486 -0.9393  0.7917
  392MOL0     H52878   5.930   0.442   8.545  1.5927  1.6657 -0.0343
  392MOL0     H52879   5.967   0.309   8.654  3.7460  2.7772  3.4379
  392MOL0     H52880   5.772   0.201   8.586 -0.1691  2.8357 -0.5870
  392MOL0     H52881   5.590   0.105   8.458 -1.9628  5.2365 -1.8397
  392MOL0     H52882   5.443   0.089   7.876  1.2177 -1.3036 -0.4627
  392MOL0     H52883   5.259  -0.038   7.770  1.2793  1.8743  0.8731
  392MOL0     H52884   5.256  -0.467   7.838  0.9623  0.3609  2.7555
  392MOL0     H52885   5.127  -0.450   7.946 -0.2749 -2.2027 -0.2767
  392MOL0     H52886   5.053  -0.602   7.783 -1.4248 -0.7132  0.9909
  392MOL0     H52887   4.950  -0.461   7.808 -0.6409  1.2080 -1.5590
  392MOL0     H52888   5.015  -0.362   7.598  1.9534  0.5398 -1.0230
  392MOL0     H52889   5.151  -0.459   7.594  0.4917 -0.2017  1.7804
  392MOL0     H52890   4.861  -0.583   7.581 -0.6403  0.3355 -1.9768
  392MOL0     H52891   4.997  -0.675   7.555  1.4814  1.0941  3.8945
  392MOL0     H52892   5.043  -0.501   7.351 -1.1988 -1.2716 -0.9954
  392MOL0     H52893   4.902  -0.413   7.405  1.6784  1.2417  1.3447
  392MOL0     H52894   4.888  -0.698   7.281  1.4058  1.1440 -2.3259
  392MOL0     H52895   4.751  -0.626   7.353 -0.0043  1.2776 -0.3175
  392MOL0     H52896   4.933  -0.496   7.150  0.7388 -1.2564 -0.4806
  392MOL0     H52897   4.772  -0.431   7.205 -2.5820 -0.9906  3.3934
  392MOL0     H52898   4.810  -0.571   6.975  1.2968  2.7443  0.7511
  392MOL0     H52899   4.741  -0.702   7.083 -5.7003  0.6069  0.3311
  392MOL0     H52900   5.332  -0.372   8.019  2.6738 -0.3710  1.5718
  392MOL0     H52901   5.531  -0.249   8.125 -0.9826  0.7618  2.1691
  392MOL0     H52902   5.807   0.137   8.094  1.5317  0.8349 -0.1976
  392MOL0     H52903   6.004   0.223   8.207 -0.0416  0.3421  0.1863
  392MOL0     H52904   7.567   0.603   7.966  0.4524  0.3123  0.6057
  392MOL0     H52905   7.721   0.473   7.829  0.1695 -1.9118 -2.5901
  392MOL0     H52906   8.146   0.131   7.900 -1.2580 -2.9596  1.3499
  392MOL0     H52907   8.257  -0.064   7.771  0.4952  1.3771  0.7697
  392MOL0     H52908   8.096  -0.230   7.405 -0.6680 -3.3959  0.7634
  392MOL0     H52909   8.265  -0.288   7.429  1.1810  2.1274 -0.9944
  392MOL0     H52910   8.216  -0.002   7.340  0.2510  0.6846 -0.5817
  392MOL0     H52911   8.215  -0.134   7.240 -0.8717  1.3335 -0.0227
  392MOL0     H52912   8.462  -0.189   7.338 -0.4552  0.1708 -0.4539
  392MOL0     H52913   8.465  -0.039   7.419  0.8059 -1.3632 -0.4775
  392MOL0     H52914   8.581  -0.039   7.218  1.0696  0.7278 -2.8671
  392MOL0     H52915   8.443  -0.090   7.128 -0.5083  0.2216  1.0421
  392MOL0     H52916   8.341   0.325   7.182 -2.1656 -2.5218 -1.5922
  392MOL0     H52917   7.961  -0.054   7.479 -0.6450  0.6166 -0.2961
  392MOL0     H52918   7.793   0.241   7.600  1.2043 -0.5871  0.3469
  392MOL0     H52919   7.797   0.114   7.475 -0.6920 -0.7992 -0.3164
  392MOL0     H52920   7.712   0.078   7.626 -2.4989  1.2692 -2.0040
  393MOL0     O52921   0.264   1.955   4.287  0.6627  0.4303 -0.2463
  393MOL0     C52922   0.279   1.837   4.261  0.4102 -0.4513 -0.2337
  393MOL0     O52923   0.178   1.739   4.293 -0.5223  0.1000  0.4641
  393MOL0     C52924   0.042   1.757   4.309  0.5727  1.0454  0.1534
  393MOL0     C52925  -0.035   1.661   4.377 -0.0537  0.4575  0.4023
  393MOL0     C52926  -0.167   1.675   4.402  0.1913 -0.4119  0.0471
  393MOL0     C52927  -0.230   1.785   4.339 -0.1781 -0.0211  0.6279
  393MOL0     O52928  -0.372   1.772   4.330  0.2343  0.4209  0.1239
  393MOL0     C52929  -0.444   1.883   4.287 -0.0680 -0.9969 -0.3462
  393MOL0     C52930  -0.584   1.846   4.286  0.2261  0.1376  0.1380
  393MOL0     C52931  -0.677   1.963   4.252 -0.2066  0.2400  0.5144
  393MOL0     C52932  -0.822   1.908   4.231 -0.6622 -0.5435  0.1711
  393MOL0     C52933  -0.930   2.024   4.233  0.7904 -0.7161 -0.2188
  393MOL0     C52934  -1.073   1.981   4.243 -0.7725  0.4718  0.6024
  393MOL0     C52935  -1.178   2.085   4.267 -0.4735 -0.4670  1.0634
  393MOL0     C52936  -1.315   2.017   4.302  0.2371 -0.2601 -0.5498
  393MOL0     N52937  -1.303   1.942   4.420 -0.1409 -0.4322 -0.7859
  393MOL0     C52938  -1.304   1.809   4.430  0.0594  0.8094 -0.5725
  393MOL0     C52939  -1.301   1.780   4.564  0.3258 -0.5609 -0.4018
  393MOL0     C52940  -1.276   1.655   4.643 -0.0897 -0.2504 -0.2602
  393MOL0     C52941  -1.209   1.694   4.776  0.3864  1.2165  0.0594
  393MOL0     C52942  -1.187   1.572   4.864 -0.3830  1.0242 -0.5085
  393MOL0     C52943  -1.065   1.486   4.827 -0.4556 -0.3115 -0.5092
  393MOL0     O52944  -1.100   1.349   4.834 -0.3002  0.2212 -0.0135
  393MOL0     C52945  -1.106   1.274   4.714  0.8039 -0.4709  0.3317
  393MOL0     C52946  -0.984   1.229   4.664 -0.6538 -0.2316  0.1241
  393MOL0     C52947  -0.981   1.149   4.545  0.7108  0.4360 -0.3404
  393MOL0     C52948  -1.099   1.127   4.475 -0.4595 -0.0431 -0.3347
  393MOL0     C52949  -1.100   1.058   4.348  1.3260 -0.1573  0.8094
  393MOL0     O52950  -1.218   1.032   4.289 -0.5497 -1.3889 -1.1780
  393MOL0     C52951  -1.212   1.002   4.157  0.4085 -0.5145  0.1073
  393MOL0     C52952  -1.249   0.871   4.128  0.2662 -0.3128 -0.4247
  393MOL0     C52953  -1.268   0.830   3.994  0.2096  0.3013  1.1692
  393MOL0     C52954  -1.231   0.919   3.888  0.1588  0.4558  0.1483
  393MOL0     O52955  -1.225   0.877   3.752  0.5110  0.7198 -0.8818
  393MOL0     C52956  -1.171   0.942   3.635  0.1957 -0.1436  0.2401
  393MOL0     C52957  -1.183   0.867   3.509 -0.3917 -0.1648 -0.8702
  393MOL0     C52958  -1.147   0.950   3.387  0.7390 -0.2158  0.6523
  393MOL0     C52959  -0.993   0.972   3.389  0.4314 -0.2801  0.6614
  393MOL0     C52960  -0.944   1.034   3.263  0.2925  0.1933 -0.3693
  393MOL0     C52961  -0.977   1.187   3.264  0.6162  0.0780  0.8133
  393MOL0     C52962  -0.937   1.257   3.136  0.8215 -0.5621  0.5241
  393MOL0     C52963  -0.962   1.401   3.146 -0.5945 -0.0091 -0.4047
  393MOL0    Cl52964  -0.842   1.455   3.261 -0.6102  0.1809  0.2712
  393MOL0     C52965  -1.213   1.054   3.926  0.9406 -0.7883 -0.1205
  393MOL0     C52966  -1.196   1.099   4.056  1.0523 -0.4508  0.0912
  393MOL0     O52967  -0.991   1.027   4.301 -0.8494 -0.9442 -0.0994
  393MOL0     C52968  -1.216   1.184   4.524  1.0096  1.0911 -0.8303
  393MOL0     C52969  -1.213   1.259   4.636  0.8776  0.0709 -0.1582
  393MOL0     N52970  -1.304   1.910   4.628  0.4371 -0.3983  0.6091
  393MOL0     N52971  -1.304   2.006   4.531 -0.0599 -0.5007 -0.1101
  393MOL0     C52972  -0.156   1.875   4.262 -0.2851  0.6097 -0.6299
  393MOL0     C52973  -0.021   1.865   4.257 -0.8647 -0.0041  0.0811
  393MOL0     C52974   0.396   1.786   4.199  0.3046 -0.6509  0.1557
  393MOL0     C52975   0.380   1.698   4.090  0.0446 -0.9249  0.6908
  393MOL0     C52976   0.477   1.662   3.995 -0.1651  0.2944 -0.1997
  393MOL0     C52977   0.609   1.714   4.013 -0.3401 -0.4026  0.2929
  393MOL0     O52978   0.721   1.683   3.934  1.0173  0.3517 -0.2771
  393MOL0     C52979   0.782   1.564   3.984  0.7480 -0.5554 -0.3931
  393MOL0     C52980   0.789   1.464   3.867  0.0066 -0.1290 -0.6618
  393MOL0     C52981   0.851   1.529   3.736 -0.6821 -0.4160 -0.9970
  393MOL0     C52982   1.001   1.532   3.728  0.4758 -0.1528 -0.3703
  393MOL0     C52983   1.090   1.636   3.784  0.5691  0.0405 -0.3582
  393MOL0     C52984   1.169   1.712   3.827  0.6348  0.1815 -0.3332
  393MOL0     C52985   0.623   1.816   4.115 -0.2645  0.5383  0.0680
  393MOL0     C52986   0.518   1.849   4.206  0.0054  0.0627 -0.0210
  393MOL0     C52987   0.568   1.928   4.317  0.2100  0.2806  0.4012
  393MOL0     H52988   0.016   1.574   4.417  1.3613  0.4167 -1.3721
  393MOL0     H52989  -0.231   1.596   4.441 -0.9454  0.7455  0.5572
  393MOL0     H52990  -0.429   1.959   4.364 -0.9215 -2.3977  1.2611
  393MOL0     H52991  -0.423   1.924   4.187 -2.5706  1.4003 -0.0132
  393MOL0     H52992  -0.600   1.832   4.394  1.9929  3.6085  1.0039
  393MOL0     H52993  -0.610   1.755   4.231 -2.7302  0.0666  1.4318
  393MOL0     H52994  -0.640   2.019   4.166  1.4991  1.8994  2.2289
  393MOL0     H52995  -0.679   2.041   4.329  0.5536  0.2678  0.5153
  393MOL0     H52996  -0.827   1.842   4.144  1.6751  0.4375 -0.7799
  393MOL0     H52997  -0.849   1.840   4.312 -1.3361 -0.3876  0.0763
  393MOL0     H52998  -0.908   2.088   4.319 -0.3909 -0.6336  0.0411
  393MOL0     H52999  -0.919   2.081   4.140  1.8677 -0.6963 -0.0923
  393MOL0     H53000  -1.102   1.931   4.151 -0.2984  2.9674 -1.0004
  393MOL0     H53001  -1.087   1.909   4.324  1.0141  0.8100  1.2691
  393MOL0     H53002  -1.168   2.151   4.180  2.7562 -1.5906  0.4246
  393MOL0     H53003  -1.156   2.148   4.354 -3.1121 -1.4317  2.5396
  393MOL0     H53004  -1.390   2.096   4.313 -0.4104 -1.1531  2.3115
  393MOL0     H53005  -1.337   1.953   4.215  2.3273 -3.1685  0.8937
  393MOL0     H53006  -1.270   1.737   4.356  1.7611 -0.1798  1.1049
  393MOL0     H53007  -1.372   1.606   4.661 -1.9817  3.0468 -0.4455
  393MOL0     H53008  -1.206   1.591   4.590 -2.1106 -4.8630  2.0518
  393MOL0     H53009  -1.113   1.737   4.746  0.4296  0.5573 -0.7939
  393MOL0     H53010  -1.279   1.758   4.830 -0.2274  0.8182 -0.2614
  393MOL0     H53011  -1.282   1.517   4.864 -0.1080  0.5440 -0.4800
  393MOL0     H53012  -1.168   1.619   4.961  3.2304  4.0867 -2.4358
  393MOL0     H53013  -0.977   1.508   4.889  0.5792  1.2847 -2.4298
  393MOL0     H53014  -1.028   1.511   4.727  2.9357  1.0867  0.9518
  393MOL0     H53015  -0.888   1.244   4.713 -1.7955 -0.5046  2.6295
  393MOL0     H53016  -0.884   1.109   4.516  0.4189 -0.1237 -0.5651
  393MOL0     H53017  -1.264   0.805   4.213 -0.2206  0.2387 -0.0769
  393MOL0     H53018  -1.299   0.728   3.976  0.7199  0.4763 -0.9963
  393MOL0     H53019  -1.229   1.032   3.612 -0.4929 -0.6296  0.0190
  393MOL0     H53020  -1.069   0.962   3.668 -0.3935 -0.0689  2.1198
  393MOL0     H53021  -1.126   0.774   3.517 -1.5687 -0.7986  0.5690
  393MOL0     H53022  -1.287   0.833   3.509 -0.3931 -0.4520  1.9096
  393MOL0     H53023  -1.175   0.898   3.295  1.2674  0.0425  0.3439
  393MOL0     H53024  -1.200   1.045   3.380  0.4446 -0.4827 -1.3277
  393MOL0     H53025  -0.938   0.877   3.391 -0.2739 -0.7812 -1.3752
  393MOL0     H53026  -0.962   1.028   3.478 -3.3717 -1.2834  2.8215
  393MOL0     H53027  -0.983   0.987   3.172  0.8892 -0.8079 -0.1303
  393MOL0     H53028  -0.836   1.024   3.276 -0.1566 -0.9812  3.4953
  393MOL0     H53029  -1.081   1.210   3.287  0.6137  0.0985  0.7822
  393MOL0     H53030  -0.916   1.232   3.343  3.4709 -2.9159  0.5693
  393MOL0     H53031  -1.000   1.209   3.061  0.5041  2.8289 -1.5967
  393MOL0     H53032  -0.832   1.233   3.115  0.7538  0.1194 -0.6843
  393MOL0     H53033  -0.947   1.458   3.055  3.5364  2.3085  1.4140
  393MOL0     H53034  -1.066   1.410   3.178 -1.5708 -2.6841 -2.4757
  393MOL0     H53035  -1.209   1.133   3.851  0.4827  0.8300  1.4893
  393MOL0     H53036  -1.167   1.202   4.076 -1.1581  0.1221  0.5981
  393MOL0     H53037  -1.310   1.182   4.469 -1.3790  2.5550  2.8244
  393MOL0     H53038  -1.284   1.336   4.668  0.1917 -1.4314  2.1919
  393MOL0     H53039  -0.204   1.948   4.198 -2.5042 -2.3408 -2.5753
  393MOL0     H53040   0.035   1.942   4.205  3.0474  1.3232  5.4693
  393MOL0     H53041   0.286   1.648   4.068  0.2938 -1.4969  0.8915
  393MOL0     H53042   0.442   1.578   3.936  0.5133  0.3038 -0.6241
  393MOL0     H53043   0.731   1.514   4.067  1.8004  2.4264  2.2346
  393MOL0     H53044   0.882   1.583   4.025  1.2784 -1.2783 -1.2920
  393MOL0     H53045   0.690   1.419   3.855  0.9219 -3.3016  2.1079
  393MOL0     H53046   0.847   1.379   3.903  0.0401 -0.0160 -0.4471
  393MOL0     H53047   0.800   1.623   3.713  0.1438 -0.6247 -4.2754
  393MOL0     H53048   0.825   1.463   3.652  1.3850 -1.3388 -0.9559
  393MOL0     H53049   1.030   1.430   3.755  0.4910 -0.5149 -1.6872
  393MOL0     H53050   1.020   1.540   3.620 -1.5977  1.6479 -0.6653
  393MOL0     H53051   1.230   1.788   3.870 -0.9937  1.9492 -1.0083
  393MOL0     H53052   0.720   1.864   4.128  0.3908 -0.5580 -0.6493
  393MOL0     H53053   0.493   1.936   4.396 -1.8269 -1.5135 -1.2484
  393MOL0     H53054   0.661   1.891   4.364  0.8667 -0.3960 -1.3499
  393MOL0     H53055   0.596   2.027   4.280 -1.7583 -0.4486 -3.5988
  394MOL0     O53056   4.267   1.678   8.260  0.3327 -0.4460  0.3221
  394MOL0     C53057   4.187   1.609   8.304  0.1802  1.2020 -0.8574
  394MOL0     O53058   4.173   1.577   8.439  1.2516  0.0328  0.2286
  394MOL0     C53059   4.248   1.649   8.522  0.0317  0.3862 -0.2625
  394MOL0     C53060   4.383   1.616   8.535  0.4981 -0.5338 -0.6122
  394MOL0     C53061   4.451   1.683   8.631  0.0276 -0.6826 -0.5503
  394MOL0     C53062   4.393   1.776   8.723 -0.5057  0.2095 -0.5513
  394MOL0     O53063   4.460   1.851   8.807 -0.5351 -0.1511 -0.0130
  394MOL0     C53064   4.583   1.905   8.766  0.4017 -0.1259  0.0302
  394MOL0     C53065   4.625   2.018   8.858  0.6645 -1.0380 -0.2226
  394MOL0     C53066   4.562   2.158   8.855  1.4034  0.5390 -0.6641
  394MOL0     C53067   4.398   2.166   8.868 -0.5988 -0.9763 -0.2098
  394MOL0     C53068   4.359   2.155   9.005 -0.3960  0.8283 -1.7244
  394MOL0     C53069   4.211   2.150   9.051  0.0268 -0.2774 -0.0962
  394MOL0     C53070   4.199   2.149   9.200  0.2643 -0.4490  0.4264
  394MOL0     C53071   4.215   2.288   9.253 -0.6533 -0.3406 -0.3719
  394MOL0     N53072   4.176   2.306   9.405 -0.6769 -0.0288 -0.0978
  394MOL0     C53073   4.046   2.317   9.453 -0.2366  0.7943 -0.2358
  394MOL0     C53074   4.053   2.346   9.588  0.3468  0.1015  0.2814
  394MOL0     C53075   3.932   2.367   9.676  0.3637  0.1394 -0.3761
  394MOL0     C53076   3.800   2.322   9.613  0.3885 -0.0982  0.1393
  394MOL0     C53077   3.688   2.282   9.719  0.6724  0.7523 -0.6685
  394MOL0     C53078   3.649   2.392   9.823  0.2008  0.5712 -0.5437
  394MOL0     O53079   3.579   2.486   9.740  0.9271  0.0712  0.1336
  394MOL0     C53080   3.440   2.471   9.732  1.0487  0.0522  0.7188
  394MOL0     C53081   3.360   2.548   9.643  1.3428 -0.9659 -0.5750
  394MOL0     C53082   3.229   2.516   9.614  0.5184 -0.2870 -0.6909
  394MOL0     C53083   3.164   2.399   9.663 -0.8166  0.0480  0.7005
  394MOL0     C53084   3.017   2.383   9.632  0.4106 -0.2684  0.0216
  394MOL0     O53085   2.953   2.492   9.584  0.3580 -0.2209 -0.8699
  394MOL0     C53086   2.826   2.499   9.556  0.2496  0.3505 -0.1147
  394MOL0     C53087   2.750   2.394   9.511 -0.2653 -1.0453  0.7288
  394MOL0     C53088   2.613   2.418   9.490 -0.1433  0.1545  0.3292
  394MOL0     C53089   2.554   2.545   9.509  1.2324  0.9748  0.8558
  394MOL0     O53090   2.425   2.563   9.453  0.1202 -0.0752  0.3913
  394MOL0     C53091   2.346   2.666   9.518 -0.2503 -0.3259 -0.8249
  394MOL0     C53092   2.203   2.644   9.504 -0.1350 -0.0432  0.9281
  394MOL0     C53093   2.169   2.635   9.356 -0.0064 -0.2712 -0.7793
  394MOL0     C53094   2.016   2.598   9.348  0.2424  0.3348 -0.6694
  394MOL0     C53095   1.960   2.629   9.212 -0.2612 -0.4069 -0.7286
  394MOL0     C53096   1.807   2.624   9.192  0.1411  0.1719 -0.0636
  394MOL0     C53097   1.747   2.527   9.291 -0.6766  0.8719 -0.9530
  394MOL0     C53098   1.595   2.513   9.280 -1.2651  1.0475 -0.2392
  394MOL0    Cl53099   1.517   2.475   9.432  0.0092 -0.0868 -0.4799
  394MOL0     C53100   2.639   2.658   9.546  0.7792  0.3610 -0.8048
  394MOL0     C53101   2.770   2.629   9.586 -0.1829 -0.4113  0.6910
  394MOL0     O53102   2.968   2.277   9.674  0.7739 -0.7698  0.7529
  394MOL0     C53103   3.240   2.322   9.754 -0.7721  0.4087  0.0245
  394MOL0     C53104   3.373   2.353   9.791  0.4656 -0.3167  0.3855
  394MOL0     N53105   4.191   2.335   9.609 -0.0695  0.4443 -0.1962
  394MOL0     N53106   4.261   2.320   9.504  0.1167  0.5611 -0.0054
  394MOL0     C53107   4.260   1.801   8.710  0.2662  0.4757 -0.4666
  394MOL0     C53108   4.185   1.744   8.599 -0.4569 -0.1656 -0.7723
  394MOL0     C53109   4.099   1.544   8.201  0.0369 -0.2278  0.0316
  394MOL0     C53110   3.995   1.455   8.249 -0.3011  0.3029 -1.1618
  394MOL0     C53111   3.900   1.398   8.158  0.1987  1.2361 -0.5541
  394MOL0     C53112   3.894   1.428   8.025 -0.7954  0.0850 -0.2648
  394MOL0     O53113   3.789   1.368   7.959  0.1676 -0.4132 -0.2852
  394MOL0     C53114   3.774   1.401   7.822  0.2485 -0.0960 -0.3728
  394MOL0     C53115   3.629   1.371   7.776  0.2601 -0.1329  0.1471
  394MOL0     C53116   3.636   1.311   7.636  0.3823 -0.1153 -0.5975
  394MOL0     C53117   3.492   1.275   7.592 -0.0787  0.1076 -0.8874
  394MOL0     C53118   3.490   1.218   7.458  0.8450  0.3983  0.5140
  394MOL0     C53119   3.478   1.178   7.343 -0.9751 -0.1358 -0.4620
  394MOL0     C53120   3.984   1.517   7.980  0.4430  0.6523  0.3771
  394MOL0     C53121   4.085   1.580   8.053  0.1128 -1.1524 -0.7397
  394MOL0     C53122   4.189   1.663   7.973 -0.2422 -0.6387 -0.9812
  394MOL0     H53123   4.431   1.534   8.482 -0.0668  0.0598 -2.1013
  394MOL0     H53124   4.555   1.654   8.635  0.1152 -0.4882 -1.3054
  394MOL0     H53125   4.657   1.826   8.778 -0.3895 -0.6269  1.9869
  394MOL0     H53126   4.575   1.941   8.663  1.6272  2.6217  0.7918
  394MOL0     H53127   4.733   2.028   8.840  0.4060 -0.7025 -1.6693
  394MOL0     H53128   4.609   1.987   8.962  1.6096  2.3085  1.0460
  394MOL0     H53129   4.585   2.189   8.752 -1.4617 -1.3622 -1.9899
  394MOL0     H53130   4.610   2.226   8.926 -0.6722  1.4680 -0.0943
  394MOL0     H53131   4.362   2.261   8.827  2.3551 -0.4590 -1.9692
  394MOL0     H53132   4.347   2.089   8.808  0.6962  0.9993 -4.2186
  394MOL0     H53133   4.405   2.064   9.047  4.3177  2.7742 -1.9845
  394MOL0     H53134   4.401   2.240   9.061 -4.1465  1.5241  0.3640
  394MOL0     H53135   4.156   2.237   9.012 -2.0945 -1.9234 -0.9639
  394MOL0     H53136   4.166   2.058   9.012  1.5875 -2.2987  2.5896
  394MOL0     H53137   4.275   2.093   9.255  0.1639 -1.8344 -0.8049
  394MOL0     H53138   4.101   2.112   9.233 -0.1761  0.7745  0.5394
  394MOL0     H53139   4.323   2.302   9.245 -0.8732  0.5367 -2.2032
  394MOL0     H53140   4.171   2.361   9.185  1.7935  0.4610 -1.1792
  394MOL0     H53141   3.958   2.320   9.390  0.1544  0.1002 -0.8362
  394MOL0     H53142   3.939   2.316   9.772 -1.3767 -0.1594 -0.3640
  394MOL0     H53143   3.925   2.472   9.707  0.8828  0.4628 -1.3056
  394MOL0     H53144   3.781   2.408   9.548  1.5863 -1.9532 -2.8690
  394MOL0     H53145   3.805   2.232   9.551 -1.6520  1.4033 -2.3944
  394MOL0     H53146   3.729   2.194   9.770 -1.8579 -2.6870 -3.9483
  394MOL0     H53147   3.599   2.237   9.674  0.7979 -1.1447  0.8402
  394MOL0     H53148   3.745   2.431   9.857  0.1248  0.5168 -0.2659
  394MOL0     H53149   3.596   2.356   9.912  0.5430 -1.6056 -1.1541
  394MOL0     H53150   3.413   2.633   9.600 -2.1971  1.6827 -0.1870
  394MOL0     H53151   3.180   2.579   9.541  1.8063  3.0887  1.1070
  394MOL0     H53152   2.790   2.295   9.497 -1.1823 -1.4041  0.5273
  394MOL0     H53153   2.554   2.328   9.474  0.5232 -0.0206 -1.2353
  394MOL0     H53154   2.365   2.654   9.625  1.4219  1.2347 -0.8964
  394MOL0     H53155   2.372   2.770   9.494 -1.1266  0.1512  0.1871
  394MOL0     H53156   2.159   2.562   9.561 -0.5211 -0.6224 -0.1935
  394MOL0     H53157   2.141   2.724   9.546 -0.8055  0.3854 -0.8278
  394MOL0     H53158   2.195   2.735   9.319 -0.4736  1.6177  3.4626
  394MOL0     H53159   2.231   2.561   9.305 -0.2637 -1.9061  1.1812
  394MOL0     H53160   1.958   2.657   9.420 -0.7824  0.3159 -1.4513
  394MOL0     H53161   1.997   2.495   9.379  0.4596 -0.0898 -1.8899
  394MOL0     H53162   2.009   2.555   9.147  1.4388 -1.1174  1.2408
  394MOL0     H53163   1.994   2.727   9.178  2.6438 -0.1120  2.4352
  394MOL0     H53164   1.767   2.725   9.208 -0.4156  0.0474 -0.6400
  394MOL0     H53165   1.783   2.599   9.089  0.1128  0.1689 -0.0561
  394MOL0     H53166   1.775   2.557   9.392  2.0667 -1.0916 -1.0214
  394MOL0     H53167   1.794   2.428   9.293 -0.8003  0.7625  2.1662
  394MOL0     H53168   1.550   2.608   9.251  1.4691  3.4153  2.5680
  394MOL0     H53169   1.562   2.433   9.212  0.9999  1.4113 -1.8930
  394MOL0     H53170   2.600   2.759   9.554 -0.9754 -0.2856 -0.7785
  394MOL0     H53171   2.842   2.706   9.611 -0.3887  0.4441 -1.1970
  394MOL0     H53172   3.196   2.240   9.809  0.1619 -0.5477 -0.6109
  394MOL0     H53173   3.421   2.287   9.862 -2.8921 -0.7993  2.4185
  394MOL0     H53174   4.206   1.873   8.770  1.7045  1.6792 -0.5491
  394MOL0     H53175   4.079   1.766   8.592 -0.4117  0.5861  0.5619
  394MOL0     H53176   3.984   1.423   8.353  2.8962 -1.7230 -1.3189
  394MOL0     H53177   3.820   1.339   8.202  0.2391  1.1049 -0.6573
  394MOL0     H53178   3.844   1.345   7.759 -1.8310 -2.5381 -0.6810
  394MOL0     H53179   3.798   1.503   7.791 -0.4333  0.2404  0.1642
  394MOL0     H53180   3.569   1.463   7.782 -0.5109 -0.7314  2.8478
  394MOL0     H53181   3.585   1.296   7.842 -2.4372  1.1625 -0.0264
  394MOL0     H53182   3.703   1.225   7.631  0.9629  0.2498  0.5099
  394MOL0     H53183   3.676   1.392   7.574 -0.1398 -0.4636 -1.4098
  394MOL0     H53184   3.455   1.205   7.668  2.5292 -0.3636  0.0627
  394MOL0     H53185   3.419   1.356   7.591 -1.2837 -0.9451 -1.9748
  394MOL0     H53186   3.458   1.144   7.243 -0.7626 -2.3316  0.2053
  394MOL0     H53187   3.975   1.539   7.874 -0.6007 -1.9813 -0.1681
  394MOL0     H53188   4.283   1.658   8.029 -1.7827  0.9489  1.9878
  394MOL0     H53189   4.208   1.623   7.873 -0.2924  2.9690 -2.5682
  394MOL0     H53190   4.167   1.766   7.945 -0.0130 -0.1898  0.3924
  395MOL0     O53191   7.652  10.232  10.119  1.2502  0.4985 -0.0697
  395MOL0     C53192   7.638  10.239  10.239  0.2509  0.6838 -0.6823
  395MOL0     O53193   7.654  10.135  10.327 -0.0871 -0.6200  0.4368
  395MOL0     C53194   7.623   9.998  10.289 -0.3658 -1.0629 -1.1111
  395MOL0     C53195   7.664   9.888  10.363 -0.3692  0.5311  0.5527
  395MOL0     C53196   7.641   9.759  10.322 -0.0710  0.4012  0.6752
  395MOL0     C53197   7.582   9.729  10.196 -0.9427  0.5045 -0.8843
  395MOL0     O53198   7.571   9.601  10.148  0.2956 -0.2493  0.6292
  395MOL0     C53199   7.531   9.568  10.006  0.1184  0.8411  0.0523
  395MOL0     C53200   7.524   9.416   9.998  0.3412 -0.2775 -0.5313
  395MOL0     C53201   7.654   9.343  10.001 -0.5306 -0.2433  0.2292
  395MOL0     C53202   7.636   9.197   9.984 -0.3754 -0.6626  0.7962
  395MOL0     C53203   7.756   9.107   9.962  0.9286  0.4297 -0.3255
  395MOL0     C53204   7.895   9.153  10.013  1.3412  0.1416  1.1074
  395MOL0     C53205   8.000   9.051   9.996  0.7825 -0.1484 -0.0438
  395MOL0     C53206   7.984   8.920  10.081  0.1192  0.2191 -0.8489
  395MOL0     N53207   7.955   8.930  10.222 -0.0299  0.1853  0.0315
  395MOL0     C53208   7.842   8.894  10.294  0.6030 -0.0867 -0.4417
  395MOL0     C53209   7.855   8.939  10.421 -0.5021  0.8506  0.5815
  395MOL0     C53210   7.749   8.923  10.526  0.0562  0.5623 -0.2784
  395MOL0     C53211   7.718   9.058  10.581  0.3847 -0.5236 -0.5051
  395MOL0     C53212   7.569   9.057  10.631  0.6561 -0.0546 -0.1056
  395MOL0     C53213   7.502   9.200  10.635 -0.3626  0.4228  1.9624
  395MOL0     O53214   7.499   9.270  10.515 -0.1691 -0.3637  0.4297
  395MOL0     C53215   7.455   9.399  10.514  0.2513 -0.2214 -0.0027
  395MOL0     C53216   7.446   9.479  10.623  0.0185 -0.6692 -0.2774
  395MOL0     C53217   7.400   9.613  10.619  0.7679  0.8977  0.5967
  395MOL0     C53218   7.355   9.664  10.500  0.1472 -0.0646  0.2225
  395MOL0     C53219   7.280   9.791  10.484 -0.9971 -0.5835  0.2827
  395MOL0     O53220   7.273   9.841  10.353 -0.1813 -0.1996  0.5047
  395MOL0     C53221   7.232   9.970  10.337 -0.0688  0.3954 -0.0414
  395MOL0     C53222   7.312  10.071  10.395 -0.0134 -0.9454 -0.5303
  395MOL0     C53223   7.289  10.203  10.375  0.2774 -1.1713 -0.1535
  395MOL0     C53224   7.174  10.247  10.310 -0.0227 -0.3516 -0.8571
  395MOL0     O53225   7.147  10.382  10.294 -0.4635  0.7472  0.1927
  395MOL0     C53226   7.176  10.479  10.395 -0.4880  1.0316 -0.0255
  395MOL0     C53227   7.048  10.554  10.420 -0.4034 -0.5903 -0.2371
  395MOL0     C53228   6.937  10.469  10.476  0.2151  1.0588  0.2774
  395MOL0     C53229   6.967  10.430  10.621 -0.8406  0.2774  0.4723
  395MOL0     C53230   6.852  10.376  10.693  0.5137 -0.5154 -0.3589
  395MOL0     C53231   6.795  10.494  10.780  0.1123  0.1458 -0.3689
  395MOL0     C53232   6.656  10.440  10.825 -0.7503  0.2536  0.1836
  395MOL0     C53233   6.580  10.544  10.911  0.0286  0.1146 -1.0218
  395MOL0    Cl53234   6.666  10.609  11.052 -0.0552 -0.3314  0.7144
  395MOL0     C53235   7.081  10.152  10.264 -0.9318  0.7198  0.2530
  395MOL0     C53236   7.112  10.014  10.280 -0.4055  0.1523  0.8964
  395MOL0     O53237   7.236   9.840  10.587  0.6383 -0.5516  0.3948
  395MOL0     C53238   7.349   9.577  10.387  0.8402  0.0676  0.6459
  395MOL0     C53239   7.414   9.455  10.391  0.6002  0.1478 -0.3201
  395MOL0     N53240   7.969   9.008  10.423 -0.2516  0.2223 -0.8292
  395MOL0     N53241   8.028   9.004  10.305 -0.8277 -0.3792  0.7454
  395MOL0     C53242   7.547   9.849  10.117  0.6662 -0.9846 -0.2257
  395MOL0     C53243   7.563   9.976  10.172  0.0609 -0.0871  0.6927
  395MOL0     C53244   7.597  10.365  10.297 -0.3111 -0.3685  1.1711
  395MOL0     C53245   7.638  10.397  10.424  0.9052  0.6762  0.3226
  395MOL0     C53246   7.604  10.523  10.477  0.7592 -1.7542 -0.1061
  395MOL0     C53247   7.542  10.624  10.406 -0.7124  0.0049  1.3356
  395MOL0     O53248   7.518  10.754  10.430 -0.4200  0.3188 -0.0070
  395MOL0     C53249   7.598  10.841  10.511  0.6075 -0.7100 -0.4042
  395MOL0     C53250   7.529  10.878  10.638  0.4901  1.0860  0.2821
  395MOL0     C53251   7.522  10.758  10.740 -0.8228  0.0913 -0.2957
  395MOL0     C53252   7.465  10.823  10.869  0.2581  0.5316  0.1910
  395MOL0     C53253   7.444  10.718  10.965 -0.2035 -0.6130  0.4442
  395MOL0     C53254   7.437  10.622  11.051  0.6875 -0.0196  0.1721
  395MOL0     C53255   7.490  10.587  10.285 -1.1998  0.4416  0.4540
  395MOL0     C53256   7.520  10.465  10.226  0.2782 -0.1348  0.2881
  395MOL0     C53257   7.449  10.432  10.100  0.1549 -0.2557 -0.4231
  395MOL0     H53258   7.712   9.908  10.459 -0.0754  0.3401  0.4470
  395MOL0     H53259   7.677   9.671  10.374 -1.9564 -2.6976 -2.7945
  395MOL0     H53260   7.430   9.600   9.980 -0.3891 -0.8375 -0.1709
  395MOL0     H53261   7.595   9.605   9.926 -1.4513  2.2361 -0.6131
  395MOL0     H53262   7.477   9.407   9.900 -2.9773  1.2775  0.7954
  395MOL0     H53263   7.455   9.384  10.076 -2.0618 -0.0905 -2.4857
  395MOL0     H53264   7.701   9.369  10.096  0.9795  0.1607 -0.6025
  395MOL0     H53265   7.722   9.379   9.923 -0.9948 -2.1759 -1.1414
  395MOL0     H53266   7.564   9.145  10.048 -1.3736 -1.9398 -1.2683
  395MOL0     H53267   7.590   9.188   9.885  1.1581  1.1220 -0.1471
  395MOL0     H53268   7.736   9.005   9.996  1.9072  0.6037  0.8666
  395MOL0     H53269   7.774   9.097   9.854  0.1276  1.2960 -0.5584
  395MOL0     H53270   7.919   9.241   9.951  0.7541 -0.1273  0.4877
  395MOL0     H53271   7.884   9.192  10.114  3.0716  0.1719  1.3066
  395MOL0     H53272   8.099   9.097  10.008  0.3384  0.5604  0.9915
  395MOL0     H53273   8.004   9.021   9.891 -0.6143  1.9095 -0.7304
  395MOL0     H53274   7.904   8.874  10.022 -0.6941  2.3834 -1.5230
  395MOL0     H53275   8.068   8.850  10.080  0.1989 -0.2072  4.4330
  395MOL0     H53276   7.750   8.851  10.254 -1.2787  3.8933 -0.8769
  395MOL0     H53277   7.665   8.873  10.477  0.2634  1.8926 -2.1030
  395MOL0     H53278   7.787   8.858  10.606  0.9644  0.3648 -0.8548
  395MOL0     H53279   7.780   9.101  10.661 -2.1895  2.1717  0.2452
  395MOL0     H53280   7.720   9.127  10.496 -1.0459  1.4940  0.9811
  395MOL0     H53281   7.562   9.010  10.730  0.6306  1.0249  0.4163
  395MOL0     H53282   7.507   8.995  10.566 -0.9986  0.3776  0.9982
  395MOL0     H53283   7.561   9.259  10.706 -0.0524  1.8813  0.5537
  395MOL0     H53284   7.402   9.194  10.678 -1.0929  2.2085  0.6729
  395MOL0     H53285   7.464   9.442  10.723 -2.4297 -1.3968 -0.0429
  395MOL0     H53286   7.386   9.669  10.710  1.4326  0.2684  1.0976
  395MOL0     H53287   7.398  10.041  10.453  0.3798 -1.5831 -1.4319
  395MOL0     H53288   7.352  10.268  10.435  0.3445 -2.9902  1.8934
  395MOL0     H53289   7.201  10.422  10.485 -0.2162 -0.5254 -1.0524
  395MOL0     H53290   7.255  10.544  10.354 -0.2586  1.1467  0.5873
  395MOL0     H53291   7.060  10.644  10.481 -1.5868 -1.0544  0.7108
  395MOL0     H53292   7.016  10.589  10.321 -2.6300 -0.7569  0.3780
  395MOL0     H53293   6.839  10.516  10.474 -0.2493  0.1052 -0.9625
  395MOL0     H53294   6.921  10.375  10.423 -2.2919 -2.0037  5.6418
  395MOL0     H53295   7.008  10.522  10.665  1.2703  0.1207 -1.0413
  395MOL0     H53296   7.050  10.359  10.622 -0.7056  0.4359  1.4570
  395MOL0     H53297   6.881  10.296  10.761  1.9537  1.0092  0.9298
  395MOL0     H53298   6.777  10.337  10.623 -1.3594  0.7322  0.8615
  395MOL0     H53299   6.854  10.522  10.868 -0.5043  2.7639 -0.7169
  395MOL0     H53300   6.774  10.581  10.717 -1.4887 -1.3806 -2.0521
  395MOL0     H53301   6.668  10.346  10.879 -0.3449  0.1774 -0.0339
  395MOL0     H53302   6.606  10.426  10.729 -1.0784 -2.1773  0.6318
  395MOL0     H53303   6.551  10.630  10.851  1.5260  0.3487 -1.4380
  395MOL0     H53304   6.491  10.501  10.959 -0.0413  0.5734 -0.7398
  395MOL0     H53305   6.984  10.190  10.235 -1.5492  0.2532  1.6436
  395MOL0     H53306   7.034   9.942  10.258  0.3460 -0.5929  0.6224
  395MOL0     H53307   7.294   9.593  10.295  2.9804 -0.3291 -0.7663
  395MOL0     H53308   7.413   9.390  10.304  1.9171  0.5090 -0.6187
  395MOL0     H53309   7.493   9.826  10.025 -1.6445  0.2426  0.7257
  395MOL0     H53310   7.509  10.040  10.104 -0.9950 -1.5041  0.1473
  395MOL0     H53311   7.687  10.328  10.493  0.2602 -0.0334  0.0836
  395MOL0     H53312   7.632  10.539  10.581  1.5162 -1.1783 -0.3914
  395MOL0     H53313   7.610  10.935  10.457  0.5850  1.5270  3.1600
  395MOL0     H53314   7.697  10.794  10.518  0.1457 -2.1510 -2.6150
  395MOL0     H53315   7.423  10.904  10.629 -0.1917 -1.4570  0.1370
  395MOL0     H53316   7.589  10.963  10.671  1.6554  1.3926 -2.3873
  395MOL0     H53317   7.620  10.710  10.751 -1.6487 -1.5062  0.5775
  395MOL0     H53318   7.454  10.676  10.713  0.7813 -1.3563 -0.1408
  395MOL0     H53319   7.529  10.908  10.897  0.2897 -0.4334  3.3257
  395MOL0     H53320   7.366  10.861  10.842  0.1132  1.0443  1.3850
  395MOL0     H53321   7.411  10.546  11.122 -2.0516  3.1183  2.8890
  395MOL0     H53322   7.435  10.659  10.226 -0.9731  0.3539  0.1325
  395MOL0     H53323   7.359  10.489  10.076 -0.1764 -1.6810 -2.8918
  395MOL0     H53324   7.507  10.423  10.007 -3.1370 -1.9446 -2.4751
  395MOL0     H53325   7.401  10.335  10.117  0.2609 -0.1065  0.8354
  396MOL0     O53326   0.778   3.539   8.631 -0.3466  0.4604 -0.7645
  396MOL0     C53327   0.752   3.455   8.718  0.4132 -0.2801  0.4599
  396MOL0     O53328   0.748   3.323   8.693  1.2943 -0.3043  0.3461
  396MOL0     C53329   0.747   3.269   8.571  0.4929  0.9482 -0.4983
  396MOL0     C53330   0.666   3.155   8.554  0.1564  0.4003  1.3969
  396MOL0     C53331   0.665   3.075   8.430  0.3614  0.0270  0.0003
  396MOL0     C53332   0.738   3.120   8.317  0.9730  0.8315  0.7977
  396MOL0     O53333   0.739   3.065   8.197 -0.1777  0.0232  0.3104
  396MOL0     C53334   0.665   2.944   8.179 -0.4789 -0.0192 -1.6571
  396MOL0     C53335   0.660   2.906   8.034  0.0439  0.0661  0.2460
  396MOL0     C53336   0.581   2.772   8.022  0.0818  0.8829 -0.3852
  396MOL0     C53337   0.560   2.719   7.871 -0.6679  0.0891 -0.9733
  396MOL0     C53338   0.677   2.699   7.771 -0.7297  0.2737 -0.0951
  396MOL0     C53339   0.640   2.712   7.623 -0.5330  0.0761 -0.1880
  396MOL0     C53340   0.767   2.709   7.538 -0.0009 -1.1745 -0.3640
  396MOL0     C53341   0.852   2.577   7.516 -0.4195  0.0389 -0.2102
  396MOL0     N53342   0.969   2.601   7.420  1.0494  1.0821  0.0584
  396MOL0     C53343   1.063   2.700   7.423  1.0741 -0.7725  0.3782
  396MOL0     C53344   1.150   2.666   7.329 -0.1385  0.3319  0.8414
  396MOL0     C53345   1.285   2.721   7.302  0.1811  0.2341  0.3854
  396MOL0     C53346   1.386   2.710   7.419  1.1650 -0.6516 -0.5824
  396MOL0     C53347   1.421   2.571   7.464 -0.0463  0.4610 -0.5776
  396MOL0     C53348   1.554   2.556   7.539  0.4259  0.7622 -0.0205
  396MOL0     O53349   1.549   2.583   7.678 -0.0664 -0.2582  0.7182
  396MOL0     C53350   1.664   2.591   7.752  0.4628  0.0581 -0.6251
  396MOL0     C53351   1.789   2.551   7.694  0.2126  0.5424 -1.2047
  396MOL0     C53352   1.906   2.555   7.779  0.8050  0.0002  0.6561
  396MOL0     C53353   1.900   2.604   7.909 -0.4464 -0.6316  0.5714
  396MOL0     C53354   2.018   2.611   7.989 -0.3019 -0.1440 -0.4434
  396MOL0     O53355   2.022   2.709   8.093  1.0534  0.4577 -0.0635
  396MOL0     C53356   2.128   2.722   8.177  0.8098  0.6583 -0.1615
  396MOL0     C53357   2.160   2.859   8.218 -0.0974  0.5021 -0.1376
  396MOL0     C53358   2.255   2.885   8.317 -0.8034  0.2322 -0.9703
  396MOL0     C53359   2.334   2.786   8.379 -0.1070  0.4570  0.3726
  396MOL0     O53360   2.430   2.799   8.474  0.0557  0.4026 -0.3338
  396MOL0     C53361   2.411   2.902   8.570  0.0749 -0.9530 -0.3298
  396MOL0     C53362   2.301   2.865   8.663 -0.1314  0.1234  0.9978
  396MOL0     C53363   2.303   2.727   8.722 -0.5323 -0.2071  1.1023
  396MOL0     C53364   2.187   2.683   8.811  0.4670 -0.5905  0.1113
  396MOL0     C53365   2.057   2.682   8.728  0.1981 -0.1307  0.2436
  396MOL0     C53366   1.933   2.637   8.803 -0.2226  0.2697 -0.1824
  396MOL0     C53367   1.941   2.492   8.845  0.0162  0.5805  0.6939
  396MOL0     C53368   1.806   2.434   8.840  0.6575  0.0162 -0.1532
  396MOL0    Cl53369   1.715   2.435   8.687  0.1735 -0.1161  0.1335
  396MOL0     C53370   2.294   2.650   8.343 -0.2532  0.4673  0.4255
  396MOL0     C53371   2.202   2.621   8.236  0.0551  0.2432 -0.1526
  396MOL0     O53372   2.108   2.529   7.969  0.1470 -0.5382 -0.1303
  396MOL0     C53373   1.777   2.638   7.963  0.5726 -0.3424  0.0423
  396MOL0     C53374   1.658   2.635   7.890 -0.2634  0.0915  1.5338
  396MOL0     N53375   1.094   2.568   7.251  0.0767  0.5913 -0.0537
  396MOL0     N53376   0.986   2.523   7.312 -0.8956  0.0839 -0.2625
  396MOL0     C53377   0.798   3.243   8.318  0.1062 -0.9031 -1.2863
  396MOL0     C53378   0.817   3.308   8.453 -2.0973  1.3612  0.5830
  396MOL0     C53379   0.717   3.495   8.856 -0.5995 -0.0087  0.6551
  396MOL0     C53380   0.805   3.592   8.920  0.1074  0.3794 -0.0924
  396MOL0     C53381   0.780   3.620   9.053 -0.3860  0.2146 -0.4703
  396MOL0     C53382   0.664   3.579   9.113 -0.7104  0.0632  0.4445
  396MOL0     O53383   0.648   3.631   9.238 -0.5817  0.7314  0.5262
  396MOL0     C53384   0.697   3.555   9.349  0.0841  0.6024  0.2421
  396MOL0     C53385   0.648   3.602   9.479 -0.1963 -0.3397  0.4148
  396MOL0     C53386   0.494   3.586   9.479  0.3100 -0.2878  0.3137
  396MOL0     C53387   0.431   3.655   9.603  0.8277  0.5715  0.9343
  396MOL0     C53388   0.448   3.802   9.600 -0.0761  0.2607 -1.5203
  396MOL0     C53389   0.460   3.922   9.600  0.2950 -0.6011 -0.3898
  396MOL0     C53390   0.562   3.502   9.042  0.1529  0.0803  0.5178
  396MOL0     C53391   0.594   3.451   8.914 -0.6843  0.2273 -0.2543
  396MOL0     C53392   0.491   3.356   8.851  0.3251  0.1958  0.0998
  396MOL0     H53393   0.623   3.120   8.647 -1.3166 -0.1609  0.5285
  396MOL0     H53394   0.610   2.981   8.430  2.4368 -1.2992  1.9162
  396MOL0     H53395   0.707   2.861   8.237 -1.3174 -1.0345 -2.4445
  396MOL0     H53396   0.563   2.951   8.218  0.8512 -0.7833  2.3525
  396MOL0     H53397   0.764   2.901   8.001  0.1576  0.6135  0.4986
  396MOL0     H53398   0.604   2.982   7.980 -0.3921 -1.3178 -1.3296
  396MOL0     H53399   0.484   2.780   8.072  0.5078  1.9281  0.2970
  396MOL0     H53400   0.637   2.699   8.082 -0.0673  2.6506  2.0600
  396MOL0     H53401   0.509   2.622   7.879 -2.1274  0.9655  1.3786
  396MOL0     H53402   0.485   2.780   7.820 -1.1791 -0.5148 -0.9504
  396MOL0     H53403   0.759   2.769   7.790  0.2367 -1.0458  0.6995
  396MOL0     H53404   0.730   2.610   7.805  1.8712  2.9696  3.7498
  396MOL0     H53405   0.577   2.625   7.598  1.8610 -3.6481  4.8929
  396MOL0     H53406   0.586   2.805   7.603  1.0616  0.8576 -1.0417
  396MOL0     H53407   0.836   2.783   7.579  0.2879  0.6829 -3.8440
  396MOL0     H53408   0.746   2.758   7.442  1.8026 -0.2727 -0.3485
  396MOL0     H53409   0.895   2.550   7.613  2.1190  1.2355 -0.9125
  396MOL0     H53410   0.790   2.495   7.481 -1.7878  2.0478 -2.8779
  396MOL0     H53411   1.071   2.789   7.484  2.6383  0.9303 -2.1066
  396MOL0     H53412   1.325   2.677   7.211  3.5290 -0.0471  1.8460
  396MOL0     H53413   1.267   2.826   7.275 -2.5437 -0.5273 -1.2011
  396MOL0     H53414   1.479   2.758   7.385  0.5229 -0.2696 -1.8665
  396MOL0     H53415   1.350   2.771   7.502  3.7114  4.7179 -2.9146
  396MOL0     H53416   1.421   2.512   7.372  0.8363 -1.3540  0.5254
  396MOL0     H53417   1.336   2.543   7.526  0.9053  2.3475  1.7557
  396MOL0     H53418   1.623   2.618   7.481 -0.3216 -0.7645 -2.7130
  396MOL0     H53419   1.580   2.450   7.546  1.3940  0.9536 -0.4844
  396MOL0     H53420   1.804   2.518   7.592  1.4859 -0.4139 -0.7397
  396MOL0     H53421   2.006   2.546   7.739 -0.1973  2.7243 -2.9759
  396MOL0     H53422   2.087   2.932   8.183 -0.9818 -1.4960 -2.7513
  396MOL0     H53423   2.276   2.984   8.354  0.4879 -0.9424  1.6637
  396MOL0     H53424   2.492   2.910   8.643 -1.9997  0.0737  2.0152
  396MOL0     H53425   2.401   3.005   8.536 -0.1885 -0.7731  0.2849
  396MOL0     H53426   2.319   2.931   8.748 -0.1809  1.5479 -0.0618
  396MOL0     H53427   2.205   2.886   8.616  0.3859 -0.1943 -0.2315
  396MOL0     H53428   2.310   2.654   8.641 -1.0782 -1.7393  2.3853
  396MOL0     H53429   2.400   2.709   8.768 -0.2913 -1.8266  0.0413
  396MOL0     H53430   2.167   2.753   8.893  0.9446 -1.0374  0.6217
  396MOL0     H53431   2.197   2.584   8.857  0.1826 -0.6358  0.0764
  396MOL0     H53432   2.074   2.621   8.638 -0.8523 -2.0402  1.2861
  396MOL0     H53433   2.043   2.787   8.701 -0.8699 -1.0497 -3.4125
  396MOL0     H53434   1.924   2.702   8.891 -0.8557  0.4614 -0.3880
  396MOL0     H53435   1.849   2.668   8.741 -1.0240  3.1254  2.0682
  396MOL0     H53436   1.983   2.479   8.945  1.3591  0.1771  0.0955
  396MOL0     H53437   2.006   2.428   8.785 -0.7803 -0.5134  0.9485
  396MOL0     H53438   1.819   2.331   8.874  2.7697 -0.3140 -1.7200
  396MOL0     H53439   1.752   2.482   8.922  2.2931 -3.9268  3.5921
  396MOL0     H53440   2.335   2.569   8.402 -1.8622  0.0889  1.0802
  396MOL0     H53441   2.183   2.515   8.223  0.5837  0.0917  0.2856
  396MOL0     H53442   1.770   2.662   8.068 -1.0388 -0.7932  0.0752
  396MOL0     H53443   1.560   2.658   7.931 -0.8415  2.0609 -0.7233
  396MOL0     H53444   0.843   3.278   8.225  0.9600 -3.1565 -1.7875
  396MOL0     H53445   0.885   3.393   8.457 -1.9314  1.1975  1.8088
  396MOL0     H53446   0.898   3.626   8.875 -2.2027  0.3218 -5.6992
  396MOL0     H53447   0.853   3.684   9.103 -0.1878 -0.7616  0.5332
  396MOL0     H53448   0.804   3.574   9.366 -0.6920  3.0918  3.2642
  396MOL0     H53449   0.678   3.449   9.333 -1.8042  1.2511 -2.5607
  396MOL0     H53450   0.680   3.707   9.487 -2.4772  0.4468 -0.1026
  396MOL0     H53451   0.709   3.552   9.556  1.1163  0.1685 -0.2509
  396MOL0     H53452   0.472   3.479   9.474  0.7358 -0.6286  3.5195
  396MOL0     H53453   0.460   3.642   9.392 -1.0991 -2.6381 -0.7571
  396MOL0     H53454   0.324   3.633   9.609  0.7346  0.8389  0.3098
  396MOL0     H53455   0.459   3.611   9.699 -1.8931 -0.6418  1.2707
  396MOL0     H53456   0.456   4.029   9.605  0.5731 -0.6428  1.2276
  396MOL0     H53457   0.468   3.492   9.096  0.8525  1.3110  2.0428
  396MOL0     H53458   0.520   3.251   8.863 -1.2228 -0.8844 -3.8676
  396MOL0     H53459   0.391   3.376   8.889  1.2883  0.7030  2.5189
  396MOL0     H53460   0.500   3.361   8.742 -0.1917  0.3180  0.0605
  397MOL0     O53461   7.985   9.731   6.941  0.4748  0.2637 -0.7529
  397MOL0     C53462   7.904   9.814   6.989  0.3091 -0.2060  0.5267
  397MOL0     O53463   7.779   9.780   7.030  0.4121 -0.3517 -0.0278
  397MOL0     C53464   7.733   9.656   7.004 -0.1572  0.0250 -0.8027
  397MOL0     C53465   7.761   9.560   7.106  0.0521  0.5994  0.2798
  397MOL0     C53466   7.750   9.424   7.081  0.2793 -0.1466 -0.9717
  397MOL0     C53467   7.720   9.381   6.950 -0.4157 -0.2392 -0.4740
  397MOL0     O53468   7.729   9.244   6.924 -0.8228 -0.5851 -0.1945
  397MOL0     C53469   7.726   9.144   7.022  0.8147  0.0621  0.0015
  397MOL0     C53470   7.724   9.010   6.935 -0.1672  0.0748 -0.2629
  397MOL0     C53471   7.620   9.001   6.822  0.0302 -0.1870 -1.2912
  397MOL0     C53472   7.658   8.933   6.694 -1.1459 -0.5310 -0.6569
  397MOL0     C53473   7.707   8.790   6.723 -0.7273 -0.1398 -0.1221
  397MOL0     C53474   7.597   8.694   6.758  0.0350 -1.0565 -0.3502
  397MOL0     C53475   7.658   8.558   6.778  0.9684  0.7557 -0.9350
  397MOL0     C53476   7.544   8.454   6.815 -0.3042  0.7986 -0.2121
  397MOL0     N53477   7.476   8.480   6.936  0.5095 -0.3693 -0.8186
  397MOL0     C53478   7.382   8.584   6.949  0.4029  0.3746  0.4921
  397MOL0     C53479   7.334   8.571   7.082 -0.1683  0.2659 -0.1329
  397MOL0     C53480   7.218   8.631   7.147  0.0201 -0.3992 -0.8876
  397MOL0     C53481   7.231   8.779   7.164  0.1072  0.0897 -0.0879
  397MOL0     C53482   7.360   8.819   7.245  0.4042 -0.2952  0.4028
  397MOL0     C53483   7.406   8.966   7.221 -1.0248  0.3226  0.6133
  397MOL0     O53484   7.542   8.963   7.268  0.3385 -0.2790  0.1674
  397MOL0     C53485   7.589   9.064   7.349 -0.3197  0.2535  0.4760
  397MOL0     C53486   7.550   9.194   7.340 -0.5489 -0.7113 -0.3621
  397MOL0     C53487   7.629   9.301   7.391  0.3075 -0.0321  0.4751
  397MOL0     C53488   7.739   9.267   7.465 -0.2818  0.5464 -0.7532
  397MOL0     C53489   7.825   9.374   7.535  0.5570 -0.1799 -0.2401
  397MOL0     O53490   7.855   9.348   7.669 -0.5316  0.3541 -0.1952
  397MOL0     C53491   7.920   9.441   7.751  0.8661  0.7516  1.2717
  397MOL0     C53492   7.919   9.578   7.735  0.4330 -0.4804  0.6604
  397MOL0     C53493   7.992   9.654   7.823 -0.1134  0.3084  0.7430
  397MOL0     C53494   8.052   9.600   7.937  0.6763 -0.1313 -0.1111
  397MOL0     O53495   8.117   9.684   8.022 -0.5731 -0.2383  0.2993
  397MOL0     C53496   8.128   9.657   8.165 -0.4074  0.2379 -1.0764
  397MOL0     C53497   8.173   9.779   8.237 -0.0037 -1.2118  0.1078
  397MOL0     C53498   8.141   9.762   8.393  0.4216  0.0591  0.6523
  397MOL0     C53499   8.169   9.899   8.464  0.0486 -0.3455  1.0078
  397MOL0     C53500   8.213   9.884   8.607 -0.3798  0.1483 -0.0291
  397MOL0     C53501   8.127   9.802   8.699 -0.7888 -0.2535 -0.0007
  397MOL0     C53502   7.987   9.856   8.724 -0.0452 -0.0885 -0.1776
  397MOL0     C53503   7.976   9.975   8.815 -0.0702 -0.5010 -0.1155
  397MOL0    Cl53504   7.802   9.997   8.847 -0.1233 -0.3863 -0.2228
  397MOL0     C53505   8.043   9.462   7.955 -0.1109 -0.0712  0.4366
  397MOL0     C53506   7.985   9.380   7.854  0.1330  0.5001  0.0667
  397MOL0     O53507   7.866   9.468   7.470 -0.1867 -0.0271 -0.0240
  397MOL0     C53508   7.763   9.131   7.500 -0.2679  0.2362 -0.6809
  397MOL0     C53509   7.686   9.030   7.441  0.1041  0.5327  0.1517
  397MOL0     N53510   7.400   8.470   7.140 -0.3288 -0.0619 -0.0764
  397MOL0     N53511   7.483   8.411   7.058  0.2714 -0.6674 -0.9458
  397MOL0     C53512   7.691   9.474   6.851 -0.8393 -0.9054  0.5324
  397MOL0     C53513   7.704   9.609   6.877 -0.1883 -0.7813  0.2875
  397MOL0     C53514   7.939   9.963   7.000 -0.5807 -0.0284  0.6654
  397MOL0     C53515   7.861  10.044   7.101  0.3668 -1.4044  0.4700
  397MOL0     C53516   7.877  10.182   7.111 -0.2129 -0.0485  0.4827
  397MOL0     C53517   7.965  10.253   7.030  0.7193  0.0593 -0.0008
  397MOL0     O53518   7.966  10.385   7.046 -0.2180 -0.6381 -0.1187
  397MOL0     C53519   8.009  10.468   6.947  0.3877 -0.2529 -0.0698
  397MOL0     C53520   7.911  10.467   6.834  0.7259 -0.1884 -0.5503
  397MOL0     C53521   7.759  10.485   6.882 -0.1908 -0.1341  0.8038
  397MOL0     C53522   7.654  10.468   6.769 -0.5216 -1.2796  0.5132
  397MOL0     C53523   7.676  10.580   6.679  0.0468 -0.1066  0.1088
  397MOL0     C53524   7.697  10.684   6.615 -0.2021  0.5492 -0.2497
  397MOL0     C53525   8.048  10.182   6.944 -0.3971  0.4114  0.0780
  397MOL0     C53526   8.036  10.041   6.925 -0.1315 -0.3068 -0.5644
  397MOL0     C53527   8.132   9.967   6.827 -0.7160  0.2772 -0.9619
  397MOL0     H53528   7.795   9.586   7.206 -0.8393  4.7980 -0.3151
  397MOL0     H53529   7.764   9.364   7.170  2.2387  0.0944 -1.0670
  397MOL0     H53530   7.812   9.144   7.089  1.3748 -3.7423 -0.4944
  397MOL0     H53531   7.634   9.157   7.080  1.5036  1.5953  0.8211
  397MOL0     H53532   7.709   8.925   7.001  0.0011 -0.3789 -0.7984
  397MOL0     H53533   7.828   9.008   6.901  0.1042  1.8709  0.3532
  397MOL0     H53534   7.591   9.103   6.796 -0.6060 -0.3934 -1.4147
  397MOL0     H53535   7.532   8.951   6.864  1.3948 -1.3307  0.3740
  397MOL0     H53536   7.578   8.930   6.619  0.6568  1.7083 -2.8487
  397MOL0     H53537   7.730   8.994   6.639 -3.3973  0.7906 -2.3286
  397MOL0     H53538   7.757   8.762   6.630 -1.9791 -0.2410 -0.7786
  397MOL0     H53539   7.764   8.791   6.816 -1.9765  1.0817  0.6782
  397MOL0     H53540   7.552   8.732   6.851  1.3856 -0.4286  0.0616
  397MOL0     H53541   7.513   8.689   6.687 -1.9627 -1.4404  1.8904
  397MOL0     H53542   7.730   8.563   6.860 -1.1771  1.4453  1.0254
  397MOL0     H53543   7.713   8.519   6.692  2.4007  0.6617 -0.0064
  397MOL0     H53544   7.468   8.454   6.736  1.1795 -0.7979 -1.7404
  397MOL0     H53545   7.583   8.352   6.811  1.1664  1.2398  1.5555
  397MOL0     H53546   7.337   8.647   6.874  1.0295  1.8976  1.3608
  397MOL0     H53547   7.130   8.609   7.085 -0.8952  0.2179  0.1593
  397MOL0     H53548   7.202   8.577   7.241 -1.3789 -0.4195 -1.1096
  397MOL0     H53549   7.239   8.816   7.062 -1.0434 -1.5507 -0.8233
  397MOL0     H53550   7.143   8.822   7.214 -1.5156  1.3736 -3.7008
  397MOL0     H53551   7.441   8.751   7.221 -2.5615 -3.5736 -1.2106
  397MOL0     H53552   7.342   8.805   7.352  0.3906 -2.3621  0.1594
  397MOL0     H53553   7.349   9.035   7.285 -0.3850  0.3682  1.1407
  397MOL0     H53554   7.395   8.996   7.116 -0.1013  1.3912  0.7998
  397MOL0     H53555   7.462   9.219   7.282 -0.8119  2.0424  1.0441
  397MOL0     H53556   7.603   9.405   7.379  2.2698  0.2866 -1.7007
  397MOL0     H53557   7.858   9.631   7.663  0.5818  2.5662  2.6049
  397MOL0     H53558   8.008   9.756   7.788 -1.6254  0.1271 -0.6369
  397MOL0     H53559   8.029   9.623   8.195 -0.5356  0.5439 -1.1474
  397MOL0     H53560   8.203   9.580   8.181  1.4472  1.4690 -3.1264
  397MOL0     H53561   8.279   9.804   8.226 -0.4235  5.7522  5.1228
  397MOL0     H53562   8.117   9.871   8.219  3.0494  1.0445  1.3508
  397MOL0     H53563   8.042   9.719   8.411  0.0220  1.7854  3.0749
  397MOL0     H53564   8.213   9.689   8.432 -0.8109 -1.5063  0.0783
  397MOL0     H53565   8.079   9.959   8.482  0.8634  1.3005 -0.2036
  397MOL0     H53566   8.239   9.956   8.402  1.8014 -2.6022  0.7702
  397MOL0     H53567   8.213   9.981   8.658  0.0262  2.2009 -3.5739
  397MOL0     H53568   8.315   9.844   8.601 -0.6344 -0.3166 -4.0703
  397MOL0     H53569   8.114   9.697   8.673 -3.4158  0.1231 -0.5129
  397MOL0     H53570   8.178   9.806   8.796 -1.7102  3.5537  0.4875
  397MOL0     H53571   7.923   9.773   8.753  0.3093 -0.0564  0.7347
  397MOL0     H53572   7.947   9.889   8.628  0.2146  1.6989  0.2817
  397MOL0     H53573   8.033   9.948   8.905  2.1485  0.3533 -1.1848
  397MOL0     H53574   8.015  10.061   8.762  0.1372  2.2975  4.0872
  397MOL0     H53575   8.088   9.396   8.029 -2.9345 -1.3847  1.1227
  397MOL0     H53576   7.996   9.273   7.858 -4.9526 -0.3242 -0.6739
  397MOL0     H53577   7.851   9.112   7.561  0.0826  0.0136 -1.2457
  397MOL0     H53578   7.714   8.927   7.460  0.8438  0.7709  0.4001
  397MOL0     H53579   7.677   9.443   6.747  0.4079 -1.0386  0.3945
  397MOL0     H53580   7.710   9.677   6.794  2.1045 -0.0926  0.9698
  397MOL0     H53581   7.794   9.992   7.168 -0.2607  1.0345  1.8392
  397MOL0     H53582   7.823  10.233   7.189 -0.0000 -2.1523  2.1071
  397MOL0     H53583   8.109  10.450   6.907  1.2040  1.2917  1.1290
  397MOL0     H53584   8.004  10.565   6.998 -0.1775 -1.6802  2.8364
  397MOL0     H53585   7.920  10.373   6.779  0.2917  0.0367 -1.0117
  397MOL0     H53586   7.935  10.550   6.767  2.3885  0.1184  0.3589
  397MOL0     H53587   7.754  10.583   6.930  2.8493  1.0076 -0.9163
  397MOL0     H53588   7.743  10.405   6.955 -0.6048 -1.5452 -0.7888
  397MOL0     H53589   7.669  10.370   6.723  2.2970  0.0518 -1.7580
  397MOL0     H53590   7.551  10.476   6.805  0.6032  2.0194  3.6163
  397MOL0     H53591   7.717  10.777   6.567  1.6742  0.3814  0.1486
  397MOL0     H53592   8.125  10.222   6.879  0.0426 -2.0320 -0.9954
  397MOL0     H53593   8.068   9.928   6.748 -0.7663  1.3943 -1.4894
  397MOL0     H53594   8.194  10.045   6.782 -2.5939  1.4855 -1.5661
  397MOL0     H53595   8.190   9.885   6.871 -2.8288 -1.1913 -0.7826
  398MOL0     O53596   4.481   8.394   0.921 -0.2324 -0.0985  0.2780
  398MOL0     C53597   4.476   8.468   1.016 -0.4610 -0.4852  0.3835
  398MOL0     O53598   4.487   8.603   1.013  0.5987 -0.4591 -1.0190
  398MOL0     C53599   4.518   8.690   0.904  0.0445  0.0314  0.2110
  398MOL0     C53600   4.422   8.775   0.858  1.1266  0.4334  0.0643
  398MOL0     C53601   4.463   8.861   0.754 -0.3958  0.2520 -0.4695
  398MOL0     C53602   4.592   8.863   0.692  0.0913  0.2500 -0.3855
  398MOL0     O53603   4.638   8.944   0.585 -0.9076  0.7910 -0.4837
  398MOL0     C53604   4.542   8.996   0.490  0.0461  0.1445  0.3048
  398MOL0     C53605   4.618   9.033   0.370 -0.7339 -0.8019 -0.4316
  398MOL0     C53606   4.700   8.925   0.302  0.5906  0.2050  0.4339
  398MOL0     C53607   4.621   8.851   0.195  0.0577 -0.0428  0.3834
  398MOL0     C53608   4.684   8.712   0.161  0.6452 -0.5486 -0.0129
  398MOL0     C53609   4.588   8.626   0.077  0.0754 -0.4879 -0.1436
  398MOL0     C53610   4.634   8.472   0.076  0.3889  0.3515  0.4183
  398MOL0     C53611   4.758   8.453  -0.002  0.1712 -0.3535  0.9778
  398MOL0     N53612   4.744   8.518  -0.129  0.1888  0.7006  0.7668
  398MOL0     C53613   4.666   8.462  -0.225  0.4426  0.4112  0.7332
  398MOL0     C53614   4.671   8.552  -0.318  0.3557 -0.3470  0.5874
  398MOL0     C53615   4.615   8.528  -0.453  0.2058 -0.0631  0.8020
  398MOL0     C53616   4.704   8.589  -0.559 -0.2650 -0.3135 -0.3454
  398MOL0     C53617   4.833   8.519  -0.585  0.3800  1.1972  0.3419
  398MOL0     C53618   4.933   8.599  -0.667 -0.3671 -0.0815  0.7145
  398MOL0     O53619   4.983   8.712  -0.598 -0.0446  0.2975  0.1958
  398MOL0     C53620   5.086   8.788  -0.659 -0.0758  0.3271  0.5946
  398MOL0     C53621   5.147   8.760  -0.782 -0.0339  0.4880 -0.8899
  398MOL0     C53622   5.243   8.846  -0.838 -0.4516  0.7287  0.0458
  398MOL0     C53623   5.267   8.977  -0.787  0.0450 -0.6379 -0.2619
  398MOL0     C53624   5.332   9.074  -0.877 -0.0054  0.3475  0.0351
  398MOL0     O53625   5.317   9.200  -0.832  0.7975  1.1012  0.2437
  398MOL0     C53626   5.376   9.307  -0.902  0.5239  0.1827  0.4494
  398MOL0     C53627   5.470   9.382  -0.827  0.8348  0.1535  0.2809
  398MOL0     C53628   5.517   9.500  -0.887  0.0791 -0.1065 -1.0339
  398MOL0     C53629   5.482   9.539  -1.011  0.5325 -0.0651 -0.3883
  398MOL0     O53630   5.529   9.660  -1.055 -0.6262  0.4002 -0.4495
  398MOL0     C53631   5.461   9.717  -1.172 -0.3291 -0.4779  0.5105
  398MOL0     C53632   5.492   9.863  -1.161 -0.2723 -0.6054 -0.6932
  398MOL0     C53633   5.629   9.907  -1.214 -0.1802 -0.2180  0.5770
  398MOL0     C53634   5.752   9.849  -1.151 -0.0960  0.3271 -0.7068
  398MOL0     C53635   5.876   9.938  -1.193 -0.9127  0.4328  0.2484
  398MOL0     C53636   5.899   9.930  -1.342  0.7986 -0.5766 -0.7125
  398MOL0     C53637   6.044   9.977  -1.369 -0.2321  0.1009  1.1009
  398MOL0     C53638   6.075  10.017  -1.518  0.9388  0.5480  0.5069
  398MOL0    Cl53639   6.254  10.028  -1.522  0.1729 -0.2068 -0.1067
  398MOL0     C53640   5.409   9.451  -1.085 -0.9593  0.1526  0.4361
  398MOL0     C53641   5.347   9.329  -1.038 -0.3687 -0.2786 -0.1942
  398MOL0     O53642   5.387   9.039  -0.982 -0.5239  0.3470 -0.4507
  398MOL0     C53643   5.198   9.005  -0.660  0.0765 -0.2335 -0.1434
  398MOL0     C53644   5.118   8.909  -0.598  0.3100  0.2395 -0.7950
  398MOL0     N53645   4.746   8.661  -0.282 -0.2563 -0.0548  0.0804
  398MOL0     N53646   4.806   8.629  -0.172  0.6410  0.2807 -0.4683
  398MOL0     C53647   4.682   8.767   0.740  0.7863  0.4303 -0.3844
  398MOL0     C53648   4.642   8.684   0.848  0.5601 -0.5760  0.1192
  398MOL0     C53649   4.495   8.407   1.147 -0.3321  0.9314 -0.3066
  398MOL0     C53650   4.423   8.290   1.191  0.0072 -0.4959 -0.1530
  398MOL0     C53651   4.451   8.207   1.303 -0.2310 -0.2251 -0.8977
  398MOL0     C53652   4.546   8.258   1.394 -0.4302  0.0678 -0.4500
  398MOL0     O53653   4.561   8.186   1.510  0.4628 -0.3984 -0.2219
  398MOL0     C53654   4.652   8.248   1.614 -0.3957  0.2677  0.8901
  398MOL0     C53655   4.802   8.233   1.576  0.1034  0.1670  0.0401
  398MOL0     C53656   4.832   8.076   1.564 -0.6931 -0.7220 -0.4206
  398MOL0     C53657   4.977   8.043   1.576 -0.2842 -0.6977  0.2063
  398MOL0     C53658   5.051   8.106   1.468 -0.3894 -0.0473 -0.2792
  398MOL0     C53659   5.114   8.130   1.371 -0.4921  0.6533  0.4328
  398MOL0     C53660   4.610   8.376   1.355 -0.0153 -0.1241  0.2088
  398MOL0     C53661   4.590   8.447   1.237 -1.0551 -1.0902  0.1601
  398MOL0     C53662   4.687   8.568   1.206  0.4526 -0.1391 -0.4639
  398MOL0     H53663   4.335   8.783   0.923  0.9235 -2.5737  0.3369
  398MOL0     H53664   4.404   8.944   0.716 -1.1379 -1.5879 -3.7308
  398MOL0     H53665   4.468   8.918   0.468  0.9004 -1.5517  2.8958
  398MOL0     H53666   4.485   9.082   0.526  2.3004  1.9477 -0.2107
  398MOL0     H53667   4.677   9.120   0.400 -0.7098 -1.8363  2.9383
  398MOL0     H53668   4.550   9.058   0.289 -1.6131 -2.5620 -0.2818
  398MOL0     H53669   4.732   8.861   0.385 -0.4821  1.9744  2.3034
  398MOL0     H53670   4.782   8.976   0.250  1.0677  1.0830  1.9800
  398MOL0     H53671   4.526   8.820   0.240  0.9853 -0.7997  1.9104
  398MOL0     H53672   4.603   8.912   0.106  0.2270  0.9165  0.9859
  398MOL0     H53673   4.782   8.740   0.121  1.0253 -0.1817  1.1180
  398MOL0     H53674   4.689   8.668   0.261 -2.1731 -0.8792  0.0674
  398MOL0     H53675   4.496   8.622   0.137  0.2221  1.3094  0.2482
  398MOL0     H53676   4.569   8.654  -0.027  0.6723 -1.4940 -0.5375
  398MOL0     H53677   4.560   8.409   0.027  0.2870  1.3215 -0.7111
  398MOL0     H53678   4.656   8.435   0.177  1.1381  1.0891  0.5410
  398MOL0     H53679   4.847   8.486   0.051  2.0214  0.7207 -2.5057
  398MOL0     H53680   4.788   8.350  -0.026  0.6167  0.0205 -0.1341
  398MOL0     H53681   4.601   8.376  -0.225  0.6059  0.2337  2.7847
  398MOL0     H53682   4.599   8.424  -0.482 -0.4689  0.6221 -1.4404
  398MOL0     H53683   4.519   8.577  -0.471  1.2316  1.8444  0.2743
  398MOL0     H53684   4.648   8.600  -0.653  0.8393 -0.2368 -1.0203
  398MOL0     H53685   4.718   8.693  -0.527 -1.0490 -0.3264  0.0536
  398MOL0     H53686   4.829   8.421  -0.634  0.3513  1.4090 -0.0884
  398MOL0     H53687   4.885   8.509  -0.489 -0.4967  1.4872  0.8507
  398MOL0     H53688   4.892   8.620  -0.766 -2.6372 -2.7005  0.9737
  398MOL0     H53689   5.008   8.519  -0.675 -0.3819 -0.0662  0.3830
  398MOL0     H53690   5.144   8.663  -0.832  0.1506 -1.1436  2.0090
  398MOL0     H53691   5.279   8.813  -0.935 -0.7571 -0.1292  0.2162
  398MOL0     H53692   5.483   9.347  -0.725  2.3584  0.5077  0.2279
  398MOL0     H53693   5.581   9.570  -0.834 -1.3645  2.4612 -2.4690
  398MOL0     H53694   5.490   9.683  -1.272 -1.1075 -2.5169  0.9255
  398MOL0     H53695   5.353   9.712  -1.160 -0.6904  2.1188 -0.8386
  398MOL0     H53696   5.422   9.915  -1.227  0.4856  3.6302  1.4698
  398MOL0     H53697   5.479   9.899  -1.059  1.3294 -0.6427 -0.4520
  398MOL0     H53698   5.641   9.890  -1.321 -0.5489 -0.4258  0.5674
  398MOL0     H53699   5.635  10.015  -1.198  2.3605  0.1822 -2.2145
  398MOL0     H53700   5.762   9.740  -1.162 -0.1649  0.0855  1.3124
  398MOL0     H53701   5.737   9.865  -1.044  2.0424  1.1661 -0.4910
  398MOL0     H53702   5.963   9.908  -1.134  1.1361  1.4811 -2.0788
  398MOL0     H53703   5.858  10.044  -1.171  2.4799  1.3724 -1.0315
  398MOL0     H53704   5.881   9.826  -1.370  0.0480 -0.7871  0.4913
  398MOL0     H53705   5.833   9.992  -1.404  2.1601  0.6979 -0.9498
  398MOL0     H53706   6.104   9.893  -1.335 -3.1892 -2.8310 -0.3616
  398MOL0     H53707   6.070  10.066  -1.311 -1.5308 -0.2753  2.3103
  398MOL0     H53708   6.038   9.948  -1.594  0.7476 -1.1937  2.1256
  398MOL0     H53709   6.026  10.111  -1.544 -0.7366  0.0760  1.7904
  398MOL0     H53710   5.376   9.472  -1.187  0.1189 -1.5324 -0.3124
  398MOL0     H53711   5.278   9.264  -1.091 -1.8035 -0.3479  1.6496
  398MOL0     H53712   5.213   9.102  -0.614  0.2707 -0.0972 -0.4886
  398MOL0     H53713   5.071   8.929  -0.502  1.9162  2.3153 -0.3743
  398MOL0     H53714   4.785   8.769   0.706  1.1759 -0.2657  0.6941
  398MOL0     H53715   4.711   8.607   0.878 -1.3141 -2.1532  0.5968
  398MOL0     H53716   4.347   8.246   1.126  0.7380 -1.4198 -0.4107
  398MOL0     H53717   4.404   8.112   1.327 -1.3250  0.8562  1.5209
  398MOL0     H53718   4.645   8.195   1.710 -1.0926 -2.9434 -0.7898
  398MOL0     H53719   4.644   8.357   1.621  2.1032  0.5170  0.5123
  398MOL0     H53720   4.867   8.268   1.656  1.1329 -1.6991  0.0659
  398MOL0     H53721   4.837   8.289   1.488  0.4887 -0.7743 -0.4130
  398MOL0     H53722   4.796   8.041   1.467  2.2898 -1.0271 -1.4988
  398MOL0     H53723   4.772   8.030   1.643 -1.0218 -0.7849 -0.7062
  398MOL0     H53724   5.029   8.071   1.668  1.7084 -0.9984 -0.7851
  398MOL0     H53725   4.985   7.934   1.573 -1.9227 -0.8362 -0.7033
  398MOL0     H53726   5.177   8.164   1.292 -2.4170 -0.9926 -1.9871
  398MOL0     H53727   4.685   8.423   1.418  1.5110 -1.6299 -0.3802
  398MOL0     H53728   4.629   8.661   1.206 -1.4151 -1.1786 -3.1130
  398MOL0     H53729   4.772   8.583   1.274 -0.5735  0.8727  0.6458
  398MOL0     H53730   4.727   8.553   1.106 -1.1012 -0.7059 -1.0173
  399MOL0     O53731   2.372  11.285   6.100 -0.9907  0.4854  0.1286
  399MOL0     C53732   2.468  11.215   6.114 -0.8743  0.8445 -1.1318
  399MOL0     O53733   2.605  11.259   6.113 -0.1360 -0.1544  0.3576
  399MOL0     C53734   2.643  11.396   6.109  0.5229 -0.4432  0.1378
  399MOL0     C53735   2.787  11.404   6.088 -0.5067 -0.6419 -1.0184
  399MOL0     C53736   2.849  11.527   6.103  0.0240  1.0724 -0.4342
  399MOL0     C53737   2.769  11.642   6.127  0.9290 -0.1248 -0.2101
  399MOL0     O53738   2.817  11.776   6.123  0.1715  0.5572  0.7778
  399MOL0     C53739   2.946  11.788   6.079 -0.9884 -0.0342  0.1786
  399MOL0     C53740   2.989  11.934   6.041 -0.3806 -0.0721  0.6100
  399MOL0     C53741   2.939  11.961   5.904  0.7762 -0.1298 -0.6138
  399MOL0     C53742   2.922  12.113   5.873 -0.5960 -0.4011  0.1507
  399MOL0     C53743   2.828  12.136   5.747 -0.7569 -0.6751 -0.4223
  399MOL0     C53744   2.720  12.233   5.787  0.9573  0.3278 -0.0760
  399MOL0     C53745   2.622  12.262   5.670  0.5004 -0.1259  0.2855
  399MOL0     C53746   2.534  12.142   5.640 -0.3271 -0.1338 -0.4338
  399MOL0     N53747   2.408  12.161   5.565  0.1089 -0.0537 -0.3910
  399MOL0     C53748   2.377  12.219   5.447  0.1029  0.4878 -0.5828
  399MOL0     C53749   2.243  12.211   5.431  0.3313 -0.4750  0.0925
  399MOL0     C53750   2.172  12.266   5.319 -0.3621 -0.1595  0.1728
  399MOL0     C53751   2.099  12.155   5.251  0.4716  0.4211  0.4418
  399MOL0     C53752   2.209  12.056   5.189 -0.0063 -0.1937 -0.6761
  399MOL0     C53753   2.134  11.972   5.087 -0.0617 -0.0455  0.2045
  399MOL0     O53754   2.106  12.047   4.963  0.2738  0.9053  0.2149
  399MOL0     C53755   2.103  11.982   4.841 -0.9377 -0.0563 -0.6316
  399MOL0     C53756   2.066  11.844   4.842  0.5567  0.0055 -0.4974
  399MOL0     C53757   2.060  11.782   4.719  0.2153 -0.6269 -0.3023
  399MOL0     C53758   2.110  11.843   4.599  1.2750  0.5763 -1.0445
  399MOL0     C53759   2.108  11.766   4.463  0.3996 -0.6089 -0.3959
  399MOL0     O53760   2.066  11.637   4.468  0.3211  0.2643 -0.3471
  399MOL0     C53761   2.012  11.582   4.354  0.1006 -0.4732 -0.1363
  399MOL0     C53762   1.900  11.637   4.287  0.2480 -0.9299  0.1355
  399MOL0     C53763   1.839  11.584   4.177  1.0774 -0.5901  0.9591
  399MOL0     C53764   1.898  11.465   4.121 -0.7154  0.2199  0.3445
  399MOL0     O53765   1.847  11.412   4.010  0.4681  0.2496 -0.1421
  399MOL0     C53766   1.921  11.438   3.891 -0.2524 -0.7175 -0.2377
  399MOL0     C53767   1.855  11.541   3.810 -0.3338  0.2646  0.1722
  399MOL0     C53768   1.706  11.523   3.788 -0.3174  0.8866 -0.1830
  399MOL0     C53769   1.657  11.389   3.733  0.4210 -0.5292 -0.8885
  399MOL0     C53770   1.524  11.408   3.662  0.5402 -0.0679  0.7809
  399MOL0     C53771   1.483  11.321   3.549 -0.4115  0.1145 -0.3992
  399MOL0     C53772   1.442  11.173   3.589 -1.3079 -0.4990  0.5887
  399MOL0     C53773   1.339  11.114   3.485  0.9851 -0.0650 -0.5844
  399MOL0    Cl53774   1.197  11.226   3.446 -0.1900  0.1727  0.6713
  399MOL0     C53775   2.013  11.408   4.172  0.0169  0.3139  0.2253
  399MOL0     C53776   2.065  11.463   4.292 -0.2775 -0.3873 -0.1996
  399MOL0     O53777   2.138  11.831   4.360 -0.0302 -0.0885 -0.9630
  399MOL0     C53778   2.139  11.982   4.603  0.0190  1.4613 -1.0274
  399MOL0     C53779   2.137  12.051   4.724  0.2307  1.0151 -0.2351
  399MOL0     N53780   2.186  12.161   5.539 -1.1901 -0.1297 -0.3214
  399MOL0     N53781   2.288  12.135   5.623 -0.2803 -0.2326 -0.2100
  399MOL0     C53782   2.632  11.630   6.162 -0.2102  0.3149  0.6705
  399MOL0     C53783   2.562  11.510   6.146 -0.1421  0.3404  0.0256
  399MOL0     C53784   2.438  11.070   6.139  0.8745  0.6115  0.1229
  399MOL0     C53785   2.329  11.018   6.068 -0.3240 -0.7380  0.1338
  399MOL0     C53786   2.286  10.883   6.068 -0.2568 -0.7178 -0.7267
  399MOL0     C53787   2.360  10.795   6.148  0.2745  0.3906  0.0755
  399MOL0     O53788   2.339  10.656   6.138  0.4540 -0.5697 -0.2935
  399MOL0     C53789   2.304  10.593   6.260 -0.6414  0.4565 -0.3541
  399MOL0     C53790   2.288  10.438   6.250 -0.8694  0.0172 -0.1446
  399MOL0     C53791   2.419  10.361   6.242  0.7823 -0.4395  0.6691
  399MOL0     C53792   2.402  10.235   6.158 -0.0859  0.3370  0.7623
  399MOL0     C53793   2.311  10.139   6.226 -0.3658 -0.0189 -0.5555
  399MOL0     C53794   2.239  10.068   6.296 -0.6135  0.0060  0.4982
  399MOL0     C53795   2.464  10.853   6.234 -1.0580 -0.1413 -0.0628
  399MOL0     C53796   2.498  10.986   6.224 -0.8029 -0.6011  0.3716
  399MOL0     C53797   2.613  11.029   6.309 -0.1662 -0.3959 -0.3371
  399MOL0     H53798   2.842  11.310   6.085  2.7834  1.0382  0.6445
  399MOL0     H53799   2.957  11.528   6.110  0.1032  0.2864 -1.3488
  399MOL0     H53800   3.012  11.752   6.158  0.9861  2.0852 -0.3916
  399MOL0     H53801   2.953  11.732   5.985 -1.5969  2.0855 -1.1960
  399MOL0     H53802   3.098  11.930   6.032 -0.1906 -1.3491  2.7171
  399MOL0     H53803   2.961  12.005   6.119 -0.2685 -1.1751  1.6918
  399MOL0     H53804   2.844  11.911   5.885  2.5158 -3.8974 -0.3229
  399MOL0     H53805   3.006  11.910   5.835  0.1326 -0.1039 -1.2546
  399MOL0     H53806   2.889  12.173   5.959 -2.0287  2.1082 -1.9948
  399MOL0     H53807   3.015  12.168   5.851 -2.0756  1.6592 -1.3567
  399MOL0     H53808   2.883  12.163   5.656  0.7559 -0.5057  0.5003
  399MOL0     H53809   2.786  12.036   5.733 -2.8364 -0.6825  4.0906
  399MOL0     H53810   2.659  12.193   5.869 -0.0600  1.0931 -0.4344
  399MOL0     H53811   2.747  12.328   5.835 -0.2301 -0.3002  1.9684
  399MOL0     H53812   2.679  12.291   5.582 -0.5623 -1.5760 -0.9315
  399MOL0     H53813   2.559  12.348   5.694 -0.3938  0.3019 -3.0805
  399MOL0     H53814   2.600  12.077   5.582  0.4345 -1.2149  1.5473
  399MOL0     H53815   2.514  12.104   5.741 -1.1488  0.5360 -0.3340
  399MOL0     H53816   2.450  12.264   5.380 -0.6714 -1.7094 -3.0785
  399MOL0     H53817   2.099  12.339   5.357  0.7863  1.0020  0.2319
  399MOL0     H53818   2.241  12.323   5.257  0.1550 -2.0965 -1.1194
  399MOL0     H53819   2.032  12.115   5.327 -1.7535  1.1526 -1.0429
  399MOL0     H53820   2.046  12.202   5.168 -0.6582 -2.0074 -0.3062
  399MOL0     H53821   2.252  11.985   5.261 -1.5087  1.0730  1.5837
  399MOL0     H53822   2.282  12.123   5.143 -0.4930  0.9309  0.1476
  399MOL0     H53823   2.042  11.935   5.131 -1.6794 -0.5238 -3.2426
  399MOL0     H53824   2.201  11.888   5.066 -2.1141 -1.6825 -0.0904
  399MOL0     H53825   2.030  11.796   4.933 -0.3973  2.1431  0.3194
  399MOL0     H53826   2.013  11.684   4.708 -2.3785  0.6314 -1.1725
  399MOL0     H53827   1.858  11.728   4.330  1.3744 -0.3636  0.0736
  399MOL0     H53828   1.747  11.625   4.136 -0.1025 -0.6578  3.4220
  399MOL0     H53829   2.025  11.466   3.908 -0.6971  0.0654  1.4523
  399MOL0     H53830   1.916  11.343   3.838  0.8861 -1.9767  1.7992
  399MOL0     H53831   1.870  11.632   3.869 -1.4164  0.7817 -0.3363
  399MOL0     H53832   1.906  11.569   3.718  4.1852  1.0982  2.5960
  399MOL0     H53833   1.653  11.524   3.884  0.8770 -1.1257  0.5513
  399MOL0     H53834   1.677  11.599   3.715  0.3777  1.3733  0.0361
  399MOL0     H53835   1.639  11.315   3.812 -0.5371  1.5963  1.0090
  399MOL0     H53836   1.734  11.348   3.668 -2.3220 -2.1321 -3.3656
  399MOL0     H53837   1.520  11.513   3.631  1.0096  0.1535  1.4515
  399MOL0     H53838   1.446  11.399   3.738 -0.4390 -2.9116 -0.4372
  399MOL0     H53839   1.394  11.371   3.509 -0.1087  1.6170  0.6907
  399MOL0     H53840   1.561  11.317   3.472  0.2222  1.1484  0.1547
  399MOL0     H53841   1.388  11.164   3.684  0.5228 -0.6072  1.6700
  399MOL0     H53842   1.529  11.107   3.594 -4.4807 -5.1970 -0.0995
  399MOL0     H53843   1.397  11.086   3.397 -0.0152 -0.3029 -1.1772
  399MOL0     H53844   1.289  11.024   3.521 -2.8175  2.2786  0.5018
  399MOL0     H53845   2.044  11.313   4.129 -2.0621  1.4494 -4.3865
  399MOL0     H53846   2.134  11.403   4.350  0.6528 -1.0248 -1.8791
  399MOL0     H53847   2.177  12.038   4.518  2.9038 -1.5212 -1.8889
  399MOL0     H53848   2.171  12.154   4.734 -0.9658  1.4435 -0.3237
  399MOL0     H53849   2.574  11.715   6.196 -2.0565 -0.5051 -0.2899
  399MOL0     H53850   2.463  11.500   6.190 -0.1027  0.3180  0.1099
  399MOL0     H53851   2.282  11.091   6.003  1.0552  0.9574  0.9503
  399MOL0     H53852   2.214  10.842   5.997 -1.1919 -1.6689  0.7176
  399MOL0     H53853   2.211  10.636   6.296  0.2452  0.5801  1.9483
  399MOL0     H53854   2.381  10.616   6.334 -1.4052  2.2848 -0.0743
  399MOL0     H53855   2.220  10.423   6.166  1.3290 -0.7824 -1.8962
  399MOL0     H53856   2.246  10.401   6.344  1.5039 -1.3225  0.5025
  399MOL0     H53857   2.453  10.334   6.343  3.5895  0.6300  0.1021
  399MOL0     H53858   2.497  10.423   6.197 -0.9994  1.5576  0.2421
  399MOL0     H53859   2.354  10.263   6.065 -1.4626 -0.9996  1.0379
  399MOL0     H53860   2.502  10.194   6.138  0.8864  2.5812  0.7677
  399MOL0     H53861   2.162  10.018   6.351 -1.9365 -0.9654 -2.1097
  399MOL0     H53862   2.518  10.787   6.300  3.3489  2.9988 -0.0781
  399MOL0     H53863   2.640  10.975   6.400  0.1401  3.4009  2.0849
  399MOL0     H53864   2.701  11.050   6.246  0.2305 -1.1167 -0.0341
  399MOL0     H53865   2.597  11.131   6.345 -1.6297  0.0015 -1.9869
  400MOL0     O53866   6.753   5.101   8.922  0.8400 -0.5012  0.5141
  400MOL0     C53867   6.840   5.066   8.999  0.4236 -0.2012  0.1310
  400MOL0     O53868   6.958   5.002   8.951  0.0468  0.1010 -0.5723
  400MOL0     C53869   6.966   4.965   8.814  0.6547  0.1632 -0.0373
  400MOL0     C53870   7.094   4.984   8.759 -0.2761 -0.8013  0.3764
  400MOL0     C53871   7.136   4.948   8.639 -0.2942 -0.1936 -0.3108
  400MOL0     C53872   7.039   4.884   8.555 -0.0697 -0.4044 -0.8715
  400MOL0     O53873   7.086   4.848   8.436  0.6044  0.0037  0.3816
  400MOL0     C53874   7.008   4.756   8.357 -0.4882 -0.6451  0.7262
  400MOL0     C53875   7.080   4.733   8.223  0.1683 -0.2864  0.4635
  400MOL0     C53876   7.004   4.624   8.159 -0.4475 -0.2269 -0.5829
  400MOL0     C53877   7.058   4.575   8.029 -0.9444  1.6742  0.1626
  400MOL0     C53878   7.004   4.427   8.012  0.2827 -0.5383 -0.6026
  400MOL0     C53879   7.054   4.353   7.877  1.6981  0.0344 -1.1255
  400MOL0     C53880   7.006   4.205   7.889 -0.4807 -0.6907  0.2597
  400MOL0     C53881   6.985   4.126   7.763  0.9647  0.1833 -0.2047
  400MOL0     N53882   7.082   4.014   7.749  0.0731 -0.2004  0.0411
  400MOL0     C53883   7.115   3.910   7.828 -0.2800  0.5789 -0.9919
  400MOL0     C53884   7.226   3.863   7.764 -0.0218 -0.2385 -0.2626
  400MOL0     C53885   7.297   3.733   7.804  0.5683  0.2801  0.0594
  400MOL0     C53886   7.265   3.614   7.710  0.3157  0.4569 -0.0218
  400MOL0     C53887   7.363   3.504   7.731 -0.4827 -0.1027 -0.4811
  400MOL0     C53888   7.304   3.364   7.699  0.7078 -0.4455  0.0462
  400MOL0     O53889   7.411   3.285   7.676 -0.3873  0.0640 -0.2208
  400MOL0     C53890   7.379   3.170   7.603  0.2411  0.9522 -1.3589
  400MOL0     C53891   7.257   3.104   7.614  1.1357 -0.2699  0.8029
  400MOL0     C53892   7.240   2.971   7.562 -0.4125  0.4534 -0.1977
  400MOL0     C53893   7.339   2.914   7.482  1.1027  0.2232  0.4239
  400MOL0     C53894   7.320   2.778   7.423  0.7379 -1.4496 -0.3043
  400MOL0     O53895   7.418   2.747   7.338 -0.3800  0.4213 -0.1368
  400MOL0     C53896   7.408   2.615   7.285 -0.2461 -0.6976  0.6330
  400MOL0     C53897   7.390   2.507   7.372  0.8725  0.1638  0.8619
  400MOL0     C53898   7.399   2.373   7.321  0.5954  0.5679  0.2173
  400MOL0     C53899   7.427   2.349   7.183 -0.0426 -0.3413 -1.1618
  400MOL0     O53900   7.451   2.219   7.132  1.4206 -0.6335 -0.7307
  400MOL0     C53901   7.380   2.117   7.194  0.3450 -0.2087  0.0616
  400MOL0     C53902   7.346   2.013   7.092  0.5491 -0.3646  0.0147
  400MOL0     C53903   7.237   2.043   6.982 -0.0661  0.6394 -0.7755
  400MOL0     C53904   7.289   2.104   6.854  0.8433  0.7769  0.4624
  400MOL0     C53905   7.182   2.101   6.735 -0.1514 -1.2740 -0.0383
  400MOL0     C53906   7.234   2.175   6.613 -0.1336 -0.3978  1.0263
  400MOL0     C53907   7.251   2.319   6.632 -0.2284  0.0905 -0.0407
  400MOL0     C53908   7.235   2.384   6.491 -0.4801 -0.0467 -0.8518
  400MOL0    Cl53909   7.277   2.548   6.514  0.1639  0.3267  0.3729
  400MOL0     C53910   7.455   2.459   7.109  0.2641  0.2846 -0.0414
  400MOL0     C53911   7.431   2.590   7.150 -1.0433  0.7979 -0.8369
  400MOL0     O53912   7.222   2.716   7.450 -0.1385 -0.0944  0.5708
  400MOL0     C53913   7.460   2.986   7.470  0.0655  0.5431 -0.0366
  400MOL0     C53914   7.475   3.110   7.526 -0.9679  0.4398  0.2337
  400MOL0     N53915   7.254   3.932   7.650 -0.5900  0.1408  0.5014
  400MOL0     N53916   7.170   4.021   7.645  0.3294 -0.9178  0.3846
  400MOL0     C53917   6.924   4.834   8.617 -0.3231 -0.1954  0.2689
  400MOL0     C53918   6.886   4.882   8.741  0.0372 -0.0487 -0.5303
  400MOL0     C53919   6.837   5.080   9.148  0.7319  0.1643  0.3773
  400MOL0     C53920   6.955   5.082   9.219  0.4216 -0.7181 -0.1654
  400MOL0     C53921   6.964   5.069   9.351  0.2982  0.5868  0.0518
  400MOL0     C53922   6.846   5.065   9.432  0.6910 -0.3084  0.9827
  400MOL0     O53923   6.857   5.062   9.568  0.3974 -0.5234  0.2417
  400MOL0     C53924   6.744   5.113   9.647  0.1262 -0.0386 -0.0849
  400MOL0     C53925   6.769   5.148   9.798  1.1527  0.4240  0.9819
  400MOL0     C53926   6.843   5.275   9.817  0.0632  0.3439 -0.2986
  400MOL0     C53927   6.899   5.302   9.953  0.0920  0.6631 -0.1493
  400MOL0     C53928   6.876   5.433  10.007  1.0796  0.1158  0.0022
  400MOL0     C53929   6.856   5.543  10.059 -1.0361 -0.0581  0.7708
  400MOL0     C53930   6.723   5.083   9.366 -0.7500 -0.1232  0.2906
  400MOL0     C53931   6.716   5.090   9.223  1.3121  0.3867 -0.5679
  400MOL0     C53932   6.575   5.116   9.173  0.3433  0.7517  0.8594
  400MOL0     H53933   7.166   5.030   8.826  0.6691 -2.2099  0.3640
  400MOL0     H53934   7.234   4.984   8.610 -0.0645 -0.9502 -0.5021
  400MOL0     H53935   6.990   4.670   8.422 -2.1785  0.2788  1.5525
  400MOL0     H53936   6.915   4.807   8.330  0.2966  0.2285 -0.4404
  400MOL0     H53937   7.183   4.705   8.249  0.8082  0.0453 -1.5492
  400MOL0     H53938   7.082   4.822   8.159  3.4129 -1.1325 -0.7711
  400MOL0     H53939   6.897   4.639   8.143 -1.2410 -0.9346  3.2260
  400MOL0     H53940   6.998   4.551   8.240  0.0506  0.9689  0.5656
  400MOL0     H53941   7.042   4.643   7.944 -0.9174  1.5339  0.0427
  400MOL0     H53942   7.166   4.578   8.041 -0.5367 -1.2198 -1.7378
  400MOL0     H53943   7.039   4.368   8.097  1.6030 -0.7743 -1.2777
  400MOL0     H53944   6.895   4.416   8.005  0.3576 -1.6524 -0.2124
  400MOL0     H53945   7.003   4.409   7.798  1.1183  1.0999 -0.0180
  400MOL0     H53946   7.163   4.353   7.862  1.4208  1.5637 -3.7297
  400MOL0     H53947   6.912   4.206   7.945  0.0805 -0.6940  1.2181
  400MOL0     H53948   7.081   4.152   7.948  0.1548  1.5206  1.5305
  400MOL0     H53949   6.882   4.089   7.757  0.8087  0.3294  1.2172
  400MOL0     H53950   6.999   4.197   7.680 -0.7990  0.4566 -0.3195
  400MOL0     H53951   7.078   3.883   7.926 -0.0152 -0.4693 -1.1733
  400MOL0     H53952   7.404   3.749   7.792  0.9269 -0.5120  1.8172
  400MOL0     H53953   7.288   3.706   7.910  0.5469  2.7567  0.7363
  400MOL0     H53954   7.167   3.582   7.747  0.1634  0.1979 -0.6468
  400MOL0     H53955   7.246   3.647   7.608 -0.4525 -0.3150 -0.1419
  400MOL0     H53956   7.397   3.490   7.834  0.3759  1.5366 -0.5108
  400MOL0     H53957   7.448   3.528   7.667  0.6390  0.5568  1.1786
  400MOL0     H53958   7.249   3.373   7.604  3.8129 -0.8928 -1.9397
  400MOL0     H53959   7.228   3.331   7.770  0.4933 -1.7266 -0.7479
  400MOL0     H53960   7.176   3.148   7.672 -0.5918 -1.5568 -0.5212
  400MOL0     H53961   7.150   2.918   7.593  2.1799 -2.2206  3.7175
  400MOL0     H53962   7.368   2.509   7.478 -1.7847  3.4621  0.4157
  400MOL0     H53963   7.372   2.282   7.375 -1.6809  0.8157 -0.3901
  400MOL0     H53964   7.450   2.073   7.265  1.1411 -1.4487 -1.4493
  400MOL0     H53965   7.285   2.152   7.236  0.2270 -0.4267 -0.0241
  400MOL0     H53966   7.433   2.006   7.027  0.9395  3.6794 -0.1353
  400MOL0     H53967   7.338   1.914   7.138 -0.4423 -0.7801 -1.0034
  400MOL0     H53968   7.183   1.951   6.957 -1.3698  1.4649 -1.1446
  400MOL0     H53969   7.153   2.105   7.016 -1.5498 -1.5677 -0.1668
  400MOL0     H53970   7.363   2.036   6.814  1.9683  2.7048 -0.8969
  400MOL0     H53971   7.325   2.206   6.873  1.1367  0.8066 -0.2182
  400MOL0     H53972   7.088   2.155   6.753  0.8252  2.0886 -3.5815
  400MOL0     H53973   7.157   1.996   6.719  3.3472 -1.9415 -2.0693
  400MOL0     H53974   7.320   2.123   6.569  0.7373 -0.4648  2.6957
  400MOL0     H53975   7.159   2.163   6.535  1.3420 -0.1550 -0.4795
  400MOL0     H53976   7.345   2.342   6.682 -1.3580  1.5005  1.5541
  400MOL0     H53977   7.176   2.358   6.702  0.9477  0.2212  1.1798
  400MOL0     H53978   7.300   2.330   6.421  1.2522 -0.8151  1.2133
  400MOL0     H53979   7.139   2.378   6.440 -0.5617  1.5250 -0.9140
  400MOL0     H53980   7.481   2.447   7.004  2.9138 -0.4224  0.6180
  400MOL0     H53981   7.443   2.669   7.076  0.5853  0.3985 -1.0463
  400MOL0     H53982   7.540   2.954   7.404 -1.0633 -0.7196 -0.8343
  400MOL0     H53983   7.572   3.158   7.528 -0.7318 -0.0435  0.8922
  400MOL0     H53984   6.853   4.779   8.556  1.0850 -1.8407  0.0162
  400MOL0     H53985   6.794   4.832   8.770 -1.0031  1.2061 -1.5822
  400MOL0     H53986   7.051   5.092   9.169 -0.4973  1.2234 -1.6670
  400MOL0     H53987   7.064   5.071   9.392  0.9641 -0.1336 -1.4687
  400MOL0     H53988   6.682   5.023   9.655  0.9470 -0.7022 -0.9625
  400MOL0     H53989   6.694   5.202   9.607 -1.5458  1.4075  4.5213
  400MOL0     H53990   6.820   5.062   9.844  1.4817  0.2888  0.3804
  400MOL0     H53991   6.672   5.154   9.848  0.8266  0.0290  0.4125
  400MOL0     H53992   6.769   5.352   9.792 -3.0807 -1.9661  1.1624
  400MOL0     H53993   6.931   5.288   9.754 -1.2381  0.9309 -2.0815
  400MOL0     H53994   6.860   5.227  10.023  0.6209  1.1390  0.6588
  400MOL0     H53995   7.007   5.288   9.949  0.7567  4.9689 -2.4012
  400MOL0     H53996   6.831   5.632  10.114 -3.1556 -0.5915  0.7477
  400MOL0     H53997   6.624   5.082   9.411 -0.1399 -0.3861  1.7115
  400MOL0     H53998   6.529   5.198   9.229  0.0810  1.2202 -0.0380
  400MOL0     H53999   6.593   5.156   9.073  4.4112 -0.3127  0.9735
  400MOL0     H54000   6.512   5.028   9.160  2.3257 -1.1259  2.9455
  401MOL0     O54001   5.881   2.344   5.004 -0.0668  0.1090 -0.2858
  401MOL0     C54002   5.906   2.304   5.117 -0.4702 -0.3955  0.1085
  401MOL0     O54003   6.021   2.251   5.162  0.6557 -0.2467  0.4151
  401MOL0     C54004   6.128   2.229   5.081  0.3249  0.9925 -0.5272
  401MOL0     C54005   6.257   2.219   5.149  0.4574  0.2290 -0.1422
  401MOL0     C54006   6.374   2.195   5.080  0.0420  0.0054  0.5583
  401MOL0     C54007   6.375   2.201   4.942 -0.1529 -0.3990 -0.1574
  401MOL0     O54008   6.497   2.206   4.872  0.3336  0.3618  0.4516
  401MOL0     C54009   6.507   2.283   4.747 -0.0388 -0.2665  0.1388
  401MOL0     C54010   6.650   2.342   4.736  0.2363 -0.6143  0.6645
  401MOL0     C54011   6.698   2.391   4.599 -0.1625  0.0016 -0.3800
  401MOL0     C54012   6.741   2.279   4.513  0.5453  0.3759  0.5785
  401MOL0     C54013   6.633   2.190   4.446 -0.4364  0.5242  0.5378
  401MOL0     C54014   6.671   2.142   4.310 -0.1650  0.2556  0.8334
  401MOL0     C54015   6.550   2.078   4.241  1.2730  0.8394 -0.9079
  401MOL0     C54016   6.590   2.028   4.101  0.5253  0.2328 -0.0629
  401MOL0     N54017   6.466   1.991   4.031  0.1629 -0.3707 -0.4016
  401MOL0     C54018   6.375   1.885   4.052 -0.2305  0.7373 -1.3501
  401MOL0     C54019   6.299   1.883   3.944  1.1867 -0.7472 -1.2563
  401MOL0     C54020   6.183   1.801   3.908  0.2379 -0.9760 -0.8951
  401MOL0     C54021   6.059   1.885   3.937 -0.2855  0.5032 -0.1519
  401MOL0     C54022   5.937   1.806   3.891 -0.0745 -0.6835  0.2281
  401MOL0     C54023   5.812   1.891   3.896  1.2665 -0.7459 -0.5707
  401MOL0     O54024   5.802   1.949   4.030 -1.5527  0.3498 -0.1892
  401MOL0     C54025   5.803   2.086   4.038  0.0095  0.3225  0.1204
  401MOL0     C54026   5.731   2.191   3.957  0.7111 -0.1252 -0.7261
  401MOL0     C54027   5.743   2.322   3.995  0.2170  0.1460  0.2750
  401MOL0     C54028   5.836   2.369   4.092  0.0973  0.3174  0.7843
  401MOL0     C54029   5.868   2.520   4.095  0.0843 -0.2136  0.1047
  401MOL0     O54030   5.764   2.596   4.038 -0.3227  0.8590  0.4727
  401MOL0     C54031   5.776   2.718   3.975 -0.4821  0.2887  0.1301
  401MOL0     C54032   5.896   2.757   3.921 -0.0855  0.4487  0.9214
  401MOL0     C54033   5.911   2.868   3.852  0.2410  0.1685 -0.2033
  401MOL0     C54034   5.803   2.957   3.837 -0.1698  0.2223 -0.1521
  401MOL0     O54035   5.810   3.082   3.780  0.3660 -0.5119  0.1660
  401MOL0     C54036   5.919   3.109   3.692  0.8355  0.1973 -0.2393
  401MOL0     C54037   5.920   3.258   3.656  0.4854 -0.2568  0.8830
  401MOL0     C54038   6.046   3.313   3.589  0.1485  0.0667 -0.0273
  401MOL0     C54039   6.174   3.256   3.632  0.1615  0.1375 -1.1053
  401MOL0     C54040   6.304   3.323   3.573  0.5649 -0.2343  0.5447
  401MOL0     C54041   6.436   3.295   3.643 -0.6415 -0.8220 -0.0581
  401MOL0     C54042   6.425   3.315   3.793 -0.1467  0.0667 -0.3956
  401MOL0     C54043   6.560   3.293   3.876  0.3498 -0.7679 -0.1827
  401MOL0    Cl54044   6.703   3.367   3.813 -0.0406  0.2347 -0.2544
  401MOL0     C54045   5.676   2.923   3.885 -0.0254 -0.6995  1.4760
  401MOL0     C54046   5.659   2.800   3.946  0.2461  0.0652  0.7136
  401MOL0     O54047   5.963   2.559   4.163 -0.1737 -0.1739  0.1914
  401MOL0     C54048   5.905   2.275   4.170 -0.4521  0.7083  0.0773
  401MOL0     C54049   5.882   2.131   4.149 -0.0375 -0.9572  0.0849
  401MOL0     N54050   6.345   1.978   3.855  0.0775  0.2032 -1.2625
  401MOL0     N54051   6.442   2.050   3.910  0.0110  0.4067  0.5289
  401MOL0     C54052   6.253   2.204   4.869  0.0859 -1.1701  0.6450
  401MOL0     C54053   6.129   2.222   4.937 -0.4174  0.3761 -0.3255
  401MOL0     C54054   5.797   2.299   5.209 -0.4415  0.4460  0.3210
  401MOL0     C54055   5.796   2.198   5.303 -0.8797  0.5965 -0.4198
  401MOL0     C54056   5.688   2.189   5.391  0.1858  1.3547  0.6515
  401MOL0     C54057   5.575   2.266   5.386  0.3583  0.3491  0.5792
  401MOL0     O54058   5.470   2.243   5.477  0.7457  0.5255  0.0890
  401MOL0     C54059   5.342   2.257   5.422 -0.4736  0.1390  0.5261
  401MOL0     C54060   5.239   2.314   5.518  0.4086  0.1768 -0.1171
  401MOL0     C54061   5.097   2.268   5.480 -0.4045 -0.2164 -0.5062
  401MOL0     C54062   4.983   2.343   5.550  0.1451  0.0173  0.4487
  401MOL0     C54063   4.997   2.379   5.693 -0.6629  0.1056  0.1460
  401MOL0     C54064   5.018   2.404   5.811  0.3995  0.4123  0.1043
  401MOL0     C54065   5.580   2.362   5.288  0.7579  0.7056 -0.0078
  401MOL0     C54066   5.690   2.391   5.212 -0.3719 -0.6929 -0.0431
  401MOL0     C54067   5.672   2.519   5.128 -1.0023  0.0142 -0.3104
  401MOL0     H54068   6.268   2.239   5.255  0.1483  0.9794 -0.2509
  401MOL0     H54069   6.465   2.199   5.138  1.7692  2.0212 -2.0229
  401MOL0     H54070   6.484   2.212   4.667  1.4847  1.2297 -1.7451
  401MOL0     H54071   6.437   2.366   4.733  0.7285  0.6049  1.2318
  401MOL0     H54072   6.716   2.258   4.759 -0.5871 -0.8697  2.2140
  401MOL0     H54073   6.658   2.419   4.813 -1.4834  0.2842 -0.0078
  401MOL0     H54074   6.787   2.445   4.631  0.8332 -0.4768 -2.1638
  401MOL0     H54075   6.628   2.451   4.539 -1.0650 -1.3550 -0.7303
  401MOL0     H54076   6.795   2.323   4.428  0.9449 -0.1777  0.5378
  401MOL0     H54077   6.807   2.216   4.574 -3.1992 -3.5695  1.1000
  401MOL0     H54078   6.623   2.100   4.508  2.2503 -0.6138 -0.5476
  401MOL0     H54079   6.538   2.240   4.423  0.5927  0.8214 -3.9111
  401MOL0     H54080   6.694   2.223   4.239  0.2437 -2.7428 -2.7484
  401MOL0     H54081   6.765   2.087   4.307  1.1313  2.4106 -0.6848
  401MOL0     H54082   6.469   2.150   4.226 -0.9517 -1.5783 -1.2174
  401MOL0     H54083   6.511   1.995   4.301  1.5488  1.2430 -0.1647
  401MOL0     H54084   6.645   2.096   4.036 -0.2980  1.9045  0.9265
  401MOL0     H54085   6.656   1.940   4.104  0.3690  0.1289  1.8109
  401MOL0     H54086   6.367   1.806   4.127 -0.5696 -0.8903 -3.0351
  401MOL0     H54087   6.192   1.758   3.808  1.0306  0.9863 -1.6923
  401MOL0     H54088   6.182   1.712   3.973 -2.1125 -0.5240 -0.1978
  401MOL0     H54089   6.049   1.918   4.041 -0.8711 -2.6513  0.9010
  401MOL0     H54090   6.057   1.968   3.866 -2.6824 -0.5107 -1.3724
  401MOL0     H54091   5.920   1.725   3.962 -3.2042 -0.0404  0.3507
  401MOL0     H54092   5.952   1.768   3.790  2.2453  3.2432 -1.1599
  401MOL0     H54093   5.728   1.821   3.886  0.7027 -0.0844 -0.5818
  401MOL0     H54094   5.798   1.956   3.809 -3.4665 -2.5660 -1.4849
  401MOL0     H54095   5.665   2.158   3.877  0.8429 -0.8414 -0.5448
  401MOL0     H54096   5.669   2.391   3.956 -0.0652 -1.2864 -1.9344
  401MOL0     H54097   5.980   2.688   3.922  0.2344  0.5375 -3.5547
  401MOL0     H54098   6.013   2.896   3.829  0.1803  2.9420  2.2700
  401MOL0     H54099   6.016   3.091   3.739  0.7637  2.0502  0.7216
  401MOL0     H54100   5.913   3.046   3.604 -4.1145 -1.0487  0.6660
  401MOL0     H54101   5.826   3.277   3.603  1.5654  0.5563 -0.8417
  401MOL0     H54102   5.921   3.321   3.745  2.9655  0.9099  0.1218
  401MOL0     H54103   6.038   3.280   3.485  0.5246 -0.0334 -0.0268
  401MOL0     H54104   6.048   3.421   3.600 -2.7084  0.5705 -2.8889
  401MOL0     H54105   6.202   3.154   3.606  3.2401  1.0616 -1.8524
  401MOL0     H54106   6.161   3.268   3.740 -3.1898  1.1696 -1.4963
  401MOL0     H54107   6.276   3.428   3.580  1.0822 -0.1050  0.7532
  401MOL0     H54108   6.310   3.299   3.467 -0.8611  2.1364 -0.1544
  401MOL0     H54109   6.470   3.193   3.622  1.4206 -0.5270  1.5270
  401MOL0     H54110   6.518   3.356   3.603  2.3327 -3.5548  1.4472
  401MOL0     H54111   6.349   3.242   3.822 -1.1897  0.7018 -1.4266
  401MOL0     H54112   6.385   3.413   3.822  2.0681  0.7148  0.7370
  401MOL0     H54113   6.557   3.325   3.980  0.3671 -0.7109 -0.1997
  401MOL0     H54114   6.583   3.186   3.876 -1.2253 -1.2627 -3.5717
  401MOL0     H54115   5.594   2.983   3.846  3.1490  2.3934 -1.1529
  401MOL0     H54116   5.563   2.761   3.980 -1.7824  2.8753 -1.4004
  401MOL0     H54117   5.966   2.306   4.254  0.8069  0.3294 -0.6815
  401MOL0     H54118   5.935   2.070   4.222  1.7220 -0.7430 -0.9682
  401MOL0     H54119   6.261   2.196   4.761 -0.5293  1.3999  0.3524
  401MOL0     H54120   6.037   2.219   4.879 -1.1250  2.0449  0.6295
  401MOL0     H54121   5.875   2.126   5.319 -0.4854  1.2917  0.9540
  401MOL0     H54122   5.705   2.117   5.470  2.4514  1.1337  0.0254
  401MOL0     H54123   5.325   2.150   5.404  2.1230 -0.3493  0.6191
  401MOL0     H54124   5.335   2.297   5.321  1.6998  0.1902  0.3437
  401MOL0     H54125   5.240   2.424   5.522  0.3873  0.1716  0.0461
  401MOL0     H54126   5.261   2.283   5.620  1.8985 -0.2241 -0.5439
  401MOL0     H54127   5.081   2.162   5.506 -0.0080 -0.0827  0.3152
  401MOL0     H54128   5.080   2.280   5.373  2.5869 -0.3968 -1.0723
  401MOL0     H54129   4.975   2.437   5.494 -0.7935 -0.3917 -0.1132
  401MOL0     H54130   4.897   2.278   5.538 -0.0385  0.1933  0.7929
  401MOL0     H54131   5.046   2.426   5.912  1.2265 -2.3964  0.5802
  401MOL0     H54132   5.491   2.425   5.280  0.4907  0.4127  0.5365
  401MOL0     H54133   5.617   2.594   5.186  0.7101 -1.8373  4.0732
  401MOL0     H54134   5.767   2.556   5.089 -1.6191  0.2243 -1.6955
  401MOL0     H54135   5.620   2.489   5.036  0.7850  1.8219 -2.0246
  402MOL0     O54136   6.295  11.271  11.050  0.2312  0.5253  0.6594
  402MOL0     C54137   6.341  11.166  11.094  0.0153 -0.0262  0.4789
  402MOL0     O54138   6.468  11.154  11.153 -1.1782 -0.6572  0.2134
  402MOL0     C54139   6.542  11.261  11.186 -1.2027  0.0025  0.2930
  402MOL0     C54140   6.576  11.284  11.323 -0.4759  0.6846 -0.8996
  402MOL0     C54141   6.671  11.388  11.360  0.7032  0.5635 -0.1364
  402MOL0     C54142   6.719  11.477  11.266 -0.0148  0.8422  0.0120
  402MOL0     O54143   6.800  11.583  11.305 -0.5541  0.6184 -0.2213
  402MOL0     C54144   6.811  11.711  11.228 -0.2819  0.8646  0.2855
  402MOL0     C54145   6.701  11.796  11.256  0.1080 -0.3452 -0.2959
  402MOL0     C54146   6.715  11.881  11.391 -0.8818  0.7291  0.4776
  402MOL0     C54147   6.741  11.790  11.515  0.4542 -1.0809 -0.0409
  402MOL0     C54148   6.730  11.865  11.650 -0.0364  0.5655 -0.4843
  402MOL0     C54149   6.845  11.960  11.661  0.6181 -0.0659  0.1574
  402MOL0     C54150   6.829  12.017  11.804 -0.3813  0.5616 -0.5403
  402MOL0     C54151   6.922  12.134  11.826 -0.2765  0.3042 -0.0294
  402MOL0     N54152   7.066  12.098  11.827  0.2764  0.5354  0.6241
  402MOL0     C54153   7.126  12.069  11.931  0.3008  1.2186  0.1963
  402MOL0     C54154   7.251  12.089  11.895  0.3149 -1.2203 -1.2647
  402MOL0     C54155   7.355  12.089  11.998  0.5039  0.5968 -0.4159
  402MOL0     C54156   7.396  12.226  12.058 -0.0662  0.0257 -0.1612
  402MOL0     C54157   7.452  12.322  11.948  0.4857 -0.0619  0.2597
  402MOL0     C54158   7.498  12.452  11.996 -0.0143  0.8005 -0.3406
  402MOL0     O54159   7.576  12.433  12.117  0.0951 -0.2945  0.3224
  402MOL0     C54160   7.564  12.521  12.217  0.0574  0.2248 -0.2879
  402MOL0     C54161   7.671  12.523  12.304 -2.1251  0.3271 -0.6433
  402MOL0     C54162   7.672  12.596  12.422 -0.8047 -1.1644 -0.9830
  402MOL0     C54163   7.555  12.676  12.464 -0.2516  1.6194  0.4195
  402MOL0     C54164   7.528  12.720  12.600 -0.4755 -0.1675 -0.1636
  402MOL0     O54165   7.639  12.735  12.678 -0.4439 -0.1608 -0.3008
  402MOL0     C54166   7.631  12.778  12.806  0.1392 -0.2016  0.4387
  402MOL0     C54167   7.647  12.696  12.913  0.7591 -0.1963 -0.1660
  402MOL0     C54168   7.647  12.742  13.047 -0.3134  0.0273  0.1877
  402MOL0     C54169   7.630  12.879  13.073  0.6290  0.3208  1.5125
  402MOL0     O54170   7.627  12.918  13.201  0.4854 -0.4856 -0.5101
  402MOL0     C54171   7.579  13.054  13.240  0.3381 -0.0894 -0.4186
  402MOL0     C54172   7.422  13.059  13.265 -0.3663 -0.7243  0.5180
  402MOL0     C54173   7.386  13.192  13.332  0.4883 -0.0075  0.5034
  402MOL0     C54174   7.231  13.209  13.319  0.4496 -0.0086  0.4739
  402MOL0     C54175   7.187  13.345  13.372 -1.0883  0.3746 -0.0023
  402MOL0     C54176   7.044  13.408  13.337 -0.0487  0.7314 -1.2907
  402MOL0     C54177   7.047  13.565  13.363  0.3391 -0.2584  0.4556
  402MOL0     C54178   7.102  13.597  13.506 -0.6312  0.4177 -0.3497
  402MOL0    Cl54179   7.009  13.530  13.634  0.5173  0.2157 -0.2503
  402MOL0     C54180   7.622  12.966  12.960 -0.5244  0.5676 -0.2911
  402MOL0     C54181   7.613  12.915  12.831 -0.2499  0.4176  1.9760
  402MOL0     O54182   7.414  12.750  12.630 -1.2307  0.0044 -1.5189
  402MOL0     C54183   7.442  12.662  12.374 -0.5104 -0.2588 -0.5403
  402MOL0     C54184   7.448  12.600  12.248 -0.5197  0.3179  0.0710
  402MOL0     N54185   7.272  12.128  11.771  1.2917  0.4715 -0.1066
  402MOL0     N54186   7.148  12.130  11.727  0.1272  0.6478 -1.0691
  402MOL0     C54187   6.685  11.455  11.131  0.6088  0.7135  0.8326
  402MOL0     C54188   6.601  11.346  11.097  0.9790  0.2201  0.7883
  402MOL0     C54189   6.271  11.032  11.077 -0.2010  0.1333 -0.8594
  402MOL0     C54190   6.358  10.922  11.052  0.5931 -0.7502 -1.1838
  402MOL0     C54191   6.314  10.790  11.050 -0.3009  0.5138 -0.0474
  402MOL0     C54192   6.174  10.766  11.067  0.0021  0.1987  0.6789
  402MOL0     O54193   6.124  10.634  11.059  0.0625  0.0512  0.2382
  402MOL0     C54194   6.012  10.607  10.980  0.5564  0.4637  1.2471
  402MOL0     C54195   6.033  10.466  10.920  0.8982  0.4667 -0.4033
  402MOL0     C54196   5.930  10.424  10.818 -0.8437  0.4335  0.1738
  402MOL0     C54197   5.934  10.272  10.790  0.0554  0.2042  0.1028
  402MOL0     C54198   6.036  10.234  10.688  0.9110 -0.9289  0.1153
  402MOL0     C54199   6.102  10.186  10.593  0.1199  0.0993 -0.8050
  402MOL0     C54200   6.088  10.882  11.084  0.4652  0.9320  0.5924
  402MOL0     C54201   6.135  11.016  11.076  0.6331 -0.2749  0.3963
  402MOL0     C54202   6.041  11.133  11.085 -1.1078  1.1622 -0.1027
  402MOL0     H54203   6.534  11.208  11.387  1.4621 -0.0572 -0.4263
  402MOL0     H54204   6.694  11.407  11.464  1.1410 -1.4839  0.1934
  402MOL0     H54205   6.901  11.766  11.258  2.3045 -1.6929 -2.0183
  402MOL0     H54206   6.826  11.698  11.120  0.4273  3.4457  0.0165
  402MOL0     H54207   6.605  11.745  11.263 -0.7226  1.3610  3.0256
  402MOL0     H54208   6.689  11.862  11.169 -0.2073 -1.4377 -1.1046
  402MOL0     H54209   6.623  11.937  11.409 -1.0901  1.2062 -1.7561
  402MOL0     H54210   6.801  11.948  11.384 -0.3656  0.0535  0.2265
  402MOL0     H54211   6.671  11.706  11.506  0.8935 -1.2118 -3.4065
  402MOL0     H54212   6.842  11.752  11.501  1.0302  1.1667 -2.7086
  402MOL0     H54213   6.637  11.920  11.633  0.8014  1.5517 -2.2221
  402MOL0     H54214   6.730  11.797  11.735  1.8716  3.9486  2.4813
  402MOL0     H54215   6.943  11.918  11.638  0.8266  0.0244  0.8394
  402MOL0     H54216   6.829  12.038  11.586 -2.7466 -2.1002 -1.4500
  402MOL0     H54217   6.857  11.949  11.884  1.4797  0.5611 -1.1306
  402MOL0     H54218   6.724  12.041  11.820 -1.3517 -1.4442 -3.1676
  402MOL0     H54219   6.917  12.206  11.744  1.6119  0.7257  0.1869
  402MOL0     H54220   6.889  12.175  11.922 -3.0582 -0.2686 -0.6504
  402MOL0     H54221   7.084  12.039  12.026  0.0504  1.7712  0.2640
  402MOL0     H54222   7.325  12.023  12.079  0.6561  2.0749  0.8815
  402MOL0     H54223   7.444  12.043  11.953 -1.1435 -2.6445 -0.6904
  402MOL0     H54224   7.320  12.277  12.119  0.4427 -1.7755  2.1084
  402MOL0     H54225   7.469  12.203  12.136 -0.6281 -1.0554  0.0560
  402MOL0     H54226   7.388  12.336  11.860  0.2052 -1.6130  0.1720
  402MOL0     H54227   7.545  12.280  11.909  1.2511  2.9201 -1.3593
  402MOL0     H54228   7.409  12.511  12.019 -1.4848 -1.2874 -0.3952
  402MOL0     H54229   7.564  12.493  11.918 -0.4348  1.2254 -0.4748
  402MOL0     H54230   7.760  12.466  12.282 -3.0109 -1.0855 -0.7450
  402MOL0     H54231   7.755  12.604  12.491 -2.3099  4.5939  0.7224
  402MOL0     H54232   7.642  12.589  12.901  2.1131 -0.5737  2.0151
  402MOL0     H54233   7.657  12.668  13.126 -1.2890 -1.0124 -0.6265
  402MOL0     H54234   7.622  13.080  13.338  0.3619 -0.3288 -0.3661
  402MOL0     H54235   7.615  13.133  13.173  0.1856  0.7475  0.4568
  402MOL0     H54236   7.377  13.046  13.166  0.4582  0.0715  0.0167
  402MOL0     H54237   7.384  12.971  13.318  1.5152 -2.5285 -0.9756
  402MOL0     H54238   7.431  13.193  13.432  5.0722  1.3491 -1.3299
  402MOL0     H54239   7.434  13.271  13.274  1.0830 -0.4071  0.4513
  402MOL0     H54240   7.175  13.136  13.378 -0.3780 -2.4654 -3.0774
  402MOL0     H54241   7.198  13.194  13.216  1.8456 -0.0339  0.0061
  402MOL0     H54242   7.259  13.421  13.341  1.3427 -1.0205  1.8756
  402MOL0     H54243   7.202  13.334  13.480  2.2854  2.9992 -0.0555
  402MOL0     H54244   7.012  13.399  13.233  1.4298  2.5607 -1.9580
  402MOL0     H54245   6.971  13.364  13.406  1.1821 -0.8915 -0.9631
  402MOL0     H54246   6.952  13.619  13.352 -0.0741 -0.6476  1.9234
  402MOL0     H54247   7.109  13.619  13.291 -0.6740  0.7244  0.2870
  402MOL0     H54248   7.205  13.562  13.517 -0.4670  0.9359 -0.1998
  402MOL0     H54249   7.103  13.705  13.528  0.7742  0.0752  1.4566
  402MOL0     H54250   7.613  13.074  12.969 -0.2643  0.4790  1.4099
  402MOL0     H54251   7.590  12.977  12.745 -2.0887 -1.8739  0.7049
  402MOL0     H54252   7.350  12.715  12.399  0.5379  0.9177  1.0325
  402MOL0     H54253   7.352  12.602  12.198 -2.5901  1.0729  3.7690
  402MOL0     H54254   6.716  11.526  11.055 -0.2728  1.2168  0.9168
  402MOL0     H54255   6.578  11.324  10.993  1.0488  0.1036  0.7981
  402MOL0     H54256   6.464  10.943  11.040  0.4200  0.4032 -0.8484
  402MOL0     H54257   6.398  10.722  11.051 -0.6165  0.0963  1.5233
  402MOL0     H54258   6.004  10.672  10.892  1.9702 -4.1348 -2.7376
  402MOL0     H54259   5.922  10.614  11.041 -0.5815 -0.4866 -0.2439
  402MOL0     H54260   6.043  10.394  11.001 -2.7516 -0.1032 -0.2894
  402MOL0     H54261   6.132  10.469  10.873  0.7511 -2.2142 -1.0683
  402MOL0     H54262   5.953  10.488  10.733  2.3994  0.1089  0.6968
  402MOL0     H54263   5.833  10.453  10.859 -0.7491  2.7464 -1.1011
  402MOL0     H54264   5.937  10.219  10.885 -1.0714 -1.6610 -0.8386
  402MOL0     H54265   5.841  10.241  10.742 -0.6996  0.8945  1.0858
  402MOL0     H54266   6.158  10.151  10.509  0.2786 -0.7339 -0.3602
  402MOL0     H54267   5.981  10.866  11.095  0.5560 -2.0889 -1.5705
  402MOL0     H54268   5.942  11.093  11.061  0.1176 -1.3091 -1.2965
  402MOL0     H54269   6.039  11.174  11.187 -1.3218 -3.4839  2.0233
  402MOL0     H54270   6.067  11.211  11.013  0.0280  0.8478 -0.0455
  403MOL0     O54271   7.599   1.612   4.765  0.8805 -0.4155 -0.6444
  403MOL0     C54272   7.519   1.679   4.694  0.2690  0.4562 -0.3935
  403MOL0     O54273   7.382   1.687   4.714  0.5805  0.5735  0.0625
  403MOL0     C54274   7.309   1.575   4.750  0.9744  0.4396  0.6746
  403MOL0     C54275   7.172   1.595   4.763 -0.0614 -0.6736 -0.1000
  403MOL0     C54276   7.087   1.486   4.806 -0.1174  0.3321  0.5225
  403MOL0     C54277   7.142   1.361   4.837 -0.3151  0.4141  0.6548
  403MOL0     O54278   7.064   1.255   4.887 -0.3887 -0.6114 -0.1745
  403MOL0     C54279   7.100   1.175   4.995  0.7999 -0.4328  0.0804
  403MOL0     C54280   7.005   1.053   5.019  0.0788  0.4571  0.0954
  403MOL0     C54281   6.861   1.094   5.073 -0.8018 -0.2907 -0.1892
  403MOL0     C54282   6.756   1.006   5.004  0.0040 -0.3580 -0.6876
  403MOL0     C54283   6.616   1.023   5.077  0.8738 -0.7360  0.7216
  403MOL0     C54284   6.510   0.961   4.988  0.4858  0.2416  0.5083
  403MOL0     C54285   6.378   0.939   5.068  0.5992  0.6818  0.6543
  403MOL0     C54286   6.378   0.804   5.143 -0.2672 -0.2187 -0.7205
  403MOL0     N54287   6.294   0.796   5.263  0.1449  0.6620 -0.1154
  403MOL0     C54288   6.258   0.895   5.341  0.0409  0.7172 -0.4144
  403MOL0     C54289   6.188   0.843   5.449 -0.3888 -0.0941 -0.2084
  403MOL0     C54290   6.120   0.918   5.569 -0.0759 -0.9157  0.0819
  403MOL0     C54291   6.011   1.014   5.520  0.0524 -0.4084  0.1686
  403MOL0     C54292   5.966   1.100   5.637 -0.0391  0.3030  0.2705
  403MOL0     C54293   5.844   1.186   5.610  0.0045  0.3228  0.3397
  403MOL0     O54294   5.881   1.289   5.513 -0.5135 -0.1287  0.6223
  403MOL0     C54295   5.898   1.421   5.557 -0.1374  0.2855  0.8358
  403MOL0     C54296   5.874   1.524   5.464 -0.6402  0.6922 -0.2425
  403MOL0     C54297   5.894   1.655   5.498  0.7338 -0.7249  0.0883
  403MOL0     C54298   5.934   1.699   5.624  0.5631  0.5544 -0.3367
  403MOL0     C54299   5.941   1.836   5.662 -0.8090 -0.4960  0.0036
  403MOL0     O54300   5.910   1.925   5.566  0.8382  0.1315 -0.7270
  403MOL0     C54301   5.934   2.058   5.586 -1.1437 -0.3692 -1.0303
  403MOL0     C54302   5.866   2.142   5.678 -0.1067  0.7343 -0.3821
  403MOL0     C54303   5.905   2.264   5.716  1.1448  0.2793  0.1038
  403MOL0     C54304   6.015   2.317   5.654 -0.6632  0.3706 -0.1003
  403MOL0     O54305   6.043   2.446   5.673 -0.3324 -0.6462 -0.2302
  403MOL0     C54306   5.932   2.529   5.702  0.5558  0.1031  0.5063
  403MOL0     C54307   5.964   2.667   5.651  0.2977  0.1756 -0.5685
  403MOL0     C54308   5.952   2.679   5.497  0.0858 -0.0805  0.0694
  403MOL0     C54309   6.060   2.612   5.407  0.1933  0.4871  0.4944
  403MOL0     C54310   6.068   2.666   5.251  0.5395 -1.0460  0.5373
  403MOL0     C54311   6.192   2.618   5.173  0.6034  0.2932 -0.0490
  403MOL0     C54312   6.206   2.670   5.026  0.3737 -0.1498 -0.2731
  403MOL0     C54313   6.123   2.593   4.921 -0.0335  0.2125 -0.0673
  403MOL0    Cl54314   6.122   2.648   4.750 -0.0714 -0.1241  0.3038
  403MOL0     C54315   6.088   2.246   5.558  0.5523  0.5330 -0.1045
  403MOL0     C54316   6.049   2.115   5.526 -0.5010 -0.5496 -0.3077
  403MOL0     O54317   5.983   1.872   5.775  0.1677  0.0270  0.0921
  403MOL0     C54318   5.961   1.599   5.714  0.1553 -0.0397  0.2303
  403MOL0     C54319   5.935   1.462   5.685 -0.6452 -0.0589 -0.5087
  403MOL0     N54320   6.187   0.706   5.427 -0.2377  0.6662  0.2623
  403MOL0     N54321   6.271   0.677   5.327 -0.0990  0.8796  0.4076
  403MOL0     C54322   7.286   1.345   4.818 -0.7197 -0.2028  0.0615
  403MOL0     C54323   7.368   1.449   4.777  0.0365 -0.7134  0.2653
  403MOL0     C54324   7.587   1.761   4.586 -0.6835  0.8294 -0.0328
  403MOL0     C54325   7.503   1.799   4.490 -0.0354 -0.7865 -0.1985
  403MOL0     C54326   7.532   1.881   4.386  0.1289  0.2973 -0.5288
  403MOL0     C54327   7.660   1.912   4.364 -0.0606 -0.4842  0.2273
  403MOL0     O54328   7.684   2.011   4.270  0.4631 -0.3435  0.0112
  403MOL0     C54329   7.821   2.030   4.230  0.1483 -0.9106  0.1154
  403MOL0     C54330   7.849   2.098   4.100 -0.3092 -0.3739 -0.6313
  403MOL0     C54331   7.800   2.009   3.986 -0.7360 -0.3088  0.9436
  403MOL0     C54332   7.857   2.060   3.853  0.0555  0.2953 -0.3676
  403MOL0     C54333   7.798   1.996   3.726  0.3389 -0.7261  0.2676
  403MOL0     C54334   7.774   1.938   3.624  0.3005  0.4673 -0.0076
  403MOL0     C54335   7.759   1.868   4.461  0.4279  0.7073 -0.1345
  403MOL0     C54336   7.723   1.789   4.566  0.0813 -0.8076 -0.2525
  403MOL0     C54337   7.840   1.746   4.645  0.1354 -0.5656 -0.5425
  403MOL0     H54338   7.130   1.694   4.748  0.6696  0.3811  3.8698
  403MOL0     H54339   6.981   1.511   4.808  0.0384  0.9804  1.4169
  403MOL0     H54340   7.201   1.137   4.977  1.7161  0.5969  2.6364
  403MOL0     H54341   7.106   1.234   5.087 -4.6539  2.8128 -1.1934
  403MOL0     H54342   7.049   0.990   5.097 -1.9966 -1.7212 -0.3728
  403MOL0     H54343   7.002   0.998   4.925  2.4627 -0.1724  0.3246
  403MOL0     H54344   6.837   1.198   5.049  0.2842 -0.0206 -0.1609
  403MOL0     H54345   6.854   1.088   5.181  3.4223 -0.3992  0.2732
  403MOL0     H54346   6.759   1.041   4.900  1.0070 -0.0183 -0.5488
  403MOL0     H54347   6.776   0.898   5.005  0.1395 -0.3333  0.4196
  403MOL0     H54348   6.617   0.984   5.179 -0.3905  3.9346  2.8071
  403MOL0     H54349   6.595   1.128   5.097 -2.3347 -0.8301 -1.3761
  403MOL0     H54350   6.507   1.032   4.905 -2.6420 -0.4978 -0.1285
  403MOL0     H54351   6.552   0.869   4.946  3.1576  2.5849 -2.4568
  403MOL0     H54352   6.308   0.941   4.984  2.3174  0.1860 -0.8508
  403MOL0     H54353   6.352   1.021   5.136 -1.2573 -0.8954  1.9571
  403MOL0     H54354   6.339   0.726   5.077 -3.2124 -1.3104  2.0825
  403MOL0     H54355   6.480   0.788   5.180 -0.9419 -1.0072  0.9190
  403MOL0     H54356   6.275   1.002   5.330  1.0772  0.6747  0.6079
  403MOL0     H54357   6.062   0.849   5.632  2.4103 -0.0482  3.6466
  403MOL0     H54358   6.209   0.963   5.613  1.8835 -1.8696 -2.6121
  403MOL0     H54359   6.028   1.077   5.432 -0.8649  0.6374  0.7134
  403MOL0     H54360   5.924   0.963   5.477 -0.3527  0.6802 -0.3448
  403MOL0     H54361   6.046   1.162   5.678  1.2559 -1.7507  0.9472
  403MOL0     H54362   5.940   1.042   5.725  0.3807 -0.1179  0.1180
  403MOL0     H54363   5.806   1.214   5.709 -1.2066 -0.6488  0.1628
  403MOL0     H54364   5.755   1.134   5.576  0.2291 -0.2935  0.6710
  403MOL0     H54365   5.861   1.504   5.358  0.4352  0.7620 -0.4006
  403MOL0     H54366   5.865   1.725   5.420  1.1012 -4.0164 -3.2909
  403MOL0     H54367   5.782   2.103   5.734 -1.6743  1.8047 -1.8864
  403MOL0     H54368   5.838   2.298   5.795  0.7341 -1.4458  0.5467
  403MOL0     H54369   5.855   2.486   5.637 -0.3479  2.8622 -0.3850
  403MOL0     H54370   5.892   2.517   5.804 -0.3103  1.9406  0.4354
  403MOL0     H54371   5.889   2.730   5.701 -3.0348 -0.6385 -4.1219
  403MOL0     H54372   6.064   2.699   5.684 -0.0621  0.5474  0.1791
  403MOL0     H54373   5.856   2.649   5.456  0.2579 -2.6468  1.2723
  403MOL0     H54374   5.938   2.785   5.478 -4.6913 -0.4587  0.3093
  403MOL0     H54375   6.042   2.505   5.392 -0.9790  0.5200  1.5523
  403MOL0     H54376   6.154   2.627   5.462  1.5567 -0.0418 -1.5551
  403MOL0     H54377   6.061   2.775   5.246 -3.0545 -1.0145  2.6541
  403MOL0     H54378   5.974   2.634   5.204 -0.1174 -1.1728  1.8904
  403MOL0     H54379   6.282   2.656   5.221  0.7795 -0.2824  0.0808
  403MOL0     H54380   6.190   2.508   5.181  1.2874  0.4079  3.2521
  403MOL0     H54381   6.308   2.678   4.990  2.8493  3.3209  6.0366
  403MOL0     H54382   6.159   2.768   5.032 -0.9945 -0.6131 -2.2571
  403MOL0     H54383   6.137   2.486   4.934  2.2823  0.6899  2.1691
  403MOL0     H54384   6.018   2.606   4.949 -0.2303 -0.2136 -0.6045
  403MOL0     H54385   6.162   2.302   5.502  1.3743 -0.4216 -0.0073
  403MOL0     H54386   6.102   2.051   5.457  3.6698 -0.0690  2.1177
  403MOL0     H54387   6.011   1.631   5.806  2.4685  0.0043 -0.9568
  403MOL0     H54388   5.943   1.385   5.761 -2.4560 -0.6274 -0.8236
  403MOL0     H54389   7.323   1.243   4.825 -0.6135 -0.1767 -0.1037
  403MOL0     H54390   7.470   1.418   4.759  0.0046 -0.5579 -0.2171
  403MOL0     H54391   7.399   1.769   4.482  0.3118 -1.7678 -1.4544
  403MOL0     H54392   7.452   1.917   4.321  0.1998 -0.9022 -1.3010
  403MOL0     H54393   7.864   1.930   4.218  1.3605 -0.4879  0.7618
  403MOL0     H54394   7.883   2.080   4.305 -1.0919  1.8929 -0.5922
  403MOL0     H54395   7.956   2.122   4.098 -0.2839 -0.1441  1.3905
  403MOL0     H54396   7.810   2.199   4.114 -3.4056 -1.6556  0.7854
  403MOL0     H54397   7.696   2.043   3.982 -0.4323  0.6699 -2.7867
  403MOL0     H54398   7.809   1.900   3.990  1.1200 -0.2511 -0.3994
  403MOL0     H54399   7.848   2.167   3.833 -1.5662  0.9854  3.2945
  403MOL0     H54400   7.962   2.032   3.862 -0.0914 -0.9867 -2.0995
  403MOL0     H54401   7.758   1.896   3.527 -1.5379  0.5949  0.2040
  403MOL0     H54402   7.861   1.904   4.459  0.1805  1.5408  1.0750
  403MOL0     H54403   7.826   1.789   4.745 -1.7082 -0.9750 -0.5879
  403MOL0     H54404   7.839   1.636   4.649 -2.5585 -0.5802  1.9439
  403MOL0     H54405   7.937   1.781   4.607  1.3708 -4.1576 -1.0737
  404MOL0     O54406   2.327   9.559   2.213  0.1953  0.1521 -0.3074
  404MOL0     C54407   2.443   9.518   2.207 -0.7873  0.1310 -0.2818
  404MOL0     O54408   2.484   9.384   2.189  0.3435 -0.0703  0.1449
  404MOL0     C54409   2.382   9.305   2.125 -0.3156 -0.3020 -0.1920
  404MOL0     C54410   2.276   9.253   2.203  0.3916 -0.5976  0.6688
  404MOL0     C54411   2.185   9.162   2.141 -0.1193  0.5588  0.5506
  404MOL0     C54412   2.189   9.133   2.008 -0.0318  0.0921 -0.1279
  404MOL0     O54413   2.079   9.060   1.966 -0.7280  0.3440 -0.5408
  404MOL0     C54414   2.092   8.980   1.849 -0.0090  0.1530  1.4542
  404MOL0     C54415   2.185   8.856   1.854  0.3134  0.0135  0.1823
  404MOL0     C54416   2.179   8.758   1.978 -0.7465 -0.3398  1.0293
  404MOL0     C54417   2.041   8.722   2.028 -0.0094  0.0671  0.2517
  404MOL0     C54418   1.971   8.643   1.925 -0.6521  0.7355 -0.4955
  404MOL0     C54419   1.829   8.586   1.961  0.2600  0.4903  0.2485
  404MOL0     C54420   1.794   8.467   1.879 -0.4446  1.1908  0.4849
  404MOL0     C54421   1.650   8.403   1.905 -0.1940 -0.5958 -0.2596
  404MOL0     N54422   1.673   8.256   1.886  0.0778 -0.0418 -0.6142
  404MOL0     C54423   1.744   8.176   1.961 -0.0127  0.3903 -0.4091
  404MOL0     C54424   1.743   8.052   1.900 -0.4816 -0.0754  0.3309
  404MOL0     C54425   1.770   7.907   1.957 -0.2478 -0.0789  0.4460
  404MOL0     C54426   1.857   7.821   1.852 -0.3367  0.7580 -0.4814
  404MOL0     C54427   1.940   7.719   1.920 -0.7688  0.5564  0.3454
  404MOL0     C54428   2.000   7.613   1.828  0.3413 -0.4549  0.3728
  404MOL0     O54429   2.057   7.507   1.905  0.0248  0.0446 -0.3553
  404MOL0     C54430   2.178   7.532   1.971  0.2194 -0.7502  1.1494
  404MOL0     C54431   2.292   7.519   1.901  0.1069 -0.0807  0.6675
  404MOL0     C54432   2.415   7.547   1.958  0.3697  0.8303 -0.0308
  404MOL0     C54433   2.421   7.600   2.084  0.0398  0.4945 -0.2669
  404MOL0     C54434   2.560   7.636   2.128  0.0585 -0.7359 -0.2042
  404MOL0     O54435   2.672   7.568   2.081  0.8244  0.1297  0.4859
  404MOL0     C54436   2.788   7.592   2.144  0.5102  0.1722  0.2217
  404MOL0     C54437   2.907   7.597   2.064  0.4565 -0.4159 -0.5297
  404MOL0     C54438   3.034   7.619   2.120  0.3938 -1.6607  0.2998
  404MOL0     C54439   3.043   7.616   2.256 -0.1730  0.1547  0.4221
  404MOL0     O54440   3.162   7.621   2.317  0.3028 -0.5346 -0.0247
  404MOL0     C54441   3.253   7.732   2.309  0.7222 -0.2249  0.9308
  404MOL0     C54442   3.216   7.848   2.410 -0.1660  0.4360  0.2552
  404MOL0     C54443   3.295   7.976   2.411  0.1793 -0.1854  0.5710
  404MOL0     C54444   3.218   8.082   2.493  0.6181 -0.5527  1.1224
  404MOL0     C54445   3.288   8.222   2.489  0.0470  0.2898 -0.1354
  404MOL0     C54446   3.287   8.296   2.355  0.4906  0.3138 -0.1859
  404MOL0     C54447   3.326   8.449   2.368  0.1134  0.1924  0.4112
  404MOL0     C54448   3.289   8.527   2.243  0.1649 -0.0583  0.5687
  404MOL0    Cl54449   3.262   8.693   2.284 -0.6361 -0.3561 -0.5496
  404MOL0     C54450   2.936   7.589   2.340  0.6033  0.6427  0.2630
  404MOL0     C54451   2.803   7.591   2.284  0.4402  0.1563 -0.2193
  404MOL0     O54452   2.561   7.738   2.200  0.4599 -0.2297 -0.6834
  404MOL0     C54453   2.301   7.605   2.159  0.3276 -0.2058 -0.9627
  404MOL0     C54454   2.177   7.586   2.098 -0.2155  0.9395  0.4064
  404MOL0     N54455   1.678   8.067   1.779 -0.1058  0.1197  0.4462
  404MOL0     N54456   1.647   8.186   1.772 -0.1431 -0.6048  0.0745
  404MOL0     C54457   2.295   9.180   1.935 -0.3374  0.2820 -0.0172
  404MOL0     C54458   2.388   9.274   1.992 -0.2988 -0.1021  0.0507
  404MOL0     C54459   2.560   9.613   2.242  0.3537  0.5167  0.4725
  404MOL0     C54460   2.678   9.563   2.300  0.8674  0.6327  0.3656
  404MOL0     C54461   2.781   9.651   2.341  0.6530 -0.2480  1.6060
  404MOL0     C54462   2.774   9.793   2.336 -0.2841 -0.1483 -0.5819
  404MOL0     O54463   2.877   9.861   2.400  0.2173  0.1671 -0.5900
  404MOL0     C54464   2.913   9.980   2.330  0.4143 -1.0456  0.0471
  404MOL0     C54465   2.988  10.068   2.420  0.2267 -0.0357 -0.2223
  404MOL0     C54466   3.106  10.011   2.496  0.5505 -0.4112  0.7075
  404MOL0     C54467   3.188   9.906   2.415 -0.6038 -0.0541 -0.0155
  404MOL0     C54468   3.323   9.880   2.465 -0.7089 -0.2794 -0.6638
  404MOL0     C54469   3.437   9.855   2.507  0.1098 -0.1615  0.2975
  404MOL0     C54470   2.659   9.838   2.280  0.0387 -0.8360 -0.0271
  404MOL0     C54471   2.562   9.759   2.228 -0.6497 -0.3476 -0.1059
  404MOL0     C54472   2.460   9.823   2.143  0.1013 -0.1230 -0.4706
  404MOL0     H54473   2.259   9.294   2.302 -0.1285  3.6892 -0.9613
  404MOL0     H54474   2.102   9.118   2.195 -0.3413 -0.6845 -0.7352
  404MOL0     H54475   1.992   8.949   1.820  0.6128 -0.2625 -0.3754
  404MOL0     H54476   2.121   9.039   1.762 -0.8354  2.4577  2.6399
  404MOL0     H54477   2.287   8.896   1.847  0.4031  0.0018  1.2354
  404MOL0     H54478   2.169   8.790   1.769  2.8460  0.9337 -1.1066
  404MOL0     H54479   2.238   8.816   2.050  1.1993 -2.0014  0.8369
  404MOL0     H54480   2.242   8.671   1.962 -1.2635 -1.5387  4.7399
  404MOL0     H54481   2.055   8.668   2.122 -1.5537 -1.5758 -0.3920
  404MOL0     H54482   1.987   8.815   2.048 -0.6856 -0.3233  0.2862
  404MOL0     H54483   1.956   8.690   1.828 -2.3568 -1.0375 -1.1594
  404MOL0     H54484   2.035   8.557   1.902  0.5082  1.8474 -1.6330
  404MOL0     H54485   1.824   8.564   2.068 -3.0027 -1.4214 -0.1594
  404MOL0     H54486   1.755   8.664   1.940  0.2912  0.5062  0.1987
  404MOL0     H54487   1.878   8.398   1.894 -2.0531 -0.7123  1.2469
  404MOL0     H54488   1.801   8.485   1.772  1.5291 -5.1737 -0.8775
  404MOL0     H54489   1.619   8.427   2.007  1.1924 -0.0493  0.0561
  404MOL0     H54490   1.566   8.438   1.846 -1.2889  0.7711  1.9630
  404MOL0     H54491   1.782   8.184   2.062 -1.0787 -2.4414  0.3097
  404MOL0     H54492   1.823   7.915   2.052 -2.6967 -2.2951  2.1700
  404MOL0     H54493   1.675   7.857   1.979 -0.0597 -0.0845  1.2490
  404MOL0     H54494   1.782   7.771   1.790 -0.8371  0.0255  0.6695
  404MOL0     H54495   1.924   7.890   1.800  3.0989  0.1199  2.6323
  404MOL0     H54496   1.881   7.671   1.999 -2.0544 -0.6712 -1.2841
  404MOL0     H54497   2.028   7.766   1.965 -0.2272  0.4170 -0.5378
  404MOL0     H54498   2.085   7.650   1.771 -1.0460  1.9586 -0.2585
  404MOL0     H54499   1.931   7.582   1.748 -0.1740 -0.1466  0.6925
  404MOL0     H54500   2.286   7.480   1.800 -2.2728 -0.6351  0.9766
  404MOL0     H54501   2.505   7.526   1.902  0.2666 -0.3129  0.2091
  404MOL0     H54502   2.904   7.585   1.957  0.2348 -1.4055 -0.4176
  404MOL0     H54503   3.119   7.637   2.055  0.6085 -4.8133 -0.4590
  404MOL0     H54504   3.354   7.705   2.341  0.1015 -1.4564  1.9489
  404MOL0     H54505   3.269   7.768   2.207 -1.3459 -0.3107  0.5268
  404MOL0     H54506   3.107   7.858   2.404 -0.2939 -0.7210  0.3551
  404MOL0     H54507   3.232   7.792   2.503 -0.1432  2.3944  1.4835
  404MOL0     H54508   3.395   7.967   2.455 -0.0673 -0.7470  1.0261
  404MOL0     H54509   3.319   8.003   2.308  0.5178 -0.0807  0.6772
  404MOL0     H54510   3.187   8.041   2.589 -3.8126 -1.3240 -0.3808
  404MOL0     H54511   3.122   8.096   2.443 -0.0009 -1.0506  2.1414
  404MOL0     H54512   3.386   8.202   2.533 -1.6632  0.7465  4.4845
  404MOL0     H54513   3.222   8.278   2.555 -0.6975  2.9611 -2.9192
  404MOL0     H54514   3.367   8.253   2.294 -0.1781  0.9225 -1.5262
  404MOL0     H54515   3.193   8.275   2.303  0.4773  4.3591 -2.1274
  404MOL0     H54516   3.434   8.443   2.384  0.1117 -3.0873 -0.0252
  404MOL0     H54517   3.283   8.493   2.459  3.8333  6.0792 -0.1796
  404MOL0     H54518   3.354   8.515   2.156 -1.1994 -1.6307 -0.2830
  404MOL0     H54519   3.192   8.495   2.205  0.1966  0.5650 -0.0566
  404MOL0     H54520   2.963   7.577   2.445  1.4438 -0.9755 -0.1214
  404MOL0     H54521   2.720   7.593   2.353  2.2552  2.9251  2.1219
  404MOL0     H54522   2.314   7.643   2.259 -0.6706 -0.0711 -0.8750
  404MOL0     H54523   2.084   7.624   2.138 -1.6332  0.6588 -2.3539
  404MOL0     H54524   2.313   9.144   1.835  2.0395  0.2835  0.3513
  404MOL0     H54525   2.470   9.304   1.927 -0.3279 -1.1639 -0.5083
  404MOL0     H54526   2.686   9.459   2.329  0.1321  0.0809 -1.2929
  404MOL0     H54527   2.874   9.615   2.383  2.3552  4.0469  2.0330
  404MOL0     H54528   2.823  10.032   2.296  0.2233  1.4237  3.7700
  404MOL0     H54529   2.979   9.951   2.248 -0.1080 -1.2683 -0.3002
  404MOL0     H54530   2.918  10.106   2.496  0.7545  1.6838 -0.5467
  404MOL0     H54531   3.025  10.152   2.360  0.1223 -0.6008 -1.1029
  404MOL0     H54532   3.078   9.969   2.593 -1.4426  2.3355  1.4686
  404MOL0     H54533   3.175  10.093   2.519  1.1460 -0.9773  0.9556
  404MOL0     H54534   3.137   9.809   2.412 -0.4337 -0.1940  1.2281
  404MOL0     H54535   3.192   9.941   2.311 -0.2541  1.3306  0.4450
  404MOL0     H54536   3.527   9.822   2.555  2.1289  3.9885 -0.1447
  404MOL0     H54537   2.641   9.945   2.286  2.3567 -0.3742 -0.1455
  404MOL0     H54538   2.506   9.824   2.043  0.5716 -2.0178 -0.3094
  404MOL0     H54539   2.365   9.771   2.129 -0.3004  0.1996  0.9267
  404MOL0     H54540   2.430   9.919   2.184 -0.3298 -1.2789  2.0933
  405MOL0     O54541   8.440   9.448  11.430 -0.2304  1.1932  0.1914
  405MOL0     C54542   8.441   9.441  11.558  0.6488  0.0255 -0.0119
  405MOL0     O54543   8.407   9.546  11.625  0.2514  0.4647 -0.7908
  405MOL0     C54544   8.371   9.660  11.562 -0.7554  0.3334 -0.5794
  405MOL0     C54545   8.472   9.754  11.517 -0.8347  0.4771  0.5108
  405MOL0     C54546   8.437   9.882  11.476  0.5527 -0.7885 -1.0182
  405MOL0     C54547   8.300   9.913  11.453  0.8854 -0.1369  0.1413
  405MOL0     O54548   8.271  10.032  11.387 -0.6494  0.1789 -0.4455
  405MOL0     C54549   8.148  10.095  11.426 -0.8141 -0.7656  0.4129
  405MOL0     C54550   8.136  10.240  11.363 -0.3317 -0.4918  0.1873
  405MOL0     C54551   8.037  10.333  11.420 -0.4062  0.1288  0.3175
  405MOL0     C54552   8.020  10.466  11.332  0.8470  1.0752  0.1908
  405MOL0     C54553   7.870  10.471  11.303  0.4364 -1.0207  0.5458
  405MOL0     C54554   7.842  10.589  11.198  0.1300  0.1334 -0.1515
  405MOL0     C54555   7.910  10.577  11.062 -0.3288 -0.6177  0.7998
  405MOL0     C54556   7.835  10.460  10.980  0.2718  0.4742 -0.6716
  405MOL0     N54557   7.890  10.449  10.834  0.0384 -0.6587 -0.1983
  405MOL0     C54558   7.916  10.338  10.769 -1.4962  0.5458 -0.1044
  405MOL0     C54559   7.968  10.380  10.649  0.7280 -1.2724  0.4479
  405MOL0     C54560   8.034  10.304  10.543  0.9836 -0.7976  0.0846
  405MOL0     C54561   8.138  10.388  10.467  0.0763 -0.4184 -0.1321
  405MOL0     C54562   8.239  10.305  10.388 -0.7217  0.2082 -0.0531
  405MOL0     C54563   8.234  10.142  10.397  0.1720  0.6970 -0.1237
  405MOL0     O54564   8.110  10.087  10.355  0.0946  0.5294  0.2554
  405MOL0     C54565   8.094  10.004  10.249 -0.4418  0.2078 -0.5390
  405MOL0     C54566   8.166  10.014  10.137  0.3551 -0.5222 -0.2630
  405MOL0     C54567   8.146   9.930  10.025  0.5242 -0.0130 -0.3675
  405MOL0     C54568   8.039   9.834  10.029  0.0875 -0.4764  0.7331
  405MOL0     C54569   8.024   9.748   9.912  1.3114 -0.1406 -0.0537
  405MOL0     O54570   8.097   9.773   9.795 -0.2534  0.3856  0.4709
  405MOL0     C54571   8.101   9.676   9.701 -1.2401  0.4340  0.1897
  405MOL0     C54572   8.034   9.693   9.586  0.2189  0.0396  0.8235
  405MOL0     C54573   8.042   9.601   9.482 -0.5766 -0.6583  0.1318
  405MOL0     C54574   8.094   9.478   9.518  0.3165  0.4334 -0.2367
  405MOL0     O54575   8.081   9.367   9.444 -0.1863  0.7121  0.3706
  405MOL0     C54576   8.026   9.384   9.312 -0.0315  0.9310 -0.0143
  405MOL0     C54577   8.036   9.236   9.258  0.8260  1.0028  0.1806
  405MOL0     C54578   8.179   9.176   9.267 -0.6040 -0.7663 -0.8551
  405MOL0     C54579   8.189   9.037   9.217 -0.3867 -0.0364  0.5880
  405MOL0     C54580   8.333   8.974   9.226 -0.0689 -0.9468  1.0379
  405MOL0     C54581   8.347   8.832   9.170  0.2251 -0.6916  1.0762
  405MOL0     C54582   8.263   8.721   9.224 -0.0082  0.5002 -0.6987
  405MOL0     C54583   8.274   8.597   9.139 -0.0666 -0.7946 -0.4797
  405MOL0    Cl54584   8.237   8.632   8.965  0.7274 -0.1347 -0.1824
  405MOL0     C54585   8.173   9.451   9.632 -0.2378 -0.4116 -0.5727
  405MOL0     C54586   8.182   9.558   9.725 -0.1244 -0.4668 -1.0190
  405MOL0     O54587   7.952   9.647   9.931  0.1849 -0.1968  0.1168
  405MOL0     C54588   7.961   9.826  10.146  0.1740  0.0626  0.5196
  405MOL0     C54589   7.987   9.916  10.252  0.4261  0.1050  0.3725
  405MOL0     N54590   7.969  10.519  10.642 -0.9537 -0.0537 -0.4627
  405MOL0     N54591   7.923  10.561  10.758 -0.6191  0.2502 -0.0194
  405MOL0     C54592   8.200   9.819  11.480  0.2140 -0.7536 -0.1245
  405MOL0     C54593   8.238   9.693  11.547  0.1968  0.1775  0.1072
  405MOL0     C54594   8.493   9.325  11.642 -0.1993  0.4846 -0.1445
  405MOL0     C54595   8.444   9.314  11.776  0.6128 -0.1568 -0.2310
  405MOL0     C54596   8.497   9.217  11.859 -0.1310 -0.2090 -0.1846
  405MOL0     C54597   8.596   9.131  11.814 -0.1414  0.2998 -0.1566
  405MOL0     O54598   8.645   9.046  11.909 -0.2719  0.8954  0.2159
  405MOL0     C54599   8.701   8.913  11.888 -0.0790 -0.6728  0.7237
  405MOL0     C54600   8.855   8.935  11.899 -1.0667  0.6052  0.8850
  405MOL0     C54601   8.935   8.809  11.883 -0.7073  0.1031 -0.1675
  405MOL0     C54602   9.009   8.777  11.746  0.1428 -0.6864  0.0674
  405MOL0     C54603   8.931   8.799  11.629  0.5093  0.2365 -0.6165
  405MOL0     C54604   8.877   8.817  11.524  0.4168  0.1814 -0.1093
  405MOL0     C54605   8.636   9.130  11.683  0.4761 -0.3002  0.2373
  405MOL0     C54606   8.582   9.231  11.600  0.3132  0.1272  0.3136
  405MOL0     C54607   8.654   9.245  11.464 -1.3701  0.0686  0.3200
  405MOL0     H54608   8.574   9.725  11.535 -0.9268 -1.6088 -1.8228
  405MOL0     H54609   8.512   9.958  11.459 -1.6922  1.3554 -2.0150
  405MOL0     H54610   8.067  10.028  11.394 -0.8048 -0.5742 -0.0196
  405MOL0     H54611   8.149  10.105  11.535 -0.6287 -0.3704  0.3762
  405MOL0     H54612   8.121  10.233  11.255  2.8895  0.6311 -0.4671
  405MOL0     H54613   8.235  10.285  11.378 -0.1262 -0.4324 -1.1638
  405MOL0     H54614   8.085  10.356  11.516  0.9547 -2.9877  0.5019
  405MOL0     H54615   7.946  10.275  11.439  0.1191 -1.3162 -1.2816
  405MOL0     H54616   8.054  10.560  11.375  0.4407  1.3487 -0.0772
  405MOL0     H54617   8.082  10.447  11.244  2.3100 -1.7034  1.6751
  405MOL0     H54618   7.829  10.373  11.277  2.7929 -1.6749 -1.0494
  405MOL0     H54619   7.827  10.502  11.399  1.5294  0.0083  0.7158
  405MOL0     H54620   7.733  10.597  11.203  0.1923  2.5241 -1.0703
  405MOL0     H54621   7.878  10.675  11.256  0.4409 -0.2943  0.3043
  405MOL0     H54622   8.017  10.564  11.075  0.2481 -0.8110 -2.9972
  405MOL0     H54623   7.901  10.672  11.007 -0.1050 -0.9272  0.2269
  405MOL0     H54624   7.848  10.360  11.021  0.2002  1.0374  0.8089
  405MOL0     H54625   7.729  10.487  10.980 -0.3537 -1.8101 -1.8948
  405MOL0     H54626   7.923  10.233  10.794  2.4517  0.2467 -1.6844
  405MOL0     H54627   8.084  10.214  10.580  1.2219  0.4602  3.1080
  405MOL0     H54628   7.952  10.271  10.478 -1.6027  2.0641  1.6489
  405MOL0     H54629   8.083  10.454  10.399  0.2593 -1.2224 -1.0800
  405MOL0     H54630   8.201  10.442  10.538 -1.0659  0.9688 -0.1230
  405MOL0     H54631   8.337  10.332  10.430 -1.0071 -0.7954  1.2807
  405MOL0     H54632   8.242  10.350  10.288  2.7834  1.1955  0.3303
  405MOL0     H54633   8.254  10.114  10.501  1.2751  2.5316  0.2104
  405MOL0     H54634   8.319  10.117  10.333  0.2982 -1.2768  0.7502
  405MOL0     H54635   8.238  10.093  10.114  0.7038 -0.9442 -0.6532
  405MOL0     H54636   8.211   9.945   9.939  0.3357 -2.5420 -1.0401
  405MOL0     H54637   7.963   9.775   9.582  0.3122  0.2318  2.5029
  405MOL0     H54638   7.982   9.618   9.394 -0.2920 -2.8866 -0.5477
  405MOL0     H54639   7.924   9.421   9.330 -0.1229  0.9613 -0.5836
  405MOL0     H54640   8.093   9.442   9.248  0.0169  0.9034  0.0119
  405MOL0     H54641   7.970   9.176   9.322  1.8776  0.6343  0.9489
  405MOL0     H54642   8.009   9.229   9.152  0.4972 -1.1483  0.3638
  405MOL0     H54643   8.245   9.247   9.215  0.7311 -0.4746  1.1323
  405MOL0     H54644   8.217   9.167   9.369 -1.2553 -1.5897 -0.6718
  405MOL0     H54645   8.159   9.052   9.113  1.4120  1.4850  0.2488
  405MOL0     H54646   8.117   8.969   9.264  1.5427 -2.1488  0.6798
  405MOL0     H54647   8.352   8.974   9.333 -0.1562  5.0681  1.4028
  405MOL0     H54648   8.409   9.035   9.175  0.2591 -1.5538  0.7957
  405MOL0     H54649   8.315   8.842   9.066  2.3392 -0.1608  0.4356
  405MOL0     H54650   8.454   8.808   9.171  0.1753 -1.1219 -0.4186
  405MOL0     H54651   8.155   8.734   9.238  0.0837 -0.0037  0.6776
  405MOL0     H54652   8.291   8.716   9.330  1.6584  3.4377 -0.8813
  405MOL0     H54653   8.371   8.548   9.153  0.1836 -0.7979 -2.0975
  405MOL0     H54654   8.210   8.523   9.187  1.7084 -4.6577 -3.5459
  405MOL0     H54655   8.212   9.354   9.661 -2.8088 -1.1372  0.7949
  405MOL0     H54656   8.240   9.549   9.817  2.8834 -0.3931 -2.7864
  405MOL0     H54657   7.878   9.757  10.149  1.6489 -1.7635  0.6837
  405MOL0     H54658   7.928   9.933  10.342  0.5066  2.2721  0.0820
  405MOL0     H54659   8.097   9.841  11.454 -0.6735 -0.9507  2.7988
  405MOL0     H54660   8.162   9.623  11.579  0.8667  0.8597  3.6128
  405MOL0     H54661   8.360   9.374  11.809  1.6332 -0.5827  3.6443
  405MOL0     H54662   8.457   9.212  11.960 -1.3898  0.4882 -0.6214
  405MOL0     H54663   8.667   8.877  11.790 -0.1639  2.5405 -0.5534
  405MOL0     H54664   8.668   8.838  11.960 -3.0671 -0.7943 -0.6035
  405MOL0     H54665   8.877   8.965  12.002  3.0422 -0.6148  0.5600
  405MOL0     H54666   8.888   9.006  11.823 -1.0982  2.4928  2.5751
  405MOL0     H54667   8.874   8.723  11.910  0.9347 -1.5974 -1.6207
  405MOL0     H54668   9.011   8.812  11.962 -0.5290  1.2810 -0.3688
  405MOL0     H54669   9.097   8.840  11.733  0.5037 -1.3031 -0.5252
  405MOL0     H54670   9.050   8.676  11.751  0.0429 -0.7238  0.1341
  405MOL0     H54671   8.823   8.829  11.433 -1.5049  1.8620  1.1728
  405MOL0     H54672   8.706   9.054  11.649 -2.0450 -3.1143  0.8839
  405MOL0     H54673   8.589   9.229  11.377 -0.1708  2.0788 -1.0410
  405MOL0     H54674   8.692   9.347  11.452  0.3854 -0.8500 -3.3652
  405MOL0     H54675   8.738   9.176  11.460 -0.2144  1.4753 -2.1384
  406MOL0     O54676   2.123   3.797   3.160 -0.2073  0.3537  0.0930
  406MOL0     C54677   2.173   3.848   3.257  0.4975 -0.9561  0.7206
  406MOL0     O54678   2.185   3.793   3.377 -0.4238  0.2359 -0.0483
  406MOL0     C54679   2.119   3.670   3.395 -0.3439 -0.6834 -0.3404
  406MOL0     C54680   1.987   3.642   3.364  0.8867 -0.3427 -0.2535
  406MOL0     C54681   1.935   3.525   3.380 -0.0937 -0.0795  0.2270
  406MOL0     C54682   2.019   3.421   3.424  0.6023  0.8342 -0.5650
  406MOL0     O54683   1.963   3.299   3.428  0.4901  0.1708  0.1966
  406MOL0     C54684   2.019   3.198   3.509 -0.8936  0.5806  0.8627
  406MOL0     C54685   1.947   3.064   3.495  0.2502 -0.1825 -1.6221
  406MOL0     C54686   1.914   3.026   3.356  0.7939  0.2064  0.9392
  406MOL0     C54687   1.839   2.890   3.351 -0.8060 -0.0886 -0.5953
  406MOL0     C54688   1.789   2.835   3.215 -0.4234  0.7031 -0.2559
  406MOL0     C54689   1.705   2.710   3.233  0.7124 -0.9280 -0.1124
  406MOL0     C54690   1.622   2.679   3.111  0.1590  1.1714 -0.3086
  406MOL0     C54691   1.531   2.562   3.150 -0.2801 -0.1842 -0.0423
  406MOL0     N54692   1.601   2.437   3.134  0.4436  0.1568 -0.6460
  406MOL0     C54693   1.612   2.377   3.008 -0.0776  0.0371  1.0735
  406MOL0     C54694   1.692   2.266   3.026  0.5393 -0.9085  0.5149
  406MOL0     C54695   1.701   2.153   2.921 -0.4891 -0.1370  0.1817
  406MOL0     C54696   1.844   2.128   2.849 -0.4440 -1.2960  0.7964
  406MOL0     C54697   1.858   2.249   2.752 -0.8121  0.2115  0.3610
  406MOL0     C54698   1.979   2.244   2.665 -0.0039 -0.7539 -0.3092
  406MOL0     O54699   1.997   2.126   2.593 -0.8106 -0.8814  0.1615
  406MOL0     C54700   2.130   2.102   2.573  0.5339  0.2750  0.6140
  406MOL0     C54701   2.201   2.043   2.679 -0.6929  0.0269  0.6728
  406MOL0     C54702   2.336   2.006   2.663  0.3287 -0.3030 -0.0833
  406MOL0     C54703   2.398   2.031   2.538  0.3939  0.5864  0.3396
  406MOL0     C54704   2.548   2.004   2.515  0.7231  0.4410 -0.0293
  406MOL0     O54705   2.602   2.018   2.388  0.1990 -1.0478 -0.9024
  406MOL0     C54706   2.732   2.066   2.359  0.1619  0.6178 -0.2794
  406MOL0     C54707   2.815   2.154   2.428 -0.1304 -0.0456 -0.5782
  406MOL0     C54708   2.945   2.172   2.386 -1.0362 -0.4752 -1.1275
  406MOL0     C54709   3.002   2.100   2.282 -0.2486  0.3461 -0.6585
  406MOL0     O54710   3.142   2.127   2.269  0.2660 -0.8074  0.4009
  406MOL0     C54711   3.189   2.128   2.137 -0.7922 -0.9308 -0.1367
  406MOL0     C54712   3.298   2.023   2.126  0.9851 -0.3531  0.0042
  406MOL0     C54713   3.349   2.020   1.975  0.3669  0.0578  0.1752
  406MOL0     C54714   3.437   1.894   1.974  0.5143  0.8574 -0.2434
  406MOL0     C54715   3.493   1.855   1.839  0.4904  0.1339 -0.9063
  406MOL0     C54716   3.575   1.971   1.776 -0.7963 -0.4425  0.5649
  406MOL0     C54717   3.630   1.920   1.651 -0.0121  0.4700  0.3897
  406MOL0     C54718   3.684   2.029   1.567 -0.2670 -0.3486  0.3626
  406MOL0    Cl54719   3.791   2.153   1.651  0.0315  0.1925 -0.6190
  406MOL0     C54720   2.916   2.022   2.206  0.0038 -0.2630  0.6078
  406MOL0     C54721   2.787   2.001   2.245  0.4596 -0.0623  0.0239
  406MOL0     O54722   2.608   2.005   2.623  0.2356  0.5739 -0.0965
  406MOL0     C54723   2.326   2.085   2.429 -0.1853  0.6862 -0.6973
  406MOL0     C54724   2.191   2.108   2.440  0.3925  0.3927 -1.3497
  406MOL0     N54725   1.723   2.253   3.154  0.1862 -0.0500  0.1655
  406MOL0     N54726   1.673   2.356   3.220  0.0494 -0.3444  0.1673
  406MOL0     C54727   2.145   3.450   3.472 -1.1825  0.3449  0.3633
  406MOL0     C54728   2.199   3.572   3.450  0.2675 -0.1441  0.3746
  406MOL0     C54729   2.234   3.981   3.241  0.3753  0.3905 -0.9036
  406MOL0     C54730   2.367   4.001   3.276  1.5928 -1.6673  0.3913
  406MOL0     C54731   2.426   4.113   3.214 -0.6587 -0.1366  0.4844
  406MOL0     C54732   2.361   4.222   3.148 -0.9516 -1.4579  0.0953
  406MOL0     O54733   2.414   4.338   3.132  0.4855 -0.4530 -0.2418
  406MOL0     C54734   2.536   4.382   3.199 -0.9122 -0.2091 -0.6650
  406MOL0     C54735   2.622   4.486   3.135 -1.1244 -0.0910 -0.0259
  406MOL0     C54736   2.551   4.621   3.104 -0.3095 -0.5082 -0.2770
  406MOL0     C54737   2.633   4.709   3.006  0.1777 -0.6984 -0.0663
  406MOL0     C54738   2.774   4.719   3.039 -0.7922 -0.8474 -0.0204
  406MOL0     C54739   2.885   4.722   3.094  0.1716 -0.4724  0.3541
  406MOL0     C54740   2.225   4.204   3.136 -0.5891 -0.7343 -0.3130
  406MOL0     C54741   2.162   4.077   3.174 -0.7797 -0.7011 -0.7698
  406MOL0     C54742   2.011   4.066   3.157 -0.4058 -0.3042  0.0363
  406MOL0     H54743   1.927   3.728   3.336 -0.1208 -1.2411 -0.9595
  406MOL0     H54744   1.829   3.515   3.364 -0.4213  1.2580  1.3988
  406MOL0     H54745   2.125   3.181   3.490 -1.0123 -2.2232  2.2510
  406MOL0     H54746   1.999   3.231   3.611 -0.1827 -2.7558  2.1924
  406MOL0     H54747   1.857   3.076   3.555  1.7823  3.6203  0.2434
  406MOL0     H54748   2.002   2.987   3.551 -0.8427  0.1029 -0.0943
  406MOL0     H54749   2.006   3.020   3.298  0.4512  1.1590  0.2752
  406MOL0     H54750   1.849   3.100   3.309  0.8725  0.5258  1.3292
  406MOL0     H54751   1.907   2.818   3.396 -0.9513 -0.0387 -0.2917
  406MOL0     H54752   1.761   2.907   3.426  1.9198  1.7216  2.0680
  406MOL0     H54753   1.740   2.924   3.175 -3.8476  0.5468  2.9892
  406MOL0     H54754   1.873   2.813   3.148  0.4854  0.5263  0.9060
  406MOL0     H54755   1.766   2.621   3.251 -0.6333 -1.6737  0.9333
  406MOL0     H54756   1.634   2.735   3.312  0.0002 -3.8640  0.3024
  406MOL0     H54757   1.691   2.649   3.032 -0.0081 -0.3423  0.0833
  406MOL0     H54758   1.566   2.770   3.086  2.9512  2.3211 -2.8746
  406MOL0     H54759   1.505   2.566   3.256 -0.3976  1.7729 -0.1017
  406MOL0     H54760   1.443   2.550   3.085 -0.4437 -1.2544  0.3619
  406MOL0     H54761   1.578   2.411   2.911  1.7574 -1.1966 -0.0667
  406MOL0     H54762   1.678   2.072   2.990 -2.1937  1.8203  2.0340
  406MOL0     H54763   1.611   2.154   2.858 -1.0143  1.1542  0.9195
  406MOL0     H54764   1.932   2.127   2.915  0.7249 -0.6406 -0.6721
  406MOL0     H54765   1.854   2.035   2.792  2.0621  0.5847 -2.2332
  406MOL0     H54766   1.849   2.344   2.806  1.6335 -0.6400  2.5302
  406MOL0     H54767   1.770   2.259   2.689 -1.7171 -2.0841  1.1639
  406MOL0     H54768   2.060   2.260   2.737 -1.8305  1.8389  1.3537
  406MOL0     H54769   1.976   2.327   2.592 -2.1314 -0.1528  0.4054
  406MOL0     H54770   2.151   2.018   2.772 -0.8688 -1.8487  0.1292
  406MOL0     H54771   2.392   1.977   2.752 -1.5746  0.2174  1.3587
  406MOL0     H54772   2.774   2.194   2.521  0.9946  0.9943 -0.5055
  406MOL0     H54773   3.016   2.243   2.426 -1.1196  0.1857 -2.1074
  406MOL0     H54774   3.112   2.108   2.061  2.9566  0.5472 -4.8705
  406MOL0     H54775   3.223   2.227   2.108  1.5511 -1.6221  0.0307
  406MOL0     H54776   3.383   2.053   2.188  2.1568  0.2645 -1.8083
  406MOL0     H54777   3.251   1.936   2.172  1.1070  1.2620  3.4930
  406MOL0     H54778   3.273   1.999   1.899 -0.5417 -1.1811  1.3743
  406MOL0     H54779   3.399   2.108   1.934 -0.0489 -0.3262 -1.2158
  406MOL0     H54780   3.382   1.812   2.019  0.2956  1.2704  0.2472
  406MOL0     H54781   3.531   1.918   2.024  0.4622  0.5338  0.0104
  406MOL0     H54782   3.407   1.823   1.779  1.4613  1.3123 -3.0300
  406MOL0     H54783   3.559   1.772   1.867  0.9179  0.4401 -1.0030
  406MOL0     H54784   3.515   2.061   1.763 -3.9304 -2.0500  2.6238
  406MOL0     H54785   3.655   1.997   1.846  2.0467 -0.7239 -2.3383
  406MOL0     H54786   3.552   1.872   1.590 -0.8146  1.8545  0.2841
  406MOL0     H54787   3.714   1.853   1.670  2.5052  3.2826 -0.0097
  406MOL0     H54788   3.733   1.972   1.488 -2.5859 -0.5871 -0.9596
  406MOL0     H54789   3.605   2.081   1.514  1.9799  2.4572 -0.5233
  406MOL0     H54790   2.953   1.965   2.122  1.2937  1.6258 -0.1734
  406MOL0     H54791   2.726   1.935   2.184 -0.0635  0.7237 -0.3135
  406MOL0     H54792   2.386   2.100   2.340  1.8034 -0.2227  0.4374
  406MOL0     H54793   2.135   2.152   2.357 -0.8522  0.5377 -0.4624
  406MOL0     H54794   2.204   3.372   3.518 -1.4998 -0.5303 -0.6674
  406MOL0     H54795   2.303   3.595   3.472 -0.1941  0.9097  1.5920
  406MOL0     H54796   2.418   3.923   3.331  1.3390 -3.8360 -2.2824
  406MOL0     H54797   2.535   4.107   3.214 -0.5390  1.5612  1.2375
  406MOL0     H54798   2.607   4.303   3.225 -1.1665  0.6869  3.6189
  406MOL0     H54799   2.505   4.432   3.292 -0.7865  2.0413 -1.7841
  406MOL0     H54800   2.666   4.436   3.049  1.9208 -0.9754  1.8935
  406MOL0     H54801   2.702   4.512   3.205 -0.6482  0.7186 -0.8468
  406MOL0     H54802   2.536   4.669   3.202  0.1313 -0.1474 -0.3829
  406MOL0     H54803   2.455   4.614   3.052 -1.0870 -0.7497  1.1281
  406MOL0     H54804   2.622   4.651   2.913 -1.4702 -2.2190  1.0156
  406MOL0     H54805   2.583   4.806   3.005 -1.0684 -1.2020  2.8433
  406MOL0     H54806   2.985   4.718   3.131  0.7889 -0.7208 -1.2551
  406MOL0     H54807   2.172   4.297   3.113  2.2152  0.9535 -0.3984
  406MOL0     H54808   1.982   4.060   3.052  2.9661 -0.3238 -0.9983
  406MOL0     H54809   1.972   3.973   3.201  1.2508 -1.2816 -0.4836
  406MOL0     H54810   1.961   4.144   3.215  0.1712  1.5238 -1.8135
  407MOL0     O54811   9.095   1.434  10.922  0.9038 -0.4769  0.2458
  407MOL0     C54812   9.216   1.469  10.919  0.4287  0.6589 -0.3066
  407MOL0     O54813   9.265   1.555  10.832 -0.5474 -0.3513 -0.0008
  407MOL0     C54814   9.206   1.589  10.712 -1.1226  1.1593 -0.2656
  407MOL0     C54815   9.132   1.494  10.631 -0.0577  0.1391  0.2885
  407MOL0     C54816   9.101   1.521  10.499  0.2652  1.0130  0.5555
  407MOL0     C54817   9.141   1.635  10.441 -0.0110  0.4514  0.0875
  407MOL0     O54818   9.120   1.634  10.304  0.1929  0.3289 -0.6856
  407MOL0     C54819   9.102   1.764  10.247 -0.2963  0.1553 -0.2141
  407MOL0     C54820   8.984   1.837  10.308 -0.2616  0.9483 -0.3960
  407MOL0     C54821   8.956   1.964  10.233  0.1825  0.9218 -0.1880
  407MOL0     C54822   8.838   2.045  10.295 -0.6774  0.4986  0.2319
  407MOL0     C54823   8.696   2.010  10.238 -0.6362  0.1917 -0.5385
  407MOL0     C54824   8.602   2.129  10.215 -0.5822  0.3153 -0.1431
  407MOL0     C54825   8.467   2.079  10.169  0.2361 -0.1795  0.0087
  407MOL0     C54826   8.356   2.183  10.168  0.1705  0.3258  0.5026
  407MOL0     N54827   8.381   2.286  10.073 -0.2562 -0.2980 -0.2713
  407MOL0     C54828   8.360   2.284   9.928 -0.3797  0.2775 -0.0196
  407MOL0     C54829   8.399   2.405   9.868  0.5891 -0.3438  0.2921
  407MOL0     C54830   8.390   2.439   9.725  0.8708 -0.9686  0.6047
  407MOL0     C54831   8.267   2.530   9.679 -0.3211  0.5242  0.1822
  407MOL0     C54832   8.150   2.530   9.781 -0.9781  0.6329  0.5818
  407MOL0     C54833   8.029   2.596   9.717 -0.3052 -0.3838  0.5556
  407MOL0     O54834   7.914   2.597   9.796 -0.0866 -0.0739 -0.0226
  407MOL0     C54835   7.805   2.674   9.753 -0.3304  0.4066 -0.2962
  407MOL0     C54836   7.687   2.666   9.830  0.4161  0.5763 -0.8505
  407MOL0     C54837   7.568   2.725   9.785 -0.9548  0.0739 -0.2069
  407MOL0     C54838   7.557   2.797   9.662 -0.2648  0.1537  0.7895
  407MOL0     C54839   7.433   2.863   9.606  0.0911  0.1168 -0.4835
  407MOL0     O54840   7.319   2.836   9.670  0.0700 -0.3469  0.4881
  407MOL0     C54841   7.199   2.903   9.661  1.0095 -0.7818 -0.5014
  407MOL0     C54842   7.194   3.039   9.632  1.0705  0.1907  0.6119
  407MOL0     C54843   7.081   3.114   9.625  0.1802 -0.5082  0.1764
  407MOL0     C54844   6.950   3.047   9.634  0.2198 -0.8754 -0.0679
  407MOL0     O54845   6.851   3.121   9.589 -0.3343 -0.1532 -0.5983
  407MOL0     C54846   6.733   3.055   9.607  0.3275  0.7253  0.2617
  407MOL0     C54847   6.629   3.143   9.556  0.1197  0.3990  0.3883
  407MOL0     C54848   6.594   3.253   9.653  0.3531  0.1548  0.7770
  407MOL0     C54849   6.442   3.301   9.617  0.1562  0.5598  0.0737
  407MOL0     C54850   6.402   3.396   9.738  0.4404 -0.4021  0.1338
  407MOL0     C54851   6.273   3.478   9.708  0.4256 -0.0727  0.0417
  407MOL0     C54852   6.264   3.597   9.807 -0.3695 -0.3022 -1.4736
  407MOL0     C54853   6.216   3.561   9.952  0.4266 -0.2129 -0.6510
  407MOL0    Cl54854   6.259   3.694  10.065  0.2575  0.3456  0.5461
  407MOL0     C54855   6.955   2.912   9.677  1.0047  0.1947 -0.3195
  407MOL0     C54856   7.077   2.843   9.690  0.6281  0.3506 -0.3409
  407MOL0     O54857   7.450   2.944   9.518  0.4690  0.5296 -0.2886
  407MOL0     C54858   7.674   2.799   9.586 -0.3894  0.1982  0.0636
  407MOL0     C54859   7.796   2.742   9.635 -0.7331 -0.3425  0.6607
  407MOL0     N54860   8.436   2.478   9.976 -0.5744 -1.0765 -0.5388
  407MOL0     N54861   8.420   2.414  10.096 -0.4575 -0.8419  0.3197
  407MOL0     C54862   9.213   1.730  10.517  0.7841 -0.6919 -0.4060
  407MOL0     C54863   9.236   1.706  10.657 -0.4367 -0.4728  1.1994
  407MOL0     C54864   9.304   1.420  11.025 -0.5416  1.1815 -0.0697
  407MOL0     C54865   9.443   1.432  11.002  0.7761 -0.1104  0.2368
  407MOL0     C54866   9.539   1.382  11.089  0.5890 -0.0284 -0.0858
  407MOL0     C54867   9.499   1.308  11.204 -0.0192  0.4789  0.5330
  407MOL0     O54868   9.594   1.249  11.281 -0.8044  0.2423  0.7865
  407MOL0     C54869   9.666   1.126  11.246  0.9455  0.0436 -1.0105
  407MOL0     C54870   9.574   1.012  11.184 -0.0501 -0.3313  1.2354
  407MOL0     C54871   9.583   1.019  11.034 -0.1346  0.5128  0.2758
  407MOL0     C54872   9.517   0.914  10.955 -0.5829  0.8977  0.2898
  407MOL0     C54873   9.374   0.898  10.985  0.0232 -0.0136 -0.6705
  407MOL0     C54874   9.257   0.894  11.012  0.8283  0.0395  0.0633
  407MOL0     C54875   9.361   1.294  11.230 -0.0439  0.1703  0.3854
  407MOL0     C54876   9.265   1.346  11.137  0.6447 -0.1192 -0.7419
  407MOL0     C54877   9.130   1.301  11.176  0.2819  0.1315 -1.0621
  407MOL0     H54878   9.106   1.396  10.672  2.4986 -1.8590 -2.3896
  407MOL0     H54879   9.044   1.444  10.447  1.2921 -0.0550  0.9570
  407MOL0     H54880   9.195   1.813  10.278 -1.2668  1.0573  1.3854
  407MOL0     H54881   9.091   1.749  10.139  0.2810  2.2617 -0.6083
  407MOL0     H54882   8.997   1.855  10.415 -1.2290  1.2080 -0.3062
  407MOL0     H54883   8.888   1.783  10.304  1.0530 -1.5290 -0.3828
  407MOL0     H54884   8.934   1.933  10.131  1.1988  0.0742 -0.1704
  407MOL0     H54885   9.052   2.015  10.227  1.4789 -1.5097 -1.8378
  407MOL0     H54886   8.825   2.047  10.404  0.7195  1.8739  0.4109
  407MOL0     H54887   8.873   2.144  10.265  2.2329 -1.0085 -1.8792
  407MOL0     H54888   8.709   1.947  10.149  0.6559 -1.2283  0.6026
  407MOL0     H54889   8.645   1.953  10.316 -1.9230  2.5811  0.4864
  407MOL0     H54890   8.589   2.172  10.315 -3.4310  0.4116 -0.4693
  407MOL0     H54891   8.633   2.207  10.145 -1.2244  0.9684  0.2919
  407MOL0     H54892   8.435   1.995  10.230 -0.9590  1.6042  1.9401
  407MOL0     H54893   8.487   2.069  10.061  2.4142  5.1088 -0.4051
  407MOL0     H54894   8.262   2.139  10.133  0.9199  0.5106 -1.9229
  407MOL0     H54895   8.346   2.234  10.265 -1.4486  0.6094  0.2268
  407MOL0     H54896   8.332   2.204   9.861 -1.6054  2.4712 -2.2778
  407MOL0     H54897   8.486   2.481   9.694  0.7229 -0.4494  0.8481
  407MOL0     H54898   8.384   2.352   9.659  0.4001  0.9088 -1.9914
  407MOL0     H54899   8.296   2.631   9.651  2.7742 -0.3825 -0.2875
  407MOL0     H54900   8.233   2.485   9.585  1.2160 -0.2159 -0.0604
  407MOL0     H54901   8.180   2.582   9.873 -1.0433 -1.6760  1.9816
  407MOL0     H54902   8.136   2.423   9.799  1.2923  0.2313  0.3170
  407MOL0     H54903   8.007   2.545   9.622  1.4068 -1.9300  0.9483
  407MOL0     H54904   8.062   2.699   9.699  2.6819 -1.6533 -2.2507
  407MOL0     H54905   7.684   2.612   9.924 -1.5132  0.5798 -0.8661
  407MOL0     H54906   7.486   2.704   9.853 -0.6498 -0.4194  0.0098
  407MOL0     H54907   7.287   3.090   9.609  1.6199 -1.6824 -1.6771
  407MOL0     H54908   7.075   3.210   9.576 -2.2120 -1.9895 -2.8682
  407MOL0     H54909   6.727   2.965   9.546 -2.3945  1.7943 -1.2584
  407MOL0     H54910   6.710   3.029   9.711  3.3248  1.1650  1.1104
  407MOL0     H54911   6.660   3.184   9.460  2.5116 -0.0451  0.8951
  407MOL0     H54912   6.542   3.076   9.554  1.2382 -1.1121 -1.6894
  407MOL0     H54913   6.600   3.213   9.754 -0.9091 -3.0697 -0.3053
  407MOL0     H54914   6.671   3.330   9.639  1.9438 -1.8411 -2.6139
  407MOL0     H54915   6.370   3.219   9.609 -1.5321  1.6685  2.3930
  407MOL0     H54916   6.445   3.364   9.527  1.3846  0.5667  0.1030
  407MOL0     H54917   6.482   3.470   9.753  1.3932 -1.9970  4.1018
  407MOL0     H54918   6.394   3.351   9.837  1.4749  0.5888  0.6941
  407MOL0     H54919   6.284   3.532   9.613 -4.0481  1.0170 -0.0929
  407MOL0     H54920   6.184   3.415   9.710  0.6995 -0.5192 -0.9525
  407MOL0     H54921   6.186   3.669   9.782 -0.8262  0.3178  1.4333
  407MOL0     H54922   6.355   3.657   9.810  0.0084 -0.8911 -0.9484
  407MOL0     H54923   6.111   3.533   9.959  0.0777  1.4611  1.9666
  407MOL0     H54924   6.257   3.461   9.971 -2.0573 -1.4645 -1.4321
  407MOL0     H54925   6.859   2.866   9.699  1.1319  0.1223  0.0782
  407MOL0     H54926   7.078   2.735   9.705 -2.5366  0.2577 -0.2143
  407MOL0     H54927   7.677   2.843   9.487 -0.3534 -0.9928 -0.4848
  407MOL0     H54928   7.883   2.748   9.570 -2.3037 -0.4769 -1.5937
  407MOL0     H54929   9.274   1.812  10.481  2.8415 -2.2286 -0.5368
  407MOL0     H54930   9.314   1.774  10.688  0.7293 -1.6636  0.9488
  407MOL0     H54931   9.470   1.483  10.910 -0.1697  2.9595  1.5466
  407MOL0     H54932   9.645   1.398  11.067  0.1825 -0.3856 -2.6828
  407MOL0     H54933   9.713   1.088  11.337 -0.3783 -2.4004 -1.2416
  407MOL0     H54934   9.753   1.141  11.182  2.6674 -0.3357  1.1423
  407MOL0     H54935   9.470   1.038  11.207 -0.6417 -2.3071  0.9579
  407MOL0     H54936   9.583   0.917  11.237 -1.3703 -0.4196  1.3337
  407MOL0     H54937   9.689   0.994  11.026 -0.1290  0.3997  0.7015
  407MOL0     H54938   9.575   1.119  10.992  1.3358  1.5302  2.2513
  407MOL0     H54939   9.535   0.927  10.848 -2.5052 -0.4831 -0.2603
  407MOL0     H54940   9.561   0.817  10.981 -2.4771 -0.8966 -2.6495
  407MOL0     H54941   9.157   0.908  11.047  1.3141  2.3061  0.7263
  407MOL0     H54942   9.351   1.231  11.318  0.5593 -0.3873  0.0652
  407MOL0     H54943   9.125   1.251  11.273 -1.0746  4.0536  1.1095
  407MOL0     H54944   9.058   1.384  11.175  0.9178  0.8391  1.6180
  407MOL0     H54945   9.081   1.237  11.102  0.3686  0.7243 -1.6437
  408MOL0     O54946   2.408   1.266  10.691  0.2467  0.2201 -0.0896
  408MOL0     C54947   2.482   1.338  10.631  0.2738  0.3033  0.0391
  408MOL0     O54948   2.532   1.461  10.666  0.1124  0.1812 -0.3838
  408MOL0     C54949   2.457   1.543  10.757 -0.0568  0.7746  0.1319
  408MOL0     C54950   2.407   1.664  10.708 -0.0383  0.1957  0.6356
  408MOL0     C54951   2.325   1.743  10.793  0.6122  0.6703 -0.5018
  408MOL0     C54952   2.299   1.695  10.921  0.4446  0.2010 -0.4078
  408MOL0     O54953   2.209   1.779  10.994 -0.4154  0.3500  0.0249
  408MOL0     C54954   2.211   1.796  11.143  0.1138  0.2352  0.7507
  408MOL0     C54955   2.136   1.930  11.177 -0.1709 -0.3014 -0.6244
  408MOL0     C54956   2.000   1.942  11.116  0.3783  0.2617  1.0703
  408MOL0     C54957   1.919   2.066  11.171 -0.1909 -0.1798 -0.0302
  408MOL0     C54958   1.786   2.017  11.231  0.8031 -0.5326  1.0056
  408MOL0     C54959   1.681   2.123  11.254  0.5855 -0.4365 -0.3515
  408MOL0     C54960   1.542   2.100  11.322 -0.9736  0.2036  0.1036
  408MOL0     C54961   1.546   2.037  11.464  0.4249 -0.0479  0.8052
  408MOL0     N54962   1.622   2.111  11.558 -1.0885 -0.2170  0.5044
  408MOL0     C54963   1.562   2.194  11.655  0.6093  0.4456  0.4445
  408MOL0     C54964   1.658   2.224  11.743 -0.3261 -0.0612  0.8329
  408MOL0     C54965   1.638   2.324  11.854 -0.3584  0.6645  0.3211
  408MOL0     C54966   1.680   2.273  11.995  0.1161 -0.0331 -0.0663
  408MOL0     C54967   1.672   2.392  12.093  0.2242  0.0316  0.5830
  408MOL0     C54968   1.797   2.468  12.080 -0.2652  0.6408  0.0099
  408MOL0     O54969   1.793   2.567  12.180  0.4236  0.9727  0.5821
  408MOL0     C54970   1.913   2.634  12.192 -0.7391  0.6544  0.2999
  408MOL0     C54971   2.021   2.623  12.098 -0.0369 -0.0195 -0.5101
  408MOL0     C54972   2.135   2.692  12.104 -0.2688 -0.2665 -0.3547
  408MOL0     C54973   2.134   2.797  12.197  0.2310 -0.6907 -0.2562
  408MOL0     C54974   2.261   2.883  12.214  0.5302  1.2420 -0.3914
  408MOL0     O54975   2.243   3.014  12.249 -0.4078  0.1458  0.4639
  408MOL0     C54976   2.349   3.098  12.279  0.3935  0.5210  0.7961
  408MOL0     C54977   2.398   3.105  12.410 -0.8351 -0.6447 -0.5371
  408MOL0     C54978   2.528   3.167  12.428  0.8446 -1.0663 -1.2980
  408MOL0     C54979   2.600   3.230  12.322  0.1656 -0.4021  0.7550
  408MOL0     O54980   2.706   3.307  12.340  0.7156 -0.5031 -0.7129
  408MOL0     C54981   2.788   3.300  12.456 -0.2056 -0.0523  0.0998
  408MOL0     C54982   2.901   3.202  12.430 -1.4608  0.1863  0.4901
  408MOL0     C54983   3.001   3.193  12.553  0.5494  0.1969  0.9407
  408MOL0     C54984   3.136   3.260  12.529 -0.6490  0.0011 -0.7809
  408MOL0     C54985   3.231   3.250  12.648  0.4741 -0.2273  0.0774
  408MOL0     C54986   3.184   3.316  12.775  0.2716 -0.3984  0.5107
  408MOL0     C54987   3.151   3.468  12.747  0.3120 -0.1988  0.3420
  408MOL0     C54988   3.122   3.534  12.886 -0.8003  0.1924 -1.0649
  408MOL0    Cl54989   3.277   3.541  12.963  0.4629  0.6195  0.2621
  408MOL0     C54990   2.543   3.222  12.191 -0.3754  0.6480 -1.0821
  408MOL0     C54991   2.426   3.149  12.169 -0.3967  0.5420 -0.1742
  408MOL0     O54992   2.368   2.822  12.192 -0.5170  0.0811 -0.6920
  408MOL0     C54993   2.032   2.806  12.288 -0.0626 -0.4658  0.2241
  408MOL0     C54994   1.919   2.730  12.292  0.1133 -0.6588  0.3318
  408MOL0     N54995   1.783   2.170  11.695 -0.5168  0.5630  0.7034
  408MOL0     N54996   1.756   2.096  11.595  0.2400 -0.1891 -0.0784
  408MOL0     C54997   2.351   1.573  10.972  0.6845 -0.2729  0.4254
  408MOL0     C54998   2.425   1.500  10.888  0.4956  0.1468  0.4007
  408MOL0     C54999   2.551   1.274  10.521 -0.0118  0.6664 -0.0007
  408MOL0     C55000   2.672   1.344  10.474  0.0131  0.2196 -0.0337
  408MOL0     C55001   2.752   1.278  10.383 -0.1929  0.5825  0.5556
  408MOL0     C55002   2.723   1.164  10.322  0.0945 -0.0665  0.2543
  408MOL0     O55003   2.789   1.110  10.215 -0.2827 -0.2038  0.5476
  408MOL0     C55004   2.921   1.077  10.222 -0.2525 -0.2093  0.3536
  408MOL0     C55005   2.945   0.966  10.116  0.0046  0.0802 -0.3785
  408MOL0     C55006   3.097   0.972  10.079  0.5189 -0.2198  0.2720
  408MOL0     C55007   3.211   0.978  10.186  0.2284  0.3458  0.1357
  408MOL0     C55008   3.339   0.970  10.121  1.0222 -0.1517  0.5408
  408MOL0     C55009   3.447   0.968  10.075 -0.5322 -0.0077 -0.8945
  408MOL0     C55010   2.604   1.101  10.358  0.1376  0.1962  0.5033
  408MOL0     C55011   2.519   1.149  10.458 -0.0004  0.0319 -0.3451
  408MOL0     C55012   2.405   1.062  10.499  0.8951 -0.3235  0.2167
  408MOL0     H55013   2.428   1.685  10.603 -0.5511  0.5662  0.6015
  408MOL0     H55014   2.278   1.837  10.764 -0.7969  1.8721  4.6626
  408MOL0     H55015   2.162   1.711  11.190  0.6976  0.6446  2.1383
  408MOL0     H55016   2.317   1.793  11.171  0.1631 -1.8622  0.4778
  408MOL0     H55017   2.192   2.019  11.145 -2.5034  0.4648 -2.9273
  408MOL0     H55018   2.121   1.941  11.284 -1.1472 -1.7104 -0.5901
  408MOL0     H55019   1.954   1.847  11.146  0.7976  0.4798  2.4846
  408MOL0     H55020   2.008   1.961  11.009 -0.5444 -0.1728  0.9167
  408MOL0     H55021   1.973   2.123  11.247 -0.8526  0.2019  0.1614
  408MOL0     H55022   1.903   2.132  11.085  0.3749  0.0791  0.0588
  408MOL0     H55023   1.735   1.932  11.185 -1.5900  0.9589  0.7523
  408MOL0     H55024   1.806   1.974  11.330  1.8050  3.6484  2.8719
  408MOL0     H55025   1.716   2.208  11.314  0.0557 -0.1238 -0.4755
  408MOL0     H55026   1.658   2.167  11.157 -4.3523  1.4054  1.3315
  408MOL0     H55027   1.498   2.032  11.249  1.0641 -0.5377 -0.5100
  408MOL0     H55028   1.495   2.199  11.329  1.2600  1.3823 -0.3655
  408MOL0     H55029   1.448   2.009  11.504  0.8058 -1.8171  0.5628
  408MOL0     H55030   1.590   1.938  11.453 -2.0293 -1.0497 -1.1365
  408MOL0     H55031   1.457   2.219  11.666  0.1741 -1.2093  0.2373
  408MOL0     H55032   1.698   2.413  11.831  1.0868 -0.3101  0.1609
  408MOL0     H55033   1.535   2.361  11.853 -0.4045  0.8530 -3.3715
  408MOL0     H55034   1.618   2.190  12.031 -0.1630  0.0561 -0.3322
  408MOL0     H55035   1.785   2.243  11.994  0.1902  0.1984  0.4756
  408MOL0     H55036   1.672   2.345  12.192 -2.9820  2.1668  1.7468
  408MOL0     H55037   1.585   2.456  12.079 -0.6459 -1.5336 -1.7661
  408MOL0     H55038   1.807   2.508  11.979 -3.1253 -0.3129 -0.7456
  408MOL0     H55039   1.881   2.403  12.105 -0.6785 -0.0859 -0.4558
  408MOL0     H55040   2.023   2.556  12.012 -1.1225 -1.6848  0.6839
  408MOL0     H55041   2.220   2.666  12.041 -1.1676 -2.9989 -0.6041
  408MOL0     H55042   2.351   3.057  12.495  0.6826 -1.0206  0.1194
  408MOL0     H55043   2.576   3.158  12.525  2.4825  1.2378 -1.8073
  408MOL0     H55044   2.843   3.393  12.472  0.4832  0.0074 -2.1593
  408MOL0     H55045   2.732   3.280  12.548  1.3607  0.1065  1.1208
  408MOL0     H55046   2.865   3.101  12.410  1.7511 -1.6483  2.8877
  408MOL0     H55047   2.963   3.241  12.349  1.6567 -1.3632  1.9393
  408MOL0     H55048   2.950   3.227  12.643  1.0274  0.9401  0.9335
  408MOL0     H55049   3.028   3.087  12.564  1.4336  0.2748 -0.1947
  408MOL0     H55050   3.103   3.360  12.501 -2.4677  0.9932  3.9932
  408MOL0     H55051   3.187   3.215  12.443 -0.6188 -0.2006 -0.6584
  408MOL0     H55052   3.325   3.298  12.619 -1.1745  1.9237 -2.0502
  408MOL0     H55053   3.249   3.147  12.682 -3.1736 -1.0011  0.1048
  408MOL0     H55054   3.086   3.282  12.808  0.2171  1.3476  2.3613
  408MOL0     H55055   3.259   3.313  12.855 -0.9506  4.3288  2.1558
  408MOL0     H55056   3.060   3.480  12.688  0.5035  2.1853  0.4373
  408MOL0     H55057   3.231   3.534  12.712 -1.4035  2.5012  1.2089
  408MOL0     H55058   3.085   3.635  12.864  1.1059  2.0507  3.1469
  408MOL0     H55059   3.038   3.490  12.939  0.5781 -0.6771  0.4619
  408MOL0     H55060   2.595   3.265  12.106 -0.2978 -1.1729 -2.0086
  408MOL0     H55061   2.362   3.153  12.081  0.0921  2.5126 -0.4826
  408MOL0     H55062   2.040   2.881  12.365  1.1298 -1.1820  0.8398
  408MOL0     H55063   1.839   2.748  12.363 -0.6752  1.8350 -1.0483
  408MOL0     H55064   2.323   1.545  11.073 -1.9124 -0.3284 -0.2305
  408MOL0     H55065   2.482   1.418  10.929  2.5180  1.2769  0.0060
  408MOL0     H55066   2.698   1.438  10.521  1.4215 -0.2997  0.2837
  408MOL0     H55067   2.851   1.310  10.352  0.3413  0.1285  1.7281
  408MOL0     H55068   2.943   1.050  10.326 -1.4247 -0.0153  0.6576
  408MOL0     H55069   2.976   1.171  10.211 -0.9930  0.2370  0.4570
  408MOL0     H55070   2.890   0.987  10.024  0.2302 -2.6245 -1.2100
  408MOL0     H55071   2.926   0.867  10.158  2.0980 -0.2174 -0.0060
  408MOL0     H55072   3.107   1.056  10.010 -2.4155  0.7572  0.8975
  408MOL0     H55073   3.102   0.881  10.018  0.2664  0.0264 -0.1180
  408MOL0     H55074   3.215   1.080  10.225 -1.1903  0.6648 -0.4876
  408MOL0     H55075   3.208   0.898  10.261  0.1072  0.0714 -0.1607
  408MOL0     H55076   3.544   0.992  10.036  0.9831 -1.3343  1.7822
  408MOL0     H55077   2.584   1.007  10.308 -1.2700  0.8538 -0.2520
  408MOL0     H55078   2.313   1.121  10.501  1.2208  0.3037 -1.6143
  408MOL0     H55079   2.401   0.981  10.426 -1.3100  0.7164 -0.9219
  408MOL0     H55080   2.423   1.032  10.603  0.3585  1.7560  0.9668
  409MOL0     O55081   5.601   1.874   1.616  0.0211  0.1845 -0.1382
  409MOL0     C55082   5.510   1.948   1.597 -0.1027 -0.3317  0.1002
  409MOL0     O55083   5.392   1.926   1.538  0.0470  0.1279 -0.1498
  409MOL0     C55084   5.369   1.797   1.509 -0.7569 -0.0918  0.2042
  409MOL0     C55085   5.375   1.757   1.383 -0.2201  0.6930  0.9772
  409MOL0     C55086   5.364   1.631   1.328  0.0562 -0.2849 -0.8886
  409MOL0     C55087   5.357   1.531   1.422 -0.4711 -1.1039  0.7141
  409MOL0     O55088   5.374   1.391   1.388  0.0859 -0.1081 -0.6125
  409MOL0     C55089   5.392   1.357   1.251  0.2283  0.6611  0.4829
  409MOL0     C55090   5.393   1.207   1.233 -0.6106  0.2910 -0.6255
  409MOL0     C55091   5.259   1.144   1.240  0.3208  0.3644 -0.7160
  409MOL0     C55092   5.278   0.998   1.215  0.2101  0.0011 -0.5789
  409MOL0     C55093   5.137   0.918   1.194 -0.9099 -1.1623 -0.1669
  409MOL0     C55094   5.095   0.918   1.040 -0.2483 -0.2309  0.3247
  409MOL0     C55095   4.951   0.877   1.028  0.3756 -1.0685  0.9849
  409MOL0     C55096   4.901   0.838   0.888  0.0762  0.0856 -0.3135
  409MOL0     N55097   4.751   0.839   0.905  0.6742 -0.7042  0.5998
  409MOL0     C55098   4.665   0.779   0.994  0.5020  0.0126  0.3997
  409MOL0     C55099   4.539   0.792   0.951 -0.7117 -0.2821  0.5739
  409MOL0     C55100   4.411   0.740   1.005  0.1471 -0.0759 -0.6266
  409MOL0     C55101   4.421   0.651   1.131  0.1486 -0.0320  0.9594
  409MOL0     C55102   4.283   0.600   1.174  0.1141  0.6483 -0.7597
  409MOL0     C55103   4.286   0.555   1.320  0.0603 -0.0836  0.3691
  409MOL0     O55104   4.299   0.671   1.406 -0.6463  0.3048 -0.2714
  409MOL0     C55105   4.194   0.696   1.485  0.1084  1.2129 -0.6144
  409MOL0     C55106   4.070   0.739   1.429 -0.4787  0.5371 -0.0606
  409MOL0     C55107   3.967   0.775   1.511  0.0610 -0.7412  0.6093
  409MOL0     C55108   3.980   0.763   1.647  0.8765 -0.7427 -0.0479
  409MOL0     C55109   3.875   0.807   1.746 -0.9713  1.3902 -0.0125
  409MOL0     O55110   3.924   0.831   1.865  0.3541 -0.2987  0.2368
  409MOL0     C55111   3.848   0.838   1.978 -0.7162 -0.4260  0.0669
  409MOL0     C55112   3.908   0.790   2.095  0.3593  0.1536  0.0367
  409MOL0     C55113   3.839   0.782   2.217  0.0583 -0.7045 -0.0929
  409MOL0     C55114   3.715   0.846   2.217 -0.2464 -0.0767  0.0611
  409MOL0     O55115   3.655   0.858   2.335  0.4112  0.9004  1.2088
  409MOL0     C55116   3.622   0.981   2.393  0.1673  0.2689 -0.6686
  409MOL0     C55117   3.712   1.005   2.522  1.1710 -0.1708 -0.5449
  409MOL0     C55118   3.863   1.038   2.507 -0.3332 -0.1063 -0.0196
  409MOL0     C55119   3.900   1.099   2.381 -0.3621 -0.9325  0.0628
  409MOL0     C55120   4.033   1.178   2.385 -0.3033 -0.2874  0.4362
  409MOL0     C55121   4.011   1.313   2.464 -0.3435 -0.5307  0.3956
  409MOL0     C55122   4.136   1.402   2.447 -0.7088  0.3173  0.7659
  409MOL0     C55123   4.118   1.522   2.536  0.0749 -0.2473 -0.1028
  409MOL0    Cl55124   4.275   1.596   2.557  0.6798 -0.2227  0.1141
  409MOL0     C55125   3.653   0.908   2.101  0.1900  0.7808  0.2451
  409MOL0     C55126   3.721   0.895   1.983 -0.1753 -0.8590  0.0624
  409MOL0     O55127   3.759   0.798   1.718 -0.6880  0.0130  0.2519
  409MOL0     C55128   4.101   0.718   1.698 -0.8967  0.7166  0.2278
  409MOL0     C55129   4.207   0.675   1.621 -0.2894  0.2008  0.6098
  409MOL0     N55130   4.544   0.883   0.843  0.1200  1.2169 -0.4664
  409MOL0     N55131   4.668   0.895   0.810 -1.0300  1.5252  0.7470
  409MOL0     C55132   5.340   1.557   1.563  0.4715 -0.4804 -0.0428
  409MOL0     C55133   5.340   1.695   1.606  0.3922 -0.4935 -0.0515
  409MOL0     C55134   5.543   2.092   1.638 -1.1775 -0.5155 -0.2232
  409MOL0     C55135   5.502   2.200   1.558  0.1430  0.2696  1.0163
  409MOL0     C55136   5.535   2.341   1.597  0.2011 -0.4097  0.7258
  409MOL0     C55137   5.594   2.365   1.721  0.2762 -0.5063 -0.5686
  409MOL0     O55138   5.606   2.493   1.767  0.2702  0.4937  0.3493
  409MOL0     C55139   5.554   2.513   1.901 -0.3557  0.1062 -0.9390
  409MOL0     C55140   5.653   2.608   1.977 -0.7096 -0.7528 -0.2351
  409MOL0     C55141   5.796   2.550   1.999  1.2236 -0.2663  0.1995
  409MOL0     C55142   5.882   2.647   2.078  0.0265 -0.7237  1.1470
  409MOL0     C55143   6.026   2.624   2.076 -0.6093 -0.3857 -0.5792
  409MOL0     C55144   6.147   2.613   2.095 -0.2953 -0.4876 -0.1719
  409MOL0     C55145   5.632   2.256   1.804 -0.2386  0.2826 -0.2489
  409MOL0     C55146   5.621   2.120   1.760 -0.3969  0.3947  0.1236
  409MOL0     C55147   5.660   2.018   1.864  0.4061 -0.8196  0.3411
  409MOL0     H55148   5.403   1.830   1.308  2.3870  0.4851  1.6454
  409MOL0     H55149   5.369   1.630   1.220  2.9990  0.3189 -0.8521
  409MOL0     H55150   5.308   1.397   1.193  0.1335  0.5781  0.5624
  409MOL0     H55151   5.480   1.392   1.195 -0.2254 -0.1713 -0.7895
  409MOL0     H55152   5.452   1.162   1.313 -3.7790 -0.7777  1.2687
  409MOL0     H55153   5.427   1.188   1.130 -1.5318 -2.0750 -0.5564
  409MOL0     H55154   5.192   1.195   1.169  2.9090  1.7710 -2.3339
  409MOL0     H55155   5.213   1.162   1.337 -0.3735  0.7797 -1.1083
  409MOL0     H55156   5.341   0.983   1.127  1.6792 -1.5940  0.6660
  409MOL0     H55157   5.328   0.951   1.300  0.8809 -0.9845 -1.4777
  409MOL0     H55158   5.143   0.813   1.223 -0.1277 -1.2443 -0.6060
  409MOL0     H55159   5.058   0.967   1.253 -3.0682 -1.7501 -2.3784
  409MOL0     H55160   5.107   1.014   0.988 -0.5505  0.0505  0.7647
  409MOL0     H55161   5.167   0.854   0.989 -2.1268 -1.6305 -0.6865
  409MOL0     H55162   4.894   0.958   1.075 -1.3907 -2.2868  1.0474
  409MOL0     H55163   4.927   0.789   1.089 -1.3646 -1.4098 -0.1418
  409MOL0     H55164   4.936   0.914   0.818  0.2319 -0.2733 -0.6344
  409MOL0     H55165   4.939   0.739   0.861 -2.7737 -0.9606 -0.8038
  409MOL0     H55166   4.694   0.722   1.082 -0.1821  0.4291  0.9069
  409MOL0     H55167   4.343   0.826   1.016 -0.4247 -0.0904 -3.3186
  409MOL0     H55168   4.362   0.669   0.937 -1.5246  1.2042 -0.8354
  409MOL0     H55169   4.489   0.570   1.102 -2.7231 -2.0884 -0.5471
  409MOL0     H55170   4.464   0.708   1.214 -0.2770  0.2489  0.9864
  409MOL0     H55171   4.274   0.518   1.102 -1.9250  0.9779 -0.9177
  409MOL0     H55172   4.203   0.673   1.163 -3.9745 -3.5826 -2.1545
  409MOL0     H55173   4.365   0.480   1.332 -0.0960 -0.7011 -2.0512
  409MOL0     H55174   4.185   0.515   1.333 -0.4202  1.1694  0.6329
  409MOL0     H55175   4.064   0.756   1.322 -1.1913  0.6350 -0.0055
  409MOL0     H55176   3.880   0.815   1.459  1.6636 -2.2068 -3.6625
  409MOL0     H55177   4.007   0.745   2.098  0.4276  0.2879  3.5926
  409MOL0     H55178   3.879   0.753   2.313 -0.3807  0.2957  0.4024
  409MOL0     H55179   3.648   1.060   2.323  1.9467  0.3133 -0.0274
  409MOL0     H55180   3.515   0.988   2.417  0.5701  3.1450  0.7157
  409MOL0     H55181   3.668   1.096   2.564  1.8000 -0.9335  1.9084
  409MOL0     H55182   3.699   0.919   2.588  1.4276 -1.7164 -2.4075
  409MOL0     H55183   3.898   1.101   2.590 -1.5093 -0.1541  0.5314
  409MOL0     H55184   3.925   0.949   2.520 -2.2862 -1.2054  2.7095
  409MOL0     H55185   3.822   1.170   2.351 -1.3819 -1.9727  0.1997
  409MOL0     H55186   3.905   1.020   2.306 -4.4209 -1.0122 -0.3239
  409MOL0     H55187   4.059   1.211   2.284  1.8293  1.3065  1.4086
  409MOL0     H55188   4.107   1.113   2.432 -2.5118 -2.0437  1.6835
  409MOL0     H55189   3.924   1.376   2.447  0.3133  1.8706  4.4696
  409MOL0     H55190   4.008   1.290   2.571  0.4073 -1.8200  0.1688
  409MOL0     H55191   4.161   1.434   2.345 -1.3198 -1.7239 -0.0902
  409MOL0     H55192   4.218   1.342   2.487  0.9866  0.7487 -1.7997
  409MOL0     H55193   4.042   1.596   2.515 -0.9792 -1.4510 -0.6505
  409MOL0     H55194   4.090   1.484   2.635  2.8548 -2.6483 -0.0701
  409MOL0     H55195   3.553   0.950   2.109  0.0408  0.9995 -1.9457
  409MOL0     H55196   3.682   0.938   1.892  0.1625 -0.0618  0.2799
  409MOL0     H55197   4.116   0.702   1.805  1.4144 -0.0366 -0.1595
  409MOL0     H55198   4.297   0.617   1.638 -0.3309 -1.0414 -2.7466
  409MOL0     H55199   5.333   1.483   1.642 -1.3438  1.8156  2.0920
  409MOL0     H55200   5.327   1.707   1.713  1.3493 -0.8199  0.1055
  409MOL0     H55201   5.461   2.181   1.460 -0.0231 -2.0637  1.4981
  409MOL0     H55202   5.515   2.419   1.525  0.4034 -2.5017 -1.7662
  409MOL0     H55203   5.530   2.427   1.963 -0.4306  0.8840  0.1360
  409MOL0     H55204   5.460   2.569   1.891 -1.0536 -0.8778 -0.0779
  409MOL0     H55205   5.602   2.619   2.073  0.3851 -0.6486  0.3499
  409MOL0     H55206   5.653   2.704   1.925 -1.1092 -0.5762  0.0817
  409MOL0     H55207   5.845   2.517   1.907 -1.5069 -2.2170 -0.6770
  409MOL0     H55208   5.776   2.456   2.051  1.1995 -0.4799 -0.1968
  409MOL0     H55209   5.866   2.748   2.039 -2.9586 -0.9997  1.4032
  409MOL0     H55210   5.840   2.636   2.178 -1.5090 -0.6927  0.5384
  409MOL0     H55211   6.241   2.608   2.147 -2.0975 -0.5070  3.4256
  409MOL0     H55212   5.688   2.282   1.893  0.1693 -1.1664 -0.0602
  409MOL0     H55213   5.751   1.968   1.830 -0.1385  0.4502 -3.4536
  409MOL0     H55214   5.669   2.069   1.960  1.0216  2.9732 -1.5352
  409MOL0     H55215   5.599   1.928   1.871 -1.1614  0.0920 -0.7766
  410MOL0     O55216   5.009   2.071   2.310  0.3371 -0.2249  0.2982
  410MOL0     C55217   5.067   1.979   2.370 -0.2498  0.6059  1.0445
  410MOL0     O55218   5.163   1.999   2.464 -0.6989  0.1884  0.3148
  410MOL0     C55219   5.201   2.125   2.497  1.0825 -0.3180 -0.0448
  410MOL0     C55220   5.106   2.203   2.562  0.4510 -0.2041 -1.0347
  410MOL0     C55221   5.133   2.331   2.602 -0.0536 -0.0510 -0.5528
  410MOL0     C55222   5.254   2.390   2.567  0.0619 -0.4721  0.8400
  410MOL0     O55223   5.279   2.519   2.605 -0.0551  0.1550 -0.6558
  410MOL0     C55224   5.172   2.590   2.654 -0.0855  0.2709 -0.1760
  410MOL0     C55225   5.192   2.742   2.636 -0.4377  0.6526  0.4069
  410MOL0     C55226   5.082   2.837   2.697 -0.4070 -0.5058  0.0126
  410MOL0     C55227   5.106   2.986   2.641 -0.3042 -0.4613  0.0879
  410MOL0     C55228   4.984   3.075   2.678  0.1965 -0.1058 -0.6462
  410MOL0     C55229   4.992   3.107   2.823 -0.4554 -0.0924 -0.0684
  410MOL0     C55230   4.939   3.245   2.866 -0.9701  0.0223  0.3298
  410MOL0     C55231   4.798   3.252   2.902  0.1184 -0.4433  0.4939
  410MOL0     N55232   4.700   3.213   2.794  0.0108 -0.0528  0.0205
  410MOL0     C55233   4.655   3.087   2.764 -0.0736 -0.6142 -0.5738
  410MOL0     C55234   4.568   3.101   2.664 -0.6382  0.0437  0.7688
  410MOL0     C55235   4.506   2.982   2.599  0.4790  0.6344 -0.4424
  410MOL0     C55236   4.362   2.948   2.671  0.2969 -0.0733  0.1358
  410MOL0     C55237   4.274   2.867   2.585 -0.0450  0.6648  0.7471
  410MOL0     C55238   4.334   2.729   2.541  0.2403 -0.1409  0.8162
  410MOL0     O55239   4.225   2.653   2.479  0.0212  0.2918 -0.0686
  410MOL0     C55240   4.121   2.595   2.561 -0.2613 -1.3625 -0.1996
  410MOL0     C55241   4.023   2.525   2.494 -0.3252  0.3155 -0.0220
  410MOL0     C55242   3.920   2.461   2.564 -0.3898 -0.3548 -0.4149
  410MOL0     C55243   3.914   2.481   2.704  1.0199  0.0493 -0.1429
  410MOL0     C55244   3.807   2.405   2.782  0.6287 -0.0296 -0.5290
  410MOL0     O55245   3.825   2.407   2.918  0.9387 -0.5910 -0.2173
  410MOL0     C55246   3.729   2.342   2.999 -0.0114  0.7595 -0.5392
  410MOL0     C55247   3.728   2.199   3.014  0.1597 -0.0903 -0.4979
  410MOL0     C55248   3.624   2.134   3.078  0.0354 -0.2170 -0.2350
  410MOL0     C55249   3.512   2.210   3.126 -0.0887  0.3715 -0.0441
  410MOL0     O55250   3.413   2.144   3.196 -0.3055  0.6543 -0.3985
  410MOL0     C55251   3.314   2.226   3.260 -0.2170 -0.5082 -0.2382
  410MOL0     C55252   3.192   2.135   3.281  0.8116  0.1208  0.7292
  410MOL0     C55253   3.202   2.039   3.401 -0.1681 -0.2717  0.3721
  410MOL0     C55254   3.072   1.953   3.431  0.3968  0.4110 -0.0059
  410MOL0     C55255   3.084   1.818   3.361 -0.3073 -0.0107 -0.4969
  410MOL0     C55256   3.199   1.730   3.427  0.5750 -0.5309  0.0842
  410MOL0     C55257   3.182   1.575   3.391  0.0972 -0.9557  0.7441
  410MOL0     C55258   3.271   1.485   3.476 -0.4595 -0.7096 -0.4039
  410MOL0    Cl55259   3.313   1.348   3.375 -0.0980  0.1757  0.0422
  410MOL0     C55260   3.526   2.350   3.127  0.5886 -0.6907  0.0342
  410MOL0     C55261   3.627   2.414   3.058 -0.9578 -0.5024 -0.8670
  410MOL0     O55262   3.728   2.339   2.726  1.2025 -0.7670 -0.6206
  410MOL0     C55263   4.019   2.550   2.769 -1.0409  0.0849 -0.0551
  410MOL0     C55264   4.131   2.598   2.698  0.3532  0.5858 -0.0216
  410MOL0     N55265   4.553   3.237   2.635 -0.6358  0.3401  0.6670
  410MOL0     N55266   4.633   3.304   2.719  0.2254  0.5576  0.3484
  410MOL0     C55267   5.342   2.308   2.496  0.0933 -0.0427  0.0859
  410MOL0     C55268   5.325   2.172   2.460 -0.2661  0.2009 -0.1651
  410MOL0     C55269   5.042   1.837   2.328  0.8558  0.2583  0.2870
  410MOL0     C55270   5.112   1.739   2.408  0.0899 -0.0499  0.2186
  410MOL0     C55271   5.095   1.604   2.381 -0.3018 -0.2682 -0.3420
  410MOL0     C55272   5.013   1.558   2.277 -0.2871  0.0983 -0.2762
  410MOL0     O55273   4.979   1.429   2.250  0.9211 -0.6651 -0.0446
  410MOL0     C55274   5.027   1.315   2.320 -0.3175 -0.7711 -0.0873
  410MOL0     C55275   4.983   1.187   2.267 -0.5222 -0.4198 -1.2074
  410MOL0     C55276   4.825   1.176   2.286 -0.3061 -0.7266  0.3675
  410MOL0     C55277   4.774   1.044   2.237  0.2245  0.5866 -0.1732
  410MOL0     C55278   4.781   1.046   2.092 -0.2390  0.0003  0.1580
  410MOL0     C55279   4.802   1.065   1.972  0.9308  0.3857 -0.4148
  410MOL0     C55280   4.958   1.657   2.196 -0.2181  0.1992  0.8436
  410MOL0     C55281   4.963   1.793   2.218  0.6470 -0.4543 -0.0409
  410MOL0     C55282   4.886   1.877   2.123  0.2970  0.2480  0.5880
  410MOL0     H55283   5.008   2.167   2.591 -0.3629  1.9061 -1.0009
  410MOL0     H55284   5.057   2.377   2.664  1.4172  0.4772  0.9196
  410MOL0     H55285   5.083   2.575   2.591 -0.9606 -0.9156  1.3054
  410MOL0     H55286   5.155   2.557   2.756 -0.8986 -1.7657 -0.9159
  410MOL0     H55287   5.204   2.759   2.529 -2.0904 -4.2458 -0.8133
  410MOL0     H55288   5.290   2.766   2.680  1.0813 -1.4312 -1.5616
  410MOL0     H55289   5.104   2.832   2.804  3.5443 -0.7590 -0.6809
  410MOL0     H55290   4.978   2.815   2.670 -1.8658  4.0909  0.9679
  410MOL0     H55291   5.206   3.016   2.674 -0.3137 -2.5587  2.3172
  410MOL0     H55292   5.108   2.971   2.533  0.9926  3.7328 -0.6362
  410MOL0     H55293   4.981   3.167   2.620  4.0462  0.3170 -0.4917
  410MOL0     H55294   4.893   3.019   2.657  0.2419  0.4854 -2.6112
  410MOL0     H55295   4.936   3.031   2.878 -0.4462  0.2696  0.4413
  410MOL0     H55296   5.097   3.109   2.853 -0.9458  1.4782  1.6879
  410MOL0     H55297   4.957   3.318   2.787  0.0117  0.7193  1.1687
  410MOL0     H55298   4.989   3.287   2.954 -2.7163 -2.1904  2.5553
  410MOL0     H55299   4.773   3.198   2.994  2.8145 -3.7543 -0.5061
  410MOL0     H55300   4.780   3.358   2.916  1.7563 -0.3507  2.4422
  410MOL0     H55301   4.689   2.988   2.794 -2.1357 -0.8507  1.2367
  410MOL0     H55302   4.487   3.011   2.495 -3.2486  0.4258  0.0482
  410MOL0     H55303   4.563   2.890   2.619 -0.5050  0.7708  3.9632
  410MOL0     H55304   4.372   2.907   2.772 -1.7238  1.9050  1.2369
  410MOL0     H55305   4.298   3.032   2.701 -1.4214 -0.2912 -2.5989
  410MOL0     H55306   4.250   2.921   2.493 -0.5343 -2.4922 -1.1557
  410MOL0     H55307   4.183   2.860   2.646  1.7363 -3.3705  3.3807
  410MOL0     H55308   4.372   2.673   2.627  0.1730 -2.0268 -0.3258
  410MOL0     H55309   4.418   2.747   2.473 -1.5916  0.6731 -1.3919
  410MOL0     H55310   4.019   2.508   2.387  0.1379  2.2082 -0.3762
  410MOL0     H55311   3.847   2.408   2.505 -3.0721  1.4831  1.0117
  410MOL0     H55312   3.810   2.133   2.987  0.7669  0.1826  0.6166
  410MOL0     H55313   3.620   2.029   3.101  2.1489 -0.7811 -2.0146
  410MOL0     H55314   3.347   2.262   3.358  0.9488 -1.1141 -0.3849
  410MOL0     H55315   3.288   2.307   3.192  1.5722  0.8941  0.6609
  410MOL0     H55316   3.102   2.198   3.286  0.2741 -0.4948 -0.7301
  410MOL0     H55317   3.170   2.068   3.197  0.9342  0.7687  0.1679
  410MOL0     H55318   3.292   1.978   3.389 -0.2174  0.1297 -3.0777
  410MOL0     H55319   3.227   2.104   3.486 -0.3007  0.6157 -0.2523
  410MOL0     H55320   2.989   2.008   3.386  2.0652  1.1685 -2.3593
  410MOL0     H55321   3.058   1.930   3.537 -1.2452 -1.4691 -0.5731
  410MOL0     H55322   3.120   1.832   3.259  1.8181  2.7487  0.4937
  410MOL0     H55323   2.986   1.770   3.357 -2.0606  3.3258 -1.9269
  410MOL0     H55324   3.301   1.759   3.401 -0.0244 -0.4962 -2.5190
  410MOL0     H55325   3.178   1.742   3.533  1.6071 -0.4361  0.2876
  410MOL0     H55326   3.206   1.556   3.286  0.1579  3.6186 -0.2502
  410MOL0     H55327   3.077   1.547   3.405 -0.5327 -0.9982 -2.9995
  410MOL0     H55328   3.358   1.532   3.521 -0.5574 -0.9772  0.0729
  410MOL0     H55329   3.215   1.450   3.563 -1.0434 -0.1465 -0.5473
  410MOL0     H55330   3.446   2.418   3.153  0.9030  0.5682 -2.1005
  410MOL0     H55331   3.633   2.521   3.039  1.2982 -0.4149  0.0552
  410MOL0     H55332   4.022   2.554   2.877  1.8421 -1.8608  0.0455
  410MOL0     H55333   4.215   2.642   2.752  1.0453  0.4406 -0.9690
  410MOL0     H55334   5.440   2.353   2.481 -0.3617  0.9594  0.0186
  410MOL0     H55335   5.402   2.110   2.416  0.1275 -0.0550  0.8511
  410MOL0     H55336   5.182   1.766   2.487 -0.9528  0.5037  0.9616
  410MOL0     H55337   5.148   1.539   2.450  0.1078  0.7489  0.3257
  410MOL0     H55338   5.009   1.329   2.427 -0.0547 -2.4372  0.2084
  410MOL0     H55339   5.135   1.316   2.306 -0.1011  4.5985 -0.2114
  410MOL0     H55340   5.034   1.108   2.322  1.0944  2.8386  2.5003
  410MOL0     H55341   5.002   1.191   2.159 -0.1029  0.2901 -1.1155
  410MOL0     H55342   4.783   1.262   2.233 -2.3333 -1.9918 -0.1877
  410MOL0     H55343   4.806   1.190   2.393  1.6485 -1.6406  0.8770
  410MOL0     H55344   4.835   0.958   2.265  1.8865  1.2353 -1.6169
  410MOL0     H55345   4.668   1.028   2.259  0.2016 -1.7165 -1.6211
  410MOL0     H55346   4.810   1.075   1.865  1.2164 -1.7985 -0.6447
  410MOL0     H55347   4.896   1.616   2.117 -1.1026  2.5470  0.2421
  410MOL0     H55348   4.786   1.918   2.141 -0.0167  0.7732 -1.9353
  410MOL0     H55349   4.946   1.967   2.100 -0.8786  0.2419 -3.3324
  410MOL0     H55350   4.867   1.817   2.034  0.9031 -0.8620  1.1927
  411MOL0     O55351   4.979  10.082   9.487 -0.0559  0.2801 -0.8412
  411MOL0     C55352   4.884  10.156   9.473  0.1512 -0.1611 -0.3598
  411MOL0     O55353   4.842  10.244   9.567  0.8020  0.2361  0.0071
  411MOL0     C55354   4.898  10.253   9.692  0.1996 -0.3010 -0.5344
  411MOL0     C55355   4.972  10.365   9.735  0.2377  0.4483  1.4833
  411MOL0     C55356   5.005  10.381   9.866  0.0210 -0.3091  0.5249
  411MOL0     C55357   4.960  10.283   9.962 -0.5453  0.4791  0.1637
  411MOL0     O55358   5.014  10.301  10.087 -0.0362  0.5445  0.2110
  411MOL0     C55359   4.980  10.208  10.191  0.4028  0.1725  0.2330
  411MOL0     C55360   5.041  10.276  10.321 -0.6825 -0.2288  0.0305
  411MOL0     C55361   5.040  10.190  10.450  0.7593 -0.0612  1.0208
  411MOL0     C55362   5.171  10.126  10.489 -0.2010 -0.2538 -0.0658
  411MOL0     C55363   5.159  10.020  10.601  0.4383 -0.4742 -0.1300
  411MOL0     C55364   5.130   9.873  10.562 -0.1387  0.5888  1.3578
  411MOL0     C55365   5.163   9.789  10.693 -0.4213 -0.0551 -1.2485
  411MOL0     C55366   5.145   9.633  10.670 -0.8489  0.2045 -0.5372
  411MOL0     N55367   5.019   9.598  10.720 -0.0037 -0.8598 -0.9229
  411MOL0     C55368   4.905   9.615  10.650 -0.4691  0.0800  0.0252
  411MOL0     C55369   4.806   9.575  10.736  0.9436  1.2166 -0.7079
  411MOL0     C55370   4.652   9.579  10.712 -0.9946 -1.2816  0.4383
  411MOL0     C55371   4.590   9.446  10.682 -0.0081  0.0038  0.3681
  411MOL0     C55372   4.441   9.449  10.702  0.2235 -0.7110 -0.0759
  411MOL0     C55373   4.380   9.312  10.715 -0.6209  0.0577 -0.2814
  411MOL0     O55374   4.258   9.317  10.632  0.4137  0.4799 -0.0820
  411MOL0     C55375   4.226   9.203  10.564 -0.7847  0.5098 -0.6612
  411MOL0     C55376   4.251   9.081  10.636  0.1696 -0.1336 -0.3637
  411MOL0     C55377   4.193   8.966  10.584  1.4953  0.3865 -0.0448
  411MOL0     C55378   4.125   8.967  10.458 -0.1378 -0.1241  0.2852
  411MOL0     C55379   4.050   8.850  10.406  0.2763 -0.3068  0.7591
  411MOL0     O55380   4.047   8.738  10.496 -0.4281  0.0082  0.9294
  411MOL0     C55381   3.983   8.619  10.471  0.7013 -0.6018 -0.8888
  411MOL0     C55382   3.989   8.509  10.556  0.3081 -0.0901 -0.4583
  411MOL0     C55383   3.926   8.388  10.528 -0.2059  0.9330 -0.0793
  411MOL0     C55384   3.854   8.364  10.410  1.7931 -0.0612  0.0724
  411MOL0     O55385   3.822   8.240  10.381 -0.1880  0.0220  0.9653
  411MOL0     C55386   3.804   8.206  10.244 -0.0217 -0.6256 -0.2234
  411MOL0     C55387   3.769   8.055  10.240 -0.2719 -0.1483 -0.2120
  411MOL0     C55388   3.746   8.010  10.093 -0.4916  0.6630  0.9612
  411MOL0     C55389   3.691   7.870  10.101  0.2946  0.2076  0.5465
  411MOL0     C55390   3.668   7.803   9.966 -0.5238 -0.2438  0.4159
  411MOL0     C55391   3.594   7.675   9.997 -0.8559  1.4458 -0.4055
  411MOL0     C55392   3.593   7.581   9.870  0.3354 -0.6557 -1.0625
  411MOL0     C55393   3.558   7.438   9.901 -0.4252  0.7684 -0.3794
  411MOL0    Cl55394   3.559   7.351   9.750  0.0772  0.0024 -0.3486
  411MOL0     C55395   3.843   8.473  10.319 -0.3409 -0.6135  0.8276
  411MOL0     C55396   3.911   8.590  10.354 -0.0187  0.1785  0.7125
  411MOL0     O55397   3.980   8.859  10.306 -0.5946 -0.0603 -0.2549
  411MOL0     C55398   4.127   9.082  10.385  0.0840 -0.1915 -0.6218
  411MOL0     C55399   4.169   9.203  10.438  0.0712  0.6623 -0.2509
  411MOL0     N55400   4.871   9.554  10.853  1.3794  0.1646 -0.2392
  411MOL0     N55401   4.991   9.574  10.842  0.2860  0.2126 -0.6506
  411MOL0     C55402   4.901  10.166   9.921 -0.7145 -0.3149  0.0097
  411MOL0     C55403   4.872  10.154   9.786 -1.1240  0.0498  0.3417
  411MOL0     C55404   4.808  10.153   9.342  0.0534 -0.0291  0.4238
  411MOL0     C55405   4.741  10.037   9.301 -0.8814  0.0316  0.6031
  411MOL0     C55406   4.668  10.017   9.182 -0.0395  0.1051  0.2459
  411MOL0     C55407   4.658  10.130   9.096  0.1089 -0.1032 -0.1882
  411MOL0     O55408   4.582  10.114   8.978 -0.4144 -0.5368 -0.4290
  411MOL0     C55409   4.545  10.239   8.905  0.5718  0.2036  0.2412
  411MOL0     C55410   4.490  10.189   8.772 -0.2631  0.0414  0.1389
  411MOL0     C55411   4.600  10.146   8.682 -0.0551 -0.1017 -0.3324
  411MOL0     C55412   4.532  10.128   8.547  0.2484  0.4117 -0.3666
  411MOL0     C55413   4.634  10.061   8.458 -0.4397  0.2665 -0.4298
  411MOL0     C55414   4.716  10.004   8.381  0.5927 -0.6550  0.3689
  411MOL0     C55415   4.720  10.252   9.135  1.0834 -0.6618 -0.5721
  411MOL0     C55416   4.795  10.261   9.254  0.1829 -0.2126 -0.1903
  411MOL0     C55417   4.863  10.398   9.288  0.5722 -0.7878 -0.6248
  411MOL0     H55418   4.982  10.450   9.669 -0.7886 -1.2488 -0.9766
  411MOL0     H55419   5.050  10.475   9.896 -2.2446  0.7468  0.7687
  411MOL0     H55420   4.871  10.200  10.203  0.5469  1.2479  3.1797
  411MOL0     H55421   5.029  10.111  10.174 -2.2318 -1.3837  0.8518
  411MOL0     H55422   4.984  10.366  10.347 -0.6735 -0.3929  0.6232
  411MOL0     H55423   5.146  10.289  10.295 -0.6276 -2.1324 -0.8851
  411MOL0     H55424   4.956  10.120  10.441  1.1593 -0.6644  1.8239
  411MOL0     H55425   5.003  10.257  10.529  0.2143 -0.3236  0.9941
  411MOL0     H55426   5.229  10.090  10.403  2.6575  1.1670  1.1110
  411MOL0     H55427   5.233  10.207  10.529  0.0241 -0.9813  1.0961
  411MOL0     H55428   5.259  10.031  10.645 -0.3893  2.5930  1.2840
  411MOL0     H55429   5.087  10.060  10.673  1.4254  1.5827 -0.2024
  411MOL0     H55430   5.030   9.855  10.523  1.3889 -0.6565 -2.4281
  411MOL0     H55431   5.194   9.848  10.477 -3.3952 -2.7012 -0.4073
  411MOL0     H55432   5.102   9.829  10.774  1.9224  1.6340 -0.1845
  411MOL0     H55433   5.269   9.807  10.712 -0.7080  0.9123 -0.5441
  411MOL0     H55434   5.151   9.616  10.562 -0.4552  3.3299 -1.0959
  411MOL0     H55435   5.218   9.572  10.723 -1.2720  0.4488  0.3407
  411MOL0     H55436   4.896   9.656  10.550 -2.4915  3.1534  1.3087
  411MOL0     H55437   4.594   9.636  10.785 -1.4216  0.3478 -1.1147
  411MOL0     H55438   4.631   9.641  10.625 -3.7701  0.6697  2.2840
  411MOL0     H55439   4.620   9.425  10.580  1.1223  1.3746  0.3914
  411MOL0     H55440   4.626   9.371  10.753  1.2421 -0.6731 -0.9452
  411MOL0     H55441   4.391   9.494  10.616 -0.4909 -1.8353 -0.2649
  411MOL0     H55442   4.416   9.509  10.790  2.2799  2.1865 -1.2978
  411MOL0     H55443   4.374   9.280  10.819 -0.8468 -1.3290 -0.7052
  411MOL0     H55444   4.457   9.253  10.664 -0.7956  1.1378 -1.8826
  411MOL0     H55445   4.304   9.078  10.731  0.8079 -0.3960 -0.7187
  411MOL0     H55446   4.191   8.876  10.645  1.9066  0.1166 -0.4326
  411MOL0     H55447   4.046   8.511  10.649 -3.1515  0.6768  1.8127
  411MOL0     H55448   3.920   8.295  10.585  1.2185  1.4780  1.0176
  411MOL0     H55449   3.716   8.263  10.212 -0.5792 -1.0738  0.4550
  411MOL0     H55450   3.887   8.244  10.184 -1.0831  0.9735 -0.7428
  411MOL0     H55451   3.867   8.019  10.274  1.3999  2.9757 -1.2912
  411MOL0     H55452   3.684   8.033  10.305 -0.0119 -0.9481 -0.1258
  411MOL0     H55453   3.671   8.073  10.045 -0.6932  0.6253  1.2291
  411MOL0     H55454   3.832   7.994  10.026 -1.5459  0.2713 -0.3324
  411MOL0     H55455   3.597   7.884  10.154  0.8690  0.7942  1.4261
  411MOL0     H55456   3.757   7.809  10.164 -1.2447 -0.7412  1.2982
  411MOL0     H55457   3.763   7.793   9.912 -2.7234 -1.6926 -3.6677
  411MOL0     H55458   3.599   7.862   9.904 -0.5729  0.0442  0.7403
  411MOL0     H55459   3.647   7.629  10.081  0.5564  2.4925 -0.6788
  411MOL0     H55460   3.494   7.685  10.041 -1.3743 -3.5541  0.1853
  411MOL0     H55461   3.691   7.588   9.822  1.2637  3.5718  1.0426
  411MOL0     H55462   3.527   7.622   9.792 -0.8204 -1.4365 -0.5321
  411MOL0     H55463   3.638   7.399   9.965 -1.0720  0.1221  0.0546
  411MOL0     H55464   3.458   7.431   9.944 -0.1880 -2.1221 -0.0737
  411MOL0     H55465   3.803   8.463  10.219  1.5673  0.9442 -0.1358
  411MOL0     H55466   3.912   8.658  10.270  1.2538  0.2343  0.7526
  411MOL0     H55467   4.085   9.085  10.286  1.1628  0.0996 -1.0871
  411MOL0     H55468   4.182   9.295  10.381  0.0865  0.7483 -0.1103
  411MOL0     H55469   4.873  10.099  10.002 -3.3547  1.7358  0.9592
  411MOL0     H55470   4.819  10.063   9.760  1.0566 -0.7236 -1.8147
  411MOL0     H55471   4.762   9.953   9.367  0.2332 -0.0291  0.1893
  411MOL0     H55472   4.642   9.920   9.140 -2.3299  0.7958 -0.0454
  411MOL0     H55473   4.632  10.303   8.890  1.2195 -0.7077 -0.0030
  411MOL0     H55474   4.461  10.290   8.952 -0.0130  1.1350 -1.7325
  411MOL0     H55475   4.446  10.276   8.721  5.3960  2.3402 -1.6424
  411MOL0     H55476   4.426  10.101   8.779 -1.4205  0.8767  0.3843
  411MOL0     H55477   4.632  10.046   8.713 -3.1460 -1.0884 -0.0502
  411MOL0     H55478   4.690  10.207   8.688 -0.6751  0.6642  2.8985
  411MOL0     H55479   4.446  10.060   8.548  2.0517 -2.1713 -3.1768
  411MOL0     H55480   4.509  10.224   8.499 -0.2650 -0.2246 -1.4365
  411MOL0     H55481   4.778   9.955   8.309 -0.1493 -0.8430 -0.1566
  411MOL0     H55482   4.721  10.330   9.060 -1.6098 -1.2032 -1.2862
  411MOL0     H55483   4.917  10.431   9.199  2.5290 -1.6676  0.1600
  411MOL0     H55484   4.780  10.463   9.315 -0.0930 -2.3432  1.3137
  411MOL0     H55485   4.926  10.404   9.378 -1.5313  1.0469  0.8147
  412MOL0     O55486   3.460  10.208   2.686 -0.3562 -0.3278  0.7175
  412MOL0     C55487   3.341  10.233   2.678  0.4622 -0.2826  0.7786
  412MOL0     O55488   3.259  10.205   2.770  1.0499  0.0804 -0.4524
  412MOL0     C55489   3.269  10.094   2.869  0.4027  0.2639  0.4340
  412MOL0     C55490   3.168  10.082   2.966  0.4713 -0.1612  0.6365
  412MOL0     C55491   3.168   9.998   3.078 -0.4249  0.3379 -0.1489
  412MOL0     C55492   3.271   9.909   3.083 -0.3252  0.7810  0.2238
  412MOL0     O55493   3.267   9.820   3.192 -1.0228 -0.2306  0.0361
  412MOL0     C55494   3.307   9.686   3.166 -0.7001  0.5919 -0.6350
  412MOL0     C55495   3.199   9.611   3.085  0.5569  0.2013 -0.2233
  412MOL0     C55496   3.211   9.462   3.073 -0.6892 -0.2246  0.4057
  412MOL0     C55497   3.324   9.437   2.976 -0.5981 -0.1621  0.3917
  412MOL0     C55498   3.362   9.291   2.972  0.2188  0.3724 -0.1770
  412MOL0     C55499   3.253   9.187   2.933 -0.8602 -0.0044 -0.0491
  412MOL0     C55500   3.196   9.205   2.787  0.5510 -0.6740  0.3922
  412MOL0     C55501   3.052   9.155   2.765 -0.2337 -0.7435  1.2398
  412MOL0     N55502   3.044   9.012   2.765 -0.2199 -0.0620 -0.3642
  412MOL0     C55503   3.088   8.933   2.659  1.1127  0.0382  0.2190
  412MOL0     C55504   3.089   8.806   2.714  0.4136 -0.2151 -0.8717
  412MOL0     C55505   3.114   8.677   2.653  0.5067 -0.2268  0.1318
  412MOL0     C55506   3.239   8.609   2.728 -0.0806  0.2329  0.3464
  412MOL0     C55507   3.363   8.692   2.708  0.3949  1.2466 -0.0596
  412MOL0     C55508   3.487   8.603   2.736 -0.9727 -0.2161  0.0279
  412MOL0     O55509   3.495   8.489   2.642 -0.0179 -0.3391 -1.1977
  412MOL0     C55510   3.584   8.388   2.666  0.2052  0.5169  0.2714
  412MOL0     C55511   3.661   8.374   2.786 -0.1443 -0.5123  0.9293
  412MOL0     C55512   3.754   8.268   2.794 -0.1286 -0.1613  0.5988
  412MOL0     C55513   3.772   8.174   2.694 -0.0792  0.3934  0.6210
  412MOL0     C55514   3.853   8.057   2.711  0.6376  0.2682 -0.6983
  412MOL0     O55515   3.948   8.059   2.798 -0.4319 -0.8533  0.4193
  412MOL0     C55516   4.028   7.945   2.818  0.5002  0.2422  0.1885
  412MOL0     C55517   3.986   7.811   2.828  0.1906 -1.0084 -0.0828
  412MOL0     C55518   4.072   7.707   2.859  0.5231  0.1366 -0.4899
  412MOL0     C55519   4.207   7.731   2.898  0.6067 -0.1210  0.1960
  412MOL0     O55520   4.281   7.625   2.942  0.0303  0.4001  0.3823
  412MOL0     C55521   4.399   7.661   3.016  0.5130 -1.1890 -0.1402
  412MOL0     C55522   4.471   7.548   3.082  0.6322  0.6513  0.1583
  412MOL0     C55523   4.395   7.418   3.098 -0.1701 -0.1298  0.5020
  412MOL0     C55524   4.482   7.303   3.132 -0.5557  0.0927  0.0102
  412MOL0     C55525   4.400   7.192   3.179  0.3461 -0.0750 -0.1307
  412MOL0     C55526   4.499   7.094   3.248  0.0506  0.0390  0.2061
  412MOL0     C55527   4.434   6.955   3.257  0.8943 -0.1997  0.0551
  412MOL0     C55528   4.502   6.871   3.354  0.9621 -0.2555 -0.7429
  412MOL0    Cl55529   4.435   6.700   3.339  0.0547  0.0885  0.1041
  412MOL0     C55530   4.252   7.862   2.872  0.6013 -0.9693 -0.9141
  412MOL0     C55531   4.162   7.966   2.844  0.4874  0.1792  1.5677
  412MOL0     O55532   3.829   7.959   2.645 -0.4486  0.8827  0.0465
  412MOL0     C55533   3.714   8.211   2.570  0.8376  0.9580  0.5055
  412MOL0     C55534   3.620   8.311   2.562  0.4734 -0.0881  0.5115
  412MOL0     N55535   3.043   8.819   2.845  0.5921 -0.0573 -0.0077
  412MOL0     N55536   3.026   8.943   2.882 -0.5274 -0.5663  0.2179
  412MOL0     C55537   3.377   9.911   2.985  0.0626  0.6182 -0.8312
  412MOL0     C55538   3.373  10.005   2.877 -0.4089  0.1881 -0.1444
  412MOL0     C55539   3.297  10.323   2.568  0.5999 -0.4011 -0.5868
  412MOL0     C55540   3.383  10.345   2.458  0.1660 -0.1018  0.0439
  412MOL0     C55541   3.343  10.417   2.342  0.2083  0.0183 -0.1862
  412MOL0     C55542   3.223  10.482   2.342  0.3798 -0.3141 -0.8924
  412MOL0     O55543   3.186  10.572   2.255 -0.9058 -0.7385  0.2895
  412MOL0     C55544   3.288  10.645   2.188 -0.5310 -0.5155 -0.1129
  412MOL0     C55545   3.226  10.706   2.064 -0.4752 -0.1307 -0.8312
  412MOL0     C55546   3.349  10.762   1.983 -0.0846 -0.8772 -0.6643
  412MOL0     C55547   3.310  10.796   1.836  0.5518  0.0151 -1.1024
  412MOL0     C55548   3.427  10.833   1.759 -0.4465 -0.4341 -0.3009
  412MOL0     C55549   3.524  10.845   1.686  0.2007 -0.5217  0.2947
  412MOL0     C55550   3.153  10.486   2.471 -0.7301 -0.1883  0.5880
  412MOL0     C55551   3.180  10.401   2.575 -0.2139 -0.0321 -0.2278
  412MOL0     C55552   3.080  10.396   2.688 -0.2390 -0.2402  0.8016
  412MOL0     H55553   3.077  10.138   2.947  0.7931  0.4262  0.8307
  412MOL0     H55554   3.093   9.999   3.156  1.5174 -0.1907  1.8049
  412MOL0     H55555   3.413   9.669   3.147  0.7787  1.0338  5.2731
  412MOL0     H55556   3.309   9.633   3.262  1.7253  2.1463  0.2633
  412MOL0     H55557   3.199   9.661   2.988 -3.1216  0.9796  0.0347
  412MOL0     H55558   3.104   9.633   3.136  1.1200  2.3554  0.0135
  412MOL0     H55559   3.115   9.425   3.034  0.5470 -0.2146 -2.9879
  412MOL0     H55560   3.222   9.418   3.172  0.2759  0.1713  0.4863
  412MOL0     H55561   3.288   9.475   2.880 -3.4214  0.4847  1.6044
  412MOL0     H55562   3.410   9.499   3.004  0.5041  1.1900 -4.9045
  412MOL0     H55563   3.439   9.276   2.895 -0.3125 -3.5579 -0.1452
  412MOL0     H55564   3.413   9.282   3.068 -0.6934  0.4808  0.3232
  412MOL0     H55565   3.296   9.087   2.933 -2.7632 -0.9556  2.7319
  412MOL0     H55566   3.172   9.203   3.006 -0.0494  1.3974  0.5929
  412MOL0     H55567   3.263   9.158   2.715  0.5011 -1.1670  0.6610
  412MOL0     H55568   3.196   9.310   2.756  0.8404 -0.8491 -0.2092
  412MOL0     H55569   2.982   9.188   2.842 -2.4723 -0.3892 -0.8078
  412MOL0     H55570   3.020   9.194   2.668  0.5449  1.8712  1.9450
  412MOL0     H55571   3.120   8.964   2.560 -0.5841  4.1657  0.7485
  412MOL0     H55572   3.022   8.622   2.674  0.0016 -1.1170 -3.7992
  412MOL0     H55573   3.124   8.696   2.546 -0.0475  3.7633  0.6560
  412MOL0     H55574   3.238   8.608   2.838  1.5365  1.7893  0.4308
  412MOL0     H55575   3.257   8.505   2.698  2.1264  0.4249  0.8020
  412MOL0     H55576   3.343   8.770   2.783 -2.2960 -1.4450  2.2968
  412MOL0     H55577   3.364   8.745   2.613 -0.7422  0.2154 -0.6682
  412MOL0     H55578   3.481   8.561   2.837 -2.3219  1.0452  0.5191
  412MOL0     H55579   3.577   8.666   2.739 -0.5841 -0.7465 -0.2486
  412MOL0     H55580   3.653   8.435   2.875  0.5437  0.4135  0.3761
  412MOL0     H55581   3.796   8.263   2.894 -3.8177 -0.9798  2.2697
  412MOL0     H55582   3.881   7.784   2.824  0.3112 -1.5557  0.3023
  412MOL0     H55583   4.039   7.603   2.856  1.4155 -0.1407 -1.0144
  412MOL0     H55584   4.479   7.709   2.958 -0.8178  0.3850 -0.7586
  412MOL0     H55585   4.367   7.730   3.095  2.0493 -1.3113  0.6419
  412MOL0     H55586   4.564   7.532   3.027  1.2818  0.2522  1.3345
  412MOL0     H55587   4.498   7.586   3.181  1.6834  0.5179 -0.0696
  412MOL0     H55588   4.315   7.442   3.168  0.0491  2.0268  0.0684
  412MOL0     H55589   4.339   7.391   3.008 -1.7519 -0.7056  1.6226
  412MOL0     H55590   4.552   7.334   3.210 -1.6394  2.3846  0.1374
  412MOL0     H55591   4.546   7.268   3.050 -1.6817 -4.2153  0.6895
  412MOL0     H55592   4.341   7.142   3.101 -0.7044 -0.8697  1.1219
  412MOL0     H55593   4.324   7.218   3.253  0.3062 -2.0122  0.5649
  412MOL0     H55594   4.593   7.097   3.190 -0.1012  1.8088 -0.0163
  412MOL0     H55595   4.523   7.133   3.347  3.4614 -0.7308 -0.1643
  412MOL0     H55596   4.441   6.903   3.161  1.0832  1.3289 -0.7942
  412MOL0     H55597   4.328   6.966   3.279  0.9726 -2.1903  1.7597
  412MOL0     H55598   4.610   6.875   3.342  0.9649 -1.0830 -1.0726
  412MOL0     H55599   4.473   6.903   3.455  3.2770  1.0473 -0.4384
  412MOL0     H55600   4.356   7.884   2.895  0.0057 -0.6981  1.9633
  412MOL0     H55601   4.203   8.065   2.828 -1.2247  1.0129  2.1227
  412MOL0     H55602   3.724   8.141   2.488  1.9783  2.8812 -1.0970
  412MOL0     H55603   3.556   8.312   2.474  1.4397 -2.1773 -0.2784
  412MOL0     H55604   3.458   9.838   2.986 -0.8043 -0.3631  0.2760
  412MOL0     H55605   3.460  10.011   2.812 -1.8511  0.3354 -2.1505
  412MOL0     H55606   3.472  10.282   2.452 -0.8648 -1.4868 -1.1060
  412MOL0     H55607   3.403  10.415   2.251  0.2386 -1.4736 -0.1485
  412MOL0     H55608   3.366  10.579   2.150  0.2481  0.9717 -1.1880
  412MOL0     H55609   3.331  10.721   2.253  0.7797 -2.6764  1.6928
  412MOL0     H55610   3.156  10.786   2.091 -1.1353 -0.3213 -1.9402
  412MOL0     H55611   3.182  10.620   2.013 -0.6348 -0.3476 -0.3419
  412MOL0     H55612   3.423  10.682   1.974 -2.4628 -3.5097  1.3397
  412MOL0     H55613   3.379  10.851   2.039 -2.7933 -1.2979  1.7013
  412MOL0     H55614   3.269  10.703   1.795 -0.4096 -1.4661  2.7986
  412MOL0     H55615   3.228  10.866   1.818  1.3161  0.6948 -2.0387
  412MOL0     H55616   3.606  10.841   1.618 -0.9299 -1.0763 -1.0990
  412MOL0     H55617   3.071  10.556   2.483 -0.8718 -0.4809  1.3375
  412MOL0     H55618   2.988  10.454   2.674  0.5333  0.5242 -1.7261
  412MOL0     H55619   3.048  10.292   2.697 -1.5617 -0.3332 -3.0688
  412MOL0     H55620   3.126  10.448   2.772 -1.3370  1.0836  0.6239
  413MOL0     O55621  10.893  10.191   0.474 -0.1149 -0.4207 -0.9208
  413MOL0     C55622  10.891  10.084   0.418  0.2604 -0.4966  0.7717
  413MOL0     O55623  10.972   9.979   0.438  0.6618 -0.1339 -0.1486
  413MOL0     C55624  11.080  10.001   0.522 -0.4005 -0.5720  0.0629
  413MOL0     C55625  11.170  10.110   0.492 -0.3016  0.1233 -0.6220
  413MOL0     C55626  11.274  10.148   0.592  0.8275 -0.3920 -0.2152
  413MOL0     C55627  11.290  10.070   0.712  0.4107  0.1616  1.2911
  413MOL0     O55628  11.385  10.090   0.807  0.1300  0.0408 -0.9864
  413MOL0     C55629  11.422  10.231   0.832 -0.0956 -0.9513 -0.2292
  413MOL0     C55630  11.456  10.253   0.995  0.1111  0.2445  0.5944
  413MOL0     C55631  11.614  10.245   1.004  0.4293 -0.7164 -0.2524
  413MOL0     C55632  11.681  10.374   0.948  0.9458  1.1531  0.5792
  413MOL0     C55633  11.799  10.321   0.868  0.5379  0.2152 -0.5459
  413MOL0     C55634  11.849  10.444   0.781 -0.0394  0.2378  0.0564
  413MOL0     C55635  11.948  10.427   0.673 -0.9155  0.6509 -1.0763
  413MOL0     C55636  12.082  10.425   0.739  1.2548 -0.6190 -1.2030
  413MOL0     N55637  12.184  10.389   0.650 -0.6450 -0.0806  0.3030
  413MOL0     C55638  12.242  10.268   0.645 -0.5485  0.4433 -1.2504
  413MOL0     C55639  12.346  10.285   0.571 -0.2270  0.3902  1.0212
  413MOL0     C55640  12.451  10.183   0.545  0.0160 -0.2768 -1.0119
  413MOL0     C55641  12.413  10.089   0.423  0.8707 -0.6381 -0.0332
  413MOL0     C55642  12.543  10.041   0.359 -0.6190  0.7045 -0.3413
  413MOL0     C55643  12.507   9.930   0.251  0.1316 -0.0293 -0.3963
  413MOL0     O55644  12.559   9.966   0.123  0.6903  0.1580  0.3423
  413MOL0     C55645  12.510   9.895   0.009 -0.0487  0.3830 -0.8256
  413MOL0     C55646  12.392   9.816   0.000 -0.1480 -0.3336  0.8385
  413MOL0     C55647  12.376   9.745  -0.116 -0.2656 -0.2654  0.5090
  413MOL0     C55648  12.469   9.740  -0.219 -0.7979 -0.8082  0.7618
  413MOL0     C55649  12.459   9.650  -0.326  0.3975  0.7187 -0.0146
  413MOL0     O55650  12.354   9.561  -0.310  0.1311 -0.4991  0.4921
  413MOL0     C55651  12.312   9.480  -0.416 -0.2554  1.5562 -0.5323
  413MOL0     C55652  12.235   9.530  -0.521 -0.4677  0.3585 -0.8586
  413MOL0     C55653  12.191   9.439  -0.629  0.8113  0.3941 -0.7923
  413MOL0     C55654  12.196   9.299  -0.612  0.4320 -0.9918 -0.4027
  413MOL0     O55655  12.170   9.200  -0.705 -0.4558  0.0409  0.5054
  413MOL0     C55656  12.038   9.192  -0.764  0.3131 -0.4606 -0.4452
  413MOL0     C55657  12.029   9.084  -0.878 -0.2280  0.8036  0.0483
  413MOL0     C55658  12.112   9.127  -1.000  0.2881  0.4125  0.0430
  413MOL0     C55659  12.056   9.242  -1.083 -0.4783  0.3464 -0.3404
  413MOL0     C55660  12.160   9.353  -1.099  0.0085  0.0379  0.3120
  413MOL0     C55661  12.123   9.453  -1.206  0.7258  0.2810  0.9166
  413MOL0     C55662  11.987   9.512  -1.177  0.0129 -0.5655 -0.2013
  413MOL0     C55663  11.987   9.618  -1.064 -0.3034  0.5617  0.0464
  413MOL0    Cl55664  12.098   9.750  -1.104  0.3273 -0.2623  0.1003
  413MOL0     C55665  12.260   9.245  -0.499 -0.4638 -0.1551 -0.0158
  413MOL0     C55666  12.311   9.338  -0.395 -0.4927 -0.1813 -0.0047
  413MOL0     O55667  12.546   9.647  -0.412 -0.2257  0.8347  0.2882
  413MOL0     C55668  12.592   9.811  -0.203 -0.2848  0.2260 -0.0705
  413MOL0     C55669  12.602   9.895  -0.093  0.8006  0.3304 -0.4609
  413MOL0     N55670  12.350  10.413   0.528 -0.8333 -0.2486 -0.2080
  413MOL0     N55671  12.256  10.479   0.577 -0.2360 -0.0816  0.3017
  413MOL0     C55672  11.207   9.961   0.729 -0.0982 -0.3958 -0.8847
  413MOL0     C55673  11.102   9.926   0.643 -0.4850  0.0363 -0.0791
  413MOL0     C55674  10.774  10.081   0.322  1.0464 -0.8898 -0.4736
  413MOL0     C55675  10.677   9.983   0.345 -0.0532  0.0542  0.3854
  413MOL0     C55676  10.555   9.990   0.290  0.2132 -1.1531 -0.3682
  413MOL0     C55677  10.531  10.078   0.177 -0.1822  0.5476  0.4387
  413MOL0     O55678  10.414  10.080   0.110  0.6328 -0.4019  0.5649
  413MOL0     C55679  10.291  10.023   0.163 -0.8412 -0.6114 -0.3192
  413MOL0     C55680  10.184  10.070   0.076 -1.1661 -0.7833  0.5193
  413MOL0     C55681  10.155  10.219   0.094 -0.2244  0.2410  0.1541
  413MOL0     C55682  10.033  10.265   0.030  0.7046 -0.1309  0.3240
  413MOL0     C55683  10.025  10.414   0.031  0.5242  0.1518  0.2329
  413MOL0     C55684   9.983  10.525   0.034  0.4658 -0.5425  0.0073
  413MOL0     C55685  10.635  10.168   0.138  0.4350  0.5173  0.5888
  413MOL0     C55686  10.751  10.176   0.219  0.0173 -0.0978 -0.1933
  413MOL0     C55687  10.834  10.299   0.195 -0.2146  0.1884  0.0101
  413MOL0     H55688  11.168  10.164   0.399  0.3208  2.0938  0.4519
  413MOL0     H55689  11.326  10.243   0.580  1.0694 -0.7949 -2.8656
  413MOL0     H55690  11.506  10.266   0.771 -2.0841  2.3338 -1.3500
  413MOL0     H55691  11.337  10.289   0.797 -0.9153 -1.9045  0.1571
  413MOL0     H55692  11.419  10.168   1.053 -0.6443  0.7547  0.8678
  413MOL0     H55693  11.422  10.351   1.030 -1.0961  0.4684 -1.1133
  413MOL0     H55694  11.664  10.155   0.967  1.1805 -0.1186 -0.7301
  413MOL0     H55695  11.637  10.244   1.111 -0.8589  1.8985  0.1120
  413MOL0     H55696  11.616  10.439   0.888 -1.4073 -0.1125  1.6511
  413MOL0     H55697  11.714  10.420   1.041 -2.7142  3.7816  0.8060
  413MOL0     H55698  11.878  10.297   0.940  0.7625  3.0706  0.3183
  413MOL0     H55699  11.795  10.239   0.796  2.5544  0.1483 -0.6481
  413MOL0     H55700  11.756  10.474   0.731 -0.3193 -1.6563 -0.6362
  413MOL0     H55701  11.884  10.510   0.861 -4.3232  0.5253  1.9936
  413MOL0     H55702  11.938  10.502   0.595 -0.9914  1.0945 -0.6432
  413MOL0     H55703  11.931  10.325   0.638 -1.3476  0.8084 -1.3366
  413MOL0     H55704  12.098  10.527   0.775  1.9082 -0.9174 -0.6378
  413MOL0     H55705  12.082  10.355   0.822  0.7433  3.2010  2.3584
  413MOL0     H55706  12.194  10.180   0.686 -0.7003  1.3184  0.5849
  413MOL0     H55707  12.546  10.235   0.527  0.0747  0.6942  1.6398
  413MOL0     H55708  12.465  10.124   0.636 -0.4180  1.9824  0.6078
  413MOL0     H55709  12.361  10.008   0.474 -1.3307  1.9084  2.1212
  413MOL0     H55710  12.351  10.145   0.353  2.7582  1.1777 -0.3592
  413MOL0     H55711  12.604   9.994   0.437 -2.7002 -2.3975 -0.4158
  413MOL0     H55712  12.596  10.110   0.292  1.6252 -3.1541 -2.9258
  413MOL0     H55713  12.400   9.908   0.249  0.0312  0.3626  0.2781
  413MOL0     H55714  12.560   9.839   0.280  1.3739  1.0831  0.9409
  413MOL0     H55715  12.317   9.806   0.078 -0.5343 -3.5399  0.1577
  413MOL0     H55716  12.286   9.683  -0.120 -0.4018 -0.0390  0.0032
  413MOL0     H55717  12.223   9.638  -0.522  4.7886  1.3518  2.5500
  413MOL0     H55718  12.166   9.478  -0.727 -2.1353  1.2884  0.2055
  413MOL0     H55719  11.966   9.159  -0.689  0.3901  3.6297  1.7170
  413MOL0     H55720  12.013   9.293  -0.798 -4.3036 -1.0254  0.6165
  413MOL0     H55721  12.067   8.991  -0.834 -2.4251  0.6038  1.6776
  413MOL0     H55722  11.924   9.068  -0.905 -0.6332 -0.4494  2.1656
  413MOL0     H55723  12.211   9.145  -0.957  0.1233 -2.9417  2.1560
  413MOL0     H55724  12.139   9.041  -1.062  1.1784  1.3703 -0.9495
  413MOL0     H55725  11.975   9.287  -1.024 -0.5348 -1.1518  0.7850
  413MOL0     H55726  12.019   9.210  -1.181 -2.1027 -0.7919  0.6054
  413MOL0     H55727  12.248   9.289  -1.115 -0.8269 -1.1082  0.1658
  413MOL0     H55728  12.182   9.406  -1.007 -0.8502  1.9722 -0.5563
  413MOL0     H55729  12.198   9.530  -1.224  2.0473 -1.6252 -2.9016
  413MOL0     H55730  12.123   9.396  -1.300 -1.5218 -2.4110  2.3785
  413MOL0     H55731  11.912   9.434  -1.160 -0.6180  0.5667  2.7084
  413MOL0     H55732  11.955   9.567  -1.267 -0.8939  0.9551  0.9874
  413MOL0     H55733  11.891   9.663  -1.036 -0.5076  1.3798 -1.7951
  413MOL0     H55734  12.027   9.579  -0.970  2.7033 -0.3691 -1.4868
  413MOL0     H55735  12.287   9.141  -0.486  0.2379 -0.2543 -1.8722
  413MOL0     H55736  12.352   9.299  -0.302 -1.8140 -0.6783  0.3938
  413MOL0     H55737  12.670   9.814  -0.279  0.1847  3.4342  0.3881
  413MOL0     H55738  12.675   9.975  -0.084  1.2032  0.2179 -2.2979
  413MOL0     H55739  11.227   9.887   0.806  2.6763 -1.5270 -2.5326
  413MOL0     H55740  11.050   9.831   0.657  0.6163 -0.4763  0.6172
  413MOL0     H55741  10.681   9.911   0.426  0.3687 -1.0558 -0.5933
  413MOL0     H55742  10.476   9.919   0.312 -0.8144  0.0969  0.1025
  413MOL0     H55743  10.281  10.072   0.260  1.9072 -3.2442  1.4836
  413MOL0     H55744  10.293   9.914   0.172  0.5302 -0.5964 -0.1950
  413MOL0     H55745  10.099  10.004   0.096  1.3223 -4.2302  0.7242
  413MOL0     H55746  10.223  10.050  -0.025  1.1939  0.8386  1.0382
  413MOL0     H55747  10.236  10.290   0.077  0.0953  1.2629  4.5727
  413MOL0     H55748  10.132  10.227   0.201  1.6521 -2.0954  0.8445
  413MOL0     H55749  10.018  10.217  -0.067  0.8243 -2.2815  1.3200
  413MOL0     H55750   9.952  10.227   0.093  1.1861 -0.4726  0.7488
  413MOL0     H55751   9.939  10.622   0.032  0.1798 -0.5651  2.4221
  413MOL0     H55752  10.621  10.234   0.053  0.2419  0.1914  0.3637
  413MOL0     H55753  10.921  10.308   0.261 -0.6290  0.6613  0.5025
  413MOL0     H55754  10.878  10.298   0.095  1.4885 -0.2725  0.7297
  413MOL0     H55755  10.775  10.390   0.210 -0.4841  0.5161 -2.6030
  414MOL0     O55756   1.725   2.317   1.955 -0.4903  0.0459  0.1442
  414MOL0     C55757   1.841   2.309   1.988  0.4377 -0.0828  0.7691
  414MOL0     O55758   1.932   2.408   1.983 -0.6784 -0.2326  0.9474
  414MOL0     C55759   2.067   2.391   2.017  1.0040  0.0688 -0.5633
  414MOL0     C55760   2.104   2.407   2.152  0.7218 -0.7039  1.2805
  414MOL0     C55761   2.239   2.367   2.176 -0.3466  0.5627  0.0678
  414MOL0     C55762   2.331   2.323   2.081  0.9253 -0.7385 -0.3406
  414MOL0     O55763   2.459   2.289   2.126 -0.0137 -0.1884  0.8633
  414MOL0     C55764   2.563   2.251   2.041  0.2521  0.0688  0.0294
  414MOL0     C55765   2.643   2.377   1.996 -0.0256  0.9371  0.7135
  414MOL0     C55766   2.790   2.348   1.950  0.1222  0.0632  0.6446
  414MOL0     C55767   2.795   2.319   1.800 -0.0128 -0.4463 -0.0769
  414MOL0     C55768   2.927   2.250   1.757 -0.3686  0.3951 -0.1628
  414MOL0     C55769   3.039   2.351   1.768 -0.8455 -0.9028  0.5020
  414MOL0     C55770   3.176   2.311   1.703 -0.3469  0.2704  0.6428
  414MOL0     C55771   3.287   2.412   1.705  0.2678  0.4943 -0.3357
  414MOL0     N55772   3.379   2.386   1.817  0.3154  0.3093 -0.4915
  414MOL0     C55773   3.338   2.394   1.949  0.1011  0.4796  0.1078
  414MOL0     C55774   3.448   2.381   2.026  0.6881 -0.6018  0.2254
  414MOL0     C55775   3.447   2.387   2.172 -0.2583  0.7495 -0.4396
  414MOL0     C55776   3.574   2.328   2.240 -0.1589  0.1265 -0.8449
  414MOL0     C55777   3.558   2.301   2.389 -0.6133 -0.4879  0.5316
  414MOL0     C55778   3.486   2.174   2.412 -0.3147  0.1625  1.0476
  414MOL0     O55779   3.485   2.149   2.555  0.4854  0.1784 -0.2284
  414MOL0     C55780   3.377   2.183   2.634  0.1223 -0.0389 -0.1735
  414MOL0     C55781   3.265   2.253   2.592  0.9110 -0.1993  0.2118
  414MOL0     C55782   3.160   2.294   2.675  0.5757  0.1627  0.2752
  414MOL0     C55783   3.157   2.250   2.808 -0.8718 -0.2348 -0.4066
  414MOL0     C55784   3.048   2.277   2.912 -0.3875 -0.0588  0.2611
  414MOL0     O55785   2.947   2.357   2.867 -0.3094 -0.6619 -0.5525
  414MOL0     C55786   2.864   2.429   2.951 -0.4693  0.2256  0.1157
  414MOL0     C55787   2.902   2.487   3.071  0.4004  0.1400  0.3435
  414MOL0     C55788   2.806   2.542   3.163 -0.1231 -0.1393 -0.8907
  414MOL0     C55789   2.667   2.532   3.125  0.6573 -0.4641  0.2997
  414MOL0     O55790   2.590   2.578   3.226 -0.1763 -0.2751 -0.2377
  414MOL0     C55791   2.469   2.512   3.257  1.2028  1.0091  0.6496
  414MOL0     C55792   2.392   2.588   3.365 -1.0171 -0.5809  0.0288
  414MOL0     C55793   2.274   2.507   3.409 -0.2683 -1.0037  0.5506
  414MOL0     C55794   2.184   2.587   3.511  0.0671  0.0691  0.6255
  414MOL0     C55795   2.071   2.491   3.575 -0.2240 -1.0998 -0.2937
  414MOL0     C55796   1.955   2.467   3.475 -0.7903  0.5499  0.0445
  414MOL0     C55797   1.857   2.371   3.522  0.2700  0.1319  0.1371
  414MOL0     C55798   1.910   2.238   3.521 -0.2889  0.1855 -0.1760
  414MOL0    Cl55799   1.873   2.159   3.670 -0.1458  0.1884  0.1884
  414MOL0     C55800   2.628   2.487   3.003 -1.9369 -0.8093  0.3931
  414MOL0     C55801   2.728   2.442   2.909 -0.5107 -0.7845 -0.6992
  414MOL0     O55802   3.048   2.217   3.012 -0.6942  0.0973  0.6475
  414MOL0     C55803   3.275   2.194   2.853 -1.2095 -0.0779  0.3486
  414MOL0     C55804   3.386   2.166   2.768  0.0304  0.2358  0.1796
  414MOL0     N55805   3.554   2.392   1.941 -0.5575 -0.0582 -0.0815
  414MOL0     N55806   3.510   2.396   1.825 -0.3595 -0.4455  0.6277
  414MOL0     C55807   2.279   2.313   1.948  0.1786  0.4952  0.4583
  414MOL0     C55808   2.145   2.338   1.918  0.1274 -0.3416 -0.4843
  414MOL0     C55809   1.871   2.180   2.055 -0.5950  0.3870 -0.8525
  414MOL0     C55810   1.958   2.097   1.987 -0.3432  0.4327  0.3819
  414MOL0     C55811   2.004   1.977   2.045  0.4991 -0.3284 -0.2435
  414MOL0     C55812   1.984   1.956   2.176 -0.2607 -0.0362 -0.0809
  414MOL0     O55813   2.044   1.840   2.226  0.1180  0.6651  0.6238
  414MOL0     C55814   2.014   1.792   2.352 -0.8292 -0.0564 -0.8371
  414MOL0     C55815   2.098   1.684   2.406 -0.4203 -0.1249  0.5777
  414MOL0     C55816   2.244   1.741   2.416 -0.1302 -0.4239 -0.3291
  414MOL0     C55817   2.342   1.640   2.458 -0.7741  0.3442 -0.9644
  414MOL0     C55818   2.480   1.664   2.404  0.7294 -0.2803  0.6004
  414MOL0     C55819   2.592   1.688   2.375 -0.4785  0.6893 -0.5758
  414MOL0     C55820   1.899   2.037   2.242 -0.8340  0.2713 -0.3725
  414MOL0     C55821   1.837   2.151   2.188  0.5408  1.1897 -0.6133
  414MOL0     C55822   1.744   2.239   2.265 -0.5456  0.7577 -0.7207
  414MOL0     H55823   2.035   2.454   2.222  1.6565  4.5482 -0.8010
  414MOL0     H55824   2.271   2.377   2.279  1.8978  2.1467 -0.7030
  414MOL0     H55825   2.630   2.182   2.095  1.3453 -0.6076 -2.0575
  414MOL0     H55826   2.527   2.200   1.951 -1.8924  0.0799  0.8336
  414MOL0     H55827   2.649   2.443   2.082 -0.3344  2.2100 -0.2143
  414MOL0     H55828   2.593   2.431   1.915 -0.8125  0.4175  0.8383
  414MOL0     H55829   2.834   2.266   2.006  3.5505  0.3212 -1.4014
  414MOL0     H55830   2.845   2.439   1.973 -0.6807  0.5919  0.5311
  414MOL0     H55831   2.703   2.265   1.777  0.1657 -1.3075  1.1847
  414MOL0     H55832   2.788   2.409   1.738  1.4209 -0.2063  0.0890
  414MOL0     H55833   2.943   2.164   1.823  0.6737  0.9872  0.3715
  414MOL0     H55834   2.930   2.211   1.655  2.3685 -0.0619  0.0266
  414MOL0     H55835   3.008   2.450   1.733 -1.3467 -0.9787  0.7225
  414MOL0     H55836   3.043   2.367   1.876  0.9714 -3.8167  0.9781
  414MOL0     H55837   3.152   2.296   1.597  2.5877 -1.2774  0.1004
  414MOL0     H55838   3.217   2.222   1.751  3.0551  2.1628  1.5777
  414MOL0     H55839   3.347   2.404   1.614 -0.5234  0.3204 -0.8535
  414MOL0     H55840   3.249   2.514   1.719  3.2405  1.5397  0.9400
  414MOL0     H55841   3.234   2.398   1.980  0.3299  0.4899  0.8940
  414MOL0     H55842   3.443   2.490   2.208 -2.9245  1.0662 -1.4051
  414MOL0     H55843   3.361   2.331   2.210  1.2179 -1.6389 -0.4151
  414MOL0     H55844   3.604   2.236   2.190  0.4178  2.1604 -4.6298
  414MOL0     H55845   3.655   2.402   2.242 -1.0226  1.0813  0.9974
  414MOL0     H55846   3.503   2.380   2.440 -1.8635  0.2298 -1.7842
  414MOL0     H55847   3.662   2.299   2.421 -0.6153 -2.4219  0.5375
  414MOL0     H55848   3.550   2.100   2.362  0.0632  2.0334 -1.4165
  414MOL0     H55849   3.388   2.159   2.367 -1.0416  0.8303  2.3558
  414MOL0     H55850   3.245   2.293   2.493  1.4843  2.1134  0.9657
  414MOL0     H55851   3.081   2.358   2.637  0.6944 -0.7833 -1.6700
  414MOL0     H55852   3.008   2.475   3.086  0.3721  0.0468  0.4775
  414MOL0     H55853   2.838   2.577   3.261 -0.3320 -3.6981  0.5958
  414MOL0     H55854   2.407   2.508   3.167  0.7597 -0.3935  1.0029
  414MOL0     H55855   2.474   2.412   3.300  1.3275  0.1294 -1.3420
  414MOL0     H55856   2.466   2.587   3.445 -0.5706 -2.0112 -0.3711
  414MOL0     H55857   2.371   2.691   3.334  1.7281 -1.0183 -4.0429
  414MOL0     H55858   2.227   2.470   3.318  1.0568 -0.4340 -0.3956
  414MOL0     H55859   2.312   2.421   3.465  0.7619 -1.0395 -0.1846
  414MOL0     H55860   2.147   2.672   3.453  6.0750  1.9386 -1.2644
  414MOL0     H55861   2.244   2.618   3.597 -0.4599 -2.9356  2.1816
  414MOL0     H55862   2.020   2.537   3.661 -1.7237 -1.5704 -0.8885
  414MOL0     H55863   2.117   2.396   3.601  1.5990  0.0863  1.0969
  414MOL0     H55864   1.906   2.562   3.453 -0.9480  1.0703  2.3871
  414MOL0     H55865   2.001   2.432   3.382 -2.5736  0.1770 -0.7408
  414MOL0     H55866   1.768   2.365   3.459  0.4427 -1.5493  0.0089
  414MOL0     H55867   1.832   2.393   3.627  0.7855 -1.3301  0.5941
  414MOL0     H55868   1.862   2.190   3.435  0.4595  1.0149 -1.0818
  414MOL0     H55869   2.018   2.235   3.504  0.4983  0.9321  3.7170
  414MOL0     H55870   2.524   2.491   2.972 -1.3199  2.1984 -1.7985
  414MOL0     H55871   2.687   2.397   2.820 -2.1383 -0.8249  0.0333
  414MOL0     H55872   3.292   2.183   2.960 -0.8798  2.4764  0.6139
  414MOL0     H55873   3.482   2.132   2.804  0.3180  0.4293 -0.3823
  414MOL0     H55874   2.334   2.287   1.858 -0.0881 -0.8857  0.6820
  414MOL0     H55875   2.108   2.332   1.816 -0.1945 -0.5108 -0.3598
  414MOL0     H55876   1.980   2.118   1.883 -2.3623  2.5885  0.2964
  414MOL0     H55877   2.082   1.925   1.990  0.0102 -0.7903 -0.5134
  414MOL0     H55878   1.914   1.748   2.350 -1.8848  2.0891  0.4567
  414MOL0     H55879   2.014   1.871   2.428 -0.1100 -1.2648  0.4497
  414MOL0     H55880   2.103   1.596   2.342 -1.5437 -0.2739  0.6769
  414MOL0     H55881   2.058   1.657   2.504 -2.1584  0.1963 -0.0064
  414MOL0     H55882   2.240   1.825   2.487  0.2382 -1.0426  0.4450
  414MOL0     H55883   2.275   1.774   2.317 -3.1001 -1.4065 -1.7045
  414MOL0     H55884   2.360   1.633   2.566  0.0077 -2.4297 -1.2179
  414MOL0     H55885   2.313   1.547   2.409  1.4209  0.7336 -3.1750
  414MOL0     H55886   2.689   1.714   2.336 -1.5569  2.9986 -1.9009
  414MOL0     H55887   1.882   2.013   2.347 -1.6185 -0.3452 -0.6416
  414MOL0     H55888   1.760   2.241   2.373  0.8656  1.0854 -0.9173
  414MOL0     H55889   1.754   2.345   2.240  1.3927  1.0945  1.2091
  414MOL0     H55890   1.641   2.207   2.247 -0.5588  0.5909 -0.3663
  415MOL0     O55891  10.738   0.300   2.030  0.6529 -0.4189 -0.7628
  415MOL0     C55892  10.802   0.220   2.089  0.4437 -0.5383 -0.3892
  415MOL0     O55893  10.797   0.090   2.081  0.6379 -0.2793  0.2287
  415MOL0     C55894  10.680   0.041   2.028 -0.1704  0.4989 -0.5532
  415MOL0     C55895  10.683  -0.075   1.951  0.0904  0.0050 -0.3799
  415MOL0     C55896  10.567  -0.134   1.896  0.7487 -0.7542 -0.9305
  415MOL0     C55897  10.444  -0.081   1.928  0.7254  0.4493  0.3778
  415MOL0     O55898  10.317  -0.124   1.881 -0.2831 -0.4176 -0.2521
  415MOL0     C55899  10.320  -0.211   1.768 -0.2176 -0.5421  0.2566
  415MOL0     C55900  10.172  -0.245   1.749  0.0867 -0.7021  0.7917
  415MOL0     C55901  10.121  -0.337   1.858  0.5304 -0.0287 -0.0953
  415MOL0     C55902  10.068  -0.469   1.795 -1.5840 -0.0666  0.0990
  415MOL0     C55903   9.993  -0.564   1.886 -0.0357  0.6004  0.5617
  415MOL0     C55904   9.942  -0.679   1.796 -0.1427 -0.0477 -0.1150
  415MOL0     C55905   9.856  -0.767   1.886 -0.7584  0.0123 -0.2601
  415MOL0     C55906   9.841  -0.915   1.840  0.5606  0.2710 -0.0771
  415MOL0     N55907   9.814  -0.927   1.696  0.0639 -0.1124 -0.5191
  415MOL0     C55908   9.699  -0.879   1.636 -0.7074 -0.1297 -0.2358
  415MOL0     C55909   9.670  -0.950   1.527 -0.5704  0.4161  0.1600
  415MOL0     C55910   9.543  -0.923   1.447  0.2760  0.4648  0.5831
  415MOL0     C55911   9.457  -1.039   1.488  0.2010  0.1526  1.3732
  415MOL0     C55912   9.312  -1.022   1.436  0.0548 -0.5576 -0.7931
  415MOL0     C55913   9.224  -0.921   1.521  0.1029 -0.6174  0.9145
  415MOL0     O55914   9.176  -0.975   1.641 -0.0208 -0.4075  0.6978
  415MOL0     C55915   9.064  -0.919   1.694  0.6272  0.0009 -0.1305
  415MOL0     C55916   9.007  -0.977   1.810  0.7571 -0.2576  0.8248
  415MOL0     C55917   8.899  -0.926   1.880 -0.5034  0.3961  0.0447
  415MOL0     C55918   8.825  -0.813   1.825 -0.5784  0.6953 -0.8968
  415MOL0     C55919   8.700  -0.762   1.881 -0.2695 -0.0653 -0.0489
  415MOL0     O55920   8.661  -0.840   1.991 -0.0314 -0.6566 -0.2466
  415MOL0     C55921   8.531  -0.834   2.041  0.2019  0.6214 -0.6672
  415MOL0     C55922   8.498  -0.959   2.096 -0.3254 -0.4251 -0.1160
  415MOL0     C55923   8.383  -0.964   2.179 -0.0660  0.7597 -0.3451
  415MOL0     C55924   8.308  -0.852   2.204 -0.1533  0.3412  0.1703
  415MOL0     O55925   8.188  -0.877   2.256  0.4697  0.7654 -0.2589
  415MOL0     C55926   8.110  -0.775   2.331  0.2161  0.3799 -0.3252
  415MOL0     C55927   7.976  -0.827   2.396 -1.3313 -0.5444  0.1855
  415MOL0     C55928   7.997  -0.945   2.493 -0.5338 -0.1320 -0.0965
  415MOL0     C55929   8.045  -0.903   2.638  0.2919 -0.7815  0.2910
  415MOL0     C55930   8.071  -1.023   2.722 -0.6869  0.0749  0.3204
  415MOL0     C55931   8.138  -1.003   2.857 -0.0426  0.1327  0.3876
  415MOL0     C55932   8.089  -0.891   2.959 -0.0446 -0.7197 -0.0916
  415MOL0     C55933   7.946  -0.886   2.987 -0.4666 -0.2426  0.0133
  415MOL0    Cl55934   7.917  -0.746   3.087 -0.4034 -0.2061  0.1746
  415MOL0     C55935   8.352  -0.729   2.154 -0.7142 -0.0343  0.7398
  415MOL0     C55936   8.467  -0.716   2.075  0.2413 -0.2501  0.0147
  415MOL0     O55937   8.647  -0.654   1.845 -0.4574 -0.0621  0.0408
  415MOL0     C55938   8.862  -0.761   1.695 -0.4832  0.2344  0.2857
  415MOL0     C55939   8.988  -0.811   1.641  0.0505 -0.0673 -0.2013
  415MOL0     N55940   9.770  -1.048   1.521  0.4198  0.2315  0.6942
  415MOL0     N55941   9.848  -1.040   1.626  0.2456 -0.4133 -0.5827
  415MOL0     C55942  10.439   0.033   2.009  0.7943  0.3524 -0.2252
  415MOL0     C55943  10.554   0.092   2.059  0.3107 -0.2232 -0.4294
  415MOL0     C55944  10.897   0.280   2.195 -0.5334  0.3228  1.0025
  415MOL0     C55945  11.022   0.204   2.205  0.6462 -0.9740 -0.9113
  415MOL0     C55946  11.126   0.262   2.284  0.3912  0.0700 -0.6412
  415MOL0     C55947  11.105   0.389   2.340 -0.2538 -0.5060 -0.5236
  415MOL0     O55948  11.201   0.456   2.419  0.2805 -0.1736  0.1370
  415MOL0     C55949  11.339   0.426   2.429 -0.3610  0.0954 -0.7073
  415MOL0     C55950  11.414   0.485   2.309 -0.0551 -0.3200 -0.1734
  415MOL0     C55951  11.558   0.438   2.304 -0.4567 -0.3712  0.6815
  415MOL0     C55952  11.645   0.550   2.239 -0.9846  0.1150 -0.6890
  415MOL0     C55953  11.670   0.528   2.095  0.6298  0.1911 -0.6010
  415MOL0     C55954  11.691   0.486   1.987 -0.1416  0.7235  1.5360
  415MOL0     C55955  10.986   0.459   2.340  1.1194  0.9607 -0.0040
  415MOL0     C55956  10.882   0.405   2.266  0.9730 -0.5139  0.1246
  415MOL0     C55957  10.750   0.490   2.248 -1.0029  1.5264 -0.0453
  415MOL0     H55958  10.776  -0.122   1.921  0.1022  0.1050 -0.5040
  415MOL0     H55959  10.566  -0.210   1.819  3.2321 -1.4138 -0.4076
  415MOL0     H55960  10.368  -0.152   1.689 -2.9192  0.7228 -0.5507
  415MOL0     H55961  10.380  -0.297   1.799  1.2567 -0.1342 -1.2870
  415MOL0     H55962  10.156  -0.281   1.647  0.8420  1.1681 -0.0371
  415MOL0     H55963  10.115  -0.151   1.758  0.2953 -0.6376  1.5120
  415MOL0     H55964  10.047  -0.278   1.912  0.3885 -0.5761  0.3126
  415MOL0     H55965  10.191  -0.361   1.938 -0.7736 -3.0292  0.2536
  415MOL0     H55966   9.996  -0.426   1.725 -0.3652  2.8298  0.5025
  415MOL0     H55967  10.142  -0.528   1.741 -0.7014 -0.3494  1.5623
  415MOL0     H55968  10.058  -0.600   1.967  0.7512  0.2614 -0.1983
  415MOL0     H55969   9.907  -0.509   1.924 -1.4128 -1.1923  0.2195
  415MOL0     H55970   9.897  -0.637   1.705 -0.6178  3.9439  1.7510
  415MOL0     H55971  10.028  -0.733   1.754  0.6710  2.1897 -1.5287
  415MOL0     H55972   9.755  -0.729   1.904 -2.8166 -3.3953 -3.2365
  415MOL0     H55973   9.899  -0.787   1.985 -2.2109 -2.7310 -0.0578
  415MOL0     H55974   9.937  -0.965   1.854 -0.6365 -1.8570  0.9369
  415MOL0     H55975   9.762  -0.965   1.896 -0.6143  1.3234 -0.7357
  415MOL0     H55976   9.644  -0.793   1.672  0.2811  2.0067 -3.3569
  415MOL0     H55977   9.508  -0.824   1.476 -0.7407 -0.1423  1.5077
  415MOL0     H55978   9.568  -0.934   1.341 -2.5570 -1.7643  0.0326
  415MOL0     H55979   9.494  -1.132   1.445 -2.3620  0.2167 -1.2841
  415MOL0     H55980   9.453  -1.054   1.596  1.1157 -0.9767  1.2595
  415MOL0     H55981   9.255  -1.114   1.421  0.2343 -1.0820  1.3516
  415MOL0     H55982   9.311  -0.987   1.332  1.3812 -0.3114 -0.7474
  415MOL0     H55983   9.145  -0.887   1.454 -1.4560  1.1964  3.5146
  415MOL0     H55984   9.275  -0.825   1.535  0.5360 -0.4074 -1.5879
  415MOL0     H55985   9.050  -1.072   1.839 -1.8898 -1.9875 -0.5417
  415MOL0     H55986   8.869  -0.985   1.966  1.2950 -0.1694  0.3193
  415MOL0     H55987   8.548  -1.051   2.067 -3.5081 -1.8276 -1.7273
  415MOL0     H55988   8.353  -1.062   2.215 -0.6575  1.7409  2.0190
  415MOL0     H55989   8.178  -0.718   2.395  1.3093 -2.6299  1.3924
  415MOL0     H55990   8.082  -0.697   2.259 -3.6725  0.5864  1.1403
  415MOL0     H55991   7.922  -0.746   2.446  0.1084  1.2693 -1.0762
  415MOL0     H55992   7.911  -0.867   2.318 -3.1233  0.9302  0.8442
  415MOL0     H55993   7.894  -0.982   2.498 -1.1691  1.7219  1.9586
  415MOL0     H55994   8.056  -1.024   2.446 -1.7357  2.6370 -7.8173
  415MOL0     H55995   7.977  -0.826   2.675  3.6933  0.6033  4.6222
  415MOL0     H55996   8.134  -0.840   2.628 -0.5185  0.1694 -1.4134
  415MOL0     H55997   8.130  -1.094   2.663  0.6772  3.4490 -2.7154
  415MOL0     H55998   7.969  -1.062   2.737 -0.1939 -0.0857  4.5892
  415MOL0     H55999   8.143  -1.103   2.902  1.4441  0.4357  0.9636
  415MOL0     H56000   8.242  -0.974   2.840 -1.0384  3.0070 -1.3956
  415MOL0     H56001   8.118  -0.789   2.933  0.6662 -0.5790  1.1715
  415MOL0     H56002   8.148  -0.896   3.052  0.5574 -1.0387 -0.4861
  415MOL0     H56003   7.897  -0.876   2.890  1.9718  1.2819 -1.1920
  415MOL0     H56004   7.919  -0.972   3.048  2.4610 -0.2977  1.3950
  415MOL0     H56005   8.298  -0.637   2.178  4.1945  2.9495  1.8770
  415MOL0     H56006   8.510  -0.621   2.046  1.0180  0.4284  3.0444
  415MOL0     H56007   8.825  -0.667   1.655  0.0504  1.4584  2.4664
  415MOL0     H56008   9.017  -0.755   1.553 -4.1145  0.1340 -1.6851
  415MOL0     H56009  10.344   0.080   2.032  0.5490 -0.3662  0.2529
  415MOL0     H56010  10.535   0.184   2.115 -0.0597 -0.2328 -0.5395
  415MOL0     H56011  11.045   0.107   2.162  1.4431 -1.9563  1.5220
  415MOL0     H56012  11.222   0.213   2.301  0.9022  0.0607 -3.1009
  415MOL0     H56013  11.352   0.318   2.440  1.9692  0.3960 -0.1422
  415MOL0     H56014  11.378   0.475   2.519 -0.7054 -0.2498 -0.3636
  415MOL0     H56015  11.414   0.594   2.308 -0.5797 -0.3192 -0.7355
  415MOL0     H56016  11.363   0.461   2.216 -0.6782 -1.4479  0.4367
  415MOL0     H56017  11.571   0.341   2.255 -1.8455  0.2654 -1.0623
  415MOL0     H56018  11.601   0.432   2.404 -1.2334 -2.0786  0.9385
  415MOL0     H56019  11.590   0.643   2.252  0.2274  0.9328 -1.2150
  415MOL0     H56020  11.746   0.559   2.280 -1.2733  2.2632 -0.3417
  415MOL0     H56021  11.689   0.441   1.890  1.3995 -2.3530  2.8153
  415MOL0     H56022  10.983   0.562   2.373 -0.9328  1.2497 -0.9082
  415MOL0     H56023  10.720   0.546   2.337  1.0722  0.0468  1.6982
  415MOL0     H56024  10.767   0.560   2.166  0.1550  0.8337 -0.4139
  415MOL0     H56025  10.664   0.427   2.223 -0.5339  1.4947 -1.6737
  416MOL0     O56026   3.502  10.271  11.450  0.6079 -0.3348 -0.4716
  416MOL0     C56027   3.602  10.204  11.420  0.1669 -0.5436  0.8178
  416MOL0     O56028   3.599  10.113  11.318 -0.5720  0.6743 -0.3081
  416MOL0     C56029   3.493  10.091  11.230  0.0603  0.8787 -0.7573
  416MOL0     C56030   3.497   9.963  11.178  0.0881 -0.0463 -0.2005
  416MOL0     C56031   3.387   9.917  11.102  0.3036 -0.4012  1.0321
  416MOL0     C56032   3.271  10.006  11.066 -0.2990 -0.1333  0.3695
  416MOL0     O56033   3.161   9.979  10.984 -1.4174  0.2220  0.0210
  416MOL0     C56034   3.139   9.849  10.931  0.5529  0.2508  0.2210
  416MOL0     C56035   3.017   9.860  10.846 -0.8809  0.9264 -0.0885
  416MOL0     C56036   3.009   9.734  10.753 -0.4783 -0.2155  0.4444
  416MOL0     C56037   2.959   9.600  10.811  0.1267 -0.3473  0.4828
  416MOL0     C56038   2.827   9.597  10.874 -0.5178 -0.5066 -0.0977
  416MOL0     C56039   2.714   9.574  10.772  0.1347 -0.2067 -0.9326
  416MOL0     C56040   2.594   9.672  10.812 -0.7047 -0.0772 -0.5006
  416MOL0     C56041   2.456   9.641  10.741  0.1680 -0.7608 -0.3062
  416MOL0     N56042   2.358   9.578  10.829 -0.5078 -0.3440  0.7332
  416MOL0     C56043   2.371   9.446  10.880  0.5654  0.0542  0.1873
  416MOL0     C56044   2.251   9.412  10.928  0.5320 -0.3690  0.0420
  416MOL0     C56045   2.204   9.273  10.984 -0.4160  0.0016  0.6908
  416MOL0     C56046   2.283   9.156  10.921  0.1927  0.7846  0.1608
  416MOL0     C56047   2.217   9.021  10.944  0.8526  0.5319  0.1302
  416MOL0     C56048   2.228   8.981  11.091  0.4022  0.5416  0.0378
  416MOL0     O56049   2.364   8.928  11.127  0.0467 -0.4396  0.6207
  416MOL0     C56050   2.411   8.806  11.084 -0.4560 -0.2337 -0.3294
  416MOL0     C56051   2.542   8.778  11.064 -0.4404 -0.7630  0.0980
  416MOL0     C56052   2.589   8.665  10.998 -0.5648  0.6396  0.4577
  416MOL0     C56053   2.507   8.566  10.943  0.3507  0.0011  0.1361
  416MOL0     C56054   2.561   8.451  10.867  0.5938 -0.0167  0.2173
  416MOL0     O56055   2.474   8.360  10.819  0.5390 -0.8614  0.2788
  416MOL0     C56056   2.522   8.259  10.754  0.1661  0.2303  0.6201
  416MOL0     C56057   2.522   8.262  10.617 -0.2162  0.5735  0.4118
  416MOL0     C56058   2.568   8.151  10.536  0.0833 -0.7291 -0.1369
  416MOL0     C56059   2.623   8.039  10.597  0.1735 -0.0167  0.4577
  416MOL0     O56060   2.671   7.932  10.519 -0.0124 -0.0079  0.3665
  416MOL0     C56061   2.633   7.792  10.530 -0.7328  0.1076 -0.4094
  416MOL0     C56062   2.478   7.776  10.495 -0.4784 -0.3435  0.6890
  416MOL0     C56063   2.456   7.634  10.445 -0.1715  0.6229 -0.4623
  416MOL0     C56064   2.345   7.553  10.510 -0.1672  0.1678  1.3058
  416MOL0     C56065   2.328   7.428  10.418 -0.0268 -0.4563 -1.0680
  416MOL0     C56066   2.227   7.330  10.477 -0.7786  0.5408 -0.7449
  416MOL0     C56067   2.184   7.252  10.362  0.1050  0.7057  1.3651
  416MOL0     C56068   2.082   7.140  10.404 -0.1010  1.3909 -0.5999
  416MOL0    Cl56069   1.974   7.182  10.537 -0.1632 -0.5031  0.0070
  416MOL0     C56070   2.620   8.037  10.736 -0.1930  1.3672  0.0417
  416MOL0     C56071   2.566   8.143  10.810  0.9093 -0.6384 -0.4733
  416MOL0     O56072   2.681   8.434  10.855  1.1449  0.1742 -1.0804
  416MOL0     C56073   2.369   8.595  10.972 -0.6902  0.6650  0.0392
  416MOL0     C56074   2.321   8.712  11.031 -0.5895  0.5106  1.4980
  416MOL0     N56075   2.179   9.531  10.914 -0.2846 -0.1385  0.2219
  416MOL0     N56076   2.236   9.623  10.848  0.3929 -0.8701 -0.2407
  416MOL0     C56077   3.279  10.135  11.122  0.4070 -0.4707  0.4176
  416MOL0     C56078   3.389  10.175  11.194 -0.1847 -0.3676  0.1000
  416MOL0     C56079   3.709  10.221  11.518  0.1280 -0.7655  0.5542
  416MOL0     C56080   3.685  10.285  11.642  1.0833 -0.0976  0.0280
  416MOL0     C56081   3.780  10.318  11.728  0.3096 -0.4018 -0.2929
  416MOL0     C56082   3.908  10.272  11.699  1.7112 -0.5945  0.3899
  416MOL0     O56083   4.021  10.308  11.763  0.2283  0.4283  0.8438
  416MOL0     C56084   4.013  10.314  11.898 -0.1935 -0.3125 -0.0005
  416MOL0     C56085   4.158  10.287  11.934 -1.0599 -0.1949  0.5746
  416MOL0     C56086   4.164  10.258  12.082 -0.3581 -0.1151  0.0067
  416MOL0     C56087   4.316  10.257  12.121  0.6672  0.1716  0.6469
  416MOL0     C56088   4.333  10.206  12.260 -0.7687  0.3656  0.5879
  416MOL0     C56089   4.361  10.179  12.375 -0.7572  0.5553  1.1268
  416MOL0     C56090   3.932  10.190  11.591  1.1027  0.2341  1.0330
  416MOL0     C56091   3.834  10.162  11.495  0.3217 -0.0345  0.2801
  416MOL0     C56092   3.893  10.093  11.370  0.1305  0.9728 -0.0795
  416MOL0     H56093   3.575   9.890  11.195 -1.4898 -2.1083 -1.3189
  416MOL0     H56094   3.388   9.819  11.055 -0.9271  0.7693 -1.7041
  416MOL0     H56095   3.223   9.810  10.873  1.4279  1.7714  0.3993
  416MOL0     H56096   3.123   9.797  11.026 -0.1407  4.0883  2.4290
  416MOL0     H56097   3.041   9.941  10.776 -0.7234  2.2484  1.4474
  416MOL0     H56098   2.929   9.877  10.909 -1.3147 -0.9764 -0.1360
  416MOL0     H56099   3.108   9.717  10.710  0.2831 -2.8884  2.9562
  416MOL0     H56100   2.939   9.764  10.675  1.1322 -0.1909 -1.0593
  416MOL0     H56101   2.962   9.529  10.727  6.1163  0.3285 -0.3073
  416MOL0     H56102   3.037   9.565  10.879  0.5392  1.3700  0.9490
  416MOL0     H56103   2.832   9.503  10.930  1.1667  1.5548  3.5237
  416MOL0     H56104   2.798   9.677  10.942 -1.2239 -0.6809 -0.1901
  416MOL0     H56105   2.748   9.589  10.669  2.8307 -1.4823 -0.3067
  416MOL0     H56106   2.691   9.469  10.790 -0.6124  0.2681  1.1046
  416MOL0     H56107   2.633   9.769  10.780 -0.8404  0.0680 -0.2303
  416MOL0     H56108   2.575   9.682  10.919 -3.3616 -0.6525 -0.8564
  416MOL0     H56109   2.406   9.732  10.705  0.2806 -0.9402 -0.9253
  416MOL0     H56110   2.477   9.574  10.658  0.4633 -0.0758 -0.7988
  416MOL0     H56111   2.452   9.376  10.893 -0.1671 -0.8481  0.0170
  416MOL0     H56112   2.224   9.274  11.091 -0.2059 -1.1687  0.6703
  416MOL0     H56113   2.097   9.259  10.971 -0.0843 -0.2556 -2.6767
  416MOL0     H56114   2.276   9.169  10.813 -0.4660  0.5800  0.1770
  416MOL0     H56115   2.389   9.141  10.944 -0.9528 -3.8500  3.8815
  416MOL0     H56116   2.272   8.958  10.874  0.8878  1.7827 -1.0189
  416MOL0     H56117   2.113   9.020  10.909  0.7627  1.9846  0.2990
  416MOL0     H56118   2.157   8.899  11.102 -0.3424  0.7421 -2.5941
  416MOL0     H56119   2.200   9.063  11.159  2.5167  1.6621 -0.3298
  416MOL0     H56120   2.620   8.845  11.100  2.3188 -3.0519 -1.3324
  416MOL0     H56121   2.697   8.654  10.992 -0.3978  2.5438 -1.1063
  416MOL0     H56122   2.488   8.353  10.567  1.5411  1.6007  0.9680
  416MOL0     H56123   2.567   8.157  10.428 -1.3502  2.0242 -0.0598
  416MOL0     H56124   2.685   7.738  10.450 -2.2542 -0.1740 -1.2578
  416MOL0     H56125   2.664   7.755  10.628  0.7685 -0.7999 -1.1822
  416MOL0     H56126   2.417   7.803  10.581 -2.2253 -0.2083 -0.5415
  416MOL0     H56127   2.454   7.844  10.412  0.4605 -2.0616 -1.0738
  416MOL0     H56128   2.428   7.643  10.340  0.6138  2.0563 -0.5698
  416MOL0     H56129   2.553   7.584  10.451 -0.5508  0.0092  1.0649
  416MOL0     H56130   2.254   7.614  10.507  1.1931  2.3148 -1.2383
  416MOL0     H56131   2.370   7.517  10.610 -0.5898  1.6206  1.9635
  416MOL0     H56132   2.428   7.388  10.396  1.4395  2.8345 -0.9954
  416MOL0     H56133   2.284   7.461  10.323 -1.4939  0.2447 -0.1774
  416MOL0     H56134   2.266   7.267  10.558  2.1467  0.7789 -1.8335
  416MOL0     H56135   2.136   7.379  10.514 -0.2068  1.2734 -0.2707
  416MOL0     H56136   2.272   7.219  10.305 -0.5605 -0.9637  1.2331
  416MOL0     H56137   2.124   7.318  10.299  0.7906  0.1399  0.0660
  416MOL0     H56138   2.026   7.113  10.314  0.3490 -0.7102 -0.2998
  416MOL0     H56139   2.143   7.053  10.429 -0.9146 -0.1917 -3.5821
  416MOL0     H56140   2.652   7.939  10.772 -2.5402  0.1268 -1.0613
  416MOL0     H56141   2.552   8.146  10.917 -0.8836 -0.4003 -0.6841
  416MOL0     H56142   2.295   8.526  10.931 -1.9577  0.4480  2.5480
  416MOL0     H56143   2.214   8.728  11.043 -0.7031 -1.4572  4.0972
  416MOL0     H56144   3.201  10.208  11.098 -0.0110 -1.4102 -1.2942
  416MOL0     H56145   3.387  10.279  11.224 -2.4927 -0.4617  0.4577
  416MOL0     H56146   3.582  10.310  11.669  0.9916  1.2063 -1.3664
  416MOL0     H56147   3.760  10.381  11.814 -2.0679  1.6277 -2.1691
  416MOL0     H56148   3.947  10.236  11.938 -0.4948  0.3238  0.7560
  416MOL0     H56149   3.977  10.412  11.928 -0.8259 -0.8815  1.1665
  416MOL0     H56150   4.212  10.377  11.904 -1.2429  0.7364  2.8311
  416MOL0     H56151   4.202  10.206  11.876 -2.0592  0.6992 -1.5412
  416MOL0     H56152   4.115  10.163  12.104 -1.3615  0.7346  1.6579
  416MOL0     H56153   4.116  10.338  12.140 -0.0915 -0.0060  0.0832
  416MOL0     H56154   4.370  10.183  12.062  0.4385  0.2635  0.3172
  416MOL0     H56155   4.361  10.357  12.113 -2.1746  1.6020  1.1976
  416MOL0     H56156   4.375  10.155  12.479 -1.7587 -0.4692  1.0385
  416MOL0     H56157   4.031  10.148  11.578 -0.2204 -2.9398  0.3617
  416MOL0     H56158   3.992  10.048  11.388  0.7538  2.6324  0.9336
  416MOL0     H56159   3.844  10.003  11.332 -0.3353  2.5056 -3.4195
  416MOL0     H56160   3.909  10.161  11.286 -3.5060  0.9664 -0.9194
  417MOL0     O56161   7.313   0.949   4.629 -0.7149 -0.9073 -0.8092
  417MOL0     C56162   7.293   0.832   4.590  0.2758 -0.2740 -0.3756
  417MOL0     O56163   7.368   0.759   4.499 -0.5397  0.3857  0.2213
  417MOL0     C56164   7.489   0.814   4.455  0.3408 -0.5527  0.1018
  417MOL0     C56165   7.525   0.772   4.328 -1.0396  0.1944 -0.1395
  417MOL0     C56166   7.642   0.809   4.267 -0.4171  0.3261  0.0780
  417MOL0     C56167   7.733   0.894   4.333  0.1793 -0.2758 -0.4187
  417MOL0     O56168   7.851   0.928   4.259  0.3878  0.5469  0.0138
  417MOL0     C56169   7.966   0.945   4.337 -0.1662 -0.0969  0.5530
  417MOL0     C56170   8.101   0.967   4.251  0.4833 -0.2209 -0.0067
  417MOL0     C56171   8.115   1.106   4.186 -0.1818  0.0074  0.7524
  417MOL0     C56172   8.242   1.118   4.094  0.7895  0.3579 -0.0693
  417MOL0     C56173   8.381   1.115   4.159 -0.3063  0.8105 -0.2830
  417MOL0     C56174   8.488   1.090   4.051 -0.2454  0.0025 -0.1833
  417MOL0     C56175   8.632   1.118   4.094  0.2895  0.0789  1.2291
  417MOL0     C56176   8.665   1.276   4.116  1.0502  0.0508 -0.4503
  417MOL0     N56177   8.779   1.319   4.190  0.0439  0.0481 -0.0469
  417MOL0     C56178   8.812   1.292   4.321 -0.9046  0.2059  1.1291
  417MOL0     C56179   8.944   1.305   4.320  0.8141  0.1910 -0.5440
  417MOL0     C56180   9.010   1.286   4.446 -0.0421  0.5010 -0.8134
  417MOL0     C56181   9.085   1.411   4.498  0.2545  0.1499 -0.4205
  417MOL0     C56182   9.099   1.399   4.650 -0.6672  0.0824 -0.9354
  417MOL0     C56183   8.964   1.447   4.718 -0.3319  0.0093  0.3712
  417MOL0     O56184   8.903   1.345   4.804  0.3893 -0.3406  0.0516
  417MOL0     C56185   8.769   1.369   4.828  0.3528 -0.9816  0.0674
  417MOL0     C56186   8.669   1.278   4.808  0.3924  0.1596  0.0552
  417MOL0     C56187   8.532   1.286   4.835  0.0274 -1.0525 -0.8097
  417MOL0     C56188   8.481   1.417   4.866  0.0383  0.3427  0.4605
  417MOL0     C56189   8.339   1.436   4.902  0.8329  0.1390 -0.3518
  417MOL0     O56190   8.311   1.565   4.940 -0.3208  0.4203 -0.3055
  417MOL0     C56191   8.186   1.593   4.984  0.0232 -0.5207 -0.2127
  417MOL0     C56192   8.184   1.667   5.103 -0.1364 -0.4179  0.6653
  417MOL0     C56193   8.067   1.693   5.162  1.2392  0.2739 -0.5356
  417MOL0     C56194   7.946   1.647   5.101 -0.3043 -0.1633  0.0387
  417MOL0     O56195   7.845   1.660   5.190 -0.1796  0.2182  0.4757
  417MOL0     C56196   7.722   1.622   5.126 -0.2625 -0.4750  0.5141
  417MOL0     C56197   7.619   1.606   5.231 -0.3061 -0.3927  0.1722
  417MOL0     C56198   7.499   1.534   5.168 -0.3820 -0.5807  0.7911
  417MOL0     C56199   7.375   1.573   5.252 -0.7640  0.0758  0.5247
  417MOL0     C56200   7.263   1.464   5.246 -0.8092  0.2279 -0.1623
  417MOL0     C56201   7.150   1.499   5.352  0.2175 -0.6969 -0.2963
  417MOL0     C56202   7.036   1.387   5.361  0.4960 -0.3697 -0.1656
  417MOL0     C56203   7.090   1.253   5.432  0.3601 -1.1189 -0.6065
  417MOL0    Cl56204   6.963   1.145   5.473 -0.3008  0.2063 -0.6217
  417MOL0     C56205   7.945   1.589   4.970  0.0714  0.0645  0.1109
  417MOL0     C56206   8.067   1.562   4.914 -0.8652 -0.1628 -0.0428
  417MOL0     O56207   8.266   1.343   4.920 -0.6618 -0.4012  0.5268
  417MOL0     C56208   8.576   1.523   4.872 -0.3907  0.8718  1.4084
  417MOL0     C56209   8.717   1.498   4.851 -0.0736 -0.2469  0.0118
  417MOL0     N56210   8.992   1.354   4.203  0.9064 -0.2119  0.3170
  417MOL0     N56211   8.892   1.352   4.122 -0.1308 -0.1590  0.3376
  417MOL0     C56212   7.687   0.952   4.447 -0.3474  0.2622  0.0643
  417MOL0     C56213   7.569   0.907   4.517 -0.7755  0.5976 -0.2710
  417MOL0     C56214   7.166   0.763   4.630 -0.5778  0.4331  1.1387
  417MOL0     C56215   7.169   0.622   4.650  0.2189 -1.4239  0.4909
  417MOL0     C56216   7.051   0.539   4.678 -0.3982  0.1745 -0.2598
  417MOL0     C56217   6.934   0.614   4.689  0.2449 -0.4559 -0.1181
  417MOL0     O56218   6.808   0.545   4.702 -0.6148 -0.5946  0.6439
  417MOL0     C56219   6.682   0.609   4.711  0.2288 -0.7764 -0.5051
  417MOL0     C56220   6.584   0.503   4.658 -1.0203 -0.1369 -0.2717
  417MOL0     C56221   6.435   0.551   4.670 -0.8214 -0.0238  0.1787
  417MOL0     C56222   6.411   0.706   4.685  0.6025 -0.6066  0.3681
  417MOL0     C56223   6.290   0.733   4.768  0.2467  0.0288  1.1445
  417MOL0     C56224   6.184   0.728   4.839  0.8950  0.2718 -0.1545
  417MOL0     C56225   6.936   0.763   4.677  1.7795 -0.1024 -1.4520
  417MOL0     C56226   7.045   0.835   4.635 -0.1960 -1.1983  0.1332
  417MOL0     C56227   7.025   0.987   4.601 -0.5373  0.9803  0.4224
  417MOL0     H56228   7.465   0.692   4.286  3.4485 -4.3983  1.3356
  417MOL0     H56229   7.668   0.760   4.173 -3.5136  1.5417 -1.5431
  417MOL0     H56230   7.944   1.023   4.411 -0.9568 -0.7005  0.9689
  417MOL0     H56231   7.985   0.849   4.386 -0.3862 -0.4078  0.0318
  417MOL0     H56232   8.108   0.894   4.170  1.5021 -0.7941  0.5759
  417MOL0     H56233   8.184   0.948   4.320  0.6746 -1.2195 -0.4888
  417MOL0     H56234   8.124   1.183   4.263 -1.6369 -0.0328  0.9991
  417MOL0     H56235   8.024   1.117   4.125  0.1203  1.7852  0.5705
  417MOL0     H56236   8.234   1.034   4.024 -2.7248  0.2388  0.2973
  417MOL0     H56237   8.227   1.201   4.025  2.6237 -0.3677 -1.4123
  417MOL0     H56238   8.387   1.211   4.211  0.9208  0.3420  0.4976
  417MOL0     H56239   8.377   1.035   4.234  3.1184 -0.2086 -0.9886
  417MOL0     H56240   8.480   0.984   4.025 -0.3826  0.0521 -0.3473
  417MOL0     H56241   8.465   1.143   3.958 -2.1449  2.2620  1.4473
  417MOL0     H56242   8.704   1.081   4.020  1.7299  0.8745  2.2036
  417MOL0     H56243   8.648   1.060   4.185  1.0438  0.1981  1.1770
  417MOL0     H56244   8.656   1.324   4.018 -0.9962 -0.3275 -0.4871
  417MOL0     H56245   8.583   1.313   4.178  1.3581  0.7580 -0.4588
  417MOL0     H56246   8.744   1.273   4.404 -1.6298  2.0891  1.0187
  417MOL0     H56247   8.927   1.265   4.516  1.2211 -2.2943  0.0058
  417MOL0     H56248   9.077   1.201   4.427 -0.9185  0.2720 -3.1696
  417MOL0     H56249   9.188   1.409   4.460 -0.2540 -1.2544 -1.7924
  417MOL0     H56250   9.040   1.503   4.461 -1.0916 -0.9888 -1.7259
  417MOL0     H56251   9.181   1.465   4.679 -0.9025 -1.3290  3.6441
  417MOL0     H56252   9.130   1.299   4.682  0.3438 -0.3478 -3.0335
  417MOL0     H56253   8.891   1.473   4.641 -0.8251 -0.5095  0.6574
  417MOL0     H56254   8.990   1.538   4.773 -1.7187  0.6320  0.0381
  417MOL0     H56255   8.700   1.182   4.767 -2.8041 -1.7575  1.6757
  417MOL0     H56256   8.462   1.203   4.834  0.2666 -1.2557 -0.5673
  417MOL0     H56257   8.277   1.699   5.148 -0.5808  0.2198  1.1439
  417MOL0     H56258   8.063   1.749   5.255 -1.9588  0.5895 -0.7578
  417MOL0     H56259   7.702   1.695   5.047 -1.5018 -0.9259  0.4003
  417MOL0     H56260   7.730   1.520   5.085 -1.4336 -0.8358  1.1581
  417MOL0     H56261   7.661   1.539   5.306 -0.6779 -2.7387 -1.6121
  417MOL0     H56262   7.609   1.707   5.273 -2.1154 -1.5820  2.8677
  417MOL0     H56263   7.480   1.582   5.072  0.9914  0.2336  0.8948
  417MOL0     H56264   7.525   1.428   5.159  2.6031  0.1104  0.1808
  417MOL0     H56265   7.330   1.669   5.226 -1.6107 -0.4167  0.1485
  417MOL0     H56266   7.413   1.577   5.355  0.2154 -2.7761  0.3771
  417MOL0     H56267   7.299   1.363   5.264  1.7461  0.6890 -2.1199
  417MOL0     H56268   7.219   1.464   5.146  3.7365 -0.1548 -2.3768
  417MOL0     H56269   7.196   1.512   5.450 -2.8766  1.0110  1.0801
  417MOL0     H56270   7.109   1.598   5.327  4.0920  1.7465  1.9815
  417MOL0     H56271   7.001   1.367   5.259  0.1797  3.6604 -1.0198
  417MOL0     H56272   6.954   1.426   5.421  0.7758 -0.5382  0.3325
  417MOL0     H56273   7.163   1.206   5.365  1.6938  0.7104 -0.5257
  417MOL0     H56274   7.153   1.285   5.516  0.5671 -1.3215 -0.6857
  417MOL0     H56275   7.862   1.546   4.914  0.8571 -2.5657  0.8388
  417MOL0     H56276   8.085   1.511   4.820 -1.0614 -0.8106  0.2668
  417MOL0     H56277   8.557   1.623   4.908  0.0076  0.8008  1.8388
  417MOL0     H56278   8.778   1.586   4.867 -2.0138  1.1132  0.3178
  417MOL0     H56279   7.743   1.039   4.478 -3.5134  3.3035 -1.9687
  417MOL0     H56280   7.547   0.958   4.610  2.1457  0.1578  0.7545
  417MOL0     H56281   7.266   0.573   4.657  0.4639 -0.9360  0.5375
  417MOL0     H56282   7.053   0.434   4.705 -2.6292 -0.1600 -1.1886
  417MOL0     H56283   6.690   0.697   4.647 -0.9473  1.0622  1.7043
  417MOL0     H56284   6.655   0.649   4.810 -3.7886 -1.4490 -1.1548
  417MOL0     H56285   6.600   0.413   4.718  1.4523  0.5100  0.1717
  417MOL0     H56286   6.612   0.473   4.556  1.8553 -2.4216  1.0460
  417MOL0     H56287   6.388   0.502   4.756  0.6522 -1.2876  0.3168
  417MOL0     H56288   6.384   0.527   4.576  1.1769  1.2430 -1.3123
  417MOL0     H56289   6.500   0.752   4.729  0.8963 -2.7529  2.2496
  417MOL0     H56290   6.410   0.754   4.587  1.9785 -2.4557 -0.6296
  417MOL0     H56291   6.096   0.727   4.900 -0.5755  1.8853 -2.0685
  417MOL0     H56292   6.846   0.818   4.702 -1.6284 -5.9879  1.2136
  417MOL0     H56293   6.919   1.014   4.603 -2.2101 -4.4287  1.0463
  417MOL0     H56294   7.081   1.042   4.676  2.0676  2.9530 -2.7116
  417MOL0     H56295   7.074   1.001   4.504 -0.3583 -1.3349  0.1056
  418MOL0     O56296   7.928  11.186   7.083  0.8019  0.3763 -0.3577
  418MOL0     C56297   7.876  11.264   7.003 -0.0380  0.9557 -0.2963
  418MOL0     O56298   7.897  11.249   6.867  0.1581 -0.1945 -0.3553
  418MOL0     C56299   7.947  11.130   6.820  0.5608 -0.0449  0.0675
  418MOL0     C56300   8.061  11.129   6.734 -0.3155 -0.7352 -0.2284
  418MOL0     C56301   8.118  11.015   6.699  0.7130 -1.0898 -0.6371
  418MOL0     C56302   8.067  10.896   6.730  0.9086 -0.5212  0.2708
  418MOL0     O56303   8.119  10.772   6.705 -0.2985 -0.2998  0.2971
  418MOL0     C56304   8.216  10.766   6.585  0.7292  0.5380  0.0822
  418MOL0     C56305   8.204  10.639   6.504  0.2814 -0.1478 -0.9189
  418MOL0     C56306   8.062  10.601   6.451 -0.8893 -0.2127 -0.2506
  418MOL0     C56307   8.065  10.492   6.338  0.0666 -0.2559 -0.8027
  418MOL0     C56308   7.922  10.445   6.307  0.4789 -0.5884 -0.2709
  418MOL0     C56309   7.842  10.533   6.194 -1.0368  0.0157 -0.2405
  418MOL0     C56310   7.714  10.458   6.148  0.7418 -0.5879  0.8531
  418MOL0     C56311   7.618  10.542   6.054  0.0982  0.1190 -0.6565
  418MOL0     N56312   7.650  10.521   5.912 -0.0564 -0.2789  0.6097
  418MOL0     C56313   7.746  10.591   5.846  0.7195  0.1000 -0.3174
  418MOL0     C56314   7.751  10.535   5.723  0.1676 -0.5627 -0.3957
  418MOL0     C56315   7.836  10.591   5.610 -0.1269 -0.1634  0.2637
  418MOL0     C56316   7.994  10.572   5.602  0.0094 -0.0884 -0.4406
  418MOL0     C56317   8.051  10.431   5.590 -1.0585 -0.4553 -0.1199
  418MOL0     C56318   7.995  10.357   5.462  0.7399 -1.2338 -0.3720
  418MOL0     O56319   7.973  10.452   5.359 -0.1433 -0.7015  0.5580
  418MOL0     C56320   8.080  10.508   5.291 -0.2709 -1.4089 -0.5165
  418MOL0     C56321   8.053  10.623   5.217 -1.0806 -0.2384  0.4238
  418MOL0     C56322   8.157  10.697   5.153  0.4521 -0.2653  0.2650
  418MOL0     C56323   8.284  10.649   5.160 -0.0060  0.2168 -0.5056
  418MOL0     C56324   8.392  10.698   5.065  0.0216  0.7669 -0.5708
  418MOL0     O56325   8.484  10.606   5.025  0.0916  0.9376 -0.2072
  418MOL0     C56326   8.584  10.631   4.928 -0.6527  0.5915 -0.7265
  418MOL0     C56327   8.692  10.543   4.932 -0.2141  0.1069 -0.0156
  418MOL0     C56328   8.784  10.544   4.835 -0.5927  1.3082 -0.0353
  418MOL0     C56329   8.786  10.646   4.747  0.8779 -0.6245  0.1026
  418MOL0     O56330   8.898  10.664   4.659  0.0141  0.3149 -0.1934
  418MOL0     C56331   8.885  10.719   4.526 -0.9656  0.1883  0.3239
  418MOL0     C56332   9.026  10.698   4.461  0.7096 -0.3381  0.4532
  418MOL0     C56333   9.140  10.767   4.532 -1.0238  0.1994 -0.1731
  418MOL0     C56334   9.120  10.913   4.564 -0.3358  0.4138  0.5936
  418MOL0     C56335   9.252  10.981   4.576  0.1315 -0.3213  0.6252
  418MOL0     C56336   9.322  11.003   4.428  0.1929 -0.6683 -0.7628
  418MOL0     C56337   9.427  11.113   4.434  0.2926 -0.5980 -0.5192
  418MOL0     C56338   9.518  11.129   4.312 -0.2834  0.2385  1.3303
  418MOL0    Cl56339   9.568  10.972   4.240 -0.6607  0.6303  0.2344
  418MOL0     C56340   8.686  10.746   4.752 -0.4028 -0.5387 -0.2026
  418MOL0     C56341   8.580  10.732   4.831 -0.3736  0.7821  0.1366
  418MOL0     O56342   8.394  10.816   5.041  0.3883  0.0113 -0.2288
  418MOL0     C56343   8.313  10.529   5.228  0.2468 -0.3190  1.2017
  418MOL0     C56344   8.213  10.465   5.294 -0.7611 -0.6692  0.7596
  418MOL0     N56345   7.653  10.440   5.706  0.5463 -0.0667 -0.4492
  418MOL0     N56346   7.587  10.445   5.826  0.0670 -0.2737 -0.2041
  418MOL0     C56347   7.946  10.889   6.809  0.5934  0.1494 -0.1981
  418MOL0     C56348   7.880  11.007   6.848  0.9541 -0.1611 -0.4596
  418MOL0     C56349   7.786  11.370   7.047 -0.0442 -0.1740 -0.4235
  418MOL0     C56350   7.759  11.470   6.949 -0.2454  1.0896  0.1033
  418MOL0     C56351   7.676  11.584   6.966  1.0278  0.3623  0.5963
  418MOL0     C56352   7.622  11.596   7.099 -0.0234 -0.3022 -0.4415
  418MOL0     O56353   7.569  11.709   7.146  0.1720 -0.5403 -0.4202
  418MOL0     C56354   7.522  11.817   7.054  0.2894 -0.2116  0.2681
  418MOL0     C56355   7.422  11.911   7.120  0.6754 -0.1471  0.2342
  418MOL0     C56356   7.483  11.989   7.235  0.4095  0.2162 -0.0394
  418MOL0     C56357   7.435  12.132   7.232  0.0747 -0.0865 -0.2176
  418MOL0     C56358   7.291  12.148   7.264  0.3748  0.3148 -0.2160
  418MOL0     C56359   7.176  12.168   7.298  0.3326 -0.7537  0.2532
  418MOL0     C56360   7.648  11.502   7.195 -0.2549 -0.5108 -0.1209
  418MOL0     C56361   7.730  11.388   7.177  1.0893 -1.1983 -0.1640
  418MOL0     C56362   7.742  11.295   7.285  0.3860 -0.5812 -0.3023
  418MOL0     H56363   8.095  11.226   6.700 -2.1984 -0.5444 -1.7607
  418MOL0     H56364   8.207  11.032   6.639 -0.3968 -0.9698 -2.3149
  418MOL0     H56365   8.213  10.852   6.517 -0.2805  0.3989 -0.0629
  418MOL0     H56366   8.318  10.758   6.623  1.3507  5.1672 -0.0086
  418MOL0     H56367   8.244  10.561   6.569 -1.2956  0.3982  0.7868
  418MOL0     H56368   8.274  10.655   6.421  1.9824 -0.9987  0.2850
  418MOL0     H56369   8.021  10.694   6.411 -0.2691  0.9930  1.8080
  418MOL0     H56370   7.998  10.571   6.535 -1.4996 -0.4176 -0.7752
  418MOL0     H56371   8.117  10.533   6.251 -0.7471 -1.2081 -1.7743
  418MOL0     H56372   8.128  10.407   6.367  0.6712  0.1944 -0.7860
  418MOL0     H56373   7.930  10.340   6.275  0.7994 -0.8555  0.6432
  418MOL0     H56374   7.855  10.453   6.393 -1.3093  1.9977 -1.7710
  418MOL0     H56375   7.824  10.638   6.218 -1.1110 -0.3394  1.3328
  418MOL0     H56376   7.907  10.538   6.106  0.3308  1.8979  0.8023
  418MOL0     H56377   7.645  10.442   6.232 -1.2472 -5.0378 -1.2761
  418MOL0     H56378   7.735  10.361   6.102  1.3745  0.3993 -1.0310
  418MOL0     H56379   7.515  10.509   6.068  1.3051 -3.3720  1.4461
  418MOL0     H56380   7.626  10.649   6.071 -3.0758  0.0574  2.4111
  418MOL0     H56381   7.792  10.678   5.891 -4.2667  1.4182  3.1002
  418MOL0     H56382   7.805  10.526   5.528  1.4075 -1.7262  0.8386
  418MOL0     H56383   7.813  10.697   5.614  1.0636  0.1331 -0.1576
  418MOL0     H56384   8.034  10.628   5.518 -0.5296 -1.3312 -1.5748
  418MOL0     H56385   8.037  10.628   5.686 -0.3764  2.5444 -1.9053
  418MOL0     H56386   8.034  10.362   5.673  1.7519  1.3193  2.1125
  418MOL0     H56387   8.159  10.436   5.576 -0.9546 -1.9989 -0.0746
  418MOL0     H56388   7.904  10.309   5.499 -0.3921  0.1986 -1.2112
  418MOL0     H56389   8.048  10.267   5.428 -0.5961 -0.8590 -3.9529
  418MOL0     H56390   7.946  10.640   5.220 -1.5610 -2.7952 -0.2965
  418MOL0     H56391   8.134  10.790   5.102 -0.1636  1.6385  3.7314
  418MOL0     H56392   8.676  10.463   5.005  0.3770  0.2589  0.2838
  418MOL0     H56393   8.853  10.459   4.836 -1.1682  0.8324 -0.4326
  418MOL0     H56394   8.816  10.652   4.474 -3.4009  1.3764  1.7824
  418MOL0     H56395   8.858  10.825   4.521  1.5476  0.9373  1.3862
  418MOL0     H56396   9.046  10.591   4.453 -1.3320 -0.6151 -2.6061
  418MOL0     H56397   9.030  10.741   4.360 -3.1107 -0.7162  0.0086
  418MOL0     H56398   9.152  10.711   4.625 -0.7210 -0.0747 -0.3727
  418MOL0     H56399   9.238  10.749   4.487  0.0371  0.9708  1.7111
  418MOL0     H56400   9.059  10.920   4.655  1.7589 -1.5758  2.2948
  418MOL0     H56401   9.069  10.962   4.482 -0.3095  2.5032  1.7640
  418MOL0     H56402   9.323  10.921   4.634 -0.6908 -0.8687  1.0731
  418MOL0     H56403   9.245  11.080   4.623  1.1904 -0.9480  2.2173
  418MOL0     H56404   9.360  10.904   4.400  0.2787 -0.5234 -1.1686
  418MOL0     H56405   9.259  11.043   4.348 -0.4909 -0.1469  0.0209
  418MOL0     H56406   9.500  11.080   4.509  0.9304 -1.7811 -1.6140
  418MOL0     H56407   9.387  11.213   4.453  3.3995  0.5654  0.6139
  418MOL0     H56408   9.453  11.186   4.245  4.1399  2.9247 -1.1806
  418MOL0     H56409   9.610  11.183   4.337  0.3142  0.3560 -0.8948
  418MOL0     H56410   8.705  10.825   4.680  1.0094  0.1595  0.8798
  418MOL0     H56411   8.498  10.804   4.827 -0.0387  1.1032 -2.2424
  418MOL0     H56412   8.402  10.467   5.226 -0.5262 -1.6391  3.6508
  418MOL0     H56413   8.239  10.378   5.354 -0.2256  0.9214  2.9761
  418MOL0     H56414   7.890  10.799   6.831 -0.2446  0.6279 -0.3027
  418MOL0     H56415   7.784  10.993   6.898 -0.0406 -3.1548 -2.8900
  418MOL0     H56416   7.803  11.464   6.850 -0.5733  0.0259  0.0101
  418MOL0     H56417   7.661  11.665   6.895  1.3488  1.5441  1.8378
  418MOL0     H56418   7.476  11.767   6.968  1.5776 -2.7010  0.9444
  418MOL0     H56419   7.608  11.878   7.024 -0.2843 -0.4311 -2.0987
  418MOL0     H56420   7.335  11.854   7.155  0.7649  0.0548  0.8037
  418MOL0     H56421   7.378  11.981   7.048  1.0081  0.4895  0.6372
  418MOL0     H56422   7.591  11.980   7.222  0.2115 -0.4723 -1.4242
  418MOL0     H56423   7.462  11.952   7.335 -0.2480 -2.3521 -1.0481
  418MOL0     H56424   7.483  12.180   7.318 -0.3668  2.6048 -1.3685
  418MOL0     H56425   7.467  12.172   7.135  0.4546 -0.2819 -0.1764
  418MOL0     H56426   7.070  12.173   7.315  0.1871 -3.6576  0.6481
  418MOL0     H56427   7.620  11.528   7.296  2.4660 -1.8082  1.0830
  418MOL0     H56428   7.848  11.270   7.301  0.0420 -1.2210  1.2056
  418MOL0     H56429   7.710  11.334   7.382 -0.9478 -0.7108 -0.6740
  418MOL0     H56430   7.687  11.202   7.272  0.7429 -0.7814 -0.4079
  419MOL0     O56431   3.687   4.073   8.266  1.1472  0.0175  0.5087
  419MOL0     C56432   3.809   4.045   8.246  0.8514  0.0749  0.7951
  419MOL0     O56433   3.894   4.016   8.351  0.9126  0.5138  0.0958
  419MOL0     C56434   3.833   4.005   8.476  0.5347 -0.5557 -0.3636
  419MOL0     C56435   3.847   3.881   8.546 -0.0506  0.8681  0.0551
  419MOL0     C56436   3.783   3.857   8.673  0.9068  0.0703 -0.7081
  419MOL0     C56437   3.718   3.960   8.739  0.6797 -0.3280 -0.1491
  419MOL0     O56438   3.651   3.935   8.854 -0.2526 -0.8411  0.2207
  419MOL0     C56439   3.557   3.834   8.859  0.7347  0.1348 -0.6192
  419MOL0     C56440   3.467   3.878   8.978  0.6731  0.4314 -1.0097
  419MOL0     C56441   3.393   4.000   8.935  0.2442 -0.4728 -0.1557
  419MOL0     C56442   3.259   4.021   9.010 -0.3503 -0.8600  0.1764
  419MOL0     C56443   3.146   3.924   8.959  0.4392  0.9885 -0.2076
  419MOL0     C56444   3.110   3.935   8.816 -0.1368 -0.1455  0.6957
  419MOL0     C56445   2.990   3.846   8.780 -0.3527  0.2210  0.3244
  419MOL0     C56446   3.013   3.687   8.785 -0.2832 -0.4833 -1.0234
  419MOL0     N56447   3.120   3.650   8.694  0.1328 -0.8511  0.0544
  419MOL0     C56448   3.111   3.650   8.563 -0.1271 -0.4824  0.1854
  419MOL0     C56449   3.235   3.620   8.514 -0.0311 -0.3934  0.0082
  419MOL0     C56450   3.281   3.637   8.372  0.0109  0.4749 -0.0213
  419MOL0     C56451   3.279   3.783   8.328 -0.2225 -1.3149 -0.0361
  419MOL0     C56452   3.396   3.862   8.398 -0.2081  0.2247  0.0568
  419MOL0     C56453   3.411   4.012   8.377  0.9651  0.3500 -1.1909
  419MOL0     O56454   3.286   4.083   8.399 -0.4847 -0.2561  0.3302
  419MOL0     C56455   3.290   4.207   8.359 -0.5789  0.1883  0.1392
  419MOL0     C56456   3.402   4.280   8.299 -0.6361  0.3238  0.9016
  419MOL0     C56457   3.381   4.414   8.258 -0.5531  0.1553  1.2273
  419MOL0     C56458   3.258   4.481   8.282  0.6557  1.3898 -0.5003
  419MOL0     C56459   3.233   4.621   8.243 -0.1662 -0.2855 -0.1434
  419MOL0     O56460   3.106   4.674   8.238 -0.4045  1.0725  0.2469
  419MOL0     C56461   3.073   4.785   8.172  0.9371  0.0272  0.8996
  419MOL0     C56462   3.071   4.918   8.226  0.3132 -0.0902  0.0833
  419MOL0     C56463   3.032   5.024   8.144 -0.2857 -0.8494 -0.1293
  419MOL0     C56464   2.986   5.011   8.014  0.0085  0.0019 -0.5882
  419MOL0     O56465   2.962   5.122   7.939 -0.0061  0.1538 -0.5392
  419MOL0     C56466   2.909   5.110   7.803 -0.6297 -0.0717  0.8213
  419MOL0     C56467   2.895   5.255   7.741 -0.2356  0.6827  0.5800
  419MOL0     C56468   2.796   5.334   7.820  0.3383 -0.3595 -0.0867
  419MOL0     C56469   2.775   5.480   7.790  0.2336  1.1215  0.6078
  419MOL0     C56470   2.668   5.503   7.675  0.0553 -0.1976 -0.4534
  419MOL0     C56471   2.510   5.480   7.717 -0.9472  0.8371  0.8211
  419MOL0     C56472   2.452   5.578   7.821  0.1717  0.1048 -0.7796
  419MOL0     C56473   2.372   5.505   7.937 -0.0340 -1.9301  0.7504
  419MOL0    Cl56474   2.310   5.630   8.041  0.3718  0.0118 -0.2144
  419MOL0     C56475   2.986   4.881   7.962  0.4739 -0.1661 -0.1079
  419MOL0     C56476   3.020   4.770   8.045  0.7889 -0.2441  0.2484
  419MOL0     O56477   3.337   4.688   8.227  0.4333  0.5659  0.4991
  419MOL0     C56478   3.152   4.409   8.345  0.0896  0.6525  1.1237
  419MOL0     C56479   3.174   4.276   8.384  0.1982 -0.2124  0.2153
  419MOL0     N56480   3.315   3.604   8.622  0.3251 -0.8664  0.4171
  419MOL0     N56481   3.248   3.627   8.727  0.2039  0.1879 -0.4715
  419MOL0     C56482   3.710   4.085   8.682 -0.4812 -0.5591  1.4958
  419MOL0     C56483   3.761   4.112   8.551  0.3637 -0.4371  0.3539
  419MOL0     C56484   3.865   4.048   8.112 -0.7849  0.1136  0.2016
  419MOL0     C56485   3.789   3.975   8.017 -0.7607 -0.1398  0.2242
  419MOL0     C56486   3.831   3.966   7.882  0.5782 -0.6177 -0.8975
  419MOL0     C56487   3.950   4.029   7.843  0.1586 -0.3206  0.7702
  419MOL0     O56488   4.006   4.025   7.718  0.1456  0.7473 -0.2701
  419MOL0     C56489   3.950   3.944   7.623 -0.2400  0.2100  0.9039
  419MOL0     C56490   4.024   3.817   7.645 -0.1083  0.0052 -0.6610
  419MOL0     C56491   4.173   3.842   7.643  0.4960  0.5326  0.7430
  419MOL0     C56492   4.238   3.707   7.624  0.9327 -1.1389  0.3923
  419MOL0     C56493   4.191   3.632   7.508  1.0396  0.1061  1.0259
  419MOL0     C56494   4.141   3.555   7.425 -0.3309 -0.2626  0.0658
  419MOL0     C56495   4.023   4.105   7.935  0.7977 -0.6969  0.2762
  419MOL0     C56496   3.990   4.115   8.068  0.4902  0.1277  0.0500
  419MOL0     C56497   4.068   4.201   8.159 -0.4913  0.3856  0.3070
  419MOL0     H56498   3.895   3.794   8.501 -2.7918 -0.8006  0.1078
  419MOL0     H56499   3.790   3.759   8.719  1.7065 -0.8635 -2.6969
  419MOL0     H56500   3.495   3.828   8.769 -0.7267  1.9103  0.2035
  419MOL0     H56501   3.607   3.737   8.871 -0.2321 -0.1333  1.7221
  419MOL0     H56502   3.528   3.904   9.065 -1.2949  0.3433  0.4552
  419MOL0     H56503   3.397   3.798   9.005  3.7985 -1.8608  1.0205
  419MOL0     H56504   3.366   3.981   8.831 -1.9670 -2.1302  0.6481
  419MOL0     H56505   3.456   4.089   8.935  0.8449 -0.8775 -1.4661
  419MOL0     H56506   3.279   4.004   9.117  5.8753  4.5390  0.5100
  419MOL0     H56507   3.221   4.123   8.999  0.6159  0.1739  4.4709
  419MOL0     H56508   3.184   3.822   8.969 -1.5011  0.0822 -1.4961
  419MOL0     H56509   3.059   3.938   9.024  2.3606  1.1322  2.4997
  419MOL0     H56510   3.084   4.040   8.798 -0.9822 -0.5648 -0.6670
  419MOL0     H56511   3.188   3.911   8.743  0.3182  1.9851  0.4132
  419MOL0     H56512   2.976   3.881   8.677 -1.0161  2.6081  1.1558
  419MOL0     H56513   2.902   3.871   8.840  0.7461  0.0061  2.1040
  419MOL0     H56514   3.031   3.658   8.889  0.0038 -0.6108 -1.1072
  419MOL0     H56515   2.922   3.631   8.761 -0.3008 -1.5869  1.3015
  419MOL0     H56516   3.031   3.692   8.503  0.7419  0.6112 -0.2497
  419MOL0     H56517   3.387   3.609   8.362  1.0554  2.7944  3.0528
  419MOL0     H56518   3.226   3.586   8.293  0.0785  2.4778 -1.4471
  419MOL0     H56519   3.292   3.796   8.220  0.9718  0.3472  0.2581
  419MOL0     H56520   3.182   3.829   8.349  0.3337  0.9557 -1.9012
  419MOL0     H56521   3.493   3.819   8.371  2.1794  4.2699  1.3689
  419MOL0     H56522   3.378   3.863   8.506 -0.8499  1.5039 -0.0387
  419MOL0     H56523   3.453   4.027   8.277 -0.3470  0.3637 -1.7658
  419MOL0     H56524   3.483   4.040   8.454  1.2523 -2.6438 -0.2440
  419MOL0     H56525   3.497   4.231   8.280 -0.6651  1.2441 -2.0435
  419MOL0     H56526   3.461   4.474   8.215 -3.0398  1.8692 -1.3889
  419MOL0     H56527   3.101   4.925   8.330  1.5464 -2.7878 -0.0115
  419MOL0     H56528   3.028   5.128   8.176 -0.8245 -0.9088  0.0055
  419MOL0     H56529   2.982   5.064   7.736 -0.8214  1.8601 -0.8099
  419MOL0     H56530   2.815   5.057   7.787 -0.5011 -0.1970  0.4776
  419MOL0     H56531   2.993   5.305   7.739  1.1914 -1.8981  0.9465
  419MOL0     H56532   2.852   5.258   7.641 -0.0560 -1.0555  0.4201
  419MOL0     H56533   2.701   5.283   7.802 -1.2947  1.4311  2.6861
  419MOL0     H56534   2.813   5.324   7.928  2.1985  3.0599  0.0751
  419MOL0     H56535   2.876   5.507   7.756 -0.5399  1.4424 -1.5806
  419MOL0     H56536   2.744   5.533   7.880  1.2562  1.6097  0.6936
  419MOL0     H56537   2.698   5.438   7.592 -1.3200 -1.4851 -0.0006
  419MOL0     H56538   2.664   5.608   7.646 -2.1704 -0.3178 -0.7728
  419MOL0     H56539   2.451   5.490   7.626 -0.6705  1.6948  0.7362
  419MOL0     H56540   2.486   5.377   7.745  0.0478 -0.1140 -1.5655
  419MOL0     H56541   2.380   5.648   7.779 -0.5128  0.5148  0.9785
  419MOL0     H56542   2.535   5.639   7.860  1.9604 -1.2646 -2.2531
  419MOL0     H56543   2.278   5.461   7.903 -1.2303  2.8322 -3.5301
  419MOL0     H56544   2.442   5.438   7.986  1.1342 -0.5288  1.0742
  419MOL0     H56545   2.950   4.861   7.862  0.1359 -2.4558  0.4107
  419MOL0     H56546   3.015   4.671   8.002  0.4928  0.6667 -1.9725
  419MOL0     H56547   3.058   4.465   8.353 -0.2890  0.6188 -1.9364
  419MOL0     H56548   3.092   4.229   8.437 -0.3154 -1.3499 -1.5239
  419MOL0     H56549   3.670   4.173   8.731  1.4600  1.9117 -1.0147
  419MOL0     H56550   3.749   4.209   8.505  1.1894 -0.7989 -0.6717
  419MOL0     H56551   3.697   3.919   8.033  1.9563 -5.0384  0.5111
  419MOL0     H56552   3.765   3.909   7.818 -1.1704  0.9856 -0.5997
  419MOL0     H56553   3.978   3.980   7.523 -1.4387 -0.0231  0.4723
  419MOL0     H56554   3.843   3.932   7.638 -0.1521 -1.5842  0.3163
  419MOL0     H56555   3.991   3.746   7.568 -0.6199 -1.9643  1.2903
  419MOL0     H56556   3.986   3.781   7.741 -0.0364 -0.1256 -0.6826
  419MOL0     H56557   4.195   3.883   7.741 -2.4090  0.6258  1.4560
  419MOL0     H56558   4.187   3.915   7.562 -3.0693 -1.2545 -1.8105
  419MOL0     H56559   4.344   3.728   7.606  0.4221 -0.7845 -2.9203
  419MOL0     H56560   4.228   3.643   7.712  1.7215 -2.1013 -0.1866
  419MOL0     H56561   4.106   3.483   7.354  3.5323  0.9693 -3.4628
  419MOL0     H56562   4.113   4.151   7.896  1.7817 -4.1545 -2.0896
  419MOL0     H56563   4.081   4.167   8.262  3.4032 -0.3602 -0.2559
  419MOL0     H56564   4.173   4.205   8.129  0.3432 -1.1110  2.7227
  419MOL0     H56565   4.021   4.299   8.153 -2.3566 -0.1579  3.5693
  420MOL0     O56566  10.702   4.238  10.011  0.3392 -0.2559 -0.4597
  420MOL0     C56567  10.658   4.349   9.997  0.5514 -0.0283 -0.0243
  420MOL0     O56568  10.648   4.445  10.099 -0.5228 -0.1123  0.3362
  420MOL0     C56569  10.760   4.454  10.184  0.0150 -0.1641  0.4447
  420MOL0     C56570  10.746   4.535  10.292 -0.5065 -0.4528 -0.3383
  420MOL0     C56571  10.854   4.559  10.376  0.8006  0.4049 -0.0398
  420MOL0     C56572  10.976   4.496  10.358 -0.0474 -0.1096  0.3647
  420MOL0     O56573  11.078   4.508  10.445  0.5164  0.4398 -0.0606
  420MOL0     C56574  11.214   4.538  10.414  0.5868 -1.1593  0.2916
  420MOL0     C56575  11.286   4.595  10.544  1.1412 -0.1666 -0.6482
  420MOL0     C56576  11.436   4.570  10.558  0.7553 -0.5740  0.8247
  420MOL0     C56577  11.482   4.632  10.690  0.2175 -0.0467 -0.0879
  420MOL0     C56578  11.630   4.623  10.717 -1.3043  0.1879 -0.1391
  420MOL0     C56579  11.670   4.474  10.756  0.0784 -0.2357  1.0937
  420MOL0     C56580  11.768   4.415  10.648 -0.2737  0.2783  0.9246
  420MOL0     C56581  11.758   4.262  10.649  0.5846  1.1518  0.0274
  420MOL0     N56582  11.862   4.194  10.570 -0.1208 -0.4749  1.1920
  420MOL0     C56583  11.977   4.246  10.500 -0.2940 -0.0758 -0.0207
  420MOL0     C56584  12.022   4.137  10.436  0.0418 -0.1034  0.2854
  420MOL0     C56585  12.141   4.117  10.340  0.0335 -0.7208  0.2134
  420MOL0     C56586  12.270   4.146  10.418 -0.5944  0.0492  1.3915
  420MOL0     C56587  12.398   4.156  10.333 -0.7005 -0.3533 -0.0079
  420MOL0     C56588  12.460   4.018  10.296 -0.3443 -0.4283 -0.6180
  420MOL0     O56589  12.584   4.035  10.220 -0.2511 -0.7188  0.6030
  420MOL0     C56590  12.635   3.922  10.161 -0.2326 -0.5967  0.3850
  420MOL0     C56591  12.567   3.797  10.159 -0.5676  0.9587  0.0562
  420MOL0     C56592  12.624   3.692  10.092 -0.1382  0.4106 -0.1520
  420MOL0     C56593  12.749   3.705  10.034  0.0346 -0.1518 -0.8286
  420MOL0     C56594  12.817   3.591   9.972  0.6115  0.1785 -0.1646
  420MOL0     O56595  12.896   3.619   9.861  0.0982 -0.2485 -0.2816
  420MOL0     C56596  12.946   3.508   9.791 -0.7734  0.2985  0.3634
  420MOL0     C56597  12.914   3.492   9.663 -0.3230 -0.2404 -0.0174
  420MOL0     C56598  12.983   3.388   9.591  0.4751 -0.4733  0.3960
  420MOL0     C56599  13.065   3.294   9.660  0.1445 -0.1755  0.2040
  420MOL0     O56600  13.132   3.193   9.592  0.7999 -0.1069  0.5196
  420MOL0     C56601  13.046   3.104   9.526 -0.0739  0.1494  0.6956
  420MOL0     C56602  13.112   2.963   9.536  0.1486  0.6864  0.5587
  420MOL0     C56603  13.103   2.905   9.669 -0.9694 -1.1575 -0.1534
  420MOL0     C56604  13.178   2.761   9.674  0.2270 -0.3161  0.5383
  420MOL0     C56605  13.183   2.715   9.822 -0.7517  0.1479  0.9642
  420MOL0     C56606  13.199   2.560   9.843 -1.0400  0.4810 -0.3668
  420MOL0     C56607  13.338   2.506   9.793 -0.5113 -0.5914 -0.9193
  420MOL0     C56608  13.398   2.375   9.859 -0.3832  0.3930  1.0025
  420MOL0    Cl56609  13.291   2.250   9.792 -0.1819 -0.3040  0.1074
  420MOL0     C56610  13.082   3.311   9.799 -0.1107  0.7079  0.2871
  420MOL0     C56611  13.042   3.427   9.862  0.8051 -1.1193  0.5546
  420MOL0     O56612  12.783   3.480  10.017 -0.2970 -0.4060  0.1766
  420MOL0     C56613  12.817   3.834  10.045  0.3945 -0.1805  1.0146
  420MOL0     C56614  12.760   3.942  10.099 -0.2114 -0.0766 -0.3015
  420MOL0     N56615  11.942   4.023  10.470 -0.8575 -0.1460 -0.0893
  420MOL0     N56616  11.849   4.059  10.546 -0.2994  0.1832 -0.5342
  420MOL0     C56617  10.995   4.435  10.240 -0.8660  1.1249  0.5622
  420MOL0     C56618  10.889   4.410  10.155  1.0643  1.1772  0.4020
  420MOL0     C56619  10.611   4.401   9.858  0.5185 -0.5531 -1.0237
  420MOL0     C56620  10.537   4.523   9.852  0.0030 -0.2267  1.2088
  420MOL0     C56621  10.513   4.587   9.725 -0.6798  0.5760  0.4146
  420MOL0     C56622  10.561   4.530   9.605  0.8568  0.0463 -0.4004
  420MOL0     O56623  10.568   4.586   9.481 -0.0809  0.4620  0.8783
  420MOL0     C56624  10.494   4.697   9.439  0.4748 -0.3025 -0.3711
  420MOL0     C56625  10.556   4.756   9.308  0.1657 -0.4617  0.2686
  420MOL0     C56626  10.512   4.908   9.316  0.0938 -0.3448 -1.0069
  420MOL0     C56627  10.505   4.979   9.179  0.5159  0.4499 -0.7437
  420MOL0     C56628  10.396   4.923   9.099  0.6977  0.5107 -0.3249
  420MOL0     C56629  10.316   4.857   9.043  0.4554  1.2424  0.5894
  420MOL0     C56630  10.622   4.406   9.614  0.3349  0.6270  0.6881
  420MOL0     C56631  10.644   4.338   9.733  0.5021 -0.1952 -1.2119
  420MOL0     C56632  10.690   4.189   9.722 -0.5468  0.4102 -0.4037
  420MOL0     H56633  10.654   4.586  10.318 -0.4489  0.3030 -1.5125
  420MOL0     H56634  10.849   4.624  10.462  0.0065  0.0626  0.1848
  420MOL0     H56635  11.261   4.446  10.379 -1.7582 -2.1564 -0.4431
  420MOL0     H56636  11.221   4.614  10.336 -0.5531  2.0248  3.0536
  420MOL0     H56637  11.235   4.547  10.628  1.2493 -1.3680 -1.2365
  420MOL0     H56638  11.255   4.699  10.557  0.9146 -0.4063  0.9784
  420MOL0     H56639  11.496   4.606  10.474  1.1324  0.7502  1.6161
  420MOL0     H56640  11.437   4.461  10.559 -0.7785 -0.7541 -2.9114
  420MOL0     H56641  11.460   4.739  10.697  0.6171 -0.0142  0.7949
  420MOL0     H56642  11.432   4.583  10.774 -1.5052  0.4633 -0.7745
  420MOL0     H56643  11.691   4.659  10.633  1.0280  1.9177  2.1023
  420MOL0     H56644  11.654   4.676  10.810  1.4199 -3.5934  1.5596
  420MOL0     H56645  11.714   4.480  10.857 -0.0252 -0.7140  1.1683
  420MOL0     H56646  11.578   4.417  10.748 -0.6622  1.1476 -5.4653
  420MOL0     H56647  11.871   4.452  10.661  0.6838 -2.2326  1.0680
  420MOL0     H56648  11.730   4.435  10.548 -3.3052  1.1834  2.1364
  420MOL0     H56649  11.778   4.218  10.747 -2.2408  0.7883  0.5312
  420MOL0     H56650  11.661   4.236  10.605  1.3997 -1.2884 -0.4974
  420MOL0     H56651  12.009   4.349  10.511 -1.4701  0.3002  0.0007
  420MOL0     H56652  12.154   4.016  10.302  1.5151  0.2032 -1.9580
  420MOL0     H56653  12.130   4.190  10.259 -2.8256 -1.8317 -0.5448
  420MOL0     H56654  12.261   4.240  10.474  2.0082  1.3768 -0.2116
  420MOL0     H56655  12.299   4.066  10.487  1.8399 -0.0063  0.4221
  420MOL0     H56656  12.469   4.217  10.389 -3.2298  2.8007  0.0641
  420MOL0     H56657  12.368   4.205  10.240 -3.5907 -2.1547 -0.1464
  420MOL0     H56658  12.378   3.970  10.242  0.9607 -1.2360 -1.9700
  420MOL0     H56659  12.475   3.954  10.384  1.9662  0.4524 -0.3113
  420MOL0     H56660  12.470   3.780  10.205 -0.7402  0.4304 -0.4885
  420MOL0     H56661  12.570   3.598  10.092  1.3470 -0.5562  2.4119
  420MOL0     H56662  12.849   3.557   9.605  1.0406  0.2270 -1.0723
  420MOL0     H56663  13.001   3.380   9.484  3.8416 -1.2991  0.9065
  420MOL0     H56664  12.943   3.094   9.561 -1.1667  0.2706 -2.1831
  420MOL0     H56665  13.044   3.137   9.421  1.2931 -0.5058  0.4359
  420MOL0     H56666  13.073   2.901   9.455 -0.9925  2.1593 -0.0907
  420MOL0     H56667  13.219   2.974   9.517  0.5666 -1.1657  1.6249
  420MOL0     H56668  13.140   2.981   9.738 -2.7047 -1.4070  1.1292
  420MOL0     H56669  12.995   2.897   9.689 -0.3128 -1.3748  4.0200
  420MOL0     H56670  13.279   2.764   9.632 -0.2604 -1.9816 -0.8886
  420MOL0     H56671  13.127   2.684   9.616  0.1269 -0.2655  0.5578
  420MOL0     H56672  13.102   2.766   9.873 -2.4533 -0.4364 -1.0297
  420MOL0     H56673  13.265   2.776   9.861  0.1801 -0.0360 -0.5788
  420MOL0     H56674  13.203   2.550   9.952  0.9339 -2.4307 -0.5835
  420MOL0     H56675  13.122   2.513   9.782 -0.5882  2.2612 -2.4414
  420MOL0     H56676  13.405   2.592   9.800 -0.4805 -0.6013 -1.1107
  420MOL0     H56677  13.334   2.492   9.685 -1.5622  0.4750 -1.0408
  420MOL0     H56678  13.492   2.352   9.809 -1.2321  1.8779 -1.4386
  420MOL0     H56679  13.402   2.358   9.967 -0.3147  1.2549  1.1373
  420MOL0     H56680  13.139   3.239   9.857 -0.8282  1.3718  1.8689
  420MOL0     H56681  13.073   3.455   9.962  0.1262  3.2292 -0.2167
  420MOL0     H56682  12.910   3.848   9.990 -0.7626 -2.8410 -1.9265
  420MOL0     H56683  12.801   4.042  10.089  0.4257 -0.3780 -0.7582
  420MOL0     H56684  11.093   4.406  10.203 -0.4498  3.1460 -0.0599
  420MOL0     H56685  10.907   4.363  10.059  1.7997 -2.4343  2.1056
  420MOL0     H56686  10.520   4.583   9.941  3.6465  1.3468  1.0069
  420MOL0     H56687  10.451   4.672   9.700 -1.5125  0.5576  2.2457
  420MOL0     H56688  10.497   4.773   9.518 -3.1423 -3.1058  2.8917
  420MOL0     H56689  10.387   4.680   9.424 -0.2614  3.2770 -0.0923
  420MOL0     H56690  10.504   4.700   9.230  1.6920 -1.2591 -0.1987
  420MOL0     H56691  10.664   4.740   9.301  0.4659  1.8495 -1.3939
  420MOL0     H56692  10.584   4.950   9.388 -1.6920  0.4680  0.4014
  420MOL0     H56693  10.418   4.928   9.369  0.1440 -0.0745 -1.0167
  420MOL0     H56694  10.484   5.085   9.196  0.0658  0.8360 -3.3027
  420MOL0     H56695  10.602   4.970   9.129  1.5376 -0.5127  1.2888
  420MOL0     H56696  10.243   4.794   8.997  1.2799 -0.2924  1.3205
  420MOL0     H56697  10.648   4.364   9.517 -0.9776  1.0577  0.1244
  420MOL0     H56698  10.679   4.152   9.620 -2.0137  0.4336 -0.2637
  420MOL0     H56699  10.792   4.175   9.761 -0.9479 -2.8663 -0.3029
  420MOL0     H56700  10.630   4.132   9.794  1.8428  0.3411  1.6950
  421MOL0     O56701   1.287   6.142  10.607 -0.7159 -0.6332 -0.5423
  421MOL0     C56702   1.168   6.131  10.638 -0.8635 -0.1301 -0.9964
  421MOL0     O56703   1.085   6.049  10.567 -0.5568  0.5167  0.1800
  421MOL0     C56704   1.114   6.007  10.445  0.5692  2.1912 -0.4550
  421MOL0     C56705   1.189   6.070  10.339 -1.3792  0.1236  0.6863
  421MOL0     C56706   1.211   6.006  10.218  0.1038  0.4544  0.2138
  421MOL0     C56707   1.164   5.871  10.201  0.0973  0.1077  0.1543
  421MOL0     O56708   1.182   5.800  10.087 -0.1481  1.1764 -0.5374
  421MOL0     C56709   1.306   5.809  10.014  0.2312  0.8183 -0.5929
  421MOL0     C56710   1.307   5.689   9.920  0.2239 -0.2615 -0.3698
  421MOL0     C56711   1.434   5.685   9.834  0.4474 -1.0422  0.3703
  421MOL0     C56712   1.430   5.549   9.764  0.4880 -1.2713 -0.0403
  421MOL0     C56713   1.536   5.544   9.655  0.8733 -0.2433  0.2561
  421MOL0     C56714   1.679   5.536   9.720  0.2164 -0.3203 -0.7043
  421MOL0     C56715   1.778   5.498   9.605  0.0176  0.9364  0.0404
  421MOL0     C56716   1.745   5.559   9.470  0.1431 -0.1720 -0.0067
  421MOL0     N56717   1.841   5.531   9.370  0.2573  0.6884 -0.3158
  421MOL0     C56718   1.952   5.606   9.339 -0.5716  0.2120  0.2809
  421MOL0     C56719   2.005   5.547   9.229  0.4781  0.5327  0.5757
  421MOL0     C56720   2.133   5.588   9.167  1.0039 -0.1054 -0.6193
  421MOL0     C56721   2.162   5.501   9.033 -0.2616  0.3295 -0.9694
  421MOL0     C56722   2.192   5.348   9.061 -0.8600 -0.2880 -1.0861
  421MOL0     C56723   2.257   5.294   8.933  0.1771  0.9071  0.6732
  421MOL0     O56724   2.157   5.264   8.823 -0.2570  0.6314 -0.5519
  421MOL0     C56725   2.068   5.157   8.833 -1.3247 -0.9687 -0.6324
  421MOL0     C56726   1.989   5.138   8.727 -0.4242  0.5659 -0.2920
  421MOL0     C56727   1.908   5.026   8.713  0.0199 -0.5416 -0.6184
  421MOL0     C56728   1.906   4.936   8.815 -0.2300 -0.2528 -0.7823
  421MOL0     C56729   1.814   4.820   8.811  1.3005 -0.7205 -0.1438
  421MOL0     O56730   1.784   4.762   8.695 -0.7399  0.1685  0.4400
  421MOL0     C56731   1.714   4.646   8.687  0.3304 -0.3665 -0.1840
  421MOL0     C56732   1.626   4.628   8.580  0.7723  0.2396 -0.2311
  421MOL0     C56733   1.547   4.517   8.567 -0.0754 -0.4967  0.3001
  421MOL0     C56734   1.542   4.414   8.662  1.0585  0.7842 -0.0887
  421MOL0     O56735   1.439   4.327   8.649  0.9430 -0.0420 -0.4824
  421MOL0     C56736   1.387   4.269   8.774  0.6162  0.0907  1.0635
  421MOL0     C56737   1.245   4.229   8.747  0.2746 -0.8581  0.2261
  421MOL0     C56738   1.151   4.337   8.676  0.5870  0.4060 -0.0697
  421MOL0     C56739   1.017   4.259   8.636  1.2673 -0.4054 -0.6246
  421MOL0     C56740   0.964   4.292   8.495  0.6419  0.2406  1.0225
  421MOL0     C56741   0.989   4.442   8.449  0.0727  0.2466  0.2096
  421MOL0     C56742   0.896   4.490   8.340  1.0150 -0.3120 -0.3640
  421MOL0     C56743   0.899   4.650   8.339 -0.2840 -0.1543  0.1692
  421MOL0    Cl56744   1.057   4.688   8.246 -0.0495 -0.1716 -0.3100
  421MOL0     C56745   1.634   4.421   8.773 -0.0159  0.5211  0.6664
  421MOL0     C56746   1.722   4.536   8.777  0.1543  0.5826 -0.1861
  421MOL0     O56747   1.754   4.787   8.915  0.0155  0.2606  0.1088
  421MOL0     C56748   1.988   4.958   8.929  0.3374 -0.8802 -0.2885
  421MOL0     C56749   2.069   5.066   8.938  0.3092  0.8351  0.0281
  421MOL0     N56750   1.936   5.426   9.204 -0.6590 -0.5633 -0.0839
  421MOL0     N56751   1.837   5.421   9.285  0.5961  0.0961  0.1954
  421MOL0     C56752   1.114   5.800  10.302  0.1607 -0.1714  0.4908
  421MOL0     C56753   1.085   5.867  10.428  0.1765 -0.7162 -1.0747
  421MOL0     C56754   1.106   6.202  10.755  0.1704  0.1911  1.1149
  421MOL0     C56755   1.128   6.337  10.771 -0.5219 -0.3038  0.4437
  421MOL0     C56756   1.093   6.404  10.886 -0.2633  0.1845  1.5589
  421MOL0     C56757   1.029   6.335  10.988  0.0385 -0.5159  0.0912
  421MOL0     O56758   1.005   6.407  11.101  0.3005 -0.3979  0.1351
  421MOL0     C56759   0.916   6.354  11.201 -0.5143 -0.1489 -0.2374
  421MOL0     C56760   0.881   6.471  11.290 -0.9333 -0.0261  0.2255
  421MOL0     C56761   1.004   6.512  11.382  0.3277 -0.6543  0.1882
  421MOL0     C56762   1.123   6.574  11.306  0.1443 -0.0623  0.2955
  421MOL0     C56763   1.095   6.697  11.229  1.1190 -0.2060  0.5976
  421MOL0     C56764   1.052   6.800  11.184  0.5826  0.6184  0.6753
  421MOL0     C56765   1.003   6.196  10.968  0.0089  0.5901  0.2484
  421MOL0     C56766   1.034   6.133  10.855 -0.3547  0.5601  0.8713
  421MOL0     C56767   1.012   5.982  10.848 -0.1275  0.6979  0.5560
  421MOL0     H56768   1.226   6.170  10.357  0.1701 -0.6366  2.0228
  421MOL0     H56769   1.273   6.043  10.136  1.0401  1.7132  1.4423
  421MOL0     H56770   1.301   5.905   9.961  4.5360  0.5318 -1.8286
  421MOL0     H56771   1.397   5.813  10.074 -2.2184  3.7700  3.5092
  421MOL0     H56772   1.223   5.695   9.849  1.0347 -1.1355 -1.4358
  421MOL0     H56773   1.306   5.597   9.979 -0.4213  2.0114  3.4526
  421MOL0     H56774   1.519   5.698   9.901  0.9806 -0.0882 -0.4533
  421MOL0     H56775   1.430   5.768   9.762 -2.7048 -1.0867  0.3589
  421MOL0     H56776   1.440   5.463   9.831  4.1652 -1.4310 -0.5895
  421MOL0     H56777   1.333   5.538   9.713 -0.9210 -0.7751  2.3529
  421MOL0     H56778   1.525   5.452   9.597  0.4209 -0.0525  0.0336
  421MOL0     H56779   1.529   5.634   9.593 -2.5531  1.1229  2.3475
  421MOL0     H56780   1.712   5.634   9.756  2.4967 -0.0781 -3.1673
  421MOL0     H56781   1.680   5.460   9.798 -0.3336  0.7227  0.3419
  421MOL0     H56782   1.784   5.389   9.591 -0.5157  1.1447 -2.3083
  421MOL0     H56783   1.877   5.520   9.646 -0.8101  2.3254  1.3689
  421MOL0     H56784   1.652   5.512   9.437 -0.3834 -0.3316  1.6148
  421MOL0     H56785   1.741   5.668   9.478 -0.2393 -0.1416 -0.5212
  421MOL0     H56786   1.995   5.695   9.384  1.6295 -0.9862  0.6379
  421MOL0     H56787   2.133   5.693   9.136 -1.8444  0.5952  1.3439
  421MOL0     H56788   2.206   5.584   9.247 -2.6641 -2.6505  2.9958
  421MOL0     H56789   2.082   5.504   8.958 -0.0475 -1.4611 -1.3118
  421MOL0     H56790   2.253   5.542   8.989 -2.0674  1.5278 -3.9836
  421MOL0     H56791   2.111   5.281   9.090  0.0622 -1.5748 -1.3558
  421MOL0     H56792   2.260   5.333   9.145 -0.1845  1.2224 -1.3391
  421MOL0     H56793   2.312   5.202   8.958 -0.3462  0.2869 -0.3589
  421MOL0     H56794   2.342   5.350   8.893  1.3511 -2.6820 -2.5126
  421MOL0     H56795   1.990   5.207   8.643  0.7527  0.9124 -0.0224
  421MOL0     H56796   1.836   5.008   8.634  2.0219 -0.2885 -2.6051
  421MOL0     H56797   1.615   4.698   8.498 -0.2421  1.2623  0.7566
  421MOL0     H56798   1.473   4.511   8.488 -0.2972  2.5982  0.1365
  421MOL0     H56799   1.454   4.187   8.801  4.2996  2.3783 -0.3251
  421MOL0     H56800   1.371   4.345   8.851  0.1567 -0.4804  1.5386
  421MOL0     H56801   1.247   4.135   8.690 -3.3523 -0.4834 -0.8121
  421MOL0     H56802   1.210   4.199   8.846 -1.9307  0.4458 -0.0831
  421MOL0     H56803   1.143   4.429   8.734  2.4548  1.7706 -1.8447
  421MOL0     H56804   1.194   4.358   8.578  2.1793  0.5104  0.6232
  421MOL0     H56805   0.941   4.289   8.709  0.6305  0.0262 -1.4380
  421MOL0     H56806   1.029   4.151   8.650  0.2807 -0.7466 -2.0959
  421MOL0     H56807   0.858   4.266   8.487  0.5592 -0.4094  3.5649
  421MOL0     H56808   1.006   4.216   8.428  0.7695  0.1160  1.2427
  421MOL0     H56809   0.978   4.496   8.543  1.4718 -1.8903  1.7150
  421MOL0     H56810   1.094   4.455   8.421 -0.4652  0.7363 -1.7378
  421MOL0     H56811   0.795   4.461   8.371 -0.4483  1.1391 -3.3904
  421MOL0     H56812   0.915   4.456   8.238 -2.1098 -0.2476 -1.0342
  421MOL0     H56813   0.810   4.677   8.282 -0.4472 -1.1749 -0.0852
  421MOL0     H56814   0.893   4.706   8.432 -0.0978  1.0721 -0.5411
  421MOL0     H56815   1.648   4.340   8.844 -2.5029  0.5557  1.2895
  421MOL0     H56816   1.800   4.540   8.852  0.7016  1.1068 -0.7791
  421MOL0     H56817   1.980   4.881   9.005 -1.8348  0.3704  0.8511
  421MOL0     H56818   2.122   5.071   9.032  0.6811  1.0268 -0.1876
  421MOL0     H56819   1.101   5.693  10.297  0.4392 -0.3954  3.1127
  421MOL0     H56820   1.043   5.818  10.515  1.8569 -0.9172 -0.3546
  421MOL0     H56821   1.183   6.396  10.698 -1.0461  0.9072  0.9927
  421MOL0     H56822   1.115   6.508  10.904  1.2016  0.6212 -2.0617
  421MOL0     H56823   0.946   6.268  11.262  3.5502  1.5581  0.4634
  421MOL0     H56824   0.820   6.327  11.155  0.1986  0.3176 -2.1025
  421MOL0     H56825   0.791   6.456  11.350 -0.6673  2.4758  1.4042
  421MOL0     H56826   0.870   6.553  11.218  2.8594 -1.3897 -2.1839
  421MOL0     H56827   1.046   6.430  11.440  0.2022 -2.2318 -1.8438
  421MOL0     H56828   0.978   6.588  11.456  0.8791  1.3908 -1.6161
  421MOL0     H56829   1.208   6.596  11.372  0.9839 -0.6660 -0.5535
  421MOL0     H56830   1.166   6.514  11.225 -0.0215  0.3610 -0.1081
  421MOL0     H56831   1.020   6.894  11.144 -1.0799  1.7241  4.1480
  421MOL0     H56832   0.944   6.147  11.045  1.1027 -1.1906 -0.0076
  421MOL0     H56833   0.935   5.940  10.914  0.8248 -2.1579 -0.0278
  421MOL0     H56834   0.997   5.940  10.748  2.6903 -1.2323  0.8393
  421MOL0     H56835   1.101   5.935  10.891 -0.1251  2.3664  2.5539
  422MOL0     O56836   0.519   6.151   1.371 -0.6858 -0.5620  0.1107
  422MOL0     C56837   0.599   6.122   1.459  0.7974  0.7733  0.0694
  422MOL0     O56838   0.725   6.180   1.482 -0.9275  0.6889 -0.1987
  422MOL0     C56839   0.778   6.267   1.394  0.8470  0.3039 -0.3289
  422MOL0     C56840   0.808   6.218   1.263  0.0821 -0.2028  0.0883
  422MOL0     C56841   0.846   6.321   1.171 -0.5405  0.3854  0.4822
  422MOL0     C56842   0.840   6.455   1.210 -0.6734 -0.1787  0.1604
  422MOL0     O56843   0.835   6.560   1.126 -0.3318  0.3691  0.5770
  422MOL0     C56844   0.892   6.547   0.989  0.0623  0.4998 -0.0071
  422MOL0     C56845   0.946   6.688   0.945 -0.0096  1.0754 -0.3756
  422MOL0     C56846   0.825   6.783   0.947  0.3736 -0.5664  0.2409
  422MOL0     C56847   0.867   6.929   0.908  0.5150 -0.5603  0.0254
  422MOL0     C56848   0.756   7.005   0.837  0.4901 -0.1679  1.1954
  422MOL0     C56849   0.771   7.158   0.818  0.0218  0.6292 -0.1664
  422MOL0     C56850   0.664   7.221   0.729  1.1303  0.9492  1.5104
  422MOL0     C56851   0.704   7.354   0.671 -0.1532 -0.6262  0.0359
  422MOL0     N56852   0.579   7.428   0.634 -0.4251  0.5336  0.0572
  422MOL0     C56853   0.508   7.386   0.522  0.5771  0.5341 -0.4278
  422MOL0     C56854   0.411   7.476   0.510  0.3347 -0.6526  1.4838
  422MOL0     C56855   0.309   7.479   0.403 -0.1289  1.4322 -0.0378
  422MOL0     C56856   0.189   7.396   0.450  0.5834 -0.2943  0.5906
  422MOL0     C56857   0.129   7.444   0.574  0.9006  0.4152  0.3261
  422MOL0     C56858   0.066   7.585   0.579 -0.2080 -0.4610 -0.0384
  422MOL0     O56859  -0.015   7.605   0.697  0.4559  0.8786  0.7982
  422MOL0     C56860   0.038   7.645   0.819  0.5565  0.1626  0.4321
  422MOL0     C56861   0.168   7.651   0.849  0.6735  0.2211 -0.0080
  422MOL0     C56862   0.218   7.699   0.972  0.4913 -0.7378  0.8253
  422MOL0     C56863   0.131   7.742   1.076 -0.1244  0.0040 -0.7679
  422MOL0     C56864   0.179   7.797   1.204 -0.6348  0.5102  0.0651
  422MOL0     O56865   0.319   7.822   1.215 -0.5981 -0.9417 -0.5359
  422MOL0     C56866   0.358   7.838   1.351 -0.2987 -0.8902  1.6483
  422MOL0     C56867   0.388   7.735   1.433 -1.0369 -0.2555  1.0615
  422MOL0     C56868   0.424   7.760   1.565 -0.2961 -0.2127 -0.0338
  422MOL0     C56869   0.416   7.886   1.627 -0.3778 -0.0522  0.5944
  422MOL0     O56870   0.456   7.915   1.752  0.0297  0.0524  0.2794
  422MOL0     C56871   0.519   7.817   1.833  0.5604  0.3190 -0.4160
  422MOL0     C56872   0.537   7.889   1.972  0.2110  0.1119  0.4728
  422MOL0     C56873   0.657   7.839   2.055 -0.5831  0.5764  0.7337
  422MOL0     C56874   0.674   7.870   2.206  0.2310  0.2213  0.6000
  422MOL0     C56875   0.785   7.792   2.269  0.6780  0.6501  0.0512
  422MOL0     C56876   0.916   7.799   2.193 -0.1215 -0.6139  0.7335
  422MOL0     C56877   1.038   7.733   2.260 -0.4594  0.3771  0.2820
  422MOL0     C56878   1.049   7.759   2.407 -0.1182  0.2648 -0.3247
  422MOL0    Cl56879   1.231   7.738   2.441  0.0740 -0.0497  0.0936
  422MOL0     C56880   0.381   7.994   1.535  0.5127  0.7910  1.2572
  422MOL0     C56881   0.362   7.965   1.400  0.4486 -0.7003 -0.7650
  422MOL0     O56882   0.096   7.801   1.297 -0.2674 -0.0755 -0.5562
  422MOL0     C56883  -0.001   7.740   1.049 -0.3722  0.9143 -0.3171
  422MOL0     C56884  -0.048   7.687   0.922 -0.0694  0.7953 -0.2441
  422MOL0     N56885   0.429   7.580   0.596 -0.3594  1.0307 -0.0614
  422MOL0     N56886   0.523   7.547   0.675  0.4490  0.1084  0.5483
  422MOL0     C56887   0.813   6.491   1.344  1.3097 -0.0579  0.3150
  422MOL0     C56888   0.780   6.401   1.437  0.4552 -0.4599  0.1932
  422MOL0     C56889   0.557   6.031   1.568 -0.6060 -0.7140 -0.9926
  422MOL0     C56890   0.646   6.023   1.683  0.0566  0.6900 -0.0484
  422MOL0     C56891   0.602   5.950   1.796  0.5612 -0.1830 -0.2921
  422MOL0     C56892   0.478   5.888   1.806 -1.0652 -0.8632  0.0897
  422MOL0     O56893   0.449   5.829   1.926  0.0633  0.2458  0.1203
  422MOL0     C56894   0.417   5.689   1.902 -0.2446 -0.3771 -0.5179
  422MOL0     C56895   0.555   5.620   1.867  0.6280 -0.0011  0.5918
  422MOL0     C56896   0.546   5.467   1.872 -0.6389 -0.6236 -0.2731
  422MOL0     C56897   0.518   5.406   2.014 -0.4634 -0.0062  0.1351
  422MOL0     C56898   0.597   5.282   2.024  0.1367  0.8509  0.0015
  422MOL0     C56899   0.654   5.176   2.021 -0.2163  0.6751  0.0510
  422MOL0     C56900   0.389   5.898   1.699  0.3394  0.1832 -0.4833
  422MOL0     C56901   0.426   5.972   1.582  0.4396  0.3956 -1.3982
  422MOL0     C56902   0.338   5.947   1.471  0.3043 -0.4813  0.4596
  422MOL0     H56903   0.803   6.111   1.245 -1.4314 -0.1889  0.2770
  422MOL0     H56904   0.850   6.300   1.064 -2.5393  0.6536  0.3036
  422MOL0     H56905   0.981   6.484   1.003 -1.0048 -0.6846  2.0846
  422MOL0     H56906   0.842   6.497   0.906  0.1857  0.8271 -0.2768
  422MOL0     H56907   0.988   6.679   0.844  0.5910  0.4656 -0.0789
  422MOL0     H56908   1.024   6.721   1.014 -0.5048 -0.6727  1.1035
  422MOL0     H56909   0.778   6.797   1.045 -3.1014  3.2993 -1.6737
  422MOL0     H56910   0.762   6.735   0.872 -0.4324 -1.8354  1.6747
  422MOL0     H56911   0.882   6.972   1.007 -4.3562 -1.6475  1.5217
  422MOL0     H56912   0.948   6.929   0.834 -3.0591  0.5267 -4.3621
  422MOL0     H56913   0.746   6.966   0.735 -2.6781 -1.4862  1.8806
  422MOL0     H56914   0.657   6.984   0.880 -0.8775 -1.6711 -2.2733
  422MOL0     H56915   0.799   7.211   0.909  0.1187 -0.0960  0.2355
  422MOL0     H56916   0.866   7.158   0.763  0.2477 -1.8644  0.1273
  422MOL0     H56917   0.574   7.236   0.789  0.3396  1.4682  0.2318
  422MOL0     H56918   0.649   7.162   0.638  4.1184  1.4774  0.5457
  422MOL0     H56919   0.766   7.407   0.744 -1.8365 -0.2345  1.2381
  422MOL0     H56920   0.780   7.345   0.592  1.7277 -2.4053  1.8974
  422MOL0     H56921   0.536   7.302   0.459  2.1310  0.7696 -0.0727
  422MOL0     H56922   0.290   7.584   0.378  2.3233  2.1354  0.7795
  422MOL0     H56923   0.336   7.440   0.305 -1.8971  1.2497 -0.4724
  422MOL0     H56924   0.110   7.402   0.374 -1.1460  0.7347  2.3947
  422MOL0     H56925   0.223   7.295   0.471 -1.1834 -0.9280  0.5648
  422MOL0     H56926   0.198   7.434   0.658  1.1402 -2.5371 -0.0981
  422MOL0     H56927   0.054   7.367   0.596  1.1830 -0.2217 -0.8460
  422MOL0     H56928   0.004   7.597   0.489  1.9680  0.5551 -1.4871
  422MOL0     H56929   0.140   7.665   0.568 -2.0974  1.0233 -5.8425
  422MOL0     H56930   0.243   7.632   0.773  1.0642 -3.6332  1.1173
  422MOL0     H56931   0.325   7.705   0.982  0.4827  0.5804  0.3320
  422MOL0     H56932   0.371   7.635   1.395 -0.5502  0.5907 -1.5467
  422MOL0     H56933   0.454   7.676   1.626 -0.8417 -0.3184  0.0890
  422MOL0     H56934   0.455   7.730   1.848  0.7089  0.3142  0.1813
  422MOL0     H56935   0.618   7.791   1.793  1.2259  1.5597  0.3417
  422MOL0     H56936   0.537   7.998   1.961  2.1071  0.2603  1.5575
  422MOL0     H56937   0.439   7.869   2.017 -0.5201  0.0787 -1.0728
  422MOL0     H56938   0.644   7.732   2.039 -3.3347  0.8735  0.4456
  422MOL0     H56939   0.747   7.872   2.002 -0.3681  0.7759  1.2164
  422MOL0     H56940   0.575   7.852   2.248 -1.8139  2.7231 -2.6764
  422MOL0     H56941   0.705   7.973   2.226  1.8637  0.2145 -1.5762
  422MOL0     H56942   0.760   7.686   2.277  0.8334  0.5583 -0.6022
  422MOL0     H56943   0.806   7.836   2.367  3.0431 -1.1242  0.4310
  422MOL0     H56944   0.913   7.780   2.085  3.5760  0.6251  0.2846
  422MOL0     H56945   0.937   7.906   2.190  1.3947 -0.8769 -2.9669
  422MOL0     H56946   1.131   7.764   2.212 -1.8110  3.7479 -0.4684
  422MOL0     H56947   1.033   7.625   2.244  2.8954  0.2214 -0.3712
  422MOL0     H56948   1.023   7.863   2.430  1.8470  0.7682 -0.1457
  422MOL0     H56949   0.983   7.696   2.466 -4.7130  3.1476 -1.8700
  422MOL0     H56950   0.368   8.093   1.576 -0.3569  1.2089  0.0121
  422MOL0     H56951   0.321   8.044   1.337 -1.2915  1.4737  2.7893
  422MOL0     H56952  -0.074   7.779   1.119 -1.3484  1.4748 -1.6142
  422MOL0     H56953  -0.152   7.672   0.895 -0.0646 -2.3323  1.1201
  422MOL0     H56954   0.795   6.595   1.367  2.0772  0.1315  0.1187
  422MOL0     H56955   0.728   6.432   1.528  0.5700  1.6639 -0.4088
  422MOL0     H56956   0.745   6.060   1.707  0.0996  0.9205 -0.5653
  422MOL0     H56957   0.672   5.932   1.877 -2.0063 -4.1614  1.3584
  422MOL0     H56958   0.354   5.669   1.815  1.1242 -2.1190 -1.1693
  422MOL0     H56959   0.375   5.643   1.992  2.8792 -0.4685  1.0219
  422MOL0     H56960   0.622   5.642   1.950 -0.9346 -2.0165  2.5384
  422MOL0     H56961   0.599   5.654   1.773 -1.3648  0.3474 -0.2788
  422MOL0     H56962   0.639   5.420   1.838 -1.1714 -1.6628 -0.3161
  422MOL0     H56963   0.466   5.429   1.807 -1.5792  1.6293 -0.5172
  422MOL0     H56964   0.551   5.472   2.095 -0.8040  1.8716 -1.2077
  422MOL0     H56965   0.409   5.401   2.024 -0.7059  0.1335 -2.0660
  422MOL0     H56966   0.718   5.090   2.031 -0.4537  0.5563  0.6192
  422MOL0     H56967   0.293   5.851   1.715 -1.0115  2.1540 -2.3656
  422MOL0     H56968   0.252   5.885   1.497  0.6859 -0.4474  1.9411
  422MOL0     H56969   0.305   6.044   1.433  2.7672  0.0249 -0.5685
  422MOL0     H56970   0.394   5.897   1.392  1.5642  1.0932  0.2928
  423MOL0     O56971   8.519   9.701   4.219 -0.2414  0.1910 -0.4856
  423MOL0     C56972   8.530   9.815   4.170 -0.3039  0.1729 -0.6473
  423MOL0     O56973   8.417   9.888   4.116 -0.3860  0.6664 -0.4440
  423MOL0     C56974   8.289   9.847   4.160  0.3654 -0.0660  0.1733
  423MOL0     C56975   8.195   9.955   4.174 -0.9055  0.1022 -0.1080
  423MOL0     C56976   8.062   9.941   4.210 -1.2144  0.5032  0.0991
  423MOL0     C56977   8.011   9.812   4.230  0.0739 -0.2062  0.1591
  423MOL0     O56978   7.883   9.793   4.267 -0.4426 -0.0976 -0.4687
  423MOL0     C56979   7.784   9.895   4.231 -1.3283  0.0468 -0.0335
  423MOL0     C56980   7.664   9.810   4.192  0.2976  0.3722 -0.1925
  423MOL0     C56981   7.531   9.889   4.168  0.2084  0.7255 -1.4044
  423MOL0     C56982   7.441   9.902   4.295  0.8311  0.0183 -0.1301
  423MOL0     C56983   7.340  10.012   4.288 -0.2363  0.1763 -0.5696
  423MOL0     C56984   7.304  10.087   4.417 -0.4362 -0.7365 -0.2707
  423MOL0     C56985   7.279   9.999   4.539  0.3123 -0.7507  0.4333
  423MOL0     C56986   7.188   9.878   4.524 -0.1514 -0.4482  0.3023
  423MOL0     N56987   7.233   9.759   4.581  0.6896 -0.1707 -0.2895
  423MOL0     C56988   7.176   9.694   4.690  0.1983  0.9135 -0.4872
  423MOL0     C56989   7.252   9.584   4.714 -0.4264 -0.1476 -0.2446
  423MOL0     C56990   7.212   9.487   4.818  0.5415 -0.6448 -0.1681
  423MOL0     C56991   7.249   9.505   4.964 -0.8038  0.3271  0.5506
  423MOL0     C56992   7.389   9.440   4.980  0.3436  0.6713 -0.7694
  423MOL0     C56993   7.452   9.474   5.118 -1.6330  0.3960 -0.9774
  423MOL0     O56994   7.362   9.443   5.218  0.2220  0.1240 -0.0976
  423MOL0     C56995   7.333   9.314   5.251  0.3020 -0.0933  0.4986
  423MOL0     C56996   7.430   9.216   5.274 -0.6619 -0.3558  0.7599
  423MOL0     C56997   7.387   9.087   5.311 -0.6854  0.0970 -0.7214
  423MOL0     C56998   7.255   9.054   5.316  1.2010  0.6906 -0.1377
  423MOL0     C56999   7.204   8.919   5.347  0.8205  0.6407  0.7778
  423MOL0     O57000   7.294   8.822   5.392  0.4901  0.3312 -0.9304
  423MOL0     C57001   7.243   8.710   5.459 -0.2419  0.6784  0.4527
  423MOL0     C57002   7.199   8.713   5.592  0.4173  1.2600 -0.0491
  423MOL0     C57003   7.141   8.594   5.640  0.0142  0.4025 -0.0115
  423MOL0     C57004   7.150   8.470   5.578  1.0031 -0.5398 -0.9160
  423MOL0     O57005   7.106   8.363   5.653  0.0755  0.4369 -0.3442
  423MOL0     C57006   7.102   8.240   5.585  0.3897  0.2814 -0.6962
  423MOL0     C57007   7.241   8.176   5.600 -0.2988 -0.0424 -0.7035
  423MOL0     C57008   7.250   8.038   5.526  0.4071 -0.2351 -0.7230
  423MOL0     C57009   7.367   8.035   5.426  0.6965  0.1454 -0.4211
  423MOL0     C57010   7.367   7.912   5.326 -0.5832 -0.0156 -0.0867
  423MOL0     C57011   7.248   7.929   5.229 -1.2668 -0.5293 -0.6471
  423MOL0     C57012   7.188   7.797   5.211 -0.5823  0.3714  0.7658
  423MOL0     C57013   7.082   7.782   5.106  0.2871  0.2071 -0.0219
  423MOL0    Cl57014   7.144   7.825   4.953 -0.2259  0.0663  0.5636
  423MOL0     C57015   7.196   8.470   5.446 -0.2396  0.1243 -0.0318
  423MOL0     C57016   7.254   8.587   5.388 -0.3660  0.9337  0.3302
  423MOL0     O57017   7.080   8.897   5.328 -0.1216 -0.6684 -0.3050
  423MOL0     C57018   7.155   9.156   5.315 -0.0603  0.0573  0.3286
  423MOL0     C57019   7.195   9.285   5.280 -0.9087  0.2312 -0.0419
  423MOL0     N57020   7.354   9.577   4.614  0.3740  0.6548 -0.1600
  423MOL0     N57021   7.338   9.680   4.537  0.2662  0.5484  0.3658
  423MOL0     C57022   8.100   9.705   4.211 -0.0507  0.4659  0.1520
  423MOL0     C57023   8.234   9.717   4.164  1.0376 -0.3734 -0.1964
  423MOL0     C57024   8.660   9.858   4.136 -0.4407 -0.0402 -0.3236
  423MOL0     C57025   8.683   9.997   4.162 -0.6576 -0.2926 -1.2346
  423MOL0     C57026   8.808  10.048   4.161 -0.4829  0.7311  0.0343
  423MOL0     C57027   8.911   9.970   4.117  0.2582  0.5388  0.3975
  423MOL0     O57028   9.031  10.016   4.074  1.1225  0.3357  0.7978
  423MOL0     C57029   9.046  10.159   4.056  1.1446 -0.5400 -0.6660
  423MOL0     C57030   9.186  10.207   4.013  0.0060 -1.0053 -0.4233
  423MOL0     C57031   9.240  10.124   3.890 -0.8546  0.7322 -0.6430
  423MOL0     C57032   9.370  10.195   3.844 -0.3841 -0.4086  0.5706
  423MOL0     C57033   9.390  10.213   3.700  0.4854 -0.3625 -0.4120
  423MOL0     C57034   9.390  10.235   3.578  0.7422 -0.1561 -0.0143
  423MOL0     C57035   8.893   9.835   4.100  0.7005  0.1062 -0.0573
  423MOL0     C57036   8.770   9.778   4.114  0.6628 -0.8822 -0.4133
  423MOL0     C57037   8.762   9.632   4.099 -0.1863 -0.1056 -0.2105
  423MOL0     H57038   8.231  10.055   4.153  1.2189 -0.9542 -2.0645
  423MOL0     H57039   8.013  10.035   4.233 -1.9040  0.1551  0.0681
  423MOL0     H57040   7.772   9.955   4.321  0.2203  1.0031 -0.4171
  423MOL0     H57041   7.813   9.949   4.140  0.0957 -0.7744 -0.1014
  423MOL0     H57042   7.649   9.734   4.270  0.2063  2.1479  1.5974
  423MOL0     H57043   7.702   9.754   4.106  2.1782 -0.7807  1.3195
  423MOL0     H57044   7.472   9.828   4.099 -0.3484 -1.8761  1.1516
  423MOL0     H57045   7.552   9.981   4.113  0.5770  1.9520  0.7135
  423MOL0     H57046   7.389   9.809   4.318  1.0594  0.3544  1.8864
  423MOL0     H57047   7.513   9.928   4.373  1.3231 -1.9784  0.1457
  423MOL0     H57048   7.369  10.089   4.215  2.5398  0.7693  0.9908
  423MOL0     H57049   7.246   9.973   4.249  0.6009 -0.1658 -2.3507
  423MOL0     H57050   7.391  10.152   4.436 -1.1168  1.0566 -2.7458
  423MOL0     H57051   7.216  10.150   4.402 -2.2072 -3.2440 -0.9605
  423MOL0     H57052   7.258  10.070   4.619 -1.3100  1.6520 -1.9635
  423MOL0     H57053   7.375   9.953   4.564  0.6001 -0.6564 -0.4498
  423MOL0     H57054   7.088   9.899   4.563 -0.5158 -1.8724  0.2136
  423MOL0     H57055   7.160   9.867   4.419  0.7610 -1.8332  0.1777
  423MOL0     H57056   7.085   9.721   4.743 -0.7176  2.5863 -2.7730
  423MOL0     H57057   7.103   9.479   4.819  0.2509  1.2060 -3.2753
  423MOL0     H57058   7.239   9.387   4.782 -0.3992 -1.2959  0.8618
  423MOL0     H57059   7.249   9.612   4.987 -2.5825  0.5390 -0.2679
  423MOL0     H57060   7.183   9.455   5.035 -0.1125  1.5570  2.1327
  423MOL0     H57061   7.450   9.472   4.895  1.5055  1.5027  0.3611
  423MOL0     H57062   7.384   9.331   4.977  2.8630  0.5143 -1.4712
  423MOL0     H57063   7.471   9.580   5.104 -1.7400  0.4203 -0.9372
  423MOL0     H57064   7.548   9.422   5.125 -1.1285  1.1446 -2.0422
  423MOL0     H57065   7.534   9.246   5.266 -0.4497 -1.0693  0.7175
  423MOL0     H57066   7.470   9.017   5.318  1.0775  1.8561 -2.5028
  423MOL0     H57067   7.191   8.802   5.655 -0.9958  2.5368 -1.9169
  423MOL0     H57068   7.095   8.588   5.738 -4.8145 -1.0983 -2.0758
  423MOL0     H57069   7.028   8.192   5.649  0.9437  0.2226 -0.0896
  423MOL0     H57070   7.067   8.248   5.481  1.0038 -0.4961 -0.9769
  423MOL0     H57071   7.318   8.242   5.560  0.6803  0.6843  2.1474
  423MOL0     H57072   7.263   8.171   5.707  2.2880 -1.2085 -1.2271
  423MOL0     H57073   7.255   7.961   5.604  0.6766  1.9121  1.5093
  423MOL0     H57074   7.153   8.031   5.477  0.0662 -0.5539 -0.0140
  423MOL0     H57075   7.463   8.035   5.478  1.0289  0.5654 -1.0165
  423MOL0     H57076   7.369   8.126   5.365  1.4665  0.1177 -0.4471
  423MOL0     H57077   7.357   7.823   5.388 -1.6199 -1.1952 -1.8510
  423MOL0     H57078   7.465   7.928   5.280  0.8765  0.6959  3.0180
  423MOL0     H57079   7.176   8.002   5.267  1.3811  1.4115  1.0057
  423MOL0     H57080   7.288   7.968   5.136  1.5863  3.3915  1.9061
  423MOL0     H57081   7.136   7.776   5.305 -1.3083  3.0570  1.0301
  423MOL0     H57082   7.274   7.731   5.196  0.3162  0.5478  4.1873
  423MOL0     H57083   7.055   7.677   5.095  1.5319 -0.6045  3.3508
  423MOL0     H57084   6.992   7.839   5.130  0.0906 -0.1219  0.0265
  423MOL0     H57085   7.191   8.383   5.381  2.5815 -0.8850  0.9636
  423MOL0     H57086   7.297   8.583   5.289  1.2838 -0.7966  1.0602
  423MOL0     H57087   7.050   9.143   5.340  0.0601  0.4021  1.0252
  423MOL0     H57088   7.128   9.371   5.271  2.5196  3.3223  1.3489
  423MOL0     H57089   8.062   9.604   4.223  0.3332  0.3462  0.3786
  423MOL0     H57090   8.290   9.630   4.131  0.2166 -0.3861 -1.6323
  423MOL0     H57091   8.603  10.060   4.198  1.6262  3.0964 -1.6593
  423MOL0     H57092   8.810  10.154   4.183  1.9641  0.6419  0.4878
  423MOL0     H57093   9.003  10.207   4.144 -2.5011  0.3569 -2.7151
  423MOL0     H57094   8.977  10.197   3.980  0.4946  0.1651  0.2509
  423MOL0     H57095   9.240  10.195   4.107  2.0959 -0.6750 -1.5356
  423MOL0     H57096   9.191  10.313   3.988  0.6560 -0.3397  2.1835
  423MOL0     H57097   9.159  10.109   3.818 -2.1041 -1.8529  1.1399
  423MOL0     H57098   9.271  10.026   3.928  0.5556  1.7139  0.8434
  423MOL0     H57099   9.384  10.290   3.895  1.2779 -0.2458 -0.1170
  423MOL0     H57100   9.452  10.138   3.889 -0.1534 -0.1641  0.4557
  423MOL0     H57101   9.401  10.259   3.474  4.8218  1.6270  0.6275
  423MOL0     H57102   8.971   9.769   4.061 -2.6732 -2.7975 -2.5125
  423MOL0     H57103   8.857   9.594   4.060  0.5016  0.6775  0.6601
  423MOL0     H57104   8.757   9.575   4.193  0.2046 -0.0873 -0.1755
  423MOL0     H57105   8.680   9.593   4.039  0.3871 -0.4369 -0.7926
  424MOL0     O57106   6.587   9.976   3.580 -0.1016  0.4505  0.2492
  424MOL0     C57107   6.593   9.868   3.642 -0.8202  0.0655 -0.3768
  424MOL0     O57108   6.626   9.862   3.765  0.9101 -0.1238 -0.6109
  424MOL0     C57109   6.635   9.972   3.843 -1.0087  0.1901 -0.1493
  424MOL0     C57110   6.516  10.010   3.917 -0.1488 -0.1143  1.2631
  424MOL0     C57111   6.516  10.121   3.999  0.5151 -0.4167  1.3774
  424MOL0     C57112   6.634  10.208   3.989 -0.0065  0.3357 -0.5985
  424MOL0     O57113   6.649  10.308   4.079  0.6974 -0.0188 -0.2365
  424MOL0     C57114   6.595  10.276   4.210 -0.1492 -0.7791 -0.2233
  424MOL0     C57115   6.628  10.388   4.315 -0.1738  0.2339 -0.1077
  424MOL0     C57116   6.600  10.333   4.466  0.0666 -0.2691  0.2637
  424MOL0     C57117   6.449  10.318   4.495  0.8196  0.3881  1.5457
  424MOL0     C57118   6.363  10.447   4.478 -0.9139  0.5213 -0.2244
  424MOL0     C57119   6.225  10.414   4.532  0.1556  0.2869 -0.3064
  424MOL0     C57120   6.134  10.532   4.496  0.6914  0.8051  0.4636
  424MOL0     C57121   5.997  10.537   4.550  0.7859  0.7909  0.9842
  424MOL0     N57122   5.931  10.665   4.530 -0.0373  0.4201  0.2918
  424MOL0     C57123   5.832  10.697   4.441 -0.6727 -0.2071  0.1109
  424MOL0     C57124   5.800  10.830   4.470  0.0482 -0.0303  0.1897
  424MOL0     C57125   5.701  10.912   4.395  0.0598 -0.3551  0.1208
  424MOL0     C57126   5.744  10.961   4.252  0.0104  0.3859 -0.7802
  424MOL0     C57127   5.841  11.078   4.263 -0.1563 -0.1521  0.3083
  424MOL0     C57128   5.996  11.041   4.298  0.4784  0.5288  0.8001
  424MOL0     O57129   6.074  11.114   4.219  0.0264  0.2088 -0.6692
  424MOL0     C57130   6.201  11.165   4.252 -0.2147 -0.4576 -0.5250
  424MOL0     C57131   6.256  11.147   4.382  0.2198  0.2750  0.8661
  424MOL0     C57132   6.381  11.209   4.421  0.8345  0.6237 -0.3724
  424MOL0     C57133   6.442  11.296   4.334  0.6619  0.1638  0.1444
  424MOL0     C57134   6.560  11.382   4.379  0.5044  0.4408 -0.1495
  424MOL0     O57135   6.592  11.478   4.290  0.1406 -0.3587  0.0268
  424MOL0     C57136   6.690  11.567   4.305  0.9024  0.6992 -0.1052
  424MOL0     C57137   6.712  11.629   4.428 -0.2732 -0.8111 -0.6251
  424MOL0     C57138   6.799  11.736   4.445 -0.1748  0.1348  0.0824
  424MOL0     C57139   6.882  11.777   4.339 -0.4685 -0.3651  0.6529
  424MOL0     O57140   6.968  11.879   4.362  0.0595 -0.0620  0.2458
  424MOL0     C57141   7.000  11.957   4.242  0.2363 -0.9681 -0.1779
  424MOL0     C57142   7.056  12.100   4.277  0.7150  0.1898  0.6879
  424MOL0     C57143   7.043  12.188   4.153 -0.1638 -0.2873  0.8376
  424MOL0     C57144   7.023  12.341   4.188  0.8372 -0.4819  0.6103
  424MOL0     C57145   7.001  12.421   4.061  0.0894 -0.1864 -0.3704
  424MOL0     C57146   7.132  12.434   3.970 -0.7407 -0.0772  0.2740
  424MOL0     C57147   7.242  12.520   4.029 -0.0873  0.2863  0.3201
  424MOL0     C57148   7.376  12.493   3.965 -0.5253  0.0034 -0.3174
  424MOL0    Cl57149   7.505  12.601   4.039 -0.2810  0.7676  0.3617
  424MOL0     C57150   6.858  11.721   4.206 -0.1956 -0.0106 -1.1806
  424MOL0     C57151   6.761  11.617   4.197 -0.2522 -0.3940 -0.1566
  424MOL0     O57152   6.618  11.356   4.489  1.0957  0.4958 -0.8252
  424MOL0     C57153   6.386  11.315   4.204  0.2877  0.7137 -0.2548
  424MOL0     C57154   6.268  11.250   4.168  0.2253 -0.1043  0.0557
  424MOL0     N57155   5.890  10.872   4.561 -0.3587  0.3425  0.6331
  424MOL0     N57156   5.967  10.772   4.598 -0.3239 -0.0181 -0.3291
  424MOL0     C57157   6.751  10.172   3.920  0.0409 -0.1322 -0.5292
  424MOL0     C57158   6.749  10.052   3.848 -0.4505 -1.0668  0.1341
  424MOL0     C57159   6.567   9.738   3.575 -0.2289  0.4929  0.3813
  424MOL0     C57160   6.606   9.616   3.644  0.2156  0.2173  0.0760
  424MOL0     C57161   6.583   9.497   3.581 -0.1330  0.9502 -0.4114
  424MOL0     C57162   6.532   9.476   3.457  0.2548  0.7187  0.0894
  424MOL0     O57163   6.555   9.364   3.381 -0.2918  0.5856 -0.4483
  424MOL0     C57164   6.546   9.234   3.439  0.3221 -0.5442  0.3106
  424MOL0     C57165   6.398   9.184   3.442 -0.4063 -0.2584  0.6925
  424MOL0     C57166   6.392   9.060   3.536 -0.8080 -0.1743 -0.5098
  424MOL0     C57167   6.251   9.014   3.573 -1.1435 -0.6845 -0.4847
  424MOL0     C57168   6.150   9.124   3.582 -0.2162  0.4354  0.5038
  424MOL0     C57169   6.072   9.217   3.582 -0.3901 -0.5382  0.3108
  424MOL0     C57170   6.504   9.593   3.386  0.3884  0.4724 -0.0472
  424MOL0     C57171   6.522   9.723   3.441  0.3152  0.5901 -0.3278
  424MOL0     C57172   6.510   9.847   3.345  0.4517 -0.0238  0.1750
  424MOL0     H57173   6.435   9.939   3.904 -0.4995  0.0993  2.2341
  424MOL0     H57174   6.415  10.130   4.038  0.1755 -0.2555  0.4682
  424MOL0     H57175   6.491  10.243   4.208 -0.6692  0.8288 -0.8697
  424MOL0     H57176   6.657  10.189   4.236  0.0938 -0.9727 -1.4271
  424MOL0     H57177   6.558  10.471   4.299 -1.3506 -0.3341  1.8011
  424MOL0     H57178   6.729  10.427   4.319  0.2886 -0.9783  0.5369
  424MOL0     H57179   6.643  10.404   4.536 -0.4696  2.4900 -2.0203
  424MOL0     H57180   6.642  10.232   4.467  3.5298  1.0367 -0.2879
  424MOL0     H57181   6.409  10.243   4.427  1.3689  1.5232 -0.0943
  424MOL0     H57182   6.443  10.281   4.598 -0.3867 -0.6648  1.1261
  424MOL0     H57183   6.420  10.523   4.532  1.1935 -0.4470 -1.0168
  424MOL0     H57184   6.366  10.490   4.378  0.1787  1.8393  0.3439
  424MOL0     H57185   6.182  10.323   4.490  0.0452  1.0106 -1.8219
  424MOL0     H57186   6.234  10.411   4.641 -3.2584  0.0070  0.0872
  424MOL0     H57187   6.134  10.525   4.387 -1.8046  0.7497  0.4134
  424MOL0     H57188   6.183  10.624   4.529  0.0479  0.2505  3.2492
  424MOL0     H57189   5.929  10.466   4.502  1.1226  1.7746 -1.0209
  424MOL0     H57190   6.002  10.499   4.653 -0.0042 -0.0280  0.7346
  424MOL0     H57191   5.774  10.621   4.388  0.7639 -0.7300 -0.7687
  424MOL0     H57192   5.610  10.852   4.388 -0.8580  1.0275 -0.2127
  424MOL0     H57193   5.670  10.997   4.456 -0.4225  0.3606 -1.1006
  424MOL0     H57194   5.778  10.874   4.193 -1.6207 -0.7128 -0.1717
  424MOL0     H57195   5.651  10.996   4.206 -1.8237  2.1987  3.7412
  424MOL0     H57196   5.812  11.157   4.333  2.2103  0.6005  0.5476
  424MOL0     H57197   5.839  11.126   4.165  1.9599 -2.1485 -0.7935
  424MOL0     H57198   6.005  10.936   4.270  2.2599  0.3463  1.8952
  424MOL0     H57199   6.010  11.045   4.407 -1.4024  0.9264  1.0609
  424MOL0     H57200   6.202  11.081   4.450  1.6078 -1.2109  0.5947
  424MOL0     H57201   6.417  11.205   4.524  2.5774 -1.6621 -0.9911
  424MOL0     H57202   6.662  11.598   4.520 -1.0463 -2.4296 -1.5440
  424MOL0     H57203   6.821  11.776   4.543 -1.3731 -0.3602  0.5724
  424MOL0     H57204   7.078  11.913   4.179  0.7752  0.2785 -0.4285
  424MOL0     H57205   6.908  11.977   4.187 -1.7055 -0.4120  3.0070
  424MOL0     H57206   6.995  12.144   4.357  1.7646  1.1181  1.0090
  424MOL0     H57207   7.158  12.096   4.316  0.2537  1.3819  2.1565
  424MOL0     H57208   7.141  12.186   4.104  0.1866  3.2894  1.0904
  424MOL0     H57209   6.958  12.161   4.090 -0.8602  3.5378 -0.1404
  424MOL0     H57210   7.106  12.385   4.244 -1.4807  0.0874  3.8698
  424MOL0     H57211   6.940  12.359   4.256 -1.2972 -1.9078 -1.4796
  424MOL0     H57212   6.972  12.523   4.086  1.4299  1.2069 -3.8638
  424MOL0     H57213   6.918  12.394   3.995 -0.6213 -1.1648  0.8816
  424MOL0     H57214   7.175  12.336   3.949  0.4190  0.7537 -1.6082
  424MOL0     H57215   7.111  12.465   3.867 -0.0994  1.2857  0.5280
  424MOL0     H57216   7.265  12.491   4.132  1.7900 -2.4936 -0.7671
  424MOL0     H57217   7.200  12.620   4.018 -0.0171  0.1820 -1.0807
  424MOL0     H57218   7.395  12.386   3.975  1.8481 -0.0681 -3.7515
  424MOL0     H57219   7.367  12.521   3.859 -1.6877  2.4562  0.3449
  424MOL0     H57220   6.915  11.755   4.120  1.5145 -1.4563 -0.6831
  424MOL0     H57221   6.758  11.569   4.100 -0.6921  0.6574 -0.6744
  424MOL0     H57222   6.444  11.378   4.137  1.4601  3.9642  3.4513
  424MOL0     H57223   6.213  11.258   4.075 -2.7771 -2.9043  1.3717
  424MOL0     H57224   6.840  10.234   3.921  0.7851 -1.1274  1.9424
  424MOL0     H57225   6.826  10.040   3.772  0.8491  2.8451  0.6199
  424MOL0     H57226   6.649   9.618   3.744  0.7637 -1.6978 -0.0759
  424MOL0     H57227   6.615   9.408   3.633  0.8931  1.6922  0.2638
  424MOL0     H57228   6.593   9.230   3.538  1.1756  0.8011 -0.0107
  424MOL0     H57229   6.600   9.170   3.368 -1.5213  4.3232 -6.5502
  424MOL0     H57230   6.358   9.165   3.342 -1.5581 -1.5418  1.3688
  424MOL0     H57231   6.335   9.259   3.491  0.1789  0.3020  0.6023
  424MOL0     H57232   6.451   9.089   3.623 -2.6949 -1.8498  1.4602
  424MOL0     H57233   6.448   8.973   3.500  3.3113  1.6830  0.7989
  424MOL0     H57234   6.227   8.949   3.489  0.1426 -0.3927 -1.1133
  424MOL0     H57235   6.251   8.961   3.669 -0.2055 -0.1354 -0.1629
  424MOL0     H57236   6.018   9.308   3.596  2.5717  0.9193  4.0376
  424MOL0     H57237   6.485   9.585   3.279  0.4929  0.5504 -0.0717
  424MOL0     H57238   6.420   9.902   3.374  1.9936  1.9070  1.6001
  424MOL0     H57239   6.598   9.912   3.343 -0.1692  0.8350 -2.1395
  424MOL0     H57240   6.499   9.814   3.242 -2.1045 -1.1439  0.7249
  425MOL0     O57241   1.112  10.840  10.024 -0.4468 -0.3414 -0.4145
  425MOL0     C57242   1.067  10.726  10.042  1.0652 -0.3754  0.0458
  425MOL0     O57243   1.014  10.653   9.936  0.5179 -0.7041 -0.7454
  425MOL0     C57244   1.019  10.681   9.799 -0.3260  0.0967 -0.1275
  425MOL0     C57245   1.038  10.808   9.742 -0.5477  0.2128  0.0159
  425MOL0     C57246   1.042  10.826   9.599 -0.3545  0.1379  0.4697
  425MOL0     C57247   1.029  10.707   9.521  0.4408  0.4508  0.1928
  425MOL0     O57248   1.032  10.685   9.386  0.3148  0.8286  0.4188
  425MOL0     C57249   1.159  10.706   9.330 -0.9083 -0.5501 -0.4489
  425MOL0     C57250   1.189  10.597   9.230 -0.4321  1.1884 -0.0864
  425MOL0     C57251   1.103  10.603   9.106 -0.1035 -1.0021  0.1067
  425MOL0     C57252   1.116  10.479   9.017  1.3161  0.5265  0.1827
  425MOL0     C57253   1.044  10.486   8.886 -0.1267 -0.7998  0.2582
  425MOL0     C57254   1.028  10.346   8.833  1.1380 -0.6924 -0.0376
  425MOL0     C57255   0.917  10.261   8.900  0.3372  0.2218 -0.0308
  425MOL0     C57256   0.885  10.125   8.824 -0.7506  0.0560 -0.3172
  425MOL0     N57257   0.863  10.154   8.681  0.3243  0.1061  0.3906
  425MOL0     C57258   0.935  10.084   8.587  0.7935 -0.3785  0.6204
  425MOL0     C57259   0.872  10.114   8.470  1.1102  0.2655  0.2813
  425MOL0     C57260   0.915  10.056   8.339  0.9290  0.0343 -0.3307
  425MOL0     C57261   0.860   9.915   8.313  0.1219 -0.7484 -0.0888
  425MOL0     C57262   0.932   9.862   8.187 -0.1519 -0.6715 -0.5000
  425MOL0     C57263   0.872   9.733   8.157  0.4243  0.5201  0.3068
  425MOL0     O57264   0.942   9.675   8.041  1.0047 -0.6262  0.0474
  425MOL0     C57265   0.862   9.601   7.955 -0.3314 -0.1452  0.4971
  425MOL0     C57266   0.893   9.606   7.821  0.1995 -0.2167 -0.1594
  425MOL0     C57267   0.817   9.537   7.729  0.5559 -0.1705  0.7034
  425MOL0     C57268   0.709   9.456   7.771  0.3551 -0.4933 -0.0025
  425MOL0     C57269   0.617   9.382   7.678 -0.5382 -0.2373  0.1065
  425MOL0     O57270   0.519   9.303   7.744 -0.4469  0.0824  0.0126
  425MOL0     C57271   0.423   9.245   7.663 -0.9913  0.9515 -0.3799
  425MOL0     C57272   0.296   9.252   7.701  0.2928 -0.2884  0.0896
  425MOL0     C57273   0.192   9.215   7.611 -0.4718 -0.1957  0.4213
  425MOL0     C57274   0.224   9.177   7.486  0.1005 -0.2087  0.5861
  425MOL0     O57275   0.144   9.157   7.377  0.1575  0.6194  0.0095
  425MOL0     C57276   0.004   9.111   7.416 -0.3608 -0.1986  0.9256
  425MOL0     C57277  -0.059   9.028   7.301 -0.0394  0.0859 -0.4080
  425MOL0     C57278  -0.185   8.949   7.326 -0.3618 -0.6317 -0.1495
  425MOL0     C57279  -0.303   9.032   7.389 -0.7945 -0.1256 -0.5720
  425MOL0     C57280  -0.438   8.973   7.337  0.0061 -0.1676 -1.0290
  425MOL0     C57281  -0.470   8.825   7.368  1.0335  0.8330  0.4306
  425MOL0     C57282  -0.625   8.783   7.349 -0.8824  0.2666  0.1871
  425MOL0     C57283  -0.644   8.730   7.210  0.7189 -0.0002 -0.1811
  425MOL0    Cl57284  -0.816   8.723   7.172 -0.0992  0.5333 -0.0834
  425MOL0     C57285   0.358   9.158   7.452 -0.0603  0.6614  0.2702
  425MOL0     C57286   0.458   9.188   7.545  1.2326 -0.2648  1.3609
  425MOL0     O57287   0.627   9.401   7.558 -0.3445 -0.0925  0.3736
  425MOL0     C57288   0.679   9.449   7.913  0.1666  0.6776  0.4041
  425MOL0     C57289   0.749   9.529   8.003 -0.4095  0.0815  0.6123
  425MOL0     N57290   0.765  10.198   8.496 -0.5947  0.8900 -1.2337
  425MOL0     N57291   0.751  10.205   8.629 -0.5097 -0.3997 -0.2795
  425MOL0     C57292   1.000  10.578   9.588 -0.4682 -1.0060 -0.2885
  425MOL0     C57293   0.986  10.571   9.726 -0.0537  0.3596 -0.6896
  425MOL0     C57294   1.051  10.677  10.176 -0.1980  0.1243 -2.0144
  425MOL0     C57295   0.942  10.598  10.205 -0.5775 -0.3125 -0.1744
  425MOL0     C57296   0.911  10.553  10.336  0.5431 -0.5782  0.7928
  425MOL0     C57297   0.992  10.585  10.442  0.3855  0.2231 -0.4958
  425MOL0     O57298   0.959  10.534  10.570  0.1947  0.2938  0.2505
  425MOL0     C57299   0.963  10.388  10.569  1.1718 -0.9927 -0.6115
  425MOL0     C57300   0.845  10.344  10.658  0.1473  0.2107  1.0661
  425MOL0     C57301   0.708  10.355  10.583 -0.7746 -0.0653  0.1897
  425MOL0     C57302   0.591  10.299  10.665  0.0074  0.5122 -0.7942
  425MOL0     C57303   0.607  10.157  10.686 -0.1148  0.0496  0.1073
  425MOL0     C57304   0.626  10.042  10.706  0.3410  0.4579 -0.5877
  425MOL0     C57305   1.109  10.660  10.421 -0.8436  0.0763  0.4301
  425MOL0     C57306   1.140  10.703  10.291  0.1835 -0.4617 -0.4382
  425MOL0     C57307   1.261  10.774  10.274 -1.0197 -0.9567  0.0543
  425MOL0     H57308   1.055  10.889   9.811 -1.4420  0.8791 -0.5167
  425MOL0     H57309   1.049  10.924   9.552  2.9905  0.8477  2.1442
  425MOL0     H57310   1.170  10.805   9.286 -2.3742 -1.3178 -2.7561
  425MOL0     H57311   1.227  10.694   9.414 -1.3045 -1.6170 -0.2599
  425MOL0     H57312   1.178  10.500   9.280 -0.3416 -0.3192 -2.8100
  425MOL0     H57313   1.293  10.623   9.208 -0.4325  1.2753  0.0127
  425MOL0     H57314   1.128  10.685   9.037 -0.5254 -1.1412 -0.2168
  425MOL0     H57315   1.001  10.618   9.145 -1.2962  3.1104 -3.6731
  425MOL0     H57316   1.225  10.478   9.006  1.1582 -1.1483 -1.5970
  425MOL0     H57317   1.084  10.395   9.079  1.4422  0.5731  0.3115
  425MOL0     H57318   0.944  10.526   8.910  0.4450  0.1489  1.1336
  425MOL0     H57319   1.083  10.556   8.812 -2.0002  0.1722  0.1116
  425MOL0     H57320   1.012  10.358   8.725  1.1610 -0.4929 -0.0198
  425MOL0     H57321   1.122  10.289   8.834  0.5871 -1.9447 -3.8932
  425MOL0     H57322   0.818  10.299   8.870  0.4963 -0.4386 -1.4923
  425MOL0     H57323   0.916  10.248   9.009 -0.1649 -1.4609 -0.2058
  425MOL0     H57324   0.970  10.059   8.841 -0.1252  1.2585  1.4369
  425MOL0     H57325   0.801  10.079   8.877  1.8751 -2.3837  2.0237
  425MOL0     H57326   1.014  10.009   8.594  1.2266 -0.2831 -2.1092
  425MOL0     H57327   0.888  10.126   8.260 -0.8870  1.2774  1.3147
  425MOL0     H57328   1.024  10.046   8.340  1.1414  1.0718 -3.3952
  425MOL0     H57329   0.879   9.853   8.401 -3.1414 -0.8021  0.7034
  425MOL0     H57330   0.752   9.912   8.304 -0.1597  0.4426  2.1526
  425MOL0     H57331   1.038   9.871   8.213 -0.8361  0.8412  2.1345
  425MOL0     H57332   0.919   9.927   8.101 -0.6616 -0.6075 -0.3771
  425MOL0     H57333   0.765   9.747   8.140  0.3488  0.1219  0.4501
  425MOL0     H57334   0.879   9.660   8.239  1.7661  1.8467  1.4362
  425MOL0     H57335   0.981   9.665   7.796  0.1791 -0.1661 -0.1125
  425MOL0     H57336   0.824   9.547   7.621 -2.4649  0.7207  0.4969
  425MOL0     H57337   0.274   9.290   7.801  0.2262 -1.7485  0.6488
  425MOL0     H57338   0.089   9.219   7.643 -0.9941  1.2191 -1.2746
  425MOL0     H57339   0.008   9.039   7.499 -1.7282 -0.5430  0.7170
  425MOL0     H57340  -0.064   9.193   7.440 -0.1006 -0.3054  2.1068
  425MOL0     H57341  -0.078   9.091   7.213  2.3288 -1.6526 -2.3147
  425MOL0     H57342   0.017   8.958   7.264  2.1046  1.6281  0.8650
  425MOL0     H57343  -0.223   8.919   7.228 -0.2734 -0.0626 -0.3582
  425MOL0     H57344  -0.157   8.860   7.384  1.4372 -1.6770 -2.4575
  425MOL0     H57345  -0.285   9.136   7.359  1.2855  0.6408  2.7960
  425MOL0     H57346  -0.304   9.034   7.499 -2.1663 -1.1268 -0.5469
  425MOL0     H57347  -0.439   8.976   7.228 -0.7923 -2.4228 -1.1586
  425MOL0     H57348  -0.522   9.037   7.365 -1.1594 -3.0994  3.2683
  425MOL0     H57349  -0.426   8.759   7.292 -0.4742 -0.9225  1.0339
  425MOL0     H57350  -0.436   8.798   7.468 -1.9309  0.4082  1.4105
  425MOL0     H57351  -0.690   8.870   7.362 -0.4009  0.4220  1.7811
  425MOL0     H57352  -0.650   8.709   7.425 -0.9369 -1.1705 -1.1757
  425MOL0     H57353  -0.587   8.799   7.147 -1.2013  1.9618  0.0729
  425MOL0     H57354  -0.601   8.631   7.201  1.4846  0.4157 -1.3055
  425MOL0     H57355   0.380   9.135   7.348 -2.0062  2.3289 -0.5971
  425MOL0     H57356   0.563   9.185   7.517  0.5725 -0.1076 -1.3445
  425MOL0     H57357   0.603   9.385   7.957  1.9552 -1.5174  0.5237
  425MOL0     H57358   0.721   9.521   8.108 -2.2803 -3.1302  0.0079
  425MOL0     H57359   0.995  10.485   9.533  0.7448  0.1038 -2.4418
  425MOL0     H57360   0.951  10.478   9.771  0.0886  0.2363 -0.8310
  425MOL0     H57361   0.878  10.575  10.120 -0.5574  1.4613 -0.7102
  425MOL0     H57362   0.820  10.499  10.361  1.4253 -1.3471  2.5196
  425MOL0     H57363   1.061  10.363  10.612 -0.7385 -1.7645  3.8938
  425MOL0     H57364   0.957  10.347  10.467  0.3955 -1.0949 -0.5268
  425MOL0     H57365   0.854  10.408  10.746  3.3874  0.9121  0.3148
  425MOL0     H57366   0.872  10.244  10.692 -1.1202 -0.1705  1.0342
  425MOL0     H57367   0.716  10.299  10.490 -3.5762 -0.2732 -0.0057
  425MOL0     H57368   0.675  10.455  10.553  1.2567  0.8185  0.7381
  425MOL0     H57369   0.586  10.332  10.769 -1.3714  2.0994 -1.3187
  425MOL0     H57370   0.495  10.330  10.621 -0.0660  1.9911  0.3464
  425MOL0     H57371   0.651   9.939  10.720  0.7504  0.8939  2.6339
  425MOL0     H57372   1.170  10.672  10.510  0.0790 -1.5252  0.0567
  425MOL0     H57373   1.323  10.718  10.204  0.6231  1.1448 -0.2767
  425MOL0     H57374   1.249  10.876  10.236 -1.6543 -1.9993 -2.7296
  425MOL0     H57375   1.318  10.783  10.367  1.6085  0.3621 -1.5673
  426MOL0     O57376   2.242   6.424   7.550 -0.4059  0.6943  0.3401
  426MOL0     C57377   2.166   6.521   7.529  0.2464 -1.3536 -0.0746
  426MOL0     O57378   2.027   6.511   7.516  1.0209 -0.0132  0.2714
  426MOL0     C57379   1.975   6.394   7.551  0.7837 -0.3363 -0.4841
  426MOL0     C57380   1.948   6.365   7.685 -0.1239  0.6186 -0.0369
  426MOL0     C57381   1.894   6.245   7.722  0.1214 -0.3025 -1.6553
  426MOL0     C57382   1.870   6.146   7.625  0.3115  0.9522  0.8085
  426MOL0     O57383   1.825   6.024   7.680  0.6786  0.3472 -0.3409
  426MOL0     C57384   1.794   5.922   7.578 -0.4747 -0.0745 -0.7749
  426MOL0     C57385   1.656   5.938   7.510  0.3561 -0.2529  0.4824
  426MOL0     C57386   1.645   5.846   7.380  0.6325 -0.3308 -1.0866
  426MOL0     C57387   1.501   5.817   7.330 -0.9319 -0.1404  0.1049
  426MOL0     C57388   1.481   5.728   7.214  0.3137  0.0093  0.6586
  426MOL0     C57389   1.534   5.590   7.234 -0.3850 -0.2445  0.1134
  426MOL0     C57390   1.527   5.509   7.105  0.2996 -0.4131 -0.5461
  426MOL0     C57391   1.580   5.366   7.114 -0.1071 -0.1481 -0.0995
  426MOL0     N57392   1.502   5.287   7.213  0.0378 -1.1181  0.7779
  426MOL0     C57393   1.373   5.250   7.191  0.6783  0.0830  0.7337
  426MOL0     C57394   1.345   5.181   7.303 -0.2233 -0.2910  1.2328
  426MOL0     C57395   1.225   5.106   7.311  0.0460  0.1278  0.6744
  426MOL0     C57396   1.159   5.097   7.452 -0.1732 -0.2292  0.4792
  426MOL0     C57397   1.067   5.211   7.482 -0.2271 -0.2983 -0.7944
  426MOL0     C57398   1.152   5.346   7.483  0.3555  0.0788 -0.9571
  426MOL0     O57399   1.072   5.457   7.529 -0.2701 -0.4798 -0.3987
  426MOL0     C57400   0.975   5.522   7.449  0.0296  0.8340  0.1631
  426MOL0     C57401   0.887   5.609   7.510 -1.2485 -0.9961 -1.3713
  426MOL0     C57402   0.785   5.670   7.433 -0.0903 -0.0311 -0.1265
  426MOL0     C57403   0.760   5.615   7.304 -0.4374  0.2985  0.4081
  426MOL0     C57404   0.656   5.678   7.219  0.2548 -0.9578  1.0765
  426MOL0     O57405   0.629   5.617   7.097  0.1272  0.3992 -0.4055
  426MOL0     C57406   0.504   5.641   7.044 -0.6525 -0.3458  0.9342
  426MOL0     C57407   0.507   5.750   6.951 -0.0581  1.0633 -0.1864
  426MOL0     C57408   0.393   5.785   6.886  0.3501 -0.2287  0.3968
  426MOL0     C57409   0.276   5.724   6.908 -0.9419  0.5702 -0.3026
  426MOL0     O57410   0.157   5.771   6.858  0.2075  0.1077 -0.0141
  426MOL0     C57411   0.126   5.917   6.864 -1.3116  0.3539 -0.4174
  426MOL0     C57412   0.107   5.976   6.720  0.2404  0.7321 -0.1828
  426MOL0     C57413  -0.021   5.923   6.654  0.6729 -0.4148  0.5530
  426MOL0     C57414  -0.147   6.005   6.687  1.1021 -0.2282  0.1827
  426MOL0     C57415  -0.271   5.930   6.636 -0.6803 -0.1218  0.0629
  426MOL0     C57416  -0.281   5.918   6.486  0.3974  0.4136  0.2718
  426MOL0     C57417  -0.273   6.048   6.402  0.9747 -0.3017  0.1565
  426MOL0     C57418  -0.403   6.129   6.409 -1.1144 -0.2238 -0.2266
  426MOL0    Cl57419  -0.385   6.290   6.385 -0.2264 -0.1511 -0.3677
  426MOL0     C57420   0.277   5.620   7.002  0.1822 -0.5006 -0.3380
  426MOL0     C57421   0.385   5.575   7.072  0.4001  0.3316  0.0117
  426MOL0     O57422   0.609   5.784   7.256  0.2884  0.4605 -0.2879
  426MOL0     C57423   0.848   5.525   7.245  0.3851 -0.2167  0.6366
  426MOL0     C57424   0.953   5.476   7.321 -0.2749  1.2298  1.2202
  426MOL0     N57425   1.453   5.180   7.385 -1.3621  0.7823 -0.0287
  426MOL0     N57426   1.551   5.238   7.325 -0.2328 -0.3114 -0.3077
  426MOL0     C57427   1.892   6.180   7.481 -0.2676  0.2892  0.1606
  426MOL0     C57428   1.950   6.302   7.458 -0.7044  0.7316  0.7270
  426MOL0     C57429   2.225   6.663   7.509  0.5887  0.1731 -1.1246
  426MOL0     C57430   2.129   6.761   7.487  0.1033 -0.6005 -0.2842
  426MOL0     C57431   2.167   6.893   7.465  0.9302 -0.1146  0.7011
  426MOL0     C57432   2.298   6.931   7.484 -0.8930 -0.2468 -0.8379
  426MOL0     O57433   2.335   7.063   7.487 -0.3504  0.1692 -0.4292
  426MOL0     C57434   2.293   7.146   7.600  1.0214 -0.5330 -0.1744
  426MOL0     C57435   2.319   7.293   7.558  0.1857 -0.1852 -0.1439
  426MOL0     C57436   2.217   7.347   7.460  0.0925 -0.4421  0.6750
  426MOL0     C57437   2.138   7.464   7.521 -0.3014 -0.4926  0.2294
  426MOL0     C57438   2.059   7.422   7.631  0.0215  0.5802 -0.4770
  426MOL0     C57439   2.003   7.374   7.730  0.8983  0.3345  0.0559
  426MOL0     C57440   2.399   6.842   7.510  0.0640  0.2294 -0.1437
  426MOL0     C57441   2.367   6.703   7.518  0.0624 -0.0855  0.5762
  426MOL0     C57442   2.477   6.612   7.540 -0.0103  0.8748 -0.5562
  426MOL0     H57443   1.955   6.449   7.753  1.1204  1.5115 -1.2166
  426MOL0     H57444   1.861   6.225   7.824  2.9499  0.7666 -0.4367
  426MOL0     H57445   1.872   5.940   7.504 -0.8207  4.1705 -0.3590
  426MOL0     H57446   1.796   5.824   7.627 -1.0157  1.7422  3.2712
  426MOL0     H57447   1.624   6.040   7.485 -2.0794 -0.7239  1.3350
  426MOL0     H57448   1.572   5.910   7.575 -1.1046 -2.5122 -2.1587
  426MOL0     H57449   1.687   5.747   7.402  1.2180  0.0249 -0.5548
  426MOL0     H57450   1.701   5.886   7.295 -0.2383  2.3061 -0.5325
  426MOL0     H57451   1.432   5.785   7.408 -0.1615 -1.2335  0.3538
  426MOL0     H57452   1.466   5.913   7.291 -1.9860 -0.8519 -0.7818
  426MOL0     H57453   1.376   5.709   7.194  0.4219  1.3423 -1.5590
  426MOL0     H57454   1.529   5.764   7.122  3.0029 -2.2270  1.0549
  426MOL0     H57455   1.642   5.593   7.248  0.4845 -0.6479 -4.6598
  426MOL0     H57456   1.486   5.534   7.315 -0.4875 -3.1136 -1.7595
  426MOL0     H57457   1.574   5.571   7.029  0.8877  2.9490  2.3330
  426MOL0     H57458   1.422   5.513   7.074  0.3314  2.2950 -0.4840
  426MOL0     H57459   1.583   5.328   7.011  1.5659  1.4892 -0.7185
  426MOL0     H57460   1.685   5.375   7.144 -0.8763  0.1223  2.7506
  426MOL0     H57461   1.317   5.264   7.100  1.7696 -3.2963 -0.6263
  426MOL0     H57462   1.146   5.148   7.248  0.1616  0.7403  0.9349
  426MOL0     H57463   1.243   5.004   7.274  0.5781  0.4591  0.0086
  426MOL0     H57464   1.094   5.010   7.439  0.6121 -0.5250 -1.8449
  426MOL0     H57465   1.239   5.085   7.526 -1.1777 -0.1028  1.6228
  426MOL0     H57466   1.023   5.185   7.579  1.5884 -0.9801 -0.1233
  426MOL0     H57467   0.998   5.229   7.399 -0.8978  4.0070  0.4490
  426MOL0     H57468   1.205   5.359   7.388 -0.6757 -0.5102 -1.6347
  426MOL0     H57469   1.238   5.332   7.549 -0.2673 -0.4974 -0.2577
  426MOL0     H57470   0.910   5.632   7.614  1.3285 -2.0650 -1.6183
  426MOL0     H57471   0.724   5.748   7.477  0.2253  0.1738 -0.0474
  426MOL0     H57472   0.597   5.797   6.912  0.4985 -1.3650 -2.0848
  426MOL0     H57473   0.406   5.854   6.803  2.9532  0.5460  1.3499
  426MOL0     H57474   0.031   5.930   6.917  0.2556  1.0197  2.4516
  426MOL0     H57475   0.200   5.970   6.924  1.2796 -0.7886 -2.3775
  426MOL0     H57476   0.106   6.084   6.734 -0.7158  0.4688  2.5396
  426MOL0     H57477   0.184   5.938   6.653  1.0435 -0.7140  1.4607
  426MOL0     H57478  -0.002   5.934   6.547 -2.2413 -2.4788 -0.2865
  426MOL0     H57479  -0.030   5.815   6.669 -3.4250  0.0836  3.3757
  426MOL0     H57480  -0.142   6.110   6.657 -0.9538 -0.5558 -1.5086
  426MOL0     H57481  -0.157   6.019   6.795 -2.2170  1.3230 -0.2012
  426MOL0     H57482  -0.359   5.993   6.654 -1.6169 -1.8537  1.9810
  426MOL0     H57483  -0.288   5.830   6.679  2.4994 -0.7101  0.1745
  426MOL0     H57484  -0.206   5.846   6.452 -1.8947 -1.4169 -1.2171
  426MOL0     H57485  -0.369   5.862   6.454  0.0308  2.1083 -1.8987
  426MOL0     H57486  -0.243   6.021   6.301 -0.1120 -2.7869  0.4037
  426MOL0     H57487  -0.201   6.122   6.438 -1.4067  3.2284 -1.7632
  426MOL0     H57488  -0.492   6.104   6.349 -3.3079  2.2497  1.7304
  426MOL0     H57489  -0.441   6.119   6.511 -2.5267 -2.5907 -0.9142
  426MOL0     H57490   0.184   5.574   7.033  0.1774 -0.9377 -0.9820
  426MOL0     H57491   0.381   5.493   7.144  1.9543 -1.6971 -2.0763
  426MOL0     H57492   0.827   5.510   7.139 -1.4527 -0.0533  0.9455
  426MOL0     H57493   1.015   5.402   7.270 -3.0995  0.7842 -1.9592
  426MOL0     H57494   1.868   6.107   7.405 -0.2403  1.8962 -1.4677
  426MOL0     H57495   1.967   6.336   7.356 -0.2375  1.0845  0.9181
  426MOL0     H57496   2.023   6.736   7.486  0.7289 -3.9634  1.6277
  426MOL0     H57497   2.089   6.965   7.444  1.3999  0.4673  0.9041
  426MOL0     H57498   2.350   7.126   7.692  0.8113 -1.2127 -0.1843
  426MOL0     H57499   2.186   7.130   7.618  0.3729 -1.0608 -3.7816
  426MOL0     H57500   2.422   7.297   7.520  1.0977  1.9963  2.2804
  426MOL0     H57501   2.320   7.347   7.652  0.6277  0.6897 -0.6442
  426MOL0     H57502   2.148   7.276   7.415  1.8619  0.8286 -4.7468
  426MOL0     H57503   2.276   7.383   7.375  1.0949  3.4622  2.7621
  426MOL0     H57504   2.213   7.537   7.551 -0.2802 -0.2549 -0.3724
  426MOL0     H57505   2.069   7.503   7.444 -2.0448 -3.0994  0.3589
  426MOL0     H57506   1.955   7.341   7.820  0.3939  1.4104  0.2029
  426MOL0     H57507   2.502   6.873   7.523 -0.1569  0.6083  0.8130
  426MOL0     H57508   2.445   6.532   7.608 -5.2788 -0.7154 -4.2130
  426MOL0     H57509   2.501   6.563   7.445  0.6985 -1.5083  0.7742
  426MOL0     H57510   2.564   6.665   7.580 -0.1432 -0.6316  1.9312
  427MOL0     O57511   7.171   4.565   1.472 -0.9272 -0.4398  0.0031
  427MOL0     C57512   7.185   4.464   1.398  0.7972  1.1350  0.2811
  427MOL0     O57513   7.108   4.445   1.289 -0.2903 -0.0278  0.1499
  427MOL0     C57514   7.052   4.558   1.224 -1.0783 -0.1823  0.1423
  427MOL0     C57515   6.928   4.541   1.169  0.1591 -1.0036  0.0274
  427MOL0     C57516   6.860   4.646   1.103  0.9830  0.8906  0.7888
  427MOL0     C57517   6.929   4.769   1.079  0.1809 -0.0894 -0.4195
  427MOL0     O57518   6.882   4.880   1.013 -0.4544 -0.1596 -0.1042
  427MOL0     C57519   6.750   4.862   0.953  0.1313  0.4553  0.8331
  427MOL0     C57520   6.704   4.984   0.868  0.3273 -0.5810  0.2483
  427MOL0     C57521   6.791   5.026   0.754  0.3050  0.3622  0.7383
  427MOL0     C57522   6.732   4.965   0.623  0.5340  0.2057 -0.0748
  427MOL0     C57523   6.761   5.056   0.500 -0.9060 -0.1576  0.4148
  427MOL0     C57524   6.910   5.069   0.461  0.3387  0.2368 -0.0331
  427MOL0     C57525   6.918   5.142   0.322 -0.5031  0.4289  0.2286
  427MOL0     C57526   7.056   5.210   0.308  0.5938  0.7582 -0.5648
  427MOL0     N57527   7.068   5.302   0.195 -0.3579 -1.1109  0.4637
  427MOL0     C57528   6.969   5.380   0.131 -0.4659  0.3735  0.0203
  427MOL0     C57529   7.029   5.425   0.016 -0.1520  0.0669 -0.9340
  427MOL0     C57530   6.957   5.519  -0.080 -0.0950 -0.0352  0.0165
  427MOL0     C57531   6.973   5.450  -0.219  0.3690 -0.2804  0.2215
  427MOL0     C57532   6.900   5.551  -0.316 -0.2820 -0.3037 -0.3922
  427MOL0     C57533   6.909   5.524  -0.466 -1.6636 -0.0977 -1.0646
  427MOL0     O57534   7.051   5.511  -0.514 -0.0445 -0.3077  0.7290
  427MOL0     C57535   7.072   5.525  -0.648 -0.1218 -0.8820 -0.5134
  427MOL0     C57536   7.199   5.546  -0.693 -0.1174  0.4937 -0.5025
  427MOL0     C57537   7.220   5.557  -0.829 -0.3200 -0.0449  0.0657
  427MOL0     C57538   7.121   5.562  -0.923 -0.1399  0.7905  0.2159
  427MOL0     C57539   7.145   5.579  -1.061  1.0579 -1.3880  1.0039
  427MOL0     O57540   7.267   5.606  -1.095 -0.7731 -0.3861  1.0202
  427MOL0     C57541   7.290   5.629  -1.230 -0.6998  0.3643  0.6802
  427MOL0     C57542   7.270   5.535  -1.331 -0.4638  0.0375  0.0108
  427MOL0     C57543   7.309   5.566  -1.463  0.3387  0.0629 -0.1769
  427MOL0     C57544   7.373   5.687  -1.500  0.2627  0.7933  0.3155
  427MOL0     O57545   7.425   5.707  -1.621  0.4521  0.3520  0.2941
  427MOL0     C57546   7.363   5.640  -1.735  0.2578  0.2744 -0.0229
  427MOL0     C57547   7.429   5.716  -1.851 -0.1723  0.6143 -0.6383
  427MOL0     C57548   7.380   5.675  -1.991  0.2732 -0.3620  0.9099
  427MOL0     C57549   7.397   5.523  -2.024  1.3825 -0.1437 -0.0804
  427MOL0     C57550   7.334   5.490  -2.166  0.1131  0.5494 -1.0487
  427MOL0     C57551   7.392   5.561  -2.285 -0.1927  0.2247 -0.1265
  427MOL0     C57552   7.334   5.507  -2.406  0.4663 -0.2041  0.2691
  427MOL0     C57553   7.379   5.364  -2.441  0.1692 -0.5343  0.3549
  427MOL0    Cl57554   7.310   5.316  -2.592  0.3389 -0.4189  0.0035
  427MOL0     C57555   7.407   5.767  -1.393  0.6240  0.3907  0.5604
  427MOL0     C57556   7.359   5.741  -1.261 -0.4215  0.5894 -0.9055
  427MOL0     O57557   7.049   5.570  -1.135 -0.1483  0.6603  0.4808
  427MOL0     C57558   6.985   5.550  -0.876 -0.0200  0.1987  0.7289
  427MOL0     C57559   6.963   5.528  -0.740 -0.3030 -0.0579  0.0015
  427MOL0     N57560   7.162   5.391   0.024 -0.5816 -0.6678  0.6606
  427MOL0     N57561   7.182   5.316   0.124 -0.2823  0.9248 -0.7245
  427MOL0     C57562   7.061   4.777   1.127  0.4439 -0.3284 -0.0921
  427MOL0     C57563   7.120   4.677   1.196 -0.0303  0.7147  0.0493
  427MOL0     C57564   7.312   4.381   1.409  0.2899 -0.3180 -0.1058
  427MOL0     C57565   7.313   4.264   1.319 -0.3126  0.1020 -0.0156
  427MOL0     C57566   7.419   4.172   1.328  0.2370 -0.4077 -0.5941
  427MOL0     C57567   7.510   4.184   1.431  1.0271  0.9032 -0.3326
  427MOL0     O57568   7.590   4.080   1.435 -0.1628 -0.0635  0.1804
  427MOL0     C57569   7.661   4.063   1.562 -0.9669 -1.0602 -0.2400
  427MOL0     C57570   7.723   3.925   1.575  0.4954  0.1118 -0.1213
  427MOL0     C57571   7.852   3.922   1.493  0.7184 -0.6109 -0.4955
  427MOL0     C57572   7.933   3.800   1.510 -0.3157 -0.1822 -0.0468
  427MOL0     C57573   8.064   3.808   1.460 -0.3798  1.1878  0.0896
  427MOL0     C57574   8.185   3.814   1.423  0.0062 -0.6606  0.0953
  427MOL0     C57575   7.502   4.293   1.517 -0.6274 -0.8605  0.3411
  427MOL0     C57576   7.402   4.400   1.505 -0.4177  2.0707  0.8457
  427MOL0     C57577   7.408   4.511   1.595 -0.3522 -0.2991  0.8411
  427MOL0     H57578   6.865   4.455   1.194 -1.1333  0.7454  3.5200
  427MOL0     H57579   6.759   4.636   1.065  0.6776  2.4049  1.1372
  427MOL0     H57580   6.764   4.779   0.882 -2.0332  0.4630  0.3400
  427MOL0     H57581   6.668   4.830   1.018 -1.9174  1.0867 -1.3053
  427MOL0     H57582   6.692   5.067   0.939 -2.6919  1.6991 -2.6264
  427MOL0     H57583   6.602   4.961   0.836  0.1689  1.3722 -0.7887
  427MOL0     H57584   6.895   4.991   0.760 -0.1871 -1.2005  0.7003
  427MOL0     H57585   6.786   5.135   0.749 -0.2911  0.3044 -0.2736
  427MOL0     H57586   6.776   4.867   0.605  1.9072  0.8432 -0.3118
  427MOL0     H57587   6.626   4.940   0.631 -0.3763  2.7689 -2.3944
  427MOL0     H57588   6.700   5.019   0.417 -0.6219  0.2122  0.0358
  427MOL0     H57589   6.722   5.151   0.537 -4.9253 -0.8773 -1.4115
  427MOL0     H57590   6.962   5.115   0.545  1.2766  0.4149 -0.6983
  427MOL0     H57591   6.965   4.975   0.449  2.3796  0.8101  3.4470
  427MOL0     H57592   6.844   5.223   0.325 -0.3435  0.5482  1.2509
  427MOL0     H57593   6.882   5.086   0.236 -1.6708  3.2491 -1.2412
  427MOL0     H57594   7.090   5.268   0.394  2.3348 -1.9938  0.7422
  427MOL0     H57595   7.126   5.126   0.300 -1.0150 -0.7869  0.9726
  427MOL0     H57596   6.866   5.384   0.164 -0.1323 -0.3863  1.1982
  427MOL0     H57597   6.852   5.528  -0.049 -0.2824 -3.4302  0.7759
  427MOL0     H57598   6.997   5.619  -0.059  0.4087 -0.1869 -0.1942
  427MOL0     H57599   7.080   5.441  -0.242  0.9550 -3.4331  3.2321
  427MOL0     H57600   6.916   5.356  -0.223 -1.6689  0.9297 -1.8251
  427MOL0     H57601   6.951   5.646  -0.297  0.8390 -0.9410 -0.1580
  427MOL0     H57602   6.796   5.553  -0.282  0.3609 -0.7346  1.7984
  427MOL0     H57603   6.840   5.601  -0.502 -2.4261 -1.0656 -1.7217
  427MOL0     H57604   6.865   5.425  -0.482  1.4700 -1.5595 -1.3294
  427MOL0     H57605   7.274   5.554  -0.615  0.4898 -2.4958 -0.6496
  427MOL0     H57606   7.321   5.571  -0.868  0.2042 -2.1816  0.5203
  427MOL0     H57607   7.219   5.444  -1.304  3.0140 -1.5054  2.0746
  427MOL0     H57608   7.289   5.491  -1.538  2.9764 -1.1232  0.1709
  427MOL0     H57609   7.377   5.533  -1.748 -1.9025  0.0106 -0.5142
  427MOL0     H57610   7.256   5.663  -1.739  0.2319  0.1383 -0.1158
  427MOL0     H57611   7.432   5.822  -1.823  4.3365 -0.4421  4.4748
  427MOL0     H57612   7.526   5.667  -1.839  0.1412  1.8465  3.4382
  427MOL0     H57613   7.279   5.711  -2.012  0.8058  0.5198 -0.2277
  427MOL0     H57614   7.446   5.731  -2.059 -0.8903 -1.0024 -0.8189
  427MOL0     H57615   7.335   5.473  -1.949 -0.0016  4.0898  1.9015
  427MOL0     H57616   7.499   5.492  -2.001  0.8689 -0.3265  2.2838
  427MOL0     H57617   7.231   5.524  -2.156 -0.7411 -2.2168  0.7196
  427MOL0     H57618   7.343   5.382  -2.182 -1.5992  0.2826 -0.4066
  427MOL0     H57619   7.380   5.670  -2.292  0.6000  0.3817  0.7816
  427MOL0     H57620   7.497   5.530  -2.284 -0.7148 -1.8599  3.4206
  427MOL0     H57621   7.367   5.568  -2.490  1.5751 -0.4215  0.5270
  427MOL0     H57622   7.225   5.516  -2.414  0.7309  3.4537 -1.0871
  427MOL0     H57623   7.488   5.365  -2.441  0.1792  0.6273  1.8911
  427MOL0     H57624   7.346   5.292  -2.366  0.1981 -1.8692 -0.8490
  427MOL0     H57625   7.463   5.857  -1.417  1.0648 -0.5949 -2.6058
  427MOL0     H57626   7.375   5.815  -1.183 -2.4237  2.3558 -2.0546
  427MOL0     H57627   6.895   5.553  -0.935  0.3071 -0.2541  0.1992
  427MOL0     H57628   6.855   5.516  -0.729 -0.2413 -0.3425  0.3059
  427MOL0     H57629   7.125   4.864   1.113 -0.6261  0.4328 -0.4649
  427MOL0     H57630   7.217   4.699   1.240 -0.2198 -2.0755  2.1268
  427MOL0     H57631   7.227   4.231   1.261 -0.1109 -1.6618  0.6114
  427MOL0     H57632   7.405   4.084   1.267 -1.0789 -1.9529  1.8227
  427MOL0     H57633   7.590   4.083   1.643  0.8260  5.6218  0.2551
  427MOL0     H57634   7.737   4.140   1.575  0.7170 -2.6559 -0.1669
  427MOL0     H57635   7.662   3.839   1.547  2.4956 -2.3126  2.4448
  427MOL0     H57636   7.753   3.908   1.678  2.0441 -0.2252 -0.6088
  427MOL0     H57637   7.914   4.008   1.520 -2.0457  1.0866  0.9588
  427MOL0     H57638   7.830   3.925   1.386  1.1139  1.3245 -0.5671
  427MOL0     H57639   7.932   3.772   1.616 -2.4982 -1.2629 -0.2843
  427MOL0     H57640   7.887   3.724   1.446 -2.3222  1.0483 -0.1550
  427MOL0     H57641   8.280   3.827   1.376  0.0909  0.5264  0.5688
  427MOL0     H57642   7.562   4.305   1.607  2.4574 -4.0037 -1.0631
  427MOL0     H57643   7.397   4.608   1.546 -0.1309 -0.3643  0.6579
  427MOL0     H57644   7.322   4.505   1.661  0.3736  0.0172  1.8314
  427MOL0     H57645   7.498   4.508   1.657 -0.0349  1.5717  0.5305
  428MOL0     O57646   7.198   3.806   1.411 -0.2836  0.4844 -0.4691
  428MOL0     C57647   7.224   3.696   1.454  0.3649  0.3371 -0.7788
  428MOL0     O57648   7.306   3.604   1.401 -0.0496  1.0290  0.0757
  428MOL0     C57649   7.387   3.640   1.299 -0.2872  0.4716  0.8589
  428MOL0     C57650   7.395   3.553   1.192 -1.6101  0.0993 -0.0005
  428MOL0     C57651   7.479   3.588   1.083  0.4398  0.4311 -0.2714
  428MOL0     C57652   7.563   3.692   1.081 -0.0736  0.0874  0.0801
  428MOL0     O57653   7.641   3.706   0.967  0.6850 -0.2395  0.1530
  428MOL0     C57654   7.755   3.791   0.967  0.3581 -0.6493 -0.4213
  428MOL0     C57655   7.817   3.829   0.840 -0.0130 -0.1812  0.2654
  428MOL0     C57656   7.878   3.707   0.764 -0.1778 -0.2817 -0.0777
  428MOL0     C57657   7.899   3.730   0.613 -0.1209  0.2813 -0.4945
  428MOL0     C57658   7.883   3.592   0.555  0.3004 -0.1579  0.6724
  428MOL0     C57659   7.890   3.590   0.404  0.5110  0.2611  0.1288
  428MOL0     C57660   7.819   3.464   0.355  0.0620  0.0889 -0.5238
  428MOL0     C57661   7.861   3.427   0.209 -0.1743 -0.3828  0.3103
  428MOL0     N57662   7.821   3.529   0.111  0.0608  0.2527 -0.2388
  428MOL0     C57663   7.700   3.552   0.043  0.4194  0.1215 -0.5135
  428MOL0     C57664   7.724   3.661  -0.040  0.3271  0.7021  0.6093
  428MOL0     C57665   7.632   3.743  -0.115  0.5424  0.0266  0.4984
  428MOL0     C57666   7.548   3.670  -0.225 -0.3109 -0.3215 -0.4467
  428MOL0     C57667   7.486   3.765  -0.325  0.5674 -0.2786  0.0525
  428MOL0     C57668   7.406   3.690  -0.432  1.0017  0.1374  0.5702
  428MOL0     O57669   7.353   3.770  -0.539  0.9404 -0.5718  0.0356
  428MOL0     C57670   7.433   3.810  -0.640 -0.4367  0.1146 -0.2176
  428MOL0     C57671   7.473   3.730  -0.743 -0.1939 -0.4726 -0.2883
  428MOL0     C57672   7.541   3.796  -0.850 -0.2937  0.6410 -0.5986
  428MOL0     C57673   7.557   3.934  -0.866 -0.1057  0.3366 -0.1081
  428MOL0     C57674   7.620   4.007  -0.980  0.1802 -0.6460 -0.5803
  428MOL0     O57675   7.587   4.138  -0.997  0.2579  0.1303  0.3997
  428MOL0     C57676   7.616   4.216  -1.109  0.1504 -0.1722 -0.3932
  428MOL0     C57677   7.599   4.355  -1.096 -0.6144  0.1575  0.7370
  428MOL0     C57678   7.628   4.448  -1.201 -0.1166  0.2924 -0.2197
  428MOL0     C57679   7.674   4.403  -1.329 -0.6843 -0.0323  0.1374
  428MOL0     O57680   7.691   4.493  -1.431 -0.3135  0.3045  0.0291
  428MOL0     C57681   7.809   4.476  -1.522 -0.5084  1.0770 -0.7061
  428MOL0     C57682   7.875   4.612  -1.546 -0.1217  0.4019 -0.7413
  428MOL0     C57683   7.996   4.600  -1.632  0.7945  0.2608  0.9383
  428MOL0     C57684   8.065   4.738  -1.660 -0.3753 -0.8056  1.1644
  428MOL0     C57685   8.171   4.729  -1.775  0.4356 -0.5513  0.2160
  428MOL0     C57686   8.210   4.874  -1.833 -0.0735 -0.1697 -0.2883
  428MOL0     C57687   8.260   4.853  -1.973 -0.3935 -0.3337 -0.0158
  428MOL0     C57688   8.280   4.987  -2.043 -0.4957  0.0689 -0.8011
  428MOL0    Cl57689   8.338   4.964  -2.200  0.6545 -0.2553  0.1245
  428MOL0     C57690   7.685   4.262  -1.343  0.2158 -0.0321  0.6334
  428MOL0     C57691   7.651   4.173  -1.236  0.2547 -0.3268 -0.1319
  428MOL0     O57692   7.686   3.937  -1.057 -0.7172 -0.1097 -1.0154
  428MOL0     C57693   7.515   4.006  -0.751 -0.1714  0.5859 -0.0608
  428MOL0     C57694   7.461   3.947  -0.639  0.0083 -0.1549  0.5429
  428MOL0     N57695   7.858   3.691  -0.032  0.3970 -0.1321  0.0224
  428MOL0     N57696   7.914   3.613   0.061 -0.1233  0.1074  0.0700
  428MOL0     C57697   7.562   3.772   1.193 -0.3137  0.5415 -0.7418
  428MOL0     C57698   7.474   3.746   1.299  0.2032 -0.1018 -0.3814
  428MOL0     C57699   7.153   3.658   1.584  0.0186  0.2439  0.4340
  428MOL0     C57700   7.182   3.527   1.639 -0.4842  0.1212 -0.2782
  428MOL0     C57701   7.146   3.480   1.765  0.1579  0.0662 -0.0236
  428MOL0     C57702   7.058   3.558   1.842  0.6195 -0.7130  0.1925
  428MOL0     O57703   7.027   3.523   1.972  0.4919  0.1297 -0.0203
  428MOL0     C57704   6.972   3.615   2.068  0.0743  0.0922  0.1896
  428MOL0     C57705   7.077   3.675   2.168 -0.4855 -0.1875  0.2110
  428MOL0     C57706   7.000   3.743   2.287  1.1177  0.2307 -0.5848
  428MOL0     C57707   7.105   3.772   2.400  0.1906  0.1254  0.5731
  428MOL0     C57708   7.054   3.777   2.533 -0.2715  0.5322  0.3715
  428MOL0     C57709   7.002   3.769   2.642 -0.4543  1.2453  0.2338
  428MOL0     C57710   7.021   3.683   1.784 -0.6577 -0.8703 -0.5636
  428MOL0     C57711   7.074   3.737   1.666 -0.0709 -0.1689 -0.0381
  428MOL0     C57712   7.037   3.886   1.651 -0.2004  0.0124  0.2706
  428MOL0     H57713   7.330   3.467   1.185 -3.1484  1.2470 -0.3326
  428MOL0     H57714   7.481   3.521   0.998  1.8153  0.6170 -0.4006
  428MOL0     H57715   7.724   3.893   0.994  0.0042 -0.5491 -1.1961
  428MOL0     H57716   7.833   3.753   1.034  0.2523  1.2043  0.8383
  428MOL0     H57717   7.895   3.900   0.869  1.4790 -2.6648  2.7777
  428MOL0     H57718   7.748   3.882   0.773  1.6953  0.8897 -0.7274
  428MOL0     H57719   7.812   3.621   0.780  0.8785 -1.7574 -2.9762
  428MOL0     H57720   7.976   3.679   0.804 -0.0730  2.1263  1.5459
  428MOL0     H57721   7.837   3.811   0.574  1.0797  2.5015  1.8888
  428MOL0     H57722   8.002   3.768   0.619  0.4033 -1.1826  4.4642
  428MOL0     H57723   7.953   3.518   0.594 -1.6669 -2.8340 -0.5252
  428MOL0     H57724   7.787   3.546   0.580  0.1486 -1.1968 -1.5466
  428MOL0     H57725   7.836   3.677   0.364  0.8700  0.4115 -0.0297
  428MOL0     H57726   7.990   3.594   0.361 -0.6607  3.3915 -2.8362
  428MOL0     H57727   7.710   3.471   0.351 -0.1661  0.6086  3.2222
  428MOL0     H57728   7.850   3.372   0.406 -0.2768 -0.2182 -0.8671
  428MOL0     H57729   7.965   3.393   0.201 -1.2436 -4.2631  0.9121
  428MOL0     H57730   7.796   3.347   0.171 -0.8863  1.2639 -2.1568
  428MOL0     H57731   7.597   3.519   0.053 -0.7893  2.7197 -2.7640
  428MOL0     H57732   7.565   3.791  -0.042  0.9995  0.8814  0.3738
  428MOL0     H57733   7.685   3.830  -0.155  1.7469  0.1017  2.1557
  428MOL0     H57734   7.616   3.601  -0.276 -1.5776 -1.6616 -0.3622
  428MOL0     H57735   7.459   3.636  -0.171 -1.8851  1.8174 -1.5591
  428MOL0     H57736   7.567   3.820  -0.374  0.8030 -1.9224 -1.5073
  428MOL0     H57737   7.418   3.833  -0.273 -3.0342 -3.5510  0.1161
  428MOL0     H57738   7.320   3.638  -0.388 -0.2989  1.3012 -0.4882
  428MOL0     H57739   7.465   3.607  -0.471 -1.8183 -1.2127 -1.1815
  428MOL0     H57740   7.446   3.624  -0.743 -2.1051 -0.1177 -3.4770
  428MOL0     H57741   7.568   3.736  -0.936  1.0683  2.6783 -1.6839
  428MOL0     H57742   7.551   4.390  -1.005 -1.2873  0.2119  0.3723
  428MOL0     H57743   7.596   4.550  -1.186  0.2398  0.4248 -0.3805
  428MOL0     H57744   7.885   4.419  -1.468  3.4671  1.8771 -4.8923
  428MOL0     H57745   7.777   4.415  -1.606  0.5899 -1.3504  0.5515
  428MOL0     H57746   7.796   4.674  -1.591  0.0161  0.3551 -1.0487
  428MOL0     H57747   7.902   4.648  -1.446  2.0782 -0.7879 -0.8453
  428MOL0     H57748   8.082   4.541  -1.599  1.7589  2.8021  3.3638
  428MOL0     H57749   7.964   4.563  -1.730  3.5675 -1.1796  0.4851
  428MOL0     H57750   8.112   4.775  -1.568  1.7693 -1.0039  0.2175
  428MOL0     H57751   7.984   4.809  -1.680  0.7866 -0.1018 -1.3796
  428MOL0     H57752   8.127   4.666  -1.852  0.5514 -3.1250  2.1393
  428MOL0     H57753   8.258   4.677  -1.735  0.6531 -1.1079 -0.9555
  428MOL0     H57754   8.119   4.935  -1.843 -0.3627 -0.8490 -2.2683
  428MOL0     H57755   8.276   4.936  -1.772 -3.6208  0.0424  3.8062
  428MOL0     H57756   8.205   4.779  -2.032  0.5938 -1.3526  0.3024
  428MOL0     H57757   8.353   4.796  -1.970 -0.4563 -0.4824 -0.5979
  428MOL0     H57758   8.187   5.044  -2.056  0.1389  0.7215 -2.7521
  428MOL0     H57759   8.353   5.044  -1.986 -1.6781  0.4035  0.4407
  428MOL0     H57760   7.725   4.209  -1.429 -0.0456  0.7572  0.0206
  428MOL0     H57761   7.666   4.066  -1.241 -1.0510 -0.4777 -1.6606
  428MOL0     H57762   7.510   4.114  -0.742 -1.9774  0.3594  2.7200
  428MOL0     H57763   7.417   4.010  -0.563 -1.5725 -0.2609 -0.2321
  428MOL0     H57764   7.638   3.848   1.205 -0.1118  0.3321 -0.6810
  428MOL0     H57765   7.474   3.812   1.385  1.4783 -0.9648  0.3147
  428MOL0     H57766   7.260   3.471   1.587  0.0913 -1.5200  2.1672
  428MOL0     H57767   7.175   3.382   1.804  1.2412  0.8950  1.3641
  428MOL0     H57768   6.905   3.562   2.135 -2.5446  2.7477 -0.1303
  428MOL0     H57769   6.921   3.705   2.031 -0.5338  0.2079  1.2654
  428MOL0     H57770   7.126   3.757   2.115  0.2284 -1.0583 -0.5008
  428MOL0     H57771   7.146   3.601   2.210  2.1763  0.8494 -2.0560
  428MOL0     H57772   6.940   3.665   2.335  0.9964  1.3785  1.2522
  428MOL0     H57773   6.943   3.832   2.262  0.4905  0.1073  0.3465
  428MOL0     H57774   7.171   3.685   2.411  2.6178  1.9807  1.8327
  428MOL0     H57775   7.154   3.866   2.374  0.7257 -0.5958 -1.1158
  428MOL0     H57776   6.948   3.766   2.734  0.8157 -1.9216  1.0202
  428MOL0     H57777   6.963   3.753   1.844 -0.8005 -1.4588  0.0072
  428MOL0     H57778   7.131   3.939   1.635  0.4617  0.1369  3.7709
  428MOL0     H57779   6.969   3.883   1.566 -1.3288 -0.8227  1.1781
  428MOL0     H57780   6.998   3.939   1.739  1.6581 -0.3613  1.3745
  429MOL0     O57781   3.241  10.344   8.250  0.4603  0.5628 -0.1458
  429MOL0     C57782   3.216  10.259   8.161 -1.3433  0.5892 -0.5599
  429MOL0     O57783   3.236  10.122   8.169 -0.1477 -0.1310 -0.5384
  429MOL0     C57784   3.284  10.060   8.289  0.4260 -0.2912  0.5487
  429MOL0     C57785   3.336   9.928   8.274 -0.0082 -0.1234 -0.3899
  429MOL0     C57786   3.371   9.843   8.385  0.7528  0.3292  0.8866
  429MOL0     C57787   3.350   9.888   8.516  0.4440 -0.3183  0.3321
  429MOL0     O57788   3.361   9.816   8.632 -0.5284  0.0851 -0.1966
  429MOL0     C57789   3.334   9.682   8.618 -0.0072 -1.1170 -0.1416
  429MOL0     C57790   3.288   9.619   8.755 -0.4078 -0.1841  0.4783
  429MOL0     C57791   3.395   9.651   8.863  0.4040 -0.3884 -0.7978
  429MOL0     C57792   3.407   9.520   8.948  0.9557 -0.1821 -0.0439
  429MOL0     C57793   3.491   9.538   9.078  0.4106  0.2460 -0.2205
  429MOL0     C57794   3.641   9.572   9.050  0.4292 -0.2431 -0.9155
  429MOL0     C57795   3.683   9.711   9.095  0.6937  0.0274 -0.7388
  429MOL0     C57796   3.830   9.739   9.058 -0.2349  0.6160  0.0710
  429MOL0     N57797   3.837   9.728   8.912 -0.3287 -0.7521  1.2620
  429MOL0     C57798   3.796   9.833   8.830 -0.8631  0.3644 -0.3257
  429MOL0     C57799   3.826   9.798   8.700  0.1615 -1.0865  0.1978
  429MOL0     C57800   3.782   9.866   8.581 -0.3758 -0.5624  0.3468
  429MOL0     C57801   3.879   9.973   8.542  0.1630  0.3647  0.2633
  429MOL0     C57802   3.840  10.035   8.401 -0.8800  0.5586  0.0754
  429MOL0     C57803   3.951  10.101   8.325 -0.1642  0.4353 -0.1535
  429MOL0     O57804   3.996  10.218   8.402 -0.5019  0.0361 -0.0581
  429MOL0     C57805   4.093  10.299   8.353 -0.1598  0.3706  0.3828
  429MOL0     C57806   4.103  10.427   8.407 -0.5681  0.4508 -0.0578
  429MOL0     C57807   4.196  10.518   8.363  0.6606  0.3418  0.0928
  429MOL0     C57808   4.282  10.488   8.266  0.4083  0.1878  0.1769
  429MOL0     C57809   4.385  10.582   8.213  0.0522 -1.6743  1.1006
  429MOL0     O57810   4.394  10.711   8.262  0.5100  0.3055 -0.2146
  429MOL0     C57811   4.506  10.784   8.231 -0.2341  0.0635 -0.3627
  429MOL0     C57812   4.504  10.875   8.126 -0.6109 -0.4141 -0.6701
  429MOL0     C57813   4.615  10.959   8.100 -0.2880 -0.1962  0.1148
  429MOL0     C57814   4.733  10.944   8.169 -0.6306  0.0872  0.0968
  429MOL0     O57815   4.846  11.016   8.131 -0.3124  0.8265 -0.2075
  429MOL0     C57816   4.903  11.115   8.222 -0.4475  0.4149 -0.6604
  429MOL0     C57817   4.941  11.251   8.161  0.9525 -0.3703  0.1763
  429MOL0     C57818   5.014  11.349   8.265 -0.5607  0.7626 -0.5451
  429MOL0     C57819   5.077  11.473   8.205 -0.7892  0.2363  0.0767
  429MOL0     C57820   5.039  11.597   8.278  0.5109 -0.5262 -0.3143
  429MOL0     C57821   5.047  11.725   8.186  0.4246  0.5399  0.1437
  429MOL0     C57822   5.132  11.836   8.262 -0.0354 -0.1844 -0.3536
  429MOL0     C57823   5.031  11.917   8.343  0.3695 -0.1378  0.4367
  429MOL0    Cl57824   4.933  12.048   8.250 -0.0356  0.6394  0.2328
  429MOL0     C57825   4.736  10.845   8.273  0.0168 -0.7930  0.8239
  429MOL0     C57826   4.624  10.765   8.301  0.1540 -0.1868  0.4244
  429MOL0     O57827   4.447  10.543   8.111  0.0585 -0.3874  0.2307
  429MOL0     C57828   4.274  10.362   8.199 -0.2667 -0.2781 -0.8223
  429MOL0     C57829   4.180  10.261   8.246 -0.1450  0.2019 -0.1354
  429MOL0     N57830   3.892   9.678   8.712  0.0129 -0.0956  0.9850
  429MOL0     N57831   3.899   9.636   8.829  0.2073  0.5191 -0.1249
  429MOL0     C57832   3.300  10.023   8.528 -0.2375  0.0241 -0.7540
  429MOL0     C57833   3.273  10.106   8.423 -0.7816  0.5287  0.1933
  429MOL0     C57834   3.176  10.320   8.030 -0.4181  0.3262 -0.8883
  429MOL0     C57835   3.232  10.276   7.912  0.0241  0.7828 -0.6781
  429MOL0     C57836   3.210  10.338   7.788  0.2987  0.4992 -0.9945
  429MOL0     C57837   3.130  10.452   7.785 -0.0766  0.2836 -1.7673
  429MOL0     O57838   3.121  10.519   7.669 -0.1523 -0.0307  0.0523
  429MOL0     C57839   2.997  10.592   7.657 -0.1791  0.9737 -0.2444
  429MOL0     C57840   2.967  10.602   7.511 -0.0412 -0.7802 -0.7642
  429MOL0     C57841   3.075  10.679   7.429  0.6105 -0.6358  0.1275
  429MOL0     C57842   3.026  10.730   7.294  0.4222  0.5547  0.0890
  429MOL0     C57843   2.969  10.619   7.218 -0.8385  0.4572  0.5169
  429MOL0     C57844   2.919  10.533   7.149 -0.1829 -0.0729  0.1200
  429MOL0     C57845   3.074  10.503   7.907 -0.1861 -0.3313  0.0251
  429MOL0     C57846   3.087  10.432   8.031 -0.0460  0.0214  0.7082
  429MOL0     C57847   3.018  10.488   8.149 -0.4525  0.5959 -0.3872
  429MOL0     H57848   3.357   9.891   8.174 -1.7878 -1.3511 -0.3678
  429MOL0     H57849   3.409   9.742   8.372  3.7787  0.7896  4.3851
  429MOL0     H57850   3.262   9.659   8.539  0.7201  0.3940 -1.3110
  429MOL0     H57851   3.430   9.636   8.591  0.0783  0.0951 -2.1592
  429MOL0     H57852   3.277   9.510   8.743  0.3407 -0.1295 -0.9281
  429MOL0     H57853   3.195   9.659   8.794 -0.2758 -3.2378  4.6584
  429MOL0     H57854   3.368   9.746   8.911  1.2034  0.9326 -2.8427
  429MOL0     H57855   3.488   9.684   8.815 -1.8904  1.2679 -4.4874
  429MOL0     H57856   3.308   9.485   8.976  1.0412  0.1001  0.6349
  429MOL0     H57857   3.458   9.441   8.892 -0.9839 -0.3553 -1.6947
  429MOL0     H57858   3.445   9.623   9.129  1.1513  0.1200  0.6823
  429MOL0     H57859   3.473   9.451   9.141  1.3534  1.7196  2.2217
  429MOL0     H57860   3.702   9.498   9.102  0.0387  0.2728  0.3106
  429MOL0     H57861   3.658   9.559   8.943  0.7421 -0.9953 -0.7806
  429MOL0     H57862   3.671   9.719   9.203 -3.1731  1.5479 -1.1316
  429MOL0     H57863   3.624   9.791   9.049  1.4027  0.5551 -0.7377
  429MOL0     H57864   3.866   9.830   9.108 -0.2466 -0.3880  2.0050
  429MOL0     H57865   3.899   9.663   9.096  0.3875  0.7423 -0.7665
  429MOL0     H57866   3.732   9.916   8.859  1.1794  1.9009  0.0128
  429MOL0     H57867   3.775   9.788   8.504  0.0721  0.3404 -0.6216
  429MOL0     H57868   3.679   9.899   8.597 -0.8701 -2.6957  2.2076
  429MOL0     H57869   3.881  10.034   8.633  2.3919 -1.7804  1.7810
  429MOL0     H57870   3.980   9.932   8.545  0.2520  0.2445 -2.2156
  429MOL0     H57871   3.756  10.100   8.425  0.0401  1.0604  2.1452
  429MOL0     H57872   3.819   9.948   8.337 -1.1854  2.0887 -2.0003
  429MOL0     H57873   3.907  10.149   8.237 -1.1062  3.5115  1.8159
  429MOL0     H57874   4.034  10.035   8.297 -0.0226  2.0858 -4.2169
  429MOL0     H57875   4.050  10.451   8.499  0.2632  0.7304  0.3582
  429MOL0     H57876   4.185  10.616   8.409  1.3334  1.0775 -1.2302
  429MOL0     H57877   4.416  10.899   8.068 -0.7543 -1.1067 -0.7367
  429MOL0     H57878   4.623  11.039   8.027  0.8006 -0.4710 -0.0739
  429MOL0     H57879   4.842  11.155   8.304 -1.8107 -2.1916 -0.3093
  429MOL0     H57880   4.987  11.071   8.275  0.3452 -1.8481 -3.5619
  429MOL0     H57881   4.988  11.237   8.064 -0.5254 -1.9762 -0.3598
  429MOL0     H57882   4.845  11.301   8.144  0.3933 -1.5046 -0.0547
  429MOL0     H57883   4.940  11.390   8.334 -1.0702 -2.9711  1.4214
  429MOL0     H57884   5.092  11.304   8.327  0.9642  2.0100 -1.4749
  429MOL0     H57885   5.039  11.477   8.102 -2.7693 -1.2729  0.6908
  429MOL0     H57886   5.186  11.466   8.197 -0.7578 -1.1142  1.3720
  429MOL0     H57887   5.100  11.597   8.369  1.5769  1.7272 -0.9406
  429MOL0     H57888   4.931  11.604   8.295  0.2253  2.0015 -2.5039
  429MOL0     H57889   5.091  11.697   8.090  0.5760  2.4895 -0.3856
  429MOL0     H57890   4.943  11.753   8.164  1.1528  0.5975 -4.0655
  429MOL0     H57891   5.167  11.906   8.186  0.1313  2.3996  1.9760
  429MOL0     H57892   5.209  11.794   8.327 -1.3807 -0.6424  0.9916
  429MOL0     H57893   4.962  11.857   8.403  2.6052 -0.0966  3.2396
  429MOL0     H57894   5.087  11.961   8.426 -0.5719  2.4067 -0.1963
  429MOL0     H57895   4.833  10.834   8.320  0.4842 -1.0323 -0.1921
  429MOL0     H57896   4.639  10.686   8.375 -0.2763 -1.2935 -0.6437
  429MOL0     H57897   4.324  10.334   8.106  0.4385  0.1135 -0.5620
  429MOL0     H57898   4.166  10.170   8.187  1.3404 -0.4099  0.4038
  429MOL0     H57899   3.285  10.064   8.627  2.5389  1.2375 -0.7570
  429MOL0     H57900   3.265  10.212   8.441  1.6008  1.0804 -1.4340
  429MOL0     H57901   3.303  10.195   7.897  1.4381  1.4882  1.7439
  429MOL0     H57902   3.257  10.292   7.702 -0.3497  0.4065 -1.3022
  429MOL0     H57903   3.012  10.687   7.709 -0.6657  0.0639  1.6550
  429MOL0     H57904   2.911  10.557   7.716  0.9278  0.3823  1.0918
  429MOL0     H57905   2.879  10.667   7.519 -0.0524 -1.0318  3.1107
  429MOL0     H57906   2.927  10.510   7.468  0.2192 -1.1779 -0.1741
  429MOL0     H57907   3.165  10.619   7.422  0.1283 -1.2400 -1.2414
  429MOL0     H57908   3.112  10.772   7.474 -0.6471 -0.3370  0.5989
  429MOL0     H57909   2.945  10.803   7.307  0.1668  0.2122  0.4457
  429MOL0     H57910   3.101  10.780   7.233  1.6333  0.5702  1.5571
  429MOL0     H57911   2.872  10.454   7.094 -1.7463  0.7326  0.2407
  429MOL0     H57912   3.006  10.587   7.912  0.0747 -0.0432 -1.0490
  429MOL0     H57913   3.089  10.548   8.208 -2.0223 -0.1154  2.3786
  429MOL0     H57914   2.931  10.544   8.113 -2.7386 -3.0841 -1.0479
  429MOL0     H57915   2.976  10.410   8.213 -1.1074  1.5924  0.4306
  430MOL0     O57916   0.340   4.642   7.693 -0.1388 -1.0598 -0.0444
  430MOL0     C57917   0.349   4.559   7.780  0.3006 -0.9107 -0.5014
  430MOL0     O57918   0.299   4.431   7.757  0.1895 -0.1575 -0.3264
  430MOL0     C57919   0.274   4.394   7.626  0.0155 -0.2052  0.4553
  430MOL0     C57920   0.139   4.367   7.590 -0.0629  0.2620  0.3550
  430MOL0     C57921   0.114   4.316   7.469 -0.7702 -0.8620  0.4206
  430MOL0     C57922   0.217   4.293   7.377  0.0861 -1.1147 -0.9595
  430MOL0     O57923   0.204   4.274   7.243 -0.2786 -0.3117 -0.0019
  430MOL0     C57924   0.093   4.194   7.216  0.1885  0.1069  0.2072
  430MOL0     C57925   0.111   4.038   7.253  0.7204 -0.1574  0.8836
  430MOL0     C57926  -0.010   3.947   7.223 -0.2932  0.3165  0.0365
  430MOL0     C57927  -0.062   3.954   7.079  0.6123 -0.1857  0.0352
  430MOL0     C57928  -0.205   3.902   7.073  0.3503 -0.5628 -0.1538
  430MOL0     C57929  -0.239   3.878   6.930  0.9133  0.5932  0.1850
  430MOL0     C57930  -0.169   3.746   6.880  0.3371  0.1099 -0.7035
  430MOL0     C57931  -0.276   3.653   6.824 -0.0760 -0.1938 -0.5187
  430MOL0     N57932  -0.320   3.711   6.693  0.3248  0.3541 -0.2564
  430MOL0     C57933  -0.446   3.767   6.671 -0.0398 -0.0101  0.0492
  430MOL0     C57934  -0.435   3.800   6.533 -0.3003 -0.2674 -0.6341
  430MOL0     C57935  -0.546   3.886   6.468 -0.1350 -0.2921 -0.1168
  430MOL0     C57936  -0.664   3.812   6.419 -0.7450 -0.0823 -0.3980
  430MOL0     C57937  -0.738   3.887   6.309  0.4423  0.2940  0.1057
  430MOL0     C57938  -0.860   3.805   6.272  0.0695 -0.3746  0.0560
  430MOL0     O57939  -0.974   3.810   6.354  0.1765  0.2123  0.0400
  430MOL0     C57940  -1.095   3.806   6.274 -0.5211 -0.2738  0.2529
  430MOL0     C57941  -1.162   3.926   6.247  1.0954  0.3762  0.0645
  430MOL0     C57942  -1.271   3.929   6.151  0.8694 -0.2021 -0.0350
  430MOL0     C57943  -1.321   3.805   6.106 -0.0391 -1.2002 -0.1822
  430MOL0     C57944  -1.428   3.799   5.998  0.0375  0.6895  0.0437
  430MOL0     O57945  -1.478   3.671   5.964  0.1021 -0.2757  0.0055
  430MOL0     C57946  -1.593   3.646   5.891 -0.2452  1.0980  0.2893
  430MOL0     C57947  -1.605   3.523   5.830 -0.8946  0.0476 -0.1269
  430MOL0     C57948  -1.719   3.487   5.758 -0.5058 -0.9083 -1.5500
  430MOL0     C57949  -1.831   3.576   5.760  0.0655  0.5384 -0.4165
  430MOL0     O57950  -1.942   3.538   5.707  0.0409  0.1203  0.2494
  430MOL0     C57951  -1.926   3.457   5.587 -0.4439  0.1182  0.8224
  430MOL0     C57952  -2.050   3.459   5.508  0.9427  0.2146  0.1006
  430MOL0     C57953  -2.078   3.586   5.432 -0.1248  0.0713 -0.5181
  430MOL0     C57954  -2.221   3.640   5.466 -0.8819  1.7403  0.5565
  430MOL0     C57955  -2.254   3.779   5.433  0.1582 -0.1964 -0.2442
  430MOL0     C57956  -2.208   3.865   5.547  0.2730  0.0934  0.3201
  430MOL0     C57957  -2.209   4.012   5.503 -0.3201  0.2028 -0.1588
  430MOL0     C57958  -2.334   4.073   5.455  0.7753 -0.9860 -0.6683
  430MOL0    Cl57959  -2.468   4.052   5.572 -0.0960  0.9476  0.2481
  430MOL0     C57960  -1.819   3.698   5.821  0.0875  0.2368 -0.0683
  430MOL0     C57961  -1.701   3.732   5.885  0.9515 -0.4585 -0.1753
  430MOL0     O57962  -1.449   3.900   5.934  0.0369 -0.2040 -0.4774
  430MOL0     C57963  -1.253   3.684   6.141  0.1006 -0.1934  1.0516
  430MOL0     C57964  -1.136   3.687   6.210 -0.0582  0.2252  0.1519
  430MOL0     N57965  -0.307   3.778   6.478 -0.2477  0.4454 -0.0893
  430MOL0     N57966  -0.240   3.723   6.580  0.3641  0.3997 -0.1162
  430MOL0     C57967   0.349   4.309   7.414  0.0419 -0.4805  0.6195
  430MOL0     C57968   0.381   4.352   7.546  0.0264  0.0146  0.7015
  430MOL0     C57969   0.404   4.593   7.917 -0.0545 -0.2531  0.4844
  430MOL0     C57970   0.344   4.537   8.025 -0.7349  0.0243  0.2957
  430MOL0     C57971   0.397   4.560   8.154  0.7650  0.8869 -0.6861
  430MOL0     C57972   0.510   4.633   8.176  0.6322 -0.5543 -0.1543
  430MOL0     O57973   0.563   4.659   8.304 -0.0470  0.0411  1.2019
  430MOL0     C57974   0.491   4.622   8.427  0.1474  0.1206  0.8271
  430MOL0     C57975   0.560   4.684   8.550  0.8301  0.2215 -0.3952
  430MOL0     C57976   0.596   4.837   8.531 -0.3152  0.1157 -0.1265
  430MOL0     C57977   0.634   4.924   8.649 -0.7541 -0.2334 -0.3496
  430MOL0     C57978   0.757   4.882   8.704 -1.1010  1.0279 -0.2739
  430MOL0     C57979   0.862   4.840   8.737 -0.0128 -0.0165 -0.3707
  430MOL0     C57980   0.576   4.680   8.062 -0.3825 -0.0070 -0.8846
  430MOL0     C57981   0.529   4.668   7.936  0.2973  0.8257  0.1318
  430MOL0     C57982   0.608   4.736   7.821  0.7882  0.1883 -0.1885
  430MOL0     H57983   0.064   4.400   7.661 -1.7301  1.4262 -1.8275
  430MOL0     H57984   0.006   4.312   7.457 -0.9619  2.3392  0.2392
  430MOL0     H57985   0.008   4.241   7.266  0.2405 -0.6446  1.0366
  430MOL0     H57986   0.086   4.204   7.108  1.2483  0.3131  0.1487
  430MOL0     H57987   0.134   4.039   7.360 -0.3522  0.6205  1.1321
  430MOL0     H57988   0.197   4.001   7.196 -2.4610 -2.3963 -2.9910
  430MOL0     H57989  -0.094   3.965   7.292 -1.1974  0.7053 -1.1293
  430MOL0     H57990   0.018   3.843   7.244  1.7360  1.1204  1.6539
  430MOL0     H57991  -0.057   4.055   7.037  0.5430 -0.0065  0.4452
  430MOL0     H57992   0.004   3.904   7.008 -2.1613 -1.2315 -1.9613
  430MOL0     H57993  -0.208   3.807   7.127  0.6727 -0.1066  0.6896
  430MOL0     H57994  -0.265   3.977   7.127  0.5925 -2.6017  3.2242
  430MOL0     H57995  -0.348   3.874   6.932  0.8592  1.9974  1.7407
  430MOL0     H57996  -0.213   3.963   6.866  1.1096  0.8142  0.5588
  430MOL0     H57997  -0.124   3.694   6.965  1.0622  2.6589  0.5818
  430MOL0     H57998  -0.096   3.774   6.803  0.6987  3.9256  0.7896
  430MOL0     H57999  -0.233   3.554   6.812 -0.5204 -0.5679  0.7946
  430MOL0     H58000  -0.358   3.646   6.895  3.0246 -2.0843  3.2637
  430MOL0     H58001  -0.525   3.793   6.739  0.7400  0.5458  0.7624
  430MOL0     H58002  -0.585   3.965   6.534 -2.7431  0.2134 -2.0696
  430MOL0     H58003  -0.500   3.947   6.389  3.3677 -1.9964  0.4494
  430MOL0     H58004  -0.618   3.718   6.387  1.6734  1.0199 -0.3907
  430MOL0     H58005  -0.730   3.787   6.503 -0.4487  2.7593  0.7783
  430MOL0     H58006  -0.686   3.918   6.218 -1.6137 -0.0585 -1.2683
  430MOL0     H58007  -0.772   3.984   6.346 -3.7897 -0.1137 -2.0148
  430MOL0     H58008  -0.833   3.700   6.261 -0.6530 -0.5025 -0.5740
  430MOL0     H58009  -0.888   3.821   6.167 -0.0735 -3.6996 -0.5062
  430MOL0     H58010  -1.126   4.019   6.289  0.5989  2.0888 -3.0488
  430MOL0     H58011  -1.310   4.027   6.126 -4.7126 -2.5564 -2.1178
  430MOL0     H58012  -1.521   3.454   5.837 -1.5475 -0.7752 -0.3535
  430MOL0     H58013  -1.722   3.381   5.734 -0.5184 -1.8792  2.0999
  430MOL0     H58014  -1.840   3.495   5.531 -1.1360  1.4524  0.6267
  430MOL0     H58015  -1.904   3.357   5.623  1.3947  0.7050  1.4583
  430MOL0     H58016  -2.062   3.371   5.443  1.3684 -0.4442  0.9000
  430MOL0     H58017  -2.125   3.451   5.587  0.1717  2.4714 -0.3404
  430MOL0     H58018  -2.014   3.667   5.467  0.4100 -0.5390 -0.0654
  430MOL0     H58019  -2.062   3.579   5.324 -0.9277  1.5651 -0.7647
  430MOL0     H58020  -2.238   3.641   5.574  1.8221  2.6266  1.0539
  430MOL0     H58021  -2.280   3.565   5.413  1.4109 -0.2173  0.6099
  430MOL0     H58022  -2.363   3.783   5.433  0.1705  0.2829 -0.4019
  430MOL0     H58023  -2.205   3.808   5.340  0.9678 -0.9211 -0.0545
  430MOL0     H58024  -2.264   3.859   5.640  1.0324  0.2783  0.7985
  430MOL0     H58025  -2.105   3.834   5.570  0.4383 -1.0323 -1.6757
  430MOL0     H58026  -2.126   4.037   5.436 -0.6633  0.3848 -0.5110
  430MOL0     H58027  -2.185   4.069   5.594 -2.1546 -1.7180  1.6501
  430MOL0     H58028  -2.321   4.181   5.451 -0.3905 -0.6741  1.6857
  430MOL0     H58029  -2.369   4.024   5.364  2.4226 -2.2898 -0.6446
  430MOL0     H58030  -1.902   3.767   5.807 -0.8220 -1.0439 -1.3434
  430MOL0     H58031  -1.688   3.835   5.917 -0.6069 -0.7604  1.6333
  430MOL0     H58032  -1.299   3.593   6.103 -3.2072  1.4442  0.7757
  430MOL0     H58033  -1.075   3.599   6.229 -1.8120 -0.8754  0.9408
  430MOL0     H58034   0.421   4.304   7.333 -0.6220 -0.7631  0.0362
  430MOL0     H58035   0.477   4.370   7.594  0.7469 -0.3890 -0.5459
  430MOL0     H58036   0.257   4.473   8.014 -0.0872 -0.7823 -0.2739
  430MOL0     H58037   0.344   4.527   8.243 -0.6788  1.5150 -1.2833
  430MOL0     H58038   0.485   4.513   8.430  3.0193 -0.2717 -1.8054
  430MOL0     H58039   0.389   4.659   8.418 -0.1120 -0.9995 -2.4261
  430MOL0     H58040   0.651   4.625   8.564  0.8452  0.3885  0.2742
  430MOL0     H58041   0.491   4.660   8.632 -0.8993 -2.2212 -2.3927
  430MOL0     H58042   0.516   4.896   8.487  0.5789  0.7999 -0.8765
  430MOL0     H58043   0.690   4.836   8.473  1.0315  3.1837  1.7844
  430MOL0     H58044   0.648   5.026   8.611  2.9613 -0.5448 -0.1759
  430MOL0     H58045   0.555   4.929   8.724  2.0288 -0.2604  2.8678
  430MOL0     H58046   0.953   4.794   8.770 -1.9774 -4.6006 -0.6168
  430MOL0     H58047   0.674   4.716   8.094 -0.7391 -0.5208  0.8854
  430MOL0     H58048   0.694   4.674   7.794  1.8546  1.0095  1.1964
  430MOL0     H58049   0.556   4.751   7.726 -2.7472 -0.2790  1.5069
  430MOL0     H58050   0.643   4.831   7.860 -4.8746  1.5949  2.6532
  431MOL0     O58051   4.745   8.152   0.190 -0.1062  0.0937 -0.0006
  431MOL0     C58052   4.702   8.079   0.270  0.5136 -0.1122 -0.4526
  431MOL0     O58053   4.723   8.092   0.405  0.0639  0.6218 -0.0884
  431MOL0     C58054   4.803   8.192   0.456  0.5050  0.1090  1.6950
  431MOL0     C58055   4.932   8.223   0.395 -0.2770 -1.0498 -0.3484
  431MOL0     C58056   4.997   8.347   0.434  0.4393  0.5379 -0.1401
  431MOL0     C58057   4.936   8.424   0.527 -0.3310  0.0142  0.2875
  431MOL0     O58058   4.999   8.539   0.575 -0.2585 -0.3009  0.5833
  431MOL0     C58059   5.129   8.585   0.516  0.6093 -0.1632 -0.2891
  431MOL0     C58060   5.116   8.645   0.376  0.4352  0.4277 -0.4379
  431MOL0     C58061   5.259   8.658   0.331 -0.5677  0.2882 -0.0535
  431MOL0     C58062   5.290   8.765   0.211 -0.1290 -0.3668 -0.4797
  431MOL0     C58063   5.232   8.702   0.082  0.1987  0.9205 -0.1523
  431MOL0     C58064   5.193   8.806  -0.018 -0.3492  0.7544  0.6453
  431MOL0     C58065   5.295   8.882  -0.110 -0.2821  0.5564 -0.4100
  431MOL0     C58066   5.247   8.914  -0.252 -0.8127  0.7734 -0.5042
  431MOL0     N58067   5.118   8.988  -0.237  0.6453 -0.3606 -0.0190
  431MOL0     C58068   4.987   8.941  -0.249 -1.5595  0.1323  0.1499
  431MOL0     C58069   4.915   9.041  -0.200  0.6041  0.8730  0.8608
  431MOL0     C58070   4.757   9.034  -0.207  0.4179  0.4734 -0.4093
  431MOL0     C58071   4.706   9.040  -0.355 -0.6523  0.4895  0.4311
  431MOL0     C58072   4.552   9.062  -0.374 -0.1828  0.6705  0.1271
  431MOL0     C58073   4.496   9.193  -0.323  0.3790  0.7987 -0.2224
  431MOL0     O58074   4.550   9.305  -0.402 -0.4798  0.2601 -1.3208
  431MOL0     C58075   4.503   9.430  -0.363  0.5030 -0.4379  0.0963
  431MOL0     C58076   4.564   9.552  -0.416  0.5381  0.0056 -0.6302
  431MOL0     C58077   4.520   9.674  -0.377  0.6723 -0.3281 -0.0108
  431MOL0     C58078   4.409   9.695  -0.289  0.3574 -0.6388 -0.5579
  431MOL0     C58079   4.359   9.822  -0.260 -0.3400 -0.1335 -1.2747
  431MOL0     O58080   4.428   9.926  -0.277  0.6303  0.0231  0.6032
  431MOL0     C58081   4.387  10.054  -0.294  0.5370 -1.1259  0.1206
  431MOL0     C58082   4.489  10.156  -0.289 -0.1485 -0.7043  0.2059
  431MOL0     C58083   4.456  10.290  -0.306  0.2064 -0.0683  0.1455
  431MOL0     C58084   4.324  10.326  -0.336 -0.1682 -0.1467  1.0916
  431MOL0     O58085   4.293  10.455  -0.370 -0.0836  0.1461  0.5740
  431MOL0     C58086   4.167  10.515  -0.357  1.0127  0.4120  0.0296
  431MOL0     C58087   4.099  10.508  -0.219 -0.0285  0.2430  0.4653
  431MOL0     C58088   3.948  10.530  -0.215  0.4641 -0.1349  0.4044
  431MOL0     C58089   3.901  10.666  -0.279 -0.2338 -0.4470 -0.2611
  431MOL0     C58090   3.743  10.680  -0.266 -0.9121  0.5391 -0.4790
  431MOL0     C58091   3.672  10.778  -0.361 -0.5182  0.5222 -0.0413
  431MOL0     C58092   3.520  10.812  -0.322  0.4667  0.1030 -0.0710
  431MOL0     C58093   3.454  10.912  -0.424 -0.5330  0.2018 -0.8346
  431MOL0    Cl58094   3.455  10.865  -0.598 -0.2735  0.4581 -0.6848
  431MOL0     C58095   4.226  10.226  -0.347  0.3427 -0.4886 -0.4733
  431MOL0     C58096   4.259  10.100  -0.326  0.3417  0.6792 -0.4677
  431MOL0     O58097   4.246   9.823  -0.221 -0.3039  0.8804 -0.1467
  431MOL0     C58098   4.355   9.576  -0.227  0.1361  0.5794 -0.5989
  431MOL0     C58099   4.395   9.447  -0.266  0.2152  0.4033 -0.4412
  431MOL0     N58100   4.987   9.151  -0.169  0.4416 -0.6199 -0.0235
  431MOL0     N58101   5.101   9.120  -0.196 -0.0775  0.5183 -0.2501
  431MOL0     C58102   4.823   8.382   0.588  0.2856 -0.1843  0.0858
  431MOL0     C58103   4.750   8.276   0.550 -0.2879 -0.0432  0.3900
  431MOL0     C58104   4.624   7.964   0.232  0.2071  0.2719 -0.1843
  431MOL0     C58105   4.627   7.844   0.307  0.2798  0.5247 -0.3540
  431MOL0     C58106   4.544   7.737   0.273 -0.1476 -0.2006 -0.7271
  431MOL0     C58107   4.465   7.739   0.161  0.6849  0.5842 -0.0643
  431MOL0     O58108   4.385   7.635   0.128 -0.3170  0.8088  0.2120
  431MOL0     C58109   4.410   7.581  -0.002 -0.6247 -0.2208  0.0617
  431MOL0     C58110   4.504   7.459   0.029  0.3421  0.1587  0.8748
  431MOL0     C58111   4.504   7.368  -0.099 -0.0745  0.7148 -0.1528
  431MOL0     C58112   4.394   7.254  -0.101  0.5235 -0.4995  0.2316
  431MOL0     C58113   4.423   7.157  -0.206  0.2962 -0.6390  0.1765
  431MOL0     C58114   4.441   7.082  -0.295  0.4917  0.1563 -0.5272
  431MOL0     C58115   4.465   7.852   0.082 -1.2287  0.0708  0.6253
  431MOL0     C58116   4.543   7.963   0.117 -0.7928 -0.5934 -0.4472
  431MOL0     C58117   4.515   8.080   0.029  0.6723 -0.6505 -0.7953
  431MOL0     H58118   4.989   8.162   0.326 -0.0322 -2.7907  1.3122
  431MOL0     H58119   5.092   8.378   0.393  0.5936 -2.1833 -2.1145
  431MOL0     H58120   5.169   8.666   0.577 -1.1867  0.9011 -0.4607
  431MOL0     H58121   5.210   8.511   0.513  3.1213  2.2762  1.6336
  431MOL0     H58122   5.071   8.745   0.386  0.6292  0.3508  1.6216
  431MOL0     H58123   5.042   8.590   0.318 -1.2099  0.7665  1.2395
  431MOL0     H58124   5.287   8.553   0.313 -3.0510 -0.5428  0.5428
  431MOL0     H58125   5.329   8.687   0.409  2.8751  2.9693 -3.7178
  431MOL0     H58126   5.241   8.860   0.232 -1.8769 -1.1258 -0.9371
  431MOL0     H58127   5.398   8.780   0.202  0.0986 -0.6921  1.3183
  431MOL0     H58128   5.323   8.649   0.050 -0.9681 -0.0358 -2.0229
  431MOL0     H58129   5.151   8.635   0.112  1.2092  0.2118  1.1024
  431MOL0     H58130   5.137   8.744  -0.088 -2.3163  1.6745  1.3330
  431MOL0     H58131   5.118   8.873   0.024  0.2910  0.4015  2.4619
  431MOL0     H58132   5.381   8.816  -0.122  0.4967  1.6756 -1.2570
  431MOL0     H58133   5.335   8.971  -0.060  0.3246  0.4922 -0.7744
  431MOL0     H58134   5.316   8.982  -0.303 -0.1295  1.7901  1.6185
  431MOL0     H58135   5.228   8.819  -0.303  3.5745 -0.6098  0.0487
  431MOL0     H58136   4.949   8.847  -0.290 -1.5459 -1.1580  2.8448
  431MOL0     H58137   4.724   8.942  -0.158  2.3383 -0.7981 -1.3746
  431MOL0     H58138   4.715   9.113  -0.145 -0.2912 -0.0995 -0.1409
  431MOL0     H58139   4.772   9.111  -0.406  1.5504 -2.8908 -1.7863
  431MOL0     H58140   4.730   8.943  -0.398 -2.1732 -0.3263  1.3438
  431MOL0     H58141   4.513   8.986  -0.306  0.8497  0.8562  0.9594
  431MOL0     H58142   4.531   9.045  -0.480  1.2982 -0.5973 -0.0153
  431MOL0     H58143   4.528   9.200  -0.219  0.3002 -4.2870  0.4074
  431MOL0     H58144   4.387   9.196  -0.331  0.3076  4.3391  0.4679
  431MOL0     H58145   4.650   9.550  -0.482 -0.1574  2.1806 -1.6876
  431MOL0     H58146   4.562   9.765  -0.419 -0.9126  0.4097 -0.0492
  431MOL0     H58147   4.594  10.137  -0.271  1.3905  4.0928 -2.1280
  431MOL0     H58148   4.520  10.378  -0.311  0.1215 -0.0634 -1.4072
  431MOL0     H58149   4.167  10.622  -0.380 -1.6276 -0.0723 -2.8364
  431MOL0     H58150   4.105  10.464  -0.431  1.0887 -0.9227  0.8493
  431MOL0     H58151   4.113  10.406  -0.180  2.0739 -0.3018 -1.4454
  431MOL0     H58152   4.158  10.574  -0.154  0.4313 -1.7604  2.2154
  431MOL0     H58153   3.896  10.453  -0.273  0.2884  1.2046 -1.3138
  431MOL0     H58154   3.908  10.512  -0.115 -1.6126  1.1603 -0.1231
  431MOL0     H58155   3.939  10.672  -0.382  0.0782  1.0528 -0.0913
  431MOL0     H58156   3.935  10.756  -0.226 -1.5236 -0.8249  1.2642
  431MOL0     H58157   3.735  10.705  -0.160  1.2837  1.3795 -0.4677
  431MOL0     H58158   3.709  10.577  -0.276 -2.5193  0.9183  0.5843
  431MOL0     H58159   3.731  10.870  -0.350  1.5314 -0.8752  1.4667
  431MOL0     H58160   3.687  10.747  -0.465 -0.2247 -0.2535  0.2226
  431MOL0     H58161   3.517  10.835  -0.216 -1.1647 -1.3647  0.2442
  431MOL0     H58162   3.460  10.721  -0.333 -1.4262  1.3418 -0.5318
  431MOL0     H58163   3.351  10.920  -0.390 -0.7082 -0.0672 -1.2873
  431MOL0     H58164   3.506  11.008  -0.413  0.8320  0.0748 -4.6149
  431MOL0     H58165   4.126  10.251  -0.378 -1.0978  1.3224  4.6197
  431MOL0     H58166   4.174  10.033  -0.333 -0.4601  1.7523 -1.4174
  431MOL0     H58167   4.276   9.591  -0.154  1.6382 -0.2381  1.3000
  431MOL0     H58168   4.340   9.365  -0.220  1.7114 -1.7930 -2.3467
  431MOL0     H58169   4.806   8.447   0.673  1.3627  0.6730 -0.3286
  431MOL0     H58170   4.653   8.263   0.597 -0.1955  2.1754  1.3070
  431MOL0     H58171   4.689   7.846   0.396 -1.2395 -0.8222  0.7981
  431MOL0     H58172   4.545   7.642   0.325  1.6299  0.7057  1.0191
  431MOL0     H58173   4.461   7.643  -0.077 -0.7838  0.9881  0.9200
  431MOL0     H58174   4.316   7.556  -0.050  0.7243 -0.9951 -2.3342
  431MOL0     H58175   4.466   7.418   0.123 -1.1498 -0.5624 -0.0102
  431MOL0     H58176   4.601   7.494   0.064 -0.4748  2.8823  0.6112
  431MOL0     H58177   4.606   7.328  -0.108  0.6427  2.1410  1.1197
  431MOL0     H58178   4.501   7.426  -0.192 -0.2126  0.2089 -0.4656
  431MOL0     H58179   4.391   7.211  -0.001 -2.7851  2.7173  1.7290
  431MOL0     H58180   4.290   7.278  -0.126  0.5100 -1.6715 -0.9880
  431MOL0     H58181   4.433   7.035  -0.391 -0.6976 -0.5062 -0.1237
  431MOL0     H58182   4.408   7.854  -0.010  1.8438  1.0195 -1.4291
  431MOL0     H58183   4.428   8.077  -0.036  0.9628  2.7391 -1.5283
  431MOL0     H58184   4.509   8.177   0.081 -3.1735 -1.3944  0.4663
  431MOL0     H58185   4.608   8.094  -0.026  2.1754 -0.2666  1.6765
  432MOL0     O58186   6.875   3.952  10.619 -0.1272 -0.9837 -0.1337
  432MOL0     C58187   6.976   4.019  10.599 -1.2402 -0.0547  0.1455
  432MOL0     O58188   7.045   4.085  10.699  0.3929  0.1751  0.1980
  432MOL0     C58189   7.013   4.057  10.831 -0.0134  0.1935  0.8836
  432MOL0     C58190   7.053   3.937  10.880 -1.0352 -0.1780 -0.2826
  432MOL0     C58191   7.026   3.904  11.009 -0.1070 -0.0292 -0.7688
  432MOL0     C58192   6.948   3.989  11.094  0.4022 -0.9397  0.5117
  432MOL0     O58193   6.914   3.941  11.217 -0.2247  0.3014 -0.4843
  432MOL0     C58194   6.869   4.017  11.333 -0.5857 -0.6039  0.7745
  432MOL0     C58195   6.984   4.115  11.383 -0.7125 -0.1754  1.2040
  432MOL0     C58196   7.117   4.034  11.399  0.0117 -0.1442 -0.3781
  432MOL0     C58197   7.235   4.136  11.424 -0.7196  0.5199 -0.4885
  432MOL0     C58198   7.209   4.235  11.541  0.1936 -0.2933  0.8980
  432MOL0     C58199   7.324   4.338  11.544 -0.2394  0.3781  0.5002
  432MOL0     C58200   7.300   4.471  11.473 -0.0305 -0.1203 -0.1377
  432MOL0     C58201   7.223   4.575  11.551  0.5444 -0.0346 -0.3809
  432MOL0     N58202   7.085   4.529  11.573 -0.0640  0.7125 -0.6495
  432MOL0     C58203   6.981   4.527  11.484 -0.4568  0.6716 -0.1197
  432MOL0     C58204   6.874   4.478  11.542  0.3938  1.0309 -0.5985
  432MOL0     C58205   6.739   4.457  11.466 -0.6226 -0.5208 -0.0863
  432MOL0     C58206   6.695   4.594  11.421 -0.2174  0.3694 -0.3778
  432MOL0     C58207   6.602   4.594  11.302  0.4221  0.6139  0.4028
  432MOL0     C58208   6.668   4.628  11.163 -0.0840  0.3414  0.3729
  432MOL0     O58209   6.784   4.551  11.134  0.3808  0.1374  0.7394
  432MOL0     C58210   6.828   4.576  11.005 -0.0370 -0.1252 -0.2721
  432MOL0     C58211   6.775   4.659  10.908 -0.3065  0.1332  0.0631
  432MOL0     C58212   6.817   4.666  10.776  0.5889 -0.0390 -0.2202
  432MOL0     C58213   6.931   4.596  10.738 -0.5455  0.0762 -1.6497
  432MOL0     C58214   6.982   4.604  10.599  0.7121 -0.5572 -0.1503
  432MOL0     O58215   7.090   4.526  10.571  0.2879 -0.2997 -0.0139
  432MOL0     C58216   7.117   4.501  10.440  0.2766 -0.4000 -0.6887
  432MOL0     C58217   7.238   4.549  10.390 -0.1669  0.6307 -0.3917
  432MOL0     C58218   7.289   4.517  10.261 -0.5146  0.5989 -0.0209
  432MOL0     C58219   7.208   4.454  10.172 -0.4215  1.0724 -0.0169
  432MOL0     O58220   7.233   4.441  10.039 -0.0859 -0.4304  0.2072
  432MOL0     C58221   7.336   4.527   9.978 -0.0213  0.9494 -0.4837
  432MOL0     C58222   7.313   4.525   9.833  0.4791  0.5648 -0.7712
  432MOL0     C58223   7.330   4.663   9.771  0.2308 -0.3757  0.7096
  432MOL0     C58224   7.285   4.669   9.629 -0.1937 -0.3787  0.1137
  432MOL0     C58225   7.328   4.801   9.564  0.4155  1.2654  0.7599
  432MOL0     C58226   7.241   4.920   9.598 -0.5830  0.7478  0.8654
  432MOL0     C58227   7.315   5.050   9.574  0.8537 -0.2287 -0.2304
  432MOL0     C58228   7.239   5.180   9.606  0.9583 -0.2998 -0.0611
  432MOL0    Cl58229   7.207   5.222   9.780 -0.0074  0.0940  0.1013
  432MOL0     C58230   7.080   4.410  10.217  0.1994  0.5908 -0.4924
  432MOL0     C58231   7.041   4.429  10.349  0.2832 -0.6271  0.0435
  432MOL0     O58232   6.942   4.695  10.526 -0.5126  0.3435 -0.0267
  432MOL0     C58233   6.991   4.519  10.836  0.2875  0.3504 -0.3403
  432MOL0     C58234   6.939   4.507  10.967  0.1960  0.7092  0.9038
  432MOL0     N58235   6.910   4.446  11.670 -0.1286  1.1241 -0.2431
  432MOL0     N58236   7.033   4.479  11.687  0.0049  0.0921  0.1471
  432MOL0     C58237   6.917   4.121  11.048 -0.6772 -0.1069 -0.3464
  432MOL0     C58238   6.955   4.150  10.913  0.0991  0.2053  0.2158
  432MOL0     C58239   7.025   4.041  10.458 -0.5255 -0.6918 -0.5920
  432MOL0     C58240   6.943   3.999  10.351  0.1776 -0.1127  0.4545
  432MOL0     C58241   6.955   4.015  10.217 -0.5507  0.4294 -0.5150
  432MOL0     C58242   7.077   4.067  10.175 -0.5763  0.4913 -0.2123
  432MOL0     O58243   7.096   4.090  10.045 -0.5468 -0.2437 -0.1443
  432MOL0     C58244   7.235   4.111  10.010  0.2258 -0.1800 -0.1613
  432MOL0     C58245   7.252   4.120   9.866 -0.5620  0.6250  0.1027
  432MOL0     C58246   7.402   4.109   9.810 -0.1646  0.2279  0.2848
  432MOL0     C58247   7.509   4.187   9.892 -0.2108  0.5464  0.4759
  432MOL0     C58248   7.629   4.209   9.807  0.4121 -0.8838  0.3464
  432MOL0     C58249   7.728   4.230   9.740 -0.0326  0.2128  1.1528
  432MOL0     C58250   7.171   4.095  10.280 -0.1680 -0.8853 -0.0882
  432MOL0     C58251   7.148   4.089  10.419  0.0463 -0.8341  0.4348
  432MOL0     C58252   7.257   4.149  10.499  1.1484  0.7716  0.1402
  432MOL0     H58253   7.106   3.870  10.812  1.4071 -0.3913  1.6660
  432MOL0     H58254   7.073   3.814  11.048 -2.0105  0.0484  2.0572
  432MOL0     H58255   6.786   4.078  11.298 -1.1847 -2.5320 -1.3850
  432MOL0     H58256   6.844   3.949  11.415 -1.6914  0.1771  1.0934
  432MOL0     H58257   6.961   4.176  11.470 -0.0309  0.3707  1.0134
  432MOL0     H58258   7.002   4.189  11.303 -3.2790 -0.5549  0.1775
  432MOL0     H58259   7.138   3.978  11.308  0.2186 -3.1581  1.3762
  432MOL0     H58260   7.112   3.959  11.478 -2.8977  0.1664 -0.1515
  432MOL0     H58261   7.322   4.075  11.450 -1.2903 -1.7813 -3.4493
  432MOL0     H58262   7.257   4.186  11.329 -0.9248 -1.6707 -1.7469
  432MOL0     H58263   7.117   4.292  11.526 -1.5846 -3.6554 -2.2873
  432MOL0     H58264   7.210   4.183  11.637  2.4513 -0.1286  1.0339
  432MOL0     H58265   7.347   4.357  11.649 -1.7559  1.5746  0.6440
  432MOL0     H58266   7.414   4.289  11.505 -0.7473  0.7908 -1.3024
  432MOL0     H58267   7.257   4.456  11.374  0.3450 -1.5752 -0.0980
  432MOL0     H58268   7.400   4.511  11.451  0.7465 -0.9911  1.6175
  432MOL0     H58269   7.277   4.588  11.645  0.3958  3.2280 -0.6196
  432MOL0     H58270   7.229   4.674  11.504  1.3261  1.9974  3.5968
  432MOL0     H58271   7.003   4.558  11.382 -0.9423  1.4007 -0.0124
  432MOL0     H58272   6.747   4.393  11.378  0.6494 -2.3772  1.3003
  432MOL0     H58273   6.658   4.407  11.520 -0.7130 -3.6863 -2.7985
  432MOL0     H58274   6.635   4.641  11.499  1.2929 -0.9995  1.7133
  432MOL0     H58275   6.776   4.667  11.410  0.7017 -0.2495  1.6907
  432MOL0     H58276   6.514   4.657  11.320 -0.2654 -0.3904  0.6564
  432MOL0     H58277   6.552   4.496  11.302 -2.3090  1.8941 -0.4377
  432MOL0     H58278   6.694   4.734  11.166  3.5584 -0.4103 -0.2510
  432MOL0     H58279   6.585   4.607  11.095 -1.2471  0.7002  1.6312
  432MOL0     H58280   6.697   4.733  10.925  0.6961  1.3587 -0.4692
  432MOL0     H58281   6.761   4.728  10.708  1.1957  1.0455  0.2296
  432MOL0     H58282   7.302   4.599  10.462 -0.8838 -3.6288  3.7446
  432MOL0     H58283   7.390   4.555  10.244 -0.7103  1.6730  1.0948
  432MOL0     H58284   7.322   4.630  10.010 -1.5494  0.3821  0.8199
  432MOL0     H58285   7.438   4.504  10.008 -0.2619 -0.0048 -0.3672
  432MOL0     H58286   7.378   4.460   9.773 -2.1601 -1.6150 -1.4781
  432MOL0     H58287   7.212   4.492   9.809 -0.1145  1.0661  0.9296
  432MOL0     H58288   7.273   4.735   9.832  0.2873 -0.9356  1.4335
  432MOL0     H58289   7.428   4.710   9.781 -0.3823  1.7129 -1.8779
  432MOL0     H58290   7.176   4.658   9.621 -0.3885  1.6036 -0.4172
  432MOL0     H58291   7.339   4.588   9.580  0.0382 -0.2910  0.2232
  432MOL0     H58292   7.331   4.795   9.454 -0.5671  0.4208  0.7651
  432MOL0     H58293   7.425   4.825   9.607  0.5234  1.8705  0.2075
  432MOL0     H58294   7.152   4.914   9.534 -0.5520  1.2891  0.7682
  432MOL0     H58295   7.212   4.914   9.704 -0.6952 -0.3124  0.7818
  432MOL0     H58296   7.335   5.060   9.467 -0.4047  0.2510 -0.4322
  432MOL0     H58297   7.410   5.051   9.627  2.3259  1.3061 -2.7193
  432MOL0     H58298   7.304   5.262   9.573  0.4480  0.7095  1.3390
  432MOL0     H58299   7.139   5.188   9.563 -0.0817  1.9942  2.4394
  432MOL0     H58300   7.009   4.351  10.161 -0.7002  0.1339  1.0635
  432MOL0     H58301   6.942   4.388  10.367 -1.8996  3.5017 -1.2155
  432MOL0     H58302   7.070   4.449  10.810  2.0000  0.6869  3.3027
  432MOL0     H58303   6.969   4.449  11.054 -1.5283  3.5815  3.6482
  432MOL0     H58304   6.855   4.184  11.110 -1.7532 -2.7150  1.4267
  432MOL0     H58305   6.917   4.233  10.856 -0.5041 -1.6844 -2.3253
  432MOL0     H58306   6.847   3.963  10.386 -0.6054  0.7128 -0.7776
  432MOL0     H58307   6.890   3.975  10.139  1.1769 -3.5423 -0.1705
  432MOL0     H58308   7.306   4.048  10.065 -1.3644 -1.2485  0.7423
  432MOL0     H58309   7.267   4.208  10.047  3.5787 -0.2178 -2.5466
  432MOL0     H58310   7.197   4.208   9.834  1.8806  2.2786  0.2315
  432MOL0     H58311   7.196   4.034   9.829 -1.3959  1.9278 -1.7747
  432MOL0     H58312   7.399   4.164   9.716  1.0538 -1.4244 -0.7663
  432MOL0     H58313   7.433   4.004   9.810  2.0361  0.8207  0.4892
  432MOL0     H58314   7.464   4.276   9.936 -1.8761 -0.4014  0.7848
  432MOL0     H58315   7.543   4.128   9.978 -0.6287  1.0937  1.0225
  432MOL0     H58316   7.821   4.244   9.690  0.4034  2.3248  2.4708
  432MOL0     H58317   7.269   4.131  10.250  0.1190  1.5313  3.1694
  432MOL0     H58318   7.340   4.176  10.433 -0.1498  1.4078 -1.3015
  432MOL0     H58319   7.223   4.238  10.553 -0.3092 -0.8109  1.9602
  432MOL0     H58320   7.289   4.064  10.559 -1.5919  0.3923  1.2298
  433MOL0     O58321   5.777   0.832   7.608 -0.0531  0.3932  0.9623
  433MOL0     C58322   5.812   0.859   7.723  0.0410  0.8972 -0.3907
  433MOL0     O58323   5.738   0.862   7.837  0.3054 -0.2935  0.5564
  433MOL0     C58324   5.606   0.863   7.837  0.6096 -0.6318 -0.8485
  433MOL0     C58325   5.523   0.893   7.730 -0.6069  0.2862 -0.4841
  433MOL0     C58326   5.381   0.900   7.736  0.1197 -0.1113 -0.3230
  433MOL0     C58327   5.320   0.883   7.862  0.2288 -1.2709  0.2439
  433MOL0     O58328   5.181   0.891   7.872 -0.1901 -0.4479  0.3336
  433MOL0     C58329   5.123   0.871   8.002  0.6943  0.3920  0.5252
  433MOL0     C58330   4.972   0.870   7.979  0.7472  0.2893 -0.0338
  433MOL0     C58331   4.927   0.756   7.901  0.1591 -0.0934 -0.0420
  433MOL0     C58332   4.778   0.734   7.894 -0.1058 -0.4922  0.6422
  433MOL0     C58333   4.737   0.639   7.776 -0.6431  0.2512 -0.2400
  433MOL0     C58334   4.593   0.616   7.779 -0.4204  0.6777  0.0438
  433MOL0     C58335   4.549   0.542   7.644 -0.0761  0.0096  0.4131
  433MOL0     C58336   4.545   0.629   7.512 -0.0882 -1.0215  1.0449
  433MOL0     N58337   4.533   0.547   7.386  0.7240  0.2408  0.2102
  433MOL0     C58338   4.412   0.528   7.330 -0.7597 -0.3426 -0.5282
  433MOL0     C58339   4.429   0.457   7.222 -0.4209 -0.2798 -0.2042
  433MOL0     C58340   4.323   0.418   7.122 -0.0637 -0.1267 -0.5989
  433MOL0     C58341   4.344   0.486   6.992 -0.0874  0.7626  0.0595
  433MOL0     C58342   4.263   0.415   6.885  0.4064  0.4480 -0.3410
  433MOL0     C58343   4.318   0.275   6.861  0.2480  0.2957 -0.8630
  433MOL0     O58344   4.251   0.225   6.747  0.0170  0.0851  0.5922
  433MOL0     C58345   4.291   0.106   6.690 -0.1930 -0.7270 -0.4803
  433MOL0     C58346   4.238   0.066   6.570  0.4357  0.8855  0.1784
  433MOL0     C58347   4.276  -0.054   6.507 -0.3883  0.6498  0.0628
  433MOL0     C58348   4.364  -0.144   6.574 -0.3607 -0.3570  0.2996
  433MOL0     C58349   4.394  -0.285   6.536 -0.6902  0.9995 -0.0642
  433MOL0     O58350   4.446  -0.368   6.633 -0.9273  0.4892 -0.2402
  433MOL0     C58351   4.517  -0.483   6.610 -0.0802  0.3750 -0.0406
  433MOL0     C58352   4.566  -0.527   6.493 -0.2585 -0.8273 -0.2598
  433MOL0     C58353   4.632  -0.650   6.487 -0.2627  0.2479 -0.1154
  433MOL0     C58354   4.659  -0.732   6.604 -0.3211 -0.2121 -0.3730
  433MOL0     O58355   4.722  -0.852   6.578  0.0941 -0.3994  0.3247
  433MOL0     C58356   4.770  -0.930   6.691 -0.0279 -0.6876  0.3369
  433MOL0     C58357   4.892  -1.017   6.665  0.4675  0.3918  0.5059
  433MOL0     C58358   5.016  -0.936   6.633  0.0090 -0.1320  0.0634
  433MOL0     C58359   5.099  -0.892   6.752  0.1862 -1.3636 -0.0656
  433MOL0     C58360   5.029  -0.774   6.835  0.1887  1.0390  0.0835
  433MOL0     C58361   5.116  -0.731   6.944 -0.2651  0.4800  0.0039
  433MOL0     C58362   5.114  -0.825   7.064 -0.0291 -0.5309  0.0568
  433MOL0     C58363   5.192  -0.765   7.174  1.3285 -0.7967  0.3373
  433MOL0    Cl58364   5.157  -0.847   7.336  0.1790 -0.2496  0.3017
  433MOL0     C58365   4.591  -0.691   6.728 -0.1090  0.4913  0.1818
  433MOL0     C58366   4.533  -0.563   6.723  1.2431  0.3220 -0.1391
  433MOL0     O58367   4.349  -0.328   6.429 -0.2822 -0.1337 -0.2037
  433MOL0     C58368   4.434  -0.096   6.682 -0.1236 -0.6126  0.3741
  433MOL0     C58369   4.405   0.029   6.735 -0.5951 -0.4162  0.2641
  433MOL0     N58370   4.564   0.434   7.207 -0.5724  0.2378  0.1705
  433MOL0     N58371   4.623   0.493   7.300  0.2975 -0.4948 -0.5175
  433MOL0     C58372   5.402   0.861   7.974  0.3031  0.4912  0.1154
  433MOL0     C58373   5.539   0.851   7.965 -1.0219 -0.1212  0.3569
  433MOL0     C58374   5.964   0.878   7.748 -0.1632  0.0412  0.1746
  433MOL0     C58375   6.068   0.819   7.663 -0.4670 -0.0345 -0.2542
  433MOL0     C58376   6.201   0.839   7.684 -0.0383 -0.3969  0.2037
  433MOL0     C58377   6.241   0.928   7.781  0.3015  0.0706  0.5670
  433MOL0     O58378   6.374   0.954   7.783  0.7848 -0.3449  0.4780
  433MOL0     C58379   6.437   0.967   7.914  0.0552  0.7371  1.0577
  433MOL0     C58380   6.412   0.845   7.993 -0.6215 -0.0994 -0.9361
  433MOL0     C58381   6.510   0.819   8.116 -0.5663  0.4838 -0.1073
  433MOL0     C58382   6.648   0.758   8.077  0.8562 -0.2411 -0.2581
  433MOL0     C58383   6.742   0.880   8.062  0.6924  0.5891  0.9948
  433MOL0     C58384   6.812   0.972   8.045 -0.8051 -0.7921  0.5555
  433MOL0     C58385   6.147   0.994   7.851 -0.3790 -0.3257  0.4790
  433MOL0     C58386   6.012   0.976   7.839 -0.2222 -0.0789  0.0372
  433MOL0     C58387   5.926   1.073   7.928  0.0017  0.4763  1.1268
  433MOL0     H58388   5.554   0.914   7.628  0.1287  4.2919  0.3573
  433MOL0     H58389   5.322   0.923   7.648  0.1269 -0.9050 -0.5376
  433MOL0     H58390   5.143   0.774   8.047 -4.3520 -1.0919  0.1182
  433MOL0     H58391   5.154   0.950   8.072 -1.0013  0.9098  0.7400
  433MOL0     H58392   4.941   0.963   7.931 -1.5007 -1.1280 -1.5436
  433MOL0     H58393   4.919   0.868   8.075  2.3465 -1.2956  0.8803
  433MOL0     H58394   4.964   0.667   7.952  1.5601  1.0089  0.9177
  433MOL0     H58395   4.974   0.767   7.803  1.4314  2.8006  0.7948
  433MOL0     H58396   4.726   0.699   7.984 -0.1017  0.0055  0.8393
  433MOL0     H58397   4.729   0.823   7.853 -0.1559 -0.2615  1.1916
  433MOL0     H58398   4.756   0.694   7.683  0.1964  2.9014  1.3704
  433MOL0     H58399   4.800   0.550   7.788  0.0429  0.5874 -1.1550
  433MOL0     H58400   4.563   0.566   7.872  1.8025  2.5778  1.9030
  433MOL0     H58401   4.547   0.714   7.790  0.8421  1.0994  1.9062
  433MOL0     H58402   4.449   0.501   7.657  0.9271 -2.9500 -0.3271
  433MOL0     H58403   4.617   0.461   7.616  0.4803  0.7038 -0.3189
  433MOL0     H58404   4.460   0.697   7.508 -0.3808 -1.4488 -1.3997
  433MOL0     H58405   4.642   0.677   7.501 -0.0699 -0.0702  4.2027
  433MOL0     H58406   4.319   0.562   7.375  0.8984  0.7082  2.4003
  433MOL0     H58407   4.319   0.309   7.131  2.5415 -0.1686  0.9058
  433MOL0     H58408   4.230   0.459   7.164  1.4397  0.2737  2.6707
  433MOL0     H58409   4.320   0.592   7.004  3.3405  1.6928 -0.3803
  433MOL0     H58410   4.451   0.471   6.974 -0.0158  1.1873  0.1148
  433MOL0     H58411   4.268   0.478   6.795 -0.3009  1.9396  0.6305
  433MOL0     H58412   4.159   0.401   6.914  0.8600 -1.2381  0.6482
  433MOL0     H58413   4.283   0.212   6.943  0.1885 -0.6970 -1.6295
  433MOL0     H58414   4.428   0.268   6.857  0.3556  0.8995  0.5999
  433MOL0     H58415   4.154   0.119   6.525 -1.1207 -2.8171 -1.8101
  433MOL0     H58416   4.228  -0.092   6.417  0.6669  2.3055 -1.2767
  433MOL0     H58417   4.569  -0.476   6.397 -1.7722 -0.1285  0.0441
  433MOL0     H58418   4.672  -0.696   6.397  0.5616  1.6696 -0.5149
  433MOL0     H58419   4.784  -0.854   6.769  0.2118 -0.6532  0.2620
  433MOL0     H58420   4.693  -0.996   6.732  0.9892 -1.2428  1.4226
  433MOL0     H58421   4.906  -1.077   6.755  0.0366  2.8537  2.3225
  433MOL0     H58422   4.862  -1.074   6.576  1.4860  1.2316 -0.4052
  433MOL0     H58423   5.079  -1.005   6.576 -0.5878 -2.1451  1.7206
  433MOL0     H58424   4.992  -0.841   6.585  3.0035  0.7721  0.1476
  433MOL0     H58425   5.194  -0.865   6.705 -0.4083  0.5167 -0.2578
  433MOL0     H58426   5.119  -0.975   6.821  1.0484 -1.2019 -0.1075
  433MOL0     H58427   4.930  -0.796   6.876  0.2381 -1.4968 -0.9413
  433MOL0     H58428   5.001  -0.697   6.762 -2.3801  1.0489  0.9758
  433MOL0     H58429   5.216  -0.735   6.899 -0.8262 -3.3942 -1.2695
  433MOL0     H58430   5.082  -0.632   6.975 -2.9487 -0.0294 -1.0641
  433MOL0     H58431   5.149  -0.922   7.027 -1.1801 -0.4081 -1.4577
  433MOL0     H58432   5.013  -0.838   7.101  0.4286 -1.0255  1.1695
  433MOL0     H58433   5.293  -0.787   7.140  0.7895 -2.1278 -0.4845
  433MOL0     H58434   5.165  -0.661   7.194  1.0307 -0.9365  0.6794
  433MOL0     H58435   4.579  -0.742   6.823  1.5235 -1.7027 -0.6942
  433MOL0     H58436   4.485  -0.532   6.815  2.1798  2.0191 -0.1876
  433MOL0     H58437   4.509  -0.155   6.733  1.1108 -0.0934 -0.7599
  433MOL0     H58438   4.459   0.061   6.823  1.9708 -1.5660 -0.7781
  433MOL0     H58439   5.368   0.831   8.072  0.9549 -0.1451  0.1588
  433MOL0     H58440   5.592   0.826   8.057  1.4172  1.9441 -0.3825
  433MOL0     H58441   6.052   0.763   7.571 -1.8745  0.8514 -0.5709
  433MOL0     H58442   6.273   0.802   7.611  0.8008 -0.6671  1.1513
  433MOL0     H58443   6.402   1.056   7.966 -1.7055  0.0168  1.2044
  433MOL0     H58444   6.544   0.971   7.891 -0.6820 -0.5832 -3.5274
  433MOL0     H58445   6.425   0.756   7.930 -0.5158 -1.4766  0.9647
  433MOL0     H58446   6.306   0.835   8.016 -0.2448  0.3520  1.2229
  433MOL0     H58447   6.456   0.742   8.173  0.0640  0.1112 -0.0106
  433MOL0     H58448   6.526   0.905   8.182  1.0365  0.8321 -0.9064
  433MOL0     H58449   6.679   0.709   8.170  0.8408  2.2735  1.1426
  433MOL0     H58450   6.641   0.685   7.995  2.1327  0.7325 -1.2837
  433MOL0     H58451   6.878   1.053   8.024  0.4854 -1.6264  1.2583
  433MOL0     H58452   6.185   1.069   7.919  0.1146 -1.4690  1.4907
  433MOL0     H58453   5.986   1.127   8.002  0.3487  0.4134  0.8898
  433MOL0     H58454   5.871   1.149   7.872  1.1067  1.0756  0.8319
  433MOL0     H58455   5.852   1.013   7.983 -0.1935 -0.2083  0.1379
  434MOL0     O58456   0.434   8.087   1.038  0.3788  0.5306 -0.0815
  434MOL0     C58457   0.444   7.989   0.961 -0.3163 -0.2028 -0.0633
  434MOL0     O58458   0.545   7.892   0.972 -0.6976  0.1029 -0.1622
  434MOL0     C58459   0.630   7.879   1.084 -0.3542  1.1116  0.1168
  434MOL0     C58460   0.659   7.966   1.187  0.0836  0.3058 -0.0013
  434MOL0     C58461   0.719   7.925   1.303  0.9892 -0.5106 -0.3053
  434MOL0     C58462   0.762   7.788   1.327  0.5401  0.1369  0.8751
  434MOL0     O58463   0.825   7.736   1.430  0.5728 -0.0950  0.1407
  434MOL0     C58464   0.809   7.799   1.556  0.4533  0.1344 -0.4862
  434MOL0     C58465   0.896   7.722   1.658 -0.1538 -0.4044 -0.1735
  434MOL0     C58466   0.954   7.803   1.771  0.3413 -0.3172  0.2955
  434MOL0     C58467   1.079   7.892   1.718  0.3494 -0.1460 -0.0130
  434MOL0     C58468   1.104   8.003   1.820 -0.6429  0.0433  0.1424
  434MOL0     C58469   1.248   8.045   1.789 -0.5354  0.8675 -0.3362
  434MOL0     C58470   1.315   8.157   1.875  0.5099  0.5193 -0.0535
  434MOL0     C58471   1.278   8.159   2.020 -0.1873 -0.6024  0.9984
  434MOL0     N58472   1.330   8.272   2.096  0.4310  0.4617 -0.3870
  434MOL0     C58473   1.277   8.395   2.081  0.0805  0.0730 -0.4182
  434MOL0     C58474   1.343   8.480   2.160 -0.2563 -0.0823 -0.3454
  434MOL0     C58475   1.298   8.623   2.194 -0.4527  0.2396  0.1208
  434MOL0     C58476   1.309   8.642   2.351 -0.3652 -0.1759 -0.1675
  434MOL0     C58477   1.181   8.615   2.426 -0.0921 -0.3528 -0.7412
  434MOL0     C58478   1.165   8.688   2.561 -0.9253  0.4946 -0.7878
  434MOL0     O58479   1.072   8.628   2.642  0.1701 -0.2387 -0.2279
  434MOL0     C58480   1.119   8.553   2.744  0.2978 -0.2537 -0.3679
  434MOL0     C58481   1.192   8.615   2.846 -0.1527  0.1720 -0.5448
  434MOL0     C58482   1.244   8.539   2.942 -0.3425 -0.1400  0.3683
  434MOL0     C58483   1.220   8.405   2.953  0.0324  0.5321 -0.5409
  434MOL0     C58484   1.279   8.330   3.063  0.0602  0.0496 -0.2408
  434MOL0     O58485   1.374   8.380   3.143 -0.3278  0.3803  0.1420
  434MOL0     C58486   1.447   8.300   3.221 -0.1677  0.4638  0.4234
  434MOL0     C58487   1.536   8.198   3.175 -0.7658 -1.0751 -0.4697
  434MOL0     C58488   1.597   8.116   3.273 -0.1971 -0.3486 -0.1002
  434MOL0     C58489   1.584   8.135   3.405 -0.2693  0.7010 -1.0515
  434MOL0     O58490   1.639   8.060   3.504  0.4112  0.0874  0.4947
  434MOL0     C58491   1.673   7.923   3.478 -0.4053 -0.7733  0.0744
  434MOL0     C58492   1.829   7.936   3.460 -0.2664 -0.3674 -1.1656
  434MOL0     C58493   1.896   7.807   3.424  0.7500 -0.0334 -0.2516
  434MOL0     C58494   2.040   7.791   3.464 -0.3719  0.6685 -0.6060
  434MOL0     C58495   2.095   7.645   3.458  1.4299 -0.1742  0.3330
  434MOL0     C58496   2.237   7.631   3.513  0.4411  0.4026  0.6164
  434MOL0     C58497   2.268   7.482   3.554  0.1475 -0.4938  1.0348
  434MOL0     C58498   2.327   7.455   3.686  0.4653 -0.7427 -0.2531
  434MOL0    Cl58499   2.500   7.515   3.690 -0.2023  0.4047 -0.2167
  434MOL0     C58500   1.510   8.244   3.447 -0.3081 -0.4567 -0.7375
  434MOL0     C58501   1.436   8.315   3.357 -0.3125 -0.2992  0.4308
  434MOL0     O58502   1.226   8.221   3.078 -0.8670 -0.0972  0.9208
  434MOL0     C58503   1.143   8.341   2.854 -0.4295 -0.0965  0.1791
  434MOL0     C58504   1.096   8.414   2.741 -0.7015  0.2721  0.3816
  434MOL0     N58505   1.429   8.390   2.231 -0.9009 -0.4372  0.2799
  434MOL0     N58506   1.427   8.265   2.186  0.2518 -0.0819 -0.6371
  434MOL0     C58507   0.734   7.699   1.219  0.4721  0.1561  1.2237
  434MOL0     C58508   0.674   7.743   1.099 -0.3361  0.0046  0.6019
  434MOL0     C58509   0.368   7.969   0.833 -0.0220 -0.6408  0.1728
  434MOL0     C58510   0.439   7.910   0.729 -0.5510 -1.1781 -1.0056
  434MOL0     C58511   0.389   7.895   0.609  0.3038  1.1783 -0.3537
  434MOL0     C58512   0.254   7.921   0.576 -0.1579  0.9488 -0.5595
  434MOL0     O58513   0.213   7.883   0.446  0.1858 -0.0594 -0.1106
  434MOL0     C58514   0.073   7.924   0.413 -0.0476  0.4403  0.2786
  434MOL0     C58515   0.044   7.854   0.281 -0.0879 -0.4152 -0.0741
  434MOL0     C58516  -0.097   7.883   0.225 -0.2893 -0.2415  0.0297
  434MOL0     C58517  -0.213   7.810   0.283 -0.6275  0.7768 -0.3021
  434MOL0     C58518  -0.221   7.664   0.260  0.2356 -0.0842  0.3722
  434MOL0     C58519  -0.230   7.547   0.243 -0.3880  0.2387 -0.1246
  434MOL0     C58520   0.180   7.987   0.676 -0.0344 -0.6373  0.1398
  434MOL0     C58521   0.235   8.018   0.798  0.3232  0.5853 -0.0491
  434MOL0     C58522   0.150   8.082   0.902 -0.0486 -0.1378 -0.1347
  434MOL0     H58523   0.635   8.069   1.166 -3.0420 -0.2224  0.4793
  434MOL0     H58524   0.729   7.999   1.382  2.0719 -0.7328 -0.2138
  434MOL0     H58525   0.849   7.901   1.554  1.1235 -0.1344 -0.8844
  434MOL0     H58526   0.701   7.796   1.574  0.3070  2.4837 -0.5832
  434MOL0     H58527   0.976   7.684   1.594  2.2599  1.5459  1.4467
  434MOL0     H58528   0.842   7.638   1.702  0.6592 -0.2390  1.2056
  434MOL0     H58529   0.998   7.748   1.854 -1.0217  1.5651  2.3874
  434MOL0     H58530   0.879   7.875   1.805  0.4681 -1.3268  2.8796
  434MOL0     H58531   1.165   7.825   1.706 -1.2571 -2.2038 -0.5818
  434MOL0     H58532   1.060   7.945   1.624 -1.8703  0.5950  0.7897
  434MOL0     H58533   1.026   8.080   1.825  0.5277  1.2115  0.7478
  434MOL0     H58534   1.090   7.964   1.921 -3.0334 -0.7352 -0.4168
  434MOL0     H58535   1.314   7.958   1.787 -0.6319  0.8066 -1.3658
  434MOL0     H58536   1.246   8.093   1.690 -0.9336 -3.2100 -2.5132
  434MOL0     H58537   1.281   8.255   1.841 -1.5446  0.6562  2.1906
  434MOL0     H58538   1.423   8.148   1.859  0.6011 -0.9997  1.2093
  434MOL0     H58539   1.169   8.167   2.017 -0.3240 -2.3388 -1.1776
  434MOL0     H58540   1.312   8.067   2.068  2.3437 -0.0478  0.4366
  434MOL0     H58541   1.185   8.437   2.040  0.3396  0.5108 -0.5541
  434MOL0     H58542   1.364   8.695   2.144 -0.1976  0.3538  0.6155
  434MOL0     H58543   1.195   8.632   2.157 -0.8000  0.7727  1.1723
  434MOL0     H58544   1.391   8.575   2.377  3.2264  3.2130 -1.6227
  434MOL0     H58545   1.343   8.743   2.377  4.2051 -1.6996  0.5686
  434MOL0     H58546   1.175   8.506   2.434 -2.8356 -0.2551 -0.4428
  434MOL0     H58547   1.097   8.651   2.366  0.6179  0.0788 -1.4932
  434MOL0     H58548   1.133   8.791   2.546 -3.5548  0.7868  4.4813
  434MOL0     H58549   1.266   8.689   2.603 -0.0053 -1.3387 -2.7136
  434MOL0     H58550   1.207   8.722   2.855 -0.9097  0.2991 -0.7210
  434MOL0     H58551   1.295   8.578   3.030 -2.3385  2.4812  0.4642
  434MOL0     H58552   1.550   8.172   3.071  0.8010 -0.9885 -0.3012
  434MOL0     H58553   1.661   8.036   3.237  0.4917  1.6385 -3.7768
  434MOL0     H58554   1.635   7.870   3.565 -1.2601 -0.4367 -0.0842
  434MOL0     H58555   1.622   7.881   3.390 -1.3943  0.2947  0.1130
  434MOL0     H58556   1.846   8.016   3.389  0.4168  3.0031  2.4552
  434MOL0     H58557   1.877   7.969   3.553 -2.8333 -0.1287  0.1831
  434MOL0     H58558   1.832   7.730   3.468  0.9264 -0.8897 -1.4450
  434MOL0     H58559   1.898   7.807   3.314  2.8969 -2.0375 -0.2776
  434MOL0     H58560   2.040   7.819   3.570 -0.7416 -2.7692  0.4424
  434MOL0     H58561   2.101   7.867   3.414 -1.7311  1.2825 -1.3756
  434MOL0     H58562   2.101   7.607   3.356  0.3494 -0.9614  0.5455
  434MOL0     H58563   2.026   7.585   3.519  0.6459  0.6882  0.3038
  434MOL0     H58564   2.314   7.675   3.450 -1.9645  1.0890 -2.0557
  434MOL0     H58565   2.242   7.684   3.609  0.0300  5.6370 -1.9045
  434MOL0     H58566   2.350   7.450   3.488  0.7923  0.2938  1.4311
  434MOL0     H58567   2.183   7.415   3.542  1.2659 -1.8102  0.1216
  434MOL0     H58568   2.276   7.510   3.766  0.9646  0.8822 -0.9995
  434MOL0     H58569   2.320   7.348   3.707 -0.6104 -0.6383  0.0108
  434MOL0     H58570   1.502   8.252   3.555 -1.0175 -3.3318 -0.4987
  434MOL0     H58571   1.368   8.392   3.392  2.0564  1.3919  1.5698
  434MOL0     H58572   1.122   8.235   2.852 -0.1759 -0.1839 -3.0630
  434MOL0     H58573   1.037   8.350   2.677  0.4490 -0.4152 -0.0154
  434MOL0     H58574   0.772   7.598   1.218 -3.3621 -1.5741 -2.2464
  434MOL0     H58575   0.664   7.662   1.027 -0.6732 -0.9216  1.6590
  434MOL0     H58576   0.538   7.867   0.739  0.5007  1.3835  0.6803
  434MOL0     H58577   0.449   7.848   0.532 -1.5281 -0.3418 -0.9484
  434MOL0     H58578   0.056   8.032   0.413 -1.1595  0.4263  4.1696
  434MOL0     H58579   0.011   7.875   0.489  1.5582  0.6282  1.7839
  434MOL0     H58580   0.053   7.749   0.310 -0.6818 -0.1598  1.1017
  434MOL0     H58581   0.127   7.872   0.212  0.0991 -1.1025 -0.0311
  434MOL0     H58582  -0.095   7.875   0.116  1.2326  0.9577 -0.0606
  434MOL0     H58583  -0.107   7.990   0.241  2.0372 -0.1926  1.9488
  434MOL0     H58584  -0.203   7.817   0.392  0.2870  1.4505 -0.4238
  434MOL0     H58585  -0.307   7.845   0.240 -0.2434  2.1720 -0.0629
  434MOL0     H58586  -0.227   7.441   0.223 -3.3957  0.3684 -1.8986
  434MOL0     H58587   0.083   8.033   0.661  1.0310  1.1854 -1.7594
  434MOL0     H58588   0.188   8.179   0.935  0.5083  0.1897 -1.7019
  434MOL0     H58589   0.049   8.107   0.869  0.5373  2.1658 -0.3243
  434MOL0     H58590   0.125   8.015   0.985 -2.6180 -2.9382 -2.9085
  435MOL0     O58591   9.623   1.926   8.654  0.0200  0.1767  0.0849
  435MOL0     C58592   9.720   1.957   8.719 -0.0836 -0.2989 -0.9023
  435MOL0     O58593   9.835   1.885   8.728 -0.0541 -0.2823  0.1253
  435MOL0     C58594   9.869   1.786   8.638 -0.6428  0.0379 -0.3728
  435MOL0     C58595   9.807   1.768   8.509  0.1454  1.5646 -0.3199
  435MOL0     C58596   9.841   1.650   8.440  1.1785 -1.0834  0.1780
  435MOL0     C58597   9.907   1.542   8.503 -1.1367  0.4611  0.3313
  435MOL0     O58598   9.931   1.416   8.448  0.1485  0.3280 -0.0545
  435MOL0     C58599   9.839   1.379   8.345  0.3709 -0.3642 -1.0487
  435MOL0     C58600   9.885   1.231   8.314  0.6403  0.3199 -0.2287
  435MOL0     C58601   9.824   1.190   8.175  0.8020  0.0406 -1.1258
  435MOL0     C58602   9.910   1.086   8.108 -0.3337 -0.3580 -0.0707
  435MOL0     C58603   9.865   1.055   7.961 -0.3092 -0.0104 -1.1493
  435MOL0     C58604   9.732   0.980   7.963  0.3567  0.3865 -0.0240
  435MOL0     C58605   9.713   0.908   7.831 -0.4400 -0.3529  0.1685
  435MOL0     C58606   9.615   0.792   7.844 -0.4806  0.0732 -0.4064
  435MOL0     N58607   9.485   0.847   7.862 -0.8059 -0.3634  0.3273
  435MOL0     C58608   9.419   0.888   7.973  0.3204  1.1087 -0.5298
  435MOL0     C58609   9.314   0.946   7.935  0.8307  0.2594  0.3207
  435MOL0     C58610   9.214   1.005   8.019  0.6123  0.4551 -1.2638
  435MOL0     C58611   9.131   0.898   8.099  0.5535  0.7892  0.3059
  435MOL0     C58612   9.024   0.956   8.185 -0.3724  1.6676 -1.0320
  435MOL0     C58613   8.980   0.862   8.305 -0.4751 -0.2443  0.2453
  435MOL0     O58614   8.948   0.739   8.251 -0.2681  0.2511  0.2159
  435MOL0     C58615   8.923   0.629   8.340 -0.4936  1.0153 -0.4422
  435MOL0     C58616   8.931   0.503   8.286  0.2116 -0.2622 -0.0336
  435MOL0     C58617   8.886   0.390   8.353  0.1239 -0.2054  0.7488
  435MOL0     C58618   8.821   0.406   8.477  0.2102  0.4255  0.0129
  435MOL0     C58619   8.754   0.287   8.546 -0.0918 -0.2958  0.0325
  435MOL0     O58620   8.786   0.162   8.494 -0.5499  0.4101 -0.3602
  435MOL0     C58621   8.720   0.050   8.555 -0.0346  0.7407  0.2815
  435MOL0     C58622   8.668  -0.050   8.470 -0.0367 -0.3700 -0.8916
  435MOL0     C58623   8.609  -0.168   8.516  0.0084 -1.2203  0.7641
  435MOL0     C58624   8.594  -0.191   8.654 -0.6979  0.2436  0.3327
  435MOL0     O58625   8.527  -0.303   8.683 -0.9546 -0.3293 -0.4253
  435MOL0     C58626   8.486  -0.320   8.821  0.2330 -0.4034  0.9520
  435MOL0     C58627   8.403  -0.450   8.839  0.0389  0.8063  0.4860
  435MOL0     C58628   8.496  -0.580   8.848 -0.2972  0.2514  0.4558
  435MOL0     C58629   8.558  -0.590   8.979  0.1165  0.8984 -0.3321
  435MOL0     C58630   8.636  -0.725   8.999 -0.5844  0.5125 -0.4063
  435MOL0     C58631   8.762  -0.727   8.909  0.2818 -0.3919 -0.2363
  435MOL0     C58632   8.816  -0.866   8.932  0.0509  0.2690 -0.6716
  435MOL0     C58633   8.936  -0.856   9.040 -0.7805  0.1032  0.1902
  435MOL0    Cl58634   8.988  -1.031   9.062 -0.2721 -0.1891  0.2908
  435MOL0     C58635   8.654  -0.092   8.739  0.1453  0.5726 -0.3065
  435MOL0     C58636   8.724   0.020   8.689  0.6912 -0.3971  0.4530
  435MOL0     O58637   8.677   0.308   8.635  0.4342  0.2730  0.5361
  435MOL0     C58638   8.805   0.533   8.532 -0.7506 -1.0722 -0.6885
  435MOL0     C58639   8.859   0.649   8.470 -0.0806  0.1526 -0.3657
  435MOL0     N58640   9.304   0.938   7.796  0.3361 -0.5840 -0.1868
  435MOL0     N58641   9.410   0.887   7.755 -0.5341  0.0271  0.1007
  435MOL0     C58642   9.968   1.564   8.625 -0.5916 -0.5241 -0.4766
  435MOL0     C58643   9.952   1.681   8.692 -0.0958 -1.7854  0.0089
  435MOL0     C58644   9.714   2.090   8.792  0.0237 -1.4276  1.0755
  435MOL0     C58645   9.841   2.156   8.822 -0.2390 -0.9027  0.2071
  435MOL0     C58646   9.836   2.282   8.881 -0.7817 -0.3529  0.1093
  435MOL0     C58647   9.718   2.346   8.904  0.1901  0.0707  0.5780
  435MOL0     O58648   9.709   2.473   8.950 -0.9614  0.0382  0.1639
  435MOL0     C58649   9.797   2.571   8.880  0.3897  0.2101 -0.6521
  435MOL0     C58650   9.722   2.699   8.844 -0.6179  0.0242  0.0232
  435MOL0     C58651   9.619   2.669   8.729  0.0184 -0.4751 -0.4416
  435MOL0     C58652   9.514   2.783   8.746  0.1354  0.2299 -0.0569
  435MOL0     C58653   9.408   2.792   8.644  0.0581 -0.1285  0.4318
  435MOL0     C58654   9.316   2.808   8.567  0.3673 -0.0905 -0.1527
  435MOL0     C58655   9.598   2.287   8.880  0.5883  0.4921  0.4074
  435MOL0     C58656   9.590   2.164   8.818 -0.1555  0.6437  0.1256
  435MOL0     C58657   9.455   2.106   8.793 -0.5211 -0.7333  1.2122
  435MOL0     H58658   9.732   1.833   8.465  0.1627  1.9067  0.1412
  435MOL0     H58659   9.802   1.642   8.339 -1.9768  2.5401  0.8363
  435MOL0     H58660   9.737   1.379   8.382  1.0220  0.8190  0.8688
  435MOL0     H58661   9.855   1.446   8.260  2.8026  0.2563 -0.1933
  435MOL0     H58662   9.856   1.168   8.398  3.0454  1.3499  1.5147
  435MOL0     H58663   9.994   1.220   8.313  0.6950  0.4763  1.2219
  435MOL0     H58664   9.813   1.279   8.111 -0.6064  1.2492  0.6769
  435MOL0     H58665   9.724   1.147   8.192 -0.7602  3.3243 -1.1975
  435MOL0     H58666  10.015   1.114   8.094 -0.1754 -1.1811 -0.6098
  435MOL0     H58667   9.901   0.994   8.167  1.2722 -0.4995 -0.0013
  435MOL0     H58668   9.871   1.146   7.902  0.2503 -0.1798 -1.3621
  435MOL0     H58669   9.942   0.990   7.918  1.2177  0.0591  1.2458
  435MOL0     H58670   9.734   0.906   8.044  1.8104  1.0034  0.5387
  435MOL0     H58671   9.641   1.038   7.982 -1.7067 -2.8450  0.6929
  435MOL0     H58672   9.805   0.872   7.783 -1.2605 -0.9418 -1.0226
  435MOL0     H58673   9.682   0.977   7.751  2.8400 -2.2979 -3.1119
  435MOL0     H58674   9.612   0.733   7.752 -1.7145 -1.3075  0.4714
  435MOL0     H58675   9.646   0.718   7.918 -1.4447 -1.4781 -1.4961
  435MOL0     H58676   9.466   0.881   8.070 -0.2606 -3.4682 -0.3584
  435MOL0     H58677   9.257   1.058   8.105  0.7669 -5.3941  2.8576
  435MOL0     H58678   9.153   1.074   7.960 -0.7523 -2.6713 -3.7996
  435MOL0     H58679   9.084   0.845   8.015  1.8681  0.5872 -0.3272
  435MOL0     H58680   9.200   0.837   8.157  0.1676  1.0376  1.0344
  435MOL0     H58681   8.947   0.994   8.117  1.6936  5.1220 -1.7341
  435MOL0     H58682   9.061   1.048   8.231 -0.1368  1.5510 -0.9855
  435MOL0     H58683   8.896   0.906   8.358  0.0767  0.5187  0.5093
  435MOL0     H58684   9.065   0.863   8.374 -0.8085  1.2017  0.6545
  435MOL0     H58685   8.978   0.480   8.191  0.4813 -2.2062  0.5176
  435MOL0     H58686   8.900   0.292   8.309  1.2350  0.3494 -0.1613
  435MOL0     H58687   8.678  -0.018   8.367 -0.0953  5.2556  0.4704
  435MOL0     H58688   8.559  -0.239   8.451 -2.4564  1.5046 -0.5341
  435MOL0     H58689   8.566  -0.307   8.894  0.9952 -1.6968  0.3896
  435MOL0     H58690   8.429  -0.228   8.838  2.3221  1.2608 -0.5142
  435MOL0     H58691   8.348  -0.444   8.934 -3.4549 -5.4307 -0.6146
  435MOL0     H58692   8.337  -0.464   8.753 -2.3362  1.4022  2.1118
  435MOL0     H58693   8.442  -0.671   8.819  1.4705  0.2856 -3.7040
  435MOL0     H58694   8.580  -0.576   8.778  1.6316 -2.0665  2.4623
  435MOL0     H58695   8.484  -0.593   9.060  0.8715 -0.6121  0.3366
  435MOL0     H58696   8.616  -0.500   9.001 -0.0699  0.5045  2.0395
  435MOL0     H58697   8.574  -0.815   8.992 -0.3883  0.3851 -0.5236
  435MOL0     H58698   8.670  -0.716   9.103  1.0235  0.8701 -0.9325
  435MOL0     H58699   8.730  -0.727   8.804 -0.1587  1.0554 -0.1254
  435MOL0     H58700   8.827  -0.640   8.915 -0.4548  0.1288  0.4537
  435MOL0     H58701   8.858  -0.900   8.837  2.3548 -0.9977  0.7210
  435MOL0     H58702   8.737  -0.929   8.975  0.4135  2.2723  3.3631
  435MOL0     H58703   9.025  -0.810   8.997  1.1875 -0.2928  3.5078
  435MOL0     H58704   8.898  -0.814   9.133 -2.8968  1.0890 -1.0237
  435MOL0     H58705   8.663  -0.101   8.846  2.4035  0.8890 -0.4372
  435MOL0     H58706   8.785   0.073   8.761  3.8883 -1.9401 -0.9315
  435MOL0     H58707   8.749   0.547   8.624 -0.3774  0.7149 -0.7065
  435MOL0     H58708   8.860   0.745   8.521 -0.3912  0.1992 -0.4479
  435MOL0     H58709  10.046   1.499   8.665 -1.4918 -1.5547 -0.3734
  435MOL0     H58710   9.989   1.693   8.794 -1.0155  0.5886  0.1187
  435MOL0     H58711   9.938   2.114   8.800 -0.5869 -1.7461  0.2674
  435MOL0     H58712   9.929   2.334   8.900 -1.6722  2.1048 -1.7125
  435MOL0     H58713   9.850   2.525   8.796  0.5558  1.3133 -1.1663
  435MOL0     H58714   9.876   2.594   8.951 -0.2534  1.4008 -0.3032
  435MOL0     H58715   9.794   2.780   8.832  0.1085 -0.1890  2.4494
  435MOL0     H58716   9.664   2.728   8.932  1.2764  3.2804  0.3510
  435MOL0     H58717   9.560   2.578   8.724 -3.4049  1.5380  0.1347
  435MOL0     H58718   9.671   2.682   8.633 -0.8236 -0.5407 -0.9170
  435MOL0     H58719   9.456   2.761   8.836  2.3486 -2.2273  0.8888
  435MOL0     H58720   9.569   2.877   8.756  0.6746  0.2664 -2.7974
  435MOL0     H58721   9.229   2.823   8.505 -0.0369 -2.9495 -0.3928
  435MOL0     H58722   9.511   2.341   8.914  0.5502  0.0243  1.0718
  435MOL0     H58723   9.433   2.018   8.854 -1.5986 -0.1303  1.7291
  435MOL0     H58724   9.384   2.187   8.813 -0.1047 -0.4088  1.4006
  435MOL0     H58725   9.442   2.075   8.689  0.2297 -3.2635  1.8110
  436MOL0     O58726   9.272   2.348   7.236  0.3356 -0.5563 -0.1173
  436MOL0     C58727   9.162   2.405   7.231 -0.9593 -0.0464  0.5263
  436MOL0     O58728   9.043   2.361   7.284  0.0286  0.0740 -0.1481
  436MOL0     C58729   9.051   2.244   7.364 -0.3637  0.2208  0.1730
  436MOL0     C58730   9.036   2.116   7.314  0.8440  0.4334 -0.1246
  436MOL0     C58731   9.033   2.013   7.408  0.0337  0.2975 -1.6401
  436MOL0     C58732   9.038   2.033   7.549  0.1712  0.4077 -0.1318
  436MOL0     O58733   9.040   1.925   7.627 -0.5198 -0.1871 -0.7200
  436MOL0     C58734   9.058   1.933   7.771 -0.0724  0.4056 -0.6852
  436MOL0     C58735   9.060   1.788   7.823  0.1194 -0.5208  0.1175
  436MOL0     C58736   9.186   1.712   7.783 -0.1512  0.6242 -0.6506
  436MOL0     C58737   9.166   1.563   7.796  0.8085 -0.4487 -0.7528
  436MOL0     C58738   9.299   1.486   7.778  0.0423  0.6649 -0.5506
  436MOL0     C58739   9.298   1.336   7.810 -0.0890 -0.0828 -0.1866
  436MOL0     C58740   9.439   1.269   7.792 -0.3923 -0.5135 -1.0253
  436MOL0     C58741   9.554   1.304   7.893 -1.1725  0.6526  0.5261
  436MOL0     N58742   9.510   1.329   8.031  0.7269 -0.1589  0.3852
  436MOL0     C58743   9.455   1.437   8.094  0.3615  0.3932 -0.2860
  436MOL0     C58744   9.379   1.383   8.192 -0.5328  0.6443  0.3516
  436MOL0     C58745   9.282   1.457   8.281  0.0079 -0.4296 -0.1380
  436MOL0     C58746   9.145   1.409   8.289  0.3282  0.0339 -0.6498
  436MOL0     C58747   9.070   1.422   8.151 -0.3528  0.0320  0.2952
  436MOL0     C58748   8.928   1.375   8.163  0.1781  0.3554 -0.1204
  436MOL0     O58749   8.855   1.449   8.069  0.1524  0.4530  0.1134
  436MOL0     C58750   8.770   1.542   8.112  0.1705 -0.4184  0.9689
  436MOL0     C58751   8.768   1.663   8.048  0.8965  0.4693 -0.1161
  436MOL0     C58752   8.678   1.761   8.092  0.2941  0.5161  0.0735
  436MOL0     C58753   8.581   1.737   8.193  0.5690 -0.2062  0.6156
  436MOL0     C58754   8.482   1.849   8.219 -0.2359 -0.3490  0.0259
  436MOL0     O58755   8.398   1.828   8.317 -0.6440 -0.9195 -0.0651
  436MOL0     C58756   8.312   1.920   8.350  0.8527 -0.0631  0.3276
  436MOL0     C58757   8.220   1.973   8.256 -0.9657  0.5924 -0.9564
  436MOL0     C58758   8.119   2.065   8.302 -0.3842 -0.1834  0.7248
  436MOL0     C58759   8.114   2.109   8.432  0.1223  0.1832  0.0695
  436MOL0     O58760   8.023   2.199   8.472 -0.1032 -0.3802 -0.2039
  436MOL0     C58761   7.962   2.207   8.598 -0.9308 -0.3750  0.2604
  436MOL0     C58762   7.861   2.320   8.601  0.1384  0.3204  0.4240
  436MOL0     C58763   7.910   2.457   8.548  0.2962 -0.6325  0.3344
  436MOL0     C58764   7.827   2.577   8.608 -0.1833 -0.2796  0.0074
  436MOL0     C58765   7.911   2.706   8.632  0.6723  0.3480  0.6108
  436MOL0     C58766   8.005   2.697   8.746 -0.6664  1.3863 -0.2828
  436MOL0     C58767   8.070   2.831   8.780  0.8073 -1.2727 -0.0581
  436MOL0     C58768   8.170   2.811   8.891  0.5953 -0.2527  1.0083
  436MOL0    Cl58769   8.222   2.955   8.974  0.2612  0.1403 -0.2310
  436MOL0     C58770   8.200   2.049   8.529 -0.6843 -0.5882  0.0107
  436MOL0     C58771   8.305   1.962   8.482 -0.4820 -0.0761 -1.2905
  436MOL0     O58772   8.498   1.955   8.158  0.2545 -0.6689 -0.9303
  436MOL0     C58773   8.569   1.612   8.245 -0.8731  0.4161 -0.7618
  436MOL0     C58774   8.664   1.512   8.203 -0.2944  0.5335  0.1635
  436MOL0     N58775   9.398   1.247   8.196  0.5377 -0.6580 -0.0838
  436MOL0     N58776   9.478   1.218   8.098  0.3715 -0.4851 -0.1316
  436MOL0     C58777   9.046   2.165   7.593 -0.1343  0.0772  0.6882
  436MOL0     C58778   9.043   2.274   7.499  0.2045  0.4909 -0.8298
  436MOL0     C58779   9.180   2.545   7.170  0.9133  0.2681  0.2574
  436MOL0     C58780   9.281   2.575   7.081 -0.5459  0.8093 -0.2869
  436MOL0     C58781   9.298   2.708   7.035  1.0374 -0.0648  0.1760
  436MOL0     C58782   9.207   2.803   7.068 -0.0104 -0.0838  0.0501
  436MOL0     O58783   9.236   2.930   7.056 -0.3031  0.5812  0.4457
  436MOL0     C58784   9.369   2.974   7.075  0.0916 -0.0245  0.8058
  436MOL0     C58785   9.414   2.960   7.226 -0.0783  0.3480  1.0143
  436MOL0     C58786   9.341   3.054   7.318  0.2713  0.3880  0.9020
  436MOL0     C58787   9.342   3.201   7.251  0.4754  0.1133  0.5773
  436MOL0     C58788   9.467   3.272   7.238 -0.3551 -0.3287 -0.2907
  436MOL0     C58789   9.571   3.330   7.237  0.4192 -0.0518 -0.4276
  436MOL0     C58790   9.096   2.773   7.143  0.3957 -1.2256  0.4109
  436MOL0     C58791   9.074   2.643   7.194  0.4081 -0.0797 -0.6187
  436MOL0     C58792   8.949   2.624   7.278  0.6507 -0.2843 -0.3153
  436MOL0     H58793   9.041   2.106   7.206  0.0381  2.7015 -0.4354
  436MOL0     H58794   9.036   1.913   7.365  4.5940 -0.7134  0.3605
  436MOL0     H58795   9.148   1.991   7.793 -0.5920  1.5473 -1.4196
  436MOL0     H58796   8.973   1.979   7.823 -0.1213 -1.0783  0.6116
  436MOL0     H58797   8.973   1.736   7.781  0.2829 -0.9401  0.3055
  436MOL0     H58798   9.053   1.792   7.932 -1.7286 -0.5299  0.0320
  436MOL0     H58799   9.264   1.752   7.848 -1.9396  0.5930  1.6627
  436MOL0     H58800   9.218   1.744   7.683 -1.1387  0.3982 -1.0522
  436MOL0     H58801   9.119   1.556   7.895  1.1670 -1.6363 -0.6466
  436MOL0     H58802   9.095   1.525   7.722  2.1346 -1.9910 -1.2944
  436MOL0     H58803   9.341   1.488   7.677 -0.4031 -1.6206 -0.8189
  436MOL0     H58804   9.374   1.539   7.838  2.5911 -1.7438 -1.4511
  436MOL0     H58805   9.251   1.312   7.907 -2.1980  3.8068 -0.0504
  436MOL0     H58806   9.233   1.295   7.732  1.2188 -0.0684 -1.3039
  436MOL0     H58807   9.475   1.276   7.689  0.2618 -0.1483 -0.7767
  436MOL0     H58808   9.424   1.161   7.804  0.5746 -0.6557 -1.0397
  436MOL0     H58809   9.638   1.237   7.875 -1.4046  0.7554 -1.1781
  436MOL0     H58810   9.609   1.391   7.857  3.8281 -3.2310 -2.4659
  436MOL0     H58811   9.455   1.543   8.073 -0.8138  0.0829 -2.0883
  436MOL0     H58812   9.326   1.455   8.381 -1.7523  2.3909  0.8335
  436MOL0     H58813   9.275   1.566   8.268 -0.5724 -0.2130  1.6730
  436MOL0     H58814   9.153   1.302   8.312 -1.3582  0.4530  2.4705
  436MOL0     H58815   9.099   1.459   8.375  2.2618 -0.9651  1.0810
  436MOL0     H58816   9.117   1.365   8.071 -4.7095 -2.7171 -0.5944
  436MOL0     H58817   9.079   1.529   8.128  1.1188 -0.3134 -0.8864
  436MOL0     H58818   8.897   1.392   8.267  1.6813  4.5829 -0.1534
  436MOL0     H58819   8.912   1.272   8.129  1.6854  0.5001 -1.3689
  436MOL0     H58820   8.842   1.689   7.974  0.8524  3.5503  0.7851
  436MOL0     H58821   8.684   1.860   8.050 -2.2055  0.2059 -1.1996
  436MOL0     H58822   8.218   1.957   8.148  1.8468  2.3298 -1.3682
  436MOL0     H58823   8.043   2.096   8.231 -1.5279 -3.8912  0.0829
  436MOL0     H58824   7.912   2.110   8.605  0.0061 -1.1842 -2.8311
  436MOL0     H58825   8.030   2.221   8.683  0.6083  0.8407 -1.1068
  436MOL0     H58826   7.777   2.299   8.535  1.7006 -1.3228 -1.1412
  436MOL0     H58827   7.844   2.321   8.709 -2.1380 -2.1397  0.1779
  436MOL0     H58828   8.017   2.475   8.568  0.2987 -0.0986 -0.1467
  436MOL0     H58829   7.896   2.462   8.440  1.1590 -0.1346  0.2279
  436MOL0     H58830   7.759   2.539   8.685 -2.8244  4.3666  0.3400
  436MOL0     H58831   7.763   2.607   8.524  1.6805  0.9103 -1.0668
  436MOL0     H58832   7.843   2.787   8.660  2.7837  2.5802 -0.3361
  436MOL0     H58833   7.961   2.734   8.538  0.4183 -3.8184 -0.9944
  436MOL0     H58834   7.953   2.647   8.828  1.2862 -1.8629 -0.8229
  436MOL0     H58835   8.091   2.634   8.723  1.2409  2.6788  2.7369
  436MOL0     H58836   7.999   2.908   8.812  2.4039  0.5966 -0.8383
  436MOL0     H58837   8.130   2.867   8.696 -2.2366 -1.0257 -2.2781
  436MOL0     H58838   8.123   2.760   8.975 -1.8893 -1.1556 -0.8214
  436MOL0     H58839   8.257   2.762   8.846  1.5240  1.6114  0.6782
  436MOL0     H58840   8.209   2.079   8.633 -0.5511  0.1597 -0.2056
  436MOL0     H58841   8.383   1.938   8.554 -3.9595 -2.1842  2.1553
  436MOL0     H58842   8.515   1.591   8.337  0.1915 -1.4417 -0.5139
  436MOL0     H58843   8.651   1.411   8.240 -0.7148  0.5071 -0.0451
  436MOL0     H58844   9.073   2.176   7.697 -0.6154 -0.7531  0.9072
  436MOL0     H58845   9.074   2.376   7.523  2.2894  0.3187 -2.4995
  436MOL0     H58846   9.363   2.505   7.069  0.1500  1.1808  1.7192
  436MOL0     H58847   9.384   2.724   6.972 -0.6140 -0.8777 -2.4223
  436MOL0     H58848   9.371   3.074   7.032  0.4305  0.1994  1.3331
  436MOL0     H58849   9.445   2.917   7.021  0.7640  2.4883 -1.0519
  436MOL0     H58850   9.520   2.986   7.232 -0.8038  3.7149  1.0012
  436MOL0     H58851   9.393   2.860   7.265  1.7815  0.3550  2.1961
  436MOL0     H58852   9.387   3.053   7.417 -0.8412 -3.1345  1.5256
  436MOL0     H58853   9.236   3.023   7.327  0.4227 -0.4357 -0.0334
  436MOL0     H58854   9.284   3.196   7.159 -0.8555 -2.0337  1.4679
  436MOL0     H58855   9.274   3.266   7.307 -2.3709 -0.7917 -1.5884
  436MOL0     H58856   9.654   3.395   7.222 -0.7128  1.1734 -1.6368
  436MOL0     H58857   9.014   2.842   7.158  1.6565  0.8393 -1.4997
  436MOL0     H58858   8.873   2.563   7.227 -0.2640 -0.1829  0.8829
  436MOL0     H58859   8.973   2.584   7.377 -1.8785  2.5357  1.6162
  436MOL0     H58860   8.912   2.724   7.299 -0.3977 -0.7770  0.2831
  437MOL0     O58861   4.100   9.768   8.071 -0.2277  0.0062  0.3579
  437MOL0     C58862   4.059   9.880   8.040  0.5414  1.0117  0.1697
  437MOL0     O58863   3.922   9.908   8.033  0.0200  0.0188 -0.3731
  437MOL0     C58864   3.830   9.808   8.039 -0.3937  0.3343  0.0443
  437MOL0     C58865   3.741   9.807   7.935  0.3522 -0.3878  0.2171
  437MOL0     C58866   3.642   9.710   7.929  0.0429 -0.4814  0.1326
  437MOL0     C58867   3.614   9.628   8.040  0.4438  0.9739  0.0203
  437MOL0     O58868   3.524   9.527   8.040 -0.8940  0.1742  0.9545
  437MOL0     C58869   3.395   9.585   8.031  0.5760 -0.1950  0.4934
  437MOL0     C58870   3.290   9.520   8.121  0.0789  0.0768  0.0871
  437MOL0     C58871   3.291   9.372   8.106  0.1639 -0.1370 -0.0070
  437MOL0     C58872   3.229   9.293   8.223  0.2235 -0.6020  0.6489
  437MOL0     C58873   3.198   9.136   8.190 -1.6078 -0.8398  0.0921
  437MOL0     C58874   3.084   9.122   8.087  0.3529  0.9845  0.9009
  437MOL0     C58875   3.082   8.983   8.025  0.4018 -0.3069  0.4250
  437MOL0     C58876   3.155   8.985   7.885  0.2447  0.1004 -0.7141
  437MOL0     N58877   3.064   9.040   7.781  0.2744 -0.0274  0.5012
  437MOL0     C58878   3.092   9.131   7.678 -0.1372  1.1483 -0.1982
  437MOL0     C58879   2.987   9.127   7.603  0.6313 -0.1425 -0.1438
  437MOL0     C58880   2.960   9.209   7.481 -0.8495 -0.0494  1.0476
  437MOL0     C58881   3.035   9.156   7.362  0.7879 -0.1234 -0.0075
  437MOL0     C58882   2.982   9.007   7.345  0.0986 -0.3868  0.9715
  437MOL0     C58883   3.022   8.952   7.213  0.6255  0.3312  1.1086
  437MOL0     O58884   2.939   9.010   7.113  0.2919 -0.6029 -0.4671
  437MOL0     C58885   2.937   8.946   6.989  0.1312  0.2463  0.0937
  437MOL0     C58886   2.837   8.983   6.895 -0.0284 -0.8025 -0.6003
  437MOL0     C58887   2.826   8.919   6.772 -0.6501  0.0266  0.3259
  437MOL0     C58888   2.916   8.822   6.731  0.5209  0.3831  0.7529
  437MOL0     C58889   2.894   8.743   6.602  0.1892  0.0779 -1.3288
  437MOL0     O58890   2.779   8.764   6.527  0.9116  0.1576 -0.1405
  437MOL0     C58891   2.768   8.692   6.405  0.8869 -0.7813  0.0037
  437MOL0     C58892   2.742   8.551   6.404 -0.0204  0.1932  1.3192
  437MOL0     C58893   2.730   8.485   6.279  0.3894 -0.4983 -0.8779
  437MOL0     C58894   2.745   8.560   6.159  0.5719  0.5819 -0.2913
  437MOL0     O58895   2.743   8.489   6.042  0.6123  0.2710  0.0421
  437MOL0     C58896   2.641   8.537   5.948  0.5405  0.3168 -0.9725
  437MOL0     C58897   2.533   8.426   5.922  0.1140  0.9274 -0.4205
  437MOL0     C58898   2.599   8.311   5.840 -0.6516 -0.1326 -0.6291
  437MOL0     C58899   2.493   8.226   5.762  0.2536 -0.4962  0.1635
  437MOL0     C58900   2.555   8.095   5.706  0.7949 -0.1385  0.4623
  437MOL0     C58901   2.687   8.116   5.628 -1.1463  0.6329 -0.2282
  437MOL0     C58902   2.718   7.981   5.552  0.1069 -0.4253 -0.4165
  437MOL0     C58903   2.868   7.949   5.534 -0.3785  0.6554  0.2890
  437MOL0    Cl58904   2.902   7.823   5.410 -0.3475 -0.1475  0.0099
  437MOL0     C58905   2.767   8.700   6.165 -0.2860 -0.5380 -0.7960
  437MOL0     C58906   2.772   8.767   6.289 -0.1218 -0.5965  0.1899
  437MOL0     O58907   2.982   8.664   6.574 -0.3433 -0.1264  0.0510
  437MOL0     C58908   3.005   8.774   6.825 -0.6042  0.5493  0.4061
  437MOL0     C58909   3.018   8.833   6.951  0.1239  0.2355 -0.4308
  437MOL0     N58910   2.886   9.057   7.664 -0.3680 -0.5762  0.1243
  437MOL0     N58911   2.934   8.996   7.768 -1.4148 -0.5274 -0.2640
  437MOL0     C58912   3.714   9.624   8.134 -0.3268  0.8173 -0.6704
  437MOL0     C58913   3.815   9.717   8.146 -0.3025 -0.3346 -0.1873
  437MOL0     C58914   4.136   9.994   7.977  0.4297  0.1842  0.3165
  437MOL0     C58915   4.083  10.055   7.861  0.8680 -0.4159  0.3524
  437MOL0     C58916   4.161  10.153   7.792  0.4904  0.0668 -0.2635
  437MOL0     C58917   4.288  10.170   7.838 -0.2603 -0.5041 -0.2425
  437MOL0     O58918   4.363  10.265   7.769 -0.5550 -0.6730 -0.6310
  437MOL0     C58919   4.431  10.374   7.841  0.3470  0.2609 -0.1792
  437MOL0     C58920   4.487  10.486   7.748  0.1155 -0.4224  0.1677
  437MOL0     C58921   4.594  10.439   7.649 -0.4374  1.0128  1.1328
  437MOL0     C58922   4.612  10.549   7.548  0.0996 -0.7080  0.5734
  437MOL0     C58923   4.731  10.543   7.469 -0.7418 -0.7081 -0.0249
  437MOL0     C58924   4.828  10.548   7.400 -0.6411  0.1770 -0.6844
  437MOL0     C58925   4.355  10.102   7.938  0.3290 -0.0235  0.3171
  437MOL0     C58926   4.275  10.009   8.012 -0.3738 -0.2663  0.3355
  437MOL0     C58927   4.348   9.932   8.119 -0.0645 -0.5135  0.4393
  437MOL0     H58928   3.748   9.866   7.844 -1.1796 -0.2468  0.1665
  437MOL0     H58929   3.572   9.718   7.846 -1.2281  0.1977  1.2199
  437MOL0     H58930   3.399   9.691   8.057 -0.7501  0.6267 -2.3302
  437MOL0     H58931   3.350   9.585   7.931  0.5446  2.0977  0.4545
  437MOL0     H58932   3.198   9.578   8.107  1.3231  3.2743  3.6732
  437MOL0     H58933   3.325   9.552   8.219 -0.6066 -0.3771  0.4878
  437MOL0     H58934   3.390   9.327   8.102 -1.5430 -4.4307  0.3769
  437MOL0     H58935   3.237   9.345   8.014  0.9877 -3.8273  0.4411
  437MOL0     H58936   3.293   9.307   8.311  0.8927  2.6090 -0.2312
  437MOL0     H58937   3.129   9.336   8.235  0.2732  0.6721 -2.5603
  437MOL0     H58938   3.288   9.076   8.179 -0.6019  0.3672  1.4389
  437MOL0     H58939   3.157   9.100   8.285 -2.1395  0.3552  0.3394
  437MOL0     H58940   2.992   9.136   8.144 -0.1036 -2.2709  1.1916
  437MOL0     H58941   3.078   9.195   8.006  1.1478 -2.8968 -3.0662
  437MOL0     H58942   2.978   8.949   8.014 -0.3916  2.1658 -0.2639
  437MOL0     H58943   3.123   8.913   8.098 -0.2780 -1.2591 -0.0680
  437MOL0     H58944   3.244   9.047   7.888  1.3976 -1.5392  0.7873
  437MOL0     H58945   3.187   8.881   7.869 -1.7467 -1.0187  1.8283
  437MOL0     H58946   3.191   9.173   7.664  1.0122 -0.6059  2.0058
  437MOL0     H58947   2.854   9.211   7.456 -0.4476  3.4712 -1.1512
  437MOL0     H58948   2.986   9.316   7.487 -2.2533  0.3033  1.1510
  437MOL0     H58949   2.997   9.199   7.269 -2.3607 -0.9845  0.7553
  437MOL0     H58950   3.143   9.163   7.378  0.8758 -3.1664  1.5928
  437MOL0     H58951   2.874   8.992   7.351  0.3724 -2.2524  1.8274
  437MOL0     H58952   3.023   8.946   7.425 -0.5318  3.5703  4.6705
  437MOL0     H58953   3.004   8.844   7.220  4.1760 -0.5547 -1.0236
  437MOL0     H58954   3.125   8.979   7.190 -0.4721  2.2966 -2.2904
  437MOL0     H58955   2.764   9.057   6.925  0.7289 -0.4381  0.3818
  437MOL0     H58956   2.758   8.966   6.702 -0.0717  2.2122  1.1612
  437MOL0     H58957   2.737   8.481   6.487  0.0994  0.7819  1.8256
  437MOL0     H58958   2.710   8.379   6.264 -1.0897 -0.1285 -1.6684
  437MOL0     H58959   2.585   8.626   5.978 -0.9162 -1.1407  0.9064
  437MOL0     H58960   2.685   8.571   5.854 -3.6740  0.6878 -3.0057
  437MOL0     H58961   2.496   8.390   6.019 -0.8790  1.5433 -0.5624
  437MOL0     H58962   2.457   8.461   5.852  1.9299 -0.8257 -3.5032
  437MOL0     H58963   2.671   8.347   5.766 -1.7950  2.5063 -0.5778
  437MOL0     H58964   2.650   8.257   5.920  0.9122  1.6595 -0.3518
  437MOL0     H58965   2.458   8.281   5.674  0.3718 -2.2910 -1.0632
  437MOL0     H58966   2.412   8.215   5.835  0.1436  0.1652  0.1473
  437MOL0     H58967   2.485   8.057   5.631  0.3381 -2.4851  1.9648
  437MOL0     H58968   2.565   8.010   5.775 -1.9040  0.9634  2.3922
  437MOL0     H58969   2.676   8.187   5.546 -1.2368 -0.6284 -1.3507
  437MOL0     H58970   2.771   8.152   5.689  1.1139  0.4372 -3.0055
  437MOL0     H58971   2.663   7.980   5.457  2.6063 -0.5016 -1.9617
  437MOL0     H58972   2.679   7.898   5.610  0.7305 -0.9715 -0.7669
  437MOL0     H58973   2.920   8.039   5.500  2.1174  0.2952  2.8239
  437MOL0     H58974   2.905   7.913   5.630 -1.6045 -2.3764 -0.2592
  437MOL0     H58975   2.796   8.768   6.086  0.2012  2.3091  1.6458
  437MOL0     H58976   2.802   8.871   6.292  4.9406 -1.8525  0.7540
  437MOL0     H58977   3.075   8.693   6.807 -0.3271  0.8048  0.3297
  437MOL0     H58978   3.084   8.780   7.019 -1.0697  0.0816  0.6490
  437MOL0     H58979   3.718   9.549   8.213 -2.7724 -0.4854 -1.6559
  437MOL0     H58980   3.881   9.722   8.231  1.0621  3.9638 -1.2692
  437MOL0     H58981   3.981  10.048   7.826  1.1113  1.0311 -0.7677
  437MOL0     H58982   4.129  10.202   7.701  0.7579  1.3710  0.3138
  437MOL0     H58983   4.514  10.339   7.903  1.3099  1.4710 -0.7319
  437MOL0     H58984   4.357  10.422   7.907 -1.7285 -0.8179 -1.6149
  437MOL0     H58985   4.537  10.556   7.815  3.7050 -4.1876  1.8564
  437MOL0     H58986   4.402  10.527   7.693  0.1921 -1.6434 -0.9435
  437MOL0     H58987   4.554  10.345   7.610 -1.8727  1.7277  0.7955
  437MOL0     H58988   4.692  10.410   7.687  0.4509 -0.8221 -2.1613
  437MOL0     H58989   4.518  10.550   7.493 -0.6786 -0.8821  1.8891
  437MOL0     H58990   4.615  10.642   7.606  0.9254 -1.0157  1.0413
  437MOL0     H58991   4.890  10.536   7.313  1.0489 -1.4392  0.6622
  437MOL0     H58992   4.459  10.119   7.964  0.8106  1.3087 -2.0946
  437MOL0     H58993   4.352   9.825   8.096  0.4032 -0.2209 -0.9229
  437MOL0     H58994   4.445   9.977   8.140 -0.0484 -1.3384  2.4033
  437MOL0     H58995   4.297   9.933   8.216  3.0493 -0.5304  2.2051
  438MOL0     O58996   2.701   6.766   2.912  0.3873  0.6608 -0.1881
  438MOL0     C58997   2.762   6.774   2.806  1.1967 -0.1515  0.3049
  438MOL0     O58998   2.811   6.891   2.753 -0.0886 -0.5605  0.7119
  438MOL0     C58999   2.776   7.022   2.791  0.0328  0.0666 -0.9345
  438MOL0     C59000   2.666   7.056   2.876 -0.2882 -0.2889 -0.0308
  438MOL0     C59001   2.625   7.189   2.888 -0.3908 -0.2035 -0.4395
  438MOL0     C59002   2.682   7.290   2.806 -0.5785  0.0780  0.8837
  438MOL0     O59003   2.637   7.412   2.838  0.2493  0.4817 -0.1343
  438MOL0     C59004   2.553   7.480   2.737 -0.4169  0.1001 -0.0634
  438MOL0     C59005   2.546   7.629   2.769  0.5278  0.2241  0.0964
  438MOL0     C59006   2.439   7.693   2.667 -0.4449  0.0576 -0.2218
  438MOL0     C59007   2.408   7.838   2.691  0.9185 -0.1435 -1.1686
  438MOL0     C59008   2.476   7.938   2.605  0.8803 -0.1502  0.1078
  438MOL0     C59009   2.623   7.938   2.588  0.2815  0.0325 -0.2029
  438MOL0     C59010   2.676   8.004   2.454  0.2744  0.1767 -0.4371
  438MOL0     C59011   2.828   8.000   2.447  0.1345 -0.1061 -0.1904
  438MOL0     N59012   2.891   8.045   2.312 -0.2423 -0.2267  0.2608
  438MOL0     C59013   2.948   7.961   2.219 -0.1774  0.0936 -0.0902
  438MOL0     C59014   3.015   8.038   2.133  0.6959 -0.5140 -1.1348
  438MOL0     C59015   3.084   7.990   2.012  0.8898  0.1602 -0.3324
  438MOL0     C59016   3.227   8.041   2.005 -0.2341  0.2245  0.2919
  438MOL0     C59017   3.308   8.007   1.877  0.1997 -0.1817  0.5171
  438MOL0     C59018   3.294   7.859   1.832 -0.6615 -0.0353 -0.3405
  438MOL0     O59019   3.308   7.769   1.937 -0.4420 -0.8037 -0.3436
  438MOL0     C59020   3.434   7.721   1.970  0.0482  0.2217  0.7647
  438MOL0     C59021   3.552   7.773   1.923 -1.4332 -0.0190 -1.3351
  438MOL0     C59022   3.669   7.695   1.936  0.3664 -0.2174  0.7753
  438MOL0     C59023   3.673   7.578   2.014 -0.8011  0.1242  0.1443
  438MOL0     C59024   3.793   7.498   2.053  0.5301  0.0490  0.3330
  438MOL0     O59025   3.767   7.379   2.113  0.1736  0.5113 -0.2148
  438MOL0     C59026   3.869   7.306   2.174 -0.0760 -0.0500 -0.3184
  438MOL0     C59027   3.932   7.366   2.285  0.6761 -0.8984  0.6367
  438MOL0     C59028   4.054   7.314   2.331  1.8598  0.2362  0.1500
  438MOL0     C59029   4.097   7.197   2.271  0.0601  0.9918  0.9225
  438MOL0     O59030   4.215   7.133   2.302 -0.0279 -1.0392 -0.0300
  438MOL0     C59031   4.197   7.006   2.359  0.1750 -0.3916  0.0685
  438MOL0     C59032   4.329   6.934   2.367  0.2699 -0.7380 -1.0563
  438MOL0     C59033   4.428   6.998   2.467  0.3824 -0.2757  0.1196
  438MOL0     C59034   4.565   6.912   2.472 -1.1215  0.1576 -1.1443
  438MOL0     C59035   4.670   6.985   2.551  0.5990  0.3630 -0.3366
  438MOL0     C59036   4.655   6.975   2.706 -0.8002 -0.4862 -0.4829
  438MOL0     C59037   4.723   6.857   2.786 -0.0233 -0.1418 -0.5306
  438MOL0     C59038   4.705   6.883   2.932 -0.2591  0.0881 -0.5875
  438MOL0    Cl59039   4.809   7.027   2.979  0.0280  0.3923 -0.5354
  438MOL0     C59040   4.032   7.135   2.160 -0.0623 -0.1856 -0.6365
  438MOL0     C59041   3.921   7.194   2.114  1.0579 -0.2249  1.2575
  438MOL0     O59042   3.907   7.545   2.031  0.7609  0.5839 -0.5728
  438MOL0     C59043   3.548   7.539   2.075 -0.8593 -0.2730 -0.3709
  438MOL0     C59044   3.430   7.605   2.039  0.4826 -0.2898 -0.5848
  438MOL0     N59045   2.983   8.170   2.163  0.4408 -0.6471  0.1835
  438MOL0     N59046   2.917   8.171   2.269  0.3734 -0.6885  0.6848
  438MOL0     C59047   2.799   7.253   2.739 -0.2221  0.6786 -0.0679
  438MOL0     C59048   2.845   7.126   2.729 -0.1175 -0.5842  0.5157
  438MOL0     C59049   2.787   6.649   2.721 -0.1420  0.3091  0.0393
  438MOL0     C59050   2.852   6.670   2.595  0.1869 -0.6039  0.2520
  438MOL0     C59051   2.864   6.563   2.513  0.0774 -0.5858 -1.0478
  438MOL0     C59052   2.814   6.434   2.541 -0.4342  0.5542  0.6932
  438MOL0     O59053   2.833   6.327   2.456 -0.2475 -0.4344 -0.3427
  438MOL0     C59054   2.770   6.203   2.482 -0.7083 -0.7666  1.3242
  438MOL0     C59055   2.754   6.145   2.341 -0.7971 -0.0984 -0.7362
  438MOL0     C59056   2.625   6.068   2.318  0.0792  0.2718 -0.5752
  438MOL0     C59057   2.618   5.992   2.183  0.8928 -0.2085  0.1306
  438MOL0     C59058   2.737   5.917   2.150 -1.1217 -0.0176 -0.3926
  438MOL0     C59059   2.848   5.869   2.132  0.7471 -0.2823 -0.5462
  438MOL0     C59060   2.751   6.413   2.665  0.2040 -0.5375 -0.0044
  438MOL0     C59061   2.728   6.524   2.751 -0.4000  0.9257 -0.0214
  438MOL0     C59062   2.636   6.493   2.869  0.5612  0.9168  0.1343
  438MOL0     H59063   2.606   6.987   2.934 -0.1732  1.5169  2.4071
  438MOL0     H59064   2.530   7.206   2.937  0.5560  2.1639  0.7368
  438MOL0     H59065   2.595   7.467   2.637 -1.3964  2.1427 -0.8129
  438MOL0     H59066   2.451   7.439   2.743 -1.4083  2.0665 -2.0605
  438MOL0     H59067   2.642   7.677   2.749 -0.1833  2.0135  0.7192
  438MOL0     H59068   2.500   7.639   2.868 -0.5505 -0.5902 -0.2969
  438MOL0     H59069   2.344   7.647   2.695  0.7499 -0.5736  3.3703
  438MOL0     H59070   2.461   7.676   2.561 -1.1023  2.0636 -0.7221
  438MOL0     H59071   2.300   7.856   2.685  0.8794 -0.0478 -0.3544
  438MOL0     H59072   2.427   7.858   2.797 -0.3576 -1.6484 -0.6244
  438MOL0     H59073   2.428   7.940   2.507  1.4098  1.0117 -0.1335
  438MOL0     H59074   2.453   8.033   2.654 -1.2635 -0.5920  0.0839
  438MOL0     H59075   2.671   8.000   2.665  0.6109  0.3475 -0.6533
  438MOL0     H59076   2.663   7.837   2.598  1.7387  0.4391 -1.4179
  438MOL0     H59077   2.644   8.108   2.442 -1.0121 -0.0018  1.0892
  438MOL0     H59078   2.641   7.953   2.364 -1.9338  0.1834  0.3768
  438MOL0     H59079   2.882   8.041   2.533 -0.0321  1.1738 -0.6821
  438MOL0     H59080   2.853   7.893   2.446 -3.1147 -1.0101 -2.3542
  438MOL0     H59081   2.936   7.854   2.231 -0.8790  0.2710  0.9374
  438MOL0     H59082   3.088   7.881   2.024 -1.4414  0.2813  2.9604
  438MOL0     H59083   3.024   8.018   1.926 -0.3484 -1.4767 -0.0482
  438MOL0     H59084   3.230   8.149   2.018  0.1936  0.1505  0.8360
  438MOL0     H59085   3.286   7.997   2.086 -0.2776 -0.0500  0.1762
  438MOL0     H59086   3.412   8.041   1.883  0.3693 -0.4894 -0.4815
  438MOL0     H59087   3.272   8.061   1.789  1.6442  1.0230  0.6233
  438MOL0     H59088   3.366   7.840   1.751  1.1280  0.9904  0.9367
  438MOL0     H59089   3.191   7.835   1.804 -1.3334  2.8954 -0.7762
  438MOL0     H59090   3.572   7.869   1.876 -2.0243  1.9983  2.2153
  438MOL0     H59091   3.759   7.736   1.891 -0.3480  1.3468  0.6922
  438MOL0     H59092   3.885   7.450   2.335  0.5341 -0.9503  0.5925
  438MOL0     H59093   4.098   7.365   2.417  0.5699  0.1012  0.9124
  438MOL0     H59094   4.156   7.013   2.460  0.7537 -1.9033  0.4389
  438MOL0     H59095   4.135   6.944   2.293  2.4077 -1.3357 -1.2427
  438MOL0     H59096   4.306   6.833   2.401 -1.0904 -0.3921 -0.9031
  438MOL0     H59097   4.384   6.927   2.272  0.3729 -2.0094 -0.9191
  438MOL0     H59098   4.445   7.099   2.429  0.3604 -0.2630  0.1446
  438MOL0     H59099   4.384   7.009   2.566 -0.6197  3.0657 -0.5811
  438MOL0     H59100   4.616   6.897   2.376  4.6577  1.3810  1.3101
  438MOL0     H59101   4.547   6.811   2.511 -1.7903  0.5889 -0.3064
  438MOL0     H59102   4.662   7.092   2.528  0.3568  1.0018  2.4348
  438MOL0     H59103   4.771   6.955   2.523  0.9216  1.6232 -0.6007
  438MOL0     H59104   4.699   7.067   2.747  0.9037 -0.9034 -1.2997
  438MOL0     H59105   4.549   6.978   2.734 -0.6102 -0.1545  0.2396
  438MOL0     H59106   4.830   6.844   2.767 -0.2237 -2.0045 -0.6102
  438MOL0     H59107   4.669   6.763   2.766 -1.8651  1.1465 -1.9942
  438MOL0     H59108   4.598   6.907   2.942  0.0976  1.5381 -0.0828
  438MOL0     H59109   4.732   6.799   2.996 -1.8301 -2.8530 -3.4973
  438MOL0     H59110   4.079   7.050   2.112 -1.8329 -0.7987 -1.3601
  438MOL0     H59111   3.882   7.154   2.021  2.3714  0.7859  0.2339
  438MOL0     H59112   3.528   7.446   2.128  1.6492 -0.4830  0.2970
  438MOL0     H59113   3.337   7.554   2.061  1.3796 -1.4897  0.5482
  438MOL0     H59114   2.864   7.318   2.681  1.0195 -0.9594 -0.6107
  438MOL0     H59115   2.935   7.110   2.670 -0.6114 -1.2533 -0.0787
  438MOL0     H59116   2.883   6.766   2.556  0.9119 -0.0499  2.0777
  438MOL0     H59117   2.911   6.580   2.417  0.4993 -1.8518 -1.0747
  438MOL0     H59118   2.666   6.214   2.515 -0.7724 -1.5844  1.4373
  438MOL0     H59119   2.829   6.136   2.546 -2.3939  0.1922  4.0551
  438MOL0     H59120   2.843   6.082   2.338 -0.8527 -0.2397  0.3156
  438MOL0     H59121   2.758   6.220   2.261 -3.2271  3.0570  1.7798
  438MOL0     H59122   2.548   6.145   2.331  1.9746  2.0682  0.6829
  438MOL0     H59123   2.617   6.005   2.406 -2.6598  0.6333 -0.4776
  438MOL0     H59124   2.535   5.922   2.200  1.5254 -0.2596  3.8731
  438MOL0     H59125   2.599   6.052   2.094 -1.0572 -2.3380 -0.9889
  438MOL0     H59126   2.944   5.832   2.102 -0.6235 -2.4946 -2.5704
  438MOL0     H59127   2.717   6.315   2.698 -0.2288 -0.9956 -1.6988
  438MOL0     H59128   2.693   6.507   2.961 -1.3375  0.5457  1.4388
  438MOL0     H59129   2.557   6.569   2.873  2.2249  2.7857 -0.9272
  438MOL0     H59130   2.595   6.392   2.864 -0.1220  1.1872  0.1685
  439MOL0     O59131   0.608   2.728  11.319 -0.2859  0.1600 -0.5192
  439MOL0     C59132   0.540   2.817  11.276 -0.3582 -0.0181  0.0692
  439MOL0     O59133   0.505   2.936  11.341  0.6624  0.1013  0.8332
  439MOL0     C59134   0.603   2.997  11.415  0.2005 -0.9119 -0.2512
  439MOL0     C59135   0.589   3.035  11.545  0.3278 -0.2077  0.3973
  439MOL0     C59136   0.698   3.101  11.612  0.2894  0.2153 -0.4512
  439MOL0     C59137   0.821   3.120  11.540  0.7657 -0.3525 -0.7803
  439MOL0     O59138   0.920   3.171  11.625  0.2788  1.0940 -0.3359
  439MOL0     C59139   1.020   3.250  11.553  0.0697  0.7006 -0.3279
  439MOL0     C59140   1.093   3.348  11.655  1.2039  0.3428 -0.6261
  439MOL0     C59141   0.985   3.461  11.702 -0.6978  0.0510 -0.6848
  439MOL0     C59142   0.985   3.578  11.598  0.2430  0.3716  0.0535
  439MOL0     C59143   0.895   3.689  11.645  0.6140 -0.3423 -0.6252
  439MOL0     C59144   0.920   3.819  11.562 -0.1489  0.1051  0.2009
  439MOL0     C59145   0.814   3.928  11.598 -0.9429  0.4322  0.3781
  439MOL0     C59146   0.685   3.892  11.527  0.1381  1.2266 -0.0331
  439MOL0     N59147   0.562   3.921  11.607 -0.1100  0.0416  0.0282
  439MOL0     C59148   0.523   3.858  11.726  0.4644  0.8195  0.4108
  439MOL0     C59149   0.406   3.906  11.760 -0.1519 -0.6293 -0.1329
  439MOL0     C59150   0.332   3.878  11.888  0.3587  1.2211 -0.2574
  439MOL0     C59151   0.401   3.955  12.011  0.1540 -0.8318  0.4373
  439MOL0     C59152   0.322   3.946  12.145  0.2630  0.6316  1.1016
  439MOL0     C59153   0.286   3.803  12.179  0.5606 -0.9790  0.0173
  439MOL0     O59154   0.392   3.705  12.190 -0.4297 -0.3703  0.7598
  439MOL0     C59155   0.483   3.715  12.294 -0.4361  0.2812 -0.6636
  439MOL0     C59156   0.596   3.630  12.285 -0.6114  0.2713 -0.5428
  439MOL0     C59157   0.696   3.640  12.392 -0.7227 -0.7193  1.2080
  439MOL0     C59158   0.679   3.721  12.504 -0.6913  0.5523  0.2082
  439MOL0     C59159   0.786   3.746  12.598 -0.5983 -0.0398 -0.4254
  439MOL0     O59160   0.880   3.650  12.619 -0.1023  0.2783  0.1480
  439MOL0     C59161   0.979   3.673  12.715 -0.2793  0.1559 -0.2346
  439MOL0     C59162   1.035   3.799  12.759  0.7976 -0.3241 -1.0386
  439MOL0     C59163   1.137   3.810  12.862 -0.0091  0.4767  0.7532
  439MOL0     C59164   1.190   3.693  12.919  0.2300  0.1578  0.2651
  439MOL0     O59165   1.297   3.717  13.007  0.3048  0.6240  0.3962
  439MOL0     C59166   1.401   3.622  12.992  0.0714  0.7035 -1.2564
  439MOL0     C59167   1.480   3.645  12.867 -0.6769 -0.1940  0.9352
  439MOL0     C59168   1.498   3.795  12.846 -0.8209 -0.8709 -0.4103
  439MOL0     C59169   1.612   3.828  12.735 -0.2773  0.0449  0.4010
  439MOL0     C59170   1.616   3.982  12.700 -1.1852 -0.1295  0.3973
  439MOL0     C59171   1.723   4.054  12.784 -0.9253 -0.2854 -0.3183
  439MOL0     C59172   1.730   4.204  12.764 -0.6889 -0.4700  0.8801
  439MOL0     C59173   1.853   4.260  12.836  0.2793  0.2480 -0.3219
  439MOL0    Cl59174   1.988   4.265  12.725  0.0373 -0.1797  0.3188
  439MOL0     C59175   1.123   3.575  12.888 -0.0368 -0.2642  0.5013
  439MOL0     C59176   1.024   3.565  12.787  0.3274  0.2106 -0.5248
  439MOL0     O59177   0.771   3.855  12.660  0.7443 -0.0043  0.3700
  439MOL0     C59178   0.558   3.799  12.512  0.2706  0.0697 -0.7025
  439MOL0     C59179   0.469   3.799  12.412  0.5030  0.4829  0.4007
  439MOL0     N59180   0.364   3.985  11.659 -0.5144  0.1443 -0.1784
  439MOL0     N59181   0.453   3.989  11.567  0.8822 -0.0496  1.0089
  439MOL0     C59182   0.837   3.085  11.402  0.5365 -0.3746  0.3120
  439MOL0     C59183   0.718   3.032  11.342  0.2483 -0.3896  0.7982
  439MOL0     C59184   0.483   2.808  11.134 -0.3480  0.9709 -0.4623
  439MOL0     C59185   0.450   2.934  11.074 -0.0249 -0.2103 -0.6308
  439MOL0     C59186   0.396   2.936  10.939  0.8635  0.1235  0.1682
  439MOL0     C59187   0.363   2.807  10.872  0.4409 -0.1056 -0.2396
  439MOL0     O59188   0.287   2.788  10.762  0.6608 -0.1611 -0.3163
  439MOL0     C59189   0.268   2.891  10.664 -0.0657 -1.0238 -0.4856
  439MOL0     C59190   0.139   2.961  10.691  0.8759 -0.7733  0.0284
  439MOL0     C59191   0.097   3.071  10.587  0.5861  0.0686  0.9409
  439MOL0     C59192  -0.044   3.139  10.606 -0.0857  0.1228 -0.7408
  439MOL0     C59193  -0.151   3.073  10.534 -0.9212 -0.1120 -0.5514
  439MOL0     C59194  -0.235   3.014  10.473 -0.2550 -0.8486  0.6077
  439MOL0     C59195   0.387   2.687  10.948 -0.1784 -0.0256  0.5008
  439MOL0     C59196   0.450   2.684  11.078 -0.2263  0.5967  0.9529
  439MOL0     C59197   0.496   2.543  11.125 -0.0651  0.1824 -0.1127
  439MOL0     H59198   0.500   3.003  11.598 -0.5373  0.7942 -0.4002
  439MOL0     H59199   0.699   3.111  11.720  3.2503 -0.7429 -0.2906
  439MOL0     H59200   1.096   3.183  11.514  1.1538 -0.9831  4.0915
  439MOL0     H59201   0.970   3.318  11.483  2.5640  1.5013 -1.4292
  439MOL0     H59202   1.178   3.397  11.608  3.5002 -1.4296  1.4259
  439MOL0     H59203   1.125   3.295  11.745 -1.4870  0.2427  0.3742
  439MOL0     H59204   1.023   3.497  11.798 -1.2290 -4.0989  1.3172
  439MOL0     H59205   0.885   3.420  11.714 -1.6363  2.0432 -1.2505
  439MOL0     H59206   1.084   3.622  11.588 -0.6371  2.9023  1.6832
  439MOL0     H59207   0.938   3.550  11.503 -1.4216 -1.1963  1.2588
  439MOL0     H59208   0.793   3.654  11.626  0.8541 -1.2392 -0.3061
  439MOL0     H59209   0.912   3.708  11.752 -0.1834 -2.0076 -0.1600
  439MOL0     H59210   1.018   3.860  11.588 -0.7273  0.6298  1.6701
  439MOL0     H59211   0.904   3.789  11.458 -2.6017  1.7229  0.0116
  439MOL0     H59212   0.848   4.020  11.550 -2.1089  0.9369  0.4946
  439MOL0     H59213   0.807   3.933  11.707  0.7350 -3.5034  0.8538
  439MOL0     H59214   0.676   3.943  11.430  0.5515 -0.5652 -1.0539
  439MOL0     H59215   0.679   3.784  11.512 -0.4054  0.8655  2.4162
  439MOL0     H59216   0.587   3.791  11.783 -2.4050 -1.3892  1.2859
  439MOL0     H59217   0.228   3.909  11.875  0.1879 -0.4244 -4.0664
  439MOL0     H59218   0.330   3.770  11.904 -1.0030  1.5143  1.9584
  439MOL0     H59219   0.500   3.913  12.028 -1.1974 -3.7150  1.9662
  439MOL0     H59220   0.421   4.061  11.990  1.8586 -0.7493  2.1873
  439MOL0     H59221   0.223   3.993  12.136 -1.4724 -2.7928  0.4532
  439MOL0     H59222   0.379   3.985  12.230  0.2192  0.8049  1.0519
  439MOL0     H59223   0.219   3.772  12.098  0.3597  0.7711 -0.5450
  439MOL0     H59224   0.235   3.800  12.276  1.2109 -1.5808  0.3435
  439MOL0     H59225   0.604   3.574  12.193 -0.3336  0.9392 -0.9279
  439MOL0     H59226   0.790   3.587  12.386 -1.0794 -1.5567  2.5660
  439MOL0     H59227   1.001   3.891  12.715  1.3675  0.9684  1.0643
  439MOL0     H59228   1.173   3.912  12.861  1.8266  0.1577 -5.2206
  439MOL0     H59229   1.468   3.626  13.079  0.7044 -4.9578 -1.0754
  439MOL0     H59230   1.369   3.517  13.000  0.1581  0.7980  0.9492
  439MOL0     H59231   1.576   3.593  12.875  0.4569 -0.1827 -6.0503
  439MOL0     H59232   1.419   3.602  12.787  0.0638  1.0287 -0.3401
  439MOL0     H59233   1.403   3.844  12.820 -1.5182 -0.8377  1.9799
  439MOL0     H59234   1.528   3.843  12.939 -0.8887 -1.6627  0.0277
  439MOL0     H59235   1.608   3.778  12.638  0.3308 -0.1769  0.4857
  439MOL0     H59236   1.709   3.794  12.775  0.4782 -0.7363 -1.9280
  439MOL0     H59237   1.526   4.036  12.728  0.7702  2.8322  1.4159
  439MOL0     H59238   1.635   4.001  12.594  0.7221 -0.3003  0.6648
  439MOL0     H59239   1.697   4.024  12.886  1.6549 -1.7012  0.0197
  439MOL0     H59240   1.824   4.018  12.764  0.5999  1.7249  2.9765
  439MOL0     H59241   1.637   4.248  12.801 -0.1471  1.8963 -0.3416
  439MOL0     H59242   1.751   4.233  12.661  0.0510 -0.2897  1.0716
  439MOL0     H59243   1.828   4.358  12.879 -2.8724  0.6926 -2.8074
  439MOL0     H59244   1.880   4.193  12.919  2.7252  0.5227 -0.8327
  439MOL0     H59245   1.167   3.487  12.934  2.4366  0.7268  0.1795
  439MOL0     H59246   0.997   3.462  12.770  1.9106 -0.8659  2.7211
  439MOL0     H59247   0.563   3.852  12.607  4.2518 -1.1296 -0.0539
  439MOL0     H59248   0.380   3.860  12.420  0.3295  0.3172 -0.1823
  439MOL0     H59249   0.921   3.109  11.338  0.5808  2.3654  1.2572
  439MOL0     H59250   0.708   3.017  11.235 -0.4286 -0.3179  0.8471
  439MOL0     H59251   0.467   3.028  11.126  0.8374 -0.4065 -0.5490
  439MOL0     H59252   0.373   3.027  10.885  0.8420 -0.5969 -1.0645
  439MOL0     H59253   0.261   2.854  10.561 -0.4415 -1.9957 -0.1274
  439MOL0     H59254   0.357   2.954  10.672  0.4661 -1.5109 -2.1204
  439MOL0     H59255   0.128   3.011  10.788 -2.4865  0.8973 -1.0550
  439MOL0     H59256   0.061   2.886  10.677 -0.7632  0.8166  0.2161
  439MOL0     H59257   0.092   3.032  10.485 -0.8602  0.5675  0.7908
  439MOL0     H59258   0.180   3.142  10.581  2.7941 -2.4154  0.1412
  439MOL0     H59259  -0.077   3.125  10.710 -0.8336  0.5981 -0.9065
  439MOL0     H59260  -0.037   3.242  10.571 -0.8150  1.2595  2.1929
  439MOL0     H59261  -0.309   2.960  10.418 -4.0427  2.6899  1.7774
  439MOL0     H59262   0.357   2.597  10.895  2.3894 -0.6358 -0.0580
  439MOL0     H59263   0.605   2.546  11.119 -0.0256  0.0868  0.5115
  439MOL0     H59264   0.471   2.531  11.231  0.1735 -2.4229 -0.2882
  439MOL0     H59265   0.454   2.460  11.066 -2.6356  1.3861 -0.0998
  440MOL0     O59266   5.470   3.237  10.605  0.3250 -0.0174  0.0740
  440MOL0     C59267   5.570   3.168  10.639  0.4377 -0.4281 -1.0653
  440MOL0     O59268   5.558   3.046  10.715 -0.1621  0.3498  0.2392
  440MOL0     C59269   5.440   2.984  10.725 -0.0013  0.3960 -0.6191
  440MOL0     C59270   5.388   2.906  10.627  1.0713  0.5168  0.3552
  440MOL0     C59271   5.268   2.837  10.643  0.6126 -0.0822 -0.0383
  440MOL0     C59272   5.188   2.856  10.753 -0.0200 -0.0654  0.1658
  440MOL0     O59273   5.069   2.797  10.767  0.0219 -0.2841 -0.2882
  440MOL0     C59274   4.950   2.875  10.766  0.9801 -0.4309 -0.1676
  440MOL0     C59275   4.906   2.885  10.624  0.2795 -0.6794  0.0563
  440MOL0     C59276   4.756   2.928  10.619  0.5474  0.1294  0.2609
  440MOL0     C59277   4.696   2.874  10.490 -0.4038  0.1424  0.2948
  440MOL0     C59278   4.546   2.915  10.475  0.0417  0.6842  0.2969
  440MOL0     C59279   4.468   2.816  10.386  0.0462 -0.3951  0.1924
  440MOL0     C59280   4.378   2.903  10.292 -0.2163 -0.4707 -0.2273
  440MOL0     C59281   4.258   2.962  10.378 -0.3140  0.5841  0.7120
  440MOL0     N59282   4.203   3.079  10.311  0.1332  0.1922 -0.3696
  440MOL0     C59283   4.173   3.094  10.178 -0.1340 -0.2341 -0.4112
  440MOL0     C59284   4.110   3.215  10.165  0.3340 -0.5882  0.4992
  440MOL0     C59285   4.071   3.266  10.027  0.1314 -1.1006 -1.2993
  440MOL0     C59286   3.981   3.384  10.022 -0.5128 -1.0517  0.4584
  440MOL0     C59287   3.916   3.407   9.893  0.5188  0.4123  0.4441
  440MOL0     C59288   3.985   3.399   9.764 -0.0455  1.2341 -0.8793
  440MOL0     O59289   4.108   3.464   9.753  0.2803 -0.5371  0.0808
  440MOL0     C59290   4.169   3.490   9.635  0.1623  0.9357 -0.1311
  440MOL0     C59291   4.267   3.587   9.630 -0.4350 -0.1355  0.1643
  440MOL0     C59292   4.327   3.627   9.514  0.3230 -1.4681 -0.6040
  440MOL0     C59293   4.292   3.574   9.397  1.6073  0.6341  0.3339
  440MOL0     C59294   4.354   3.597   9.264  0.9085 -0.1600  0.1170
  440MOL0     O59295   4.464   3.679   9.268  0.3597  0.5323 -0.3738
  440MOL0     C59296   4.523   3.701   9.138  0.1033 -0.0357  0.2026
  440MOL0     C59297   4.458   3.759   9.024 -1.0527  0.1623  0.1837
  440MOL0     C59298   4.526   3.802   8.907 -0.2043  0.5298  0.7058
  440MOL0     C59299   4.668   3.786   8.901  0.0134 -1.3282 -0.8944
  440MOL0     O59300   4.744   3.830   8.796  0.7958  0.4708  0.0679
  440MOL0     C59301   4.790   3.731   8.695  0.4912  0.2866 -0.6797
  440MOL0     C59302   4.685   3.726   8.590  0.6223 -0.2510  0.6969
  440MOL0     C59303   4.654   3.854   8.517  0.0705 -0.6909  0.1342
  440MOL0     C59304   4.553   3.834   8.400  0.5740  0.6846 -0.4005
  440MOL0     C59305   4.441   3.944   8.388 -0.8589 -0.0139  0.0034
  440MOL0     C59306   4.331   3.940   8.300 -0.2176  0.4119  0.6020
  440MOL0     C59307   4.294   3.801   8.262  0.0571 -0.5290  0.2697
  440MOL0     C59308   4.169   3.801   8.176  0.0992  0.2451 -1.1359
  440MOL0    Cl59309   4.125   3.629   8.140 -0.1219  0.1151 -0.0327
  440MOL0     C59310   4.728   3.723   9.011  0.2378  1.1091  1.2486
  440MOL0     C59311   4.659   3.686   9.125  0.2752  0.2196 -0.0308
  440MOL0     O59312   4.311   3.542   9.165  0.1418  0.6797  1.1268
  440MOL0     C59313   4.192   3.468   9.396  0.0452  0.1264 -0.8458
  440MOL0     C59314   4.146   3.426   9.518  1.0109  0.4151  0.4691
  440MOL0     N59315   4.130   3.279  10.288  0.4447  0.4368 -0.5532
  440MOL0     N59316   4.174   3.203  10.373  0.6470  0.2969 -0.3156
  440MOL0     C59317   5.240   2.932  10.858 -0.6374 -0.5527  1.0073
  440MOL0     C59318   5.361   3.002  10.843  0.2767 -1.0974  0.1621
  440MOL0     C59319   5.702   3.210  10.583 -0.4058 -0.1066  0.2210
  440MOL0     C59320   5.716   3.343  10.539 -0.1537 -0.4311  0.1663
  440MOL0     C59321   5.833   3.385  10.473  0.0248 -0.2681  0.1988
  440MOL0     C59322   5.942   3.294  10.468  0.1617  0.2262  0.2822
  440MOL0     O59323   6.071   3.318  10.429  0.3722 -0.3470  0.6352
  440MOL0     C59324   6.111   3.440  10.369  0.1458 -0.9102 -0.6876
  440MOL0     C59325   6.236   3.421  10.286  0.3476 -0.0398 -0.2035
  440MOL0     C59326   6.351   3.366  10.367 -0.7958  0.2274  0.2161
  440MOL0     C59327   6.489   3.403  10.294  0.8784 -0.3967 -0.0697
  440MOL0     C59328   6.588   3.323  10.363 -1.4843 -0.2355  0.7308
  440MOL0     C59329   6.678   3.266  10.425 -0.0881 -0.4321  0.8124
  440MOL0     C59330   5.931   3.175  10.525 -0.3927 -0.0395  0.0196
  440MOL0     C59331   5.811   3.122  10.570 -1.1440 -0.5138 -0.5398
  440MOL0     C59332   5.804   2.970  10.587 -0.5369 -0.3873 -0.1219
  440MOL0     H59333   5.442   2.899  10.533  3.9952  1.0223  1.8706
  440MOL0     H59334   5.227   2.772  10.566  1.6764  0.8309 -1.4345
  440MOL0     H59335   4.869   2.823  10.817  0.6144  0.1573 -0.1392
  440MOL0     H59336   4.963   2.973  10.812 -0.2424  1.3134 -3.2143
  440MOL0     H59337   4.923   2.787  10.580  1.7838 -1.6307  2.5318
  440MOL0     H59338   4.963   2.959  10.568  0.6156 -0.2740  0.9096
  440MOL0     H59339   4.740   3.034  10.636  2.2415  0.2096  1.7247
  440MOL0     H59340   4.703   2.874  10.699  0.3690 -1.6570 -1.0127
  440MOL0     H59341   4.755   2.897  10.401 -0.3437  2.4867  0.8746
  440MOL0     H59342   4.697   2.766  10.505  0.2143 -0.6882 -4.2855
  440MOL0     H59343   4.500   2.922  10.575  0.3076  1.4741  0.3733
  440MOL0     H59344   4.556   3.013  10.428 -3.5636  0.6755 -0.7698
  440MOL0     H59345   4.541   2.755  10.333 -1.9303 -0.0141 -3.2450
  440MOL0     H59346   4.406   2.740  10.437  0.2178 -0.7213 -0.0799
  440MOL0     H59347   4.342   2.842  10.209  1.5111  1.3013 -2.4164
  440MOL0     H59348   4.431   2.988  10.248 -1.8981 -0.2423 -1.9605
  440MOL0     H59349   4.181   2.886  10.395  1.4544 -1.2308  1.0584
  440MOL0     H59350   4.289   3.001  10.476 -1.5268  1.6008  0.7232
  440MOL0     H59351   4.187   3.019  10.101  3.0899  2.6374 -2.9836
  440MOL0     H59352   4.158   3.311   9.980 -1.5746  4.5912  0.2667
  440MOL0     H59353   4.030   3.176   9.979 -1.0004 -1.9304  1.0654
  440MOL0     H59354   3.906   3.390  10.102 -0.5803 -0.3810  0.3494
  440MOL0     H59355   4.028   3.481  10.043 -3.5736  0.5405  0.5723
  440MOL0     H59356   3.879   3.509   9.898 -0.0078  0.2209  0.5846
  440MOL0     H59357   3.832   3.336   9.887 -0.2239  1.3234 -0.3206
  440MOL0     H59358   3.919   3.431   9.683 -2.3390  1.8611  1.0863
  440MOL0     H59359   3.998   3.294   9.739  0.6169  0.7040  1.4185
  440MOL0     H59360   4.278   3.623   9.732 -0.4585  2.6072 -0.7178
  440MOL0     H59361   4.404   3.704   9.516  0.3530 -1.5159  0.5950
  440MOL0     H59362   4.353   3.772   9.044 -1.9065  2.0162 -4.2682
  440MOL0     H59363   4.475   3.854   8.827 -1.0443  0.3167  1.0914
  440MOL0     H59364   4.877   3.766   8.639 -0.4755 -1.5310 -3.5438
  440MOL0     H59365   4.795   3.626   8.724  0.7085 -0.0579 -1.9132
  440MOL0     H59366   4.722   3.653   8.517  4.4092  2.9927 -1.0651
  440MOL0     H59367   4.588   3.691   8.627  0.7934  0.5222  1.9328
  440MOL0     H59368   4.610   3.929   8.583  0.3109 -1.2289  0.9186
  440MOL0     H59369   4.748   3.887   8.471  0.7067  1.8126  2.9383
  440MOL0     H59370   4.505   3.738   8.422  1.6587  0.3562  0.6760
  440MOL0     H59371   4.611   3.830   8.307 -1.0527  0.8072 -1.4625
  440MOL0     H59372   4.502   4.028   8.354 -3.1428  0.4530 -3.5323
  440MOL0     H59373   4.402   3.966   8.488 -1.6111  2.4932 -0.7604
  440MOL0     H59374   4.243   3.994   8.336  1.8378  3.1169  1.9509
  440MOL0     H59375   4.371   3.992   8.212  4.3972 -2.7409  0.5005
  440MOL0     H59376   4.280   3.732   8.345  1.7276 -0.7419  0.4048
  440MOL0     H59377   4.375   3.752   8.206  0.2952  1.2589 -1.0587
  440MOL0     H59378   4.091   3.841   8.241  1.1677  3.1905 -1.5259
  440MOL0     H59379   4.171   3.870   8.092 -1.2793  2.4464  0.5299
  440MOL0     H59380   4.833   3.696   9.000 -0.2268 -0.4421  0.3684
  440MOL0     H59381   4.715   3.648   9.209 -2.5121 -0.3163  1.7247
  440MOL0     H59382   4.151   3.410   9.314  1.3997  2.4762 -3.3402
  440MOL0     H59383   4.069   3.351   9.527 -0.7408  2.1963  0.9273
  440MOL0     H59384   5.171   2.925  10.942 -1.2925  2.8330  0.8750
  440MOL0     H59385   5.384   3.073  10.922 -2.1136  1.4684 -1.2485
  440MOL0     H59386   5.642   3.417  10.569  5.0304  3.5042  5.3992
  440MOL0     H59387   5.839   3.485  10.432 -0.9725  0.1673  1.0737
  440MOL0     H59388   6.134   3.507  10.452 -3.0263  2.3820 -2.1616
  440MOL0     H59389   6.041   3.486  10.298  2.4710  2.9219 -0.7563
  440MOL0     H59390   6.259   3.519  10.244 -3.4403  1.7434  1.4156
  440MOL0     H59391   6.207   3.350  10.208  0.4506 -0.4775  0.1492
  440MOL0     H59392   6.345   3.261  10.398 -3.2090  0.5844  1.1650
  440MOL0     H59393   6.353   3.426  10.458  2.4803 -0.5372  0.7632
  440MOL0     H59394   6.480   3.377  10.188 -0.0059  2.8412 -0.9055
  440MOL0     H59395   6.526   3.506  10.287 -2.6643  1.3159  3.0853
  440MOL0     H59396   6.753   3.218  10.484  1.2458  0.0458 -0.4108
  440MOL0     H59397   6.019   3.112  10.536  2.6210  3.8407  0.1722
  440MOL0     H59398   5.801   2.953  10.695  2.1673  1.2840  0.3195
  440MOL0     H59399   5.708   2.933  10.549 -0.4601  0.7920 -1.5515
  440MOL0     H59400   5.890   2.917  10.547 -2.1151 -2.6562 -0.6713
  441MOL0     O59401  11.036   2.308  10.242  0.1471  0.2743 -0.4473
  441MOL0     C59402  11.074   2.223  10.161 -0.4730 -0.7123  0.6731
  441MOL0     O59403  11.199   2.174  10.156  1.3441  0.8808  0.6666
  441MOL0     C59404  11.288   2.190  10.256 -0.4362  0.6669  0.5079
  441MOL0     C59405  11.250   2.172  10.393  0.2401 -0.2596  0.6717
  441MOL0     C59406  11.344   2.197  10.500  0.0686 -0.0387 -0.3940
  441MOL0     C59407  11.480   2.222  10.471  0.1063  0.1975  0.7935
  441MOL0     O59408  11.579   2.222  10.567  0.3274  0.8245 -0.3265
  441MOL0     C59409  11.536   2.236  10.701 -0.2589 -0.1268 -0.2310
  441MOL0     C59410  11.656   2.260  10.791 -0.0943  0.4000  0.0068
  441MOL0     C59411  11.619   2.217  10.936  0.4636 -0.1432 -0.0533
  441MOL0     C59412  11.580   2.336  11.022  0.7992 -0.4259 -0.2906
  441MOL0     C59413  11.620   2.300  11.181 -0.3242 -0.0652  1.0153
  441MOL0     C59414  11.764   2.312  11.223 -0.6533  0.2577  0.4569
  441MOL0     C59415  11.817   2.243  11.348  0.2811 -0.8978  0.0637
  441MOL0     C59416  11.799   2.332  11.478 -0.4525  0.5909 -0.2330
  441MOL0     N59417  11.661   2.332  11.507 -0.3090  1.1326  0.7443
  441MOL0     C59418  11.582   2.444  11.480 -0.2382  0.0699 -0.3633
  441MOL0     C59419  11.452   2.393  11.492 -0.4471 -0.2006 -0.7101
  441MOL0     C59420  11.325   2.471  11.469  0.3408  0.4298 -0.6215
  441MOL0     C59421  11.317   2.534  11.333 -0.1245  0.6883 -0.3654
  441MOL0     C59422  11.200   2.638  11.316  0.0008  0.1767  0.1503
  441MOL0     C59423  11.071   2.560  11.328 -0.2898  0.1721 -0.5695
  441MOL0     O59424  10.977   2.622  11.239  0.6735  0.1443 -0.3313
  441MOL0     C59425  10.830   2.611  11.263 -0.3600 -0.3404 -0.4376
  441MOL0     C59426  10.747   2.701  11.184 -0.0254  0.3027 -0.2848
  441MOL0     C59427  10.613   2.705  11.204  0.0358 -0.4153 -0.2494
  441MOL0     C59428  10.548   2.629  11.301  0.3013  0.6552 -0.9132
  441MOL0     C59429  10.399   2.636  11.316 -0.8252  0.5741  0.6660
  441MOL0     O59430  10.340   2.746  11.259 -1.2758  0.5024 -0.4194
  441MOL0     C59431  10.205   2.742  11.248  0.1870  0.2126 -0.3080
  441MOL0     C59432  10.140   2.649  11.158  0.2484  0.0035 -0.4963
  441MOL0     C59433  10.005   2.624  11.157  0.6814  0.5016  0.7718
  441MOL0     C59434   9.922   2.696  11.246  0.6436 -0.0988 -0.5502
  441MOL0     O59435   9.789   2.667  11.252  0.0694  0.0646 -0.5150
  441MOL0     C59436   9.712   2.709  11.371 -0.1886  0.2633 -0.0387
  441MOL0     C59437   9.751   2.632  11.493  0.5526  0.2342 -0.4387
  441MOL0     C59438   9.720   2.489  11.477 -0.5677  0.2580 -0.1510
  441MOL0     C59439   9.851   2.409  11.488 -0.7220  0.5426  0.9787
  441MOL0     C59440   9.818   2.268  11.495  1.2740  0.1740 -0.6145
  441MOL0     C59441   9.913   2.187  11.581 -0.2324  0.3164 -0.5576
  441MOL0     C59442   9.863   2.036  11.602 -1.6866 -0.4664  0.3521
  441MOL0     C59443   9.963   1.957  11.681  0.0914  0.4781 -0.3116
  441MOL0    Cl59444  10.112   1.922  11.592 -0.5322  0.2167 -0.5370
  441MOL0     C59445   9.980   2.800  11.327 -0.7561  0.5611  0.5919
  441MOL0     C59446  10.118   2.820  11.319  0.2154 -0.4771 -0.7743
  441MOL0     O59447  10.348   2.555  11.395 -0.2966 -0.0239 -0.8014
  441MOL0     C59448  10.630   2.553  11.386  0.0765 -0.2332 -0.1108
  441MOL0     C59449  10.773   2.550  11.367  0.5122 -0.1091 -0.4144
  441MOL0     N59450  11.459   2.256  11.534 -0.0603  0.4032 -0.2667
  441MOL0     N59451  11.583   2.221  11.540  0.8519  0.3075 -0.7550
  441MOL0     C59452  11.511   2.238  10.333 -1.2603  0.1422  0.7170
  441MOL0     C59453  11.419   2.213  10.225 -0.9013  1.0262 -0.3430
  441MOL0     C59454  10.971   2.153  10.079  0.4752 -0.6002  1.2392
  441MOL0     C59455  11.023   2.052  10.003 -0.1257  0.5721 -1.6807
  441MOL0     C59456  10.943   1.964   9.932  0.2010 -0.1655 -0.2462
  441MOL0     C59457  10.798   1.976   9.936 -0.9994  0.0944 -0.8158
  441MOL0     O59458  10.718   1.874   9.881  0.3485 -0.2897  0.0570
  441MOL0     C59459  10.742   1.741   9.940 -0.5787 -0.2122  0.3045
  441MOL0     C59460  10.602   1.679   9.967 -0.4446 -0.1033 -0.1765
  441MOL0     C59461  10.632   1.527   9.961  0.5508  1.1976  0.0345
  441MOL0     C59462  10.514   1.450  10.026 -0.7047 -0.1913  0.3924
  441MOL0     C59463  10.403   1.446   9.941 -0.5811 -0.9284  0.7600
  441MOL0     C59464  10.304   1.446   9.874  0.4812  0.4219  0.1956
  441MOL0     C59465  10.743   2.085  10.010  0.7580 -0.8316 -0.5738
  441MOL0     C59466  10.827   2.175  10.072 -0.0445  0.4160 -0.6898
  441MOL0     C59467  10.765   2.291  10.164 -0.1355 -0.2122  1.5110
  441MOL0     H59468  11.145   2.149  10.410 -0.3062  2.1108  0.8458
  441MOL0     H59469  11.309   2.186  10.602  3.8420 -0.5641  1.0207
  441MOL0     H59470  11.474   2.325  10.714  4.7938  3.7303  0.6930
  441MOL0     H59471  11.490   2.143  10.737 -0.2284  0.6514  2.0251
  441MOL0     H59472  11.699   2.360  10.781  2.6934 -0.5120  1.6559
  441MOL0     H59473  11.740   2.201  10.752  0.5797  2.1156 -1.2741
  441MOL0     H59474  11.712   2.174  10.975 -0.1727  0.7828  2.7235
  441MOL0     H59475  11.542   2.140  10.936 -1.4824  1.6660 -1.1924
  441MOL0     H59476  11.639   2.423  10.995  0.0323 -0.5059 -2.3633
  441MOL0     H59477  11.471   2.346  11.013  0.7920  1.8566  1.3032
  441MOL0     H59478  11.561   2.372  11.238  0.1489 -0.1263  1.5920
  441MOL0     H59479  11.586   2.198  11.201  0.2989 -0.2643  1.0853
  441MOL0     H59480  11.837   2.278  11.148  0.1830 -0.9958  1.7744
  441MOL0     H59481  11.797   2.416  11.231  1.5118 -0.1570 -1.6656
  441MOL0     H59482  11.926   2.238  11.339  0.4393  0.9464  0.6675
  441MOL0     H59483  11.777   2.141  11.347 -1.1139 -0.4895  3.1403
  441MOL0     H59484  11.851   2.285  11.562 -1.4581  0.5216  0.3594
  441MOL0     H59485  11.851   2.427  11.463 -2.9294  1.9475 -0.6556
  441MOL0     H59486  11.594   2.549  11.452  2.4496 -0.0024  0.2434
  441MOL0     H59487  11.237   2.409  11.482  0.3960  0.5473  0.3955
  441MOL0     H59488  11.329   2.553  11.542  0.2702 -0.7288  0.7224
  441MOL0     H59489  11.412   2.584  11.316 -0.2195  1.2293  0.6170
  441MOL0     H59490  11.316   2.460  11.253 -0.5255  0.1285  0.1421
  441MOL0     H59491  11.221   2.685  11.219  1.0330  2.1873  1.2658
  441MOL0     H59492  11.210   2.716  11.392  0.7968  1.4412 -1.1765
  441MOL0     H59493  11.042   2.553  11.433  1.9664  4.4906  0.5900
  441MOL0     H59494  11.073   2.457  11.294 -2.2828 -0.7039  1.6885
  441MOL0     H59495  10.794   2.766  11.111 -0.1057  0.3315 -0.3111
  441MOL0     H59496  10.554   2.781  11.154 -2.5694 -0.3015  2.6682
  441MOL0     H59497  10.192   2.600  11.076 -0.6670  0.1982 -1.2082
  441MOL0     H59498   9.973   2.553  11.081 -2.1545  0.2301  2.0889
  441MOL0     H59499   9.739   2.813  11.390  2.8034 -0.2213 -1.0939
  441MOL0     H59500   9.607   2.714  11.342  0.4373  1.0914 -2.3688
  441MOL0     H59501   9.855   2.654  11.517 -0.2491  3.2931  0.7191
  441MOL0     H59502   9.688   2.665  11.576 -0.3478 -0.6546 -0.7418
  441MOL0     H59503   9.660   2.454  11.562  0.5091  0.9146  0.9060
  441MOL0     H59504   9.666   2.475  11.383  0.6881  0.2058 -0.8784
  441MOL0     H59505   9.912   2.437  11.575 -0.9622  3.6170  0.2931
  441MOL0     H59506   9.919   2.415  11.402  2.3120 -0.3909  3.1365
  441MOL0     H59507   9.807   2.232  11.391  1.1769 -0.4361 -0.4016
  441MOL0     H59508   9.719   2.246  11.536  1.5264 -0.4469 -0.3231
  441MOL0     H59509  10.009   2.196  11.529  0.5835  2.4159  1.1604
  441MOL0     H59510   9.938   2.222  11.681  1.3330  0.7412 -1.0670
  441MOL0     H59511   9.859   1.984  11.506 -0.6409 -2.6410  1.4154
  441MOL0     H59512   9.765   2.030  11.651 -1.1453  1.7139  1.8911
  441MOL0     H59513   9.990   2.006  11.775  1.2769 -0.0971 -0.3309
  441MOL0     H59514   9.922   1.858  11.702  1.4729 -0.0589 -0.0224
  441MOL0     H59515   9.925   2.859  11.398 -0.7719 -0.5294  1.5169
  441MOL0     H59516  10.142   2.904  11.384  2.2068 -1.7268  0.2229
  441MOL0     H59517  10.593   2.493  11.468 -1.4822 -0.4412 -0.9295
  441MOL0     H59518  10.812   2.488  11.447 -1.1975  1.3227  1.6605
  441MOL0     H59519  11.607   2.288  10.326 -1.3507  0.8714  3.6479
  441MOL0     H59520  11.444   2.218  10.120 -0.9421 -2.7578 -0.6710
  441MOL0     H59521  11.130   2.038   9.989 -0.3167 -2.3252 -0.9769
  441MOL0     H59522  10.991   1.882   9.880  1.3712  1.1891 -1.4005
  441MOL0     H59523  10.810   1.745  10.025  0.9832  1.8384 -0.9275
  441MOL0     H59524  10.805   1.687   9.870 -0.2353  0.3585  0.1606
  441MOL0     H59525  10.531   1.716   9.893 -0.4840  0.9007  0.3516
  441MOL0     H59526  10.551   1.714  10.057  0.0358  0.6390 -0.1879
  441MOL0     H59527  10.722   1.512  10.020  1.5895 -0.3879 -1.8118
  441MOL0     H59528  10.658   1.495   9.859  4.6079 -1.7469  1.7280
  441MOL0     H59529  10.541   1.346  10.047  2.7561  1.2016  4.2054
  441MOL0     H59530  10.490   1.498  10.121  0.8082 -1.3296  1.4041
  441MOL0     H59531  10.212   1.459   9.821  1.4387 -1.3094 -2.0343
  441MOL0     H59532  10.636   2.095  10.029  0.5139 -1.2101 -1.6679
  441MOL0     H59533  10.664   2.306  10.124  0.4428 -0.4119 -0.0778
  441MOL0     H59534  10.775   2.270  10.271 -0.0428 -1.1995  1.3218
  441MOL0     H59535  10.818   2.385  10.146 -1.8745  0.7090  0.9704
  442MOL0     O59536   2.856   4.551  11.309 -0.6139 -0.3723  0.9051
  442MOL0     C59537   2.753   4.611  11.347  1.1461  0.0542 -0.4726
  442MOL0     O59538   2.645   4.653  11.268  0.4135  0.0897  0.4039
  442MOL0     C59539   2.664   4.663  11.132 -0.4659 -0.1090 -0.3845
  442MOL0     C59540   2.655   4.550  11.048  2.0809  0.0681 -0.2972
  442MOL0     C59541   2.695   4.556  10.916 -0.3575 -0.5884 -0.9768
  442MOL0     C59542   2.734   4.679  10.867 -0.5663 -0.2214  0.6218
  442MOL0     O59543   2.792   4.671  10.735 -0.1552 -0.2099 -1.0252
  442MOL0     C59544   2.888   4.771  10.689  0.8784  0.8155 -0.0455
  442MOL0     C59545   2.944   4.719  10.552  0.3062 -0.2783  0.0204
  442MOL0     C59546   3.084   4.764  10.536 -0.8204 -0.2825  0.1931
  442MOL0     C59547   3.152   4.723  10.406  0.0788  0.2899  0.5561
  442MOL0     C59548   3.302   4.766  10.410 -0.0717  0.9276  1.0593
  442MOL0     C59549   3.334   4.917  10.409  0.0860 -0.2273 -0.1015
  442MOL0     C59550   3.282   4.998  10.290  0.9581  0.3026  0.1669
  442MOL0     C59551   3.386   5.068  10.211  0.3669 -0.2874  0.3793
  442MOL0     N59552   3.444   5.192  10.268 -0.4558  0.6610  0.2006
  442MOL0     C59553   3.403   5.316  10.241 -0.0929 -0.9244  1.0893
  442MOL0     C59554   3.499   5.396  10.298  0.9744 -0.6652 -0.8725
  442MOL0     C59555   3.501   5.540  10.306 -0.0954  0.0647  0.2663
  442MOL0     C59556   3.541   5.613  10.173 -0.5285 -0.0075 -0.0412
  442MOL0     C59557   3.690   5.649  10.179  0.8728 -0.6058  0.4725
  442MOL0     C59558   3.726   5.723  10.045  1.2039  0.0796  0.3646
  442MOL0     O59559   3.650   5.833   9.998  0.3084 -0.0805  0.0449
  442MOL0     C59560   3.668   5.944  10.062 -0.5316 -1.0866 -0.4883
  442MOL0     C59561   3.795   6.001  10.105  0.1218  0.2363 -0.4329
  442MOL0     C59562   3.796   6.095  10.210  0.3747  0.2869  0.6513
  442MOL0     C59563   3.673   6.158  10.250 -0.5535  0.5341 -0.0010
  442MOL0     C59564   3.675   6.260  10.357 -0.2867 -0.6153  1.0982
  442MOL0     O59565   3.556   6.337  10.380 -0.1605  0.3189  0.2206
  442MOL0     C59566   3.556   6.444  10.473  0.0827 -0.0754  1.2542
  442MOL0     C59567   3.628   6.437  10.593  0.6544 -0.6321 -1.3246
  442MOL0     C59568   3.619   6.546  10.676  0.0521 -0.4574 -0.1659
  442MOL0     C59569   3.560   6.673  10.635 -0.0231 -0.3472 -0.2970
  442MOL0     O59570   3.559   6.773  10.731 -0.3331  0.7045  0.5796
  442MOL0     C59571   3.491   6.897  10.694  0.6061  1.2339  0.5872
  442MOL0     C59572   3.337   6.885  10.724 -0.0589 -0.8870 -0.5071
  442MOL0     C59573   3.284   7.026  10.681 -0.8909 -0.2554  0.4601
  442MOL0     C59574   3.129   7.018  10.653  0.0792 -0.3461  0.3798
  442MOL0     C59575   3.055   7.148  10.643 -0.3073 -0.1339 -0.0711
  442MOL0     C59576   3.056   7.211  10.500 -0.3240  0.3407  0.2284
  442MOL0     C59577   2.993   7.343  10.501  0.0824 -0.2820 -0.0504
  442MOL0     C59578   2.947   7.364  10.350 -1.1871 -0.1034 -0.6542
  442MOL0    Cl59579   2.862   7.525  10.365 -0.3587 -0.3235 -0.2375
  442MOL0     C59580   3.497   6.679  10.510  0.0797 -0.1142 -0.0034
  442MOL0     C59581   3.495   6.566  10.434 -0.1991  0.4756  0.5303
  442MOL0     O59582   3.788   6.293  10.389  0.3739 -0.4937 -0.2050
  442MOL0     C59583   3.561   6.116  10.191  0.8717 -0.5658 -0.2359
  442MOL0     C59584   3.551   6.006  10.107  0.0154 -0.4698 -0.7618
  442MOL0     N59585   3.582   5.311  10.366  0.0814  0.4391  0.2964
  442MOL0     N59586   3.553   5.194  10.346  0.1286 -0.0738  0.3758
  442MOL0     C59587   2.744   4.794  10.951 -0.9287 -0.5192  1.1113
  442MOL0     C59588   2.700   4.785  11.083 -0.6137 -0.8517  0.2402
  442MOL0     C59589   2.747   4.631  11.501  0.5370  0.8195  0.8213
  442MOL0     C59590   2.658   4.723  11.551  0.9574 -0.0139  0.6438
  442MOL0     C59591   2.638   4.742  11.689  0.7231 -0.1257  0.3282
  442MOL0     C59592   2.697   4.664  11.784 -0.0879 -0.3214 -0.2223
  442MOL0     O59593   2.682   4.685  11.921  0.1003  0.0291  0.7144
  442MOL0     C59594   2.774   4.785  11.967 -0.0764 -0.0404  0.0271
  442MOL0     C59595   2.693   4.861  12.079 -0.6693  0.7911  1.1251
  442MOL0     C59596   2.785   4.954  12.168 -0.4009  0.7676  0.5964
  442MOL0     C59597   2.797   5.101  12.142 -0.0682 -0.3971  0.7916
  442MOL0     C59598   2.881   5.139  12.031  0.5599  0.3102  0.2917
  442MOL0     C59599   2.952   5.198  11.949  0.2985  1.0857  0.4383
  442MOL0     C59600   2.785   4.564  11.729 -1.0236  0.6503  0.3536
  442MOL0     C59601   2.816   4.555  11.593  0.6032  1.0807 -0.0645
  442MOL0     C59602   2.923   4.458  11.554 -0.3546  0.7564 -0.4913
  442MOL0     H59603   2.609   4.463  11.095 -0.3489  2.5587  2.3357
  442MOL0     H59604   2.691   4.478  10.841 -2.4779 -0.3720 -1.1503
  442MOL0     H59605   2.832   4.864  10.673 -3.0148 -1.5068 -1.1076
  442MOL0     H59606   2.963   4.768  10.768 -3.3423 -0.3246  4.4058
  442MOL0     H59607   2.892   4.744  10.459 -2.8435 -0.8708  1.4562
  442MOL0     H59608   2.937   4.609  10.555 -3.5593 -0.2226  3.4032
  442MOL0     H59609   3.125   4.730  10.631  0.0699 -0.4813 -0.2551
  442MOL0     H59610   3.081   4.872  10.522  0.8268 -0.1553  0.6399
  442MOL0     H59611   3.143   4.616  10.388  0.4214  0.5605 -1.4064
  442MOL0     H59612   3.108   4.777  10.322  1.6934  0.4039 -0.2513
  442MOL0     H59613   3.354   4.736  10.502 -1.3274  5.5653  3.5915
  442MOL0     H59614   3.345   4.709  10.327 -1.7118  0.9513  0.1613
  442MOL0     H59615   3.310   4.951  10.510  1.4237  0.0753  0.1306
  442MOL0     H59616   3.442   4.930  10.412  0.3971 -2.4804  1.3536
  442MOL0     H59617   3.212   5.077  10.318 -0.7368 -0.4921 -1.6134
  442MOL0     H59618   3.225   4.931  10.225  0.7293  1.4209 -0.8209
  442MOL0     H59619   3.465   5.000  10.180  2.0932  2.6108 -2.1766
  442MOL0     H59620   3.349   5.107  10.116  2.8533 -1.2677 -1.0804
  442MOL0     H59621   3.332   5.356  10.170  0.0866  0.0652  1.4539
  442MOL0     H59622   3.404   5.579  10.338  1.2595  1.4797  3.0855
  442MOL0     H59623   3.564   5.572  10.389  1.8482  2.3924 -1.9402
  442MOL0     H59624   3.503   5.549  10.093  0.9178 -1.3525  0.2885
  442MOL0     H59625   3.494   5.712  10.174 -3.3856 -1.1652 -3.2055
  442MOL0     H59626   3.741   5.556  10.202 -1.4439 -1.2993  3.4625
  442MOL0     H59627   3.702   5.716  10.265 -1.2149 -0.6458  0.8471
  442MOL0     H59628   3.704   5.651   9.966  1.3323  1.3981 -0.9193
  442MOL0     H59629   3.832   5.750  10.041  1.1114  0.2937 -1.9319
  442MOL0     H59630   3.890   5.951  10.091 -1.4272 -3.5942  1.3106
  442MOL0     H59631   3.889   6.111  10.262  1.7466  1.0803 -1.8845
  442MOL0     H59632   3.683   6.350  10.627  3.1049  1.7880  1.4667
  442MOL0     H59633   3.669   6.563  10.771 -0.4047  1.6932 -0.2557
  442MOL0     H59634   3.535   6.958  10.773 -0.2206  1.3832  0.9435
  442MOL0     H59635   3.518   6.948  10.601  2.2758 -1.5869 -0.6129
  442MOL0     H59636   3.291   6.806  10.665 -0.5202  0.2733 -1.7679
  442MOL0     H59637   3.311   6.874  10.830  1.0756  2.0927  0.1891
  442MOL0     H59638   3.296   7.090  10.768  0.2823  0.9926 -0.5708
  442MOL0     H59639   3.332   7.075  10.596 -2.1275 -0.5589 -0.4432
  442MOL0     H59640   3.092   6.959  10.737 -1.5716  0.4783  0.2615
  442MOL0     H59641   3.122   6.970  10.555  1.7668  0.6685 -0.2901
  442MOL0     H59642   3.090   7.230  10.706 -2.8200  0.7843  0.2631
  442MOL0     H59643   2.948   7.138  10.663 -0.6076  2.2778 -0.2115
  442MOL0     H59644   3.161   7.214  10.470 -0.2885 -2.8839 -0.3325
  442MOL0     H59645   3.002   7.143  10.433 -0.4845  0.0695  0.6300
  442MOL0     H59646   3.051   7.429  10.536  1.3923 -0.5865 -1.3403
  442MOL0     H59647   2.907   7.339  10.568  1.3877  0.2334  1.7231
  442MOL0     H59648   3.040   7.367  10.294  1.7863 -1.2479  3.6712
  442MOL0     H59649   2.886   7.283  10.310 -1.9256 -0.5217  1.1922
  442MOL0     H59650   3.461   6.769  10.463  3.9527  2.0422  0.6871
  442MOL0     H59651   3.457   6.577  10.333 -0.4071 -1.4624  0.3690
  442MOL0     H59652   3.465   6.166  10.198  1.2500  0.8989 -3.4976
  442MOL0     H59653   3.457   5.959  10.083 -1.8447 -1.1447  5.8443
  442MOL0     H59654   2.796   4.876  10.902  1.4631 -2.6127 -0.0858
  442MOL0     H59655   2.702   4.873  11.146  0.0523  0.5716 -1.6951
  442MOL0     H59656   2.599   4.786  11.485 -1.9346 -1.6770  1.4387
  442MOL0     H59657   2.565   4.813  11.726  2.1066 -0.3514  3.8788
  442MOL0     H59658   2.815   4.848  11.888 -0.8564  0.8921  0.3491
  442MOL0     H59659   2.872   4.741  11.989  1.7834  2.4600 -2.5690
  442MOL0     H59660   2.670   4.775  12.144  0.7341  0.1440  0.7909
  442MOL0     H59661   2.600   4.912  12.050 -0.4738  1.0858  1.0195
  442MOL0     H59662   2.884   4.909  12.165  0.2684  2.0230  2.2890
  442MOL0     H59663   2.750   4.938  12.271  2.0496  1.6676  1.6249
  442MOL0     H59664   2.703   5.154  12.125  1.4335  1.7446 -1.4451
  442MOL0     H59665   2.856   5.143  12.224  0.1651  0.9889 -0.0674
  442MOL0     H59666   2.995   5.280  11.896 -2.2799  1.8316 -0.6363
  442MOL0     H59667   2.835   4.503  11.804 -0.9132  1.9624  1.3778
  442MOL0     H59668   3.011   4.499  11.504  0.9352 -1.7686 -0.4729
  442MOL0     H59669   2.962   4.394  11.634 -0.6562  0.3965 -0.6280
  442MOL0     H59670   2.879   4.385  11.485  0.1878  0.0402 -0.0966
  443MOL0     O59671   2.938   3.183   0.509 -0.4046 -0.5119 -0.0809
  443MOL0     C59672   2.895   3.224   0.402 -0.5089  0.7108 -0.5764
  443MOL0     O59673   2.952   3.331   0.335  0.5137 -0.5403 -1.2174
  443MOL0     C59674   3.051   3.405   0.378 -0.4254  0.1101 -0.3289
  443MOL0     C59675   3.146   3.456   0.287  0.0528 -0.5871 -0.5810
  443MOL0     C59676   3.246   3.541   0.330 -0.7560  0.1456 -0.3342
  443MOL0     C59677   3.242   3.597   0.453  0.0796 -0.6727  0.0925
  443MOL0     O59678   3.334   3.702   0.475  0.0152  1.1039 -0.3902
  443MOL0     C59679   3.412   3.691   0.593 -0.1264  0.5254 -0.0739
  443MOL0     C59680   3.553   3.733   0.560 -0.3180 -0.3874 -0.7553
  443MOL0     C59681   3.616   3.651   0.453 -0.6420 -0.1882  0.3154
  443MOL0     C59682   3.632   3.504   0.495  0.6696 -0.4232 -0.5415
  443MOL0     C59683   3.694   3.411   0.392  0.2282  0.0674 -0.5974
  443MOL0     C59684   3.682   3.261   0.419  0.2968 -0.1209 -0.3520
  443MOL0     C59685   3.756   3.171   0.309 -1.4894 -0.3519  0.2091
  443MOL0     C59686   3.710   3.194   0.167 -0.0342  0.0695 -0.2623
  443MOL0     N59687   3.570   3.190   0.134 -0.2339  0.8109 -0.2400
  443MOL0     C59688   3.474   3.133   0.210 -0.1035 -0.3069  0.1485
  443MOL0     C59689   3.361   3.159   0.139  0.6383  0.2230 -0.0509
  443MOL0     C59690   3.220   3.121   0.177  0.6938 -0.3984 -0.2479
  443MOL0     C59691   3.177   2.990   0.109  0.2471  1.5529  0.0735
  443MOL0     C59692   3.274   2.871   0.113  0.2257 -0.2931  0.6409
  443MOL0     C59693   3.194   2.739   0.126  0.1701 -0.5282 -0.3380
  443MOL0     O59694   3.107   2.727   0.016  0.9080 -0.1536 -0.2490
  443MOL0     C59695   3.027   2.613  -0.011  0.5773  0.7435  0.7052
  443MOL0     C59696   3.038   2.535  -0.129  0.1702  0.4613  0.0455
  443MOL0     C59697   2.947   2.430  -0.154 -0.5601  0.0195 -0.3042
  443MOL0     C59698   2.867   2.380  -0.060 -0.3481 -0.5036 -0.4244
  443MOL0     C59699   2.776   2.262  -0.089 -1.1345  0.0478 -0.3614
  443MOL0     O59700   2.767   2.223  -0.213  0.3587  0.0597  0.3068
  443MOL0     C59701   2.718   2.092  -0.225 -0.6082 -0.5884  0.2630
  443MOL0     C59702   2.783   1.986  -0.170 -0.1782  0.4655 -0.0218
  443MOL0     C59703   2.741   1.859  -0.208  0.3640 -0.5043  0.0698
  443MOL0     C59704   2.647   1.837  -0.320 -0.7498  0.4813 -2.0099
  443MOL0     O59705   2.617   1.711  -0.368 -0.5677  0.1314  0.1786
  443MOL0     C59706   2.717   1.615  -0.364 -0.9626 -1.0461 -0.4150
  443MOL0     C59707   2.844   1.652  -0.449  0.7303  0.7025 -0.1050
  443MOL0     C59708   2.932   1.532  -0.460  0.2827  0.0663  0.4356
  443MOL0     C59709   3.073   1.575  -0.513 -0.4074 -0.6959  0.7000
  443MOL0     C59710   3.178   1.472  -0.475  0.3422 -0.0585  0.0007
  443MOL0     C59711   3.314   1.522  -0.529 -0.5689  0.4881  0.3854
  443MOL0     C59712   3.420   1.410  -0.499  0.9436 -0.3082  0.3987
  443MOL0     C59713   3.491   1.374  -0.631 -0.5531  0.4104 -0.6583
  443MOL0    Cl59714   3.588   1.219  -0.613  0.0605 -0.1764  0.1249
  443MOL0     C59715   2.583   1.941  -0.370 -0.3357 -0.2151 -0.1824
  443MOL0     C59716   2.626   2.073  -0.324 -0.2239 -0.4241  0.8889
  443MOL0     O59717   2.729   2.205   0.007  0.6304  0.1637 -0.5980
  443MOL0     C59718   2.863   2.452   0.067  0.0403 -0.0298 -0.6469
  443MOL0     C59719   2.933   2.568   0.090 -0.8149  0.2787 -0.3614
  443MOL0     N59720   3.388   3.239   0.035  0.0643  0.5008  0.5450
  443MOL0     N59721   3.513   3.251   0.033  0.2711 -0.5014  0.4882
  443MOL0     C59722   3.140   3.562   0.536  0.1397 -0.3285 -0.7728
  443MOL0     C59723   3.052   3.456   0.508  0.8548  0.6521 -0.1781
  443MOL0     C59724   2.777   3.148   0.343  0.5341 -0.1867  0.0723
  443MOL0     C59725   2.731   3.034   0.410 -0.3308 -0.1867  0.7565
  443MOL0     C59726   2.613   2.960   0.364  0.6387 -0.2904 -0.3925
  443MOL0     C59727   2.534   3.011   0.260 -0.4924  0.4241  0.0368
  443MOL0     O59728   2.414   2.965   0.216  0.4778 -0.0593 -0.8034
  443MOL0     C59729   2.354   2.852   0.262 -1.1082  0.2139 -0.3831
  443MOL0     C59730   2.205   2.866   0.276 -0.5508 -0.1712 -0.0363
  443MOL0     C59731   2.126   2.902   0.152 -0.7069  0.5099  1.6999
  443MOL0     C59732   2.140   2.792   0.042 -0.3195  0.6345  0.7199
  443MOL0     C59733   2.063   2.831  -0.080  0.2989 -0.0242  0.4088
  443MOL0     C59734   1.989   2.873  -0.159  0.4097 -1.2708 -0.5762
  443MOL0     C59735   2.581   3.122   0.193  0.1421 -0.2997 -1.0962
  443MOL0     C59736   2.693   3.194   0.230 -1.0945 -0.3155  1.1340
  443MOL0     C59737   2.729   3.316   0.151  0.1450  0.1565  0.5439
  443MOL0     H59738   3.133   3.427   0.183 -2.2650  2.7041 -1.3788
  443MOL0     H59739   3.323   3.566   0.258  0.9060 -0.4775  1.1598
  443MOL0     H59740   3.382   3.762   0.671  1.9658 -2.2003  3.4737
  443MOL0     H59741   3.396   3.591   0.633  0.3254 -0.3916 -2.0513
  443MOL0     H59742   3.612   3.713   0.650 -1.3956 -4.6546 -0.8143
  443MOL0     H59743   3.559   3.841   0.544 -2.2084 -0.0626  0.4661
  443MOL0     H59744   3.720   3.683   0.439 -1.1518  1.3461 -0.1618
  443MOL0     H59745   3.558   3.657   0.361 -3.4952  2.4788  2.0819
  443MOL0     H59746   3.701   3.499   0.579  2.8388  2.2096 -2.0178
  443MOL0     H59747   3.533   3.466   0.524  0.9518 -0.4125  0.4514
  443MOL0     H59748   3.646   3.430   0.295 -0.5573  1.6048  0.0722
  443MOL0     H59749   3.802   3.427   0.388  0.7139 -1.3797  2.7733
  443MOL0     H59750   3.718   3.238   0.519 -2.2116  0.8349  0.8727
  443MOL0     H59751   3.583   3.214   0.427  0.0201 -0.2203 -3.1742
  443MOL0     H59752   3.737   3.066   0.329 -0.6695 -0.3725  0.9398
  443MOL0     H59753   3.863   3.192   0.318 -2.0010  3.7501 -1.0056
  443MOL0     H59754   3.747   3.295   0.146 -0.7059  0.2731 -0.5143
  443MOL0     H59755   3.768   3.122   0.109  1.6146  1.5923 -0.5850
  443MOL0     H59756   3.478   3.067   0.295  1.2514  0.3416  0.6149
  443MOL0     H59757   3.217   3.108   0.285  0.7176 -2.4435 -0.4601
  443MOL0     H59758   3.163   3.209   0.144  1.5845  0.7358  1.1578
  443MOL0     H59759   3.077   2.963   0.145 -0.5611  0.6107 -2.6417
  443MOL0     H59760   3.171   3.020   0.004  1.3749 -0.2268 -0.5322
  443MOL0     H59761   3.336   2.881   0.202  0.5626  2.2855  0.1937
  443MOL0     H59762   3.343   2.884   0.030 -0.6046  3.5230  0.3331
  443MOL0     H59763   3.152   2.744   0.226  0.0169  1.9547 -0.4516
  443MOL0     H59764   3.260   2.654   0.141  0.9503  0.5474  3.1595
  443MOL0     H59765   3.124   2.562  -0.190 -0.9993 -1.0268 -2.4053
  443MOL0     H59766   2.970   2.389  -0.252 -0.5226  0.3331 -0.4290
  443MOL0     H59767   2.866   1.990  -0.100  1.4025  2.1127 -1.8938
  443MOL0     H59768   2.784   1.767  -0.169  1.3734  0.6979  1.9367
  443MOL0     H59769   2.739   1.584  -0.262  0.6262  0.2417 -0.3218
  443MOL0     H59770   2.676   1.526  -0.413  0.6817 -1.7872 -0.5197
  443MOL0     H59771   2.818   1.703  -0.542  1.3810 -1.6195 -1.6335
  443MOL0     H59772   2.898   1.731  -0.394 -2.8269  1.9609  1.9166
  443MOL0     H59773   2.942   1.487  -0.360 -1.9818 -0.9294  0.2979
  443MOL0     H59774   2.892   1.451  -0.522 -0.0763 -0.4143  1.2781
  443MOL0     H59775   3.097   1.672  -0.470  0.7256 -0.2152 -0.8854
  443MOL0     H59776   3.074   1.578  -0.623  0.0916 -2.8720  0.5921
  443MOL0     H59777   3.152   1.373  -0.513  0.2560  0.4085 -1.2288
  443MOL0     H59778   3.176   1.460  -0.367 -0.3370 -2.1459 -0.1996
  443MOL0     H59779   3.317   1.550  -0.635 -1.2401  1.7793  0.6818
  443MOL0     H59780   3.337   1.614  -0.475 -0.9556  1.2806 -0.7513
  443MOL0     H59781   3.368   1.321  -0.462  1.1823  0.2919  2.2820
  443MOL0     H59782   3.486   1.434  -0.416  1.3566  0.4821 -0.1444
  443MOL0     H59783   3.409   1.362  -0.701 -3.2012  0.0290  2.3030
  443MOL0     H59784   3.554   1.462  -0.647  2.4200 -1.1958  1.2761
  443MOL0     H59785   2.511   1.916  -0.448 -0.4341  2.6879 -1.1604
  443MOL0     H59786   2.572   2.156  -0.368 -2.3330 -1.8200  0.7105
  443MOL0     H59787   2.811   2.406   0.150  0.6887  0.6056  0.1344
  443MOL0     H59788   2.933   2.625   0.182  2.2594  0.0217 -0.1119
  443MOL0     H59789   3.122   3.615   0.629  2.0103 -1.7026  0.4661
  443MOL0     H59790   2.981   3.421   0.582 -0.1712  0.0431 -1.4155
  443MOL0     H59791   2.797   2.995   0.487  2.5266 -1.8098 -2.2621
  443MOL0     H59792   2.571   2.876   0.418  0.0571 -1.2100 -2.2278
  443MOL0     H59793   2.385   2.819   0.362 -0.3323 -0.5258 -0.8536
  443MOL0     H59794   2.381   2.769   0.196 -0.5879 -0.9403  1.2133
  443MOL0     H59795   2.176   2.933   0.357 -1.6614  1.5381 -1.7479
  443MOL0     H59796   2.167   2.769   0.311  0.4294 -0.9774 -1.1386
  443MOL0     H59797   2.173   2.993   0.113  1.3228 -0.9074  0.6428
  443MOL0     H59798   2.020   2.921   0.171 -0.7058  1.9767  0.4332
  443MOL0     H59799   2.241   2.759   0.015 -1.0635 -0.1992 -1.2566
  443MOL0     H59800   2.092   2.701   0.080  0.6515 -0.3036 -0.2418
  443MOL0     H59801   1.915   2.910  -0.228  0.3507  0.1998  0.2405
  443MOL0     H59802   2.530   3.152   0.102 -0.2410  1.7142 -0.2565
  443MOL0     H59803   2.758   3.393   0.224 -0.1212 -0.1531  0.9810
  443MOL0     H59804   2.809   3.290   0.082 -0.5934 -2.0137  0.4396
  443MOL0     H59805   2.640   3.336   0.091  1.4399  2.7066 -0.6844
  444MOL0     O59806   7.659   5.855   5.658 -0.1201 -0.2727 -0.0472
  444MOL0     C59807   7.605   5.820   5.557  0.0635 -0.2250  0.1527
  444MOL0     O59808   7.499   5.876   5.505 -0.7577  0.3059 -0.0807
  444MOL0     C59809   7.439   5.979   5.574  0.6644 -0.1641 -0.1846
  444MOL0     C59810   7.322   5.948   5.642  0.0856 -0.5891  0.4748
  444MOL0     C59811   7.252   6.039   5.720 -0.8793 -0.3577 -0.5288
  444MOL0     C59812   7.310   6.174   5.729  0.2357  0.3542 -0.5687
  444MOL0     O59813   7.265   6.263   5.827  0.6183  0.2337  0.1167
  444MOL0     C59814   7.188   6.205   5.937 -0.1118 -0.9292 -0.0137
  444MOL0     C59815   7.222   6.281   6.069 -0.2245 -0.5788 -0.1792
  444MOL0     C59816   7.371   6.276   6.114  0.6638 -0.1354  0.5140
  444MOL0     C59817   7.380   6.145   6.190  1.4523  0.0976  0.2847
  444MOL0     C59818   7.526   6.100   6.229 -0.5846 -0.2063  0.5277
  444MOL0     C59819   7.643   6.127   6.126  0.9940  0.6245 -0.1629
  444MOL0     C59820   7.629   6.045   6.002  0.5442 -0.6061 -0.0344
  444MOL0     C59821   7.733   6.074   5.901  1.0786 -0.1698  0.6161
  444MOL0     N59822   7.871   6.027   5.929  0.3380  0.0900  0.3697
  444MOL0     C59823   7.921   5.920   5.865 -0.5970 -0.3921 -0.5590
  444MOL0     C59824   8.053   5.911   5.902  0.1140  0.1681 -0.0774
  444MOL0     C59825   8.153   5.813   5.874 -1.3235  0.0689  0.8981
  444MOL0     C59826   8.148   5.709   5.976 -0.1618  0.1649  0.3868
  444MOL0     C59827   8.005   5.650   5.991  0.3319  1.7327 -0.3122
  444MOL0     C59828   8.026   5.533   6.091 -0.4278 -1.0620  0.5831
  444MOL0     O59829   7.892   5.496   6.142 -0.0910 -1.0178  0.0470
  444MOL0     C59830   7.879   5.386   6.225 -0.4579 -0.2736 -0.8254
  444MOL0     C59831   7.986   5.325   6.284 -0.3147 -0.5455 -0.2261
  444MOL0     C59832   7.962   5.207   6.355 -0.3900 -0.7629 -0.5225
  444MOL0     C59833   7.830   5.167   6.383 -0.2272  0.2606 -0.4246
  444MOL0     C59834   7.802   5.034   6.453  0.2414  0.0899  0.1209
  444MOL0     O59835   7.922   4.969   6.479  0.4881 -0.2114  0.1172
  444MOL0     C59836   7.900   4.833   6.510 -0.6738  0.5796 -0.1083
  444MOL0     C59837   7.887   4.801   6.645 -0.7290  0.7434  0.3147
  444MOL0     C59838   7.869   4.665   6.685  0.3842  0.2934  0.7194
  444MOL0     C59839   7.849   4.562   6.582 -0.6825 -0.5104  0.2746
  444MOL0     O59840   7.821   4.439   6.632  0.5386 -0.5262 -0.8112
  444MOL0     C59841   7.769   4.341   6.538 -0.2240 -0.3738 -0.1198
  444MOL0     C59842   7.760   4.212   6.607 -0.8053 -0.6427  0.1879
  444MOL0     C59843   7.675   4.232   6.738 -0.4566  0.1879  0.3128
  444MOL0     C59844   7.759   4.252   6.866  0.0608  0.0633  0.5828
  444MOL0     C59845   7.690   4.220   6.995 -0.0272 -0.5482  0.2517
  444MOL0     C59846   7.748   4.298   7.108 -0.1038  0.7474  0.0032
  444MOL0     C59847   7.749   4.449   7.093 -0.2280 -0.2111 -0.5327
  444MOL0     C59848   7.861   4.507   7.179 -0.4145 -0.7102 -0.3789
  444MOL0    Cl59849   8.011   4.505   7.069  0.2321  0.2040 -0.3907
  444MOL0     C59850   7.871   4.593   6.451  0.2670 -0.2798 -0.2035
  444MOL0     C59851   7.898   4.730   6.417  0.6086 -0.7777 -1.0274
  444MOL0     O59852   7.689   4.995   6.486 -0.1951 -0.6724 -0.4406
  444MOL0     C59853   7.725   5.240   6.335 -0.4658 -0.3292  0.6738
  444MOL0     C59854   7.751   5.344   6.251  0.0075 -0.3040 -1.0504
  444MOL0     N59855   8.072   6.024   5.983 -1.3164  1.0528  0.0327
  444MOL0     N59856   7.957   6.083   6.006 -1.2990 -0.7912 -0.5870
  444MOL0     C59857   7.434   6.198   5.664  0.1532 -0.2964 -0.1307
  444MOL0     C59858   7.496   6.098   5.587  0.5891  0.4805 -0.4011
  444MOL0     C59859   7.650   5.696   5.480 -0.1654 -0.3893  1.1395
  444MOL0     C59860   7.571   5.650   5.377  0.9208 -0.8770 -0.8478
  444MOL0     C59861   7.623   5.551   5.292  0.0938  0.0222  0.6723
  444MOL0     C59862   7.753   5.501   5.308  0.7823  0.3757 -1.1045
  444MOL0     O59863   7.811   5.401   5.228 -0.3110  0.3891  0.4428
  444MOL0     C59864   7.749   5.349   5.105  0.4253  0.5584 -0.2054
  444MOL0     C59865   7.785   5.200   5.089 -0.6085  0.2471  0.2066
  444MOL0     C59866   7.757   5.126   4.953  0.0540  0.0455 -0.2685
  444MOL0     C59867   7.775   4.974   4.978 -0.1698 -0.4726  0.3488
  444MOL0     C59868   7.785   4.900   4.858  0.7079 -0.2468  0.6544
  444MOL0     C59869   7.814   4.830   4.759 -1.0348 -0.5821  0.1274
  444MOL0     C59870   7.826   5.535   5.425 -0.7569  0.4392  0.0415
  444MOL0     C59871   7.768   5.628   5.510 -0.2621  0.5994  0.1024
  444MOL0     C59872   7.855   5.619   5.639  0.4307 -0.2120  0.1234
  444MOL0     H59873   7.269   5.854   5.636 -2.6922  0.7953  1.3193
  444MOL0     H59874   7.155   6.017   5.764 -2.4689  1.3378 -2.9695
  444MOL0     H59875   7.084   6.218   5.905  0.3763  0.5657 -1.0787
  444MOL0     H59876   7.182   6.097   5.953  0.6588 -0.8792  0.7218
  444MOL0     H59877   7.155   6.244   6.147  2.4559 -1.3035  1.9579
  444MOL0     H59878   7.188   6.383   6.050 -1.9891 -0.3881  3.2228
  444MOL0     H59879   7.401   6.354   6.185  0.7729 -0.5438  0.9270
  444MOL0     H59880   7.445   6.286   6.034  0.4294  3.8052  0.6083
  444MOL0     H59881   7.317   6.161   6.277  1.3441  0.4232  0.1507
  444MOL0     H59882   7.335   6.066   6.130 -0.1163  1.0775  0.1193
  444MOL0     H59883   7.553   6.163   6.315  0.2673 -0.0857  0.1834
  444MOL0     H59884   7.521   5.998   6.267  1.3601 -0.2285  0.8261
  444MOL0     H59885   7.652   6.234   6.103 -1.8603  1.0865  0.4972
  444MOL0     H59886   7.737   6.104   6.176  0.2861 -2.7543 -0.1472
  444MOL0     H59887   7.530   6.065   5.960 -1.1405  2.8790  4.7217
  444MOL0     H59888   7.626   5.938   6.025  0.4702 -0.0063  3.2660
  444MOL0     H59889   7.700   6.048   5.800  0.2734  0.0320  0.8181
  444MOL0     H59890   7.750   6.182   5.903  0.9305 -0.1545  2.4222
  444MOL0     H59891   7.872   5.854   5.794 -3.1711  2.3813 -1.5784
  444MOL0     H59892   8.158   5.774   5.772  1.8127 -1.2231  1.4038
  444MOL0     H59893   8.253   5.849   5.898 -1.6397  1.0682  0.7371
  444MOL0     H59894   8.219   5.637   5.934 -2.0425 -0.0508 -2.7301
  444MOL0     H59895   8.180   5.754   6.070  2.7136  1.0470 -0.9010
  444MOL0     H59896   7.972   5.615   5.893  1.4946 -3.0944  0.7664
  444MOL0     H59897   7.928   5.712   6.037 -0.7674 -1.3968  2.4791
  444MOL0     H59898   8.089   5.567   6.174 -1.0412  1.0195  0.2531
  444MOL0     H59899   8.081   5.450   6.045 -0.5707 -0.0201 -1.5991
  444MOL0     H59900   8.086   5.364   6.275 -0.6651  0.2822 -0.6440
  444MOL0     H59901   8.051   5.152   6.385  0.2160  0.8673  0.8799
  444MOL0     H59902   7.886   4.880   6.719 -1.4764  0.4551  0.6224
  444MOL0     H59903   7.869   4.642   6.791 -2.6531 -2.5034  0.2768
  444MOL0     H59904   7.670   4.370   6.501 -0.1073  0.8577  0.5122
  444MOL0     H59905   7.840   4.318   6.457 -0.2513 -0.5451 -0.0965
  444MOL0     H59906   7.720   4.130   6.546 -0.4007 -0.5613 -0.1886
  444MOL0     H59907   7.849   4.159   6.643 -1.4814 -1.1892  1.1233
  444MOL0     H59908   7.615   4.323   6.730  0.6944  0.9411 -0.0275
  444MOL0     H59909   7.615   4.142   6.753 -0.5799  0.7663  4.3095
  444MOL0     H59910   7.801   4.352   6.862  1.2746 -0.4305  0.5475
  444MOL0     H59911   7.844   4.183   6.872  1.3229  1.5741  0.5247
  444MOL0     H59912   7.690   4.113   7.018 -2.9144 -1.1926 -2.0800
  444MOL0     H59913   7.583   4.242   6.993 -0.2310 -1.1680 -3.4874
  444MOL0     H59914   7.690   4.273   7.197 -1.3972 -0.8728 -1.2283
  444MOL0     H59915   7.846   4.252   7.124 -0.1656  0.9335  0.9892
  444MOL0     H59916   7.654   4.480   7.137  0.8401  0.3524  1.5303
  444MOL0     H59917   7.739   4.496   6.995 -2.3558  1.1123  0.2571
  444MOL0     H59918   7.834   4.606   7.220  1.3227 -0.4709  0.2698
  444MOL0     H59919   7.871   4.445   7.269  0.4922  3.2401  2.5515
  444MOL0     H59920   7.872   4.521   6.370 -0.6912 -0.4824 -0.0480
  444MOL0     H59921   7.908   4.758   6.313 -2.2234  0.7508 -0.9742
  444MOL0     H59922   7.623   5.205   6.349 -0.2028 -1.8683 -0.9061
  444MOL0     H59923   7.668   5.400   6.209 -0.4008 -0.9540 -1.1406
  444MOL0     H59924   7.491   6.289   5.675  1.6476 -1.3401  1.3008
  444MOL0     H59925   7.598   6.104   5.549  0.7208  0.6056 -0.0423
  444MOL0     H59926   7.470   5.684   5.356  0.3630 -1.5305  0.6104
  444MOL0     H59927   7.569   5.534   5.199  0.9961 -2.5666  0.5317
  444MOL0     H59928   7.769   5.415   5.020 -2.2384 -0.2555 -1.5483
  444MOL0     H59929   7.640   5.345   5.101  0.1043  2.9408  2.6693
  444MOL0     H59930   7.742   5.150   5.177 -2.5183  1.4328 -0.0015
  444MOL0     H59931   7.893   5.182   5.097 -0.5535  0.6142  0.3142
  444MOL0     H59932   7.834   5.153   4.880 -0.9214  1.9495 -0.6441
  444MOL0     H59933   7.667   5.155   4.899  0.4623 -1.1005 -1.6161
  444MOL0     H59934   7.868   4.970   5.036  1.0886  0.6302 -1.4946
  444MOL0     H59935   7.687   4.947   5.037  1.3359  0.3898  3.1965
  444MOL0     H59936   7.844   4.776   4.671  2.8257  0.8106  0.3629
  444MOL0     H59937   7.919   5.481   5.441 -0.5983  0.4929 -0.6787
  444MOL0     H59938   7.839   5.698   5.712 -2.7682  1.9297 -2.6384
  444MOL0     H59939   7.830   5.524   5.688  1.3987 -1.4267 -1.6164
  444MOL0     H59940   7.963   5.609   5.621  0.8054  2.5232  0.4606
  445MOL0     O59941   4.927  10.423  10.799 -0.0963 -0.0219  0.0085
  445MOL0     C59942   4.893  10.493  10.895  1.1157  0.7669 -0.9571
  445MOL0     O59943   4.910  10.448  11.021  0.4661 -0.2867  0.0918
  445MOL0     C59944   4.995  10.342  11.048 -0.3019 -0.6106 -0.3173
  445MOL0     C59945   5.131  10.341  11.013  0.3913  0.5877 -1.1199
  445MOL0     C59946   5.197  10.224  11.044  0.2625 -0.6138 -0.2942
  445MOL0     C59947   5.140  10.112  11.083  0.0383  0.0097  0.1066
  445MOL0     O59948   5.221  10.006  11.120  0.5536 -0.6346  0.3724
  445MOL0     C59949   5.227   9.905  11.015 -0.0126  0.2994  0.2717
  445MOL0     C59950   5.316   9.789  11.074 -0.5378 -0.7962  1.1387
  445MOL0     C59951   5.316   9.660  10.991  0.4317 -0.1235  0.1715
  445MOL0     C59952   5.348   9.526  11.064 -0.1099 -0.3637  0.6112
  445MOL0     C59953   5.219   9.431  11.081  0.6776 -0.1549  0.7377
  445MOL0     C59954   5.115   9.485  11.176 -0.2706  0.8305 -0.5942
  445MOL0     C59955   5.185   9.496  11.309  0.4788 -0.4108  0.9256
  445MOL0     C59956   5.079   9.512  11.422  0.5816 -0.1915 -0.3078
  445MOL0     N59957   5.030   9.638  11.446 -0.2512  0.3434 -0.3018
  445MOL0     C59958   5.092   9.717  11.543  0.2360 -0.2866 -0.3609
  445MOL0     C59959   5.040   9.842  11.525 -0.4244 -0.2514  0.3248
  445MOL0     C59960   5.091   9.977  11.576 -1.1193  0.0495  0.2407
  445MOL0     C59961   5.109  10.077  11.456 -0.3914 -0.0216  0.3392
  445MOL0     C59962   5.155  10.211  11.505 -0.2802 -0.1734  0.8972
  445MOL0     C59963   5.182  10.314  11.390  1.2470  0.5199 -0.6582
  445MOL0     O59964   5.230  10.439  11.434 -0.3102 -0.4022 -0.4251
  445MOL0     C59965   5.350  10.447  11.505 -0.5130  0.2680 -0.3482
  445MOL0     C59966   5.446  10.353  11.501 -0.5919  0.1193 -0.5708
  445MOL0     C59967   5.570  10.366  11.562  0.6478  0.7680  0.2519
  445MOL0     C59968   5.596  10.489  11.640 -0.4534  0.7178  0.5241
  445MOL0     C59969   5.739  10.509  11.697  0.8873  0.2942  0.2326
  445MOL0     O59970   5.793  10.394  11.752  0.0995 -0.1976 -0.1592
  445MOL0     C59971   5.895  10.411  11.835 -0.8714  0.2119  0.6700
  445MOL0     C59972   6.010  10.327  11.843 -0.1991 -0.2232 -1.0641
  445MOL0     C59973   6.123  10.337  11.918 -0.7995 -0.5394 -1.2356
  445MOL0     C59974   6.134  10.440  12.015  0.4130  0.2573  0.6058
  445MOL0     O59975   6.229  10.449  12.114 -0.5024 -0.5772  0.4455
  445MOL0     C59976   6.353  10.384  12.101  0.7324 -0.5331 -0.0066
  445MOL0     C59977   6.452  10.475  12.026 -0.3559  1.0288 -0.7497
  445MOL0     C59978   6.481  10.445  11.885  0.5204 -0.3086  0.1220
  445MOL0     C59979   6.548  10.303  11.879 -0.0753 -0.6237 -0.0751
  445MOL0     C59980   6.595  10.281  11.733  0.2618  0.2768 -0.6314
  445MOL0     C59981   6.734  10.347  11.693  0.1291 -0.7966  0.4604
  445MOL0     C59982   6.804  10.245  11.603 -0.0490  0.9465  0.2056
  445MOL0     C59983   6.937  10.305  11.553  0.8840  0.2989  0.6625
  445MOL0    Cl59984   7.061  10.310  11.673 -0.0730 -0.2888  0.3951
  445MOL0     C59985   6.023  10.528  12.024  0.8046  0.6610 -0.1206
  445MOL0     C59986   5.911  10.509  11.935 -0.2624  0.1498  0.2491
  445MOL0     O59987   5.794  10.615  11.674 -0.0020 -0.2551  0.1944
  445MOL0     C59988   5.501  10.588  11.643  0.7290 -0.7744 -0.0973
  445MOL0     C59989   5.378  10.565  11.575 -0.4638 -0.6985 -0.3208
  445MOL0     N59990   4.941   9.835  11.434 -0.3209 -0.6455  0.1158
  445MOL0     N59991   4.943   9.716  11.377  0.2916  0.0012 -0.9282
  445MOL0     C59992   5.004  10.113  11.118  0.4798  0.6667  0.5366
  445MOL0     C59993   4.937  10.235  11.110  0.0756  1.1891 -0.3076
  445MOL0     C59994   4.835  10.626  10.877  0.6891 -0.2531  1.2246
  445MOL0     C59995   4.873  10.696  10.756  0.1448 -0.1038  0.0549
  445MOL0     C59996   4.818  10.826  10.722 -0.2095  1.1397 -0.7218
  445MOL0     C59997   4.754  10.893  10.820  0.3877  0.0322  0.6145
  445MOL0     O59998   4.714  11.021  10.792 -0.1464  0.0086  0.4744
  445MOL0     C59999   4.659  11.112  10.894 -0.0748 -0.9746  0.2888
  445MOL0     C60000   4.755  11.141  11.014 -0.0816 -0.5554  1.1894
  445MOL0     C60001   4.889  11.200  10.960  0.0921  0.6917 -0.8890
  445MOL0     C60002   4.891  11.331  10.891  0.5951  0.3544  0.3898
  445MOL0     C60003   5.024  11.373  10.858  0.1876 -0.5340 -0.1321
  445MOL0     C60004   5.127  11.405  10.819 -0.2972  0.2832 -1.1234
  445MOL0     C60005   4.725  10.838  10.941 -1.4148  0.8063 -0.5836
  445MOL0     C60006   4.757  10.702  10.965 -0.0005  0.2246  0.2053
  445MOL0     C60007   4.704  10.643  11.098  0.1612  0.9411 -0.1454
  445MOL0     H60008   5.175  10.425  10.962  1.8014 -0.2348 -1.2945
  445MOL0     H60009   5.304  10.234  11.026  0.4179 -0.3013  0.7562
  445MOL0     H60010   5.125   9.878  10.989  0.1763  0.1637 -0.3426
  445MOL0     H60011   5.277   9.944  10.925  1.2910 -1.0866  0.3491
  445MOL0     H60012   5.285   9.763  11.176  4.1051 -1.3527  2.6370
  445MOL0     H60013   5.421   9.819  11.080 -0.6183  0.0583 -1.0538
  445MOL0     H60014   5.398   9.678  10.921  2.0388  2.9479  2.6163
  445MOL0     H60015   5.222   9.644  10.939 -1.2884 -2.8940  3.6766
  445MOL0     H60016   5.419   9.473  11.000 -1.0150 -0.5788 -0.2333
  445MOL0     H60017   5.407   9.549  11.154  0.7206  0.1130 -0.0369
  445MOL0     H60018   5.171   9.412  10.985 -1.0512  0.6755  1.4102
  445MOL0     H60019   5.240   9.328  11.110 -0.0811  0.1688  2.5792
  445MOL0     H60020   5.079   9.584  11.145 -1.2556  0.4610 -0.6736
  445MOL0     H60021   5.032   9.414  11.182  0.8536 -0.5800 -1.0177
  445MOL0     H60022   5.261   9.574  11.304  0.9612 -0.9513 -1.6118
  445MOL0     H60023   5.246   9.406  11.321  2.2504 -0.3658 -4.7313
  445MOL0     H60024   4.992   9.449  11.400 -1.6967  1.3992  3.0960
  445MOL0     H60025   5.119   9.465  11.512  0.3965 -2.4180 -1.3315
  445MOL0     H60026   5.174   9.690  11.608 -1.3815 -0.2966  1.7749
  445MOL0     H60027   5.011  10.009  11.643 -1.8108 -4.6003  1.9942
  445MOL0     H60028   5.185   9.961  11.630  0.4797 -1.5656 -2.7398
  445MOL0     H60029   5.194  10.030  11.406 -1.0232  0.1722 -0.9725
  445MOL0     H60030   5.017  10.079  11.396 -0.0510 -1.1300 -0.2458
  445MOL0     H60031   5.243  10.185  11.565 -0.6338 -1.3331  0.9464
  445MOL0     H60032   5.081  10.244  11.578 -1.0382 -0.2142  0.1651
  445MOL0     H60033   5.092  10.327  11.330  1.4722  0.2770 -1.0586
  445MOL0     H60034   5.255  10.287  11.313 -1.6671  2.3681 -4.3721
  445MOL0     H60035   5.435  10.261  11.445  2.1238 -1.1720  0.7982
  445MOL0     H60036   5.640  10.283  11.564  1.9528  1.5518 -3.6286
  445MOL0     H60037   6.011  10.251  11.765 -2.5001 -0.2230 -1.1458
  445MOL0     H60038   6.213  10.276  11.913  1.8644  3.1172 -2.5785
  445MOL0     H60039   6.381  10.374  12.207 -2.1741 -0.2459  0.8949
  445MOL0     H60040   6.335  10.283  12.065  0.2290 -0.0629 -1.1362
  445MOL0     H60041   6.409  10.575  12.038 -3.9507 -0.6137  1.5130
  445MOL0     H60042   6.545  10.472  12.084 -0.0153 -1.9257 -1.2798
  445MOL0     H60043   6.393  10.430  11.821  2.0249 -1.2574 -1.8558
  445MOL0     H60044   6.548  10.510  11.829 -1.0164 -1.3667 -3.2160
  445MOL0     H60045   6.471  10.230  11.907  1.0245 -1.5987  0.4677
  445MOL0     H60046   6.640  10.299  11.938 -0.3062  1.9574  0.5893
  445MOL0     H60047   6.517  10.316  11.665  1.6724  3.0644 -0.9613
  445MOL0     H60048   6.588  10.173  11.719 -2.1318  0.5275 -1.8716
  445MOL0     H60049   6.708  10.436  11.636 -0.3578 -2.2018 -1.6296
  445MOL0     H60050   6.799  10.369  11.778 -0.9451 -0.7606  1.2859
  445MOL0     H60051   6.733  10.223  11.523  0.8393  0.9301 -0.5996
  445MOL0     H60052   6.833  10.150  11.650 -1.6440 -0.3660 -1.3284
  445MOL0     H60053   6.970  10.248  11.465  3.7156  2.3873  0.2146
  445MOL0     H60054   6.930  10.411  11.524 -1.3650  0.4890  1.6916
  445MOL0     H60055   6.029  10.598  12.106  0.2872 -1.4451  1.7987
  445MOL0     H60056   5.836  10.580  11.972 -0.5635 -0.0053 -0.0601
  445MOL0     H60057   5.511  10.681  11.698  3.2615 -0.8886 -0.2516
  445MOL0     H60058   5.310  10.649  11.562  1.5737  1.2610  0.9152
  445MOL0     H60059   4.971  10.028  11.177  0.3831  0.6364  0.4399
  445MOL0     H60060   4.840  10.253  11.156  1.2632  2.7664  1.7851
  445MOL0     H60061   4.934  10.651  10.679  2.1946  0.9080  0.9996
  445MOL0     H60062   4.821  10.867  10.621  0.6928 -2.2990 -2.2374
  445MOL0     H60063   4.568  11.066  10.934  0.3233 -2.3904 -0.3687
  445MOL0     H60064   4.627  11.205  10.847  0.4503 -0.8667  0.1352
  445MOL0     H60065   4.763  11.050  11.075 -3.0356 -0.0712  2.5109
  445MOL0     H60066   4.716  11.220  11.079 -1.1308  0.1386 -0.2204
  445MOL0     H60067   4.950  11.130  10.901  3.1613  0.7192  1.9473
  445MOL0     H60068   4.940  11.215  11.055 -1.8389  0.1110  0.2785
  445MOL0     H60069   4.825  11.346  10.804 -0.7603  0.3695  1.3926
  445MOL0     H60070   4.857  11.401  10.968  0.6007  0.8372 -0.0338
  445MOL0     H60071   5.228  11.433  10.798  2.1105 -3.5489  3.5851
  445MOL0     H60072   4.672  10.881  11.025  1.7064 -1.4598  2.9022
  445MOL0     H60073   4.615  10.584  11.072  0.3818  0.7805 -0.5550
  445MOL0     H60074   4.771  10.577  11.153  1.7333  0.2997 -2.6608
  445MOL0     H60075   4.675  10.721  11.169 -4.7047 -1.6872  1.1914
  446MOL0     O60076   5.464   6.366   5.032 -0.2348  0.5963 -0.4230
  446MOL0     C60077   5.580   6.358   5.076 -0.1516  0.1233  0.7308
  446MOL0     O60078   5.680   6.434   5.022 -0.3673 -0.1334  0.6127
  446MOL0     C60079   5.660   6.522   4.914  0.0124  0.9935 -0.9953
  446MOL0     C60080   5.707   6.650   4.940 -0.9033 -0.4050 -0.0011
  446MOL0     C60081   5.708   6.758   4.848 -0.7384 -0.0949 -0.1156
  446MOL0     C60082   5.665   6.725   4.715  0.1713 -0.0503 -1.0987
  446MOL0     O60083   5.657   6.809   4.607  0.5429 -0.6012 -0.3240
  446MOL0     C60084   5.691   6.950   4.629 -0.6347 -0.1312 -0.3973
  446MOL0     C60085   5.699   7.023   4.490  0.5219 -0.0173 -0.3238
  446MOL0     C60086   5.784   6.935   4.391  0.2642 -0.5116 -0.7678
  446MOL0     C60087   5.851   7.031   4.282  0.6053 -0.0057  0.0994
  446MOL0     C60088   5.895   6.956   4.147  0.3029 -0.7907 -0.0620
  446MOL0     C60089   5.935   7.062   4.033  0.1000  0.3145 -0.3876
  446MOL0     C60090   6.020   6.988   3.929 -0.1042 -0.8542 -0.0976
  446MOL0     C60091   5.939   6.912   3.818 -0.1674  0.1606 -0.0069
  446MOL0     N60092   5.875   7.004   3.719  0.1149  0.1410 -0.1552
  446MOL0     C60093   5.950   7.063   3.625 -0.5857  0.3033  0.2091
  446MOL0     C60094   5.867   7.145   3.560  0.2702  1.0456  1.1163
  446MOL0     C60095   5.905   7.240   3.443  0.7221  0.4573 -0.6076
  446MOL0     C60096   5.794   7.331   3.402 -0.8530 -0.6171  0.4725
  446MOL0     C60097   5.802   7.392   3.265  0.2308  0.2132  0.1208
  446MOL0     C60098   5.919   7.481   3.250 -0.7301  0.5565  0.2239
  446MOL0     O60099   6.033   7.400   3.210 -0.3962  0.1392  0.9699
  446MOL0     C60100   6.161   7.422   3.261  1.6854 -0.1699 -0.3275
  446MOL0     C60101   6.209   7.556   3.266  0.6017  0.9928 -0.0244
  446MOL0     C60102   6.331   7.584   3.323 -0.0866 -0.0832  0.3768
  446MOL0     C60103   6.402   7.480   3.383 -0.4590  0.0033 -1.5192
  446MOL0     C60104   6.536   7.502   3.451  0.2716 -0.1886 -0.2834
  446MOL0     O60105   6.601   7.385   3.480  0.0110  0.9476  0.2314
  446MOL0     C60106   6.735   7.383   3.496 -0.6458  0.6075 -0.3716
  446MOL0     C60107   6.816   7.480   3.565  0.5382  0.3945 -1.0743
  446MOL0     C60108   6.951   7.456   3.569 -0.1278  0.2126  1.1227
  446MOL0     C60109   7.010   7.339   3.517  0.2890  0.0398  0.4974
  446MOL0     O60110   7.139   7.302   3.528  0.2595 -0.2583 -0.3946
  446MOL0     C60111   7.188   7.292   3.667 -0.8144  0.0139  0.1025
  446MOL0     C60112   7.272   7.161   3.688  1.6525  0.1686  0.4002
  446MOL0     C60113   7.176   7.039   3.690  0.7347 -0.4413  0.5699
  446MOL0     C60114   7.246   6.903   3.720  0.2731  0.9898 -0.1608
  446MOL0     C60115   7.148   6.787   3.681 -0.2773  0.3174 -0.2541
  446MOL0     C60116   7.075   6.728   3.801 -0.4785  0.5921 -0.7888
  446MOL0     C60117   7.000   6.835   3.895 -0.4886 -0.6068 -0.1332
  446MOL0     C60118   6.913   6.763   4.000 -1.1174  1.0272  1.0326
  446MOL0    Cl60119   6.762   6.719   3.931  0.6019  0.4877  0.2009
  446MOL0     C60120   6.929   7.235   3.475  0.0890 -0.1253 -0.5591
  446MOL0     C60121   6.794   7.259   3.455 -0.3947 -0.0376  0.5062
  446MOL0     O60122   6.563   7.614   3.496  0.3860 -0.3778 -0.1923
  446MOL0     C60123   6.351   7.354   3.383  0.3123  0.7022 -0.2830
  446MOL0     C60124   6.226   7.319   3.325 -0.3967  0.5879  0.0459
  446MOL0     N60125   5.734   7.128   3.609  0.2132 -0.3832  0.1150
  446MOL0     N60126   5.745   7.049   3.714 -0.4157 -0.2729  0.5992
  446MOL0     C60127   5.609   6.594   4.688 -0.2484 -0.3257  0.1451
  446MOL0     C60128   5.602   6.496   4.791 -0.6850  0.0037 -0.5172
  446MOL0     C60129   5.604   6.260   5.185 -0.6811  0.5419  0.8555
  446MOL0     C60130   5.738   6.243   5.222 -0.1309  0.0956 -1.3342
  446MOL0     C60131   5.772   6.131   5.300 -1.7023 -0.9211 -0.9057
  446MOL0     C60132   5.673   6.040   5.345 -0.7076  0.2269  1.2066
  446MOL0     O60133   5.708   5.935   5.427 -0.2544  0.1512 -0.3479
  446MOL0     C60134   5.623   5.838   5.471 -0.5338  0.3453  0.3720
  446MOL0     C60135   5.706   5.736   5.548  0.1542  0.2121  1.0230
  446MOL0     C60136   5.776   5.636   5.450  0.1160  0.5793 -0.4621
  446MOL0     C60137   5.879   5.550   5.526 -0.0030  0.5714  1.0813
  446MOL0     C60138   5.961   5.488   5.424  0.6667 -0.8517  0.5889
  446MOL0     C60139   6.006   5.432   5.331  0.1522 -0.3597 -0.1035
  446MOL0     C60140   5.539   6.073   5.318 -0.1363 -0.7291 -0.4639
  446MOL0     C60141   5.501   6.187   5.243 -0.5467  0.3955 -0.2036
  446MOL0     C60142   5.356   6.194   5.227 -0.3959 -0.0130  0.2714
  446MOL0     H60143   5.747   6.669   5.039 -0.5371  2.3379 -0.6045
  446MOL0     H60144   5.750   6.854   4.876  0.1871  0.3323 -2.6483
  446MOL0     H60145   5.609   7.001   4.680 -0.6692 -0.6518  0.0756
  446MOL0     H60146   5.778   6.971   4.691 -0.1733  1.0821 -1.4092
  446MOL0     H60147   5.755   7.115   4.506 -0.6177  0.9213 -1.4898
  446MOL0     H60148   5.601   7.042   4.444  0.0260  1.1397  1.1501
  446MOL0     H60149   5.731   6.854   4.340 -2.3357  0.2230  0.5813
  446MOL0     H60150   5.867   6.888   4.443 -1.2721 -0.4815  1.8817
  446MOL0     H60151   5.782   7.107   4.246  0.7492  0.4499  0.7676
  446MOL0     H60152   5.934   7.080   4.332 -0.1712  0.2731  1.1535
  446MOL0     H60153   5.979   6.890   4.170  4.8374  4.2655 -0.1994
  446MOL0     H60154   5.817   6.889   4.110  1.5976 -2.0958 -0.4592
  446MOL0     H60155   5.854   7.115   3.982 -0.3066  0.3968  0.3355
  446MOL0     H60156   5.991   7.142   4.082 -0.5174  0.7666 -0.4104
  446MOL0     H60157   6.089   6.921   3.981  0.3521 -0.6929 -0.4937
  446MOL0     H60158   6.085   7.058   3.876 -1.6700 -1.4201 -2.9852
  446MOL0     H60159   6.007   6.834   3.785 -0.2925 -0.5875  1.4412
  446MOL0     H60160   5.856   6.868   3.874  0.5744  0.3510  1.2844
  446MOL0     H60161   6.058   7.066   3.615 -0.3822 -0.5886  1.8394
  446MOL0     H60162   5.986   7.304   3.480  0.5865 -0.4634  1.3700
  446MOL0     H60163   5.940   7.190   3.352 -1.2625  3.0551 -2.9969
  446MOL0     H60164   5.712   7.262   3.378  0.8548 -3.0565  1.3150
  446MOL0     H60165   5.765   7.409   3.473 -0.2054  2.5178 -2.4184
  446MOL0     H60166   5.712   7.449   3.239  1.5999  2.4098 -0.0309
  446MOL0     H60167   5.799   7.314   3.189 -2.7504  0.5378 -0.2236
  446MOL0     H60168   5.933   7.546   3.337  4.1643 -0.2075  0.2649
  446MOL0     H60169   5.903   7.546   3.163  2.2832  1.4606  0.2368
  446MOL0     H60170   6.152   7.635   3.217  1.4758  1.2952 -0.5819
  446MOL0     H60171   6.379   7.682   3.320  0.2784 -0.2157  1.3174
  446MOL0     H60172   6.777   7.569   3.615 -2.2293 -0.9901 -0.5983
  446MOL0     H60173   7.026   7.526   3.605  0.9469 -0.6867  0.6905
  446MOL0     H60174   7.263   7.372   3.678  0.7556 -1.6033  2.0973
  446MOL0     H60175   7.106   7.291   3.738 -1.6461 -1.3032 -0.8396
  446MOL0     H60176   7.343   7.155   3.605  0.3457  3.2063 -1.0882
  446MOL0     H60177   7.332   7.166   3.779  1.8018  2.6014  0.2407
  446MOL0     H60178   7.095   7.069   3.757 -0.1078 -0.7487 -0.2880
  446MOL0     H60179   7.120   7.029   3.597 -0.3387 -3.4979  1.4269
  446MOL0     H60180   7.275   6.902   3.826 -3.0322  0.4513  0.8308
  446MOL0     H60181   7.333   6.893   3.654  0.2006  0.7445 -0.2180
  446MOL0     H60182   7.205   6.704   3.637  0.0858  1.6372 -2.4220
  446MOL0     H60183   7.073   6.817   3.607 -3.1246 -0.9819  1.8974
  446MOL0     H60184   7.008   6.647   3.771 -0.7074  0.0977  0.9206
  446MOL0     H60185   7.158   6.696   3.866 -1.2360 -0.0777 -0.1230
  446MOL0     H60186   6.933   6.900   3.837 -0.0277 -0.8693 -0.9830
  446MOL0     H60187   7.066   6.900   3.953 -1.6172  1.5593 -1.1545
  446MOL0     H60188   6.958   6.671   4.037 -4.1918 -0.1239  2.2105
  446MOL0     H60189   6.907   6.830   4.086 -0.1503 -0.0788  1.9867
  446MOL0     H60190   6.967   7.137   3.448  1.3909 -1.0402  3.8625
  446MOL0     H60191   6.739   7.182   3.403 -0.4613 -0.9127  1.7981
  446MOL0     H60192   6.400   7.280   3.446  2.0594  2.3567  0.4268
  446MOL0     H60193   6.188   7.218   3.314 -0.8348  0.7910 -0.3455
  446MOL0     H60194   5.558   6.589   4.592  2.2565  2.0120 -1.4792
  446MOL0     H60195   5.559   6.403   4.753  0.4583  0.7136 -3.8568
  446MOL0     H60196   5.817   6.314   5.204  1.9806 -1.1351  2.1099
  446MOL0     H60197   5.875   6.120   5.330 -1.7101  2.3019  0.7690
  446MOL0     H60198   5.565   5.788   5.393 -2.2835  1.1436  1.1179
  446MOL0     H60199   5.542   5.876   5.534 -0.8907  1.2636 -0.6148
  446MOL0     H60200   5.644   5.670   5.610 -1.0983  1.6377  1.3422
  446MOL0     H60201   5.774   5.788   5.616 -1.6032  0.5239  2.6272
  446MOL0     H60202   5.842   5.697   5.388  0.2921  1.2969  0.3989
  446MOL0     H60203   5.700   5.577   5.398  1.0249  0.0371 -1.2029
  446MOL0     H60204   5.944   5.605   5.595  1.4663  1.6833 -1.0696
  446MOL0     H60205   5.826   5.482   5.593 -0.2886  3.0087  3.5334
  446MOL0     H60206   6.053   5.404   5.239 -1.7895 -0.3375 -1.1600
  446MOL0     H60207   5.462   6.012   5.364 -0.5943 -0.6945 -1.1644
  446MOL0     H60208   5.324   6.124   5.149  0.7496 -2.2720  1.7373
  446MOL0     H60209   5.300   6.147   5.308 -4.2565  0.4999 -1.8225
  446MOL0     H60210   5.319   6.296   5.211 -1.4339 -0.4440 -0.1646
  447MOL0     O60211   7.589   9.213   1.054  0.7259  0.0717  0.6424
  447MOL0     C60212   7.709   9.209   1.024  0.6651  0.3206 -0.0903
  447MOL0     O60213   7.762   9.308   0.941 -0.2407  0.9708 -0.0951
  447MOL0     C60214   7.695   9.421   0.914 -0.1647  0.3892 -0.4324
  447MOL0     C60215   7.683   9.478   0.782 -0.0765  0.9252  0.5990
  447MOL0     C60216   7.615   9.592   0.758 -0.4879  0.0085  0.1204
  447MOL0     C60217   7.565   9.664   0.862 -0.4604 -1.3181  0.0446
  447MOL0     O60218   7.502   9.783   0.831 -0.1581  0.1149 -0.3691
  447MOL0     C60219   7.450   9.863   0.937 -0.0771 -0.5148  0.2896
  447MOL0     C60220   7.389   9.995   0.886  0.0587  0.7486 -0.3484
  447MOL0     C60221   7.468  10.058   0.756  0.4004 -0.1158 -0.3359
  447MOL0     C60222   7.380  10.181   0.707  0.2075 -0.4080 -1.9229
  447MOL0     C60223   7.435  10.253   0.588 -1.2174  0.4708 -0.7226
  447MOL0     C60224   7.422  10.167   0.460  0.4659 -0.5724  0.0779
  447MOL0     C60225   7.474  10.227   0.333  0.0611 -0.4249 -0.6248
  447MOL0     C60226   7.402  10.185   0.206 -0.1012  0.2276  0.0946
  447MOL0     N60227   7.441  10.062   0.141 -0.0789  0.0621  0.1641
  447MOL0     C60228   7.561  10.058   0.072 -0.3021 -0.4074  0.7406
  447MOL0     C60229   7.566   9.927   0.031  0.1893  0.0951  0.2041
  447MOL0     C60230   7.692   9.868  -0.031  0.8108  0.1915  0.9666
  447MOL0     C60231   7.753   9.755   0.053  0.7324 -0.2939  0.8883
  447MOL0     C60232   7.666   9.619   0.066 -0.4983 -0.1924 -0.5773
  447MOL0     C60233   7.745   9.521   0.161 -0.4384 -0.0977  0.2161
  447MOL0     O60234   7.876   9.511   0.105 -0.9628 -0.4885 -0.5964
  447MOL0     C60235   7.938   9.396   0.131  0.0603 -0.6062  0.3335
  447MOL0     C60236   7.930   9.313   0.245  0.3657 -0.4897  0.6753
  447MOL0     C60237   8.007   9.194   0.256 -0.3559 -0.4018 -0.9283
  447MOL0     C60238   8.088   9.154   0.155 -0.0541 -0.1152  0.4752
  447MOL0     C60239   8.155   9.028   0.165  0.2159  0.9529  0.7884
  447MOL0     O60240   8.137   8.948   0.269  0.1586 -0.7574 -0.0792
  447MOL0     C60241   8.177   8.817   0.248  0.8621 -0.0218 -0.5206
  447MOL0     C60242   8.085   8.735   0.184 -0.3322  0.4804  0.9045
  447MOL0     C60243   8.121   8.600   0.163  0.4380  0.2949 -0.6230
  447MOL0     C60244   8.245   8.546   0.220 -0.4039  0.0215  0.6782
  447MOL0     O60245   8.295   8.419   0.197  0.3813 -0.0735  0.0532
  447MOL0     C60246   8.227   8.330   0.113 -0.0623  0.2992 -0.3793
  447MOL0     C60247   8.314   8.203   0.094 -0.7164 -0.7089  0.0288
  447MOL0     C60248   8.386   8.215  -0.037 -0.9102  0.0310  0.8779
  447MOL0     C60249   8.465   8.084  -0.073 -0.7418 -0.1449 -0.1933
  447MOL0     C60250   8.503   8.061  -0.215 -0.8798  0.5465  0.7197
  447MOL0     C60251   8.550   7.915  -0.221 -0.5417  0.5093 -0.3547
  447MOL0     C60252   8.544   7.874  -0.371  0.4235  0.0988 -0.1021
  447MOL0     C60253   8.584   7.726  -0.374  0.9641 -0.4341  0.7409
  447MOL0    Cl60254   8.600   7.647  -0.534 -0.0763 -0.4118  0.2513
  447MOL0     C60255   8.335   8.641   0.280  0.2095  0.3257 -0.6049
  447MOL0     C60256   8.300   8.772   0.301 -0.2600 -0.6390  0.1554
  447MOL0     O60257   8.217   8.988   0.065 -0.4624 -0.1218 -1.2957
  447MOL0     C60258   8.104   9.235   0.037 -0.1962  0.6727 -0.3152
  447MOL0     C60259   8.025   9.350   0.023 -0.3332  0.4339  0.4257
  447MOL0     N60260   7.449   9.859   0.068 -0.2469 -0.3832  0.0197
  447MOL0     N60261   7.380   9.945   0.138  0.6141  0.3507  0.5169
  447MOL0     C60262   7.575   9.616   0.992 -1.0313  0.6619  0.1367
  447MOL0     C60263   7.640   9.499   1.020  0.1538  0.6580  0.0279
  447MOL0     C60264   7.786   9.093   1.077 -0.5706 -0.1715 -0.5415
  447MOL0     C60265   7.713   8.978   1.120  0.5157 -1.4154  0.1371
  447MOL0     C60266   7.790   8.867   1.157 -0.0071 -0.5783 -0.8567
  447MOL0     C60267   7.932   8.865   1.156 -1.0422  0.8993  0.4685
  447MOL0     O60268   7.997   8.755   1.191  0.9266 -0.2310 -0.0871
  447MOL0     C60269   7.935   8.666   1.280  0.1110  0.0248  0.0431
  447MOL0     C60270   8.037   8.574   1.342 -0.4996  0.4030 -0.2300
  447MOL0     C60271   8.002   8.430   1.354  0.2125 -0.3250  0.4940
  447MOL0     C60272   7.994   8.368   1.211  0.4720 -0.1292 -0.6149
  447MOL0     C60273   8.001   8.223   1.232 -0.1465  0.1664 -0.5832
  447MOL0     C60274   8.008   8.097   1.247 -0.7661  0.2411 -0.0093
  447MOL0     C60275   8.000   8.983   1.111 -0.3735 -0.0507  0.2194
  447MOL0     C60276   7.932   9.096   1.083  0.6297 -0.1912  0.4527
  447MOL0     C60277   8.019   9.211   1.061  0.2404  0.4886 -0.1806
  447MOL0     H60278   7.733   9.417   0.708 -0.6342  0.8204  0.3028
  447MOL0     H60279   7.593   9.645   0.666  4.0191 -1.8547 -2.3263
  447MOL0     H60280   7.378   9.793   0.980 -0.3537 -2.6098 -3.1641
  447MOL0     H60281   7.529   9.896   1.006 -0.4870  1.5266 -0.1477
  447MOL0     H60282   7.371  10.058   0.973  4.4246  1.1527  0.5112
  447MOL0     H60283   7.291   9.960   0.851  0.0497 -1.2360  1.4352
  447MOL0     H60284   7.482   9.989   0.673 -0.6723 -1.0956  0.2633
  447MOL0     H60285   7.570  10.089   0.781 -0.3890  1.5953  1.0030
  447MOL0     H60286   7.277  10.147   0.695 -0.1652 -0.4643  0.8876
  447MOL0     H60287   7.369  10.259   0.783 -2.1385  0.4416 -3.0266
  447MOL0     H60288   7.377  10.343   0.569 -0.6052  0.9431 -0.4016
  447MOL0     H60289   7.537  10.286   0.610 -1.7737  1.9790 -0.2805
  447MOL0     H60290   7.444  10.060   0.469  2.2614 -0.3401 -0.9734
  447MOL0     H60291   7.313  10.175   0.454 -0.1504 -4.6606  2.0216
  447MOL0     H60292   7.580  10.213   0.312  0.0584  4.1451 -6.1418
  447MOL0     H60293   7.460  10.334   0.348  0.2709 -0.6882  1.7631
  447MOL0     H60294   7.294  10.189   0.222 -0.1330 -3.2428  1.4357
  447MOL0     H60295   7.425  10.265   0.135  3.9572  0.6719  1.6289
  447MOL0     H60296   7.639  10.134   0.070 -0.7106  0.0070 -0.4281
  447MOL0     H60297   7.658   9.826  -0.126  1.3989  3.5751 -0.8965
  447MOL0     H60298   7.766   9.943  -0.060  1.4217 -1.3625 -1.9329
  447MOL0     H60299   7.851   9.737   0.006  1.5234  1.5530  1.7247
  447MOL0     H60300   7.761   9.799   0.152  1.6288 -3.1324  2.1807
  447MOL0     H60301   7.637   9.566  -0.025 -2.2062 -0.9793  0.3796
  447MOL0     H60302   7.570   9.632   0.116  1.0077  1.5417  2.1632
  447MOL0     H60303   7.701   9.421   0.169  2.5285 -1.5885 -0.7498
  447MOL0     H60304   7.749   9.565   0.261  3.5551 -4.0923  2.1690
  447MOL0     H60305   7.873   9.332   0.336 -0.6014 -0.5967  0.1053
  447MOL0     H60306   7.998   9.129   0.342  2.7361 -0.5522 -0.5816
  447MOL0     H60307   7.997   8.777   0.138 -0.3231  0.2429  0.6653
  447MOL0     H60308   8.050   8.542   0.104 -0.8449  1.1677  0.0229
  447MOL0     H60309   8.130   8.314   0.162 -0.5187 -0.6628 -1.5346
  447MOL0     H60310   8.211   8.379   0.017  0.7682  0.3237 -0.5093
  447MOL0     H60311   8.386   8.190   0.175 -1.3323 -2.2468  0.3611
  447MOL0     H60312   8.247   8.117   0.099  0.7204 -2.0468 -2.0514
  447MOL0     H60313   8.313   8.226  -0.118 -1.3499  1.7984  1.4850
  447MOL0     H60314   8.454   8.300  -0.040  0.7864 -1.2374  1.4535
  447MOL0     H60315   8.396   8.002  -0.049  0.5346 -0.9806  0.7047
  447MOL0     H60316   8.550   8.073  -0.006 -0.1403  0.0147 -0.9175
  447MOL0     H60317   8.578   8.128  -0.258 -0.1170 -1.4515 -1.2809
  447MOL0     H60318   8.413   8.083  -0.274 -0.3932  1.6132  0.3613
  447MOL0     H60319   8.653   7.904  -0.186 -1.5180 -0.8608  2.3841
  447MOL0     H60320   8.492   7.852  -0.153  0.6257  0.4616  0.6355
  447MOL0     H60321   8.601   7.940  -0.437  0.6269 -1.6677 -1.7916
  447MOL0     H60322   8.441   7.875  -0.407  1.3208 -0.1887 -2.9346
  447MOL0     H60323   8.672   7.706  -0.312  0.8297 -0.0816  1.0507
  447MOL0     H60324   8.503   7.667  -0.331 -2.3948 -1.4940 -5.6908
  447MOL0     H60325   8.434   8.604   0.303 -0.0504 -0.3975 -0.6183
  447MOL0     H60326   8.356   8.847   0.356  0.3544 -0.4422 -0.7111
  447MOL0     H60327   8.161   9.203  -0.049 -2.2367  1.5784 -2.1005
  447MOL0     H60328   8.043   9.399  -0.072  2.9830 -2.1163 -0.4466
  447MOL0     H60329   7.523   9.660   1.077 -0.6496 -0.3282  0.9112
  447MOL0     H60330   7.656   9.465   1.122  0.8501 -3.0758 -1.1344
  447MOL0     H60331   7.605   8.982   1.113  0.6156  2.3985 -3.5309
  447MOL0     H60332   7.728   8.779   1.175 -0.6075 -0.6680 -3.0374
  447MOL0     H60333   7.853   8.618   1.226  0.1364 -1.6230  1.3981
  447MOL0     H60334   7.889   8.723   1.362  1.1205  0.2581  0.4552
  447MOL0     H60335   8.069   8.608   1.442  1.8595 -0.5631 -0.5834
  447MOL0     H60336   8.137   8.582   1.299  1.3303 -0.7757  3.3732
  447MOL0     H60337   7.908   8.432   1.409 -1.0683 -1.1001 -1.5369
  447MOL0     H60338   8.079   8.390   1.421  0.2200 -2.7616 -0.8486
  447MOL0     H60339   7.903   8.403   1.163  0.1050 -1.8059 -1.2154
  447MOL0     H60340   8.082   8.403   1.156  1.0855  0.4365  0.6808
  447MOL0     H60341   8.000   7.993   1.271 -1.8124  0.5749  1.2109
  447MOL0     H60342   8.108   8.980   1.096 -0.2218  1.2050  0.9013
  447MOL0     H60343   8.096   9.222   1.138 -1.2516 -1.3075  1.6743
  447MOL0     H60344   8.057   9.206   0.958 -2.6625  0.7039 -1.3546
  447MOL0     H60345   7.958   9.300   1.081  1.7470  1.0915  2.2085
  448MOL0     O60346   8.987   9.802   8.519 -0.2711 -0.7610 -0.3861
  448MOL0     C60347   9.006   9.764   8.404 -0.3628  0.0507 -0.1392
  448MOL0     O60348   9.129   9.747   8.365  0.6778  0.3814 -0.6930
  448MOL0     C60349   9.233   9.744   8.453  0.7033 -0.2345  0.0609
  448MOL0     C60350   9.244   9.635   8.540  0.2791  0.4524 -0.1928
  448MOL0     C60351   9.342   9.634   8.634 -0.9133 -0.2598  0.8069
  448MOL0     C60352   9.443   9.734   8.631 -0.4194 -0.2189 -0.2530
  448MOL0     O60353   9.535   9.724   8.736 -0.5089  0.5395  0.6100
  448MOL0     C60354   9.653   9.796   8.728  0.7486  0.1291  1.0489
  448MOL0     C60355   9.754   9.773   8.841 -0.4572  0.2497 -0.6654
  448MOL0     C60356   9.890   9.853   8.850 -0.5218  0.4641 -0.3580
  448MOL0     C60357   9.871  10.001   8.831 -1.1718  0.8806  1.0395
  448MOL0     C60358   9.982  10.082   8.901  0.2098 -0.7343  0.2963
  448MOL0     C60359   9.963  10.237   8.879  0.4412  0.2079  0.4921
  448MOL0     C60360  10.038  10.327   8.979 -0.5224  0.2592 -0.4400
  448MOL0     C60361   9.983  10.308   9.114  0.4558 -0.6171 -0.0298
  448MOL0     N60362  10.053  10.365   9.230  0.3045  0.8984 -0.2225
  448MOL0     C60363   9.999  10.339   9.364  0.1656  0.1184 -0.2777
  448MOL0     C60364  10.063  10.435   9.444 -0.4908 -0.0232  0.1751
  448MOL0     C60365  10.027  10.444   9.591  0.1286  0.1534  0.0780
  448MOL0     C60366  10.148  10.458   9.684  0.3816  0.4607 -0.8896
  448MOL0     C60367  10.105  10.439   9.834 -0.6156  0.0096  0.6434
  448MOL0     C60368  10.221  10.452   9.932 -0.0424  0.8357 -0.5759
  448MOL0     O60369  10.249  10.586   9.986  0.1077 -0.1440  0.0817
  448MOL0     C60370  10.279  10.681   9.904 -0.0010 -0.1537  0.4994
  448MOL0     C60371  10.185  10.780   9.865 -0.4817 -0.0657 -0.0506
  448MOL0     C60372  10.220  10.869   9.762  0.9874 -0.4845  0.2704
  448MOL0     C60373  10.354  10.876   9.721 -0.5183  0.1217 -0.2846
  448MOL0     C60374  10.400  10.973   9.621 -1.1993  0.0354  0.2033
  448MOL0     O60375  10.328  11.087   9.602 -0.0056 -0.5232  0.6274
  448MOL0     C60376  10.389  11.192   9.542  0.1761 -0.2526  0.0155
  448MOL0     C60377  10.327  11.257   9.441  1.1379 -0.5918  0.7973
  448MOL0     C60378  10.392  11.370   9.386  0.3553  0.3213  0.5456
  448MOL0     C60379  10.518  11.413   9.427 -0.0447 -0.3655  0.4000
  448MOL0     O60380  10.579  11.512   9.360  1.3902  0.6729 -0.5716
  448MOL0     C60381  10.717  11.506   9.347 -0.4039 -0.0069  0.2166
  448MOL0     C60382  10.753  11.654   9.301  0.2066  0.2898  0.2607
  448MOL0     C60383  10.896  11.691   9.302  0.8903 -0.7487 -0.4174
  448MOL0     C60384  10.917  11.834   9.350 -0.6254  0.2119  0.5447
  448MOL0     C60385  10.857  11.878   9.493  0.3389  0.8883 -0.0730
  448MOL0     C60386  10.917  12.014   9.547 -0.8281  0.9092 -0.6900
  448MOL0     C60387  10.908  12.150   9.463  0.3970 -0.1266 -0.3456
  448MOL0     C60388  10.770  12.213   9.467 -0.3096 -0.6619 -0.1987
  448MOL0    Cl60389  10.680  12.113   9.338 -0.3024  0.0438  0.2521
  448MOL0     C60390  10.572  11.349   9.541 -0.4163  0.3502 -0.9459
  448MOL0     C60391  10.510  11.241   9.595 -0.4830  0.0631 -0.4529
  448MOL0     O60392  10.512  10.947   9.568 -0.5007 -0.1666  0.2920
  448MOL0     C60393  10.452  10.789   9.770  0.2138  1.0794  0.7054
  448MOL0     C60394  10.417  10.687   9.860  0.9613  0.4943 -0.7782
  448MOL0     N60395  10.159  10.510   9.372  0.3458  0.3886  0.6928
  448MOL0     N60396  10.149  10.462   9.244  0.0004 -0.8562  0.5267
  448MOL0     C60397   9.433   9.847   8.538  0.5280  0.0430  0.1934
  448MOL0     C60398   9.326   9.850   8.446  0.3698 -0.0728  0.4598
  448MOL0     C60399   8.890   9.758   8.307 -0.2740  0.7935  0.6498
  448MOL0     C60400   8.918   9.728   8.173 -0.1525  0.3175 -0.2857
  448MOL0     C60401   8.823   9.717   8.066 -0.9231 -0.5824 -0.4206
  448MOL0     C60402   8.686   9.726   8.098  0.4044  0.1924 -0.5430
  448MOL0     O60403   8.600   9.691   8.002  0.2482  0.4839 -0.2282
  448MOL0     C60404   8.480   9.615   8.032 -0.3170  0.0093 -0.3646
  448MOL0     C60405   8.511   9.470   8.056 -0.5086 -0.3718 -0.8806
  448MOL0     C60406   8.401   9.394   8.129  0.8925 -0.8716  0.4068
  448MOL0     C60407   8.420   9.252   8.148  0.8353 -0.2841  0.1956
  448MOL0     C60408   8.284   9.188   8.146 -0.2346 -0.4712  1.1641
  448MOL0     C60409   8.165   9.171   8.156  0.3492  0.4440 -0.3603
  448MOL0     C60410   8.655   9.751   8.234 -0.7282 -1.2439 -0.2450
  448MOL0     C60411   8.752   9.775   8.335 -0.3069  0.0213 -0.4019
  448MOL0     C60412   8.708   9.826   8.472  0.5095 -1.0254  0.5305
  448MOL0     H60413   9.178   9.550   8.536 -1.4836  1.7790 -3.3649
  448MOL0     H60414   9.349   9.554   8.707 -0.4714 -0.3688  0.6484
  448MOL0     H60415   9.688   9.765   8.629 -1.4100  1.0138 -0.0505
  448MOL0     H60416   9.639   9.904   8.725  0.6732  0.1597 -3.4928
  448MOL0     H60417   9.784   9.668   8.847 -1.2792  0.0960  2.0170
  448MOL0     H60418   9.709   9.787   8.939  2.6447 -1.2218  1.1239
  448MOL0     H60419   9.959   9.814   8.774 -1.0494 -2.9064  0.7141
  448MOL0     H60420   9.931   9.841   8.950 -1.8912 -0.1742  0.1512
  448MOL0     H60421   9.872  10.015   8.723  0.2585  1.8819  1.1552
  448MOL0     H60422   9.773  10.038   8.860 -0.0102  3.3212  2.0872
  448MOL0     H60423   9.975  10.044   9.003 -0.3828 -3.4814 -0.6859
  448MOL0     H60424  10.075  10.041   8.860  0.8320  0.4269  0.5170
  448MOL0     H60425  10.002  10.253   8.778  0.4094  1.1012  0.6173
  448MOL0     H60426   9.857  10.261   8.884  0.9409  2.7034  0.3168
  448MOL0     H60427  10.027  10.432   8.950  0.5371  0.8363  1.1371
  448MOL0     H60428  10.144  10.304   8.962 -0.5133  0.7719 -1.1364
  448MOL0     H60429   9.878  10.340   9.110 -0.5546 -3.4932  0.9999
  448MOL0     H60430   9.966  10.205   9.147  0.8663 -0.9244 -0.7545
  448MOL0     H60431   9.928  10.276   9.415  1.6480 -2.4173 -1.1591
  448MOL0     H60432   9.970  10.532   9.622  1.4909  0.9856  0.2869
  448MOL0     H60433   9.958  10.364   9.620 -0.3577  1.6579  3.5020
  448MOL0     H60434  10.212  10.371   9.661  0.4706  0.3354 -0.1893
  448MOL0     H60435  10.198  10.553   9.662  0.9853  1.3376  3.3988
  448MOL0     H60436  10.066  10.337   9.845 -1.0536 -0.1007 -1.5921
  448MOL0     H60437  10.031  10.511   9.870  1.0548  1.6830  0.9034
  448MOL0     H60438  10.302  10.426   9.864  0.1913 -1.6678  0.5611
  448MOL0     H60439  10.220  10.375  10.010 -0.5828  1.2557 -0.1585
  448MOL0     H60440  10.091  10.768   9.918 -0.1635 -1.3875  0.2435
  448MOL0     H60441  10.146  10.936   9.719  2.5197  0.8058 -0.4865
  448MOL0     H60442  10.228  11.225   9.408  1.3581  1.1722 -1.8160
  448MOL0     H60443  10.337  11.429   9.314 -2.5901 -0.9286  1.6342
  448MOL0     H60444  10.774  11.495   9.439 -0.6288  0.3498  0.4004
  448MOL0     H60445  10.753  11.446   9.263  0.6065  0.6434  0.1704
  448MOL0     H60446  10.723  11.674   9.197 -1.4647  3.3940  1.2165
  448MOL0     H60447  10.700  11.724   9.366 -2.6474 -0.6145 -0.8973
  448MOL0     H60448  10.945  11.614   9.362  0.3183  1.0962  2.6667
  448MOL0     H60449  10.935  11.689   9.200  0.9547 -1.4119 -0.3837
  448MOL0     H60450  10.870  11.891   9.270  2.0822  1.5672 -0.2175
  448MOL0     H60451  11.025  11.849   9.341 -0.3651 -0.3052  2.3017
  448MOL0     H60452  10.877  11.796   9.563  1.2591  1.1677  0.0015
  448MOL0     H60453  10.747  11.878   9.491  0.3110 -1.4029 -1.4222
  448MOL0     H60454  10.893  12.026   9.653  2.3255 -1.1531  0.3983
  448MOL0     H60455  11.023  11.989   9.560 -1.4679 -0.5717  2.8419
  448MOL0     H60456  10.943  12.138   9.360  2.3380 -0.5281  0.3181
  448MOL0     H60457  10.980  12.222   9.504 -1.5124 -0.0867  3.3307
  448MOL0     H60458  10.721  12.198   9.564 -1.3975  1.5545 -0.3366
  448MOL0     H60459  10.765  12.315   9.428 -0.4618 -0.9818 -1.0342
  448MOL0     H60460  10.669  11.376   9.583 -1.2142  1.4802  0.2585
  448MOL0     H60461  10.561  11.190   9.676 -0.0962  0.3668 -0.5006
  448MOL0     H60462  10.553  10.778   9.732  0.0514  1.0633  0.2793
  448MOL0     H60463  10.483  10.618   9.911  1.6296  1.5331 -0.1987
  448MOL0     H60464   9.498   9.934   8.541  3.6652 -2.1653  2.4217
  448MOL0     H60465   9.299   9.932   8.380 -0.1243 -0.3849  0.2687
  448MOL0     H60466   9.021   9.722   8.139  0.6305 -0.7933  2.1071
  448MOL0     H60467   8.858   9.707   7.964 -0.1677  2.5358 -0.5744
  448MOL0     H60468   8.409   9.622   7.949  0.3952  1.9710 -0.8697
  448MOL0     H60469   8.434   9.649   8.125  1.5767 -3.6218  2.1517
  448MOL0     H60470   8.588   9.452   8.132  1.6056  3.7726 -1.7803
  448MOL0     H60471   8.534   9.411   7.967  6.7148  0.0881  0.1176
  448MOL0     H60472   8.309   9.414   8.073  1.1489 -1.8439 -0.3965
  448MOL0     H60473   8.395   9.442   8.227  3.1943  1.6402 -0.5447
  448MOL0     H60474   8.482   9.215   8.066  1.9821  1.0957  0.4000
  448MOL0     H60475   8.471   9.219   8.240  1.3201 -1.7877 -0.5745
  448MOL0     H60476   8.059   9.155   8.160 -0.2154  3.0690 -2.2583
  448MOL0     H60477   8.550   9.769   8.255 -0.1486  0.5538  1.4775
  448MOL0     H60478   8.756   9.924   8.473  0.4051 -0.7826 -3.3731
  448MOL0     H60479   8.601   9.825   8.495  0.6280  2.8401  2.1487
  448MOL0     H60480   8.748   9.762   8.552  0.4291  0.5500  1.8920
  449MOL0     O60481   3.548   5.540   5.542 -0.0858  0.2366 -0.9584
  449MOL0     C60482   3.476   5.624   5.492 -0.3193  0.4251  0.0405
  449MOL0     O60483   3.467   5.650   5.363 -0.7130 -0.2927  0.8297
  449MOL0     C60484   3.526   5.553   5.283  0.8662 -0.1529 -0.2140
  449MOL0     C60485   3.670   5.549   5.263 -0.3386 -0.9871  0.3301
  449MOL0     C60486   3.725   5.440   5.193 -0.5374  0.1630  0.1325
  449MOL0     C60487   3.645   5.333   5.138  0.0158 -0.9999 -1.4661
  449MOL0     O60488   3.706   5.229   5.082  0.0360  0.4214  0.4365
  449MOL0     C60489   3.626   5.127   5.018 -0.1693 -0.8786  0.1316
  449MOL0     C60490   3.719   5.033   4.945  0.3919 -0.4476 -0.4472
  449MOL0     C60491   3.656   4.952   4.828 -0.1771  0.2045  0.4225
  449MOL0     C60492   3.658   5.033   4.697  0.8070  0.0731 -0.2646
  449MOL0     C60493   3.755   5.017   4.580 -0.4942  0.2617 -0.4153
  449MOL0     C60494   3.886   5.096   4.608 -0.6752  0.3120  0.5891
  449MOL0     C60495   3.992   5.075   4.508 -0.6896  0.0493  0.3222
  449MOL0     C60496   3.974   5.142   4.362 -0.4981 -0.1152 -0.6795
  449MOL0     N60497   4.090   5.128   4.281 -0.1446  0.8097  0.2895
  449MOL0     C60498   4.213   5.094   4.323 -0.1964  0.2450 -1.0794
  449MOL0     C60499   4.288   5.082   4.210 -0.6419  0.8860 -0.4878
  449MOL0     C60500   4.435   5.029   4.207 -0.0059 -0.6081  1.1404
  449MOL0     C60501   4.539   5.149   4.177 -0.0524  0.3582  0.3695
  449MOL0     C60502   4.526   5.203   4.034  0.4961 -0.9350  0.5701
  449MOL0     C60503   4.617   5.335   4.009 -0.1445 -0.6581 -0.7677
  449MOL0     O60504   4.649   5.342   3.877 -0.6134 -0.5861  0.3986
  449MOL0     C60505   4.577   5.423   3.786 -0.3462  0.0862 -0.0375
  449MOL0     C60506   4.604   5.399   3.654  0.1119  0.4682  0.7854
  449MOL0     C60507   4.531   5.467   3.552 -0.1957 -0.0352 -0.8516
  449MOL0     C60508   4.443   5.573   3.595 -0.3481 -0.2822 -0.1760
  449MOL0     C60509   4.392   5.669   3.494 -0.2931 -0.1145  0.0549
  449MOL0     O60510   4.411   5.645   3.356 -0.8711  0.1290  0.1092
  449MOL0     C60511   4.387   5.747   3.266  0.6252  0.6508 -0.6857
  449MOL0     C60512   4.482   5.835   3.225 -0.0776 -0.6654 -0.1531
  449MOL0     C60513   4.441   5.939   3.140  0.2681  0.6038  0.0854
  449MOL0     C60514   4.312   5.940   3.089 -0.1324 -0.4333  0.5675
  449MOL0     O60515   4.271   6.035   3.004  1.0273  0.0892  0.1859
  449MOL0     C60516   4.175   6.144   3.040  0.1599  0.2942  0.6733
  449MOL0     C60517   4.036   6.110   2.988  0.0386  0.2267 -0.1184
  449MOL0     C60518   3.941   6.228   3.026 -0.7479  0.7339 -0.1171
  449MOL0     C60519   3.843   6.264   2.905 -0.4788  0.1010  0.0881
  449MOL0     C60520   3.753   6.150   2.852 -0.4520  0.4325 -0.2456
  449MOL0     C60521   3.653   6.213   2.739 -0.3632  0.9252  0.9115
  449MOL0     C60522   3.531   6.297   2.790  0.2555  0.3435  0.7144
  449MOL0     C60523   3.424   6.231   2.878  0.6446  0.9839 -0.0904
  449MOL0    Cl60524   3.367   6.082   2.794  0.4672  0.0691 -0.4166
  449MOL0     C60525   4.218   5.842   3.128 -1.8597  0.1423  0.1601
  449MOL0     C60526   4.256   5.741   3.215 -0.3217 -0.0612  0.2206
  449MOL0     O60527   4.311   5.746   3.537  0.2553 -0.2533 -0.0540
  449MOL0     C60528   4.414   5.598   3.733 -0.9485 -0.0218  0.5039
  449MOL0     C60529   4.469   5.510   3.819  0.2956 -0.3255  0.1764
  449MOL0     N60530   4.210   5.095   4.103 -0.2863 -0.8411  0.7458
  449MOL0     N60531   4.097   5.134   4.145 -0.8721  0.2310  0.4504
  449MOL0     C60532   3.511   5.345   5.161 -0.3558  0.1931  0.3785
  449MOL0     C60533   3.450   5.451   5.228  0.1076 -0.8222  0.0880
  449MOL0     C60534   3.386   5.711   5.567  0.1104  0.2643 -0.3244
  449MOL0     C60535   3.412   5.729   5.701 -0.0728  0.1850 -1.1787
  449MOL0     C60536   3.326   5.806   5.774  0.6405 -0.0187 -0.8991
  449MOL0     C60537   3.212   5.868   5.723  0.1975 -0.2838 -0.4290
  449MOL0     O60538   3.132   5.942   5.801  0.7042  1.0320 -0.5622
  449MOL0     C60539   3.034   6.036   5.743  0.6860  0.1360  0.3493
  449MOL0     C60540   2.971   6.125   5.841 -0.2854  0.0141  0.0982
  449MOL0     C60541   2.942   6.263   5.770  1.0055  0.4046 -0.4150
  449MOL0     C60542   2.854   6.345   5.861 -0.1984 -0.0799  0.2750
  449MOL0     C60543   2.754   6.428   5.786 -0.0302  1.1213 -0.3986
  449MOL0     C60544   2.690   6.497   5.718 -0.9229 -0.2285  0.6291
  449MOL0     C60545   3.178   5.839   5.590 -0.1636  0.2196 -0.5516
  449MOL0     C60546   3.256   5.753   5.517 -0.9714  0.0600  0.0046
  449MOL0     C60547   3.212   5.703   5.381  0.6948 -1.4953  0.4350
  449MOL0     H60548   3.729   5.633   5.298 -0.8182 -0.6408  0.3145
  449MOL0     H60549   3.829   5.439   5.162 -0.8114 -1.3702 -0.8943
  449MOL0     H60550   3.563   5.080   5.094 -0.1741  0.4124  0.9610
  449MOL0     H60551   3.563   5.173   4.943 -2.6494 -4.4629 -0.2531
  449MOL0     H60552   3.762   4.965   5.019 -1.2047 -1.6450 -0.5518
  449MOL0     H60553   3.799   5.088   4.894  0.0514 -1.0908 -1.7304
  449MOL0     H60554   3.554   4.931   4.861  0.7881 -1.8653  2.3857
  449MOL0     H60555   3.700   4.853   4.812 -0.5458  0.1463 -0.2704
  449MOL0     H60556   3.560   5.019   4.650  2.2987 -3.8327 -2.6753
  449MOL0     H60557   3.680   5.137   4.723  0.5623  0.0839 -0.0958
  449MOL0     H60558   3.770   4.911   4.557 -0.3646  0.5688 -1.8318
  449MOL0     H60559   3.693   5.056   4.499 -2.3228 -0.7629  0.4282
  449MOL0     H60560   3.865   5.203   4.596 -0.5198  0.3683  0.8131
  449MOL0     H60561   3.928   5.079   4.708  3.6905  0.4513 -1.0138
  449MOL0     H60562   3.992   4.969   4.480 -5.3513 -0.1756  0.4217
  449MOL0     H60563   4.087   5.104   4.555 -0.5558  1.3087 -0.6592
  449MOL0     H60564   3.891   5.097   4.308  0.4332 -0.6428 -1.7138
  449MOL0     H60565   3.957   5.250   4.366 -0.3784  0.0186 -2.7355
  449MOL0     H60566   4.264   5.090   4.418 -1.1817 -0.6117 -0.5635
  449MOL0     H60567   4.453   4.997   4.310 -2.6131 -1.1729  1.4944
  449MOL0     H60568   4.445   4.947   4.136 -0.3768 -0.2419  0.6540
  449MOL0     H60569   4.506   5.226   4.246  0.2364  0.1923  0.6968
  449MOL0     H60570   4.641   5.130   4.210 -0.0752  2.9546  2.1797
  449MOL0     H60571   4.423   5.234   4.012  0.9839 -0.5292 -1.3440
  449MOL0     H60572   4.552   5.120   3.967 -0.2524 -0.8488  0.1564
  449MOL0     H60573   4.710   5.318   4.063  0.9199 -0.3671 -2.4470
  449MOL0     H60574   4.550   5.406   4.059 -0.0559 -1.8013  1.0837
  449MOL0     H60575   4.687   5.333   3.632 -1.2959 -1.3375  0.6858
  449MOL0     H60576   4.545   5.456   3.445  0.3498  1.0997 -0.9126
  449MOL0     H60577   4.581   5.833   3.270 -0.8294 -0.1306  1.5980
  449MOL0     H60578   4.501   6.027   3.119 -0.4052  1.1017  0.2157
  449MOL0     H60579   4.190   6.178   3.143  1.7205 -0.1297  0.6212
  449MOL0     H60580   4.218   6.227   2.982  0.3811 -0.8812 -0.8947
  449MOL0     H60581   4.043   6.111   2.879  3.7421  1.9653 -0.0080
  449MOL0     H60582   4.000   6.011   3.017  1.1705 -0.2227 -0.1885
  449MOL0     H60583   3.886   6.215   3.119  0.5873 -2.0789  0.3696
  449MOL0     H60584   3.997   6.321   3.038  1.3155 -0.5203  0.4963
  449MOL0     H60585   3.897   6.305   2.819  0.8790  1.4357  1.5240
  449MOL0     H60586   3.773   6.345   2.926 -0.0954  0.8925 -1.4972
  449MOL0     H60587   3.697   6.118   2.941 -2.6975  0.5431 -1.5398
  449MOL0     H60588   3.810   6.070   2.805  2.0180  0.7604  1.9553
  449MOL0     H60589   3.712   6.268   2.666 -0.9673 -0.8539 -0.9994
  449MOL0     H60590   3.622   6.128   2.678  3.2157  0.5020 -0.5535
  449MOL0     H60591   3.484   6.338   2.701  2.0651  1.8701  0.4225
  449MOL0     H60592   3.586   6.381   2.834 -0.3863  0.8183  0.6150
  449MOL0     H60593   3.464   6.199   2.975 -2.5306  2.5401  1.9226
  449MOL0     H60594   3.341   6.300   2.900  1.0616  1.3712  0.2869
  449MOL0     H60595   4.122   5.825   3.080 -1.5992  0.4485 -0.4757
  449MOL0     H60596   4.191   5.657   3.235 -2.3748  1.4719  0.3480
  449MOL0     H60597   4.333   5.668   3.756 -0.3040  0.8272  0.2415
  449MOL0     H60598   4.446   5.516   3.925  2.4938 -1.6431  0.7977
  449MOL0     H60599   3.437   5.270   5.138  0.0087  0.0528 -0.3581
  449MOL0     H60600   3.343   5.442   5.239  0.3561 -2.5821  1.7634
  449MOL0     H60601   3.499   5.674   5.737 -2.2874 -1.3098  2.4218
  449MOL0     H60602   3.340   5.805   5.881 -1.5349 -3.4562 -0.4648
  449MOL0     H60603   2.954   5.976   5.699 -0.4313 -0.5038  3.0836
  449MOL0     H60604   3.084   6.096   5.666  2.6110 -0.1550  1.3071
  449MOL0     H60605   3.024   6.146   5.934  1.0011 -1.1752 -0.3365
  449MOL0     H60606   2.878   6.085   5.881 -1.5195  2.0871 -0.5302
  449MOL0     H60607   2.892   6.255   5.674 -1.5948  3.5130  0.4782
  449MOL0     H60608   3.032   6.321   5.749 -0.4220  1.8431 -2.9794
  449MOL0     H60609   2.788   6.277   5.915  0.1327 -0.8320 -0.2596
  449MOL0     H60610   2.916   6.400   5.933 -1.3870  1.7152 -0.0018
  449MOL0     H60611   2.648   6.555   5.638  0.3651  2.4476  1.7793
  449MOL0     H60612   3.085   5.869   5.541  0.1617  0.5451 -0.9729
  449MOL0     H60613   3.104   5.718   5.380  0.5800 -1.5185  3.4743
  449MOL0     H60614   3.243   5.764   5.296 -3.7975  0.6046  0.0093
  449MOL0     H60615   3.239   5.599   5.364 -1.8236 -2.3797  1.3990
  450MOL0     O60616   4.265   8.610   2.043 -0.3193 -1.1002  0.1036
  450MOL0     C60617   4.368   8.542   2.010 -0.2191  0.4027  0.2486
  450MOL0     O60618   4.390   8.416   2.057  0.2832  0.3915 -0.3365
  450MOL0     C60619   4.282   8.335   2.090  0.3018  0.0948 -0.0757
  450MOL0     C60620   4.142   8.338   2.047 -0.6895 -0.5990 -0.0537
  450MOL0     C60621   4.053   8.245   2.095  0.4953 -0.2987  0.0528
  450MOL0     C60622   4.084   8.151   2.190 -0.6257  1.0652 -0.0069
  450MOL0     O60623   3.983   8.077   2.240  0.2438 -0.2098 -0.1456
  450MOL0     C60624   3.995   7.991   2.362 -1.0478 -0.3427 -0.0220
  450MOL0     C60625   4.081   7.867   2.330  0.4486 -0.4148  0.5977
  450MOL0     C60626   4.165   7.830   2.453 -0.1201 -0.1241  0.6954
  450MOL0     C60627   4.249   7.706   2.442  1.1326 -0.7898  1.0515
  450MOL0     C60628   4.357   7.699   2.545 -0.7787 -0.7392  0.8806
  450MOL0     C60629   4.451   7.580   2.532 -0.6737 -0.3533  0.0587
  450MOL0     C60630   4.536   7.555   2.660  0.4497 -0.3503  0.8927
  450MOL0     C60631   4.630   7.672   2.689 -0.6982 -0.5038 -0.0371
  450MOL0     N60632   4.721   7.640   2.792 -1.1153  1.7754  0.2680
  450MOL0     C60633   4.749   7.723   2.903  0.6822 -0.8233 -0.0848
  450MOL0     C60634   4.850   7.660   2.972 -0.1105 -0.2357  0.6012
  450MOL0     C60635   4.918   7.718   3.090  0.1932  0.1979 -0.4822
  450MOL0     C60636   5.057   7.777   3.044  0.7371  0.6198 -0.7780
  450MOL0     C60637   5.040   7.904   2.971 -0.5080  1.1079  0.2304
  450MOL0     C60638   5.168   7.977   2.944  0.0097  0.4301 -0.5995
  450MOL0     O60639   5.230   8.010   3.072  0.1687 -0.3290  1.0350
  450MOL0     C60640   5.368   7.989   3.075  0.8793  0.0025  0.5538
  450MOL0     C60641   5.452   8.104   3.044 -0.6071  0.6983  0.9085
  450MOL0     C60642   5.583   8.096   3.052  0.2152 -0.2249 -0.1228
  450MOL0     C60643   5.640   7.974   3.101 -0.0288  0.4502  0.7840
  450MOL0     C60644   5.779   7.969   3.092  0.0927  0.3949 -1.0011
  450MOL0     O60645   5.848   8.076   3.047 -0.3550  0.3431 -0.2163
  450MOL0     C60646   5.971   8.075   3.092  0.4745 -0.5687 -0.4881
  450MOL0     C60647   6.005   8.138   3.213  0.1920  0.0779  0.0591
  450MOL0     C60648   6.126   8.109   3.282  0.5273  0.1927  0.4669
  450MOL0     C60649   6.220   8.011   3.226  1.1227  0.2488 -1.3264
  450MOL0     O60650   6.336   7.951   3.279  0.0511 -0.8892 -0.0461
  450MOL0     C60651   6.362   8.002   3.408 -1.6079  0.2118  0.0745
  450MOL0     C60652   6.260   7.946   3.515 -0.3552 -0.4356  0.5281
  450MOL0     C60653   6.289   7.985   3.654 -0.0430  0.7932 -0.3756
  450MOL0     C60654   6.220   8.112   3.689 -0.7970  0.2447  0.0304
  450MOL0     C60655   6.257   8.163   3.822  0.7705  0.9164  0.2667
  450MOL0     C60656   6.183   8.290   3.860 -0.7028 -0.7140  1.5718
  450MOL0     C60657   6.170   8.320   4.005 -0.1906  0.4288  0.1435
  450MOL0     C60658   6.087   8.437   4.046  0.6170  0.1440  1.5420
  450MOL0    Cl60659   5.909   8.402   4.044 -0.4382  0.5830  0.2361
  450MOL0     C60660   6.179   7.961   3.102 -0.3245 -1.1300 -1.0020
  450MOL0     C60661   6.063   7.990   3.035  0.3468 -0.6898 -0.1379
  450MOL0     O60662   5.830   7.865   3.137 -0.3624 -0.6390 -0.2499
  450MOL0     C60663   5.562   7.868   3.146  0.7153  0.7666 -0.2774
  450MOL0     C60664   5.420   7.874   3.133  0.3227 -0.0371 -0.2028
  450MOL0     N60665   4.885   7.539   2.902  0.4493  0.2701 -0.5291
  450MOL0     N60666   4.797   7.525   2.809  0.1455  0.3832  0.4691
  450MOL0     C60667   4.217   8.149   2.234 -0.0056 -0.0977  0.4593
  450MOL0     C60668   4.317   8.236   2.178  0.0091  0.2216  0.0259
  450MOL0     C60669   4.478   8.614   1.939  0.1620 -1.2063  0.0962
  450MOL0     C60670   4.588   8.531   1.900  0.1854 -0.4137 -0.4662
  450MOL0     C60671   4.687   8.578   1.817  0.4851 -0.1004 -0.6432
  450MOL0     C60672   4.689   8.708   1.763 -0.1075  0.4186  0.7102
  450MOL0     O60673   4.781   8.732   1.672  0.3200  0.0673  0.3819
  450MOL0     C60674   4.890   8.801   1.741  0.9013 -0.2517  0.1811
  450MOL0     C60675   5.021   8.782   1.668 -0.4213 -0.2222 -1.0597
  450MOL0     C60676   5.047   8.638   1.625  0.2746  1.0270 -0.1311
  450MOL0     C60677   5.201   8.616   1.593 -0.2282  0.5126  0.1190
  450MOL0     C60678   5.233   8.480   1.559 -0.3771  0.5347  0.1281
  450MOL0     C60679   5.282   8.367   1.530  0.9696  0.8760  0.4557
  450MOL0     C60680   4.595   8.796   1.800 -0.7468 -0.2488  0.0244
  450MOL0     C60681   4.487   8.747   1.883  0.1300 -0.0494 -0.4784
  450MOL0     C60682   4.402   8.870   1.928  1.0040 -1.0316 -0.5614
  450MOL0     H60683   4.107   8.420   1.985 -2.6302 -0.9805  0.4784
  450MOL0     H60684   3.950   8.255   2.063  0.0448  1.1940  1.8184
  450MOL0     H60685   4.038   8.047   2.445 -0.5493 -1.2438  0.3393
  450MOL0     H60686   3.898   7.954   2.394  0.6779 -3.5842  2.0075
  450MOL0     H60687   4.138   7.885   2.238  0.9612 -0.9982  0.7890
  450MOL0     H60688   4.018   7.781   2.307 -1.1659  0.9887 -0.3974
  450MOL0     H60689   4.099   7.816   2.539 -0.8460 -0.5192  0.0894
  450MOL0     H60690   4.228   7.913   2.488  1.0929 -0.8788  0.3331
  450MOL0     H60691   4.179   7.622   2.449 -1.6027  1.2066 -0.3224
  450MOL0     H60692   4.297   7.712   2.344  2.4310 -1.1533  1.6499
  450MOL0     H60693   4.412   7.794   2.546 -0.3482 -0.7889 -2.9572
  450MOL0     H60694   4.299   7.683   2.636  2.8329  1.2760  3.8198
  450MOL0     H60695   4.396   7.488   2.510 -0.1290 -0.2157 -2.1981
  450MOL0     H60696   4.523   7.602   2.452  1.6167  0.8240  2.2977
  450MOL0     H60697   4.591   7.461   2.666 -0.7518 -1.3107 -1.6385
  450MOL0     H60698   4.468   7.540   2.744  0.3010 -2.4009  0.4480
  450MOL0     H60699   4.684   7.705   2.600 -1.7258  2.3967  0.2918
  450MOL0     H60700   4.565   7.758   2.711  1.8729  1.1823  1.4842
  450MOL0     H60701   4.696   7.815   2.924  0.0085 -1.0061 -0.9724
  450MOL0     H60702   4.848   7.797   3.115  0.4642  0.8682 -1.7451
  450MOL0     H60703   4.934   7.651   3.175  0.5513  1.4793  0.4817
  450MOL0     H60704   5.117   7.787   3.135 -1.7232 -0.0894  1.0228
  450MOL0     H60705   5.108   7.696   2.991 -3.8012 -4.3216  1.4406
  450MOL0     H60706   4.974   7.969   3.031 -1.6527  0.3029 -0.1165
  450MOL0     H60707   4.996   7.883   2.874 -0.2809 -0.6252  0.4730
  450MOL0     H60708   5.148   8.067   2.885 -0.9618  0.9905  0.5505
  450MOL0     H60709   5.227   7.904   2.887  0.7053 -0.9101  1.7048
  450MOL0     H60710   5.403   8.195   3.012 -2.8898 -1.1178 -1.1691
  450MOL0     H60711   5.641   8.175   3.006 -3.8860  1.4165 -3.0035
  450MOL0     H60712   5.930   8.200   3.262  1.0159 -1.5311  3.6766
  450MOL0     H60713   6.153   8.175   3.364 -0.5442  0.8997  0.2667
  450MOL0     H60714   6.459   7.966   3.444 -1.8578 -1.5711 -0.9258
  450MOL0     H60715   6.368   8.111   3.408  2.3391  0.1710  1.2893
  450MOL0     H60716   6.166   7.990   3.481  0.3490  1.2059  0.5959
  450MOL0     H60717   6.261   7.837   3.510 -0.1503 -0.5041  1.6799
  450MOL0     H60718   6.268   7.898   3.717  1.6184  2.1480  2.2323
  450MOL0     H60719   6.397   7.996   3.664  0.4141 -1.2867 -2.1935
  450MOL0     H60720   6.112   8.097   3.698 -1.1685  2.5362  0.0353
  450MOL0     H60721   6.248   8.185   3.613 -1.1046  1.7253  1.3035
  450MOL0     H60722   6.365   8.178   3.824  0.4868  3.3879  0.4459
  450MOL0     H60723   6.219   8.088   3.892  0.4776 -0.5368 -1.3922
  450MOL0     H60724   6.224   8.378   3.809 -2.1995 -0.8573  0.0510
  450MOL0     H60725   6.083   8.281   3.817  1.7366 -3.7171 -4.6230
  450MOL0     H60726   6.269   8.347   4.043  0.0653 -0.7741  0.3474
  450MOL0     H60727   6.140   8.231   4.061  2.0984 -1.7036 -1.8041
  450MOL0     H60728   6.122   8.474   4.143 -0.2504  2.1868  1.1105
  450MOL0     H60729   6.106   8.511   3.968 -3.4665 -1.0116 -0.8353
  450MOL0     H60730   6.255   7.897   3.059  0.4530 -0.2798 -0.9314
  450MOL0     H60731   6.038   7.942   2.941 -2.9483 -4.7106  2.4500
  450MOL0     H60732   5.609   7.781   3.191  0.7212  0.2805 -1.1967
  450MOL0     H60733   5.361   7.786   3.156 -0.1803  0.0316 -1.1593
  450MOL0     H60734   4.245   8.071   2.304 -2.1296 -0.9197  0.4808
  450MOL0     H60735   4.419   8.229   2.213 -0.4264 -1.0995  1.1196
  450MOL0     H60736   4.596   8.432   1.945  1.1415  0.6623  1.8552
  450MOL0     H60737   4.754   8.508   1.768  0.4842  0.5791 -1.6485
  450MOL0     H60738   4.901   8.757   1.841  2.1358 -2.4244 -0.8443
  450MOL0     H60739   4.873   8.909   1.752 -0.5439 -0.4505  0.1090
  450MOL0     H60740   5.099   8.817   1.736  1.1100 -1.2453 -2.2177
  450MOL0     H60741   5.025   8.847   1.580 -3.3398  1.4692 -0.0770
  450MOL0     H60742   4.993   8.637   1.530  2.6695  0.6814 -1.5626
  450MOL0     H60743   5.014   8.561   1.696 -3.3158  1.9562 -0.5885
  450MOL0     H60744   5.230   8.667   1.500 -2.0064  0.0825 -0.7020
  450MOL0     H60745   5.261   8.648   1.679  0.7467  1.1968 -0.7745
  450MOL0     H60746   5.305   8.266   1.500  2.2811  0.2599  3.1813
  450MOL0     H60747   4.616   8.899   1.772  3.1817 -1.2190 -1.2708
  450MOL0     H60748   4.352   8.931   1.853  0.1630  0.2267  0.9578
  450MOL0     H60749   4.331   8.841   2.007  1.6059 -1.6765 -0.2419
  450MOL0     H60750   4.468   8.932   1.989  2.3200 -3.5427  0.7603
  451MOL0     O60751   0.615   0.347   7.863  0.4476 -1.2484  0.4801
  451MOL0     C60752   0.523   0.397   7.936  0.6544  0.0633  0.7399
  451MOL0     O60753   0.388   0.400   7.909  0.6032  0.5494  0.5556
  451MOL0     C60754   0.343   0.319   7.803  0.3649  0.4849 -0.4300
  451MOL0     C60755   0.282   0.383   7.699 -0.1626  0.7703  0.1046
  451MOL0     C60756   0.225   0.310   7.594  0.1472  0.1038 -0.6284
  451MOL0     C60757   0.243   0.173   7.589 -0.2908 -0.2100  1.1023
  451MOL0     O60758   0.190   0.104   7.476  0.0298  0.2730 -0.5328
  451MOL0     C60759   0.121  -0.021   7.488 -0.1951 -0.2363 -0.1037
  451MOL0     C60760   0.214  -0.139   7.467 -0.0460  0.5884 -0.3048
  451MOL0     C60761   0.236  -0.186   7.323  0.9239  0.7922 -0.2590
  451MOL0     C60762   0.290  -0.332   7.310 -0.3418 -0.5011 -0.5954
  451MOL0     C60763   0.446  -0.341   7.340  0.4962 -0.2612 -0.5979
  451MOL0     C60764   0.496  -0.484   7.321  0.3722 -0.0228  0.2493
  451MOL0     C60765   0.642  -0.475   7.293 -0.3725 -0.0709 -0.5491
  451MOL0     C60766   0.736  -0.425   7.411  0.4296 -0.1545  0.1066
  451MOL0     N60767   0.726  -0.508   7.522  0.2214  0.1345  0.2939
  451MOL0     C60768   0.768  -0.632   7.535 -0.1998 -0.3196 -0.4548
  451MOL0     C60769   0.739  -0.672   7.663  0.3714  0.0460 -0.5954
  451MOL0     C60770   0.748  -0.804   7.728 -0.0341 -0.0641  0.0752
  451MOL0     C60771   0.872  -0.826   7.799 -0.9269 -0.3190 -0.3789
  451MOL0     C60772   0.856  -0.926   7.900 -0.1277  0.5625 -0.3021
  451MOL0     C60773   0.970  -0.918   8.006  0.6257 -0.8733 -0.6001
  451MOL0     O60774   0.951  -1.020   8.106  0.9520  0.0209  0.8500
  451MOL0     C60775   1.051  -1.046   8.200 -0.2844  0.0262  1.2991
  451MOL0     C60776   1.187  -1.006   8.187 -0.4043  0.8678  0.4887
  451MOL0     C60777   1.271  -1.038   8.293 -0.1766 -0.1612 -0.3792
  451MOL0     C60778   1.232  -1.106   8.405  0.1465  1.1395 -0.4350
  451MOL0     C60779   1.327  -1.117   8.524 -0.8068  0.3865 -0.3122
  451MOL0     O60780   1.453  -1.071   8.514 -0.3024 -0.7504 -0.6757
  451MOL0     C60781   1.526  -1.019   8.618  0.5508  0.6906  0.4912
  451MOL0     C60782   1.653  -0.980   8.582  0.8091 -0.3746  0.1987
  451MOL0     C60783   1.750  -0.929   8.670 -0.3722 -0.5172 -1.0577
  451MOL0     C60784   1.723  -0.913   8.804  0.6271 -0.4962 -0.6922
  451MOL0     O60785   1.814  -0.875   8.897 -0.6171  0.0927  0.7298
  451MOL0     C60786   1.832  -0.987   8.987  0.3300  0.6624  0.6723
  451MOL0     C60787   1.935  -0.946   9.091 -0.0010 -0.6040 -0.1750
  451MOL0     C60788   1.895  -0.819   9.160  0.0316 -0.5226  0.7988
  451MOL0     C60789   1.977  -0.810   9.295  0.0353 -0.4655  0.5525
  451MOL0     C60790   1.926  -0.679   9.366  0.4909  0.3762 -1.5054
  451MOL0     C60791   2.020  -0.662   9.492  0.5614 -0.2569 -0.1522
  451MOL0     C60792   1.973  -0.544   9.584 -1.3361  0.0986  0.4565
  451MOL0     C60793   2.066  -0.533   9.711  0.2145  0.1177  0.3893
  451MOL0    Cl60794   2.025  -0.403   9.795  0.3535 -0.4338  0.1351
  451MOL0     C60795   1.584  -0.922   8.843 -0.1235 -0.3080  0.6172
  451MOL0     C60796   1.485  -0.981   8.749 -0.0288 -1.1358 -0.1478
  451MOL0     O60797   1.267  -1.156   8.625 -0.6767  0.5653 -0.0170
  451MOL0     C60798   1.100  -1.158   8.411  0.4521 -1.5900 -0.1712
  451MOL0     C60799   1.009  -1.125   8.307 -0.2734  0.4394 -0.2252
  451MOL0     N60800   0.659  -0.567   7.714  0.5745  0.5997  0.6353
  451MOL0     N60801   0.660  -0.475   7.632  0.2270 -0.1263  0.0065
  451MOL0     C60802   0.311   0.110   7.694  0.5724  0.2327 -0.6657
  451MOL0     C60803   0.359   0.179   7.807 -0.2923  0.1508  0.1914
  451MOL0     C60804   0.552   0.430   8.076  0.4435  0.0545 -0.2067
  451MOL0     C60805   0.493   0.544   8.142 -0.7308  0.3831  0.5583
  451MOL0     C60806   0.518   0.584   8.272  0.1901  0.7971 -0.5033
  451MOL0     C60807   0.601   0.509   8.352 -0.2847  0.0895 -1.1748
  451MOL0     O60808   0.619   0.539   8.483 -0.1187  0.4385  0.1088
  451MOL0     C60809   0.651   0.436   8.567  0.4513  0.6811 -1.4038
  451MOL0     C60810   0.588   0.464   8.710 -0.3397 -0.5301  0.2021
  451MOL0     C60811   0.608   0.345   8.814  0.5961 -0.2119 -0.8222
  451MOL0     C60812   0.500   0.242   8.761  0.1741 -0.9981 -0.6203
  451MOL0     C60813   0.478   0.146   8.868 -0.4145  0.6663  0.4108
  451MOL0     C60814   0.435   0.062   8.942  0.0120  0.5661 -0.4374
  451MOL0     C60815   0.677   0.402   8.291 -0.5874  0.1250  0.5251
  451MOL0     C60816   0.643   0.360   8.155  0.1676 -0.3080 -0.5113
  451MOL0     C60817   0.708   0.236   8.099  0.2101 -0.2960 -0.6469
  451MOL0     H60818   0.260   0.489   7.707 -1.6197  0.4337  1.0556
  451MOL0     H60819   0.188   0.360   7.505 -0.9263  0.8469  0.2063
  451MOL0     H60820   0.078  -0.024   7.589  1.9372 -1.4036  0.8303
  451MOL0     H60821   0.041  -0.031   7.415  1.4093 -4.1952 -1.6063
  451MOL0     H60822   0.191  -0.221   7.536 -0.7907 -1.3323 -2.6893
  451MOL0     H60823   0.313  -0.105   7.499  0.1817  1.0032 -1.4225
  451MOL0     H60824   0.290  -0.111   7.264 -0.6309  0.6971 -1.9137
  451MOL0     H60825   0.138  -0.205   7.279  0.1198 -1.1647  2.1582
  451MOL0     H60826   0.239  -0.392   7.385  1.8981  3.1594  4.4379
  451MOL0     H60827   0.262  -0.370   7.212 -1.8953 -2.0018  0.3909
  451MOL0     H60828   0.493  -0.273   7.269  0.0297  2.1480  1.2839
  451MOL0     H60829   0.467  -0.306   7.442 -3.0894 -2.6491  1.1874
  451MOL0     H60830   0.481  -0.538   7.415 -0.0220  1.9130  1.3424
  451MOL0     H60831   0.454  -0.543   7.238  1.7770  2.0784 -2.1094
  451MOL0     H60832   0.657  -0.413   7.205  2.4125 -0.7736 -0.6477
  451MOL0     H60833   0.682  -0.572   7.263  1.0579  0.2937  0.1023
  451MOL0     H60834   0.843  -0.413   7.389  0.6678  2.4322  2.2010
  451MOL0     H60835   0.705  -0.325   7.442 -2.4651 -1.6166  2.4566
  451MOL0     H60836   0.797  -0.700   7.456 -3.3086 -2.3325 -0.0488
  451MOL0     H60837   0.669  -0.829   7.800  2.6148 -1.4893  2.7561
  451MOL0     H60838   0.739  -0.877   7.647 -4.6290 -2.2213  2.1427
  451MOL0     H60839   0.945  -0.855   7.723 -0.7954 -0.0448 -0.3580
  451MOL0     H60840   0.909  -0.735   7.848 -0.7523 -1.0172  0.8272
  451MOL0     H60841   0.861  -1.022   7.847 -0.0114 -0.8163  2.0888
  451MOL0     H60842   0.764  -0.909   7.955 -0.2493  4.2344 -1.3863
  451MOL0     H60843   0.956  -0.822   8.055 -2.0638 -0.9262 -1.1306
  451MOL0     H60844   1.068  -0.916   7.957  0.9691 -0.1401  0.0966
  451MOL0     H60845   1.223  -0.966   8.093 -1.3498 -2.5559 -1.4947
  451MOL0     H60846   1.371  -0.995   8.296 -0.2754  0.0397  0.0971
  451MOL0     H60847   1.687  -1.017   8.486  3.2844 -0.9572  1.2060
  451MOL0     H60848   1.852  -0.914   8.637  0.7685 -1.8422  1.5911
  451MOL0     H60849   1.735  -1.009   9.032 -1.4510 -0.0996 -3.1394
  451MOL0     H60850   1.862  -1.079   8.936  0.5081  0.0628  1.8279
  451MOL0     H60851   1.937  -1.034   9.157  2.1525 -1.1514 -0.8841
  451MOL0     H60852   2.038  -0.946   9.052 -0.0774  1.9363 -0.5336
  451MOL0     H60853   1.927  -0.744   9.087  0.9229  0.2571  1.9576
  451MOL0     H60854   1.786  -0.814   9.168  0.1584  1.3796  2.1959
  451MOL0     H60855   2.084  -0.797   9.278 -0.4831 -1.2205 -5.0344
  451MOL0     H60856   1.969  -0.906   9.348 -0.1021 -1.8312 -1.8036
  451MOL0     H60857   1.828  -0.677   9.415  1.4667  0.9485  0.5345
  451MOL0     H60858   1.923  -0.603   9.288 -0.7198 -1.2470 -3.1388
  451MOL0     H60859   2.019  -0.750   9.558  0.1641  0.7677  1.2416
  451MOL0     H60860   2.124  -0.657   9.459  0.4213 -0.9953 -0.7449
  451MOL0     H60861   1.866  -0.531   9.601 -0.9944  0.9501  2.1504
  451MOL0     H60862   2.003  -0.453   9.531 -1.4461  2.9952  4.8629
  451MOL0     H60863   2.053  -0.624   9.771 -2.4990  1.5359  2.1150
  451MOL0     H60864   2.171  -0.534   9.679 -0.1336 -1.3991 -0.8209
  451MOL0     H60865   1.563  -0.906   8.948  1.4765  2.3484  0.6164
  451MOL0     H60866   1.382  -0.993   8.781 -0.5619  1.1615 -0.7803
  451MOL0     H60867   1.056  -1.221   8.488 -5.7730 -0.0267 -1.8933
  451MOL0     H60868   0.903  -1.150   8.311  0.4567 -3.2189 -0.4900
  451MOL0     H60869   0.315   0.001   7.690  0.9713  0.2163 -0.0009
  451MOL0     H60870   0.412   0.121   7.882 -0.1961 -0.0925 -0.0585
  451MOL0     H60871   0.430   0.613   8.088 -1.8867 -1.1261 -0.0901
  451MOL0     H60872   0.465   0.676   8.293 -1.6537  0.3922 -2.8978
  451MOL0     H60873   0.758   0.420   8.579  0.0689  0.1176  2.2783
  451MOL0     H60874   0.609   0.341   8.532  0.1544  1.7198 -4.1897
  451MOL0     H60875   0.481   0.488   8.704  0.2507  4.6101  3.5829
  451MOL0     H60876   0.630   0.561   8.738 -1.3742  0.5656 -1.7862
  451MOL0     H60877   0.579   0.380   8.914  0.9561 -2.3690  0.0799
  451MOL0     H60878   0.712   0.313   8.812  0.4589 -1.1816  2.3606
  451MOL0     H60879   0.409   0.294   8.732 -1.3611 -0.5957  4.0716
  451MOL0     H60880   0.554   0.199   8.676  1.3060  2.4834 -1.8311
  451MOL0     H60881   0.375  -0.008   8.997  2.1844 -2.2126 -1.3763
  451MOL0     H60882   0.745   0.345   8.352 -1.2307  1.0467  2.1765
  451MOL0     H60883   0.641   0.164   8.050  1.0477 -0.3592 -1.7461
  451MOL0     H60884   0.777   0.256   8.017  0.5009 -1.2244 -0.6390
  451MOL0     H60885   0.763   0.184   8.178 -3.1096 -0.7628  1.5786
  452MOL0     O60886  10.423  11.433   7.018  0.1587  0.2981 -0.8628
  452MOL0     C60887  10.498  11.366   7.088  0.5690 -0.3171  1.0324
  452MOL0     O60888  10.535  11.250   7.057  0.4302  0.1690  0.3098
  452MOL0     C60889  10.499  11.190   6.932  1.3623 -0.1258  0.0493
  452MOL0     C60890  10.565  11.231   6.818  0.7757 -0.2289  0.8819
  452MOL0     C60891  10.522  11.207   6.685 -0.5412 -0.1973  0.2059
  452MOL0     C60892  10.412  11.130   6.672  1.4519  0.9678  0.4855
  452MOL0     O60893  10.331  11.117   6.562  0.5066  0.1161 -0.3082
  452MOL0     C60894  10.388  11.172   6.447  0.5220 -0.4095  0.1857
  452MOL0     C60895  10.287  11.135   6.325 -0.7456 -0.0014 -0.1463
  452MOL0     C60896  10.152  11.183   6.352  0.0512 -0.9460  0.1817
  452MOL0     C60897  10.064  11.080   6.431  0.1416 -0.6208 -0.0064
  452MOL0     C60898   9.916  11.092   6.390 -1.2026  1.0164 -0.7135
  452MOL0     C60899   9.848  11.232   6.408  0.0076 -0.6174  0.6557
  452MOL0     C60900   9.878  11.326   6.522  0.1099 -0.3971  1.0088
  452MOL0     C60901   9.834  11.476   6.493 -0.3253 -0.3806 -1.0099
  452MOL0     N60902   9.695  11.484   6.475  0.2148  0.1667  0.2071
  452MOL0     C60903   9.631  11.487   6.352  1.0373 -0.3918 -0.6253
  452MOL0     C60904   9.500  11.502   6.388  0.0510  1.8387  0.6989
  452MOL0     C60905   9.401  11.504   6.270  0.4461 -1.5959 -0.4763
  452MOL0     C60906   9.411  11.382   6.176  0.0270 -0.3361  0.2416
  452MOL0     C60907   9.338  11.392   6.050  0.2187 -0.2336  0.7133
  452MOL0     C60908   9.195  11.421   6.060 -0.4392  0.0683 -1.0283
  452MOL0     O60909   9.137  11.382   5.937  0.1530 -0.5392  0.8127
  452MOL0     C60910   9.002  11.364   5.925 -0.3430 -0.4630  0.8687
  452MOL0     C60911   8.960  11.259   5.847  0.7358 -0.6212 -0.7440
  452MOL0     C60912   8.817  11.238   5.841  0.0031 -0.3099  0.1968
  452MOL0     C60913   8.724  11.334   5.884 -0.0152  0.2423  0.4627
  452MOL0     C60914   8.581  11.319   5.841 -0.7068 -0.2728 -0.3345
  452MOL0     O60915   8.486  11.331   5.940 -0.1757  0.0113 -0.5348
  452MOL0     C60916   8.358  11.342   5.891  0.8249  0.8335  1.2961
  452MOL0     C60917   8.293  11.225   5.863  0.1335  0.0272 -0.0997
  452MOL0     C60918   8.166  11.229   5.810  0.2049 -0.3877  0.6369
  452MOL0     C60919   8.089  11.345   5.792 -0.1337 -0.2241  1.2522
  452MOL0     O60920   7.959  11.326   5.756 -0.3832 -0.4403 -0.3142
  452MOL0     C60921   7.904  11.439   5.689 -0.2789 -0.4793  0.1431
  452MOL0     C60922   7.793  11.363   5.604 -0.1784 -0.1889 -0.6190
  452MOL0     C60923   7.668  11.311   5.684 -0.0411  0.6571  0.0801
  452MOL0     C60924   7.589  11.210   5.597 -0.4627 -0.3408  0.2802
  452MOL0     C60925   7.452  11.166   5.663 -0.7998 -0.4383 -0.0629
  452MOL0     C60926   7.392  11.035   5.609  0.0581  0.1036  0.9542
  452MOL0     C60927   7.486  10.911   5.592  0.8037  0.6569 -0.3927
  452MOL0     C60928   7.405  10.781   5.603  0.3807  0.1003 -0.3787
  452MOL0    Cl60929   7.300  10.771   5.456 -0.1071 -0.1246 -0.5817
  452MOL0     C60930   8.153  11.464   5.826 -1.5713 -0.2798  0.5424
  452MOL0     C60931   8.291  11.461   5.871  0.5353  0.0604  0.3666
  452MOL0     O60932   8.566  11.310   5.721  0.5525 -0.5817 -0.1494
  452MOL0     C60933   8.772  11.444   5.955 -0.1027 -0.7922  0.3025
  452MOL0     C60934   8.910  11.458   5.976 -0.7440  0.1164 -1.0126
  452MOL0     N60935   9.490  11.509   6.524  0.6363  0.1059 -0.5900
  452MOL0     N60936   9.607  11.495   6.575 -0.5968 -0.1349  0.4689
  452MOL0     C60937  10.355  11.070   6.776 -0.2360  0.3986  0.4778
  452MOL0     C60938  10.395  11.098   6.912 -0.2991  0.2552  0.1405
  452MOL0     C60939  10.557  11.429   7.208 -0.3982 -0.2838 -0.0103
  452MOL0     C60940  10.695  11.416   7.246  1.6843  0.4938  0.6434
  452MOL0     C60941  10.735  11.462   7.370 -0.8977 -0.2888  1.0073
  452MOL0     C60942  10.648  11.529   7.457 -0.1805 -0.9639 -1.1884
  452MOL0     O60943  10.686  11.594   7.573  0.5288 -0.6721 -0.1762
  452MOL0     C60944  10.819  11.656   7.568  0.3675 -0.0579  0.5823
  452MOL0     C60945  10.829  11.763   7.670  0.0090 -1.0820 -0.3688
  452MOL0     C60946  10.948  11.851   7.639 -0.4053 -0.5574  0.5304
  452MOL0     C60947  10.932  11.975   7.720 -0.3304 -0.0190 -0.2167
  452MOL0     C60948  10.875  12.092   7.660 -0.4830  0.9645  0.1018
  452MOL0     C60949  10.826  12.190   7.621  1.0763 -0.5764 -0.3189
  452MOL0     C60950  10.513  11.543   7.426  0.1873 -0.0847 -0.0553
  452MOL0     C60951  10.469  11.487   7.310 -0.7335  0.3811 -0.1057
  452MOL0     C60952  10.317  11.480   7.302  0.0128  0.5593  0.4675
  452MOL0     H60953  10.641  11.308   6.829 -1.5766  1.9774  3.3764
  452MOL0     H60954  10.580  11.260   6.610  1.0813 -2.3673 -0.1944
  452MOL0     H60955  10.392  11.280   6.462  3.6686 -0.7756  3.0255
  452MOL0     H60956  10.486  11.132   6.419 -0.6969 -3.0480 -0.6912
  452MOL0     H60957  10.289  11.032   6.288  2.1488 -0.1380  0.1298
  452MOL0     H60958  10.320  11.183   6.232 -2.4699 -0.6645 -1.1426
  452MOL0     H60959  10.110  11.205   6.254  3.6241 -1.2240 -1.5875
  452MOL0     H60960  10.173  11.270   6.415  1.1850  0.4683 -2.0338
  452MOL0     H60961  10.091  10.975   6.418  0.3803 -0.2917 -3.1444
  452MOL0     H60962  10.081  11.092   6.538  0.8396 -3.5290  0.2919
  452MOL0     H60963   9.903  11.051   6.290  1.8965 -1.0037 -0.4369
  452MOL0     H60964   9.863  11.016   6.449  0.9332 -1.6102 -1.9183
  452MOL0     H60965   9.873  11.280   6.313  1.6630 -3.5417 -0.4985
  452MOL0     H60966   9.738  11.229   6.410 -0.1205  1.8233  3.1391
  452MOL0     H60967   9.984  11.323   6.548  0.0473 -1.6652  1.1607
  452MOL0     H60968   9.819  11.297   6.610  2.4798 -0.7511  2.5644
  452MOL0     H60969   9.866  11.540   6.576  0.3537 -2.0872  0.0903
  452MOL0     H60970   9.887  11.510   6.404  1.7599 -2.6084 -0.6954
  452MOL0     H60971   9.662  11.460   6.252 -0.0943 -2.8013 -0.4012
  452MOL0     H60972   9.298  11.521   6.305 -0.1897 -1.0125 -2.4845
  452MOL0     H60973   9.428  11.590   6.209 -1.3009 -0.1712  0.6418
  452MOL0     H60974   9.513  11.364   6.143 -0.5560 -0.0723 -1.8962
  452MOL0     H60975   9.378  11.293   6.230  3.1133 -0.9004  1.3537
  452MOL0     H60976   9.351  11.299   5.993 -2.3473  0.8979 -1.9940
  452MOL0     H60977   9.384  11.467   5.985  1.1542 -0.4768  1.0780
  452MOL0     H60978   9.188  11.524   6.095  0.6790 -0.9793  2.7052
  452MOL0     H60979   9.158  11.360   6.143 -1.0114  2.3491  0.4728
  452MOL0     H60980   9.034  11.193   5.803  4.2599  4.1421 -2.8168
  452MOL0     H60981   8.787  11.155   5.778 -0.0697 -0.1125 -0.0302
  452MOL0     H60982   8.356  11.137   5.871  1.5378  1.0187 -0.0343
  452MOL0     H60983   8.136  11.130   5.778  0.5733 -0.9379  1.9331
  452MOL0     H60984   7.861  11.511   5.759  1.2850  0.4553  0.1686
  452MOL0     H60985   7.960  11.489   5.610 -0.9626  0.5251  0.2824
  452MOL0     H60986   7.750  11.419   5.521 -0.3529  0.4608 -0.0977
  452MOL0     H60987   7.841  11.272   5.565 -4.7673 -1.9526 -2.8934
  452MOL0     H60988   7.696  11.266   5.780  1.2161 -1.4363 -1.1975
  452MOL0     H60989   7.609  11.399   5.712 -0.8313  0.4237 -0.8159
  452MOL0     H60990   7.660  11.127   5.589  0.4746  0.6752 -3.7728
  452MOL0     H60991   7.575  11.251   5.497 -1.8432 -0.0655  0.5687
  452MOL0     H60992   7.377  11.243   5.643 -0.8067  0.1121  1.8718
  452MOL0     H60993   7.474  11.143   5.768  0.2671  0.3861 -0.0838
  452MOL0     H60994   7.322  11.001   5.685  0.5860 -1.0135  0.9680
  452MOL0     H60995   7.343  11.059   5.514  0.3744 -0.4724  0.6425
  452MOL0     H60996   7.558  10.913   5.674 -0.7555  1.8821  1.0020
  452MOL0     H60997   7.518  10.920   5.487  1.7174 -1.1646 -0.3096
  452MOL0     H60998   7.489  10.711   5.595  2.5359  2.3614  1.0641
  452MOL0     H60999   7.342  10.771   5.692 -0.6215  1.8897 -0.8296
  452MOL0     H61000   8.103  11.559   5.816 -1.1959 -0.2305 -1.1524
  452MOL0     H61001   8.337  11.558   5.886 -2.2711  1.6020 -0.2949
  452MOL0     H61002   8.703  11.517   5.998  1.3768  2.2240 -2.0659
  452MOL0     H61003   8.941  11.555   6.014 -0.0819 -0.0098 -1.2077
  452MOL0     H61004  10.274  11.001   6.753 -1.0438  1.0135  1.3379
  452MOL0     H61005  10.354  11.056   7.003  2.6025  0.3039  1.5800
  452MOL0     H61006  10.774  11.363   7.192 -0.5543  0.4997 -2.9538
  452MOL0     H61007  10.843  11.451   7.381 -0.7981 -2.7372 -1.3556
  452MOL0     H61008  10.832  11.709   7.473  1.9719  0.0179  0.8146
  452MOL0     H61009  10.886  11.573   7.590 -1.9121 -1.9110  0.9510
  452MOL0     H61010  10.843  11.713   7.767 -0.5567  2.0832  1.4837
  452MOL0     H61011  10.745  11.832   7.672  1.7871  1.3548  3.6332
  452MOL0     H61012  10.959  11.870   7.532 -1.9953 -3.3158 -0.2406
  452MOL0     H61013  11.039  11.798   7.669  1.0145  1.0300 -0.8097
  452MOL0     H61014  10.872  11.966   7.811 -0.5195 -0.4199 -0.3819
  452MOL0     H61015  11.030  12.012   7.753  0.2499 -1.2559 -0.5097
  452MOL0     H61016  10.779  12.281   7.589  2.9447  0.4617 -0.2005
  452MOL0     H61017  10.442  11.599   7.486  1.2329  1.7245 -0.4383
  452MOL0     H61018  10.274  11.390   7.256 -1.0247  0.5812  1.3565
  452MOL0     H61019  10.275  11.473   7.402 -1.7975 -0.9961 -0.3463
  452MOL0     H61020  10.290  11.573   7.251  1.7982  1.3007  0.7922
  453MOL0     O61021   2.041   6.098   6.046  0.6325 -0.0926 -0.4115
  453MOL0     C61022   1.953   6.074   6.128 -0.6333 -0.0336  0.1041
  453MOL0     O61023   1.851   5.993   6.114  0.1256  0.1807  0.8489
  453MOL0     C61024   1.828   5.945   5.986  0.6135 -0.4464  0.2365
  453MOL0     C61025   1.776   6.025   5.891 -0.0192  0.4479  0.8625
  453MOL0     C61026   1.774   5.976   5.757  0.1730  0.1259  0.0929
  453MOL0     C61027   1.811   5.844   5.733 -0.0969  0.0112  0.2717
  453MOL0     O61028   1.803   5.790   5.608  0.6194  0.7886 -0.2184
  453MOL0     C61029   1.670   5.765   5.559 -0.2889  0.4658  0.0692
  453MOL0     C61030   1.634   5.860   5.449 -0.6092  0.4363  0.4265
  453MOL0     C61031   1.490   5.863   5.414  0.3699 -0.6137 -0.5149
  453MOL0     C61032   1.404   5.913   5.534  0.4233  0.1090  0.0266
  453MOL0     C61033   1.254   5.893   5.504  0.0411 -0.0453 -0.2242
  453MOL0     C61034   1.152   6.006   5.539  0.1213 -0.6613 -0.0465
  453MOL0     C61035   1.172   6.042   5.697  0.1134 -0.3953 -0.2298
  453MOL0     C61036   1.066   6.128   5.757  0.0424  0.5629  0.5948
  453MOL0     N61037   0.928   6.077   5.751  0.2374  0.0060 -0.7433
  453MOL0     C61038   0.841   6.066   5.644 -0.0565  0.1275  0.0925
  453MOL0     C61039   0.721   6.030   5.698  0.1919  0.3663  0.4201
  453MOL0     C61040   0.591   5.999   5.622 -0.3241 -0.2882  0.6591
  453MOL0     C61041   0.611   5.996   5.477 -0.7823 -0.3132 -0.1972
  453MOL0     C61042   0.699   5.876   5.443  0.5960  0.0729 -0.1448
  453MOL0     C61043   0.716   5.858   5.295 -0.0191  0.1496  0.9706
  453MOL0     O61044   0.773   5.976   5.237 -0.1347 -0.9851  0.0693
  453MOL0     C61045   0.809   5.973   5.104 -0.0791 -0.1677 -1.0999
  453MOL0     C61046   0.878   6.082   5.049 -0.7228 -0.5007 -0.2038
  453MOL0     C61047   0.933   6.078   4.920  0.4943 -0.6555  0.0226
  453MOL0     C61048   0.931   5.966   4.837  0.6695 -1.1407 -0.2215
  453MOL0     C61049   1.020   5.961   4.720  0.5092 -0.0924 -0.6247
  453MOL0     O61050   1.009   6.069   4.643  0.4638 -0.1552 -0.4630
  453MOL0     C61051   1.049   6.059   4.512 -0.0638  0.1559  1.7588
  453MOL0     C61052   1.107   6.179   4.473 -0.4846  0.0343  0.3926
  453MOL0     C61053   1.147   6.189   4.336 -0.5745 -0.3552  0.5105
  453MOL0     C61054   1.143   6.085   4.245  0.0300 -0.1616 -0.1846
  453MOL0     O61055   1.182   6.089   4.114 -0.3356  0.1842  0.1062
  453MOL0     C61056   1.303   6.156   4.070  0.1169 -0.9872  0.7158
  453MOL0     C61057   1.421   6.071   4.121  0.5363 -1.0838 -0.0999
  453MOL0     C61058   1.531   6.162   4.166 -0.5304 -0.9841  0.7781
  453MOL0     C61059   1.649   6.087   4.222  0.1521  0.5464 -0.1755
  453MOL0     C61060   1.770   6.095   4.126  0.1346 -0.3985  0.2018
  453MOL0     C61061   1.754   6.015   3.993 -0.3478  0.7939 -0.1987
  453MOL0     C61062   1.858   6.061   3.884  0.5417  0.3919  0.4205
  453MOL0     C61063   1.991   5.988   3.892 -0.2540 -0.2236  0.0229
  453MOL0    Cl61064   2.120   6.011   3.769  0.0605 -0.1870  0.0732
  453MOL0     C61065   1.090   5.967   4.296 -0.1838  0.1027 -0.1377
  453MOL0     C61066   1.032   5.956   4.417 -0.5387 -0.7614 -0.4763
  453MOL0     O61067   1.081   5.860   4.687 -0.0487 -0.0741 -0.4240
  453MOL0     C61068   0.869   5.854   4.896 -0.2497 -0.6138  0.1494
  453MOL0     C61069   0.812   5.861   5.024 -0.6252 -0.3148 -0.4315
  453MOL0     N61070   0.726   6.021   5.828 -0.7362  0.6011  0.1568
  453MOL0     N61071   0.848   6.040   5.858 -0.2829  0.5788  0.6772
  453MOL0     C61072   1.850   5.758   5.838 -0.0067  0.0169 -0.0952
  453MOL0     C61073   1.863   5.810   5.961  0.4119  0.5553  0.6568
  453MOL0     C61074   1.949   6.152   6.257 -0.2856 -0.7971 -0.7113
  453MOL0     C61075   2.008   6.278   6.272 -0.0074  0.8965  0.6103
  453MOL0     C61076   2.034   6.338   6.394  0.0734  0.4782  0.0118
  453MOL0     C61077   1.985   6.281   6.506  1.5212 -0.0463 -0.4298
  453MOL0     O61078   1.996   6.346   6.627 -0.0627  0.6672 -0.7383
  453MOL0     C61079   2.128   6.358   6.671  0.8525  0.0449  0.4556
  453MOL0     C61080   2.124   6.466   6.775 -0.2504 -1.3616  0.2145
  453MOL0     C61081   2.270   6.475   6.843  0.7153 -0.7148  0.0712
  453MOL0     C61082   2.263   6.567   6.969 -0.8856  0.2638  0.9947
  453MOL0     C61083   2.195   6.485   7.070  0.3149  0.3053 -0.4325
  453MOL0     C61084   2.167   6.428   7.174  0.8255  0.1248  0.0021
  453MOL0     C61085   1.908   6.164   6.499  0.3588  0.3476  0.4777
  453MOL0     C61086   1.896   6.093   6.383 -0.0824 -0.1624 -0.3657
  453MOL0     C61087   1.831   5.953   6.393 -0.9399 -0.3381  0.0833
  453MOL0     H61088   1.748   6.127   5.914  2.2342  0.8540  2.1561
  453MOL0     H61089   1.725   6.014   5.668  0.9989 -0.9129 -0.8287
  453MOL0     H61090   1.668   5.661   5.523  3.4940  0.6548 -1.1235
  453MOL0     H61091   1.609   5.764   5.650  0.3968 -1.7227  0.5707
  453MOL0     H61092   1.689   5.856   5.355 -1.3775 -0.7462  0.0026
  453MOL0     H61093   1.661   5.961   5.481 -1.4715  0.8771 -0.1921
  453MOL0     H61094   1.461   5.762   5.385 -3.5974  0.6246 -1.5088
  453MOL0     H61095   1.491   5.930   5.328 -0.1832  0.5256  0.3402
  453MOL0     H61096   1.426   5.870   5.632  2.1558  2.0715  0.5826
  453MOL0     H61097   1.426   6.020   5.536 -1.7546  0.8206 -3.7791
  453MOL0     H61098   1.251   5.901   5.395  2.4931  2.4066 -0.2214
  453MOL0     H61099   1.224   5.794   5.538  2.5852  0.3719  3.9955
  453MOL0     H61100   1.185   6.099   5.492  1.6953 -0.3346  1.6241
  453MOL0     H61101   1.053   5.965   5.517 -0.1683 -2.2775  3.5960
  453MOL0     H61102   1.274   6.078   5.713 -0.4435  0.4419  1.7336
  453MOL0     H61103   1.174   5.948   5.754  2.1989  0.5188  1.3391
  453MOL0     H61104   1.078   6.140   5.866 -1.3055  0.8075  0.7279
  453MOL0     H61105   1.060   6.227   5.711  1.1265  1.1379  1.6275
  453MOL0     H61106   0.860   6.064   5.538 -2.1517 -1.0571 -0.3097
  453MOL0     H61107   0.557   5.901   5.656  0.1275 -0.5337  0.4058
  453MOL0     H61108   0.503   6.062   5.636 -1.9553 -2.6583  1.5699
  453MOL0     H61109   0.516   5.978   5.426 -0.8409  1.2501 -0.7081
  453MOL0     H61110   0.660   6.086   5.437  1.2238  1.3321  5.0943
  453MOL0     H61111   0.647   5.785   5.475 -3.0778  2.5219  1.4915
  453MOL0     H61112   0.798   5.878   5.489  0.9158 -1.8554 -0.6362
  453MOL0     H61113   0.612   5.843   5.264 -1.0235  1.0076  3.6574
  453MOL0     H61114   0.773   5.766   5.281 -0.4469 -0.3963  2.6150
  453MOL0     H61115   0.892   6.174   5.104 -3.4451  0.9223 -1.7177
  453MOL0     H61116   0.980   6.165   4.875 -0.5308 -0.2588 -0.3194
  453MOL0     H61117   1.115   6.263   4.541 -4.1661  1.1080 -0.2748
  453MOL0     H61118   1.182   6.283   4.295 -0.3735 -0.6228  0.0625
  453MOL0     H61119   1.301   6.157   3.961  0.7517  0.3291  0.6970
  453MOL0     H61120   1.295   6.261   4.099 -1.5199 -1.2904  1.5006
  453MOL0     H61121   1.385   6.014   4.207 -0.9420  2.3467  1.7641
  453MOL0     H61122   1.455   6.002   4.043 -0.1189 -0.2920 -1.1111
  453MOL0     H61123   1.568   6.208   4.074  2.4178 -2.8396  0.8819
  453MOL0     H61124   1.487   6.236   4.233 -0.4213 -1.4106  1.3315
  453MOL0     H61125   1.642   5.979   4.236  1.7392  0.5868  1.3460
  453MOL0     H61126   1.689   6.135   4.311 -0.5799  1.1539 -0.1637
  453MOL0     H61127   1.855   6.069   4.189  1.0267  1.4460 -0.1716
  453MOL0     H61128   1.784   6.201   4.103 -0.5571  0.0411  1.6770
  453MOL0     H61129   1.764   5.907   4.012 -0.1493  1.0909  1.4686
  453MOL0     H61130   1.652   6.026   3.956 -0.7410 -1.5107  0.0539
  453MOL0     H61131   1.882   6.167   3.895 -2.9742  1.5894 -1.7319
  453MOL0     H61132   1.822   6.059   3.781 -0.7220  1.6632  0.7914
  453MOL0     H61133   2.036   5.999   3.991 -0.5785  0.1356  0.1307
  453MOL0     H61134   1.975   5.879   3.895 -0.4812 -0.1898  0.0786
  453MOL0     H61135   1.066   5.891   4.223  0.1600  0.1264 -0.2798
  453MOL0     H61136   0.970   5.876   4.456 -0.1907 -1.6033 -1.6016
  453MOL0     H61137   0.864   5.757   4.848 -0.0426  0.2172 -1.6133
  453MOL0     H61138   0.777   5.769   5.071 -4.2369  1.0212 -0.1962
  453MOL0     H61139   1.885   5.663   5.799 -2.6430 -0.9633 -0.2638
  453MOL0     H61140   1.898   5.746   6.042 -0.6993  2.8182  3.0861
  453MOL0     H61141   2.048   6.322   6.182  1.1804 -1.9308 -0.3560
  453MOL0     H61142   2.094   6.428   6.402  1.7362 -0.5670 -0.3016
  453MOL0     H61143   2.195   6.396   6.593 -2.4666 -0.2733 -2.8231
  453MOL0     H61144   2.170   6.269   6.718  1.1672 -0.1134 -0.1107
  453MOL0     H61145   2.043   6.458   6.848  1.1765 -1.1131  1.9009
  453MOL0     H61146   2.110   6.559   6.719 -0.2946 -2.0797 -1.0035
  453MOL0     H61147   2.322   6.528   6.762 -0.6427  2.1956  1.0062
  453MOL0     H61148   2.298   6.371   6.866  2.1305 -0.1916  0.8458
  453MOL0     H61149   2.365   6.582   7.005 -0.5101 -2.2411  1.2182
  453MOL0     H61150   2.210   6.659   6.946  0.4059  0.7305 -0.2308
  453MOL0     H61151   2.159   6.359   7.255  0.2224  0.5818  0.3422
  453MOL0     H61152   1.858   6.130   6.590 -0.9427 -1.6794 -0.8953
  453MOL0     H61153   1.803   5.937   6.498 -1.0630  2.1614  0.5048
  453MOL0     H61154   1.736   5.950   6.339 -0.7964 -1.8662 -0.1151
  453MOL0     H61155   1.896   5.872   6.359 -1.2651 -0.1638 -0.9927
  454MOL0     O61156   6.501  10.309  11.298  0.1743  0.4842  0.2301
  454MOL0     C61157   6.421  10.305  11.209 -0.2366  0.0576 -0.0708
  454MOL0     O61158   6.331  10.400  11.169  1.3001 -0.4949 -0.4925
  454MOL0     C61159   6.300  10.481  11.276  0.2749 -0.5475 -0.2656
  454MOL0     C61160   6.178  10.459  11.347  0.1752  0.1291  0.0791
  454MOL0     C61161   6.132  10.541  11.451 -0.2227  0.4570 -0.4762
  454MOL0     C61162   6.214  10.649  11.479 -0.5350 -0.6954  0.6098
  454MOL0     O61163   6.193  10.747  11.565  0.1958  0.5939 -0.2855
  454MOL0     C61164   6.084  10.832  11.539 -0.3138  0.4149 -0.0374
  454MOL0     C61165   6.113  10.970  11.610  0.3714 -0.5686 -0.3097
  454MOL0     C61166   6.040  11.098  11.539  0.3939  0.5852 -0.2499
  454MOL0     C61167   5.895  11.073  11.527 -0.0374  1.2643 -0.0001
  454MOL0     C61168   5.816  11.176  11.449  1.4517  1.2358 -0.3436
  454MOL0     C61169   5.672  11.143  11.415  1.0299 -0.4655 -0.8196
  454MOL0     C61170   5.574  11.129  11.529  0.8817 -0.5738  0.3412
  454MOL0     C61171   5.510  11.252  11.587  1.0321 -0.4386 -0.8985
  454MOL0     N61172   5.438  11.219  11.713 -0.4386 -0.1950 -0.4149
  454MOL0     C61173   5.446  11.270  11.842 -0.0755 -0.0238  0.3639
  454MOL0     C61174   5.357  11.220  11.919  0.1378 -0.6121  0.7824
  454MOL0     C61175   5.312  11.272  12.054 -0.9447 -0.4846 -0.4674
  454MOL0     C61176   5.285  11.427  12.063  0.2940 -0.0148 -0.5527
  454MOL0     C61177   5.307  11.491  12.194 -0.4175  0.4568 -1.1914
  454MOL0     C61178   5.159  11.491  12.249 -0.3696  0.6642 -0.0797
  454MOL0     O61179   5.152  11.539  12.378  0.5688  0.1705 -0.3203
  454MOL0     C61180   5.030  11.548  12.439  0.4902 -0.9120  0.1564
  454MOL0     C61181   5.030  11.621  12.564  0.2358  0.6222 -0.2001
  454MOL0     C61182   4.904  11.658  12.626 -0.7340 -0.4641  0.0915
  454MOL0     C61183   4.783  11.625  12.565  0.7608  0.1406  1.1228
  454MOL0     C61184   4.654  11.649  12.628 -0.5885  0.2137 -0.1924
  454MOL0     O61185   4.542  11.622  12.559  0.4098  0.5318  0.7605
  454MOL0     C61186   4.432  11.680  12.608  0.1537 -0.1829 -0.5497
  454MOL0     C61187   4.362  11.744  12.510  0.7393  1.2289  0.1793
  454MOL0     C61188   4.235  11.801  12.535  0.3381 -0.6649 -0.1430
  454MOL0     C61189   4.174  11.786  12.661  0.7765  0.9050  1.1483
  454MOL0     O61190   4.050  11.831  12.691 -0.6085  0.1900 -0.0463
  454MOL0     C61191   3.946  11.796  12.596  0.1111  0.1071  0.1165
  454MOL0     C61192   3.906  11.932  12.516  0.7693  0.3326  0.0427
  454MOL0     C61193   3.848  12.045  12.598  0.0721  0.5886  0.3572
  454MOL0     C61194   3.815  12.178  12.526 -0.0205  0.2888  1.0533
  454MOL0     C61195   3.703  12.154  12.421  0.1894  0.4816  0.7625
  454MOL0     C61196   3.650  12.263  12.329  0.0189 -0.4325 -0.2597
  454MOL0     C61197   3.578  12.386  12.389  0.8471  0.9809  0.5277
  454MOL0     C61198   3.442  12.343  12.437  0.2710  0.5047 -0.1003
  454MOL0    Cl61199   3.362  12.484  12.526 -0.0365  0.0475  0.4138
  454MOL0     C61200   4.253  11.725  12.761 -0.0431 -0.0577  0.0238
  454MOL0     C61201   4.379  11.670  12.738  0.3627 -0.8629  0.9041
  454MOL0     O61202   4.660  11.707  12.733  0.3984  0.1001  0.3668
  454MOL0     C61203   4.788  11.551  12.450 -0.0038  0.4456  0.1124
  454MOL0     C61204   4.907  11.517  12.384 -0.2209  0.0629  0.4868
  454MOL0     N61205   5.285  11.134  11.836 -0.1960  0.0673  0.7604
  454MOL0     N61206   5.337  11.137  11.719  0.8723  1.0743 -0.3748
  454MOL0     C61207   6.333  10.675  11.415 -0.8470  0.9995 -0.3920
  454MOL0     C61208   6.381  10.589  11.319 -0.5440 -0.6589  0.0287
  454MOL0     C61209   6.418  10.182  11.119  0.3218 -1.5598 -0.2167
  454MOL0     C61210   6.324  10.177  11.016 -0.0868 -0.2882  0.2486
  454MOL0     C61211   6.311  10.076  10.919 -0.0999 -0.4204 -0.9538
  454MOL0     C61212   6.389   9.958  10.945 -0.6405  0.1797  0.2177
  454MOL0     O61213   6.385   9.853  10.859  0.2040 -0.1810  0.0953
  454MOL0     C61214   6.307   9.847  10.743 -0.2077  0.2379 -0.0613
  454MOL0     C61215   6.346   9.718  10.675 -0.4001  0.7896  0.1284
  454MOL0     C61216   6.316   9.597  10.754  0.3831  0.8196 -0.7644
  454MOL0     C61217   6.175   9.580  10.802  0.6128 -0.4748 -0.8509
  454MOL0     C61218   6.080   9.595  10.691  0.3395  0.3845  0.2176
  454MOL0     C61219   6.004   9.607  10.595  0.3621  0.8637  0.6348
  454MOL0     C61220   6.487   9.956  11.043 -0.0102  0.8842 -0.0177
  454MOL0     C61221   6.502  10.065  11.136 -0.7176  0.1263  0.0602
  454MOL0     C61222   6.615  10.046  11.239 -0.5619 -0.4931  0.7029
  454MOL0     H61223   6.110  10.379  11.318  0.2693  0.8451 -2.4321
  454MOL0     H61224   6.043  10.524  11.511  1.4019 -0.8821  1.7228
  454MOL0     H61225   6.083  10.852  11.431  2.8733 -1.7037 -0.5976
  454MOL0     H61226   5.994  10.789  11.584  0.1747  0.2785  0.8318
  454MOL0     H61227   6.221  10.986  11.610  0.4605 -1.0886  0.9985
  454MOL0     H61228   6.076  10.976  11.712  2.1754 -0.7841  0.3856
  454MOL0     H61229   6.079  11.124  11.440 -1.4831 -0.3971 -1.3043
  454MOL0     H61230   6.064  11.190  11.594 -2.1158  1.1947 -0.0678
  454MOL0     H61231   5.886  10.983  11.465 -0.4124  1.2500  0.0703
  454MOL0     H61232   5.844  11.062  11.622 -0.3246  3.9144  0.2227
  454MOL0     H61233   5.835  11.274  11.493  1.1370  1.7427 -1.3160
  454MOL0     H61234   5.871  11.191  11.356 -0.5837  3.2970 -1.3212
  454MOL0     H61235   5.630  11.216  11.345  0.4432 -1.6579 -1.7574
  454MOL0     H61236   5.673  11.053  11.352 -0.6573  0.0049 -1.5715
  454MOL0     H61237   5.625  11.075  11.610 -0.6189 -2.4224  0.1249
  454MOL0     H61238   5.487  11.071  11.499 -0.4459  1.3863  0.2202
  454MOL0     H61239   5.580  11.335  11.582  0.8462 -0.3281 -1.8138
  454MOL0     H61240   5.434  11.278  11.513 -0.0303  3.8076  1.3637
  454MOL0     H61241   5.503  11.354  11.882  0.3490  0.2307 -0.7407
  454MOL0     H61242   5.225  11.213  12.084  0.7294 -3.6684 -1.3564
  454MOL0     H61243   5.392  11.262  12.128 -0.9502  0.3170 -0.3441
  454MOL0     H61244   5.363  11.464  11.997  1.4330 -3.8382 -1.6290
  454MOL0     H61245   5.186  11.454  12.024 -0.8181  0.9276  2.6239
  454MOL0     H61246   5.341  11.594  12.187  4.7268 -0.8851  0.1736
  454MOL0     H61247   5.372  11.445  12.269 -1.3869 -1.5373 -1.4881
  454MOL0     H61248   5.116  11.391  12.246 -2.3339  1.4437  0.6350
  454MOL0     H61249   5.099  11.551  12.181 -2.5311  1.1025  2.0582
  454MOL0     H61250   5.115  11.645  12.627 -0.0566  0.6011  0.2098
  454MOL0     H61251   4.914  11.699  12.726  1.9038  0.1911 -0.3572
  454MOL0     H61252   4.409  11.736  12.413 -1.2014 -2.9727 -0.6480
  454MOL0     H61253   4.178  11.835  12.450  0.1298 -0.3066  0.1374
  454MOL0     H61254   3.980  11.719  12.527 -1.5684 -1.4676  0.9711
  454MOL0     H61255   3.859  11.764  12.653  0.1136 -0.0804  0.0146
  454MOL0     H61256   4.000  11.966  12.471 -0.6014  3.2067 -0.8711
  454MOL0     H61257   3.836  11.903  12.437  3.5121  0.0630 -2.4742
  454MOL0     H61258   3.754  12.016  12.646  0.9483  1.2918  2.6380
  454MOL0     H61259   3.921  12.057  12.679  0.0501 -1.6528  0.7725
  454MOL0     H61260   3.905  12.210  12.475 -2.6072  1.0032 -3.6139
  454MOL0     H61261   3.776  12.249  12.600 -2.1679  0.4689 -0.1813
  454MOL0     H61262   3.621  12.105  12.474  0.0960  1.1889  1.2914
  454MOL0     H61263   3.743  12.082  12.349  0.7375 -0.4008  1.9102
  454MOL0     H61264   3.743  12.294  12.280  0.0601 -0.1367  0.0048
  454MOL0     H61265   3.584  12.220  12.254  1.4562  1.4524 -2.7513
  454MOL0     H61266   3.571  12.460  12.308  2.8535 -1.5608 -2.2179
  454MOL0     H61267   3.633  12.426  12.474 -1.0998  1.4617  1.6285
  454MOL0     H61268   3.376  12.304  12.359 -2.7529  1.3025  1.8835
  454MOL0     H61269   3.441  12.261  12.510 -2.5352 -0.4485 -1.0722
  454MOL0     H61270   4.203  11.726  12.857  2.0985 -1.4201  1.2484
  454MOL0     H61271   4.422  11.612  12.819  0.1119 -1.2698  0.7469
  454MOL0     H61272   4.705  11.505  12.398  1.3047 -0.9392 -0.8305
  454MOL0     H61273   4.894  11.483  12.282  0.3983 -2.6058  1.2165
  454MOL0     H61274   6.394  10.758  11.447 -3.9310  2.2331  2.9392
  454MOL0     H61275   6.477  10.611  11.276 -1.2483 -1.5592 -2.1347
  454MOL0     H61276   6.251  10.257  11.007 -0.6301 -0.3517  3.2518
  454MOL0     H61277   6.244  10.087  10.835 -0.2373 -1.3312 -0.9673
  454MOL0     H61278   6.322   9.934  10.679  1.4855 -1.8755 -2.7508
  454MOL0     H61279   6.200   9.855  10.765  0.1062  4.1112  0.7535
  454MOL0     H61280   6.451   9.702  10.651 -0.2874 -2.5566  2.2018
  454MOL0     H61281   6.282   9.719  10.585 -0.8024  2.1544  0.4098
  454MOL0     H61282   6.385   9.591  10.839  0.2900 -1.8185 -0.7932
  454MOL0     H61283   6.342   9.510  10.694 -0.3617  0.6807 -0.8952
  454MOL0     H61284   6.163   9.476  10.832  2.1049 -0.6221 -0.6906
  454MOL0     H61285   6.139   9.636  10.889 -1.6634 -3.0937  0.0323
  454MOL0     H61286   5.940   9.625  10.511  2.5110 -2.3967 -1.9542
  454MOL0     H61287   6.541   9.862  11.055 -2.0902 -0.5900 -1.4970
  454MOL0     H61288   6.704  10.095  11.199 -0.2749 -1.0763  0.6095
  454MOL0     H61289   6.582  10.083  11.336 -4.6058 -0.0723 -0.6455
  454MOL0     H61290   6.639   9.940  11.253  0.5261 -0.7546 -2.2314
  455MOL0     O61291   3.318  11.259   6.643 -0.3105 -0.9042 -0.1497
  455MOL0     C61292   3.362  11.156   6.692  0.2432 -0.6613 -1.0424
  455MOL0     O61293   3.432  11.058   6.640  0.4128  0.5707  0.6734
  455MOL0     C61294   3.452  11.058   6.505 -0.4694  0.4692 -0.0204
  455MOL0     C61295   3.511  11.175   6.441 -0.0173  0.1676  0.4388
  455MOL0     C61296   3.536  11.174   6.300  0.0214  0.9123 -0.5470
  455MOL0     C61297   3.508  11.057   6.230 -0.8578  0.1118  0.3852
  455MOL0     O61298   3.555  11.057   6.106  0.6978 -0.1661  0.5255
  455MOL0     C61299   3.633  10.946   6.062  0.6039 -0.5714 -0.7992
  455MOL0     C61300   3.730  11.007   5.960  0.4038  1.1237 -0.9417
  455MOL0     C61301   3.675  11.039   5.824 -0.6213  0.8938  0.1695
  455MOL0     C61302   3.562  10.942   5.771 -0.1706 -0.6068 -0.1974
  455MOL0     C61303   3.496  10.990   5.648  0.5101 -0.6493 -0.2582
  455MOL0     C61304   3.414  10.883   5.583  0.0610 -0.7992  1.1709
  455MOL0     C61305   3.377  10.944   5.440 -0.5751 -0.2707 -0.4229
  455MOL0     C61306   3.327  10.834   5.343 -0.2015 -0.2256 -0.0594
  455MOL0     N61307   3.244  10.726   5.402 -0.7268 -0.0313 -0.3369
  455MOL0     C61308   3.110  10.724   5.412 -0.3663 -0.4600  0.4342
  455MOL0     C61309   3.069  10.605   5.459 -0.2687 -0.3278  0.1243
  455MOL0     C61310   2.931  10.568   5.502  0.3842 -1.0292 -0.2809
  455MOL0     C61311   2.929  10.524   5.647 -0.2220  0.0996  0.3050
  455MOL0     C61312   2.789  10.472   5.677 -0.8711  0.5059 -0.8746
  455MOL0     C61313   2.786  10.428   5.832 -0.1569 -0.1163 -0.3244
  455MOL0     O61314   2.852  10.300   5.860  0.0213  0.6127 -0.2359
  455MOL0     C61315   2.773  10.187   5.880 -0.5396  0.5814  1.3218
  455MOL0     C61316   2.803  10.098   5.988 -0.3933 -0.0031  0.3087
  455MOL0     C61317   2.721   9.989   6.023 -0.0697 -0.1270  0.6050
  455MOL0     C61318   2.604   9.965   5.950  0.5703 -0.9566  0.7988
  455MOL0     C61319   2.508   9.863   5.988 -0.1273 -0.0021 -0.3858
  455MOL0     O61320   2.519   9.799   6.110 -0.1248  0.7370  0.0542
  455MOL0     C61321   2.442   9.690   6.140 -0.4736 -0.2328 -0.1238
  455MOL0     C61322   2.307   9.707   6.160  1.0933  0.0945 -0.1456
  455MOL0     C61323   2.235   9.612   6.237 -0.1664  0.3692  0.0927
  455MOL0     C61324   2.305   9.486   6.276 -0.3410 -0.4996  0.3927
  455MOL0     O61325   2.243   9.380   6.336  0.2633  0.0391 -0.2325
  455MOL0     C61326   2.202   9.425   6.472 -0.4841 -0.5638  0.3879
  455MOL0     C61327   2.077   9.354   6.510  0.0426  0.1857 -0.6167
  455MOL0     C61328   2.058   9.360   6.657 -0.5751 -0.1432 -0.3424
  455MOL0     C61329   1.983   9.233   6.712  0.1131 -0.1581  0.2214
  455MOL0     C61330   1.913   9.258   6.840 -1.0839  0.7004 -0.2231
  455MOL0     C61331   1.990   9.321   6.961  1.6304 -0.0496 -0.8173
  455MOL0     C61332   1.903   9.325   7.098 -0.1847 -0.1595 -0.2363
  455MOL0     C61333   1.986   9.370   7.216  0.6557 -0.3453 -0.3208
  455MOL0    Cl61334   2.088   9.513   7.186 -0.4735 -0.1904  0.0195
  455MOL0     C61335   2.448   9.480   6.256 -0.4846 -0.4663 -0.0089
  455MOL0     C61336   2.515   9.583   6.193 -0.6418  0.3719 -0.6953
  455MOL0     O61337   2.417   9.850   5.913  0.8606 -0.4928 -0.4159
  455MOL0     C61338   2.585  10.042   5.826 -1.2005 -0.2629 -0.0110
  455MOL0     C61339   2.665  10.161   5.797  0.4257 -0.3741 -0.7794
  455MOL0     N61340   3.184  10.528   5.462  0.7749 -0.4195  0.9156
  455MOL0     N61341   3.291  10.603   5.458 -0.3997 -0.3326  0.2408
  455MOL0     C61342   3.440  10.953   6.287  0.4251  0.4189 -0.6761
  455MOL0     C61343   3.407  10.955   6.426  0.5709  0.2029  0.6118
  455MOL0     C61344   3.350  11.143   6.839  0.9769  0.7902 -0.2750
  455MOL0     C61345   3.366  11.015   6.901 -0.3145 -0.6873  0.6053
  455MOL0     C61346   3.349  11.001   7.043  0.0520 -0.9176 -0.4135
  455MOL0     C61347   3.332  11.115   7.128  0.4516  0.6024 -0.2023
  455MOL0     O61348   3.328  11.092   7.260 -0.4541  0.4103 -0.5560
  455MOL0     C61349   3.269  11.189   7.350  0.1449  1.2070  0.5767
  455MOL0     C61350   3.245  11.132   7.489  0.4138  0.5383 -0.4479
  455MOL0     C61351   3.123  11.187   7.567  0.3278  0.4146  0.3682
  455MOL0     C61352   3.164  11.265   7.687  1.2335  0.3072 -0.8725
  455MOL0     C61353   3.057  11.351   7.743 -0.8626  0.7056  0.2833
  455MOL0     C61354   2.963  11.410   7.782 -0.6970  0.8424  0.0171
  455MOL0     C61355   3.329  11.238   7.067 -0.1556 -0.5356 -0.1990
  455MOL0     C61356   3.318  11.254   6.930 -0.2519 -1.6021  0.2103
  455MOL0     C61357   3.297  11.397   6.876 -0.0367 -1.1088 -0.3449
  455MOL0     H61358   3.549  11.256   6.503  2.6732 -0.8021  0.2094
  455MOL0     H61359   3.598  11.253   6.259 -0.0782  1.2893  0.0071
  455MOL0     H61360   3.694  10.902   6.141  1.0844 -0.4625 -1.1019
  455MOL0     H61361   3.567  10.863   6.035 -1.5464  1.2231 -1.3402
  455MOL0     H61362   3.810  10.932   5.967 -1.6518 -1.0942  0.7709
  455MOL0     H61363   3.787  11.087   6.009  2.8304 -1.1634  0.2629
  455MOL0     H61364   3.766  11.052   5.765 -0.8050  3.5329  0.3294
  455MOL0     H61365   3.632  11.138   5.841 -0.2004  0.5815  3.9158
  455MOL0     H61366   3.606  10.848   5.737  0.5705  0.3676 -2.0768
  455MOL0     H61367   3.487  10.940   5.850 -0.9105  0.8204 -0.8123
  455MOL0     H61368   3.430  11.075   5.671  0.1556 -0.6342 -1.2887
  455MOL0     H61369   3.570  11.032   5.580  3.9971 -0.5839  3.2297
  455MOL0     H61370   3.461  10.784   5.574 -3.5170 -2.6475  0.9916
  455MOL0     H61371   3.320  10.867   5.636 -0.6693  3.0987  1.3297
  455MOL0     H61372   3.467  10.995   5.403  0.9641  0.0007  3.2861
  455MOL0     H61373   3.294  11.013   5.461 -0.0103  0.6119 -0.9965
  455MOL0     H61374   3.276  10.895   5.268 -3.3170  0.7291  2.5965
  455MOL0     H61375   3.413  10.780   5.301  0.7458  0.3386  1.0731
  455MOL0     H61376   3.045  10.810   5.400 -0.5357 -0.7590 -0.9839
  455MOL0     H61377   2.864  10.655   5.498  1.0245 -0.3507  2.1463
  455MOL0     H61378   2.900  10.492   5.430  2.8880  1.5342 -4.5002
  455MOL0     H61379   3.012  10.457   5.670  0.1286  0.1318 -0.8222
  455MOL0     H61380   2.942  10.616   5.705  1.9645  0.5088 -0.7148
  455MOL0     H61381   2.772  10.387   5.609  0.2712  1.1414 -1.9863
  455MOL0     H61382   2.727  10.559   5.656 -1.6483  0.1429 -0.1568
  455MOL0     H61383   2.680  10.417   5.855 -0.0230 -0.1997  0.2646
  455MOL0     H61384   2.831  10.506   5.894  2.7163 -2.5807  0.9858
  455MOL0     H61385   2.898  10.114   6.037 -0.4956  2.4754 -0.1327
  455MOL0     H61386   2.747   9.921   6.103 -1.3585  0.8349  1.8894
  455MOL0     H61387   2.262   9.801   6.129 -1.9544 -0.5819  1.7776
  455MOL0     H61388   2.128   9.624   6.252 -0.0289  0.5139  1.0202
  455MOL0     H61389   2.293   9.401   6.529  2.2330  4.5346 -1.1364
  455MOL0     H61390   2.189   9.534   6.477  1.1871 -0.3913  2.9631
  455MOL0     H61391   2.003   9.410   6.452  0.0269 -0.2195 -0.9925
  455MOL0     H61392   2.086   9.251   6.475 -1.5197 -0.6364  1.2736
  455MOL0     H61393   2.150   9.374   6.712  0.4906 -1.2388 -1.7537
  455MOL0     H61394   1.995   9.448   6.674  1.6845  1.5405 -0.1969
  455MOL0     H61395   2.068   9.165   6.721  1.3890  1.4280  0.5985
  455MOL0     H61396   1.912   9.201   6.636  1.5765 -1.9339 -0.4888
  455MOL0     H61397   1.868   9.167   6.880 -1.0539 -0.0005 -1.7232
  455MOL0     H61398   1.833   9.330   6.822 -2.3060 -0.5432  0.0871
  455MOL0     H61399   2.073   9.253   6.981  0.4120 -1.1940  0.6031
  455MOL0     H61400   2.010   9.428   6.951 -5.0799  1.9206  1.0291
  455MOL0     H61401   1.865   9.222   7.103 -0.2509 -0.0908  3.2984
  455MOL0     H61402   1.813   9.387   7.090  0.2856  0.7513  1.2576
  455MOL0     H61403   1.921   9.387   7.302  0.7789 -0.9720 -0.0994
  455MOL0     H61404   2.040   9.279   7.244  1.0499  0.5753  2.2113
  455MOL0     H61405   2.487   9.387   6.297  1.3422  1.2679  2.4986
  455MOL0     H61406   2.621   9.606   6.197 -0.5509 -0.2171  2.6284
  455MOL0     H61407   2.502  10.015   5.761  1.8238 -3.3727 -2.9724
  455MOL0     H61408   2.622  10.222   5.718  1.3564  1.8631  0.3779
  455MOL0     H61409   3.426  10.865   6.225 -0.2990 -0.9512  1.3301
  455MOL0     H61410   3.360  10.868   6.469  1.7474 -0.8542 -0.1701
  455MOL0     H61411   3.381  10.929   6.837  0.0735  1.5797 -2.5835
  455MOL0     H61412   3.342  10.903   7.089  0.7463 -0.6463  0.2773
  455MOL0     H61413   3.174  11.228   7.310 -0.2622  0.9055  1.2286
  455MOL0     H61414   3.342  11.270   7.343 -0.5550  2.0166  2.2230
  455MOL0     H61415   3.329  11.157   7.554  2.2457  1.8385 -3.0883
  455MOL0     H61416   3.229  11.024   7.487  1.6222  0.2756  1.4726
  455MOL0     H61417   3.055  11.112   7.609 -0.2914  1.7807  1.9121
  455MOL0     H61418   3.057  11.256   7.515 -4.9084 -3.6944  0.6832
  455MOL0     H61419   3.189  11.189   7.761 -3.6236  0.3236  1.1614
  455MOL0     H61420   3.251  11.329   7.672 -1.1698  3.6977 -1.5543
  455MOL0     H61421   2.873  11.467   7.795 -1.6369 -1.1330  3.7504
  455MOL0     H61422   3.333  11.330   7.123 -0.0601 -1.1227  0.7718
  455MOL0     H61423   3.302  11.470   6.957  3.6326  1.2989 -2.4405
  455MOL0     H61424   3.385  11.419   6.814 -0.8898 -2.9154 -2.3299
  455MOL0     H61425   3.199  11.405   6.829 -0.2881  1.9327  0.5163
  456MOL0     O61426  11.475   0.043   3.047 -0.4699 -0.3632 -0.8374
  456MOL0     C61427  11.416   0.141   3.094 -1.1878  0.8231  0.4547
  456MOL0     O61428  11.292   0.141   3.151 -0.5264 -0.2439  0.4005
  456MOL0     C61429  11.203   0.044   3.133  0.5826 -0.5046 -0.3164
  456MOL0     C61430  11.107   0.031   3.233  0.5861  1.0484 -0.0959
  456MOL0     C61431  10.992  -0.053   3.217 -0.0600 -0.5551  0.2383
  456MOL0     C61432  10.969  -0.126   3.100 -0.4507 -0.1070 -0.0029
  456MOL0     O61433  10.853  -0.181   3.084  0.5564  0.8639 -0.7002
  456MOL0     C61434  10.828  -0.247   2.954 -0.2881 -0.1505 -0.0050
  456MOL0     C61435  10.692  -0.308   2.933  0.3223  0.3461  0.3048
  456MOL0     C61436  10.643  -0.398   3.053 -0.3968 -0.4306  0.3278
  456MOL0     C61437  10.749  -0.503   3.080 -0.2947 -0.3648 -0.1172
  456MOL0     C61438  10.746  -0.560   3.213  0.5747 -0.1369 -0.2719
  456MOL0     C61439  10.870  -0.650   3.253 -1.0526  1.0058 -0.2369
  456MOL0     C61440  10.907  -0.683   3.405 -0.5363 -1.4522 -0.3396
  456MOL0     C61441  10.830  -0.786   3.479  0.2315 -0.6884  0.1649
  456MOL0     N61442  10.857  -0.915   3.408  0.8002 -0.3370  0.4780
  456MOL0     C61443  10.967  -0.997   3.412 -0.3436 -0.7738  0.5895
  456MOL0     C61444  10.920  -1.110   3.350 -0.2860  0.1695  0.4931
  456MOL0     C61445  11.010  -1.227   3.348 -0.8918 -0.1079  0.4230
  456MOL0     C61446  10.995  -1.318   3.467 -1.1340  0.7350  0.3076
  456MOL0     C61447  11.096  -1.436   3.475 -1.1232  0.3960  0.4857
  456MOL0     C61448  11.031  -1.568   3.440 -0.0453 -0.2660  0.0371
  456MOL0     O61449  10.961  -1.555   3.310 -0.2187  0.3982  0.8471
  456MOL0     C61450  10.902  -1.666   3.256  0.0014  0.0700 -0.1686
  456MOL0     C61451  10.909  -1.791   3.313 -0.7924  0.2004  0.7038
  456MOL0     C61452  10.827  -1.892   3.266  0.3576 -0.3418 -0.7996
  456MOL0     C61453  10.757  -1.878   3.143 -0.6092 -0.4056  0.0228
  456MOL0     C61454  10.673  -1.982   3.082  0.4918 -1.5773 -0.3246
  456MOL0     O61455  10.581  -1.935   2.994  0.0736  0.2438 -0.6363
  456MOL0     C61456  10.516  -2.036   2.917  0.2831 -0.6429  0.3449
  456MOL0     C61457  10.400  -2.114   2.960  0.1822 -0.0493 -0.0587
  456MOL0     C61458  10.331  -2.194   2.873 -0.2390  0.5470  0.4062
  456MOL0     C61459  10.364  -2.202   2.735  0.6493  0.4369  0.6470
  456MOL0     O61460  10.306  -2.268   2.632 -0.3304 -0.1791 -0.5437
  456MOL0     C61461  10.203  -2.360   2.667  0.6286  0.3853  1.0641
  456MOL0     C61462  10.244  -2.504   2.688 -1.3903 -0.1377 -0.3974
  456MOL0     C61463  10.344  -2.563   2.591  0.4227  0.4791 -0.6719
  456MOL0     C61464  10.272  -2.622   2.473 -0.0530  0.1072 -0.5251
  456MOL0     C61465  10.340  -2.747   2.413  0.0625 -0.1755  0.2240
  456MOL0     C61466  10.299  -2.868   2.497 -0.3886 -0.1915  1.0022
  456MOL0     C61467  10.376  -3.003   2.470 -0.8808 -0.0601  0.3869
  456MOL0     C61468  10.378  -3.056   2.333  0.3354  0.1599  0.5209
  456MOL0    Cl61469  10.214  -3.079   2.253  0.1430 -0.1285 -0.6139
  456MOL0     C61470  10.469  -2.117   2.692  0.0072  0.3781  0.0755
  456MOL0     C61471  10.542  -2.041   2.784 -0.9702 -0.6579  0.5911
  456MOL0     O61472  10.674  -2.089   3.134 -0.3711  0.4288  0.1898
  456MOL0     C61473  10.763  -1.757   3.071 -0.7322  0.3206  0.7547
  456MOL0     C61474  10.835  -1.648   3.132 -0.0732  0.5730 -1.1715
  456MOL0     N61475  10.797  -1.090   3.280 -0.0089 -0.1040  0.0112
  456MOL0     N61476  10.762  -0.976   3.330  0.4426 -0.7225 -0.1722
  456MOL0     C61477  11.072  -0.112   3.003 -0.4741  0.1363 -0.6298
  456MOL0     C61478  11.186  -0.034   3.017 -0.2659  0.0776  0.7043
  456MOL0     C61479  11.482   0.270   3.102 -1.0650  0.5628  0.9763
  456MOL0     C61480  11.399   0.381   3.113  0.7179  0.7873  0.6132
  456MOL0     C61481  11.446   0.506   3.124 -0.2223  0.4076  0.3987
  456MOL0     C61482  11.585   0.536   3.112 -0.2055 -0.2026  0.5196
  456MOL0     O61483  11.634   0.661   3.141  0.4002  0.2400 -0.6686
  456MOL0     C61484  11.771   0.695   3.111 -0.8767 -1.1147  0.0205
  456MOL0     C61485  11.788   0.850   3.129  0.4433 -0.2096  0.6044
  456MOL0     C61486  11.705   0.935   3.029 -0.4373 -0.0993 -0.6195
  456MOL0     C61487  11.751   0.923   2.886 -0.0893 -0.1926 -0.4980
  456MOL0     C61488  11.733   0.799   2.815  0.1849  0.1940  0.5823
  456MOL0     C61489  11.705   0.696   2.760 -0.2617 -0.1964  0.5297
  456MOL0     C61490  11.669   0.429   3.087  0.7840  1.0100 -0.7378
  456MOL0     C61491  11.620   0.298   3.071  0.3264  1.0726 -0.0321
  456MOL0     C61492  11.722   0.188   3.057 -0.6088 -1.2939 -0.9033
  456MOL0     H61493  11.128   0.090   3.322 -0.6243  4.1783 -1.7132
  456MOL0     H61494  10.911  -0.052   3.291 -0.8830 -1.6843 -0.6125
  456MOL0     H61495  10.838  -0.176   2.871  5.0903 -0.9606 -0.3888
  456MOL0     H61496  10.909  -0.318   2.938  0.0199  0.0317  0.6834
  456MOL0     H61497  10.680  -0.358   2.836 -2.0213  1.0912  0.1525
  456MOL0     H61498  10.617  -0.228   2.928  0.5328  0.5022 -0.7528
  456MOL0     H61499  10.551  -0.449   3.025  0.8750 -2.4972 -0.2405
  456MOL0     H61500  10.632  -0.321   3.131  1.1673  1.9174 -1.5970
  456MOL0     H61501  10.726  -0.583   3.009 -2.0645  0.4228 -0.5025
  456MOL0     H61502  10.852  -0.476   3.058 -0.5733 -0.2095 -1.3353
  456MOL0     H61503  10.731  -0.484   3.289  0.3085 -0.8496  0.4091
  456MOL0     H61504  10.663  -0.632   3.211 -1.0528  1.6101 -3.9266
  456MOL0     H61505  10.857  -0.750   3.212  0.3108  0.6279  0.2296
  456MOL0     H61506  10.960  -0.607   3.208 -0.9632 -1.2620 -2.4464
  456MOL0     H61507  10.898  -0.592   3.467 -3.5395 -1.4453 -0.6547
  456MOL0     H61508  11.013  -0.707   3.412 -0.0036  0.9898  2.4496
  456MOL0     H61509  10.869  -0.781   3.580  0.2450 -2.0682  0.2497
  456MOL0     H61510  10.727  -0.748   3.474  1.0893  1.6572 -1.2595
  456MOL0     H61511  11.059  -0.993   3.469 -1.4082 -1.1205  2.4130
  456MOL0     H61512  10.991  -1.288   3.259 -1.4352  0.4135  0.1725
  456MOL0     H61513  11.114  -1.192   3.350 -1.4140  1.5288  1.6869
  456MOL0     H61514  11.006  -1.263   3.561  2.3272  2.2264 -0.8162
  456MOL0     H61515  10.894  -1.359   3.465 -1.2123  0.9712 -1.0595
  456MOL0     H61516  11.127  -1.468   3.575 -0.9561 -1.2667 -0.0707
  456MOL0     H61517  11.183  -1.419   3.412  0.6194  0.6397  2.8123
  456MOL0     H61518  10.969  -1.602   3.523  0.2797 -0.6191  0.1359
  456MOL0     H61519  11.111  -1.643   3.435  0.5039  0.2427  0.8499
  456MOL0     H61520  10.962  -1.810   3.405  1.1472 -0.7995 -0.5458
  456MOL0     H61521  10.822  -1.988   3.317 -0.8576  0.5037  0.7690
  456MOL0     H61522  10.362  -2.110   3.061  2.6429 -3.5620  1.1749
  456MOL0     H61523  10.248  -2.254   2.909  0.4984 -1.0505 -0.4542
  456MOL0     H61524  10.144  -2.324   2.752 -0.6442  0.3447  0.2367
  456MOL0     H61525  10.134  -2.344   2.583  3.8710 -0.2531 -1.9429
  456MOL0     H61526  10.284  -2.508   2.789 -0.4540 -0.9351 -0.7793
  456MOL0     H61527  10.154  -2.568   2.684 -0.7897 -0.9752 -0.8980
  456MOL0     H61528  10.415  -2.485   2.561 -1.6672  3.2702  1.1260
  456MOL0     H61529  10.400  -2.645   2.637 -2.4604 -1.4370 -0.3621
  456MOL0     H61530  10.279  -2.555   2.387 -0.6919  0.6618 -0.1566
  456MOL0     H61531  10.165  -2.631   2.496 -0.0296  3.9064  1.9660
  456MOL0     H61532  10.448  -2.742   2.427  0.1019 -0.4735  0.0378
  456MOL0     H61533  10.318  -2.767   2.308  1.0532 -0.4175  0.0526
  456MOL0     H61534  10.307  -2.841   2.603  1.0763 -1.9016  1.3846
  456MOL0     H61535  10.191  -2.875   2.481 -0.5229  2.8736 -0.2663
  456MOL0     H61536  10.344  -3.086   2.533 -0.2407  0.5439  1.5359
  456MOL0     H61537  10.481  -2.982   2.488  0.6128 -0.6652 -5.4299
  456MOL0     H61538  10.431  -2.984   2.269 -0.6821 -1.3221 -2.1684
  456MOL0     H61539  10.441  -3.146   2.331 -0.9564 -0.7936  1.3566
  456MOL0     H61540  10.502  -2.110   2.589  0.5238 -3.6718 -0.1586
  456MOL0     H61541  10.624  -1.981   2.747 -0.9970  0.3278  2.0554
  456MOL0     H61542  10.711  -1.741   2.976  4.1892 -1.2133 -2.5746
  456MOL0     H61543  10.827  -1.543   3.105 -1.6877  0.6609 -0.5285
  456MOL0     H61544  11.073  -0.161   2.907  0.6003 -0.7741 -0.1669
  456MOL0     H61545  11.254  -0.023   2.933  0.9658  0.0676  1.6725
  456MOL0     H61546  11.293   0.360   3.101  1.2253 -2.1576  0.5763
  456MOL0     H61547  11.375   0.586   3.143 -1.9233 -0.7778 -0.6487
  456MOL0     H61548  11.799   0.659   3.012 -0.2609 -0.5356 -0.0216
  456MOL0     H61549  11.836   0.655   3.189 -2.5840 -0.4409  1.8623
  456MOL0     H61550  11.895   0.867   3.116  0.1329  0.7547 -0.8603
  456MOL0     H61551  11.763   0.874   3.233 -0.9828 -2.9825  1.0094
  456MOL0     H61552  11.727   1.041   3.042 -2.3651  0.6056 -2.4330
  456MOL0     H61553  11.598   0.914   3.044 -0.5483 -1.6152 -3.0025
  456MOL0     H61554  11.694   1.005   2.841 -1.2603 -2.4825 -3.5034
  456MOL0     H61555  11.858   0.946   2.876  1.4177 -5.0844  1.5137
  456MOL0     H61556  11.681   0.598   2.723  1.7040 -1.4237  2.2639
  456MOL0     H61557  11.775   0.451   3.092  0.3806  2.9976  2.4696
  456MOL0     H61558  11.703   0.127   3.146  0.2275  0.0111  0.2269
  456MOL0     H61559  11.706   0.126   2.969  1.5231  0.7945 -2.9051
  456MOL0     H61560  11.828   0.215   3.054 -0.8838 -0.1170 -0.4437
  457MOL0     O61561   2.497   7.813   1.518  0.4272  0.2474 -0.2048
  457MOL0     C61562   2.560   7.750   1.598 -0.3147 -0.6047  0.5935
  457MOL0     O61563   2.626   7.629   1.576 -0.7033  0.8082  0.3517
  457MOL0     C61564   2.649   7.600   1.447 -0.7473 -0.2130 -0.1272
  457MOL0     C61565   2.762   7.657   1.390 -0.4138 -0.6487  1.3360
  457MOL0     C61566   2.794   7.629   1.260 -0.1370  0.3799 -0.1633
  457MOL0     C61567   2.733   7.524   1.192 -0.5364 -0.1013  0.2560
  457MOL0     O61568   2.781   7.492   1.074 -0.3318  0.0288  0.6853
  457MOL0     C61569   2.725   7.401   0.985 -0.0426  0.8851 -0.4618
  457MOL0     C61570   2.772   7.434   0.846  0.3991 -0.0825  1.0114
  457MOL0     C61571   2.687   7.540   0.777 -0.1512 -1.2162  0.9243
  457MOL0     C61572   2.769   7.611   0.672  0.2079 -0.7146 -0.0203
  457MOL0     C61573   2.685   7.724   0.590  0.5885 -0.4849  0.2963
  457MOL0     C61574   2.586   7.666   0.484 -0.2002  0.6192 -0.4061
  457MOL0     C61575   2.539   7.773   0.379 -0.6061  0.2718 -0.7486
  457MOL0     C61576   2.420   7.734   0.282  0.6704  0.0581  0.1996
  457MOL0     N61577   2.287   7.734   0.348  1.6295  0.0301  0.3998
  457MOL0     C61578   2.214   7.839   0.400 -0.5276 -0.1204 -0.2250
  457MOL0     C61579   2.101   7.788   0.446  0.1492 -0.5524  0.3525
  457MOL0     C61580   2.010   7.873   0.529 -0.2885 -0.2198  0.2032
  457MOL0     C61581   1.935   7.781   0.631 -0.0558  0.6918 -0.2488
  457MOL0     C61582   1.855   7.864   0.735  0.3686 -0.3732 -0.2319
  457MOL0     C61583   1.759   7.760   0.805 -0.7556  0.1369  0.0780
  457MOL0     O61584   1.834   7.654   0.864 -0.2452  0.6889 -0.2386
  457MOL0     C61585   1.769   7.535   0.903  0.7110  0.0246  0.9196
  457MOL0     C61586   1.623   7.520   0.926 -0.1885 -0.1581 -0.6808
  457MOL0     C61587   1.571   7.403   0.966 -0.0880  0.7006 -1.0485
  457MOL0     C61588   1.639   7.281   0.982  0.0807 -0.0948  0.3418
  457MOL0     C61589   1.570   7.160   1.037 -0.2888 -0.4874  0.3898
  457MOL0     O61590   1.431   7.169   1.064 -0.1428  0.6640 -0.3903
  457MOL0     C61591   1.379   7.059   1.120  0.6003  1.4159 -0.8425
  457MOL0     C61592   1.328   7.081   1.241 -0.0153 -0.6058  0.1450
  457MOL0     C61593   1.266   6.979   1.310 -0.1235  0.1847  0.6073
  457MOL0     C61594   1.236   6.854   1.255  0.6359  0.4294  0.4377
  457MOL0     O61595   1.151   6.753   1.312  0.7023  0.5057  0.7775
  457MOL0     C61596   1.031   6.790   1.381 -0.2007 -0.8024  0.0197
  457MOL0     C61597   0.929   6.849   1.290 -0.7487 -0.7875 -0.5315
  457MOL0     C61598   0.832   6.946   1.358 -0.4087 -0.3265 -0.4478
  457MOL0     C61599   0.704   6.881   1.395  0.3995  0.0125  0.4333
  457MOL0     C61600   0.612   6.848   1.272  0.0833 -0.3362  0.6627
  457MOL0     C61601   0.470   6.903   1.290 -0.3879  0.2172  0.1573
  457MOL0     C61602   0.394   6.897   1.158 -1.3748  0.5772  0.0483
  457MOL0     C61603   0.244   6.870   1.174  0.5664 -0.2463 -0.2184
  457MOL0    Cl61604   0.169   7.006   1.255 -0.4109  0.0135 -0.1075
  457MOL0     C61605   1.296   6.830   1.137 -0.7778 -0.4392  0.1798
  457MOL0     C61606   1.364   6.931   1.062  0.6497 -0.9444 -0.0670
  457MOL0     O61607   1.640   7.057   1.054  0.0008  0.2273  0.8573
  457MOL0     C61608   1.775   7.301   0.953 -0.3262  0.7291 -0.5600
  457MOL0     C61609   1.840   7.413   0.896 -0.5508 -1.1870 -0.2777
  457MOL0     N61610   2.101   7.656   0.416  0.0914  0.6678  0.1406
  457MOL0     N61611   2.210   7.623   0.354  0.0462 -1.5073 -0.0155
  457MOL0     C61612   2.609   7.475   1.246 -0.0332  0.3436  0.7712
  457MOL0     C61613   2.565   7.512   1.375 -0.5811 -0.2883 -0.1685
  457MOL0     C61614   2.554   7.817   1.730  0.9945  0.1049  0.1069
  457MOL0     C61615   2.680   7.832   1.796  0.0336 -0.2099 -0.5871
  457MOL0     C61616   2.686   7.908   1.920  0.6882  0.2577  0.1564
  457MOL0     C61617   2.570   7.968   1.972 -0.6210  1.0611 -0.0362
  457MOL0     O61618   2.592   8.048   2.078  0.0713 -0.6603  0.0779
  457MOL0     C61619   2.490   8.140   2.109  0.7026 -0.4015  0.1682
  457MOL0     C61620   2.485   8.255   2.007 -0.4832  0.5751 -0.0355
  457MOL0     C61621   2.389   8.362   2.046 -0.1723  0.2550  0.9277
  457MOL0     C61622   2.247   8.329   2.086  1.3764  0.2386  0.2015
  457MOL0     C61623   2.160   8.264   1.986 -0.8438  0.4201 -1.1821
  457MOL0     C61624   2.101   8.218   1.886 -1.4539 -0.5364 -0.5201
  457MOL0     C61625   2.445   7.961   1.906 -0.1388 -1.1169  0.3594
  457MOL0     C61626   2.437   7.885   1.787  0.3568  0.4554  0.2868
  457MOL0     C61627   2.301   7.898   1.727  0.2154  0.2880 -0.4906
  457MOL0     H61628   2.824   7.731   1.439  2.3868 -2.1100  0.2086
  457MOL0     H61629   2.878   7.674   1.209 -0.1046  0.4103 -0.0838
  457MOL0     H61630   2.737   7.294   1.008 -1.4350  0.7696 -0.1869
  457MOL0     H61631   2.617   7.415   0.992 -0.1448 -0.5842  1.9885
  457MOL0     H61632   2.773   7.347   0.780  1.2017  2.0879 -2.0955
  457MOL0     H61633   2.875   7.466   0.866  0.4563 -0.8559  1.9925
  457MOL0     H61634   2.653   7.612   0.852 -1.7789  1.3245 -2.0380
  457MOL0     H61635   2.599   7.490   0.734 -1.2096  1.0392  0.2954
  457MOL0     H61636   2.846   7.673   0.720 -1.7079 -0.5613  3.1502
  457MOL0     H61637   2.818   7.545   0.600 -0.4972  1.7124 -2.9278
  457MOL0     H61638   2.633   7.784   0.665  1.0850  1.3540 -0.7491
  457MOL0     H61639   2.745   7.799   0.537 -0.9875 -0.3245 -1.3951
  457MOL0     H61640   2.631   7.578   0.437  0.1561  0.8341 -0.4659
  457MOL0     H61641   2.502   7.621   0.537  1.3645 -1.1552  0.6724
  457MOL0     H61642   2.622   7.805   0.315 -2.4439  4.3209 -1.4685
  457MOL0     H61643   2.519   7.870   0.427  0.4061  0.3297 -0.4153
  457MOL0     H61644   2.407   7.814   0.208 -0.7931  1.8385  2.2800
  457MOL0     H61645   2.440   7.636   0.236  0.2854 -0.5255  1.2489
  457MOL0     H61646   2.269   7.932   0.409  2.6194 -1.8000 -0.7047
  457MOL0     H61647   2.074   7.947   0.577 -1.2189  0.0486  1.0588
  457MOL0     H61648   1.940   7.932   0.469 -0.2391 -1.2389 -0.8893
  457MOL0     H61649   1.866   7.719   0.573 -0.3927 -1.3731  2.2120
  457MOL0     H61650   1.994   7.703   0.679 -2.8966 -1.6505 -0.2981
  457MOL0     H61651   1.795   7.936   0.678 -1.1717 -1.0591  0.4697
  457MOL0     H61652   1.914   7.918   0.810 -1.9269 -0.8349  2.0571
  457MOL0     H61653   1.682   7.730   0.733  1.0161 -0.9590 -1.4290
  457MOL0     H61654   1.706   7.813   0.885 -2.1878  0.7457 -1.2093
  457MOL0     H61655   1.558   7.607   0.923 -1.2416 -0.9225 -0.7275
  457MOL0     H61656   1.465   7.387   0.981 -0.0577 -0.4285 -1.9020
  457MOL0     H61657   1.341   7.179   1.287 -1.1390 -1.8560  3.4162
  457MOL0     H61658   1.217   7.002   1.405  1.4238 -1.2750  1.8256
  457MOL0     H61659   0.985   6.705   1.433 -2.4068  1.3565  1.8421
  457MOL0     H61660   1.053   6.858   1.464 -0.3978  0.8100 -1.2157
  457MOL0     H61661   0.981   6.907   1.213  0.4353  1.1328  1.5703
  457MOL0     H61662   0.871   6.770   1.240  0.0923 -3.5516  2.5408
  457MOL0     H61663   0.876   7.001   1.442  0.8839 -1.5341 -0.2946
  457MOL0     H61664   0.808   7.019   1.280 -0.4671 -0.9220 -0.9945
  457MOL0     H61665   0.653   6.946   1.467  1.0552 -0.7613  1.6355
  457MOL0     H61666   0.716   6.791   1.456 -4.5676 -0.9938  0.3564
  457MOL0     H61667   0.606   6.740   1.256  1.0533 -0.3801  0.5247
  457MOL0     H61668   0.646   6.900   1.182  1.5847 -2.9520 -0.3933
  457MOL0     H61669   0.419   6.831   1.355 -2.6941  0.0030 -1.7565
  457MOL0     H61670   0.476   7.003   1.334  0.0603  0.3413 -0.1749
  457MOL0     H61671   0.433   6.817   1.094 -0.8343  0.5052  0.4624
  457MOL0     H61672   0.432   6.982   1.101  1.5915  0.2919  1.3758
  457MOL0     H61673   0.198   6.853   1.076 -0.7882 -2.4323  0.7108
  457MOL0     H61674   0.224   6.781   1.235 -2.0385  0.4603  0.0813
  457MOL0     H61675   1.296   6.734   1.086 -1.5282  0.2790 -1.2205
  457MOL0     H61676   1.409   6.907   0.966  0.0260 -0.2775 -0.5321
  457MOL0     H61677   1.828   7.208   0.969 -1.5079 -0.2297 -1.9472
  457MOL0     H61678   1.947   7.399   0.885  0.3038 -1.5626  5.2262
  457MOL0     H61679   2.540   7.410   1.195 -1.4003 -0.0643  3.0199
  457MOL0     H61680   2.472   7.479   1.418  0.6236 -1.1346  1.9007
  457MOL0     H61681   2.769   7.780   1.762 -0.6365 -0.3820 -2.1903
  457MOL0     H61682   2.781   7.924   1.970  0.9951 -1.8861  0.3458
  457MOL0     H61683   2.518   8.175   2.208  0.7002 -0.6721  0.2663
  457MOL0     H61684   2.394   8.089   2.123 -0.0395 -0.5663 -4.1310
  457MOL0     H61685   2.445   8.220   1.911  1.7570  0.1653 -0.8999
  457MOL0     H61686   2.586   8.287   1.980 -0.6057  2.7902  1.8632
  457MOL0     H61687   2.381   8.436   1.966 -0.3878  0.9201  1.5559
  457MOL0     H61688   2.439   8.405   2.134  0.2459  0.6644  0.4957
  457MOL0     H61689   2.255   8.253   2.164  0.2213 -2.9637 -2.5780
  457MOL0     H61690   2.201   8.418   2.130  3.9060  1.7836 -0.0347
  457MOL0     H61691   2.046   8.187   1.800 -1.2055 -0.0879 -0.8478
  457MOL0     H61692   2.353   8.009   1.940 -0.4065  0.2387 -2.0809
  457MOL0     H61693   2.274   7.824   1.651 -3.7607 -0.6579  1.5842
  457MOL0     H61694   2.221   7.890   1.801  0.5860  4.9782  0.7598
  457MOL0     H61695   2.278   7.999   1.691 -0.0515  0.0125 -1.1067
  458MOL0     O61696   3.310  11.446   8.050  0.5355 -0.7158 -0.5103
  458MOL0     C61697   3.379  11.456   7.953 -0.0127  0.2884  0.2370
  458MOL0     O61698   3.363  11.554   7.847  1.0441 -0.4162  0.0492
  458MOL0     C61699   3.272  11.656   7.841 -0.8240  0.3579  0.1516
  458MOL0     C61700   3.238  11.685   7.712 -0.3247 -0.1639 -0.4334
  458MOL0     C61701   3.140  11.786   7.687  0.5575 -0.1949 -0.7434
  458MOL0     C61702   3.089  11.866   7.783  0.0029 -0.2193 -1.2380
  458MOL0     O61703   2.987  11.957   7.748 -0.3845  1.5506 -0.2489
  458MOL0     C61704   2.960  12.061   7.840  0.6600 -1.0374 -0.0746
  458MOL0     C61705   2.845  12.157   7.792  0.2200 -0.3811 -0.5171
  458MOL0     C61706   2.707  12.099   7.842 -0.2565  0.1061  0.5545
  458MOL0     C61707   2.675  11.960   7.792 -0.3296  0.3958  0.2569
  458MOL0     C61708   2.547  11.896   7.849 -0.5070 -0.4548  0.0466
  458MOL0     C61709   2.493  11.775   7.795 -0.0362 -0.1483 -0.0277
  458MOL0     C61710   2.421  11.791   7.660 -0.4314 -0.5549  0.4399
  458MOL0     C61711   2.267  11.792   7.663 -0.1078 -0.5224  0.2181
  458MOL0     N61712   2.216  11.920   7.722 -0.8564  0.1927 -0.8487
  458MOL0     C61713   2.175  11.925   7.858 -0.3168  0.6724  0.3089
  458MOL0     C61714   2.182  12.059   7.883  0.1100  0.3275  0.2785
  458MOL0     C61715   2.147  12.118   8.022  0.0140 -1.4744 -0.4418
  458MOL0     C61716   2.191  12.277   8.034  1.0317  0.7553  0.2950
  458MOL0     C61717   2.160  12.326   8.179 -0.7388  0.2951 -0.6314
  458MOL0     C61718   2.244  12.451   8.209  0.1024 -0.1102 -0.5801
  458MOL0     O61719   2.217  12.506   8.342 -0.2762 -0.0092 -0.2952
  458MOL0     C61720   2.091  12.547   8.376  0.5693 -0.2671 -0.4350
  458MOL0     C61721   2.051  12.535   8.506  0.6829  0.1482 -0.8072
  458MOL0     C61722   1.922  12.551   8.540 -0.2321  0.2043 -0.5965
  458MOL0     C61723   1.818  12.568   8.447  0.3032 -0.1588  1.3525
  458MOL0     C61724   1.670  12.566   8.480 -0.7635  0.0515 -0.0836
  458MOL0     O61725   1.587  12.598   8.371 -0.7261  0.5917 -0.2271
  458MOL0     C61726   1.451  12.636   8.387 -0.1866 -0.3075  0.0656
  458MOL0     C61727   1.356  12.609   8.285 -0.5138 -0.5914 -0.5338
  458MOL0     C61728   1.219  12.637   8.306 -0.6682 -0.0804  0.8144
  458MOL0     C61729   1.177  12.704   8.417  0.4850  0.0927 -0.2542
  458MOL0     O61730   1.046  12.748   8.445  0.2434  0.2486  0.8608
  458MOL0     C61731   0.951  12.782   8.344  0.1871 -0.7900 -1.0320
  458MOL0     C61732   0.828  12.847   8.412 -0.9389  0.5052  0.9465
  458MOL0     C61733   0.809  12.835   8.569  0.0371 -0.3871  0.1852
  458MOL0     C61734   0.715  12.949   8.622  0.6997 -0.8342  0.0331
  458MOL0     C61735   0.718  12.967   8.770 -0.7005 -0.1932  0.3817
  458MOL0     C61736   0.806  13.084   8.811  0.0492 -0.9156 -0.4813
  458MOL0     C61737   0.719  13.191   8.891  0.2251  0.7711  0.1434
  458MOL0     C61738   0.803  13.313   8.946 -0.6963 -0.0116  0.0140
  458MOL0    Cl61739   0.903  13.262   9.084 -0.0988  0.3057 -0.1112
  458MOL0     C61740   1.269  12.738   8.522  0.9825 -0.6742 -0.6348
  458MOL0     C61741   1.401  12.704   8.502 -0.4787  0.0203 -0.0566
  458MOL0     O61742   1.638  12.522   8.585  0.6324  0.2901 -0.6637
  458MOL0     C61743   1.851  12.594   8.315 -0.5297  0.1053  0.6458
  458MOL0     C61744   1.990  12.569   8.282 -0.3410 -0.4956  0.5539
  458MOL0     N61745   2.218  12.133   7.772  0.0126  0.5269 -0.5090
  458MOL0     N61746   2.231  12.048   7.678 -0.0886 -0.0969  0.4393
  458MOL0     C61747   3.114  11.824   7.917 -0.2380  0.7958  0.4041
  458MOL0     C61748   3.217  11.728   7.947  0.2282  0.0025 -0.6093
  458MOL0     C61749   3.486  11.350   7.947  0.5951  0.3442 -0.2166
  458MOL0     C61750   3.562  11.338   7.833 -0.9661 -0.0736 -0.1655
  458MOL0     C61751   3.677  11.256   7.827 -0.3464 -0.4536 -0.7488
  458MOL0     C61752   3.710  11.174   7.925  1.4652  0.2437 -0.7363
  458MOL0     O61753   3.830  11.110   7.914  0.1549  0.3202 -0.7389
  458MOL0     C61754   3.888  11.030   8.024  0.3841  0.2046  0.1366
  458MOL0     C61755   3.835  10.880   8.015  0.2794 -0.5487  0.2244
  458MOL0     C61756   3.879  10.809   7.887  0.7139 -0.0163  0.3612
  458MOL0     C61757   3.844  10.654   7.896 -0.6350 -0.2644 -0.4364
  458MOL0     C61758   3.861  10.585   7.771 -0.7493  0.8071  0.8051
  458MOL0     C61759   3.884  10.534   7.663  0.7484  0.0527  0.5201
  458MOL0     C61760   3.627  11.175   8.030 -1.0958 -0.7998 -0.7139
  458MOL0     C61761   3.523  11.269   8.052 -0.6997  0.2031  0.2066
  458MOL0     C61762   3.454  11.263   8.190  0.2220 -0.1574 -1.3125
  458MOL0     H61763   3.281  11.631   7.629  2.3659 -2.1601  2.0403
  458MOL0     H61764   3.120  11.803   7.582  0.5151 -0.4336 -0.7750
  458MOL0     H61765   2.937  12.015   7.937  2.9689 -1.1927  0.4598
  458MOL0     H61766   3.050  12.120   7.858 -0.4358  0.5340  0.5269
  458MOL0     H61767   2.847  12.153   7.683 -2.2761 -0.1314 -0.6485
  458MOL0     H61768   2.855  12.261   7.825  2.7877  1.0028 -4.9294
  458MOL0     H61769   2.625  12.165   7.814 -0.8664 -0.7156  0.3703
  458MOL0     H61770   2.696  12.092   7.951 -1.2973  1.5867  0.5658
  458MOL0     H61771   2.677  11.955   7.683  4.0148 -2.0117  0.2042
  458MOL0     H61772   2.756  11.890   7.815  0.3412  0.2567 -2.2738
  458MOL0     H61773   2.568  11.879   7.955  2.5619  0.0378 -0.3876
  458MOL0     H61774   2.460  11.962   7.851 -1.0959 -1.1984  1.8981
  458MOL0     H61775   2.577  11.709   7.774  0.2620  0.2121  0.0131
  458MOL0     H61776   2.426  11.714   7.857  0.8697 -0.5725  0.5525
  458MOL0     H61777   2.449  11.707   7.596  1.4885  0.7306 -0.5349
  458MOL0     H61778   2.454  11.882   7.608 -1.6935 -0.2830  0.0598
  458MOL0     H61779   2.233  11.780   7.560  3.4024 -2.1422 -0.8973
  458MOL0     H61780   2.226  11.704   7.714  4.7347 -2.6060  1.0266
  458MOL0     H61781   2.158  11.842   7.925  1.9954  1.3523  1.8685
  458MOL0     H61782   2.042  12.111   8.051  0.1071 -0.9675  0.0358
  458MOL0     H61783   2.205  12.064   8.097  0.9013  1.0610  0.7847
  458MOL0     H61784   2.294  12.292   8.002  0.3118  0.8395 -2.1939
  458MOL0     H61785   2.128  12.321   7.957 -0.3002 -0.5659  0.5800
  458MOL0     H61786   2.196  12.254   8.252  2.0000 -1.9951 -3.8847
  458MOL0     H61787   2.053  12.343   8.192 -1.0017 -2.2115  0.9765
  458MOL0     H61788   2.225  12.526   8.131  2.9049 -0.4580 -1.7265
  458MOL0     H61789   2.351  12.434   8.195  0.3950  2.4760 -2.0284
  458MOL0     H61790   2.131  12.508   8.574 -1.2613 -0.1708  1.4885
  458MOL0     H61791   1.900  12.532   8.645  3.7111 -0.9523  0.1716
  458MOL0     H61792   1.381  12.565   8.188 -2.0383  2.7858 -2.6527
  458MOL0     H61793   1.154  12.605   8.225  2.0903  0.8504 -2.0009
  458MOL0     H61794   1.000  12.855   8.278  1.4757 -1.7427 -1.1841
  458MOL0     H61795   0.915  12.695   8.288 -3.9137  1.0520 -1.5799
  458MOL0     H61796   0.814  12.950   8.377  1.1520 -0.0829 -2.0426
  458MOL0     H61797   0.746  12.795   8.363 -0.6991  2.2215 -1.4582
  458MOL0     H61798   0.759  12.742   8.597  0.6615 -0.2900  1.7246
  458MOL0     H61799   0.903  12.846   8.625 -2.2492  1.1482  4.0636
  458MOL0     H61800   0.609  12.933   8.598  0.0045  4.4759 -1.5653
  458MOL0     H61801   0.738  13.048   8.583  0.6634  0.2893  2.6134
  458MOL0     H61802   0.748  12.877   8.824  0.6713  0.3712  0.6094
  458MOL0     H61803   0.616  12.996   8.797  0.1038  3.4046  0.0774
  458MOL0     H61804   0.888  13.039   8.869  1.4311  1.0075 -0.8442
  458MOL0     H61805   0.856  13.142   8.733  0.6758  2.5673  2.2892
  458MOL0     H61806   0.657  13.155   8.974  0.4961  2.0905  0.9559
  458MOL0     H61807   0.651  13.223   8.812 -3.3760 -3.5028  1.0830
  458MOL0     H61808   0.869  13.337   8.863 -0.7829 -1.8490 -0.6241
  458MOL0     H61809   0.741  13.400   8.971  1.5604  1.5544  0.4500
  458MOL0     H61810   1.223  12.777   8.613 -1.6651 -1.3038 -1.6042
  458MOL0     H61811   1.466  12.722   8.586  0.7285 -0.3917 -0.8715
  458MOL0     H61812   1.780  12.624   8.238 -1.7899 -1.0982  1.3027
  458MOL0     H61813   2.024  12.572   8.179  0.6966  4.0095  0.8035
  458MOL0     H61814   3.055  11.858   8.001  0.1058  0.7546  0.6657
  458MOL0     H61815   3.256  11.699   8.044  2.2089  2.0965 -0.6879
  458MOL0     H61816   3.543  11.408   7.752 -1.0548  0.6484  0.4681
  458MOL0     H61817   3.742  11.264   7.740  0.4541  0.4079 -0.0837
  458MOL0     H61818   3.876  11.077   8.122  1.5887  1.4263 -0.2737
  458MOL0     H61819   3.996  11.018   8.010  0.3407 -4.5443  1.8473
  458MOL0     H61820   3.726  10.882   8.007  0.3124 -0.1704 -0.1361
  458MOL0     H61821   3.859  10.820   8.104 -1.2393 -0.4257  0.7413
  458MOL0     H61822   3.987  10.814   7.870  0.7926 -3.3757 -1.1067
  458MOL0     H61823   3.830  10.859   7.803  3.4562  1.1516 -0.6601
  458MOL0     H61824   3.911  10.607   7.969 -1.2863  2.2046  1.9015
  458MOL0     H61825   3.740  10.646   7.931 -0.7818 -1.3332 -1.0799
  458MOL0     H61826   3.912  10.473   7.580  2.8134  0.3056  0.9588
  458MOL0     H61827   3.646  11.114   8.118  1.4526 -0.2627 -0.8253
  458MOL0     H61828   3.470  11.363   8.233  1.6748 -1.3716  1.1929
  458MOL0     H61829   3.346  11.244   8.189  0.3603 -1.2549  0.4624
  458MOL0     H61830   3.503  11.188   8.253 -1.5262  0.6593  1.2320
  459MOL0     O61831   7.337   7.652   1.896 -0.1445 -0.0176 -0.1436
  459MOL0     C61832   7.388   7.769   1.906 -0.2602 -0.8655  0.6730
  459MOL0     O61833   7.338   7.869   1.988  0.0418 -0.1844  1.1021
  459MOL0     C61834   7.238   7.838   2.078 -1.6461 -0.1291 -0.1258
  459MOL0     C61835   7.102   7.821   2.056  0.9430  0.5025 -0.5692
  459MOL0     C61836   7.009   7.796   2.167  0.6015  0.4063  0.0143
  459MOL0     C61837   7.055   7.801   2.294  0.6950  0.1811 -0.0158
  459MOL0     O61838   6.973   7.782   2.404  0.2282 -0.0685  0.0625
  459MOL0     C61839   6.836   7.833   2.400  0.2506  0.4778  0.3702
  459MOL0     C61840   6.757   7.790   2.531  0.4390 -0.6524 -0.3382
  459MOL0     C61841   6.749   7.636   2.542  0.8429  0.9917  0.4816
  459MOL0     C61842   6.662   7.571   2.645  0.4529  0.8720  0.3455
  459MOL0     C61843   6.613   7.426   2.614  0.5028 -0.5024 -0.8778
  459MOL0     C61844   6.512   7.412   2.495 -0.1443  0.7017 -0.9137
  459MOL0     C61845   6.520   7.285   2.410 -0.6865 -0.7092  0.4659
  459MOL0     C61846   6.438   7.164   2.468 -0.4279  0.3646  0.1751
  459MOL0     N61847   6.470   7.042   2.400 -0.4451 -0.9475 -0.4000
  459MOL0     C61848   6.425   7.014   2.275 -0.7046  0.1541 -0.4121
  459MOL0     C61849   6.486   6.894   2.239  0.4974 -0.2447 -0.1830
  459MOL0     C61850   6.443   6.805   2.116 -0.0157  0.3744 -0.6854
  459MOL0     C61851   6.467   6.662   2.144 -0.1003  0.2649  0.8354
  459MOL0     C61852   6.425   6.582   2.024 -0.3187  0.8120 -0.3973
  459MOL0     C61853   6.273   6.547   2.003 -0.7725  0.3529  0.0233
  459MOL0     O61854   6.228   6.627   1.888 -0.1392 -0.4977  0.7192
  459MOL0     C61855   6.108   6.694   1.882  0.3863 -1.1420  0.4368
  459MOL0     C61856   6.002   6.701   1.973  0.5343 -0.4898 -0.5931
  459MOL0     C61857   5.897   6.795   1.964  0.1355  0.2382 -0.1090
  459MOL0     C61858   5.897   6.888   1.859 -0.3830  0.8259  0.9759
  459MOL0     C61859   5.796   6.996   1.853 -0.8481 -0.5236 -0.9127
  459MOL0     O61860   5.790   7.068   1.739  1.2210 -0.3099  0.1321
  459MOL0     C61861   5.711   7.184   1.732  0.8484 -0.1896  0.5118
  459MOL0     C61862   5.624   7.198   1.613  0.1218  0.4171 -0.0820
  459MOL0     C61863   5.552   7.313   1.594 -0.3027 -1.1044 -1.7633
  459MOL0     C61864   5.566   7.424   1.679  0.8877  0.2080 -0.3181
  459MOL0     O61865   5.506   7.546   1.659  0.2644  0.3089  0.1351
  459MOL0     C61866   5.501   7.594   1.523  0.4281  1.1366 -0.0649
  459MOL0     C61867   5.491   7.749   1.536 -0.0692  0.5198  0.4280
  459MOL0     C61868   5.488   7.802   1.385  0.8076  0.3846 -0.3217
  459MOL0     C61869   5.544   7.948   1.369 -0.2320  0.8996  0.1775
  459MOL0     C61870   5.540   7.988   1.224 -0.6153 -0.0391  0.5637
  459MOL0     C61871   5.413   7.961   1.155 -0.6263  1.3785 -0.2205
  459MOL0     C61872   5.376   8.054   1.045 -1.2910 -0.4224  0.0454
  459MOL0     C61873   5.232   8.040   1.003 -0.1580  0.7951 -0.4300
  459MOL0    Cl61874   5.215   7.874   0.960  0.4076 -0.4269  0.2474
  459MOL0     C61875   5.631   7.405   1.801  0.0246 -1.0175  0.1315
  459MOL0     C61876   5.711   7.287   1.828  1.4172 -0.5026 -0.4274
  459MOL0     O61877   5.717   6.995   1.945  1.7707 -0.1725  0.6403
  459MOL0     C61878   5.995   6.874   1.756 -0.5500 -0.7186  0.9445
  459MOL0     C61879   6.109   6.795   1.778  0.8754  0.7861 -0.2754
  459MOL0     N61880   6.572   6.867   2.346 -0.1321  0.6505  0.6438
  459MOL0     N61881   6.554   6.949   2.442 -0.2262 -0.1989 -0.6123
  459MOL0     C61882   7.191   7.820   2.318  0.1075  0.2657 -0.2823
  459MOL0     C61883   7.280   7.833   2.207  0.2084 -0.5667 -0.9305
  459MOL0     C61884   7.516   7.776   1.837  0.1740  0.5322  0.2240
  459MOL0     C61885   7.622   7.681   1.864 -0.7107  0.6503 -0.1401
  459MOL0     C61886   7.751   7.698   1.807 -0.6023 -1.1506 -1.0302
  459MOL0     C61887   7.772   7.803   1.718  0.6502 -0.5310  0.5329
  459MOL0     O61888   7.897   7.834   1.663  0.8418 -0.0348  0.0678
  459MOL0     C61889   7.957   7.719   1.609 -0.3116  0.3427 -0.7855
  459MOL0     C61890   8.048   7.751   1.496 -0.0517 -0.1615  0.5310
  459MOL0     C61891   8.147   7.644   1.437  0.9010 -0.5839 -0.4293
  459MOL0     C61892   8.071   7.532   1.359  0.1823 -0.3104  0.3463
  459MOL0     C61893   7.986   7.443   1.442 -0.1174  0.5273 -0.0583
  459MOL0     C61894   7.908   7.365   1.486  0.6201 -0.2499  0.2667
  459MOL0     C61895   7.663   7.889   1.684 -0.1920  0.4822 -0.3635
  459MOL0     C61896   7.540   7.883   1.749  0.8189  0.1417  1.0552
  459MOL0     C61897   7.445   7.997   1.717  0.7480 -0.1082 -0.0464
  459MOL0     H61898   7.068   7.811   1.954 -1.5530 -1.3508  0.3495
  459MOL0     H61899   6.905   7.767   2.153  0.2135  2.0354 -0.6929
  459MOL0     H61900   6.849   7.941   2.392  1.8874  0.3562  1.0768
  459MOL0     H61901   6.777   7.792   2.317  0.2366  0.3240  0.4559
  459MOL0     H61902   6.654   7.827   2.528  1.6972  3.3066 -0.2927
  459MOL0     H61903   6.806   7.826   2.621 -1.3885 -0.5106  0.6501
  459MOL0     H61904   6.851   7.600   2.556  0.7426  1.7207  4.0077
  459MOL0     H61905   6.715   7.596   2.446  0.9285 -0.2202  0.9270
  459MOL0     H61906   6.722   7.574   2.736 -0.3204 -0.6982  0.9430
  459MOL0     H61907   6.572   7.632   2.664  1.2900  2.0504  0.6490
  459MOL0     H61908   6.704   7.369   2.589  0.4810 -0.3207 -1.4016
  459MOL0     H61909   6.574   7.388   2.708  0.5586 -1.6394 -1.3047
  459MOL0     H61910   6.414   7.420   2.543  0.3951  0.1163  0.3401
  459MOL0     H61911   6.524   7.495   2.425 -1.4887 -0.6476 -2.8452
  459MOL0     H61912   6.624   7.253   2.416 -1.1482 -2.4071 -0.1154
  459MOL0     H61913   6.499   7.291   2.303  2.8287 -3.7592 -0.6002
  459MOL0     H61914   6.469   7.146   2.571  0.4462  1.7983  0.1993
  459MOL0     H61915   6.330   7.178   2.465 -0.8147 -1.9423 -3.1806
  459MOL0     H61916   6.341   7.053   2.219 -1.0170  0.2355  0.0991
  459MOL0     H61917   6.336   6.821   2.103 -0.6672 -1.7932  1.3578
  459MOL0     H61918   6.504   6.845   2.034 -0.0669  4.4851  1.0509
  459MOL0     H61919   6.576   6.659   2.154  0.1761 -0.5682 -1.7619
  459MOL0     H61920   6.414   6.621   2.231 -1.6991  1.6160  0.5578
  459MOL0     H61921   6.470   6.482   2.033 -2.8911 -0.4938 -1.0921
  459MOL0     H61922   6.467   6.639   1.941  1.7097  1.0882  0.7235
  459MOL0     H61923   6.212   6.566   2.092 -2.5894  1.3508 -1.3595
  459MOL0     H61924   6.262   6.441   1.978 -0.5921 -0.1418  1.9316
  459MOL0     H61925   6.000   6.627   2.052 -1.4942 -0.3476 -0.4591
  459MOL0     H61926   5.811   6.799   2.031  0.0488 -1.1080 -0.1186
  459MOL0     H61927   5.618   7.119   1.539  0.7446 -0.6625  0.9675
  459MOL0     H61928   5.498   7.332   1.501 -5.2981 -5.6198 -0.3008
  459MOL0     H61929   5.590   7.566   1.465  1.9764 -1.2650  3.1851
  459MOL0     H61930   5.414   7.555   1.469  0.2155  0.8777  0.4552
  459MOL0     H61931   5.404   7.783   1.594  0.9134  2.5074  0.8240
  459MOL0     H61932   5.579   7.795   1.582 -0.0515  1.2213 -0.2876
  459MOL0     H61933   5.552   7.733   1.329 -0.7131 -0.4228 -1.1269
  459MOL0     H61934   5.392   7.780   1.338  0.1488 -1.4571  1.7308
  459MOL0     H61935   5.649   7.947   1.401  0.5500 -0.5294 -2.1841
  459MOL0     H61936   5.480   8.015   1.428 -0.3808  0.2265  0.7968
  459MOL0     H61937   5.614   7.928   1.171 -2.7185 -0.9693 -1.5029
  459MOL0     H61938   5.570   8.093   1.213 -0.9700 -0.0546 -0.6654
  459MOL0     H61939   5.412   7.857   1.120  2.7344  0.1418  2.6290
  459MOL0     H61940   5.334   7.964   1.231  0.8694 -1.2821  1.6120
  459MOL0     H61941   5.448   8.042   0.964  1.7818  1.9105  2.2074
  459MOL0     H61942   5.387   8.155   1.086  0.3147 -0.5676  0.0230
  459MOL0     H61943   5.164   8.069   1.084  0.7095  0.3545  0.4713
  459MOL0     H61944   5.210   8.092   0.909  0.9222 -0.1195 -1.2281
  459MOL0     H61945   5.633   7.478   1.881 -1.3403 -1.8845  0.9941
  459MOL0     H61946   5.767   7.292   1.921 -0.1037  1.6291  0.4520
  459MOL0     H61947   5.991   6.948   1.677 -0.3714  0.2870  1.8472
  459MOL0     H61948   6.179   6.806   1.695  2.3903  3.4107  1.2073
  459MOL0     H61949   7.213   7.833   2.423 -3.2661  0.1202  0.5432
  459MOL0     H61950   7.384   7.856   2.228  0.0429 -0.8503  0.2641
  459MOL0     H61951   7.601   7.605   1.939  2.4364 -0.7460 -0.4838
  459MOL0     H61952   7.827   7.623   1.829 -2.8381 -3.4475 -0.6332
  459MOL0     H61953   7.886   7.642   1.581  1.1961 -0.9458 -1.2315
  459MOL0     H61954   8.021   7.666   1.680 -0.7719 -1.1749 -1.4680
  459MOL0     H61955   8.104   7.844   1.510 -0.1880  0.1594 -0.8564
  459MOL0     H61956   7.982   7.784   1.414  0.4706 -0.6655 -0.1073
  459MOL0     H61957   8.196   7.610   1.529 -1.0506  4.2122  2.7998
  459MOL0     H61958   8.225   7.679   1.370  1.1514 -1.1216 -0.4211
  459MOL0     H61959   8.016   7.563   1.269 -2.9146 -3.5465  0.9179
  459MOL0     H61960   8.161   7.481   1.325  0.7304  0.7556  0.1441
  459MOL0     H61961   7.843   7.292   1.531  1.0842 -0.1728  1.0941
  459MOL0     H61962   7.683   7.963   1.608 -1.1135  2.6298  1.3786
  459MOL0     H61963   7.339   7.967   1.719  0.8286 -0.4762  2.5025
  459MOL0     H61964   7.441   8.083   1.784  1.4206  1.0549 -1.4504
  459MOL0     H61965   7.464   8.027   1.614 -2.1200  1.8934 -0.1191
  460MOL0     O61966   8.756  10.946   3.990  0.0933 -0.6475 -0.5397
  460MOL0     C61967   8.822  10.947   3.891  0.5034  0.0232  0.4362
  460MOL0     O61968   8.792  10.887   3.771 -0.6275 -0.0162  0.4209
  460MOL0     C61969   8.706  10.782   3.784  0.3711 -0.4079 -0.1013
  460MOL0     C61970   8.570  10.804   3.813  0.3739  0.4508  0.3388
  460MOL0     C61971   8.487  10.689   3.825 -0.1772  0.2194 -0.1127
  460MOL0     C61972   8.545  10.559   3.830  0.0694  0.8947  0.2072
  460MOL0     O61973   8.455  10.458   3.861 -0.4310  0.0058 -0.7199
  460MOL0     C61974   8.488  10.331   3.799 -0.3375 -0.0582 -0.8980
  460MOL0     C61975   8.369  10.244   3.818  0.5033 -0.0532  0.4398
  460MOL0     C61976   8.259  10.270   3.720 -0.7859  0.0705 -0.1479
  460MOL0     C61977   8.172  10.402   3.749 -0.6234  0.0963  0.5430
  460MOL0     C61978   8.052  10.386   3.657  1.0415 -0.0447 -0.1048
  460MOL0     C61979   7.953  10.506   3.660  0.0668  0.7367 -0.9137
  460MOL0     C61980   7.823  10.466   3.584  0.0513 -0.0561 -0.0561
  460MOL0     C61981   7.841  10.504   3.438 -0.4962  0.0207 -0.1675
  460MOL0     N61982   7.736  10.451   3.354 -0.1454 -0.5811  0.0591
  460MOL0     C61983   7.607  10.504   3.329  0.0853 -0.3552 -0.2370
  460MOL0     C61984   7.554  10.418   3.229  0.8493  0.6187  0.2025
  460MOL0     C61985   7.426  10.418   3.151  0.0899 -0.0593 -0.4094
  460MOL0     C61986   7.324  10.304   3.174 -0.4146  0.2007  0.0500
  460MOL0     C61987   7.210  10.317   3.075 -0.4073 -0.0525  0.3729
  460MOL0     C61988   7.101  10.390   3.145 -0.3314 -0.7331  0.2267
  460MOL0     O61989   7.134  10.529   3.142  0.7127  0.5493  0.2261
  460MOL0     C61990   7.118  10.583   3.013  0.2541 -0.1724  0.3251
  460MOL0     C61991   7.213  10.664   2.954 -0.3066 -0.2096 -0.0541
  460MOL0     C61992   7.196  10.737   2.838 -0.8226 -0.3144 -0.5337
  460MOL0     C61993   7.080  10.718   2.762  0.0849 -0.4134  0.1934
  460MOL0     C61994   7.061  10.776   2.624 -0.0131 -0.0718 -0.0874
  460MOL0     O61995   7.020  10.687   2.527 -0.1898  0.1420  0.0256
  460MOL0     C61996   7.021  10.734   2.400  0.3413 -1.0200  0.5042
  460MOL0     C61997   6.897  10.736   2.341  0.1094  0.4657 -0.2239
  460MOL0     C61998   6.890  10.767   2.209  0.1298  0.4833  0.0743
  460MOL0     C61999   6.993  10.827   2.140  0.0699 -0.1507  0.8400
  460MOL0     O62000   6.959  10.883   2.019  0.1516  0.2919  0.2236
  460MOL0     C62001   7.069  10.898   1.925 -0.8707 -0.4778 -0.2127
  460MOL0     C62002   7.022  10.918   1.784  0.4395  0.8033 -0.0807
  460MOL0     C62003   6.904  11.013   1.761  0.9265 -0.3288 -0.3332
  460MOL0     C62004   6.782  10.934   1.708  0.1288  0.2481 -0.2202
  460MOL0     C62005   6.717  11.007   1.596  0.0823  0.1655  0.4898
  460MOL0     C62006   6.589  10.946   1.536  0.0225 -0.1446 -0.0205
  460MOL0     C62007   6.514  11.047   1.437 -0.8359  0.6780  0.5331
  460MOL0     C62008   6.371  11.041   1.460 -0.3642  0.0650  0.2586
  460MOL0    Cl62009   6.300  10.910   1.375 -0.1946  0.2035  0.1862
  460MOL0     C62010   7.120  10.827   2.204 -0.2542 -0.3339 -0.7351
  460MOL0     C62011   7.129  10.773   2.332 -0.8689 -0.1111  0.4605
  460MOL0     O62012   7.087  10.893   2.612 -0.1314 -0.0439  0.0670
  460MOL0     C62013   6.987  10.627   2.814  1.2441  0.0505 -0.6420
  460MOL0     C62014   7.002  10.560   2.936  0.5606 -0.1835 -1.1506
  460MOL0     N62015   7.653  10.326   3.193  0.5025 -0.2475 -0.6359
  460MOL0     N62016   7.760  10.341   3.268  0.6309 -0.0346 -0.5548
  460MOL0     C62017   8.675  10.548   3.790  0.2119  0.9450 -0.1685
  460MOL0     C62018   8.754  10.654   3.771 -0.1018  1.0373 -0.0364
  460MOL0     C62019   8.944  11.030   3.885  0.3890 -0.6142  0.8685
  460MOL0     C62020   9.004  11.055   3.760 -0.6680 -0.4880  0.2239
  460MOL0     C62021   9.124  11.143   3.756 -0.0352 -0.3918 -0.3801
  460MOL0     C62022   9.169  11.209   3.874  0.5555  0.5222 -0.3441
  460MOL0     O62023   9.258  11.315   3.876  0.3198  0.4943  0.1203
  460MOL0     C62024   9.381  11.303   3.941 -0.3762  0.0799 -0.6178
  460MOL0     C62025   9.484  11.256   3.836  0.1066  1.0320  0.0032
  460MOL0     C62026   9.492  11.362   3.726 -0.0930 -0.1164  0.5183
  460MOL0     C62027   9.507  11.295   3.594 -0.7464  0.7092 -0.5367
  460MOL0     C62028   9.604  11.181   3.581  0.3307  0.3754 -0.3220
  460MOL0     C62029   9.675  11.092   3.586  0.5873  0.4400  0.0625
  460MOL0     C62030   9.115  11.167   4.000 -0.0786 -0.5354  0.5590
  460MOL0     C62031   9.004  11.078   4.002  0.6806 -0.6773  0.0276
  460MOL0     C62032   8.976  11.025   4.134  0.3396 -0.3086 -0.2470
  460MOL0     H62033   8.515  10.897   3.807 -1.4908 -0.6219 -0.3315
  460MOL0     H62034   8.383  10.706   3.849 -0.6184  1.0839 -2.3919
  460MOL0     H62035   8.508  10.330   3.692 -1.1979  1.6835 -1.1057
  460MOL0     H62036   8.568  10.285   3.858 -0.9568  0.2306  0.1986
  460MOL0     H62037   8.341  10.260   3.923 -0.9736  0.3372  0.0141
  460MOL0     H62038   8.411  10.145   3.799  1.7489  0.6615 -0.7204
  460MOL0     H62039   8.203  10.182   3.753  0.6554 -1.4591 -1.5754
  460MOL0     H62040   8.284  10.257   3.615  1.0925 -0.2254  0.2957
  460MOL0     H62041   8.136  10.407   3.852 -1.6583  0.2372  0.1810
  460MOL0     H62042   8.236  10.487   3.722 -0.6309  0.4312  1.5466
  460MOL0     H62043   8.085  10.385   3.552 -1.1208  2.8955 -0.9443
  460MOL0     H62044   8.007  10.289   3.679  4.7984 -2.1277 -0.7400
  460MOL0     H62045   7.930  10.515   3.767  0.3391 -6.2230  0.2464
  460MOL0     H62046   8.006  10.595   3.626 -0.5799  0.1580 -3.6218
  460MOL0     H62047   7.736  10.518   3.626 -0.2330  0.7532 -1.5760
  460MOL0     H62048   7.799  10.360   3.599 -0.1407 -0.0077 -0.0141
  460MOL0     H62049   7.848  10.612   3.425 -2.8640  0.3650  0.8514
  460MOL0     H62050   7.933  10.453   3.408  0.1549  0.2831  1.2965
  460MOL0     H62051   7.564  10.592   3.376  0.8682 -0.0479 -0.0915
  460MOL0     H62052   7.369  10.508   3.175 -2.9055 -2.5108  2.4123
  460MOL0     H62053   7.460  10.413   3.047 -2.0637  0.0304 -1.1682
  460MOL0     H62054   7.382  10.213   3.153  0.4107  0.7976 -0.2963
  460MOL0     H62055   7.302  10.297   3.281  1.0433  0.6660  0.3987
  460MOL0     H62056   7.169  10.218   3.051  0.4971 -0.5682  0.8867
  460MOL0     H62057   7.241  10.356   2.977  3.7911 -2.7978  0.3232
  460MOL0     H62058   7.088  10.373   3.252 -0.1493  0.4406  0.4436
  460MOL0     H62059   6.999  10.369   3.110 -0.2569 -2.2035  0.8385
  460MOL0     H62060   7.308  10.688   3.001 -0.5443  3.8937 -1.2498
  460MOL0     H62061   7.269  10.813   2.811 -1.6111 -0.0796 -2.1433
  460MOL0     H62062   6.820  10.682   2.395  0.4915 -0.4297 -0.5466
  460MOL0     H62063   6.804  10.751   2.145 -0.1210 -4.3318  1.2188
  460MOL0     H62064   7.146  10.970   1.955 -0.6620 -0.7929  0.0111
  460MOL0     H62065   7.117  10.800   1.920  0.1021  0.0702 -2.9715
  460MOL0     H62066   7.110  10.954   1.730  0.6407 -1.2976 -1.2522
  460MOL0     H62067   7.005  10.816   1.747 -0.9967  1.1939 -0.5280
  460MOL0     H62068   6.877  11.051   1.860  1.2741  0.1473 -0.4183
  460MOL0     H62069   6.929  11.100   1.699  1.7544 -1.4239 -1.5928
  460MOL0     H62070   6.701  10.939   1.781 -0.2346  0.6823 -0.6485
  460MOL0     H62071   6.814  10.832   1.682  1.4174  0.8283 -1.0822
  460MOL0     H62072   6.782  11.022   1.510 -2.4309  0.8428 -1.4215
  460MOL0     H62073   6.713  11.104   1.645 -1.3142  0.7966 -0.7981
  460MOL0     H62074   6.596  10.844   1.496  0.2931 -0.9093  1.8413
  460MOL0     H62075   6.532  10.931   1.629  0.4840  2.7344  0.8104
  460MOL0     H62076   6.519  11.016   1.332 -3.6365  2.1638 -0.1474
  460MOL0     H62077   6.542  11.150   1.459 -0.4969  0.3221  1.8614
  460MOL0     H62078   6.358  11.032   1.569 -2.4234 -0.0149  0.0552
  460MOL0     H62079   6.334  11.136   1.420 -0.5273 -0.6433 -1.3579
  460MOL0     H62080   7.207  10.859   2.148  1.7647 -0.1403  2.2599
  460MOL0     H62081   7.225  10.771   2.382 -0.5599  3.2913  0.1982
  460MOL0     H62082   6.903  10.596   2.753 -0.3730  0.1685  1.4245
  460MOL0     H62083   6.926  10.496   2.979  0.0663  1.2867  0.2887
  460MOL0     H62084   8.714  10.449   3.768  1.8325  1.6158 -0.4480
  460MOL0     H62085   8.857  10.644   3.737  0.4287  4.3352  0.2323
  460MOL0     H62086   8.959  11.016   3.669 -1.1574  0.5649  0.0083
  460MOL0     H62087   9.171  11.175   3.664  2.9040  1.1992  1.4959
  460MOL0     H62088   9.370  11.236   4.027 -0.6533 -1.4284 -1.7706
  460MOL0     H62089   9.417  11.399   3.978  0.9241 -0.3779 -0.6459
  460MOL0     H62090   9.454  11.154   3.811 -2.0323  1.2089  1.5947
  460MOL0     H62091   9.586  11.248   3.876  0.3987  2.4177 -0.4095
  460MOL0     H62092   9.582  11.422   3.738  2.1071 -2.2531 -3.3873
  460MOL0     H62093   9.408  11.431   3.733  0.5617  0.6576  0.9090
  460MOL0     H62094   9.409  11.258   3.564  0.4251 -1.4057 -2.0084
  460MOL0     H62095   9.526  11.378   3.526 -1.1787 -1.4577 -3.4909
  460MOL0     H62096   9.733  11.002   3.596  1.2853  0.5978 -2.0982
  460MOL0     H62097   9.161  11.215   4.086 -0.6184  1.1244 -0.0519
  460MOL0     H62098   9.059  11.030   4.206  0.3842 -0.4424 -0.2876
  460MOL0     H62099   8.884  11.068   4.174  0.0211 -2.3184  1.3933
  460MOL0     H62100   8.945  10.920   4.133 -0.7019 -0.0115  0.1824
  461MOL0     O62101   2.977   3.142   7.930  0.2548  0.1612 -0.3457
  461MOL0     C62102   2.906   3.082   7.861  0.1428  0.4339 -0.5297
  461MOL0     O62103   2.837   3.131   7.750 -0.3673 -0.2023 -0.1231
  461MOL0     C62104   2.838   3.267   7.740  0.4763  0.4679  0.4989
  461MOL0     C62105   2.938   3.337   7.688 -0.3744 -0.4930  0.0236
  461MOL0     C62106   2.944   3.475   7.693  0.0508 -0.2072 -0.9033
  461MOL0     C62107   2.835   3.541   7.758 -0.6006 -0.0140 -0.1489
  461MOL0     O62108   2.835   3.679   7.775  0.4642  1.4070  0.6427
  461MOL0     C62109   2.957   3.755   7.767  0.4185  0.0712 -0.0074
  461MOL0     C62110   3.061   3.732   7.880  0.1019  0.3682  0.2066
  461MOL0     C62111   3.002   3.729   8.028 -0.4748  0.4559  1.0248
  461MOL0     C62112   2.978   3.576   8.068  0.0288  0.0700  0.7907
  461MOL0     C62113   2.931   3.576   8.210  0.4869 -0.5068  0.3019
  461MOL0     C62114   2.890   3.444   8.274  0.3766  0.7742 -0.6086
  461MOL0     C62115   2.752   3.396   8.232  0.9362 -0.1379 -0.0431
  461MOL0     C62116   2.709   3.275   8.308 -0.6051  0.3021  0.1706
  461MOL0     N62117   2.582   3.232   8.266 -0.4734 -0.3126 -0.0642
  461MOL0     C62118   2.557   3.185   8.140  0.7396 -0.3488 -0.4261
  461MOL0     C62119   2.429   3.152   8.141 -0.7689 -0.6144 -0.0149
  461MOL0     C62120   2.353   3.112   8.018  0.5543 -0.1670  0.4933
  461MOL0     C62121   2.250   3.213   7.976  0.4136  0.3385 -1.4829
  461MOL0     C62122   2.109   3.178   8.025 -0.1739  0.0075 -0.0686
  461MOL0     C62123   2.000   3.280   7.988  1.1562  0.1019  0.4542
  461MOL0     O62124   1.992   3.281   7.845  0.8331 -0.2786  0.1063
  461MOL0     C62125   1.909   3.376   7.788 -1.0802 -0.1503  0.1292
  461MOL0     C62126   1.858   3.350   7.663  0.5039 -0.5918 -0.1691
  461MOL0     C62127   1.773   3.435   7.589 -0.3369  1.7786 -0.0892
  461MOL0     C62128   1.718   3.544   7.655 -0.1420 -0.7030  1.2164
  461MOL0     C62129   1.613   3.614   7.584 -0.2027  0.4481 -1.0506
  461MOL0     O62130   1.577   3.572   7.456  0.4650 -0.5922  0.0795
  461MOL0     C62131   1.451   3.599   7.399 -0.2612  0.1052 -0.5551
  461MOL0     C62132   1.337   3.630   7.484 -0.8955 -0.5576 -0.7683
  461MOL0     C62133   1.222   3.676   7.419  0.4719 -0.0857 -0.9547
  461MOL0     C62134   1.205   3.686   7.284 -0.7016  0.1764 -0.1830
  461MOL0     O62135   1.091   3.745   7.223  0.7806  0.0963 -0.3813
  461MOL0     C62136   0.960   3.728   7.283 -0.7111 -1.0090  0.6094
  461MOL0     C62137   0.918   3.581   7.275 -0.6686  0.1645  0.1979
  461MOL0     C62138   0.773   3.565   7.333  0.0715  0.5208  1.0035
  461MOL0     C62139   0.660   3.633   7.258 -0.2128 -0.2131  0.0263
  461MOL0     C62140   0.524   3.584   7.310 -0.1838 -0.1855  0.6801
  461MOL0     C62141   0.428   3.558   7.199 -0.8052 -0.5348 -0.4689
  461MOL0     C62142   0.383   3.684   7.116  0.5808  0.2648 -0.6843
  461MOL0     C62143   0.277   3.644   7.025 -0.0540  0.0884 -0.2538
  461MOL0    Cl62144   0.240   3.794   6.924  0.1667  0.4783  0.2659
  461MOL0     C62145   1.304   3.636   7.204 -0.4160  0.0970 -1.0072
  461MOL0     C62146   1.428   3.587   7.258  0.9841 -0.2710 -0.0223
  461MOL0     O62147   1.559   3.699   7.652 -0.3473 -0.8234 -1.1270
  461MOL0     C62148   1.764   3.585   7.790  0.2881  0.3961  0.5774
  461MOL0     C62149   1.857   3.489   7.851  0.2662  0.4358 -0.0906
  461MOL0     N62150   2.377   3.187   8.268  0.3117 -0.5375  0.5084
  461MOL0     N62151   2.474   3.223   8.346  0.0300 -0.0390  0.2677
  461MOL0     C62152   2.715   3.476   7.781 -0.5716  0.2577  0.5146
  461MOL0     C62153   2.727   3.337   7.776  0.6313 -0.0795 -0.8283
  461MOL0     C62154   2.909   2.932   7.877 -0.5796  0.7259 -0.6367
  461MOL0     C62155   2.881   2.848   7.763  0.2657 -0.1021 -0.2285
  461MOL0     C62156   2.878   2.713   7.772 -0.5919 -0.0675 -0.0248
  461MOL0     C62157   2.915   2.641   7.888  0.7360 -0.0946  0.2339
  461MOL0     O62158   2.914   2.505   7.890 -0.7654 -0.4343 -0.3704
  461MOL0     C62159   2.784   2.450   7.936 -0.0140  0.4717 -0.5893
  461MOL0     C62160   2.735   2.358   7.824 -0.3148 -0.6474 -0.8188
  461MOL0     C62161   2.790   2.211   7.841 -0.0261  0.4445 -0.1552
  461MOL0     C62162   2.724   2.116   7.734  0.5120  1.9908 -0.3801
  461MOL0     C62163   2.799   2.129   7.602 -0.2601 -0.1630  0.4315
  461MOL0     C62164   2.869   2.165   7.512  0.3032  0.3500  0.0591
  461MOL0     C62165   2.952   2.725   7.992 -1.8537  0.1348 -0.2038
  461MOL0     C62166   2.946   2.862   7.996  0.2226  0.0508  0.4608
  461MOL0     C62167   2.980   2.926   8.123 -0.5266  0.5308 -0.3672
  461MOL0     H62168   3.020   3.278   7.649  0.2555  0.5929 -0.3471
  461MOL0     H62169   3.029   3.520   7.643  0.2004  0.2920 -0.2021
  461MOL0     H62170   3.000   3.740   7.668 -4.6514  1.8640 -2.8681
  461MOL0     H62171   2.938   3.863   7.763 -0.1122 -0.0365 -0.5776
  461MOL0     H62172   3.147   3.800   7.871  0.0551  0.3890 -0.0880
  461MOL0     H62173   3.114   3.638   7.862 -1.1943 -0.3227 -0.0568
  461MOL0     H62174   2.911   3.786   8.043  0.3902  1.3432  3.2063
  461MOL0     H62175   3.081   3.775   8.089  1.5435  0.1299 -1.1630
  461MOL0     H62176   2.910   3.526   7.999  0.5995  1.5200 -0.8939
  461MOL0     H62177   3.069   3.515   8.066 -2.0341 -3.2733 -0.5970
  461MOL0     H62178   3.010   3.616   8.275  1.3709  0.6645 -1.4310
  461MOL0     H62179   2.843   3.640   8.212  0.6347 -0.3038  0.3758
  461MOL0     H62180   2.953   3.357   8.254 -1.9160 -1.4284  1.2693
  461MOL0     H62181   2.899   3.461   8.381  0.1284  1.9506 -0.7631
  461MOL0     H62182   2.749   3.374   8.125 -0.7867 -0.7782  0.1059
  461MOL0     H62183   2.679   3.476   8.248  0.3508 -0.2305 -1.9790
  461MOL0     H62184   2.787   3.199   8.311 -1.8069 -0.9423  1.7742
  461MOL0     H62185   2.695   3.298   8.414 -0.2458  2.5868 -0.2191
  461MOL0     H62186   2.619   3.172   8.052  2.8936 -1.0518  1.1058
  461MOL0     H62187   2.432   3.110   7.943  1.3807  1.3563  1.2709
  461MOL0     H62188   2.301   3.016   8.023 -3.0865  1.7169  2.8884
  461MOL0     H62189   2.265   3.313   8.018  0.2592  0.1033 -0.8491
  461MOL0     H62190   2.236   3.229   7.869 -0.2460  1.4700 -1.2453
  461MOL0     H62191   2.110   3.154   8.132  1.4850 -2.6504 -0.5724
  461MOL0     H62192   2.075   3.081   7.988  0.8215 -0.3691 -0.0300
  461MOL0     H62193   2.016   3.379   8.031 -0.7620  0.1227  1.2027
  461MOL0     H62194   1.903   3.249   8.026  0.3970  1.5969 -0.1617
  461MOL0     H62195   1.878   3.254   7.615 -1.6748 -0.0530 -2.3751
  461MOL0     H62196   1.744   3.415   7.487 -0.8825 -0.1942  0.4027
  461MOL0     H62197   1.342   3.648   7.591  0.7893  1.9854 -1.1782
  461MOL0     H62198   1.150   3.733   7.477  1.4826 -0.3143  0.5922
  461MOL0     H62199   0.947   3.773   7.382 -1.4471  1.5968 -0.5972
  461MOL0     H62200   0.890   3.785   7.221 -2.1720 -4.8501 -1.6126
  461MOL0     H62201   0.926   3.547   7.172  4.7151 -1.9464  0.9964
  461MOL0     H62202   0.992   3.529   7.337 -0.5766 -0.7934 -0.6843
  461MOL0     H62203   0.748   3.458   7.330  1.4573  0.1806  0.6479
  461MOL0     H62204   0.773   3.599   7.437  1.4649 -2.3270  2.0424
  461MOL0     H62205   0.657   3.602   7.153  0.0555  3.0474 -1.0749
  461MOL0     H62206   0.657   3.742   7.266  1.5346 -0.2113  1.3384
  461MOL0     H62207   0.492   3.664   7.378  0.4875 -0.4464  1.3132
  461MOL0     H62208   0.524   3.488   7.362 -0.3901 -0.4369  0.2205
  461MOL0     H62209   0.469   3.481   7.133  1.2692  1.7685 -2.0195
  461MOL0     H62210   0.339   3.525   7.254 -0.9318  2.5278  1.4305
  461MOL0     H62211   0.473   3.724   7.068  0.1866  1.0278 -0.8056
  461MOL0     H62212   0.337   3.757   7.184 -0.9333 -1.2079 -0.0532
  461MOL0     H62213   0.331   3.566   6.969  1.3386  0.0086  1.1240
  461MOL0     H62214   0.201   3.583   7.075  0.7326 -0.6197  0.1266
  461MOL0     H62215   1.303   3.660   7.098 -2.5984 -1.3726 -1.3734
  461MOL0     H62216   1.503   3.573   7.181  0.0664  0.0274 -0.9861
  461MOL0     H62217   1.725   3.677   7.831 -2.4080 -0.9949  1.4388
  461MOL0     H62218   1.889   3.526   7.948 -1.9516 -0.1012  0.9054
  461MOL0     H62219   2.633   3.529   7.829 -1.7955  0.8765 -2.1193
  461MOL0     H62220   2.639   3.283   7.807 -0.2754  1.5279 -0.5003
  461MOL0     H62221   2.845   2.899   7.675 -2.4888  0.7523  1.2928
  461MOL0     H62222   2.843   2.654   7.688  2.0151  1.7614 -2.6039
  461MOL0     H62223   2.723   2.530   7.980  0.0732 -0.9956  2.4783
  461MOL0     H62224   2.807   2.386   8.022 -0.6009 -0.5645 -1.1873
  461MOL0     H62225   2.761   2.400   7.727 -0.9879  1.4195 -0.1466
  461MOL0     H62226   2.626   2.353   7.828 -0.3165  0.3856  1.2403
  461MOL0     H62227   2.766   2.169   7.939  0.4035  0.9973  0.1915
  461MOL0     H62228   2.899   2.202   7.833 -0.0944 -0.8787  0.1082
  461MOL0     H62229   2.730   2.010   7.762 -0.9482  1.4782 -1.9049
  461MOL0     H62230   2.618   2.138   7.720 -0.0801 -0.9744 -1.1976
  461MOL0     H62231   2.943   2.183   7.436 -0.1535  0.9061 -0.2604
  461MOL0     H62232   2.982   2.678   8.085 -0.8455  0.8310 -0.1553
  461MOL0     H62233   2.971   2.855   8.205  2.0745  0.7891  0.2007
  461MOL0     H62234   3.082   2.964   8.125 -0.3898  0.1076  1.0529
  461MOL0     H62235   2.909   3.002   8.158 -2.0594 -1.5190  1.2141
  462MOL0     O62236   9.585   0.601   9.600  0.1387 -0.5432 -0.0445
  462MOL0     C62237   9.512   0.581   9.699 -0.3823  0.4881 -0.3840
  462MOL0     O62238   9.422   0.477   9.716  0.8009  0.3953  0.7705
  462MOL0     C62239   9.369   0.427   9.599  0.1857  0.1775  0.1827
  462MOL0     C62240   9.334   0.505   9.487  0.0715  0.0640  0.2653
  462MOL0     C62241   9.261   0.441   9.395 -0.3632 -0.1097 -0.0305
  462MOL0     C62242   9.235   0.304   9.398  0.5854 -0.4526 -0.3635
  462MOL0     O62243   9.187   0.238   9.283 -1.1253 -0.6295  0.1656
  462MOL0     C62244   9.265   0.117   9.236  0.6406 -0.6825  0.4509
  462MOL0     C62245   9.163   0.005   9.203  0.7678 -0.6729  0.0677
  462MOL0     C62246   9.063   0.055   9.099 -0.7610  1.2869 -0.4453
  462MOL0     C62247   9.055  -0.024   8.967 -0.2194  0.1531  0.4206
  462MOL0     C62248   8.997  -0.171   8.985  1.0693 -0.5343  0.3887
  462MOL0     C62249   8.986  -0.251   8.847 -0.0035  0.3925  0.0780
  462MOL0     C62250   8.897  -0.370   8.858 -0.1384 -0.1846  1.3461
  462MOL0     C62251   8.897  -0.443   8.725  0.8279  0.1561 -0.0313
  462MOL0     N62252   9.037  -0.494   8.697  0.1761  0.2345 -0.5638
  462MOL0     C62253   9.130  -0.454   8.608  0.3161  0.3708 -0.8957
  462MOL0     C62254   9.238  -0.525   8.635  0.2414 -1.1410  0.2700
  462MOL0     C62255   9.375  -0.490   8.580 -0.6230  0.1020  0.4491
  462MOL0     C62256   9.429  -0.608   8.508 -0.6153 -0.7939 -0.0436
  462MOL0     C62257   9.493  -0.703   8.600  0.7976 -0.1875  0.0973
  462MOL0     C62258   9.549  -0.830   8.529 -0.9887 -0.0849  0.3064
  462MOL0     O62259   9.634  -0.808   8.419  0.0596  0.2183 -0.6597
  462MOL0     C62260   9.577  -0.845   8.298  0.0186 -0.1980  0.6935
  462MOL0     C62261   9.578  -0.753   8.184  0.4860  0.9321 -0.5035
  462MOL0     C62262   9.535  -0.797   8.062 -0.0798 -0.0976  0.3425
  462MOL0     C62263   9.466  -0.923   8.038  0.2240  0.6549 -0.1370
  462MOL0     C62264   9.405  -0.963   7.908 -0.0843  0.5870 -0.4384
  462MOL0     O62265   9.399  -0.871   7.814  0.4040  0.8544 -0.1543
  462MOL0     C62266   9.318  -0.898   7.707  0.2852  0.5028 -0.1466
  462MOL0     C62267   9.367  -0.916   7.581 -0.1012 -0.6038  0.1945
  462MOL0     C62268   9.280  -0.935   7.471 -0.1242  0.2006 -0.8440
  462MOL0     C62269   9.136  -0.935   7.490  0.1740  0.5031  0.4610
  462MOL0     O62270   9.032  -0.936   7.394 -0.9564 -0.8737  0.3977
  462MOL0     C62271   9.060  -1.023   7.287  0.7751 -0.4900  1.3152
  462MOL0     C62272   8.947  -1.015   7.182  0.6115 -0.3419 -0.0477
  462MOL0     C62273   8.989  -1.055   7.044 -0.3945  0.3307 -0.7927
  462MOL0     C62274   8.871  -1.042   6.948 -0.3398  0.3047 -0.7211
  462MOL0     C62275   8.934  -1.025   6.806  0.6799  0.5984 -0.6077
  462MOL0     C62276   9.013  -0.896   6.778 -0.1825  1.3437  0.3274
  462MOL0     C62277   9.010  -0.862   6.633  0.5350  0.2131  0.5007
  462MOL0     C62278   9.136  -0.780   6.595  0.7659 -0.1560  0.8765
  462MOL0    Cl62279   9.133  -0.598   6.627  0.1086 -0.3049 -0.3506
  462MOL0     C62280   9.090  -0.920   7.622  0.7391  1.6960 -0.2231
  462MOL0     C62281   9.178  -0.910   7.726  0.0201 -1.2070  1.1972
  462MOL0     O62282   9.350  -1.071   7.906 -0.6346  0.4060  0.2234
  462MOL0     C62283   9.458  -1.011   8.153 -0.0108  0.1943 -0.1325
  462MOL0     C62284   9.513  -0.971   8.279  0.3110 -0.1323 -0.2054
  462MOL0     N62285   9.218  -0.603   8.743  0.5664  0.0373  0.4464
  462MOL0     N62286   9.103  -0.583   8.787 -0.0124  0.8778  0.4860
  462MOL0     C62287   9.284   0.223   9.511 -0.9709 -1.0423  0.4034
  462MOL0     C62288   9.350   0.290   9.609 -0.2530  0.2605 -0.2303
  462MOL0     C62289   9.518   0.674   9.816 -0.4487  1.1131 -0.2694
  462MOL0     C62290   9.389   0.716   9.863 -0.4178 -0.9416 -0.9737
  462MOL0     C62291   9.376   0.811   9.977  0.0095  0.2062 -0.7487
  462MOL0     C62292   9.498   0.869  10.023 -0.5284 -0.0525  0.9109
  462MOL0     O62293   9.494   0.966  10.122  0.1593 -0.3512 -0.5709
  462MOL0     C62294   9.378   1.007  10.197 -0.1240  0.8712  0.6013
  462MOL0     C62295   9.354   1.156  10.169  0.5431  0.1490  0.3864
  462MOL0     C62296   9.249   1.221  10.258  0.3658 -0.0889  0.5343
  462MOL0     C62297   9.291   1.234  10.409 -0.9485 -0.0993  0.1837
  462MOL0     C62298   9.411   1.318  10.417  1.1403 -0.3981  0.8317
  462MOL0     C62299   9.498   1.404  10.396  0.6199  0.0211 -1.8264
  462MOL0     C62300   9.622   0.835   9.971 -0.0313 -0.2291 -0.4035
  462MOL0     C62301   9.635   0.739   9.868 -0.1749  1.0264 -1.0440
  462MOL0     C62302   9.775   0.704   9.832  0.0777  0.1260  0.2592
  462MOL0     H62303   9.365   0.608   9.501  1.0934 -0.4450  2.1283
  462MOL0     H62304   9.225   0.501   9.312 -1.3129 -0.6989 -0.0624
  462MOL0     H62305   9.331   0.139   9.152  1.0033  1.6362  1.2785
  462MOL0     H62306   9.324   0.063   9.311 -0.5020  0.6121  2.3628
  462MOL0     H62307   9.108  -0.021   9.294 -2.3007  1.0493 -1.1423
  462MOL0     H62308   9.221  -0.073   9.155  1.2069 -1.2136  1.4234
  462MOL0     H62309   9.079   0.157   9.063  1.2693  0.5885 -1.7674
  462MOL0     H62310   8.968   0.045   9.151 -1.6111 -3.3044 -2.3973
  462MOL0     H62311   8.997   0.044   8.903  1.1256  1.7015  0.7795
  462MOL0     H62312   9.158  -0.027   8.930 -0.3674  1.9672 -0.2150
  462MOL0     H62313   9.050  -0.230   9.060  1.3195 -1.5119 -0.5510
  462MOL0     H62314   8.895  -0.155   9.022  0.4000  3.0536 -2.4480
  462MOL0     H62315   8.927  -0.183   8.785 -2.6454 -0.8697  1.0319
  462MOL0     H62316   9.081  -0.279   8.801 -0.9986  0.0673 -1.8828
  462MOL0     H62317   8.801  -0.327   8.885 -0.1639  1.1361 -0.6161
  462MOL0     H62318   8.941  -0.432   8.937  0.7556 -1.6079 -0.1976
  462MOL0     H62319   8.827  -0.527   8.733 -0.4326  1.3452  2.9496
  462MOL0     H62320   8.849  -0.380   8.650  0.4667  0.7072  0.6495
  462MOL0     H62321   9.119  -0.362   8.552 -0.3226  0.3911 -0.7435
  462MOL0     H62322   9.378  -0.403   8.514  2.1923  0.8495  1.4252
  462MOL0     H62323   9.432  -0.457   8.667 -3.2266  0.2792  2.2203
  462MOL0     H62324   9.354  -0.653   8.443  0.7372  1.1544 -3.2001
  462MOL0     H62325   9.496  -0.566   8.431  1.5499 -1.0315  1.6026
  462MOL0     H62326   9.424  -0.721   8.683 -1.2656  3.5947 -0.5869
  462MOL0     H62327   9.583  -0.651   8.634  1.5785 -2.1748  1.2424
  462MOL0     H62328   9.467  -0.902   8.514 -1.3951  0.5678 -0.7028
  462MOL0     H62329   9.610  -0.878   8.606  0.8472 -0.7444 -1.4748
  462MOL0     H62330   9.627  -0.656   8.189  1.0376  0.5820  1.6251
  462MOL0     H62331   9.539  -0.728   7.978  1.7498  1.2995  1.5123
  462MOL0     H62332   9.473  -0.921   7.562 -0.2991  0.2405 -1.3294
  462MOL0     H62333   9.324  -0.952   7.374 -2.2413 -2.5592 -1.4193
  462MOL0     H62334   9.154  -1.017   7.232 -1.3487  1.3921 -2.4941
  462MOL0     H62335   9.055  -1.123   7.333  0.8563  0.3363  3.2264
  462MOL0     H62336   8.857  -1.075   7.203  0.1889  0.1373 -0.4654
  462MOL0     H62337   8.906  -0.915   7.166 -1.0437 -0.7939  1.1379
  462MOL0     H62338   9.075  -0.993   7.018  0.7039  0.1003  1.9207
  462MOL0     H62339   9.020  -1.159   7.035 -0.1224  0.5971 -4.2807
  462MOL0     H62340   8.810  -0.956   6.981 -0.4369  0.3588 -1.0372
  462MOL0     H62341   8.804  -1.128   6.938 -1.3511  0.9338  0.2954
  462MOL0     H62342   8.857  -1.023   6.729  2.0513 -0.4262 -2.0529
  462MOL0     H62343   9.004  -1.101   6.772  2.0697  1.6276 -0.1468
  462MOL0     H62344   8.976  -0.813   6.838 -1.7527  1.2213 -0.4082
  462MOL0     H62345   9.117  -0.902   6.808  0.0124  1.7387 -0.2626
  462MOL0     H62346   8.912  -0.822   6.604  0.0085 -0.9053  0.7107
  462MOL0     H62347   9.035  -0.960   6.591  2.5700  1.2830 -0.9821
  462MOL0     H62348   9.226  -0.824   6.639  1.7085  0.6455 -0.1849
  462MOL0     H62349   9.152  -0.792   6.487  0.9562  0.1548  0.8670
  462MOL0     H62350   8.984  -0.917   7.646  0.3298 -0.1684 -1.5400
  462MOL0     H62351   9.156  -0.888   7.830 -0.3086  0.8901  0.7301
  462MOL0     H62352   9.419  -1.113   8.154 -1.4356  0.6609  2.5639
  462MOL0     H62353   9.502  -1.047   8.356 -2.7884 -0.5567 -0.9168
  462MOL0     H62354   9.292   0.115   9.509 -1.4202 -1.0622 -1.2625
  462MOL0     H62355   9.373   0.230   9.696 -1.4540 -0.3844 -0.3277
  462MOL0     H62356   9.297   0.684   9.815 -0.2288 -2.4618 -0.3937
  462MOL0     H62357   9.280   0.833  10.021 -0.4204  2.7096 -2.7043
  462MOL0     H62358   9.393   0.987  10.304 -0.7422 -0.8888  0.3821
  462MOL0     H62359   9.285   0.954  10.178  0.8547 -1.0013  0.7919
  462MOL0     H62360   9.323   1.172  10.065 -1.4590  1.8705  1.1702
  462MOL0     H62361   9.451   1.203  10.188  1.1970 -0.1017 -2.0225
  462MOL0     H62362   9.152   1.173  10.242  0.5673 -0.7380  1.1830
  462MOL0     H62363   9.235   1.320  10.213 -4.9529 -1.0059 -0.5011
  462MOL0     H62364   9.211   1.277  10.470 -1.2486  0.3464 -0.5224
  462MOL0     H62365   9.328   1.137  10.446  3.8426  1.5802  0.5240
  462MOL0     H62366   9.573   1.477  10.372 -0.5728  1.2857 -1.8339
  462MOL0     H62367   9.718   0.876  10.000  1.6249 -0.5329 -4.7690
  462MOL0     H62368   9.838   0.787   9.868  0.3948 -0.4043  0.9459
  462MOL0     H62369   9.817   0.614   9.877 -0.5991  0.0415  0.7351
  462MOL0     H62370   9.788   0.686   9.725 -0.2749 -2.5158  0.6126
  463MOL0     O62371   9.093   9.944   1.963  0.7740 -0.0973 -0.1504
  463MOL0     C62372   9.160  10.004   1.882 -0.5189  0.8404  0.1426
  463MOL0     O62373   9.297  10.029   1.890 -0.6543 -0.2941  0.4341
  463MOL0     C62374   9.363   9.990   2.007 -0.3980  0.1755  0.5752
  463MOL0     C62375   9.317  10.024   2.136 -0.7117  0.1455  0.2247
  463MOL0     C62376   9.397   9.990   2.251  0.6507 -0.5563  0.1869
  463MOL0     C62377   9.523   9.924   2.239 -0.1232 -0.4598  0.0090
  463MOL0     O62378   9.583   9.898   2.354 -0.2339  0.5125  0.2063
  463MOL0     C62379   9.625  10.007   2.438 -0.2064 -0.0154 -0.4793
  463MOL0     C62380   9.690   9.934   2.567 -0.7254 -0.7610  1.3490
  463MOL0     C62381   9.792  10.019   2.637  1.1310 -0.6032  0.6261
  463MOL0     C62382   9.877   9.952   2.738  0.3900 -0.5000  0.2542
  463MOL0     C62383   9.991  10.030   2.793  0.2492 -0.3071 -0.4082
  463MOL0     C62384  10.061   9.938   2.902  0.5535  0.1792  0.5701
  463MOL0     C62385  10.152   9.834   2.830 -0.6007  0.0096  1.1405
  463MOL0     C62386  10.237   9.745   2.922  0.6742  0.3143 -0.5313
  463MOL0     N62387  10.157   9.659   3.005  0.9063  1.0768 -0.1114
  463MOL0     C62388  10.034   9.601   2.974  0.3157 -0.4255 -0.4494
  463MOL0     C62389  10.004   9.538   3.099  1.1362 -0.0238  0.6254
  463MOL0     C62390   9.895   9.437   3.124 -0.6913 -0.5706 -0.3114
  463MOL0     C62391   9.808   9.485   3.246 -0.7325 -0.3735 -0.0605
  463MOL0     C62392   9.872   9.421   3.379  0.4267 -0.5253  0.9880
  463MOL0     C62393   9.773   9.449   3.499  0.1648 -0.1508 -0.0836
  463MOL0     O62394   9.674   9.339   3.494  0.2881 -0.6642 -0.2630
  463MOL0     C62395   9.544   9.393   3.514  0.3300  0.4341  0.0423
  463MOL0     C62396   9.510   9.494   3.606 -0.3618  0.2178  1.8415
  463MOL0     C62397   9.376   9.542   3.617  0.1936  0.0760  0.2853
  463MOL0     C62398   9.279   9.492   3.529  0.7369 -0.7246 -0.1759
  463MOL0     C62399   9.145   9.555   3.531  0.0783  0.3453 -0.5987
  463MOL0     O62400   9.127   9.653   3.613  0.7549 -0.6093  0.3065
  463MOL0     C62401   9.004   9.712   3.644  1.0528 -0.5911  0.1127
  463MOL0     C62402   9.015   9.853   3.685  0.3211 -0.1359  0.3393
  463MOL0     C62403   8.897   9.917   3.730 -0.8669  0.0926 -0.1734
  463MOL0     C62404   8.773   9.858   3.719  0.4019 -0.7934 -0.1039
  463MOL0     O62405   8.666   9.937   3.737  0.5837  0.3238  0.2350
  463MOL0     C62406   8.563   9.882   3.823  0.2977 -0.4992  0.0759
  463MOL0     C62407   8.447   9.853   3.734  1.0845  0.6268 -1.0916
  463MOL0     C62408   8.321   9.830   3.819 -0.2591  0.2264  0.1853
  463MOL0     C62409   8.196   9.836   3.732 -0.4318 -0.1641 -0.4370
  463MOL0     C62410   8.071   9.853   3.806  0.2916 -0.2486 -0.1371
  463MOL0     C62411   7.980   9.935   3.718 -0.4240 -0.3813  1.4321
  463MOL0     C62412   7.849   9.957   3.795 -0.3287 -0.3272 -0.0240
  463MOL0     C62413   7.762   9.817   3.798  0.4825 -0.9020 -0.3038
  463MOL0    Cl62414   7.591   9.838   3.827 -0.4602 -0.2718 -0.1063
  463MOL0     C62415   8.763   9.722   3.689 -0.5414  0.2019  0.3381
  463MOL0     C62416   8.883   9.651   3.651 -0.4044  0.6164 -0.8497
  463MOL0     O62417   9.059   9.528   3.445  0.3165 -0.1149  0.1870
  463MOL0     C62418   9.309   9.394   3.434  0.1161 -0.0818 -0.1519
  463MOL0     C62419   9.445   9.349   3.426 -0.1678 -0.4434  0.2680
  463MOL0     N62420  10.096   9.561   3.195  0.2597 -0.7417  0.1812
  463MOL0     N62421  10.195   9.632   3.137 -0.2550  0.2601  0.7157
  463MOL0     C62422   9.564   9.886   2.115  0.1623 -0.7094 -0.6825
  463MOL0     C62423   9.489   9.929   2.001 -0.2634  0.0435  0.0257
  463MOL0     C62424   9.077  10.043   1.763 -0.4596 -0.0484 -0.2298
  463MOL0     C62425   8.952   9.976   1.744  0.0981 -0.8373  0.2140
  463MOL0     C62426   8.887   9.980   1.621 -0.3119 -0.2115  0.0889
  463MOL0     C62427   8.935  10.052   1.515 -0.5523  0.7877  0.0692
  463MOL0     O62428   8.855  10.084   1.413  0.3983 -0.3416  0.3263
  463MOL0     C62429   8.742  10.176   1.445  0.1209 -0.5248 -0.2606
  463MOL0     C62430   8.785  10.326   1.462 -0.1800  0.3986 -0.8373
  463MOL0     C62431   8.859  10.359   1.331 -0.6723 -0.7151 -0.1633
  463MOL0     C62432   8.845  10.501   1.280 -0.1912 -0.4923  0.5108
  463MOL0     C62433   8.708  10.511   1.227 -0.2018  0.5863  0.5891
  463MOL0     C62434   8.599  10.509   1.164  0.4252 -0.2584  0.0869
  463MOL0     C62435   9.065  10.110   1.530 -0.0601  0.3749  0.0384
  463MOL0     C62436   9.136  10.111   1.658  1.2840  0.6394 -0.1388
  463MOL0     C62437   9.272  10.167   1.649  0.9958 -0.7444  0.1673
  463MOL0     H62438   9.221  10.073   2.143 -0.2865  1.7205 -2.9552
  463MOL0     H62439   9.359  10.012   2.350 -0.5765  1.4121 -0.6535
  463MOL0     H62440   9.709  10.055   2.387 -0.3567  0.8477  0.0579
  463MOL0     H62441   9.549  10.078   2.471  0.6206  1.2320 -1.1780
  463MOL0     H62442   9.749   9.844   2.543  1.3556 -0.0493  3.4778
  463MOL0     H62443   9.608   9.915   2.637 -0.8396  2.4549  2.2086
  463MOL0     H62444   9.752  10.110   2.684 -1.4732 -0.7146 -1.1871
  463MOL0     H62445   9.863  10.061   2.565 -1.2609  1.3507 -0.7246
  463MOL0     H62446   9.817   9.917   2.822  1.6476  0.5266  1.6397
  463MOL0     H62447   9.925   9.867   2.689  3.2519  1.6987 -1.0200
  463MOL0     H62448  10.061  10.059   2.714 -0.4448 -0.3602 -1.0482
  463MOL0     H62449   9.944  10.114   2.845 -3.6384 -2.8759  0.6380
  463MOL0     H62450  10.126  10.004   2.960 -0.0140  0.3438  1.0256
  463MOL0     H62451   9.984   9.890   2.962 -0.5786 -0.5401 -1.3637
  463MOL0     H62452  10.224   9.888   2.769  1.3955 -1.0280  2.4590
  463MOL0     H62453  10.084   9.773   2.768 -1.3178  1.5405  0.3721
  463MOL0     H62454  10.303   9.686   2.857  0.3629 -0.5726 -0.0565
  463MOL0     H62455  10.295   9.804   2.993 -0.6255 -0.1704  0.9927
  463MOL0     H62456   9.977   9.615   2.883  0.2813  0.8892 -0.2536
  463MOL0     H62457   9.834   9.413   3.036 -0.1905  0.4722 -0.9617
  463MOL0     H62458   9.947   9.347   3.159  0.1892 -0.7701 -2.0026
  463MOL0     H62459   9.814   9.593   3.260  1.7523 -0.2794 -1.1928
  463MOL0     H62460   9.709   9.446   3.220 -1.8723  1.8849  0.7151
  463MOL0     H62461   9.971   9.462   3.404  1.2992 -3.0725  2.0724
  463MOL0     H62462   9.880   9.313   3.366  1.0301 -0.4808  0.9690
  463MOL0     H62463   9.726   9.545   3.478  2.4556  1.2856  0.8937
  463MOL0     H62464   9.831   9.460   3.592 -1.2060  0.3544  0.7472
  463MOL0     H62465   9.586   9.545   3.665 -0.5128  0.1435  2.1053
  463MOL0     H62466   9.356   9.596   3.709 -0.2737 -2.5756  1.8448
  463MOL0     H62467   9.108   9.905   3.665  0.5556 -0.9818 -0.8226
  463MOL0     H62468   8.891  10.021   3.760 -0.2120  0.1214 -0.1323
  463MOL0     H62469   8.596   9.800   3.888 -0.8528 -0.1217  1.1811
  463MOL0     H62470   8.534   9.964   3.889  1.9512 -0.9770  1.4758
  463MOL0     H62471   8.429   9.924   3.652 -2.1666 -1.8265 -2.7407
  463MOL0     H62472   8.455   9.757   3.682 -0.8499 -1.3088  1.8717
  463MOL0     H62473   8.326   9.735   3.874  0.8944  1.1045  1.6640
  463MOL0     H62474   8.304   9.904   3.898  1.6111 -1.0738  1.9326
  463MOL0     H62475   8.178   9.747   3.671 -0.0839 -0.5412  0.0053
  463MOL0     H62476   8.208   9.909   3.652 -1.6880 -2.2765 -2.7144
  463MOL0     H62477   8.081   9.918   3.894 -0.9521  0.5137 -0.5344
  463MOL0     H62478   8.030   9.757   3.839  3.2326 -0.3411  4.0700
  463MOL0     H62479   8.022  10.033   3.695  0.1253 -0.6594  1.2244
  463MOL0     H62480   7.970   9.875   3.627  2.5901  0.8111  0.1961
  463MOL0     H62481   7.796  10.040   3.748 -2.6004 -0.4330  2.1922
  463MOL0     H62482   7.875   9.996   3.893  0.2338  1.5610 -0.8807
  463MOL0     H62483   7.770   9.767   3.701 -2.9799 -0.9319 -0.6756
  463MOL0     H62484   7.817   9.771   3.881 -1.0584  1.3911  2.1788
  463MOL0     H62485   8.667   9.673   3.678  0.4807 -1.4938 -1.9302
  463MOL0     H62486   8.866   9.545   3.637 -7.1508  0.7453  2.4809
  463MOL0     H62487   9.239   9.351   3.362  0.7622 -1.0499 -0.2330
  463MOL0     H62488   9.464   9.281   3.344 -0.6113  1.5621 -1.5807
  463MOL0     H62489   9.660   9.836   2.117 -0.8464 -2.7242 -0.7317
  463MOL0     H62490   9.532   9.895   1.907 -3.4100  0.9264 -1.8959
  463MOL0     H62491   8.915   9.901   1.813 -1.0975 -1.1327 -0.7313
  463MOL0     H62492   8.804   9.911   1.608  1.0735 -1.9999  0.3213
  463MOL0     H62493   8.698  10.152   1.542 -0.7027  1.8945  0.0131
  463MOL0     H62494   8.668  10.171   1.364  0.1932  3.6924 -0.7937
  463MOL0     H62495   8.855  10.331   1.546 -2.3556  0.4710  1.0978
  463MOL0     H62496   8.699  10.393   1.473 -0.0115  0.1626  3.5967
  463MOL0     H62497   8.826  10.285   1.257 -0.0406 -1.9881  0.7863
  463MOL0     H62498   8.964  10.341   1.354 -1.5403 -3.3435  2.4917
  463MOL0     H62499   8.855  10.574   1.361 -1.2334  2.7574 -2.0621
  463MOL0     H62500   8.923  10.512   1.205 -0.5276  0.8943  0.3261
  463MOL0     H62501   8.499  10.516   1.128  0.3271  3.6482  0.7068
  463MOL0     H62502   9.113  10.162   1.447  0.6729  1.9294  1.3849
  463MOL0     H62503   9.334  10.078   1.638 -0.3480 -1.8845  1.3623
  463MOL0     H62504   9.288  10.237   1.567 -0.2248  3.5853  3.2794
  463MOL0     H62505   9.291  10.234   1.733  0.4949  3.4514 -2.7589
  464MOL0     O62506   2.958   4.473   4.435  0.1222  0.1097  0.1746
  464MOL0     C62507   2.940   4.468   4.559  0.0111  0.5040 -0.2746
  464MOL0     O62508   2.920   4.579   4.638  0.6433 -0.2895  0.0057
  464MOL0     C62509   2.946   4.700   4.580  0.3369  0.6919  0.1492
  464MOL0     C62510   3.062   4.742   4.507  0.7132  0.4855  0.2148
  464MOL0     C62511   3.068   4.874   4.466  0.4394  0.4090  0.1686
  464MOL0     C62512   2.977   4.968   4.509 -0.1206 -0.4413 -0.5714
  464MOL0     O62513   2.976   5.103   4.478 -0.2605 -0.4605 -0.3589
  464MOL0     C62514   3.069   5.145   4.373 -0.3079  0.1971 -0.2309
  464MOL0     C62515   3.077   5.292   4.338 -0.3447 -0.0575 -0.1196
  464MOL0     C62516   3.127   5.380   4.457  0.5725  0.0329  0.1351
  464MOL0     C62517   3.117   5.532   4.405 -0.2831  0.0725  0.0529
  464MOL0     C62518   3.221   5.623   4.464 -0.5042 -0.0982 -0.6431
  464MOL0     C62519   3.215   5.625   4.617  0.4829 -0.4372  0.2700
  464MOL0     C62520   3.319   5.709   4.699  0.6917 -0.0820 -0.1688
  464MOL0     C62521   3.257   5.846   4.736 -0.0328  0.3407  0.2322
  464MOL0     N62522   3.331   5.925   4.828  0.1837 -0.2358  0.0505
  464MOL0     C62523   3.358   5.878   4.946 -0.6615 -0.6646 -0.2545
  464MOL0     C62524   3.419   5.990   5.004  0.4608 -0.4866  0.0163
  464MOL0     C62525   3.504   5.977   5.124  0.0543 -1.0151 -1.2331
  464MOL0     C62526   3.448   6.046   5.242  0.3163  0.5050  0.3179
  464MOL0     C62527   3.531   5.999   5.362  0.0910 -1.1330  0.0051
  464MOL0     C62528   3.496   6.096   5.488  0.7456 -0.1107 -0.4338
  464MOL0     O62529   3.597   6.199   5.489 -0.0906 -0.4619 -0.4548
  464MOL0     C62530   3.597   6.277   5.602  0.7448 -0.0357  0.1883
  464MOL0     C62531   3.486   6.319   5.677  0.7670  0.1153 -0.7164
  464MOL0     C62532   3.490   6.421   5.775 -0.6015 -0.4218 -0.0622
  464MOL0     C62533   3.614   6.475   5.811  0.9825 -0.3776 -1.2673
  464MOL0     C62534   3.624   6.592   5.914 -0.5571  0.1852 -0.2283
  464MOL0     O62535   3.750   6.620   5.966  0.2406  0.2407  0.3987
  464MOL0     C62536   3.769   6.751   6.009 -1.0143  0.1884  0.3546
  464MOL0     C62537   3.710   6.817   6.117 -0.1733 -1.1670  0.8070
  464MOL0     C62538   3.765   6.927   6.174  0.0277 -0.4099 -0.1016
  464MOL0     C62539   3.882   6.985   6.120 -0.6552  0.5002  0.0295
  464MOL0     O62540   3.930   7.104   6.176  0.0441  0.6382  0.8516
  464MOL0     C62541   3.993   7.194   6.082 -1.0769 -0.6108  0.9619
  464MOL0     C62542   3.993   7.339   6.142 -0.2098  0.1853  0.2646
  464MOL0     C62543   3.854   7.405   6.138 -0.0605  0.3653 -0.3308
  464MOL0     C62544   3.857   7.543   6.207 -0.1795  1.2835  0.0439
  464MOL0     C62545   3.707   7.590   6.229 -0.6518  0.4611 -0.1263
  464MOL0     C62546   3.688   7.728   6.299 -0.8456 -0.0180  0.1613
  464MOL0     C62547   3.665   7.843   6.199 -0.1234  0.3897 -0.8276
  464MOL0     C62548   3.640   7.973   6.274  1.3874 -0.1229  0.4904
  464MOL0    Cl62549   3.517   8.077   6.200 -0.5595  0.1439  0.2115
  464MOL0     C62550   3.943   6.920   6.011 -0.0286 -0.5708 -0.2657
  464MOL0     C62551   3.893   6.803   5.953 -0.3764  1.6341  0.3208
  464MOL0     O62552   3.529   6.662   5.940  0.8662  0.2280 -0.1113
  464MOL0     C62553   3.719   6.425   5.755 -1.5891 -0.1602 -0.4107
  464MOL0     C62554   3.719   6.333   5.648  0.2269 -0.2635  0.2324
  464MOL0     N62555   3.406   6.102   4.925  0.2987  0.0052 -0.3789
  464MOL0     N62556   3.344   6.062   4.815 -0.1740  0.5817 -0.3479
  464MOL0     C62557   2.856   4.924   4.569 -0.2907 -0.4803  0.3069
  464MOL0     C62558   2.837   4.785   4.606 -0.9479 -0.0879  0.6340
  464MOL0     C62559   2.929   4.332   4.632 -0.9574 -0.4047 -0.5680
  464MOL0     C62560   2.978   4.335   4.760  0.3738  0.1382 -0.2363
  464MOL0     C62561   2.984   4.213   4.839 -0.3781  0.3410 -0.1401
  464MOL0     C62562   2.941   4.093   4.779  0.2899  0.8932  1.4840
  464MOL0     O62563   2.946   3.965   4.836  0.6845  0.6649  0.0975
  464MOL0     C62564   2.999   3.964   4.972  0.0855 -1.0785 -0.2488
  464MOL0     C62565   2.991   3.821   5.029 -0.4192  0.5285 -0.9390
  464MOL0     C62566   2.853   3.755   5.006  0.0146  0.9649  0.2113
  464MOL0     C62567   2.740   3.841   5.066 -0.5486  0.1183  0.1213
  464MOL0     C62568   2.617   3.755   5.063  0.0481  0.0938 -0.2351
  464MOL0     C62569   2.520   3.687   5.049 -0.2102  0.8067  0.2471
  464MOL0     C62570   2.913   4.093   4.642  0.7836  0.4923 -0.3410
  464MOL0     C62571   2.902   4.212   4.564 -0.2080  0.0786  0.0754
  464MOL0     C62572   2.840   4.205   4.424 -0.2871 -0.5492 -2.4154
  464MOL0     H62573   3.144   4.679   4.477 -0.1507  0.9229 -3.6923
  464MOL0     H62574   3.155   4.901   4.406  2.0861  1.5452  2.8608
  464MOL0     H62575   3.168   5.109   4.404 -0.8434  0.9475  2.7255
  464MOL0     H62576   3.038   5.088   4.285  3.6109 -1.1529 -0.9272
  464MOL0     H62577   2.979   5.317   4.296  0.2015 -0.4980 -1.7535
  464MOL0     H62578   3.148   5.304   4.256  0.7492  0.8475  0.9398
  464MOL0     H62579   3.226   5.354   4.494 -0.0159  0.2387  1.9831
  464MOL0     H62580   3.063   5.369   4.545 -2.1358 -0.5056 -1.7736
  464MOL0     H62581   3.123   5.536   4.296  0.0112  0.2143  0.0731
  464MOL0     H62582   3.021   5.566   4.445  0.1240 -0.1935  1.3182
  464MOL0     H62583   3.323   5.600   4.432  0.1102  1.9657 -0.3400
  464MOL0     H62584   3.189   5.722   4.430 -0.5801  0.1551  0.1257
  464MOL0     H62585   3.117   5.664   4.645  0.6029  1.1517 -1.3521
  464MOL0     H62586   3.222   5.521   4.652 -1.2676 -0.2418  1.3179
  464MOL0     H62587   3.410   5.713   4.640  0.5507 -0.4789 -0.4140
  464MOL0     H62588   3.343   5.668   4.798 -2.7945 -0.1488  0.7781
  464MOL0     H62589   3.259   5.899   4.640  0.3000  2.7674  1.5060
  464MOL0     H62590   3.155   5.837   4.776 -1.0637  3.1045 -1.4624
  464MOL0     H62591   3.335   5.778   4.979 -0.7994 -1.0801 -1.5499
  464MOL0     H62592   3.513   5.873   5.156 -2.1052 -0.1330  3.0241
  464MOL0     H62593   3.598   6.029   5.105 -0.1676  0.1743  0.6531
  464MOL0     H62594   3.490   6.146   5.228  4.6290 -0.9684  1.0368
  464MOL0     H62595   3.341   6.064   5.248 -0.0189  0.2828 -3.1148
  464MOL0     H62596   3.638   6.009   5.341 -0.2396 -0.1025 -1.3537
  464MOL0     H62597   3.514   5.892   5.379 -0.6307 -0.6702  2.6739
  464MOL0     H62598   3.494   6.034   5.578 -2.0950  1.2588  0.5783
  464MOL0     H62599   3.394   6.133   5.474  0.3263 -0.5300  1.2941
  464MOL0     H62600   3.394   6.281   5.633  1.1690  1.0669 -2.4202
  464MOL0     H62601   3.403   6.447   5.835  0.6227 -2.4227  2.7801
  464MOL0     H62602   3.613   6.782   6.153 -1.1680  0.1234 -0.4736
  464MOL0     H62603   3.714   6.967   6.261 -0.8526 -3.5466  0.9797
  464MOL0     H62604   4.088   7.149   6.052 -1.0998  1.0839 -1.9862
  464MOL0     H62605   3.950   7.207   5.983 -1.8177 -0.2228  1.3226
  464MOL0     H62606   4.039   7.339   6.242 -0.2518  0.3134  0.2838
  464MOL0     H62607   4.062   7.405   6.089  0.1450  1.1282  1.8119
  464MOL0     H62608   3.823   7.404   6.033  0.3203  2.3613 -0.4944
  464MOL0     H62609   3.790   7.328   6.182 -1.8332  0.9799 -1.6976
  464MOL0     H62610   3.892   7.608   6.126  0.2198 -3.2905 -3.9512
  464MOL0     H62611   3.916   7.558   6.298  1.2449  2.8369 -1.0848
  464MOL0     H62612   3.671   7.519   6.304  0.2607  1.5103  1.3686
  464MOL0     H62613   3.653   7.576   6.135  1.2822  2.0726 -1.5767
  464MOL0     H62614   3.599   7.719   6.362  1.4388  0.0526  3.6509
  464MOL0     H62615   3.776   7.751   6.360  0.4484 -1.8319 -0.9181
  464MOL0     H62616   3.584   7.813   6.132 -0.5073 -0.4394 -0.0157
  464MOL0     H62617   3.752   7.861   6.135  0.6647  0.0647  0.1268
  464MOL0     H62618   3.620   7.954   6.379 -3.4368  0.3654 -0.1520
  464MOL0     H62619   3.733   8.031   6.273  1.5779 -0.4271  0.1378
  464MOL0     H62620   4.034   6.959   5.965 -0.6251  3.0388  1.2653
  464MOL0     H62621   3.932   6.747   5.869 -1.0821  0.0368  1.0160
  464MOL0     H62622   3.816   6.465   5.784 -1.9534 -0.4241  1.3125
  464MOL0     H62623   3.817   6.324   5.603  0.4036 -1.9969  0.9162
  464MOL0     H62624   2.776   4.994   4.588 -1.8413 -2.2756  0.7843
  464MOL0     H62625   2.750   4.742   4.656 -0.3783  0.3278  2.0342
  464MOL0     H62626   2.990   4.426   4.818  2.4500 -0.2683  0.0746
  464MOL0     H62627   3.018   4.210   4.942 -2.0260 -1.8871  0.4114
  464MOL0     H62628   2.948   4.031   5.042  1.0577 -0.4653 -0.1109
  464MOL0     H62629   3.101   4.003   4.968  0.4546 -2.0896 -0.9538
  464MOL0     H62630   3.010   3.817   5.137  0.1276  2.5567 -0.9029
  464MOL0     H62631   3.069   3.760   4.984  0.5246  0.1687  1.0604
  464MOL0     H62632   2.848   3.654   5.047 -0.8055 -0.4853 -3.1278
  464MOL0     H62633   2.836   3.749   4.898 -3.2778  1.4184  0.6060
  464MOL0     H62634   2.762   3.868   5.170  1.8564  3.5656 -1.1091
  464MOL0     H62635   2.723   3.933   5.010  1.7692 -1.0988 -2.8866
  464MOL0     H62636   2.432   3.626   5.042 -0.8546  1.8674 -3.7387
  464MOL0     H62637   2.894   3.994   4.601  2.0069 -0.5426  1.4618
  464MOL0     H62638   2.902   4.199   4.334  0.5008  0.3427 -1.9537
  464MOL0     H62639   2.777   4.117   4.434 -4.6469  2.4567  0.2873
  464MOL0     H62640   2.773   4.292   4.421  1.3263  1.2047  2.6665
  465MOL0     O62641   0.585   2.931   4.515  0.4804 -0.4644  0.9618
  465MOL0     C62642   0.529   2.843   4.457  1.8290 -0.1745 -0.6467
  465MOL0     O62643   0.592   2.738   4.392 -0.4005  0.7183  0.0058
  465MOL0     C62644   0.702   2.697   4.462  0.4879  0.0306 -0.7904
  465MOL0     C62645   0.825   2.753   4.440  0.1623  0.5515 -0.5084
  465MOL0     C62646   0.937   2.703   4.514 -0.1320  0.6158 -0.6384
  465MOL0     C62647   0.922   2.613   4.617  0.3942 -0.8434 -0.3535
  465MOL0     O62648   1.031   2.584   4.701  0.0176 -0.0263 -0.2486
  465MOL0     C62649   0.999   2.585   4.847 -0.5556  0.7965  0.2638
  465MOL0     C62650   1.022   2.447   4.915 -0.3986  0.3573 -0.1398
  465MOL0     C62651   1.174   2.406   4.927  0.2860 -0.4889 -0.4495
  465MOL0     C62652   1.197   2.297   5.028 -0.1808 -0.4002 -0.1030
  465MOL0     C62653   1.347   2.293   5.063 -0.8240  0.9739 -0.0509
  465MOL0     C62654   1.391   2.170   5.141  0.6862 -0.6334  0.3364
  465MOL0     C62655   1.541   2.156   5.166  0.2407 -0.0113 -1.0301
  465MOL0     C62656   1.600   2.241   5.279 -0.4420 -0.4951 -0.3511
  465MOL0     N62657   1.747   2.221   5.321  0.3153  0.8822  1.2551
  465MOL0     C62658   1.831   2.137   5.250  0.0132 -0.2014 -0.4107
  465MOL0     C62659   1.949   2.167   5.296  0.2288  0.7321  0.9039
  465MOL0     C62660   2.075   2.086   5.267  0.8052  0.3102  0.4015
  465MOL0     C62661   2.163   2.064   5.389 -0.0506 -0.0497 -0.4481
  465MOL0     C62662   2.295   1.998   5.351 -0.2162 -0.3092 -0.6599
  465MOL0     C62663   2.274   1.845   5.332 -0.7818 -0.0373  0.1167
  465MOL0     O62664   2.193   1.784   5.434 -0.1209 -0.3418  0.3027
  465MOL0     C62665   2.256   1.691   5.511  0.3376 -0.2864 -0.2138
  465MOL0     C62666   2.180   1.575   5.537  0.2659 -0.6129 -0.4682
  465MOL0     C62667   2.230   1.472   5.612 -0.0170  0.5258  0.2926
  465MOL0     C62668   2.366   1.464   5.644 -0.2874 -0.0899 -0.1769
  465MOL0     C62669   2.428   1.343   5.714 -1.0508 -0.4367 -0.0441
  465MOL0     O62670   2.365   1.229   5.697  0.4940 -0.6798  0.3647
  465MOL0     C62671   2.367   1.104   5.757  0.0102  0.3644 -0.5132
  465MOL0     C62672   2.467   1.071   5.850  0.1419 -1.2581  0.4183
  465MOL0     C62673   2.472   0.946   5.902 -0.0517  0.4303  0.9631
  465MOL0     C62674   2.368   0.860   5.890 -0.4081  0.3983  0.2022
  465MOL0     O62675   2.389   0.745   5.955 -0.2817  0.4849 -0.2717
  465MOL0     C62676   2.294   0.637   5.953  1.3128  0.5126  0.4411
  465MOL0     C62677   2.337   0.506   6.017 -0.1390  0.2872 -0.0429
  465MOL0     C62678   2.215   0.420   6.035  1.4681 -0.6853 -0.8876
  465MOL0     C62679   2.083   0.481   6.093  0.4538  0.0403  0.1654
  465MOL0     C62680   1.992   0.372   6.128  1.0541  0.9628 -0.6631
  465MOL0     C62681   1.861   0.413   6.193  0.5695 -0.6298 -0.5062
  465MOL0     C62682   1.786   0.531   6.120 -0.1274 -0.7739 -1.3767
  465MOL0     C62683   1.644   0.534   6.166 -0.0780  1.5919  0.2063
  465MOL0    Cl62684   1.645   0.540   6.349  0.3195  0.3909  0.1523
  465MOL0     C62685   2.260   0.892   5.808  0.7226  0.2422  0.3709
  465MOL0     C62686   2.262   1.009   5.736  0.1245  0.7471 -0.1580
  465MOL0     O62687   2.533   1.362   5.770  0.3836  0.2785 -0.5220
  465MOL0     C62688   2.448   1.568   5.602 -0.9660  0.0916 -0.9087
  465MOL0     C62689   2.395   1.686   5.544  0.4244  0.5190 -0.3887
  465MOL0     N62690   1.935   2.265   5.388  0.6977 -0.3949 -0.5480
  465MOL0     N62691   1.815   2.289   5.409 -0.0904 -1.5283  0.3976
  465MOL0     C62692   0.788   2.559   4.639 -0.9428 -0.2901 -0.1402
  465MOL0     C62693   0.690   2.601   4.556  0.2429  0.5007 -0.1993
  465MOL0     C62694   0.379   2.855   4.438 -1.2550 -0.4244 -0.2753
  465MOL0     C62695   0.309   2.756   4.363  0.0150  0.2194 -0.9960
  465MOL0     C62696   0.177   2.779   4.321  0.4353  0.4609 -0.7791
  465MOL0     C62697   0.116   2.898   4.362 -0.1398  0.9378  0.2928
  465MOL0     O62698  -0.016   2.909   4.321  0.3182 -0.0002 -0.0396
  465MOL0     C62699  -0.113   2.915   4.430 -0.7608  0.2455  0.6127
  465MOL0     C62700  -0.240   2.834   4.407 -0.0045  0.3822  0.1284
  465MOL0     C62701  -0.346   2.910   4.329 -0.5243 -0.1020 -0.4757
  465MOL0     C62702  -0.494   2.865   4.346  0.9634 -0.2742 -0.1110
  465MOL0     C62703  -0.499   2.712   4.356  1.0116  0.1773 -0.4994
  465MOL0     C62704  -0.509   2.596   4.387 -0.8314 -0.0131  0.0526
  465MOL0     C62705   0.166   2.981   4.459 -0.8604  0.3118 -0.0252
  465MOL0     C62706   0.308   2.973   4.490  0.6419 -0.5495  0.8692
  465MOL0     C62707   0.364   3.087   4.570 -0.2997  0.4049  0.4444
  465MOL0     H62708   0.854   2.804   4.349 -0.2593  0.8797 -0.4622
  465MOL0     H62709   1.038   2.732   4.484 -0.2612  2.0132  0.1802
  465MOL0     H62710   1.066   2.647   4.906 -0.0906 -2.1076  3.1228
  465MOL0     H62711   0.898   2.620   4.868 -0.5407  1.2431 -0.4014
  465MOL0     H62712   0.966   2.373   4.857 -3.0777  0.9902  1.4107
  465MOL0     H62713   0.982   2.458   5.017  1.7917 -3.9642  1.4240
  465MOL0     H62714   1.226   2.493   4.970  1.2076 -1.7274  1.0354
  465MOL0     H62715   1.216   2.385   4.828 -1.4722  0.7378 -1.5130
  465MOL0     H62716   1.139   2.317   5.119  0.7820  0.1252  0.4073
  465MOL0     H62717   1.163   2.204   4.983 -0.0073 -1.1307  1.2253
  465MOL0     H62718   1.394   2.273   4.966  1.0977  1.7741  0.6651
  465MOL0     H62719   1.385   2.388   5.101 -0.2314  1.1111 -0.9500
  465MOL0     H62720   1.344   2.177   5.240  2.6946 -0.3432  1.3255
  465MOL0     H62721   1.351   2.081   5.092 -1.4343 -0.5354  1.7611
  465MOL0     H62722   1.592   2.187   5.075  1.5638  1.1912  0.0752
  465MOL0     H62723   1.543   2.052   5.198 -2.8649  0.8523  2.8691
  465MOL0     H62724   1.593   2.342   5.239  2.3219 -0.0784  0.0103
  465MOL0     H62725   1.537   2.224   5.367  0.4389  1.5003  0.7329
  465MOL0     H62726   1.804   2.059   5.180 -2.3156  1.9816 -2.1175
  465MOL0     H62727   2.033   1.996   5.221  1.3011  0.0084  0.5349
  465MOL0     H62728   2.135   2.134   5.188  0.1080  0.2828 -0.1564
  465MOL0     H62729   2.170   2.155   5.450  1.1179 -0.4716  0.0719
  465MOL0     H62730   2.105   1.994   5.451  0.6892 -4.0056 -3.7933
  465MOL0     H62731   2.361   2.027   5.433  1.2910 -1.7388 -1.3233
  465MOL0     H62732   2.323   2.036   5.252 -1.9251  1.6502 -0.4693
  465MOL0     H62733   2.370   1.796   5.309 -0.4338  0.6389  0.1007
  465MOL0     H62734   2.213   1.832   5.243  0.7609 -3.4525 -0.6352
  465MOL0     H62735   2.077   1.558   5.507 -0.5895 -1.5235  2.6461
  465MOL0     H62736   2.160   1.402   5.657  0.7019 -1.1417 -1.0755
  465MOL0     H62737   2.547   1.140   5.874 -1.1496  0.2807  0.4617
  465MOL0     H62738   2.554   0.923   5.969 -0.6633  1.9856  2.3137
  465MOL0     H62739   2.213   0.676   6.015  1.5949  7.1776 -2.4257
  465MOL0     H62740   2.241   0.626   5.858  1.5086 -0.9370  0.4851
  465MOL0     H62741   2.404   0.450   5.951  1.0685  2.5776 -0.8809
  465MOL0     H62742   2.384   0.524   6.114  1.5343 -0.6465 -0.6345
  465MOL0     H62743   2.186   0.374   5.940 -1.6131 -2.4823  0.7833
  465MOL0     H62744   2.236   0.341   6.107 -0.6948  1.8276  2.8339
  465MOL0     H62745   2.031   0.555   6.030 -3.5778 -0.2729  2.7447
  465MOL0     H62746   2.110   0.540   6.181 -2.5262 -1.7622  2.4755
  465MOL0     H62747   2.033   0.298   6.198  2.4230 -0.0200 -2.4145
  465MOL0     H62748   1.979   0.309   6.040 -2.9496  0.8897 -0.2036
  465MOL0     H62749   1.794   0.327   6.203  1.5269 -1.5484 -1.6934
  465MOL0     H62750   1.879   0.451   6.294 -2.2706  0.9420 -0.4650
  465MOL0     H62751   1.791   0.528   6.011 -3.1390 -0.9450 -1.5879
  465MOL0     H62752   1.832   0.625   6.152 -2.2817 -0.2109  0.4181
  465MOL0     H62753   1.598   0.624   6.124  0.8560  1.1660 -1.8516
  465MOL0     H62754   1.598   0.444   6.124  2.2071  0.3871  0.1363
  465MOL0     H62755   2.173   0.827   5.803  0.5998 -0.0681  3.9123
  465MOL0     H62756   2.189   1.039   5.661  0.4243 -1.0062 -1.1804
  465MOL0     H62757   2.554   1.557   5.625 -1.5794 -0.6277  1.8269
  465MOL0     H62758   2.460   1.769   5.522  0.5212  0.9775  1.4674
  465MOL0     H62759   0.761   2.490   4.718  1.2831 -0.9242  0.1273
  465MOL0     H62760   0.586   2.570   4.565 -1.0395  4.1822 -0.6001
  465MOL0     H62761   0.366   2.667   4.339 -0.2048  0.1879 -1.4081
  465MOL0     H62762   0.117   2.705   4.268  0.0143 -1.0369  1.6727
  465MOL0     H62763  -0.136   3.022   4.433 -2.3842 -0.0703  0.4826
  465MOL0     H62764  -0.077   2.879   4.527 -2.3169  0.0447  1.1518
  465MOL0     H62765  -0.273   2.787   4.500  1.6465  0.4482  0.7808
  465MOL0     H62766  -0.213   2.739   4.359 -1.6918 -1.0645  1.8814
  465MOL0     H62767  -0.325   2.919   4.222 -0.2185  2.2582 -0.2827
  465MOL0     H62768  -0.334   3.013   4.365 -0.2757  0.1871 -1.3576
  465MOL0     H62769  -0.533   2.907   4.439 -0.3656 -0.0755 -0.7326
  465MOL0     H62770  -0.560   2.904   4.269 -1.4130 -0.9847  1.4449
  465MOL0     H62771  -0.532   2.500   4.428 -0.5194  0.4269  1.2822
  465MOL0     H62772   0.099   3.057   4.496 -0.5896  2.1328 -2.9867
  465MOL0     H62773   0.443   3.133   4.509  2.8041 -4.6870 -0.0033
  465MOL0     H62774   0.291   3.161   4.604 -0.3779  0.7258 -0.4074
  465MOL0     H62775   0.408   3.045   4.661  1.0422  0.0379 -0.3471
  466MOL0     O62776  10.298   5.823   2.553 -0.8745  0.4832 -0.0347
  466MOL0     C62777  10.241   5.901   2.482  0.3944  0.0369 -0.6101
  466MOL0     O62778  10.268   6.040   2.475 -0.8901  0.3636 -0.2916
  466MOL0     C62779  10.377   6.103   2.532 -0.2463  0.5439  0.1678
  466MOL0     C62780  10.374   6.148   2.662 -0.1059  0.2993 -0.3587
  466MOL0     C62781  10.494   6.210   2.707 -0.0184 -0.2019 -0.2359
  466MOL0     C62782  10.605   6.237   2.630  0.7257  0.2249  0.2365
  466MOL0     O62783  10.702   6.300   2.695 -0.4537 -0.0857 -0.9548
  466MOL0     C62784  10.783   6.208   2.781  0.1052  0.0739  0.2032
  466MOL0     C62785  10.923   6.171   2.720  0.3217  0.5930  0.0700
  466MOL0     C62786  11.010   6.120   2.830  0.1063 -0.3904  0.1332
  466MOL0     C62787  11.141   6.051   2.777 -0.7394  0.0303  0.6508
  466MOL0     C62788  11.113   5.903   2.711  0.8074 -0.7382 -0.1746
  466MOL0     C62789  11.235   5.856   2.631  0.0911 -0.4257  0.7158
  466MOL0     C62790  11.235   5.720   2.568 -0.5006 -0.1376 -0.7965
  466MOL0     C62791  11.151   5.714   2.442  0.3291  0.0894 -0.5990
  466MOL0     N62792  11.109   5.577   2.401  0.4633 -0.2886 -0.1948
  466MOL0     C62793  11.111   5.541   2.273 -0.5998  0.4133 -0.0825
  466MOL0     C62794  11.067   5.408   2.282 -0.5938  0.3805  0.8950
  466MOL0     C62795  11.041   5.342   2.145 -0.1429  0.3310 -1.1426
  466MOL0     C62796  10.896   5.308   2.144  0.6870 -0.3006 -0.3939
  466MOL0     C62797  10.807   5.436   2.134  0.2866 -0.1826  0.4866
  466MOL0     C62798  10.739   5.455   2.270  0.1047  0.1141 -0.3417
  466MOL0     O62799  10.647   5.344   2.304  0.1732 -0.6094 -0.0176
  466MOL0     C62800  10.584   5.341   2.424 -0.9262 -0.2505 -0.3365
  466MOL0     C62801  10.492   5.238   2.440 -0.0076  0.1962  0.6708
  466MOL0     C62802  10.411   5.238   2.547 -0.8982 -0.5774 -0.3132
  466MOL0     C62803  10.409   5.338   2.640 -0.1498  0.5417 -0.1152
  466MOL0     C62804  10.338   5.342   2.764 -0.5392  0.2287  0.4726
  466MOL0     O62805  10.244   5.240   2.770 -0.0777  0.6291  0.2338
  466MOL0     C62806  10.198   5.203   2.893 -0.6692 -0.0734  0.0817
  466MOL0     C62807  10.279   5.117   2.965 -1.2182 -0.2999 -1.4888
  466MOL0     C62808  10.241   5.074   3.093 -0.7466  0.0876 -0.2404
  466MOL0     C62809  10.114   5.107   3.150  0.5267  0.2215  0.1360
  466MOL0     O62810  10.067   5.048   3.261 -0.5924 -0.1851  0.1548
  466MOL0     C62811  10.004   5.127   3.361 -0.1777  0.6495 -0.2587
  466MOL0     C62812  10.045   5.078   3.503 -0.9915  0.0942  0.5297
  466MOL0     C62813  10.187   5.111   3.532  0.7307 -0.2807  0.1653
  466MOL0     C62814  10.213   5.094   3.682  0.9516  0.2722 -0.4385
  466MOL0     C62815  10.337   5.157   3.732  0.1333  0.1396 -0.5987
  466MOL0     C62816  10.325   5.147   3.883  0.4962  0.5475  0.5583
  466MOL0     C62817  10.452   5.163   3.949  0.0746 -0.9637  0.3908
  466MOL0     C62818  10.447   5.127   4.089  0.2681 -0.0157 -0.4773
  466MOL0    Cl62819  10.378   4.975   4.120 -0.5066 -0.1073 -0.1801
  466MOL0     C62820  10.038   5.188   3.072  0.4148  0.3392  0.9580
  466MOL0     C62821  10.077   5.233   2.951 -0.0411 -0.7677  0.9863
  466MOL0     O62822  10.360   5.423   2.851  1.1550  0.6063  0.2002
  466MOL0     C62823  10.510   5.435   2.629  0.5871  0.1379  0.2984
  466MOL0     C62824  10.597   5.445   2.521 -0.2654 -0.2489 -0.0616
  466MOL0     N62825  11.044   5.378   2.409 -0.2572  0.9335  0.1361
  466MOL0     N62826  11.074   5.475   2.483  0.3986 -0.4306  0.0559
  466MOL0     C62827  10.608   6.182   2.494  0.2776  0.1238 -0.8866
  466MOL0     C62828  10.495   6.112   2.454 -0.5628  0.8306  0.1235
  466MOL0     C62829  10.134   5.841   2.397 -0.0156  0.1038 -0.4547
  466MOL0     C62830  10.083   5.926   2.304  0.8121 -0.6611 -0.3174
  466MOL0     C62831   9.991   5.889   2.210  0.0863 -0.7373  0.5018
  466MOL0     C62832   9.928   5.765   2.219  0.9580  0.2945  0.0837
  466MOL0     O62833   9.829   5.719   2.131  0.7849  0.0190  0.2719
  466MOL0     C62834   9.763   5.810   2.033 -0.0071  0.0873 -1.1072
  466MOL0     C62835   9.677   5.731   1.934 -0.0753 -0.1613 -0.6238
  466MOL0     C62836   9.552   5.802   1.875  0.9797  0.3022 -0.4480
  466MOL0     C62837   9.458   5.869   1.980  0.5106  0.0730 -0.7290
  466MOL0     C62838   9.315   5.893   1.932 -0.7471  0.3583 -1.0269
  466MOL0     C62839   9.206   5.932   1.895  0.1895 -0.0579  0.0333
  466MOL0     C62840   9.984   5.671   2.305 -0.3951 -0.5224 -0.2115
  466MOL0     C62841  10.081   5.706   2.400 -0.5775 -0.1010  0.8206
  466MOL0     C62842  10.122   5.600   2.499  0.1766 -0.0755  1.4768
  466MOL0     H62843  10.287   6.145   2.726  0.6382 -2.8236  0.6953
  466MOL0     H62844  10.500   6.246   2.809  1.5747 -0.7479 -0.1137
  466MOL0     H62845  10.796   6.266   2.873  0.8986 -1.7492  1.2953
  466MOL0     H62846  10.727   6.120   2.813  1.6064  0.1584  3.5420
  466MOL0     H62847  10.973   6.261   2.682 -2.2454  2.8568  1.6601
  466MOL0     H62848  10.907   6.098   2.641 -1.3901 -2.9093  3.3495
  466MOL0     H62849  10.949   6.051   2.889 -3.3273  1.5748 -0.8502
  466MOL0     H62850  11.037   6.199   2.899 -3.8361 -0.1813  1.6767
  466MOL0     H62851  11.194   6.112   2.704 -0.1681 -1.9894 -0.6956
  466MOL0     H62852  11.207   6.025   2.860  0.2989 -3.9242 -1.1626
  466MOL0     H62853  11.079   5.837   2.792 -2.4752  0.4050 -0.4685
  466MOL0     H62854  11.036   5.918   2.635  2.4384  3.0121 -1.3261
  466MOL0     H62855  11.244   5.932   2.553  0.9158 -0.4126  0.8116
  466MOL0     H62856  11.325   5.852   2.694  0.1250 -0.4737  0.6635
  466MOL0     H62857  11.205   5.648   2.644 -0.1341 -1.5552 -1.9402
  466MOL0     H62858  11.338   5.697   2.542 -0.1679  0.6242 -0.1812
  466MOL0     H62859  11.056   5.755   2.477 -0.4525 -1.1994 -1.1183
  466MOL0     H62860  11.200   5.778   2.369  2.8556  1.3432  1.9952
  466MOL0     H62861  11.147   5.593   2.184 -1.0910 -2.4095 -2.0581
  466MOL0     H62862  11.067   5.412   2.065 -1.7043  1.8781 -0.3639
  466MOL0     H62863  11.094   5.246   2.143 -0.2006 -0.0909  3.8241
  466MOL0     H62864  10.861   5.252   2.058  1.1079  1.5747 -1.8656
  466MOL0     H62865  10.865   5.241   2.225  3.8987 -0.3166  0.9897
  466MOL0     H62866  10.727   5.422   2.061 -1.0536  3.2803  1.0870
  466MOL0     H62867  10.860   5.524   2.095  0.4019 -0.4362  0.0616
  466MOL0     H62868  10.693   5.550   2.242  2.8326  1.6048 -0.1051
  466MOL0     H62869  10.817   5.464   2.347 -1.9800 -1.9174  2.1991
  466MOL0     H62870  10.477   5.166   2.360 -1.5039  0.6906  0.4669
  466MOL0     H62871  10.336   5.159   2.544 -0.0729 -1.3715 -0.4904
  466MOL0     H62872  10.375   5.081   2.930 -0.9836  0.0494 -1.2001
  466MOL0     H62873  10.307   5.005   3.146 -2.3123 -0.8518  0.5564
  466MOL0     H62874  10.036   5.231   3.350  2.2847  0.2149  1.8578
  466MOL0     H62875   9.895   5.125   3.346  0.2837 -0.5599 -5.6699
  466MOL0     H62876   9.981   5.126   3.578  0.2567  4.1332 -0.7360
  466MOL0     H62877  10.023   4.971   3.505  1.7367 -0.5225  1.5881
  466MOL0     H62878  10.253   5.042   3.479  1.1938 -1.4882  2.2297
  466MOL0     H62879  10.202   5.216   3.507  1.4571 -0.6328 -0.9790
  466MOL0     H62880  10.216   4.986   3.697  2.2573  0.5020  1.2626
  466MOL0     H62881  10.127   5.135   3.737  0.5636 -2.1307  0.8914
  466MOL0     H62882  10.337   5.261   3.699 -1.7022 -0.1376 -1.5634
  466MOL0     H62883  10.435   5.121   3.699  2.3058  3.6087  1.4624
  466MOL0     H62884  10.250   5.221   3.913 -0.3450 -0.8100  2.0149
  466MOL0     H62885  10.280   5.051   3.913  2.1780  0.2422  2.3661
  466MOL0     H62886  10.492   5.264   3.937 -2.0232 -0.1074  0.2255
  466MOL0     H62887  10.526   5.106   3.893  0.9562  1.8449 -1.4774
  466MOL0     H62888  10.553   5.134   4.113  0.6227  0.9741 -2.1298
  466MOL0     H62889  10.393   5.200   4.150  1.4659 -0.6443  1.4179
  466MOL0     H62890   9.942   5.228   3.104 -0.6840  0.1050 -1.7175
  466MOL0     H62891  10.005   5.294   2.899  0.9464 -1.8453 -1.8038
  466MOL0     H62892  10.503   5.529   2.683  0.4744  2.1818 -3.0172
  466MOL0     H62893  10.670   5.526   2.514 -1.9299  1.1647 -3.1707
  466MOL0     H62894  10.704   6.191   2.443  1.3672  0.7475  1.1861
  466MOL0     H62895  10.501   6.079   2.350 -3.2703 -0.9785  0.4503
  466MOL0     H62896  10.122   6.026   2.288  3.0200 -1.5392 -0.6987
  466MOL0     H62897   9.956   5.964   2.141  0.4363  2.2806  3.3528
  466MOL0     H62898   9.833   5.862   1.967  3.0073 -1.1260  0.8883
  466MOL0     H62899   9.712   5.895   2.080 -1.9846 -0.6522 -1.8323
  466MOL0     H62900   9.648   5.641   1.990  0.2800 -1.2061 -2.0649
  466MOL0     H62901   9.743   5.706   1.850  0.4580  3.4900 -1.4517
  466MOL0     H62902   9.493   5.729   1.819 -1.0484 -1.3584  3.4754
  466MOL0     H62903   9.584   5.875   1.799  0.8485 -1.4638 -2.2922
  466MOL0     H62904   9.455   5.813   2.074  1.7668  1.5313  0.2309
  466MOL0     H62905   9.501   5.964   2.012  2.3711 -1.6642  2.5207
  466MOL0     H62906   9.118   5.965   1.842  0.0791  2.8533  1.8330
  466MOL0     H62907   9.946   5.570   2.306 -2.0668  0.0404  2.3617
  466MOL0     H62908  10.062   5.511   2.477  1.8165 -0.3983 -2.4272
  466MOL0     H62909  10.227   5.578   2.477  0.6271  2.3900  0.9298
  466MOL0     H62910  10.093   5.636   2.598 -3.3390 -0.8818  0.8630
  467MOL0     O62911   9.312  11.058   2.191  0.4173  0.7947  0.4880
  467MOL0     C62912   9.241  10.959   2.190 -0.2459  0.4278 -0.3963
  467MOL0     O62913   9.107  10.956   2.240 -0.0999  0.1792 -0.7938
  467MOL0     C62914   9.094  11.012   2.369 -1.6952 -0.2719 -0.5419
  467MOL0     C62915   9.067  10.918   2.475 -0.1792 -0.0138  0.5804
  467MOL0     C62916   9.041  10.960   2.605 -0.0713 -0.6420  0.6292
  467MOL0     C62917   9.036  11.102   2.632  0.0026 -0.8039  0.3186
  467MOL0     O62918   9.007  11.143   2.762 -0.8505  0.2173  0.2277
  467MOL0     C62919   8.976  11.277   2.784  1.2812  0.1068  0.0045
  467MOL0     C62920   8.904  11.293   2.922  0.4814  0.2275 -0.5390
  467MOL0     C62921   8.841  11.429   2.942  0.0003  0.6156 -0.2221
  467MOL0     C62922   8.718  11.451   2.850 -0.4454 -0.1879 -0.1522
  467MOL0     C62923   8.637  11.580   2.889 -0.6820 -0.1206  0.2933
  467MOL0     C62924   8.495  11.596   2.829 -0.2662  0.3973 -0.0329
  467MOL0     C62925   8.430  11.731   2.860  0.2116 -0.0571  0.3550
  467MOL0     C62926   8.288  11.748   2.819 -0.2459 -0.2233  0.3122
  467MOL0     N62927   8.186  11.665   2.892 -0.8806 -0.6443 -0.0021
  467MOL0     C62928   8.192  11.622   3.021  0.2807  0.8685  0.5293
  467MOL0     C62929   8.087  11.532   3.023 -0.2743  0.5864 -0.6970
  467MOL0     C62930   8.052  11.427   3.131 -0.0730  0.9458  0.0317
  467MOL0     C62931   8.055  11.486   3.275  0.3241 -0.7550 -0.5194
  467MOL0     C62932   8.002  11.361   3.360 -0.1595 -0.2784  0.3006
  467MOL0     C62933   7.862  11.390   3.422  0.5916 -0.3014 -0.5322
  467MOL0     O62934   7.870  11.516   3.488 -0.2817  0.0855  0.4851
  467MOL0     C62935   7.918  11.527   3.618 -0.1095  1.2653  1.0635
  467MOL0     C62936   7.918  11.661   3.666  0.6180  1.4171 -0.2889
  467MOL0     C62937   7.964  11.679   3.798  0.3091 -0.9315  0.4940
  467MOL0     C62938   8.019  11.579   3.870 -0.0670  0.4971 -0.7331
  467MOL0     C62939   8.077  11.609   4.007  0.5184  0.5356 -0.5098
  467MOL0     O62940   8.175  11.517   4.060  0.8661  0.6639  0.3747
  467MOL0     C62941   8.269  11.568   4.151  0.0596  0.2407 -0.2774
  467MOL0     C62942   8.351  11.476   4.212  0.2414 -0.6623 -0.2190
  467MOL0     C62943   8.461  11.524   4.300  1.1660  1.1096  0.5788
  467MOL0     C62944   8.489  11.655   4.322  0.5556 -0.2962  0.7113
  467MOL0     O62945   8.587  11.692   4.408 -0.7181  0.5463 -0.7242
  467MOL0     C62946   8.640  11.823   4.422  0.0895 -0.6008  0.5190
  467MOL0     C62947   8.710  11.829   4.558 -0.5410 -1.3253  0.0023
  467MOL0     C62948   8.719  11.981   4.600 -0.0885  0.4514  0.3443
  467MOL0     C62949   8.794  12.014   4.732  0.1576 -0.3778  0.2080
  467MOL0     C62950   8.799  12.155   4.777  0.0044 -0.0233  0.3939
  467MOL0     C62951   8.861  12.174   4.918 -0.3858 -0.3218  0.0700
  467MOL0     C62952   8.794  12.094   5.028  0.8513  0.3753  0.8565
  467MOL0     C62953   8.838  12.110   5.171 -0.5663 -0.1082  0.2097
  467MOL0    Cl62954   8.819  12.267   5.247 -0.3445 -0.1414 -0.2899
  467MOL0     C62955   8.400  11.747   4.255 -0.1996  0.5384 -0.1989
  467MOL0     C62956   8.291  11.710   4.183  0.7375  0.5729 -0.4702
  467MOL0     O62957   8.021  11.696   4.071  0.2370 -0.2516 -0.0001
  467MOL0     C62958   8.031  11.452   3.820 -0.7456 -0.1269  0.1284
  467MOL0     C62959   7.978  11.423   3.693  0.0423 -0.8226 -0.1615
  467MOL0     N62960   8.018  11.533   2.909 -0.1387 -0.8727  1.2415
  467MOL0     N62961   8.071  11.622   2.831  0.1343  0.2926 -0.8935
  467MOL0     C62962   9.075  11.194   2.531  0.1172  1.0273 -0.3538
  467MOL0     C62963   9.100  11.149   2.403  1.1893  0.7092 -0.0681
  467MOL0     C62964   9.309  10.837   2.142 -0.4908 -0.5169  0.3489
  467MOL0     C62965   9.237  10.756   2.050  0.1090 -0.4106 -0.0848
  467MOL0     C62966   9.303  10.654   1.994 -0.2089  0.2462 -0.0172
  467MOL0     C62967   9.444  10.632   2.016  0.0127 -0.5470  0.6288
  467MOL0     O62968   9.517  10.526   1.966  0.1229  0.3067  0.5515
  467MOL0     C62969   9.436  10.423   1.899  0.4130  0.1898  0.7613
  467MOL0     C62970   9.540  10.324   1.851 -0.5564  1.0381  0.4175
  467MOL0     C62971   9.624  10.263   1.973 -0.1076 -0.6571  0.9361
  467MOL0     C62972   9.740  10.160   1.936  0.9249 -0.9273 -0.1233
  467MOL0     C62973   9.830  10.208   1.836 -0.4239 -1.0301 -0.0190
  467MOL0     C62974   9.914  10.238   1.754 -0.2842  0.6754  0.0331
  467MOL0     C62975   9.505  10.714   2.107  0.1612  0.2265  0.1116
  467MOL0     C62976   9.447  10.819   2.172  0.6230 -0.3284  1.2864
  467MOL0     C62977   9.532  10.900   2.269  0.4799  0.0571 -0.3129
  467MOL0     H62978   9.063  10.815   2.442 -0.1342  0.9657 -2.8942
  467MOL0     H62979   9.009  10.900   2.689 -0.4480  0.6937  1.4648
  467MOL0     H62980   9.068  11.336   2.789  0.3535  1.5725  0.5475
  467MOL0     H62981   8.901  11.307   2.711 -2.7084 -0.9274  3.2726
  467MOL0     H62982   8.972  11.273   3.005  2.7566 -0.1587 -2.3848
  467MOL0     H62983   8.822  11.221   2.913  0.0489  0.8392 -1.6035
  467MOL0     H62984   8.914  11.507   2.921  0.4507  0.3808  0.4321
  467MOL0     H62985   8.803  11.443   3.044 -1.4508  3.7397 -1.0701
  467MOL0     H62986   8.751  11.454   2.746 -0.2453  0.5092 -0.0702
  467MOL0     H62987   8.653  11.364   2.860 -1.5309  0.4754 -1.1468
  467MOL0     H62988   8.630  11.573   2.998 -0.5415 -2.7809  0.1857
  467MOL0     H62989   8.689  11.672   2.861 -1.9960  0.3075 -0.8712
  467MOL0     H62990   8.512  11.584   2.721 -0.1140  0.9658 -0.0729
  467MOL0     H62991   8.431  11.510   2.851 -1.0786  1.3795  1.5379
  467MOL0     H62992   8.491  11.800   2.802 -3.0770  0.9090 -2.2668
  467MOL0     H62993   8.443  11.755   2.966  0.7882  0.5900  0.1468
  467MOL0     H62994   8.256  11.852   2.816  0.9225  0.1285 -1.9013
  467MOL0     H62995   8.275  11.723   2.713  0.1116  1.1021 -0.0610
  467MOL0     H62996   8.257  11.637   3.106  0.5607 -1.0471  0.7030
  467MOL0     H62997   7.953  11.381   3.120  1.3412 -2.3674 -0.1080
  467MOL0     H62998   8.125  11.345   3.125 -0.1524  0.8979 -0.3406
  467MOL0     H62999   8.161  11.505   3.293  0.9816 -3.5516 -1.0194
  467MOL0     H63000   8.000  11.578   3.296 -1.5064 -2.1189  1.0151
  467MOL0     H63001   8.067  11.342   3.445  3.1994 -1.7617 -2.3863
  467MOL0     H63002   8.011  11.268   3.303  0.9011  0.3256 -0.5351
  467MOL0     H63003   7.819  11.308   3.480 -3.1217  0.2478 -2.1960
  467MOL0     H63004   7.786  11.403   3.344 -0.6355  0.2466  0.7131
  467MOL0     H63005   7.877  11.740   3.604 -1.0359  0.2259 -0.7712
  467MOL0     H63006   7.973  11.776   3.846  2.6681 -0.7621 -0.1378
  467MOL0     H63007   8.347  11.372   4.180  1.9520 -1.5716  2.1552
  467MOL0     H63008   8.522  11.441   4.333  1.1149  0.1355 -1.5800
  467MOL0     H63009   8.699  11.852   4.334 -4.0064 -0.8238 -2.6526
  467MOL0     H63010   8.564  11.902   4.421  0.4163 -0.2774  0.9224
  467MOL0     H63011   8.663  11.777   4.642  2.8912 -0.9730  2.3910
  467MOL0     H63012   8.809  11.782   4.551 -1.0654 -3.2201  3.0298
  467MOL0     H63013   8.773  12.039   4.525  0.2624 -0.7334 -0.3414
  467MOL0     H63014   8.618  12.023   4.603 -0.3073  0.3706 -2.9363
  467MOL0     H63015   8.901  11.994   4.726  1.1922  3.6099  2.1695
  467MOL0     H63016   8.736  11.949   4.797 -0.8992  1.4099  1.1182
  467MOL0     H63017   8.696  12.192   4.782 -1.2906 -3.3727  1.8445
  467MOL0     H63018   8.848  12.218   4.703 -0.5236 -0.0441  0.0226
  467MOL0     H63019   8.968  12.154   4.915 -0.1978  0.6819 -2.8170
  467MOL0     H63020   8.854  12.275   4.959  1.8624 -1.6095  4.1996
  467MOL0     H63021   8.817  11.993   4.994  2.2096  0.8452  0.3116
  467MOL0     H63022   8.685  12.100   5.028  0.7063 -1.0411  3.3244
  467MOL0     H63023   8.786  12.036   5.232 -1.1693  0.9176  0.9813
  467MOL0     H63024   8.945  12.089   5.167 -0.9152 -1.8829 -0.4961
  467MOL0     H63025   8.422  11.853   4.264 -2.1698  0.9384  0.5188
  467MOL0     H63026   8.241  11.795   4.138 -0.2492  1.1640  1.6216
  467MOL0     H63027   8.080  11.375   3.879  1.4542 -0.0083 -1.4353
  467MOL0     H63028   7.994  11.322   3.657  3.3079 -1.5805  2.8701
  467MOL0     H63029   9.069  11.299   2.559  1.9829  1.4961 -1.5343
  467MOL0     H63030   9.111  11.219   2.321 -0.7058  1.1203 -0.0147
  467MOL0     H63031   9.132  10.765   2.022  0.4542 -1.3742 -1.8320
  467MOL0     H63032   9.253  10.576   1.937  1.4914 -1.1833  0.3671
  467MOL0     H63033   9.392  10.473   1.812  0.8605  1.5612  1.2908
  467MOL0     H63034   9.366  10.372   1.965 -0.8638  2.1428  0.9936
  467MOL0     H63035   9.612  10.381   1.791  2.2306 -3.2400 -0.6858
  467MOL0     H63036   9.500  10.250   1.782  0.0222  1.9739 -0.9631
  467MOL0     H63037   9.568  10.227   2.060  0.6085  0.8478  2.0664
  467MOL0     H63038   9.673  10.350   2.017 -0.5120 -0.8657  1.8277
  467MOL0     H63039   9.790  10.144   2.032 -1.8913 -2.5940  1.1931
  467MOL0     H63040   9.705  10.063   1.899 -0.8867 -0.0639 -0.8256
  467MOL0     H63041   9.971  10.260   1.665 -2.2214 -0.9388 -1.6979
  467MOL0     H63042   9.607  10.705   2.141 -0.5069  1.2770  2.7366
  467MOL0     H63043   9.572  10.994   2.229  1.9032 -0.1300  0.6119
  467MOL0     H63044   9.470  10.912   2.358 -2.6851 -1.0293 -2.2089
  467MOL0     H63045   9.615  10.841   2.309  1.8645  1.6409 -0.6879
  468MOL0     O63046   7.825   7.126   9.961 -0.3915 -0.4510 -0.3343
  468MOL0     C63047   7.753   7.136  10.061  0.2979  0.3418  0.2805
  468MOL0     O63048   7.782   7.211  10.171 -0.0894  0.1870 -0.4369
  468MOL0     C63049   7.884   7.299  10.156  0.1160  0.2632 -0.4329
  468MOL0     C63050   7.876   7.434  10.111  0.4315  0.2819 -0.1385
  468MOL0     C63051   7.985   7.517  10.103  0.1870  0.2661  0.3584
  468MOL0     C63052   8.112   7.474  10.143  0.1369  0.6598  0.0337
  468MOL0     O63053   8.221   7.556  10.120  0.2460 -0.5591  0.3736
  468MOL0     C63054   8.341   7.519  10.180  0.3469  0.7420  0.3532
  468MOL0     C63055   8.415   7.635  10.242 -0.1533 -0.7395  0.7317
  468MOL0     C63056   8.473   7.738  10.131 -0.0141 -0.4339  0.2091
  468MOL0     C63057   8.576   7.839  10.195  0.2042 -0.8842 -0.8135
  468MOL0     C63058   8.653   7.899  10.072 -0.5386  0.2494 -0.5013
  468MOL0     C63059   8.782   7.980  10.108  0.0965 -0.2337  0.2743
  468MOL0     C63060   8.852   8.026   9.986 -0.3500  0.3907  0.3535
  468MOL0     C63061   8.984   8.088  10.003 -0.4525  1.6661  0.0751
  468MOL0     N63062   8.985   8.223  10.067  1.1513 -0.0251  0.5208
  468MOL0     C63063   8.946   8.344  10.013 -0.4278  0.2380 -0.0438
  468MOL0     C63064   8.949   8.426  10.117 -0.3000  0.4799  0.4174
  468MOL0     C63065   8.907   8.571  10.131  0.1712 -0.0308  0.5928
  468MOL0     C63066   8.948   8.632  10.270 -0.5911  0.5533 -0.6645
  468MOL0     C63067   8.979   8.779  10.242  0.1656  0.0559  0.5256
  468MOL0     C63068   8.872   8.874  10.197  0.7989  0.1787 -0.1327
  468MOL0     O63069   8.763   8.878  10.286  0.0798  0.0415  0.2510
  468MOL0     C63070   8.788   8.947  10.405  0.3481 -0.1173 -0.6459
  468MOL0     C63071   8.782   8.856  10.520 -0.4851 -0.4272 -0.4743
  468MOL0     C63072   8.804   8.923  10.645  0.5106 -0.5925  0.0908
  468MOL0     C63073   8.812   9.061  10.663  0.7047 -0.3315 -0.5882
  468MOL0     C63074   8.837   9.127  10.801 -0.3554 -0.1859 -0.5399
  468MOL0     O63075   8.780   9.258  10.814  0.3280  0.1476  1.0836
  468MOL0     C63076   8.811   9.333  10.929 -0.6052 -0.8917  1.0354
  468MOL0     C63077   8.696   9.391  10.985 -0.3299  0.3138  0.7110
  468MOL0     C63078   8.705   9.459  11.101 -1.2819 -0.5515  0.4517
  468MOL0     C63079   8.830   9.495  11.165  0.7003 -0.1236 -1.6724
  468MOL0     O63080   8.823   9.569  11.281 -0.1458 -0.2846 -0.1815
  468MOL0     C63081   8.934   9.543  11.376  0.1806 -0.4388  0.2042
  468MOL0     C63082   8.899   9.598  11.518 -0.3782 -0.5445  0.3920
  468MOL0     C63083   8.967   9.528  11.638 -0.4664  0.4645 -0.0656
  468MOL0     C63084   9.122   9.515  11.623  0.1430  0.1234  0.9063
  468MOL0     C63085   9.191   9.658  11.598  1.0870 -0.0962 -0.6887
  468MOL0     C63086   9.198   9.742  11.730 -0.1438  0.6001  0.2454
  468MOL0     C63087   9.270   9.873  11.682 -0.3361  0.6311 -0.2588
  468MOL0     C63088   9.275   9.975  11.793 -0.7658 -0.3526  0.3785
  468MOL0    Cl63089   9.400   9.955  11.910  0.3005 -0.0143 -0.2909
  468MOL0     C63090   8.944   9.436  11.112 -0.0944 -0.6057 -0.6644
  468MOL0     C63091   8.931   9.368  10.989  0.2512 -0.1701  0.1379
  468MOL0     O63092   8.913   9.074  10.881 -0.3970 -0.1699 -0.9849
  468MOL0     C63093   8.802   9.147  10.549 -0.7382  0.5146  0.1875
  468MOL0     C63094   8.802   9.086  10.423 -0.2355  0.8810  0.8031
  468MOL0     N63095   8.992   8.351  10.232 -0.1304  0.0471  0.2273
  468MOL0     N63096   9.007   8.230  10.198 -0.0019 -0.7346  0.1593
  468MOL0     C63097   8.121   7.342  10.186 -0.2064 -0.1704  0.9240
  468MOL0     C63098   8.011   7.263  10.198 -0.6390  0.3779 -0.3730
  468MOL0     C63099   7.615   7.092  10.057  0.4477  0.9357 -0.6005
  468MOL0     C63100   7.544   7.069  10.182  0.4660 -0.0411  0.3798
  468MOL0     C63101   7.422   7.001  10.191 -0.7753  0.4426  0.7640
  468MOL0     C63102   7.351   6.974  10.077 -0.5267 -0.5626  0.0072
  468MOL0     O63103   7.214   6.947  10.076 -0.5569 -0.7897 -0.1665
  468MOL0     C63104   7.163   6.913  10.202  0.9322 -0.3516 -0.2612
  468MOL0     C63105   7.010   6.901  10.207 -0.5821  0.7782 -0.4955
  468MOL0     C63106   6.934   6.849  10.081  0.1398  0.3996  0.5113
  468MOL0     C63107   6.791   6.801  10.108 -0.7106  0.1326  0.3749
  468MOL0     C63108   6.788   6.704  10.225 -0.2859  0.1509  0.5918
  468MOL0     C63109   6.772   6.605  10.299  0.3786  0.3222  0.0167
  468MOL0     C63110   7.411   7.001   9.950  1.4121  0.0423 -0.0133
  468MOL0     C63111   7.545   7.050   9.942 -0.1480 -0.9105 -0.9258
  468MOL0     C63112   7.597   7.053   9.805  0.4184 -0.8379  0.4828
  468MOL0     H63113   7.779   7.472  10.080 -1.2074 -1.8762  1.9869
  468MOL0     H63114   7.967   7.615  10.061  1.7075 -0.4438 -2.1844
  468MOL0     H63115   8.323   7.454  10.266  0.6701  0.6162  0.3270
  468MOL0     H63116   8.408   7.459  10.118  0.1919 -0.6301  1.4746
  468MOL0     H63117   8.503   7.606  10.300 -0.6436  1.8081  2.9717
  468MOL0     H63118   8.343   7.689  10.305  0.9408  0.7237  0.7932
  468MOL0     H63119   8.386   7.785  10.084  1.0723  1.1554 -0.2808
  468MOL0     H63120   8.539   7.681  10.065  3.2177 -0.5649  3.2104
  468MOL0     H63121   8.531   7.924  10.246  3.5527 -0.3158  1.4586
  468MOL0     H63122   8.641   7.791  10.269 -0.0783 -0.4645 -0.2915
  468MOL0     H63123   8.679   7.819  10.002 -1.2825 -0.4602  0.0248
  468MOL0     H63124   8.588   7.965  10.014 -0.2461  0.9387 -0.0512
  468MOL0     H63125   8.747   8.073  10.153  0.3642  1.1230 -2.1285
  468MOL0     H63126   8.837   7.921  10.182 -3.3193 -0.0720  3.1903
  468MOL0     H63127   8.795   8.109   9.943 -0.3406  0.3799  0.3226
  468MOL0     H63128   8.860   7.949   9.909  1.2428  3.3410 -2.7183
  468MOL0     H63129   9.046   8.018  10.058  2.8302  3.3437 -1.2192
  468MOL0     H63130   9.028   8.107   9.905 -2.7925  0.0317 -1.4120
  468MOL0     H63131   8.901   8.354   9.915 -1.3073 -1.0086  0.2215
  468MOL0     H63132   8.953   8.626  10.048  3.5979 -1.6918  1.2065
  468MOL0     H63133   8.800   8.577  10.111  0.7940  1.5331 -2.9663
  468MOL0     H63134   8.880   8.618  10.355  1.4021 -1.3398  0.7103
  468MOL0     H63135   9.045   8.584  10.281 -0.7382 -0.7322 -3.8388
  468MOL0     H63136   9.062   8.787  10.172 -0.9026 -0.9186 -0.9052
  468MOL0     H63137   9.014   8.812  10.341 -1.2269 -1.5043  1.5999
  468MOL0     H63138   8.821   8.845  10.105 -1.5350  0.7409  0.9136
  468MOL0     H63139   8.914   8.973  10.178 -1.7840  1.4980  0.6227
  468MOL0     H63140   8.784   8.749  10.502  1.1578 -0.0667 -2.9590
  468MOL0     H63141   8.834   8.870  10.735  2.3476  1.0041  0.4888
  468MOL0     H63142   8.595   9.378  10.948  0.8550 -3.1797 -1.7479
  468MOL0     H63143   8.620   9.503  11.153 -0.4296  0.2506  1.1983
  468MOL0     H63144   8.921   9.436  11.395 -2.6182 -0.2733 -0.4332
  468MOL0     H63145   9.033   9.578  11.345 -0.5261  1.1017 -0.4248
  468MOL0     H63146   8.912   9.706  11.518 -0.7604 -0.4977  0.5108
  468MOL0     H63147   8.794   9.575  11.538 -0.1536 -0.9362  1.1433
  468MOL0     H63148   8.929   9.572  11.730 -0.4014 -3.0391  1.7921
  468MOL0     H63149   8.916   9.431  11.636  0.1108  0.0304  2.5711
  468MOL0     H63150   9.140   9.439  11.546  0.9071 -1.0246  2.1650
  468MOL0     H63151   9.170   9.466  11.708 -0.1397  0.8394  1.4957
  468MOL0     H63152   9.140   9.719  11.523 -0.3798 -0.1986  0.1930
  468MOL0     H63153   9.289   9.639  11.553  1.9732  0.8681  0.7674
  468MOL0     H63154   9.095   9.765  11.760 -1.2121 -4.7232  1.7390
  468MOL0     H63155   9.243   9.692  11.816  3.9136  2.6112 -0.4855
  468MOL0     H63156   9.214   9.905  11.594 -2.6226 -0.0208  0.8646
  468MOL0     H63157   9.368   9.853  11.638 -1.5822  2.0322 -4.0840
  468MOL0     H63158   9.303  10.066  11.740  1.8672 -0.7326  1.0045
  468MOL0     H63159   9.180   9.975  11.848  0.3467  0.3803  2.3994
  468MOL0     H63160   9.041   9.448  11.159  0.2687 -0.4546 -1.4460
  468MOL0     H63161   9.019   9.314  10.954  1.3840 -0.4264  3.0414
  468MOL0     H63162   8.787   9.254  10.551  2.8070  1.1286  1.9815
  468MOL0     H63163   8.805   9.147  10.332  1.3494  1.0580  0.9468
  468MOL0     H63164   8.218   7.305  10.218  0.4582  0.6172 -0.1199
  468MOL0     H63165   8.008   7.165  10.245 -2.7643  0.6877  0.2334
  468MOL0     H63166   7.575   7.118  10.274 -3.1898  0.2729  1.6267
  468MOL0     H63167   7.378   6.983  10.289 -1.2004 -2.0807  0.1927
  468MOL0     H63168   7.194   6.979  10.283  2.0986 -2.4205  1.0885
  468MOL0     H63169   7.192   6.814  10.239 -3.5805 -0.7976  2.9070
  468MOL0     H63170   6.970   6.999  10.233  2.0106  2.8346 -3.4423
  468MOL0     H63171   6.994   6.843  10.299  0.1345 -0.3968 -1.0764
  468MOL0     H63172   6.988   6.758  10.053 -0.8667 -0.3717  1.0094
  468MOL0     H63173   6.940   6.914   9.993  0.3071 -2.6188 -1.8699
  468MOL0     H63174   6.728   6.885  10.139  0.1338  0.4678  1.2083
  468MOL0     H63175   6.753   6.753  10.018  0.1489 -1.5416  0.8619
  468MOL0     H63176   6.767   6.514  10.354 -1.4295 -0.6965 -1.7244
  468MOL0     H63177   7.356   6.973   9.861  0.9005  3.2852 -0.8362
  468MOL0     H63178   7.676   7.127   9.790 -1.8964  1.6010 -0.5672
  468MOL0     H63179   7.646   6.963   9.768  0.7571 -0.1821 -0.7264
  468MOL0     H63180   7.513   7.079   9.739 -0.7774 -0.9486  1.9187
  469MOL0     O63181   0.794   4.938   2.388  0.8464  0.5904  0.3628
  469MOL0     C63182   0.707   4.976   2.307 -1.0084  0.0074  0.8222
  469MOL0     O63183   0.655   4.907   2.202 -0.4655 -0.0397 -0.6977
  469MOL0     C63184   0.695   4.787   2.160  1.4526  0.1628 -0.1701
  469MOL0     C63185   0.743   4.675   2.234  0.3816 -0.0394 -0.1575
  469MOL0     C63186   0.765   4.551   2.169 -0.0393 -0.2895 -0.0102
  469MOL0     C63187   0.756   4.537   2.031  0.3911  0.2674  0.2978
  469MOL0     O63188   0.774   4.413   1.972 -0.2084  0.1154  0.8890
  469MOL0     C63189   0.687   4.381   1.855 -0.4362 -0.3322 -0.8845
  469MOL0     C63190   0.537   4.384   1.887 -0.1902  0.6472 -0.4990
  469MOL0     C63191   0.483   4.268   1.959  0.5215 -0.5625 -0.2626
  469MOL0     C63192   0.542   4.129   1.929 -0.6854 -0.0814  0.6388
  469MOL0     C63193   0.467   4.003   1.984  0.7896 -0.4146 -0.1435
  469MOL0     C63194   0.325   3.999   1.936 -0.1421 -0.0117  0.0590
  469MOL0     C63195   0.258   3.863   1.972  0.4903 -0.1558 -0.1428
  469MOL0     C63196   0.105   3.863   1.950  0.6051 -1.1283 -1.3330
  469MOL0     N63197   0.050   3.935   2.062  0.3081 -1.0249  0.3949
  469MOL0     C63198   0.016   3.876   2.185  0.4145 -0.7499  0.6934
  469MOL0     C63199  -0.042   3.978   2.253 -0.3714  0.1012 -0.2582
  469MOL0     C63200  -0.093   3.968   2.398 -0.5440 -0.0062 -1.0059
  469MOL0     C63201   0.021   3.909   2.488  0.0973  0.1353  0.5421
  469MOL0     C63202   0.152   3.995   2.494  0.2528  0.8098 -0.5996
  469MOL0     C63203   0.141   4.131   2.561 -0.3455 -0.3217  0.6473
  469MOL0     O63204   0.068   4.139   2.682  0.1509  0.2808  0.8239
  469MOL0     C63205   0.071   4.251   2.754 -0.4324  1.2661  0.1620
  469MOL0     C63206  -0.021   4.265   2.858  1.0159  0.4828  0.0131
  469MOL0     C63207  -0.008   4.373   2.957 -0.0046  0.6799 -0.3627
  469MOL0     C63208   0.103   4.458   2.955  0.1154 -0.5910  0.3162
  469MOL0     C63209   0.132   4.564   3.060  0.5445  0.4918 -0.3712
  469MOL0     O63210   0.229   4.648   3.032  0.0496  0.9843 -0.6399
  469MOL0     C63211   0.250   4.764   3.107  0.4352 -0.6235 -0.7106
  469MOL0     C63212   0.346   4.773   3.203  0.9288 -0.4664 -1.0392
  469MOL0     C63213   0.343   4.885   3.281  0.0314 -0.4872  0.6998
  469MOL0     C63214   0.257   5.000   3.261  1.1436 -0.1458  0.6647
  469MOL0     O63215   0.275   5.109   3.341  0.3652  0.7397  0.4922
  469MOL0     C63216   0.173   5.212   3.348  0.2901  0.1188 -0.2201
  469MOL0     C63217   0.223   5.337   3.427  0.9758 -0.7000  1.1832
  469MOL0     C63218   0.126   5.461   3.433 -0.0768 -0.0761 -0.8489
  469MOL0     C63219   0.083   5.489   3.583 -0.2233  0.2372 -0.2276
  469MOL0     C63220   0.021   5.628   3.598  0.1146  0.1284 -0.9982
  469MOL0     C63221  -0.037   5.641   3.738  0.1445 -0.9110  0.7407
  469MOL0     C63222  -0.085   5.783   3.763  0.0785 -0.5411 -0.7047
  469MOL0     C63223  -0.089   5.817   3.918 -0.8954 -0.2931 -0.6748
  469MOL0    Cl63224  -0.087   6.000   3.930 -0.5224 -0.2957  0.0875
  469MOL0     C63225   0.178   5.001   3.149  0.6061 -0.5135  0.6353
  469MOL0     C63226   0.167   4.876   3.080 -0.3210 -0.0592 -0.1716
  469MOL0     O63227   0.049   4.577   3.150 -0.0402 -0.1328 -0.6595
  469MOL0     C63228   0.186   4.447   2.846 -0.6302  0.0306 -0.1728
  469MOL0     C63229   0.167   4.345   2.750 -0.9750 -0.3392  0.0618
  469MOL0     N63230  -0.057   4.090   2.174  0.1939  0.2958  0.8186
  469MOL0     N63231  -0.009   4.058   2.053  1.3850 -0.3140 -0.0391
  469MOL0     C63232   0.714   4.649   1.959  0.2666  0.6705  0.2384
  469MOL0     C63233   0.677   4.763   2.021 -0.0961 -1.3629 -0.3238
  469MOL0     C63234   0.618   5.094   2.334 -0.0204  0.1988  0.0334
  469MOL0     C63235   0.472   5.089   2.312 -0.6846 -0.6534 -0.0717
  469MOL0     C63236   0.400   5.205   2.347 -0.0184  0.4226 -0.8473
  469MOL0     C63237   0.455   5.328   2.375  1.0101  0.0410  0.0442
  469MOL0     O63238   0.370   5.444   2.387 -0.2939  0.6661 -0.1344
  469MOL0     C63239   0.408   5.571   2.439  0.0868 -0.0303 -0.2186
  469MOL0     C63240   0.416   5.669   2.319  0.0292  0.0781 -1.1388
  469MOL0     C63241   0.476   5.798   2.365  0.6634 -0.5039 -0.4267
  469MOL0     C63242   0.556   5.881   2.256 -0.0334  0.9604  0.4865
  469MOL0     C63243   0.673   5.813   2.202  1.4508  0.9561  1.4103
  469MOL0     C63244   0.773   5.763   2.154  0.0767 -0.1667 -0.0669
  469MOL0     C63245   0.592   5.334   2.369  0.6639  0.1594  0.3823
  469MOL0     C63246   0.677   5.217   2.360  0.5851  0.3915  0.4870
  469MOL0     C63247   0.820   5.227   2.387 -0.3149 -0.5929  0.3089
  469MOL0     H63248   0.756   4.694   2.340  1.7095  2.9204 -0.7421
  469MOL0     H63249   0.774   4.463   2.231 -1.3492 -1.2115 -1.0601
  469MOL0     H63250   0.705   4.452   1.774 -0.3036  0.2548 -0.3547
  469MOL0     H63251   0.716   4.285   1.812 -1.3110 -0.5068 -1.1007
  469MOL0     H63252   0.490   4.398   1.789 -2.5829 -0.9105  0.3583
  469MOL0     H63253   0.495   4.468   1.942 -0.5123 -1.0129  1.9596
  469MOL0     H63254   0.376   4.247   1.945 -0.2403  1.4457  1.9089
  469MOL0     H63255   0.502   4.292   2.064  2.4279  0.8485 -0.8678
  469MOL0     H63256   0.535   4.118   1.821  1.5880  0.4107  0.3788
  469MOL0     H63257   0.647   4.143   1.957 -0.2961  1.5445 -1.3902
  469MOL0     H63258   0.520   3.913   1.951  1.7559 -0.8725  2.4087
  469MOL0     H63259   0.456   4.018   2.091 -3.5358  1.5102 -0.6506
  469MOL0     H63260   0.261   4.078   1.978 -2.2098 -0.2791 -2.3272
  469MOL0     H63261   0.330   4.009   1.827 -0.2200  2.0132  0.2052
  469MOL0     H63262   0.287   3.835   2.074  2.9599 -3.3936 -1.5734
  469MOL0     H63263   0.314   3.787   1.916  0.5234 -0.8559  0.8124
  469MOL0     H63264   0.078   3.908   1.854  0.5662  4.2120  0.8205
  469MOL0     H63265   0.065   3.762   1.962 -0.4010 -0.5564  0.6444
  469MOL0     H63266   0.022   3.777   2.229 -1.1829 -1.5714 -0.8444
  469MOL0     H63267  -0.120   4.069   2.431  1.2692  0.4741 -0.9188
  469MOL0     H63268  -0.180   3.901   2.400 -0.0760 -0.7475 -2.9538
  469MOL0     H63269  -0.022   3.880   2.584 -3.5679 -1.5102 -1.3782
  469MOL0     H63270   0.061   3.816   2.446  0.2380  1.5342 -2.6853
  469MOL0     H63271   0.180   4.026   2.393  0.3329 -0.2466 -0.9134
  469MOL0     H63272   0.227   3.928   2.538  0.1653  2.1840  1.7925
  469MOL0     H63273   0.085   4.193   2.490 -0.5416 -1.9890 -0.7429
  469MOL0     H63274   0.242   4.174   2.564 -0.7653  0.7870 -0.1971
  469MOL0     H63275  -0.111   4.205   2.855  0.4145  1.3709 -0.1276
  469MOL0     H63276  -0.073   4.375   3.043  0.4738  0.8197  0.0010
  469MOL0     H63277   0.410   4.691   3.235  1.3629  1.0982  2.5548
  469MOL0     H63278   0.402   4.891   3.372 -0.2176 -3.0419  1.1143
  469MOL0     H63279   0.155   5.263   3.253  2.0303 -1.1546 -1.3026
  469MOL0     H63280   0.090   5.163   3.400  3.1815 -2.6531  2.1995
  469MOL0     H63281   0.243   5.293   3.525 -0.1481 -1.9376  0.8913
  469MOL0     H63282   0.323   5.358   3.388  0.1619 -1.4944 -1.5392
  469MOL0     H63283   0.188   5.543   3.396  0.8753  0.5356  1.8804
  469MOL0     H63284   0.031   5.451   3.379  0.8504 -0.5144 -2.4439
  469MOL0     H63285   0.174   5.484   3.643 -0.1168  1.3032 -0.2739
  469MOL0     H63286   0.014   5.411   3.617  1.8299 -1.3799  0.3716
  469MOL0     H63287  -0.062   5.646   3.529 -0.8823  2.3707  0.6379
  469MOL0     H63288   0.093   5.709   3.584  0.5397 -0.1753 -0.5886
  469MOL0     H63289  -0.122   5.573   3.754  0.9738 -1.6891  2.0546
  469MOL0     H63290   0.040   5.617   3.810  1.5060  1.9535  0.3655
  469MOL0     H63291  -0.184   5.795   3.720 -0.1062 -2.2088 -0.8293
  469MOL0     H63292  -0.015   5.858   3.726 -0.3734  0.3247  0.1473
  469MOL0     H63293  -0.191   5.778   3.932 -2.0315  2.2376 -1.3340
  469MOL0     H63294  -0.011   5.773   3.981 -2.6552 -0.0861  1.8181
  469MOL0     H63295   0.110   5.083   3.127  1.7249  1.3139  3.3684
  469MOL0     H63296   0.086   4.871   3.008  2.5387  0.1956 -3.7430
  469MOL0     H63297   0.271   4.512   2.832  0.6538 -1.7375 -1.0831
  469MOL0     H63298   0.232   4.344   2.663  2.8335  4.8905  2.2960
  469MOL0     H63299   0.718   4.644   1.851 -1.0534 -1.2748  0.2237
  469MOL0     H63300   0.637   4.844   1.960  2.8560  0.0516 -0.5536
  469MOL0     H63301   0.427   4.995   2.280 -1.2865  0.6425 -3.4644
  469MOL0     H63302   0.294   5.182   2.349  0.5970 -3.2267  2.3224
  469MOL0     H63303   0.507   5.560   2.486  0.2260 -0.8113 -0.6964
  469MOL0     H63304   0.345   5.632   2.506  0.2858  1.9508 -1.7388
  469MOL0     H63305   0.311   5.689   2.292  0.3086  2.6475 -0.6327
  469MOL0     H63306   0.483   5.640   2.238  2.0815  1.4225  0.0128
  469MOL0     H63307   0.537   5.800   2.456  1.0489  3.0125 -0.6354
  469MOL0     H63308   0.394   5.861   2.400 -0.5193 -1.2698 -1.7417
  469MOL0     H63309   0.485   5.906   2.177  0.4736 -1.2004 -0.7141
  469MOL0     H63310   0.593   5.974   2.302 -1.9696  0.6823  2.8278
  469MOL0     H63311   0.865   5.727   2.114  2.2579  1.6009  2.8794
  469MOL0     H63312   0.637   5.432   2.380 -0.7481  0.8431  0.3391
  469MOL0     H63313   0.856   5.330   2.376 -1.2809 -0.1497  1.1612
  469MOL0     H63314   0.843   5.196   2.489 -0.4746  0.5526  0.7157
  469MOL0     H63315   0.878   5.173   2.312  1.2510  2.2826 -0.7130
  470MOL0     O63316   1.095   6.884   9.241 -0.6817 -0.4384 -0.0514
  470MOL0     C63317   1.114   6.998   9.285  0.3761  0.9916  0.3990
  470MOL0     O63318   1.024   7.100   9.293 -0.0725  0.4030 -0.6900
  470MOL0     C63319   0.904   7.080   9.245  0.3227  0.0502 -0.1484
  470MOL0     C63320   0.859   7.066   9.113 -0.4465  0.4970  0.2308
  470MOL0     C63321   0.728   7.071   9.068  0.1544 -0.1786 -0.0131
  470MOL0     C63322   0.622   7.064   9.166  0.1452 -0.3233  0.4533
  470MOL0     O63323   0.488   7.036   9.150 -0.7870 -0.1696 -0.8422
  470MOL0     C63324   0.431   7.007   9.025 -0.2549  0.3995  0.1581
  470MOL0     C63325   0.388   7.134   8.948 -0.2298  0.3607 -0.4761
  470MOL0     C63326   0.320   7.111   8.813 -0.8818  1.2368 -0.1015
  470MOL0     C63327   0.249   7.240   8.753  0.1070 -1.4782 -0.8442
  470MOL0     C63328   0.228   7.236   8.599  0.3826 -0.8575 -0.2077
  470MOL0     C63329   0.312   7.353   8.546 -0.1540  0.4155 -0.3360
  470MOL0     C63330   0.340   7.343   8.391  0.1753  0.0043  0.0868
  470MOL0     C63331   0.430   7.227   8.345 -0.0932  0.5582  0.3718
  470MOL0     N63332   0.564   7.211   8.409  0.2736  0.3002 -0.4129
  470MOL0     C63333   0.599   7.123   8.511  0.4224  0.3518  0.0763
  470MOL0     C63334   0.726   7.146   8.537 -0.6163 -0.4617  1.3532
  470MOL0     C63335   0.811   7.103   8.647 -0.1961  0.4631  0.1259
  470MOL0     C63336   0.803   7.198   8.756 -0.1815 -0.9912  0.0357
  470MOL0     C63337   0.856   7.342   8.724  0.2060 -0.2878 -1.0113
  470MOL0     C63338   1.014   7.349   8.708 -0.0776  0.3810 -0.5690
  470MOL0     O63339   1.051   7.287   8.835 -0.5777 -0.3365  0.3794
  470MOL0     C63340   1.192   7.276   8.854 -0.5319  0.0315 -0.0948
  470MOL0     C63341   1.296   7.308   8.761 -0.3389  0.4552 -1.2826
  470MOL0     C63342   1.430   7.315   8.786  0.2814 -1.1493 -0.2387
  470MOL0     C63343   1.467   7.297   8.918  0.1365  0.2487  0.2258
  470MOL0     C63344   1.616   7.311   8.950  0.4232 -1.0638  0.0549
  470MOL0     O63345   1.690   7.371   8.864  0.2151  0.1198 -0.4169
  470MOL0     C63346   1.811   7.435   8.890 -0.0114 -0.5669  1.0164
  470MOL0     C63347   1.858   7.486   9.010  0.0230 -0.0357  0.0766
  470MOL0     C63348   1.987   7.522   9.009 -1.0778 -0.0269 -1.2466
  470MOL0     C63349   2.066   7.540   8.892  0.2291 -1.3290 -0.4023
  470MOL0     O63350   2.194   7.570   8.876 -0.0393  0.4749  0.0275
  470MOL0     C63351   2.274   7.601   8.987  0.7937  0.3635 -0.9211
  470MOL0     C63352   2.415   7.614   8.933 -0.1950 -0.4071 -0.6123
  470MOL0     C63353   2.474   7.497   8.851 -0.0652  0.4442 -0.5202
  470MOL0     C63354   2.417   7.500   8.703  0.1907 -0.1262 -0.7484
  470MOL0     C63355   2.396   7.355   8.638 -0.3941  0.3623  0.0082
  470MOL0     C63356   2.513   7.258   8.644  0.7363 -0.5976  0.3345
  470MOL0     C63357   2.487   7.122   8.590  0.8009 -0.7568 -0.0613
  470MOL0     C63358   2.614   7.054   8.557 -0.8845 -0.4319  0.0405
  470MOL0    Cl63359   2.706   7.039   8.706  0.2902 -0.7506 -0.4786
  470MOL0     C63360   2.014   7.504   8.769  0.4068 -0.7874  0.0083
  470MOL0     C63361   1.886   7.451   8.771  0.3230  0.3251  0.5340
  470MOL0     O63362   1.648   7.268   9.054 -0.4368  0.2427 -0.0767
  470MOL0     C63363   1.379   7.260   9.011  0.5658  0.0206 -0.1308
  470MOL0     C63364   1.246   7.240   8.985 -0.1653 -0.8714  0.4706
  470MOL0     N63365   0.769   7.219   8.426 -0.4308 -0.1537 -0.2577
  470MOL0     N63366   0.674   7.256   8.352 -0.4926 -0.1940  0.4033
  470MOL0     C63367   0.667   7.060   9.304 -0.0050 -0.0596  0.2612
  470MOL0     C63368   0.804   7.057   9.344  0.4021  0.4902 -0.2991
  470MOL0     C63369   1.254   7.029   9.329  0.5792  0.3236  0.4820
  470MOL0     C63370   1.283   7.163   9.367 -0.7718 -0.5151  0.6737
  470MOL0     C63371   1.413   7.204   9.401  0.0153  0.4241 -0.0425
  470MOL0     C63372   1.522   7.117   9.397  0.3923 -1.2172 -0.3516
  470MOL0     O63373   1.639   7.169   9.448 -0.2073  0.1379  0.5134
  470MOL0     C63374   1.765   7.153   9.368  0.5968 -1.1089 -1.8271
  470MOL0     C63375   1.902   7.204   9.434  0.2243 -0.6020 -0.1893
  470MOL0     C63376   2.000   7.220   9.317  0.5009  1.2014 -0.4248
  470MOL0     C63377   2.147   7.255   9.370 -0.0522 -0.3935  0.3538
  470MOL0     C63378   2.167   7.360   9.466 -0.8501 -0.5342  0.1957
  470MOL0     C63379   2.196   7.453   9.545  0.8964 -0.7238 -0.8148
  470MOL0     C63380   1.496   6.982   9.363  0.1615 -1.0910  0.3313
  470MOL0     C63381   1.367   6.935   9.328  0.8534 -1.5231 -0.3002
  470MOL0     C63382   1.356   6.797   9.262 -0.0337 -0.0747 -0.2858
  470MOL0     H63383   0.946   7.066   9.048 -0.4342 -2.9528  0.0955
  470MOL0     H63384   0.706   7.042   8.966  1.1578  0.6449 -0.4758
  470MOL0     H63385   0.502   6.955   8.960 -1.8672  0.6736 -1.9220
  470MOL0     H63386   0.337   6.951   9.033 -0.2530  0.5967  1.8087
  470MOL0     H63387   0.480   7.190   8.928  1.4799 -2.8512 -2.5232
  470MOL0     H63388   0.316   7.184   9.013  0.7280  1.7625 -0.4451
  470MOL0     H63389   0.239   7.037   8.814  0.3950 -0.2274  1.3047
  470MOL0     H63390   0.390   7.079   8.736 -1.7383  1.5707 -1.0434
  470MOL0     H63391   0.157   7.259   8.809  2.8254  0.3316  3.6296
  470MOL0     H63392   0.310   7.326   8.785 -1.3702 -0.4633 -0.6374
  470MOL0     H63393   0.277   7.146   8.561  1.7933 -2.0391  3.8552
  470MOL0     H63394   0.125   7.243   8.564 -0.1489 -3.0216  0.7878
  470MOL0     H63395   0.264   7.450   8.563 -0.3907  0.8682 -3.1220
  470MOL0     H63396   0.409   7.363   8.594  0.8109 -2.1802 -1.5735
  470MOL0     H63397   0.398   7.430   8.360  1.7993 -0.5058  1.4986
  470MOL0     H63398   0.248   7.337   8.333  1.6518 -1.2117 -2.2979
  470MOL0     H63399   0.391   7.124   8.350  2.7172 -0.6666 -0.6242
  470MOL0     H63400   0.452   7.245   8.240 -1.7309 -3.5212 -0.8739
  470MOL0     H63401   0.549   7.058   8.582 -0.2037 -0.2104 -0.8587
  470MOL0     H63402   0.775   7.005   8.678 -2.0004  1.2388  0.6296
  470MOL0     H63403   0.912   7.085   8.610 -1.5246  0.6321 -4.0712
  470MOL0     H63404   0.702   7.206   8.796 -0.0155  0.8078  0.2117
  470MOL0     H63405   0.877   7.153   8.824 -1.2790 -2.4122  0.3271
  470MOL0     H63406   0.832   7.406   8.809  2.1983 -3.0020  1.8244
  470MOL0     H63407   0.801   7.385   8.640 -2.0104  0.4543  0.7056
  470MOL0     H63408   1.049   7.452   8.702 -0.4889  0.6956  1.4649
  470MOL0     H63409   1.052   7.295   8.621  1.1412 -0.6702  0.5872
  470MOL0     H63410   1.270   7.320   8.656  0.2254  1.8494 -1.2869
  470MOL0     H63411   1.497   7.339   8.704  1.3396  0.0957  0.9484
  470MOL0     H63412   1.803   7.506   9.101  1.1283  1.1313  0.5191
  470MOL0     H63413   2.032   7.551   9.103 -0.4783  0.3940 -1.6574
  470MOL0     H63414   2.253   7.691   9.045 -0.6749  0.1424 -1.0610
  470MOL0     H63415   2.263   7.515   9.054 -1.1649  2.5739  1.8473
  470MOL0     H63416   2.423   7.700   8.866  4.0356  1.6623  2.1336
  470MOL0     H63417   2.486   7.635   9.014  0.9116 -1.3118 -1.3237
  470MOL0     H63418   2.581   7.522   8.849 -0.2821  1.3412 -1.2805
  470MOL0     H63419   2.454   7.403   8.904  0.0183  1.9329  2.3628
  470MOL0     H63420   2.482   7.553   8.633 -1.5160  1.8055 -0.9605
  470MOL0     H63421   2.323   7.555   8.692 -1.2341 -2.3540 -0.3245
  470MOL0     H63422   2.349   7.364   8.540 -2.8275  2.1247  1.2586
  470MOL0     H63423   2.310   7.311   8.689  1.3820 -1.2797  1.7685
  470MOL0     H63424   2.595   7.312   8.595  1.1226 -1.1112  0.3967
  470MOL0     H63425   2.538   7.253   8.750  1.9928  0.0389  0.0865
  470MOL0     H63426   2.428   7.130   8.498 -0.3521  2.2948  0.8236
  470MOL0     H63427   2.423   7.065   8.658 -0.7148 -1.6639 -2.1500
  470MOL0     H63428   2.600   6.958   8.508  0.3416 -1.1746  1.0925
  470MOL0     H63429   2.678   7.112   8.490  0.3806 -1.1889  0.5417
  470MOL0     H63430   2.071   7.516   8.677  1.7828  0.3412  0.9684
  470MOL0     H63431   1.838   7.415   8.681  0.0909  1.2158  0.2890
  470MOL0     H63432   1.415   7.227   9.107 -1.9821  1.6371  1.4954
  470MOL0     H63433   1.169   7.219   9.058 -2.4147  0.0510 -1.4944
  470MOL0     H63434   0.591   7.034   9.377  0.5061 -1.2750  0.3678
  470MOL0     H63435   0.824   7.053   9.450 -1.0582  3.5710  0.1960
  470MOL0     H63436   1.200   7.232   9.363 -0.4918 -0.2449 -0.7811
  470MOL0     H63437   1.443   7.302   9.438  1.4487 -0.5651  1.5481
  470MOL0     H63438   1.749   7.226   9.289  3.5483  0.3668 -1.1784
  470MOL0     H63439   1.782   7.048   9.343  0.0737 -2.3863  2.3733
  470MOL0     H63440   1.944   7.133   9.507 -0.5654  0.1816  1.0585
  470MOL0     H63441   1.888   7.297   9.489  3.3121 -0.7584  1.0626
  470MOL0     H63442   1.970   7.303   9.253  0.6525  0.2416 -1.7854
  470MOL0     H63443   1.998   7.140   9.243 -3.1196  1.1612 -0.4158
  470MOL0     H63444   2.193   7.167   9.416  4.0734  1.9731  1.2376
  470MOL0     H63445   2.204   7.282   9.280 -0.0412 -1.1810  0.1139
  470MOL0     H63446   2.221   7.532   9.614 -2.1465  0.6745 -1.1591
  470MOL0     H63447   1.581   6.915   9.364  0.4239 -0.8546 -1.6704
  470MOL0     H63448   1.320   6.814   9.160  1.4652 -0.5852 -0.9241
  470MOL0     H63449   1.449   6.740   9.270  0.2414  0.6137  3.1169
  470MOL0     H63450   1.291   6.729   9.318  1.7562 -1.1240  0.6037
  471MOL0     O63451  10.436   2.078   5.404 -0.0263 -0.1690  0.4223
  471MOL0     C63452  10.327   2.036   5.388 -0.4697  0.1592 -0.1143
  471MOL0     O63453  10.266   2.026   5.263 -0.3514  0.0900  0.1591
  471MOL0     C63454  10.289   2.109   5.150  0.7974 -0.4377  0.4851
  471MOL0     C63455  10.299   2.041   5.034 -0.3124  0.3062  0.2996
  471MOL0     C63456  10.317   2.113   4.916 -0.1025  0.0472  0.1778
  471MOL0     C63457  10.329   2.251   4.908  0.7270  0.4985  0.4359
  471MOL0     O63458  10.354   2.321   4.793  0.0370  1.0675 -0.7678
  471MOL0     C63459  10.307   2.255   4.672 -0.4817  0.5768  0.1750
  471MOL0     C63460  10.268   2.357   4.570 -0.4345 -0.1143 -0.6939
  471MOL0     C63461  10.388   2.430   4.519  0.3849 -0.2530 -0.5127
  471MOL0     C63462  10.360   2.491   4.387 -0.5470 -0.7192  0.7999
  471MOL0     C63463  10.476   2.573   4.331 -0.2200  1.3256 -0.6429
  471MOL0     C63464  10.474   2.569   4.182  0.5873  0.3813  0.7494
  471MOL0     C63465  10.532   2.431   4.116  0.1612 -0.5322  0.4218
  471MOL0     C63466  10.506   2.438   3.965  0.5611  0.3645  0.2567
  471MOL0     N63467  10.544   2.328   3.882 -0.2793  0.8593 -0.5193
  471MOL0     C63468  10.634   2.228   3.928  0.4725 -0.4480 -0.1472
  471MOL0     C63469  10.621   2.130   3.836 -0.3487  0.6942 -0.7549
  471MOL0     C63470  10.704   2.012   3.826 -0.4880  0.6931 -0.2189
  471MOL0     C63471  10.814   2.046   3.728  1.7619 -0.1957  0.4921
  471MOL0     C63472  10.933   1.942   3.721  0.2812 -0.4537  0.4002
  471MOL0     C63473  11.007   1.925   3.854 -0.5840  0.6308 -0.3722
  471MOL0     O63474  11.139   1.856   3.843  1.0686  0.2007 -1.2799
  471MOL0     C63475  11.254   1.933   3.831  0.4291  0.7162  0.5171
  471MOL0     C63476  11.370   1.875   3.866 -1.1596 -1.2997 -0.3680
  471MOL0     C63477  11.490   1.943   3.845  0.3721  0.5487 -0.1680
  471MOL0     C63478  11.494   2.077   3.809  0.1696 -0.0254 -0.0661
  471MOL0     C63479  11.622   2.155   3.801 -0.1307  0.2065 -0.1201
  471MOL0     O63480  11.743   2.096   3.804  0.0886  0.2006  0.3897
  471MOL0     C63481  11.859   2.165   3.777 -0.5171 -1.1107 -0.7719
  471MOL0     C63482  11.963   2.128   3.859 -0.5349 -0.3225  0.4138
  471MOL0     C63483  12.082   2.199   3.859  0.4366 -0.3673  0.8294
  471MOL0     C63484  12.100   2.309   3.775  0.4576  0.2798 -0.8558
  471MOL0     O63485  12.216   2.368   3.770 -0.3089 -0.4576 -0.4319
  471MOL0     C63486  12.220   2.499   3.825 -0.8873 -0.1807 -0.0355
  471MOL0     C63487  12.286   2.574   3.709  0.2297  0.0750  0.4985
  471MOL0     C63488  12.419   2.516   3.645 -0.6947 -0.7885 -0.0743
  471MOL0     C63489  12.525   2.633   3.596  0.3301  0.1581  0.6445
  471MOL0     C63490  12.616   2.584   3.479 -0.8935  0.8234  0.2583
  471MOL0     C63491  12.695   2.696   3.416  0.1870 -0.1770 -0.4496
  471MOL0     C63492  12.781   2.773   3.521 -0.4569  0.8397 -0.9904
  471MOL0     C63493  12.916   2.805   3.463  0.0960 -0.0654  0.5536
  471MOL0    Cl63494  12.895   2.869   3.290 -0.4206 -0.2521  0.1866
  471MOL0     C63495  11.994   2.347   3.693  0.0384  0.1787 -0.0638
  471MOL0     C63496  11.873   2.276   3.700 -0.3414  0.2533 -0.8630
  471MOL0     O63497  11.608   2.272   3.827  0.0523  0.2476  0.2329
  471MOL0     C63498  11.368   2.139   3.782 -0.7205 -0.0113  0.4802
  471MOL0     C63499  11.246   2.071   3.790 -0.2070  0.0860 -0.0631
  471MOL0     N63500  10.527   2.168   3.745  0.3377  0.3528  0.3223
  471MOL0     N63501  10.478   2.282   3.771 -0.2296  0.1670 -0.6291
  471MOL0     C63502  10.336   2.321   5.025 -0.0232 -0.0763  0.2304
  471MOL0     C63503  10.306   2.245   5.145  0.1867  0.5536  0.7456
  471MOL0     C63504  10.252   2.006   5.504 -0.2977 -0.4580  0.1994
  471MOL0     C63505  10.112   1.983   5.493 -0.2026 -0.7205  0.2034
  471MOL0     C63506  10.024   1.971   5.606 -0.3091  0.1400  0.2273
  471MOL0     C63507  10.078   1.964   5.732 -0.1852 -0.3811  0.1346
  471MOL0     O63508  10.006   1.940   5.847 -0.1338  0.5968 -0.1924
  471MOL0     C63509   9.972   1.796   5.864  0.5926 -0.8022 -0.5644
  471MOL0     C63510   9.905   1.777   6.003  0.2702  0.4456 -0.6288
  471MOL0     C63511   9.939   1.644   6.068  0.2468  0.2443 -0.6795
  471MOL0     C63512   9.870   1.623   6.207  0.5382 -0.0833  0.3772
  471MOL0     C63513   9.859   1.479   6.237 -0.9831 -0.9206  0.0563
  471MOL0     C63514   9.835   1.363   6.266  0.5028  0.4118 -0.8037
  471MOL0     C63515  10.217   1.996   5.746 -0.1067 -0.2057 -0.4991
  471MOL0     C63516  10.306   2.013   5.637  0.4808  0.1265 -0.2339
  471MOL0     C63517  10.453   2.044   5.669  0.1337  0.2719 -0.0061
  471MOL0     H63518  10.292   1.934   5.016 -4.4717  0.8264 -2.4929
  471MOL0     H63519  10.328   2.060   4.822  2.0084  1.2213 -0.2928
  471MOL0     H63520  10.391   2.198   4.630  0.5466  1.2747  1.2487
  471MOL0     H63521  10.220   2.189   4.679 -0.0779 -0.1635 -1.2818
  471MOL0     H63522  10.201   2.429   4.620 -1.1104 -0.5045 -1.0223
  471MOL0     H63523  10.216   2.315   4.483  2.7566  1.5843 -3.6572
  471MOL0     H63524  10.479   2.372   4.500  1.8053  1.7986 -0.2743
  471MOL0     H63525  10.426   2.496   4.598 -4.8593 -0.4592  2.6426
  471MOL0     H63526  10.322   2.423   4.311  0.9797  0.1465 -0.7967
  471MOL0     H63527  10.281   2.567   4.395 -0.4124 -0.7402  2.9167
  471MOL0     H63528  10.457   2.677   4.360 -0.7325  1.0907 -0.1175
  471MOL0     H63529  10.567   2.532   4.376 -0.0430  1.8659 -0.5016
  471MOL0     H63530  10.378   2.590   4.133  1.0441  1.1025  0.1532
  471MOL0     H63531  10.543   2.648   4.153 -1.8843  2.8079  1.0711
  471MOL0     H63532  10.492   2.342   4.165  0.3369 -1.4276 -0.9888
  471MOL0     H63533  10.638   2.418   4.138 -0.0536 -0.8283  1.2821
  471MOL0     H63534  10.398   2.455   3.954 -0.1844  0.3454  5.1617
  471MOL0     H63535  10.571   2.515   3.922 -0.3756  0.9940 -0.0649
  471MOL0     H63536  10.707   2.227   4.009  0.6629  3.0430 -0.1379
  471MOL0     H63537  10.742   2.005   3.929  0.9448  1.7127 -0.6391
  471MOL0     H63538  10.659   1.919   3.793  2.5769 -0.3105 -2.0034
  471MOL0     H63539  10.755   2.043   3.636 -0.7802 -0.1578  2.0053
  471MOL0     H63540  10.851   2.147   3.747  0.1814  0.2851  1.2353
  471MOL0     H63541  11.003   1.969   3.642  1.2965 -1.8534  0.7762
  471MOL0     H63542  10.898   1.842   3.693 -0.5015 -0.1204  0.1510
  471MOL0     H63543  10.934   1.871   3.914  1.7559 -1.5335  0.7175
  471MOL0     H63544  11.030   2.019   3.906  2.1082 -0.1503  0.0209
  471MOL0     H63545  11.366   1.781   3.920 -0.8666  0.9649  4.0654
  471MOL0     H63546  11.571   1.895   3.899 -0.6311  1.0077  1.8596
  471MOL0     H63547  11.951   2.041   3.922 -1.7324  0.4090  1.2610
  471MOL0     H63548  12.156   2.155   3.926  0.4104  0.3148  1.3107
  471MOL0     H63549  12.121   2.545   3.831  0.0825  2.7689 -3.4188
  471MOL0     H63550  12.281   2.503   3.916 -0.8547  0.5924 -0.0845
  471MOL0     H63551  12.222   2.594   3.622  1.1996 -0.0693 -0.2630
  471MOL0     H63552  12.309   2.669   3.757  1.6092 -0.6983  1.4152
  471MOL0     H63553  12.474   2.461   3.721 -0.3348  0.4041  0.5605
  471MOL0     H63554  12.392   2.445   3.566  1.2546 -0.0840 -1.4761
  471MOL0     H63555  12.575   2.687   3.677 -2.4672  0.1759  2.4756
  471MOL0     H63556  12.469   2.713   3.549  0.6385  0.5269  0.8986
  471MOL0     H63557  12.549   2.526   3.415 -1.5754 -0.1714  1.7980
  471MOL0     H63558  12.675   2.511   3.536 -1.6826 -2.5885 -2.9134
  471MOL0     H63559  12.751   2.656   3.331 -0.0635 -1.5993  0.0344
  471MOL0     H63560  12.614   2.761   3.382 -0.9380  0.4523  3.0474
  471MOL0     H63561  12.813   2.706   3.601  1.2661 -1.6756 -3.6219
  471MOL0     H63562  12.731   2.860   3.565 -1.9249 -1.2785  1.8206
  471MOL0     H63563  12.974   2.878   3.520  2.4765 -1.8481  0.5484
  471MOL0     H63564  12.969   2.710   3.447  1.4329  1.0343 -2.3157
  471MOL0     H63565  12.030   2.422   3.624 -1.9170 -0.0652 -1.4431
  471MOL0     H63566  11.796   2.291   3.625  0.0967 -3.4134 -2.2137
  471MOL0     H63567  11.354   2.246   3.770  2.1276  0.1686 -3.3822
  471MOL0     H63568  11.155   2.127   3.767 -1.4987 -1.3516  1.2927
  471MOL0     H63569  10.343   2.429   5.029 -3.9287  0.3271 -0.1328
  471MOL0     H63570  10.281   2.287   5.242 -1.9650  2.3563 -0.4960
  471MOL0     H63571  10.057   1.987   5.400 -1.4918 -0.5072  0.9420
  471MOL0     H63572   9.916   1.962   5.598 -0.1071 -2.6522 -0.4405
  471MOL0     H63573  10.052   1.723   5.852 -0.9602 -2.6004 -0.4615
  471MOL0     H63574   9.890   1.782   5.792  0.0457  0.3196 -0.1834
  471MOL0     H63575   9.797   1.761   5.997  0.7016 -2.2301 -3.5782
  471MOL0     H63576   9.945   1.857   6.066  3.8081 -0.3090 -1.7224
  471MOL0     H63577  10.048   1.646   6.078  0.5690  2.3080 -3.2953
  471MOL0     H63578   9.917   1.565   5.995 -1.3165  1.0375 -1.0991
  471MOL0     H63579   9.930   1.678   6.280 -0.3230 -0.5116  1.4631
  471MOL0     H63580   9.771   1.669   6.217  0.7750  1.8712 -4.2517
  471MOL0     H63581   9.827   1.259   6.289 -0.5250  0.3793 -1.2408
  471MOL0     H63582  10.242   1.985   5.851 -1.7738 -1.6509 -0.2234
  471MOL0     H63583  10.517   1.959   5.645  1.1374  1.1218 -0.3900
  471MOL0     H63584  10.491   2.132   5.617 -2.8104  2.2016  0.8304
  471MOL0     H63585  10.455   2.059   5.778  1.8665 -1.3824  0.2315
  472MOL0     O63586   7.367   0.038   3.349 -0.0283  0.3195 -0.2191
  472MOL0     C63587   7.315   0.147   3.381  0.6361  0.8241  0.2425
  472MOL0     O63588   7.338   0.214   3.489 -0.2769 -0.6637 -0.4483
  472MOL0     C63589   7.376   0.143   3.599 -1.2332  1.0898  0.1351
  472MOL0     C63590   7.281   0.112   3.688 -0.0150  0.2049 -0.3795
  472MOL0     C63591   7.303   0.020   3.791 -0.4579 -0.0581 -0.0985
  472MOL0     C63592   7.426  -0.036   3.805 -1.0449  0.4803  0.1598
  472MOL0     O63593   7.459  -0.120   3.904 -0.5202 -0.2165  0.1914
  472MOL0     C63594   7.601  -0.130   3.940 -0.2071 -0.3786  0.5161
  472MOL0     C63595   7.626  -0.216   4.071 -0.7398  0.1417  0.4016
  472MOL0     C63596   7.779  -0.213   4.107  0.1333  0.2000 -0.3895
  472MOL0     C63597   7.803  -0.294   4.244 -0.0616 -0.4463  0.5173
  472MOL0     C63598   7.948  -0.270   4.281 -0.9368  0.1734 -0.2617
  472MOL0     C63599   7.973  -0.137   4.351  0.1539 -1.2261 -1.1296
  472MOL0     C63600   7.913  -0.135   4.494 -0.7351 -0.5173  0.0774
  472MOL0     C63601   7.912   0.002   4.559 -0.4451  0.4319  0.2859
  472MOL0     N63602   7.847   0.001   4.689  0.0470 -0.2296  0.0506
  472MOL0     C63603   7.880  -0.092   4.790 -0.1179  0.4359 -0.0330
  472MOL0     C63604   7.808  -0.047   4.894  0.6348 -0.1088 -0.5415
  472MOL0     C63605   7.781  -0.121   5.020 -0.1581  0.1804 -0.4871
  472MOL0     C63606   7.902  -0.147   5.110 -0.2021 -0.3059 -0.9282
  472MOL0     C63607   7.875  -0.183   5.257  0.6972  0.4305  0.3596
  472MOL0     C63608   7.801  -0.314   5.271 -0.2610 -0.4532 -0.1644
  472MOL0     O63609   7.870  -0.420   5.211  0.5273  0.6108  1.0447
  472MOL0     C63610   7.982  -0.463   5.285 -0.1076  0.8823  0.3340
  472MOL0     C63611   7.979  -0.526   5.413 -0.3784 -0.4540 -0.1877
  472MOL0     C63612   8.089  -0.564   5.477 -1.4404 -0.0584  0.0992
  472MOL0     C63613   8.219  -0.543   5.420 -0.5444  0.2646  0.1294
  472MOL0     C63614   8.342  -0.583   5.477  0.0993 -0.1458  0.7990
  472MOL0     O63615   8.460  -0.545   5.400 -0.0396 -0.4422 -0.1277
  472MOL0     C63616   8.573  -0.612   5.438  0.2105 -0.1114  0.7148
  472MOL0     C63617   8.674  -0.542   5.494  1.5859 -0.5684 -0.0670
  472MOL0     C63618   8.792  -0.609   5.518  0.8296 -0.2404  0.2429
  472MOL0     C63619   8.802  -0.742   5.484 -0.6382  0.5280  0.3359
  472MOL0     O63620   8.931  -0.789   5.523  0.5346 -0.3653 -0.5045
  472MOL0     C63621   8.979  -0.916   5.492  0.5968  0.4637 -0.6732
  472MOL0     C63622   8.981  -1.004   5.621 -0.2606 -0.0020 -0.5767
  472MOL0     C63623   9.098  -0.958   5.716 -0.0475  0.4069 -0.7440
  472MOL0     C63624   9.056  -0.833   5.795 -0.1832  0.4948 -0.4460
  472MOL0     C63625   9.139  -0.826   5.917 -0.6422 -0.2981  0.4712
  472MOL0     C63626   9.087  -0.718   6.014  0.3027 -0.2471  0.1788
  472MOL0     C63627   9.191  -0.674   6.115  1.0740 -0.1582  0.3175
  472MOL0     C63628   9.170  -0.537   6.170  0.2800 -0.8493  0.2237
  472MOL0    Cl63629   9.310  -0.494   6.274  0.3231 -0.4451 -0.3405
  472MOL0     C63630   8.693  -0.807   5.425 -0.0858 -0.2873  0.7024
  472MOL0     C63631   8.581  -0.742   5.398 -0.0348 -0.2199  0.1950
  472MOL0     O63632   8.343  -0.643   5.581  0.0539 -0.6563 -0.3671
  472MOL0     C63633   8.218  -0.473   5.300 -0.8526  0.7327  0.2328
  472MOL0     C63634   8.108  -0.443   5.227  0.2881 -0.3832 -0.4753
  472MOL0     N63635   7.732   0.064   4.854 -0.1110  0.2379 -0.2683
  472MOL0     N63636   7.766   0.098   4.730  0.2901 -0.0902 -0.2873
  472MOL0     C63637   7.521  -0.007   3.713 -0.0257  0.1972  0.7682
  472MOL0     C63638   7.508   0.092   3.612 -0.4204  0.2525  0.7010
  472MOL0     C63639   7.254   0.229   3.271 -0.3422  0.5937 -0.2264
  472MOL0     C63640   7.187   0.349   3.309  0.1215  0.4714 -0.2466
  472MOL0     C63641   7.112   0.405   3.208 -0.6085 -0.5595  0.7559
  472MOL0     C63642   7.098   0.362   3.071 -0.3429  0.4600  0.0576
  472MOL0     O63643   7.016   0.416   2.971 -0.0393 -0.7279  0.8709
  472MOL0     C63644   6.938   0.523   3.022 -0.6065  0.3685 -0.5358
  472MOL0     C63645   6.812   0.542   2.934 -0.9602  0.3396 -0.6168
  472MOL0     C63646   6.701   0.622   2.991  0.8295  0.4093 -0.5367
  472MOL0     C63647   6.577   0.600   2.902 -0.6021 -0.0480 -1.7417
  472MOL0     C63648   6.602   0.650   2.765  0.2436  0.2092 -0.2641
  472MOL0     C63649   6.622   0.695   2.654  0.6941  0.4176 -0.6782
  472MOL0     C63650   7.169   0.250   3.049 -0.5623  0.1243  0.2693
  472MOL0     C63651   7.251   0.175   3.140  0.6624 -0.0072 -0.5160
  472MOL0     C63652   7.299   0.042   3.076 -0.4683  0.7168 -0.3216
  472MOL0     H63653   7.183   0.157   3.676  0.6680  2.8014  2.6360
  472MOL0     H63654   7.225  -0.004   3.862  0.5475  4.1876  2.8236
  472MOL0     H63655   7.663  -0.179   3.864 -0.9599 -1.5798  0.6575
  472MOL0     H63656   7.635  -0.027   3.951  0.2378 -0.4917  0.2184
  472MOL0     H63657   7.592  -0.321   4.069 -3.0861  0.8186 -2.0442
  472MOL0     H63658   7.564  -0.164   4.144 -0.8296 -0.1358  0.5270
  472MOL0     H63659   7.815  -0.109   4.108 -2.9755  1.3783  0.1915
  472MOL0     H63660   7.833  -0.269   4.030  2.4758  1.2849  0.3680
  472MOL0     H63661   7.735  -0.263   4.324  0.3646  2.7804 -0.2270
  472MOL0     H63662   7.775  -0.400   4.241 -5.7384  0.7173 -1.1659
  472MOL0     H63663   7.978  -0.343   4.358 -3.5314 -0.7042  0.0076
  472MOL0     H63664   8.017  -0.287   4.198  0.5996 -0.2242  1.0339
  472MOL0     H63665   8.081  -0.123   4.363 -0.3135  3.7215 -0.4585
  472MOL0     H63666   7.935  -0.058   4.285 -1.6760  0.9149  2.1613
  472MOL0     H63667   7.990  -0.180   4.557 -2.4751 -0.9304  2.0282
  472MOL0     H63668   7.816  -0.185   4.495 -0.7927 -0.4157 -0.2206
  472MOL0     H63669   8.017   0.028   4.576 -0.0589 -0.2843 -0.8866
  472MOL0     H63670   7.865   0.083   4.504  0.7563  1.6994  1.0490
  472MOL0     H63671   7.938  -0.184   4.790 -0.7268  0.0363  1.0562
  472MOL0     H63672   7.721  -0.063   5.090  1.6281 -0.0809  1.3429
  472MOL0     H63673   7.731  -0.218   5.012 -1.8755  0.1547  5.7496
  472MOL0     H63674   7.963  -0.229   5.070  0.4711 -0.8332  1.0694
  472MOL0     H63675   7.960  -0.055   5.106 -1.2302  0.5454  1.7674
  472MOL0     H63676   7.811  -0.104   5.297 -4.6754 -1.3842 -3.4340
  472MOL0     H63677   7.968  -0.177   5.314  1.2946  1.3970 -0.6703
  472MOL0     H63678   7.701  -0.317   5.226 -0.3735 -0.7279  0.0958
  472MOL0     H63679   7.789  -0.336   5.377  0.5287  0.9774  0.2483
  472MOL0     H63680   7.885  -0.543   5.465  0.2061 -2.3451  0.3225
  472MOL0     H63681   8.081  -0.620   5.569  1.6322  0.9399  1.1164
  472MOL0     H63682   8.669  -0.434   5.501  1.6200 -0.6556  2.1320
  472MOL0     H63683   8.877  -0.558   5.564 -0.3201 -0.7141  3.0657
  472MOL0     H63684   8.919  -0.974   5.421 -2.7933  1.1035  1.4490
  472MOL0     H63685   9.079  -0.898   5.452  0.9638  5.5489  1.8244
  472MOL0     H63686   8.883  -1.003   5.669 -0.4048 -2.6119 -0.6997
  472MOL0     H63687   9.007  -1.107   5.596  1.1710  0.0846  0.4021
  472MOL0     H63688   9.127  -1.034   5.789 -0.4047  2.6053  1.8515
  472MOL0     H63689   9.189  -0.949   5.656 -0.4401  1.2075 -1.2508
  472MOL0     H63690   8.953  -0.835   5.830  0.2597 -0.9815  0.9029
  472MOL0     H63691   9.071  -0.740   5.740 -0.8649  0.3308 -0.9158
  472MOL0     H63692   9.245  -0.818   5.893 -0.8788 -0.3188 -0.6171
  472MOL0     H63693   9.134  -0.921   5.972  1.6201  0.7761  2.7091
  472MOL0     H63694   9.086  -0.627   5.952  1.4081  0.8614  1.6855
  472MOL0     H63695   8.990  -0.738   6.058  0.5629 -0.8370  0.4855
  472MOL0     H63696   9.285  -0.676   6.059  0.3237 -0.9762 -0.9731
  472MOL0     H63697   9.192  -0.752   6.192 -3.6158 -3.0781 -2.0615
  472MOL0     H63698   9.162  -0.461   6.092  0.6397  1.6934  2.4968
  472MOL0     H63699   9.079  -0.539   6.231 -1.3117  3.1983 -1.6805
  472MOL0     H63700   8.701  -0.909   5.390  0.0805 -0.4549  1.2117
  472MOL0     H63701   8.492  -0.793   5.362 -1.8739  2.0276  1.2763
  472MOL0     H63702   8.310  -0.432   5.259 -2.0403  4.7612  1.1164
  472MOL0     H63703   8.110  -0.397   5.128  0.6280  0.3318 -0.1429
  472MOL0     H63704   7.624  -0.039   3.703 -0.4452 -0.9306 -0.1814
  472MOL0     H63705   7.575   0.104   3.528 -1.0876 -0.7055  0.0250
  472MOL0     H63706   7.173   0.390   3.409 -0.3528 -0.0746 -0.0793
  472MOL0     H63707   7.048   0.488   3.237 -0.1008  0.8562 -1.7757
  472MOL0     H63708   7.000   0.611   3.038  0.1368 -0.0271 -1.1493
  472MOL0     H63709   6.884   0.493   3.113  1.0886 -2.6927 -0.3894
  472MOL0     H63710   6.768   0.442   2.924  1.0325 -0.9402  2.0491
  472MOL0     H63711   6.856   0.585   2.843  2.8323 -1.0982  0.3387
  472MOL0     H63712   6.733   0.725   3.010  1.5727  0.2587 -0.9306
  472MOL0     H63713   6.671   0.582   3.088 -2.9285  0.7165 -1.4237
  472MOL0     H63714   6.544   0.496   2.901 -2.5958  0.4157  1.2388
  472MOL0     H63715   6.486   0.645   2.944 -0.9418 -1.4868 -0.8713
  472MOL0     H63716   6.629   0.736   2.555 -1.0797 -0.1951 -1.0942
  472MOL0     H63717   7.151   0.202   2.953 -1.2115  2.9972 -1.1703
  472MOL0     H63718   7.396   0.021   3.122 -0.2057  0.0018 -1.1865
  472MOL0     H63719   7.228  -0.036   3.102 -3.2596  3.6013  1.5251
  472MOL0     H63720   7.327   0.059   2.972 -0.2603 -3.1964 -1.0543
  473MOL0     O63721   3.475   7.117   6.497 -0.8423  0.5604  0.1145
  473MOL0     C63722   3.521   7.008   6.533 -0.3733  0.1157  0.6583
  473MOL0     O63723   3.613   6.988   6.639 -0.0286  0.4894  0.4240
  473MOL0     C63724   3.679   7.095   6.689 -0.7787 -0.0631  1.6861
  473MOL0     C63725   3.636   7.176   6.790 -0.2617  0.0669 -0.6248
  473MOL0     C63726   3.705   7.288   6.836  0.6585 -0.1571  0.9978
  473MOL0     C63727   3.826   7.318   6.766  0.5159  0.8084  0.0213
  473MOL0     O63728   3.898   7.435   6.802 -0.1470 -0.1843  0.5237
  473MOL0     C63729   4.031   7.464   6.770 -0.8874  0.0594  0.3158
  473MOL0     C63730   4.100   7.558   6.863  0.0687  0.9278  0.0716
  473MOL0     C63731   4.032   7.693   6.890 -0.4564  0.4507  1.0736
  473MOL0     C63732   3.977   7.768   6.769  0.8308  0.3279 -0.2655
  473MOL0     C63733   3.879   7.882   6.810 -0.0962  0.0563 -0.3661
  473MOL0     C63734   3.852   7.947   6.683  0.0888  0.2763 -0.0252
  473MOL0     C63735   3.730   8.025   6.692 -0.1703 -0.1582  0.7504
  473MOL0     C63736   3.760   8.158   6.760 -0.4087 -0.1944 -0.2546
  473MOL0     N63737   3.636   8.240   6.778  0.6630 -0.3678  0.8956
  473MOL0     C63738   3.578   8.308   6.672  0.1952  0.3874  0.6829
  473MOL0     C63739   3.449   8.295   6.705  0.6592  0.0799  0.7796
  473MOL0     C63740   3.337   8.333   6.603  0.6174  0.2803  0.1549
  473MOL0     C63741   3.375   8.450   6.507 -0.2342  0.4172 -0.3852
  473MOL0     C63742   3.450   8.574   6.550 -0.2207 -0.2240  0.9330
  473MOL0     C63743   3.437   8.625   6.691  0.1516 -0.3546  1.1641
  473MOL0     O63744   3.519   8.734   6.708  0.3161  0.3672 -0.3065
  473MOL0     C63745   3.511   8.808   6.826  0.0675  0.1726 -0.9864
  473MOL0     C63746   3.591   8.918   6.837  0.6284  1.1038  1.3242
  473MOL0     C63747   3.594   8.997   6.950 -0.2934 -0.1434  0.0013
  473MOL0     C63748   3.504   8.962   7.054  0.1729  0.2364  0.1705
  473MOL0     C63749   3.512   9.046   7.183 -0.2640  1.0052  0.3637
  473MOL0     O63750   3.420   9.020   7.284 -0.2563  0.8274  0.4053
  473MOL0     C63751   3.438   9.089   7.404 -0.6158  0.5051  0.5663
  473MOL0     C63752   3.429   9.230   7.419  0.6886  0.1160 -0.3973
  473MOL0     C63753   3.441   9.284   7.548 -0.4323  0.4866 -0.2907
  473MOL0     C63754   3.466   9.211   7.663 -0.3711  0.2639 -0.2130
  473MOL0     O63755   3.492   9.275   7.787 -0.1765  0.3494  0.0996
  473MOL0     C63756   3.583   9.219   7.886 -0.9347  0.3805 -1.0193
  473MOL0     C63757   3.729   9.227   7.832  0.7051  0.6180 -0.3955
  473MOL0     C63758   3.787   9.362   7.854 -0.0876 -0.4531  0.0425
  473MOL0     C63759   3.940   9.365   7.810  0.3785  0.3199 -0.6940
  473MOL0     C63760   3.986   9.515   7.813 -0.1653 -0.9398  0.6271
  473MOL0     C63761   3.941   9.595   7.696 -0.8411  0.0227 -0.4159
  473MOL0     C63762   4.007   9.735   7.695 -0.8899  0.7260 -1.2287
  473MOL0     C63763   3.993   9.815   7.571  0.8748 -1.6169  0.1595
  473MOL0    Cl63764   3.832   9.878   7.571 -0.3061 -0.1312 -0.0719
  473MOL0     C63765   3.486   9.071   7.641  1.0899 -0.5332  0.1158
  473MOL0     C63766   3.463   9.013   7.514  0.2168 -0.8085  0.2343
  473MOL0     O63767   3.606   9.120   7.195 -0.6895  0.6176  0.1974
  473MOL0     C63768   3.426   8.841   7.045 -0.6710  0.6096  0.1051
  473MOL0     C63769   3.424   8.773   6.932  0.8021  0.3090 -0.6644
  473MOL0     N63770   3.425   8.233   6.832 -0.1361  0.4808 -0.9566
  473MOL0     N63771   3.539   8.213   6.871 -0.4077 -0.0760  0.7053
  473MOL0     C63772   3.866   7.232   6.655 -0.0390  0.8017 -0.6343
  473MOL0     C63773   3.788   7.123   6.617  0.7421 -0.1407  0.3730
  473MOL0     C63774   3.449   6.890   6.480  0.6644 -0.0456 -0.4975
  473MOL0     C63775   3.379   6.900   6.355 -0.5530 -0.2866  0.1663
  473MOL0     C63776   3.296   6.796   6.296 -0.3658 -0.2873  0.2757
  473MOL0     C63777   3.289   6.674   6.371  0.2455 -0.2135 -0.0564
  473MOL0     O63778   3.219   6.566   6.323  0.0186  0.3033  0.0093
  473MOL0     C63779   3.241   6.528   6.181 -0.0828  0.5193 -1.1955
  473MOL0     C63780   3.153   6.406   6.156 -0.0506 -0.3025 -0.0496
  473MOL0     C63781   3.175   6.297   6.254  0.6455  0.1404 -0.9566
  473MOL0     C63782   3.085   6.168   6.229 -0.2837 -0.7931 -0.5518
  473MOL0     C63783   2.938   6.194   6.240 -0.4277  0.8559  0.8958
  473MOL0     C63784   2.822   6.212   6.238  0.5225 -0.3028  0.3717
  473MOL0     C63785   3.359   6.665   6.497  0.1677 -0.4187 -0.7613
  473MOL0     C63786   3.429   6.767   6.555  0.3030 -0.4333 -0.5043
  473MOL0     C63787   3.480   6.741   6.698  0.1332 -0.3713  0.1957
  473MOL0     H63788   3.536   7.151   6.822 -0.9052  0.6480 -2.1033
  473MOL0     H63789   3.660   7.358   6.906 -1.5187  3.5945 -3.6090
  473MOL0     H63790   4.086   7.370   6.776 -1.2378 -0.0755  2.3274
  473MOL0     H63791   4.039   7.501   6.668 -1.0598 -0.0087  0.2768
  473MOL0     H63792   4.200   7.581   6.826  0.5245  0.4482  0.9965
  473MOL0     H63793   4.108   7.501   6.956  0.7413 -1.5395 -1.4220
  473MOL0     H63794   4.096   7.766   6.939 -2.1937  0.8049  2.9408
  473MOL0     H63795   3.949   7.678   6.959 -1.1521  2.4032  0.7031
  473MOL0     H63796   4.056   7.808   6.705  0.2139 -0.2656 -1.4278
  473MOL0     H63797   3.919   7.703   6.703  0.2079 -1.2870  1.7685
  473MOL0     H63798   3.788   7.839   6.852 -0.5405  1.5437  0.2651
  473MOL0     H63799   3.927   7.954   6.877  1.6812 -0.0620 -1.4464
  473MOL0     H63800   3.932   8.017   6.657  1.7668 -1.4915  0.0946
  473MOL0     H63801   3.850   7.873   6.602  4.7397  0.2790 -0.4104
  473MOL0     H63802   3.646   7.969   6.735 -0.0777 -2.9543 -2.2657
  473MOL0     H63803   3.700   8.031   6.587  0.3564 -0.8915  0.5537
  473MOL0     H63804   3.804   8.139   6.858  1.1870 -1.1900 -1.1173
  473MOL0     H63805   3.839   8.209   6.703  0.1682 -0.6121  0.1620
  473MOL0     H63806   3.606   8.340   6.573 -0.1248  0.2129  0.5346
  473MOL0     H63807   3.306   8.251   6.538 -4.2433  1.2868  0.8076
  473MOL0     H63808   3.248   8.365   6.658  0.2938  1.1302 -0.8219
  473MOL0     H63809   3.434   8.399   6.430 -0.5988 -2.5200  1.1441
  473MOL0     H63810   3.277   8.482   6.470 -0.9966  0.4695  1.5330
  473MOL0     H63811   3.418   8.650   6.479 -1.2423 -1.9107 -0.4814
  473MOL0     H63812   3.557   8.558   6.534 -0.1400 -0.0064  1.2333
  473MOL0     H63813   3.458   8.547   6.764 -0.0677  0.2012  1.8314
  473MOL0     H63814   3.331   8.651   6.694  0.3098  0.7861 -0.9061
  473MOL0     H63815   3.650   8.933   6.747 -0.3220 -1.3944  0.1725
  473MOL0     H63816   3.651   9.090   6.959 -0.4756 -0.1496  1.4974
  473MOL0     H63817   3.411   9.296   7.335 -2.6011 -0.6488 -0.4624
  473MOL0     H63818   3.433   9.391   7.563  0.2448  0.3284  1.4249
  473MOL0     H63819   3.575   9.274   7.981  1.9468  1.2687 -1.1850
  473MOL0     H63820   3.549   9.118   7.911  1.8517  0.0641  2.4210
  473MOL0     H63821   3.793   9.156   7.885 -4.8126 -1.9761  3.7356
  473MOL0     H63822   3.729   9.196   7.727 -2.8595 -2.3913  0.2732
  473MOL0     H63823   3.728   9.430   7.790 -3.5028 -2.1050  1.1706
  473MOL0     H63824   3.771   9.392   7.958 -2.9864 -0.2875 -0.3595
  473MOL0     H63825   3.964   9.326   7.711 -0.1599 -0.5461 -0.4908
  473MOL0     H63826   3.999   9.313   7.886 -0.9519  0.8232  0.7542
  473MOL0     H63827   4.093   9.492   7.802 -0.1606 -1.3016  1.3560
  473MOL0     H63828   3.968   9.574   7.903  1.0690  0.5516 -0.0591
  473MOL0     H63829   3.966   9.549   7.600 -1.7383  2.5165 -1.9319
  473MOL0     H63830   3.833   9.608   7.699 -1.1187 -1.8568 -0.8490
  473MOL0     H63831   4.112   9.703   7.699 -1.1894 -0.3905 -2.0731
  473MOL0     H63832   3.978   9.783   7.789  0.7564  0.5300 -0.5862
  473MOL0     H63833   4.057   9.904   7.575 -0.8173 -0.3871  1.9053
  473MOL0     H63834   4.016   9.755   7.482  0.3406  1.2059 -2.0137
  473MOL0     H63835   3.520   9.016   7.729  0.4763  2.0474  2.0840
  473MOL0     H63836   3.458   8.904   7.514 -2.3759 -0.7479  0.4181
  473MOL0     H63837   3.362   8.812   7.128 -0.5109  1.0018  0.3703
  473MOL0     H63838   3.373   8.678   6.924  0.9267  0.3384 -2.0111
  473MOL0     H63839   3.963   7.255   6.612 -0.4608  0.3666 -1.8650
  473MOL0     H63840   3.806   7.055   6.534 -3.8937 -3.5301  1.7255
  473MOL0     H63841   3.389   6.998   6.308 -0.2905  0.0901  0.9823
  473MOL0     H63842   3.251   6.807   6.198 -1.8430 -0.6666  0.8901
  473MOL0     H63843   3.345   6.498   6.164  0.3034  2.0498 -1.7206
  473MOL0     H63844   3.214   6.606   6.109  1.4594  1.2338 -1.0303
  473MOL0     H63845   3.171   6.361   6.058 -0.9082  1.1578 -0.9128
  473MOL0     H63846   3.049   6.438   6.160  0.2488  0.6941  0.2632
  473MOL0     H63847   3.146   6.330   6.354  0.4939 -1.2258 -0.5340
  473MOL0     H63848   3.277   6.266   6.231  0.6818  1.4977 -2.9636
  473MOL0     H63849   3.104   6.117   6.134 -1.4296 -0.4031 -1.0195
  473MOL0     H63850   3.099   6.097   6.311  0.0048 -1.7183 -1.3762
  473MOL0     H63851   2.722   6.247   6.224  0.6732  0.1385  0.3722
  473MOL0     H63852   3.348   6.575   6.556 -0.0269  0.8051  1.1728
  473MOL0     H63853   3.451   6.644   6.740 -0.7096 -1.1652 -2.0454
  473MOL0     H63854   3.587   6.758   6.717 -0.4504  0.7930  2.7745
  473MOL0     H63855   3.423   6.814   6.756 -2.7781 -1.8892 -0.5592
  474MOL0     O63856   2.182   6.615   3.723  0.0489  0.4584  0.4602
  474MOL0     C63857   2.268   6.520   3.716 -0.6499  0.6577 -0.4561
  474MOL0     O63858   2.245   6.395   3.653  0.1992  0.3090  0.4155
  474MOL0     C63859   2.134   6.350   3.595  0.8443  0.3880 -0.6459
  474MOL0     C63860   2.133   6.282   3.478 -0.5320 -0.1530  0.2139
  474MOL0     C63861   2.019   6.224   3.427  0.1425 -0.6310 -0.2566
  474MOL0     C63862   1.900   6.242   3.487 -0.0945 -0.0548 -0.2722
  474MOL0     O63863   1.779   6.202   3.439  0.4844  0.7306 -0.0872
  474MOL0     C63864   1.777   6.087   3.344  0.3129  0.1320 -0.2877
  474MOL0     C63865   1.638   6.018   3.344  0.2264  0.1138  0.8104
  474MOL0     C63866   1.633   5.878   3.300 -0.1038  0.3289 -1.0320
  474MOL0     C63867   1.490   5.806   3.293 -0.4795 -0.4663 -0.3077
  474MOL0     C63868   1.505   5.669   3.237  0.3199  0.8448 -0.5844
  474MOL0     C63869   1.556   5.575   3.342  0.0542 -0.7465  0.1255
  474MOL0     C63870   1.551   5.429   3.293 -0.3616  0.7648 -0.0239
  474MOL0     C63871   1.609   5.333   3.395 -0.2596 -0.1822 -1.0950
  474MOL0     N63872   1.512   5.272   3.500 -0.8626  0.0291  0.2297
  474MOL0     C63873   1.421   5.349   3.560  0.2679  0.3683  0.3504
  474MOL0     C63874   1.345   5.255   3.625  1.2444 -0.4015  0.2630
  474MOL0     C63875   1.246   5.288   3.735  0.6682  0.3986 -0.3610
  474MOL0     C63876   1.245   5.198   3.859  0.0406  0.1396  0.6250
  474MOL0     C63877   1.164   5.263   3.967  0.2563  1.2889 -0.6271
  474MOL0     C63878   1.015   5.271   3.931 -1.6096  0.7645 -0.0737
  474MOL0     O63879   0.957   5.143   3.889  0.1016  0.8052  0.6579
  474MOL0     C63880   0.886   5.063   3.979  0.7475  0.7074 -0.7128
  474MOL0     C63881   0.896   5.073   4.119 -0.4643  0.1621 -1.0648
  474MOL0     C63882   0.827   4.988   4.203 -0.4823 -0.1864 -0.1740
  474MOL0     C63883   0.743   4.886   4.161 -0.3105 -0.9309  0.3709
  474MOL0     C63884   0.669   4.795   4.264 -0.3520 -0.6951 -0.1325
  474MOL0     O63885   0.662   4.841   4.394  0.2861  0.0617  0.0525
  474MOL0     C63886   0.590   4.771   4.494 -0.0974  0.0384  0.1573
  474MOL0     C63887   0.599   4.633   4.517  0.9343  0.7133 -0.3762
  474MOL0     C63888   0.529   4.591   4.636  0.0454 -0.5154 -0.1824
  474MOL0     C63889   0.450   4.678   4.717  0.0505  0.7756  0.0181
  474MOL0     O63890   0.392   4.648   4.837  0.4152 -0.1498 -0.0322
  474MOL0     C63891   0.374   4.515   4.870  0.3024 -0.8201  0.6562
  474MOL0     C63892   0.267   4.506   4.978  0.1350  0.3442  0.3756
  474MOL0     C63893   0.272   4.383   5.067  0.2716  0.1173  0.3142
  474MOL0     C63894   0.143   4.382   5.156 -0.3545  0.6075  0.0692
  474MOL0     C63895   0.138   4.247   5.230  0.0365 -0.4438  0.0037
  474MOL0     C63896   0.063   4.254   5.361  0.6567 -0.5000 -0.6079
  474MOL0     C63897  -0.085   4.261   5.338 -0.1045  0.6191  0.3420
  474MOL0     C63898  -0.157   4.275   5.470  1.2552  1.7068  0.0861
  474MOL0    Cl63899  -0.115   4.167   5.603  0.2053  0.4012 -0.0790
  474MOL0     C63900   0.450   4.810   4.690 -0.2370  0.0146 -0.1207
  474MOL0     C63901   0.530   4.860   4.587  1.2322  0.4402  0.7284
  474MOL0     O63902   0.606   4.709   4.211  0.7975  0.3677 -0.4342
  474MOL0     C63903   0.734   4.877   4.023  1.0725 -0.3804  0.4404
  474MOL0     C63904   0.797   4.964   3.936 -0.0984 -0.2657 -0.1559
  474MOL0     N63905   1.399   5.134   3.604  0.4222 -0.6555  0.4608
  474MOL0     N63906   1.496   5.142   3.518 -0.1558 -1.0799 -0.6102
  474MOL0     C63907   1.899   6.311   3.599 -0.5530 -0.7852 -0.2152
  474MOL0     C63908   2.011   6.366   3.667  1.5166  0.3010 -0.4559
  474MOL0     C63909   2.396   6.538   3.792 -0.3613  0.5872  0.0336
  474MOL0     C63910   2.470   6.417   3.821 -0.4555  0.2852  0.0192
  474MOL0     C63911   2.592   6.413   3.881  0.0759 -0.3609 -0.1767
  474MOL0     C63912   2.644   6.532   3.922 -0.4285  0.5405  0.2859
  474MOL0     O63913   2.764   6.526   3.996  0.3675  0.0927  0.5187
  474MOL0     C63914   2.766   6.597   4.121 -0.3724 -0.2615 -0.4577
  474MOL0     C63915   2.836   6.518   4.216  0.2411 -0.6021  0.4693
  474MOL0     C63916   2.755   6.394   4.262  0.7001  0.1793 -0.6654
  474MOL0     C63917   2.828   6.314   4.380 -0.4036 -0.9316 -0.2698
  474MOL0     C63918   2.967   6.283   4.333 -0.1038 -0.1929  0.3202
  474MOL0     C63919   3.074   6.274   4.286 -0.0943  0.6456 -0.5298
  474MOL0     C63920   2.580   6.661   3.897  0.4963  0.8889  1.0711
  474MOL0     C63921   2.457   6.656   3.828 -0.6238 -0.2056 -0.3629
  474MOL0     C63922   2.409   6.794   3.791  0.2511  0.5636  0.3786
  474MOL0     H63923   2.227   6.269   3.424 -0.2717  2.0332  0.0688
  474MOL0     H63924   2.019   6.159   3.341 -1.4527 -1.3185  0.2263
  474MOL0     H63925   1.821   6.120   3.249 -0.4422 -0.8018 -0.9818
  474MOL0     H63926   1.841   6.004   3.375  0.9698  0.0842 -1.6664
  474MOL0     H63927   1.572   6.071   3.275 -0.4553 -0.6164  0.8837
  474MOL0     H63928   1.598   6.015   3.446 -2.2020  2.4010  0.0345
  474MOL0     H63929   1.691   5.806   3.359  0.2825  0.9192 -0.6900
  474MOL0     H63930   1.677   5.860   3.201  1.5090 -1.6021 -0.0416
  474MOL0     H63931   1.443   5.813   3.392  0.7224 -0.7522  0.3089
  474MOL0     H63932   1.433   5.869   3.225  0.4986  1.2176  0.3728
  474MOL0     H63933   1.405   5.634   3.207  0.0649 -1.5270  2.5091
  474MOL0     H63934   1.567   5.667   3.147 -1.6545 -1.9361 -2.0505
  474MOL0     H63935   1.652   5.609   3.380 -1.0224  0.0014  2.3271
  474MOL0     H63936   1.496   5.578   3.433 -0.6980  1.5524 -0.3895
  474MOL0     H63937   1.599   5.418   3.196  1.2866  0.7165  0.7657
  474MOL0     H63938   1.444   5.408   3.283 -0.7863  0.3384  3.9439
  474MOL0     H63939   1.680   5.265   3.348 -0.2506 -0.8451 -0.1466
  474MOL0     H63940   1.688   5.386   3.449  1.5877 -2.8800 -1.0056
  474MOL0     H63941   1.396   5.455   3.555 -3.4341 -0.3817  0.1366
  474MOL0     H63942   1.291   5.383   3.766  3.0054 -0.2049 -1.6452
  474MOL0     H63943   1.141   5.284   3.703 -1.3101 -0.4346  5.2037
  474MOL0     H63944   1.199   5.102   3.834  0.4145  0.3611 -1.0582
  474MOL0     H63945   1.349   5.191   3.892 -0.7513 -1.7428  3.0129
  474MOL0     H63946   1.196   5.365   3.990 -3.2817  2.2804  0.5137
  474MOL0     H63947   1.167   5.207   4.061 -1.9155  1.7629 -0.2003
  474MOL0     H63948   1.005   5.337   3.845  1.0016  0.1476 -0.9428
  474MOL0     H63949   0.969   5.314   4.020 -3.1060 -0.2331 -0.3295
  474MOL0     H63950   0.953   5.151   4.169 -0.2025 -1.4043  1.2039
  474MOL0     H63951   0.838   4.988   4.311  2.6492 -0.6427 -0.4165
  474MOL0     H63952   0.659   4.563   4.460  0.8554  1.0270 -0.8537
  474MOL0     H63953   0.534   4.489   4.672 -1.6968 -1.9948 -3.6612
  474MOL0     H63954   0.351   4.448   4.787  1.5417 -1.9446  1.1747
  474MOL0     H63955   0.470   4.481   4.912  0.3427  0.9079  2.1108
  474MOL0     H63956   0.286   4.594   5.041  1.6182  0.9152 -0.7927
  474MOL0     H63957   0.168   4.513   4.932 -0.2874  0.0811  1.2271
  474MOL0     H63958   0.297   4.295   5.007 -3.1926 -1.3009  0.6778
  474MOL0     H63959   0.365   4.394   5.123  1.6137  2.4036 -2.1653
  474MOL0     H63960   0.049   4.393   5.101 -0.3623 -0.4194 -0.1494
  474MOL0     H63961   0.149   4.468   5.223 -2.1403  1.9080 -1.3363
  474MOL0     H63962   0.243   4.217   5.237  1.0814  2.6006 -0.9607
  474MOL0     H63963   0.081   4.181   5.163 -2.2085  1.2370  0.1205
  474MOL0     H63964   0.082   4.172   5.431  1.8160 -1.5957 -2.1241
  474MOL0     H63965   0.079   4.350   5.411 -1.6363 -0.0372 -0.6363
  474MOL0     H63966  -0.119   4.177   5.277 -1.6509  1.5357 -0.0902
  474MOL0     H63967  -0.113   4.356   5.292 -1.5454  1.4834  2.8148
  474MOL0     H63968  -0.126   4.373   5.508  1.0880  2.0608 -0.6838
  474MOL0     H63969  -0.266   4.281   5.462  1.3604  1.5557 -1.8771
  474MOL0     H63970   0.392   4.888   4.739  0.8549  2.0135 -1.8140
  474MOL0     H63971   0.535   4.967   4.573 -2.0713  1.0428  2.9513
  474MOL0     H63972   0.674   4.806   3.967 -0.7262  1.1686  0.3179
  474MOL0     H63973   0.799   4.947   3.829 -1.5547  0.5855 -0.3472
  474MOL0     H63974   1.800   6.331   3.639 -0.0030  2.0434 -0.1164
  474MOL0     H63975   2.034   6.426   3.755  4.1352 -2.4114  0.9077
  474MOL0     H63976   2.434   6.317   3.798 -0.0987  0.5965 -2.1226
  474MOL0     H63977   2.644   6.320   3.902  1.7465  0.7721  1.0247
  474MOL0     H63978   2.665   6.615   4.161 -0.4990 -3.2539  0.8660
  474MOL0     H63979   2.829   6.685   4.106  1.8631 -1.6443  0.3771
  474MOL0     H63980   2.863   6.582   4.301  0.4137  0.2685 -0.2226
  474MOL0     H63981   2.924   6.480   4.164 -0.4816 -0.0757 -1.2155
  474MOL0     H63982   2.733   6.329   4.178 -1.4410 -1.2904  0.9158
  474MOL0     H63983   2.660   6.434   4.298 -0.7645 -2.7053 -1.1141
  474MOL0     H63984   2.832   6.381   4.466 -0.0646 -2.3198  0.8275
  474MOL0     H63985   2.776   6.220   4.403 -0.8358 -1.0359 -1.5605
  474MOL0     H63986   3.175   6.283   4.253 -0.3886  4.2479 -0.8218
  474MOL0     H63987   2.631   6.747   3.939  2.1308 -0.8129  2.7682
  474MOL0     H63988   2.479   6.868   3.831 -0.6938  0.9078  1.4543
  474MOL0     H63989   2.393   6.795   3.682  0.1736 -0.9311  0.3668
  474MOL0     H63990   2.318   6.818   3.847 -0.2252 -0.7188  0.1869
  475MOL0     O63991   1.305   5.583   0.891  0.5583  0.1481  0.3867
  475MOL0     C63992   1.286   5.655   0.990 -0.4635  0.3328  0.2570
  475MOL0     O63993   1.179   5.673   1.059  0.2170 -0.0057 -0.0277
  475MOL0     C63994   1.078   5.574   1.059  0.3864 -0.8480 -0.2987
  475MOL0     C63995   1.012   5.542   1.172  0.5984  0.9869 -0.9504
  475MOL0     C63996   0.895   5.462   1.173 -0.4029 -1.1057 -0.7838
  475MOL0     C63997   0.842   5.426   1.048 -0.3278  0.0075 -0.4780
  475MOL0     O63998   0.727   5.355   1.034 -0.2011 -0.5898  0.2989
  475MOL0     C63999   0.651   5.318   1.157  0.1745 -0.2271  0.3330
  475MOL0     C64000   0.564   5.197   1.145  0.4432  0.2912  0.2785
  475MOL0     C64001   0.445   5.208   1.045  1.1306 -0.2142  1.3843
  475MOL0     C64002   0.342   5.094   1.052  0.0624 -0.0832  0.0795
  475MOL0     C64003   0.234   5.105   0.955 -0.2974 -0.6838 -0.2622
  475MOL0     C64004   0.150   5.228   0.984 -0.1636  0.6116 -0.5778
  475MOL0     C64005   0.010   5.208   0.923 -1.5278  0.2717 -0.6253
  475MOL0     C64006  -0.064   5.333   0.870 -0.3757 -0.8122 -0.4425
  475MOL0     N64007  -0.196   5.283   0.823  0.1605  0.3017  0.0035
  475MOL0     C64008  -0.317   5.352   0.847  0.4486 -0.3412 -0.2356
  475MOL0     C64009  -0.415   5.283   0.786 -0.9721  0.5444 -0.1539
  475MOL0     C64010  -0.562   5.305   0.802 -0.3836  0.3588  0.3391
  475MOL0     C64011  -0.605   5.293   0.951 -0.3292 -0.9708  0.0568
  475MOL0     C64012  -0.572   5.159   1.018 -0.2207  0.3587  0.9269
  475MOL0     C64013  -0.629   5.029   0.949  0.8681 -0.1584  0.0532
  475MOL0     O64014  -0.765   5.031   0.977  0.3622  0.6492  0.2574
  475MOL0     C64015  -0.847   4.925   0.971  0.0666 -0.1583 -0.9656
  475MOL0     C64016  -0.803   4.799   0.943  0.4990  0.2093  0.7878
  475MOL0     C64017  -0.893   4.688   0.955 -0.0292 -0.3192  0.5976
  475MOL0     C64018  -1.023   4.710   1.001 -0.2833 -0.3134 -0.3553
  475MOL0     C64019  -1.119   4.602   1.024 -1.3003 -1.1782 -0.3282
  475MOL0     O64020  -1.245   4.637   1.054  0.8157  0.0737 -0.0525
  475MOL0     C64021  -1.344   4.544   1.081 -0.6694 -0.1736  0.8331
  475MOL0     C64022  -1.401   4.464   0.979  0.3329 -0.2325 -0.3308
  475MOL0     C64023  -1.500   4.376   1.012  0.0937 -0.0388  0.7382
  475MOL0     C64024  -1.552   4.379   1.142  0.5355  1.0835  0.2432
  475MOL0     O64025  -1.655   4.295   1.174  0.3178 -0.1704 -0.0647
  475MOL0     C64026  -1.706   4.194   1.086 -0.6834  0.9628 -1.1467
  475MOL0     C64027  -1.741   4.079   1.183 -0.7630  1.0470  0.1707
  475MOL0     C64028  -1.793   3.958   1.109 -1.2665 -0.1681  0.2675
  475MOL0     C64029  -1.873   3.861   1.208 -0.7610  0.1591  0.6820
  475MOL0     C64030  -1.881   3.706   1.170 -0.8548  0.8091 -0.0550
  475MOL0     C64031  -1.959   3.622   1.272  0.0672 -0.3079 -0.2168
  475MOL0     C64032  -2.112   3.653   1.280 -1.5581 -0.1174 -0.0583
  475MOL0     C64033  -2.176   3.634   1.143  0.1883 -0.6405  0.2554
  475MOL0    Cl64034  -2.334   3.726   1.161  0.0096  0.3510 -0.0763
  475MOL0     C64035  -1.507   4.465   1.241 -0.9270 -0.4526  0.4476
  475MOL0     C64036  -1.397   4.546   1.212  0.0910 -0.3006  1.0206
  475MOL0     O64037  -1.073   4.487   1.018  0.3924  0.9657 -0.0449
  475MOL0     C64038  -1.059   4.839   1.030  0.7631 -0.6248 -0.1633
  475MOL0     C64039  -0.978   4.954   1.010 -0.4156  0.0392 -0.7424
  475MOL0     N64040  -0.355   5.169   0.731 -0.4463 -0.5804  0.0445
  475MOL0     N64041  -0.223   5.174   0.747 -0.2628  0.0305 -0.3827
  475MOL0     C64042   0.914   5.466   0.931  0.8072  0.1935  0.1628
  475MOL0     C64043   1.025   5.544   0.931 -0.3998  1.0893  0.3654
  475MOL0     C64044   1.405   5.736   1.011 -1.1748 -0.4448 -0.4685
  475MOL0     C64045   1.393   5.870   1.063  0.0226  0.3061  0.2768
  475MOL0     C64046   1.506   5.950   1.088 -0.6634  0.0661  0.3073
  475MOL0     C64047   1.629   5.911   1.053 -0.7922  0.7029  0.6787
  475MOL0     O64048   1.738   5.988   1.079  0.3085  0.1617  0.3577
  475MOL0     C64049   1.725   6.129   1.096 -0.0175  1.5649 -0.3283
  475MOL0     C64050   1.824   6.171   1.195 -0.2596 -0.4298  0.3915
  475MOL0     C64051   1.966   6.105   1.186 -0.7348  0.8353  0.2929
  475MOL0     C64052   2.075   6.170   1.271  0.1194 -0.0850 -0.3387
  475MOL0     C64053   2.191   6.085   1.269  0.1630  0.9019 -0.5244
  475MOL0     C64054   2.298   6.027   1.267  0.3659 -0.0791 -0.8887
  475MOL0     C64055   1.649   5.779   1.001  0.3560  0.0300 -0.0586
  475MOL0     C64056   1.541   5.691   0.987 -0.1950  0.5726 -0.2238
  475MOL0     C64057   1.580   5.547   0.950  0.4611 -0.2960  0.7630
  475MOL0     H64058   1.034   5.597   1.263  1.9656  1.2429 -1.4088
  475MOL0     H64059   0.852   5.441   1.271  1.9890 -0.5126  0.4747
  475MOL0     H64060   0.708   5.297   1.248  2.5710 -1.0136 -1.2410
  475MOL0     H64061   0.599   5.415   1.160  1.7634  0.7923 -1.9226
  475MOL0     H64062   0.529   5.165   1.244  2.2262  4.1711  2.4189
  475MOL0     H64063   0.641   5.123   1.121  2.0143  2.4928 -1.9989
  475MOL0     H64064   0.491   5.211   0.946 -1.2728 -0.3345  0.2021
  475MOL0     H64065   0.398   5.306   1.049  3.6484  1.3008 -1.7452
  475MOL0     H64066   0.402   5.005   1.032 -1.6702 -1.5692  1.2645
  475MOL0     H64067   0.284   5.083   1.143 -1.2562  1.4838 -0.5220
  475MOL0     H64068   0.271   5.107   0.852 -0.7165 -0.4419 -0.4073
  475MOL0     H64069   0.164   5.021   0.953 -0.7944 -0.2645 -1.0846
  475MOL0     H64070   0.148   5.257   1.089  4.0684 -0.7391  0.0623
  475MOL0     H64071   0.197   5.311   0.930 -0.0301  0.3146 -0.9307
  475MOL0     H64072  -0.055   5.158   0.995 -0.1653 -2.6317 -1.2609
  475MOL0     H64073   0.022   5.147   0.833  1.3355 -0.1874 -0.0125
  475MOL0     H64074  -0.062   5.421   0.934  3.9129 -0.9272 -0.1550
  475MOL0     H64075  -0.005   5.371   0.786 -0.0116 -2.2097 -0.8573
  475MOL0     H64076  -0.330   5.439   0.909  1.5779 -0.5867  0.3856
  475MOL0     H64077  -0.597   5.398   0.756 -1.6097 -1.7471 -3.4175
  475MOL0     H64078  -0.613   5.235   0.735 -1.0485  1.0336  0.1221
  475MOL0     H64079  -0.543   5.364   1.006 -4.0957  3.6228 -1.0014
  475MOL0     H64080  -0.710   5.322   0.954 -0.0765 -0.0668  0.2065
  475MOL0     H64081  -0.615   5.161   1.118 -0.4276 -0.8497  0.8769
  475MOL0     H64082  -0.463   5.153   1.022 -0.0475  2.2974  0.0598
  475MOL0     H64083  -0.568   4.942   0.977 -2.2118 -2.5139 -0.0365
  475MOL0     H64084  -0.619   5.039   0.841 -2.0628 -0.5920 -0.3297
  475MOL0     H64085  -0.701   4.774   0.915 -0.1622  0.1322 -1.8795
  475MOL0     H64086  -0.859   4.586   0.941  0.6782 -0.0463  0.2540
  475MOL0     H64087  -1.356   4.455   0.881 -0.9425 -1.9186 -0.8043
  475MOL0     H64088  -1.519   4.312   0.927 -0.7309  2.0719 -0.7587
  475MOL0     H64089  -1.792   4.223   1.025 -0.5155  0.6276 -1.5545
  475MOL0     H64090  -1.623   4.158   1.025 -0.9143  1.4011 -1.7339
  475MOL0     H64091  -1.642   4.064   1.227 -0.6513  2.0955  0.3089
  475MOL0     H64092  -1.805   4.102   1.269  1.4543 -1.7724  2.8049
  475MOL0     H64093  -1.859   3.998   1.031 -1.4123 -0.5289  0.2029
  475MOL0     H64094  -1.708   3.910   1.060 -3.1658 -0.6199 -2.9223
  475MOL0     H64095  -1.977   3.885   1.233 -1.3363 -2.9563  1.8600
  475MOL0     H64096  -1.812   3.863   1.298  1.5914  1.3583 -0.8491
  475MOL0     H64097  -1.778   3.670   1.178 -1.0381  0.6945  3.3474
  475MOL0     H64098  -1.923   3.701   1.069  2.1160  2.7537 -1.5242
  475MOL0     H64099  -1.937   3.515   1.259  0.0694 -0.0352 -3.2629
  475MOL0     H64100  -1.914   3.642   1.369  0.7868 -0.4543 -0.5130
  475MOL0     H64101  -2.118   3.755   1.317  0.1747 -0.9205  2.7643
  475MOL0     H64102  -2.169   3.588   1.348 -4.6693  2.3136 -0.1279
  475MOL0     H64103  -2.114   3.666   1.059  2.7965 -3.4026  0.9445
  475MOL0     H64104  -2.198   3.528   1.129 -1.9319 -0.3430  0.9821
  475MOL0     H64105  -1.560   4.481   1.334 -0.5834 -0.6025  0.6713
  475MOL0     H64106  -1.353   4.607   1.290  3.0933 -1.8920  0.7004
  475MOL0     H64107  -1.159   4.852   1.071  0.0048 -1.8413 -1.5295
  475MOL0     H64108  -1.003   5.058   1.027  0.6639  0.5181 -1.8644
  475MOL0     H64109   0.870   5.436   0.836 -0.2892  0.5634  0.5392
  475MOL0     H64110   1.066   5.578   0.837 -1.8702  0.5169 -0.5078
  475MOL0     H64111   1.295   5.914   1.080 -0.2528  0.2169 -0.9868
  475MOL0     H64112   1.477   6.047   1.128  0.8328  1.3514 -1.5698
  475MOL0     H64113   1.634   6.164   1.147  0.9316  0.3586  2.3675
  475MOL0     H64114   1.733   6.179   0.999  3.9283  4.0943  1.0487
  475MOL0     H64115   1.780   6.153   1.293  2.6298  1.1729  2.1347
  475MOL0     H64116   1.838   6.280   1.188 -0.2538 -0.4465  0.1454
  475MOL0     H64117   1.994   6.103   1.080 -0.2554  2.2847  0.3780
  475MOL0     H64118   1.949   6.001   1.217  1.5367  0.4257  0.3997
  475MOL0     H64119   2.091   6.270   1.231  1.4548  0.0172  0.4001
  475MOL0     H64120   2.041   6.175   1.375 -0.3686  0.0013 -0.4957
  475MOL0     H64121   2.397   5.989   1.283  0.1814 -1.1088 -2.0365
  475MOL0     H64122   1.751   5.748   0.982  0.9869 -0.2480  3.2737
  475MOL0     H64123   1.562   5.484   1.037  1.8367  1.3669  2.3291
  475MOL0     H64124   1.524   5.504   0.866 -0.9009  1.9276  0.4250
  475MOL0     H64125   1.686   5.547   0.925 -0.0201 -0.1559 -1.5707
  476MOL0     O64126  11.302  11.366   7.593 -0.0772 -0.2907 -0.1859
  476MOL0     C64127  11.260  11.482   7.592  1.0828 -0.0314  0.7576
  476MOL0     O64128  11.240  11.557   7.700 -0.0245  0.2567  0.5453
  476MOL0     C64129  11.286  11.509   7.823  0.0143  0.6357  0.7615
  476MOL0     C64130  11.195  11.491   7.918 -0.4282  1.9136  0.2735
  476MOL0     C64131  11.227  11.444   8.050 -1.7074  1.0207  0.2064
  476MOL0     C64132  11.365  11.424   8.077  0.2652  0.2291  0.6790
  476MOL0     O64133  11.397  11.355   8.193  0.1781 -0.3525 -0.6517
  476MOL0     C64134  11.524  11.285   8.196  0.1829 -0.1776 -0.4989
  476MOL0     C64135  11.520  11.185   8.322 -0.4356 -1.2898  0.0075
  476MOL0     C64136  11.419  11.074   8.315  0.9264 -0.0619 -0.7589
  476MOL0     C64137  11.280  11.116   8.376 -0.1811  0.1145  0.5062
  476MOL0     C64138  11.184  11.003   8.356 -0.2357 -0.1235 -0.0782
  476MOL0     C64139  11.209  10.867   8.418 -0.5990 -0.8650 -1.2892
  476MOL0     C64140  11.088  10.791   8.479  0.4323 -0.1821  0.1149
  476MOL0     C64141  11.133  10.670   8.571  0.9901 -0.3425 -0.2286
  476MOL0     N64142  11.011  10.601   8.625  0.3062 -0.5836  0.2604
  476MOL0     C64143  10.912  10.660   8.702 -0.5468  0.5491 -0.2493
  476MOL0     C64144  10.840  10.554   8.767  0.4074 -0.3664  0.7702
  476MOL0     C64145  10.716  10.580   8.850  0.8032 -0.2906 -0.4038
  476MOL0     C64146  10.754  10.615   8.992  0.7928  0.5315  0.2510
  476MOL0     C64147  10.806  10.510   9.092  0.1852  0.6138 -0.7007
  476MOL0     C64148  10.909  10.565   9.187 -1.0669 -0.4600 -0.9725
  476MOL0     O64149  10.970  10.456   9.266  0.4565  0.3337  0.0270
  476MOL0     C64150  11.031  10.496   9.384  0.2529  0.6967 -0.2988
  476MOL0     C64151  11.065  10.631   9.428 -0.5713  0.7705 -0.2431
  476MOL0     C64152  11.131  10.661   9.544  0.3949  0.1291  0.1643
  476MOL0     C64153  11.165  10.554   9.629  0.5910 -0.0715  0.1190
  476MOL0     C64154  11.233  10.594   9.758  0.0154  0.1495 -0.0738
  476MOL0     O64155  11.263  10.486   9.843  0.0950  0.2721 -0.1609
  476MOL0     C64156  11.285  10.513   9.985 -0.3553  0.1043  0.4134
  476MOL0     C64157  11.188  10.505  10.083 -0.2464 -0.2437 -0.5878
  476MOL0     C64158  11.216  10.534  10.218 -0.3748  0.3248  0.3536
  476MOL0     C64159  11.341  10.558  10.267 -0.7693  0.4931  0.3455
  476MOL0     O64160  11.387  10.565  10.397 -0.2534  0.0067 -0.0664
  476MOL0     C64161  11.287  10.585  10.502  0.3073  0.2876  0.4381
  476MOL0     C64162  11.232  10.449  10.551  0.0571 -0.6966  0.7938
  476MOL0     C64163  11.185  10.446  10.701 -0.3449  0.2947 -0.0326
  476MOL0     C64164  11.302  10.394  10.782 -0.4273  0.0538 -0.8967
  476MOL0     C64165  11.279  10.411  10.933 -0.5728 -0.2177 -0.5995
  476MOL0     C64166  11.324  10.539  10.993  0.0278 -0.2460 -0.2141
  476MOL0     C64167  11.256  10.570  11.122 -0.3344  0.4991 -0.2652
  476MOL0     C64168  11.141  10.652  11.105 -0.2894  0.0526 -0.5611
  476MOL0    Cl64169  11.056  10.663  11.260  0.1583 -0.1622  0.4570
  476MOL0     C64170  11.441  10.573  10.168 -0.3633 -0.0919  0.8897
  476MOL0     C64171  11.413  10.558  10.025  0.0676 -0.9804  0.9579
  476MOL0     O64172  11.271  10.708   9.777  0.2864  0.5896 -0.2270
  476MOL0     C64173  11.141  10.420   9.588  0.7042  0.6564 -0.6092
  476MOL0     C64174  11.066  10.394   9.469 -0.2270 -0.0083 -0.3481
  476MOL0     N64175  10.903  10.435   8.711 -0.4784 -0.6088 -0.8273
  476MOL0     N64176  11.005  10.466   8.632  0.0365  0.0268 -0.2980
  476MOL0     C64177  11.456  11.452   7.978 -0.4424  1.3252  0.2503
  476MOL0     C64178  11.419  11.498   7.852  0.4207  0.0534 -0.7752
  476MOL0     C64179  11.201  11.535   7.456 -0.4314 -0.2794 -0.2390
  476MOL0     C64180  11.141  11.438   7.367  0.1598  0.1999  0.5677
  476MOL0     C64181  11.073  11.477   7.249 -0.3435  0.2598  0.5352
  476MOL0     C64182  11.058  11.618   7.218  0.4016 -0.4773 -0.1442
  476MOL0     O64183  10.971  11.668   7.118 -0.0035  0.1976  0.2625
  476MOL0     C64184  10.965  11.591   7.001  0.1245 -0.5853 -1.3218
  476MOL0     C64185  10.861  11.650   6.906  1.5112 -0.3738  0.5080
  476MOL0     C64186  10.720  11.643   6.960  0.3177  0.1943  0.0835
  476MOL0     C64187  10.619  11.715   6.876  0.8471  0.8957  0.5597
  476MOL0     C64188  10.607  11.645   6.744  0.7046 -0.0055  0.1743
  476MOL0     C64189  10.594  11.572   6.652 -1.4270 -0.2882 -0.0264
  476MOL0     C64190  11.132  11.708   7.303  0.5446 -1.3552  0.5318
  476MOL0     C64191  11.204  11.670   7.416 -0.2521 -0.2957 -0.4946
  476MOL0     C64192  11.290  11.775   7.493  0.1630 -0.4098 -0.6142
  476MOL0     H64193  11.094  11.507   7.882 -1.8067 -2.1680  1.7538
  476MOL0     H64194  11.165  11.421   8.136  1.0503 -0.0626  2.0476
  476MOL0     H64195  11.531  11.227   8.104  2.4605  0.8751 -1.0510
  476MOL0     H64196  11.607  11.355   8.203 -0.2161  0.6776 -3.2842
  476MOL0     H64197  11.503  11.239   8.415  3.7808 -3.0256  2.0383
  476MOL0     H64198  11.623  11.152   8.337  1.1096  2.3085 -1.4840
  476MOL0     H64199  11.453  10.990   8.377 -0.5292 -0.4588 -0.4525
  476MOL0     H64200  11.410  11.037   8.212  2.0183 -0.2426 -0.8007
  476MOL0     H64201  11.296  11.137   8.482 -1.4097 -1.7527  1.1231
  476MOL0     H64202  11.242  11.201   8.319  0.4487 -1.7247 -2.9006
  476MOL0     H64203  11.085  11.039   8.387  1.1335  2.3266  1.8729
  476MOL0     H64204  11.184  10.978   8.250  2.9499 -1.1832  0.0462
  476MOL0     H64205  11.244  10.798   8.341  0.1346  0.4654 -2.1751
  476MOL0     H64206  11.283  10.883   8.497 -0.1688  0.7239 -1.9703
  476MOL0     H64207  11.025  10.739   8.406  3.6032 -0.3961 -2.7634
  476MOL0     H64208  11.028  10.856   8.543 -0.8585 -2.1076  0.9764
  476MOL0     H64209  11.200  10.602   8.517 -0.0349 -1.1305 -0.5519
  476MOL0     H64210  11.185  10.701   8.662 -2.4176 -2.3201  2.6537
  476MOL0     H64211  10.897  10.767   8.716  0.4693  0.4292  2.1508
  476MOL0     H64212  10.660  10.664   8.809  1.6973 -0.3139 -1.7214
  476MOL0     H64213  10.660  10.486   8.841  1.2704 -0.5079 -1.1169
  476MOL0     H64214  10.820  10.701   8.981 -1.3387  2.2303  0.1679
  476MOL0     H64215  10.662  10.656   9.034 -0.8127  0.6367 -3.0791
  476MOL0     H64216  10.859  10.431   9.037  2.7328  1.2413  0.7087
  476MOL0     H64217  10.721  10.461   9.140  1.1354 -1.0341 -0.6109
  476MOL0     H64218  10.860  10.642   9.247 -0.3159 -1.1887  0.6391
  476MOL0     H64219  10.983  10.618   9.127  0.7837  1.0787  2.3440
  476MOL0     H64220  11.032  10.720   9.374 -1.0662  0.8705  0.2216
  476MOL0     H64221  11.150  10.766   9.564 -0.1557  0.6705 -1.9073
  476MOL0     H64222  11.089  10.472  10.053 -0.0973 -0.8161 -0.4618
  476MOL0     H64223  11.137  10.532  10.293  0.4548 -0.5189  1.2428
  476MOL0     H64224  11.324  10.639  10.589 -1.6990  0.2086  1.3950
  476MOL0     H64225  11.198  10.644  10.478  0.7401  0.4761 -0.8149
  476MOL0     H64226  11.149  10.407  10.493  1.5597 -2.4546 -0.1914
  476MOL0     H64227  11.313  10.377  10.536  0.2950 -0.5053  1.1232
  476MOL0     H64228  11.155  10.545  10.740 -4.3203  0.5565 -3.0885
  476MOL0     H64229  11.109  10.369  10.711  0.7187 -0.9452 -1.2050
  476MOL0     H64230  11.403  10.429  10.757  0.6982 -0.9014  1.8513
  476MOL0     H64231  11.313  10.286  10.768 -2.7050 -0.5295  1.1402
  476MOL0     H64232  11.320  10.331  10.994  0.7545 -0.0173 -1.1889
  476MOL0     H64233  11.172  10.410  10.956 -0.1961  1.0418  1.4398
  476MOL0     H64234  11.432  10.541  11.010  0.0560 -0.4298 -0.3672
  476MOL0     H64235  11.308  10.614  10.914  1.8460 -1.1314 -1.5097
  476MOL0     H64236  11.333  10.617  11.185 -0.5710 -0.4980  0.7857
  476MOL0     H64237  11.228  10.480  11.177 -1.6167 -0.2121 -2.0035
  476MOL0     H64238  11.152  10.753  11.064 -2.0829 -1.1591 -4.5834
  476MOL0     H64239  11.078  10.603  11.030 -0.8110 -0.7255  0.3587
  476MOL0     H64240  11.542  10.603  10.192 -1.4712  2.2170  3.1383
  476MOL0     H64241  11.486  10.591   9.952 -2.4728  2.8356 -0.1915
  476MOL0     H64242  11.175  10.335   9.646 -0.7785 -0.6367 -1.5513
  476MOL0     H64243  11.049  10.292   9.436  1.5221  0.3730 -2.7585
  476MOL0     H64244  11.560  11.422   7.988 -1.0857 -1.3150 -0.1061
  476MOL0     H64245  11.493  11.512   7.774  2.8285  0.7274  1.4963
  476MOL0     H64246  11.153  11.331   7.382  0.5127  0.2507  0.6594
  476MOL0     H64247  11.016  11.402   7.195 -1.6431  0.9549  0.8787
  476MOL0     H64248  10.931  11.489   7.024  0.1779 -0.4382 -0.5730
  476MOL0     H64249  11.066  11.594   6.960  1.4385  1.4272  1.7798
  476MOL0     H64250  10.868  11.592   6.813 -0.2770 -0.6838  0.5217
  476MOL0     H64251  10.884  11.755   6.885  1.1566 -0.8963 -3.3166
  476MOL0     H64252  10.707  11.683   7.061  5.1702  1.6676  0.4056
  476MOL0     H64253  10.697  11.536   6.960 -0.1288  0.2886 -0.4345
  476MOL0     H64254  10.528  11.699   6.935  1.3582  0.3460  1.2038
  476MOL0     H64255  10.637  11.823   6.870 -2.4344  1.5388  0.4181
  476MOL0     H64256  10.579  11.498   6.576 -0.2450 -0.1599 -0.4083
  476MOL0     H64257  11.110  11.814   7.293 -0.4023 -1.5093  0.9250
  476MOL0     H64258  11.277  11.872   7.444  1.5847  0.2944  0.3252
  476MOL0     H64259  11.270  11.775   7.601 -0.7658  1.2603 -0.7610
  476MOL0     H64260  11.396  11.747   7.485  0.3170 -1.6118  3.3924
  477MOL0     O64261   1.694  10.545   8.021 -0.3649  0.5013 -0.2163
  477MOL0     C64262   1.770  10.504   7.933  0.3265  0.3588 -0.0861
  477MOL0     O64263   1.765  10.551   7.809 -0.5898  0.2303  0.0845
  477MOL0     C64264   1.717  10.678   7.774  0.1133  0.8262 -0.7523
  477MOL0     C64265   1.740  10.798   7.841 -1.0081 -0.3242  0.1042
  477MOL0     C64266   1.671  10.912   7.804  0.3549  0.3726 -0.2714
  477MOL0     C64267   1.579  10.912   7.700  0.2226  0.1859 -1.3994
  477MOL0     O64268   1.524  11.023   7.645 -0.9336  0.7846 -0.7644
  477MOL0     C64269   1.548  11.150   7.708  0.3554 -0.1401  0.5871
  477MOL0     C64270   1.436  11.234   7.648 -0.0870 -0.0963 -0.5219
  477MOL0     C64271   1.427  11.386   7.687  0.2166  0.2852 -0.6373
  477MOL0     C64272   1.446  11.430   7.832 -0.5604  0.3507 -0.8438
  477MOL0     C64273   1.336  11.379   7.922  0.0938  1.4123 -0.2185
  477MOL0     C64274   1.344  11.419   8.068  0.5878  0.3668  0.0004
  477MOL0     C64275   1.483  11.384   8.132  0.2615 -0.2215  0.3875
  477MOL0     C64276   1.477  11.398   8.289  0.5372 -0.0288 -0.2795
  477MOL0     N64277   1.596  11.412   8.369 -0.3549 -0.2539 -0.7529
  477MOL0     C64278   1.604  11.382   8.502 -0.0897 -0.0483 -0.8799
  477MOL0     C64279   1.710  11.455   8.547  1.2764  0.1961  0.2140
  477MOL0     C64280   1.775  11.446   8.682 -1.2458  0.8437  0.0858
  477MOL0     C64281   1.931  11.452   8.668 -0.1143  0.2363  0.7440
  477MOL0     C64282   2.011  11.489   8.799  0.5988  0.6484 -0.4710
  477MOL0     C64283   1.975  11.633   8.836  0.5055  0.8635 -0.0363
  477MOL0     O64284   2.054  11.667   8.942 -0.2710 -0.2443  0.1731
  477MOL0     C64285   1.978  11.733   9.043 -0.5355 -0.6597 -0.1178
  477MOL0     C64286   1.920  11.860   9.023  0.1790 -0.5451 -0.5754
  477MOL0     C64287   1.846  11.918   9.131  0.2782 -0.8127  0.3378
  477MOL0     C64288   1.835  11.855   9.249  0.9262  0.3686 -0.1367
  477MOL0     C64289   1.738  11.909   9.347  0.0471  0.7116  0.7196
  477MOL0     O64290   1.711  11.826   9.448 -0.4889  0.2323  0.1068
  477MOL0     C64291   1.620  11.843   9.554 -0.1009 -0.3193 -0.2196
  477MOL0     C64292   1.506  11.919   9.544  0.6710 -0.6331 -0.8493
  477MOL0     C64293   1.423  11.932   9.658 -0.2271  0.1188  0.1201
  477MOL0     C64294   1.455  11.868   9.781  0.9022 -0.5393  0.9984
  477MOL0     O64295   1.371  11.903   9.889 -0.9991 -1.1548  0.3502
  477MOL0     C64296   1.326  11.783   9.957  0.3009 -0.4711 -0.6287
  477MOL0     C64297   1.186  11.809  10.007  0.5251  0.8228  0.1706
  477MOL0     C64298   1.091  11.874   9.900 -0.3066  0.2047 -0.3117
  477MOL0     C64299   0.956  11.902   9.964 -0.4628 -0.3922 -0.5874
  477MOL0     C64300   0.848  11.934   9.859 -0.3404  0.3516  0.6316
  477MOL0     C64301   0.722  12.002   9.904 -0.5344  0.2460 -0.0302
  477MOL0     C64302   0.727  12.113  10.005 -0.3487 -0.3441 -0.3853
  477MOL0     C64303   0.686  12.082  10.148  0.0790  0.6195 -0.0808
  477MOL0    Cl64304   0.513  12.016  10.149  0.3621 -0.5666 -0.0557
  477MOL0     C64305   1.575  11.807   9.795 -0.2375  0.0819  0.1194
  477MOL0     C64306   1.657  11.789   9.676 -0.4214 -0.2870 -1.0418
  477MOL0     O64307   1.703  12.030   9.346  0.4869  0.6854  0.3378
  477MOL0     C64308   1.898  11.725   9.263 -0.1650 -0.8593  0.1465
  477MOL0     C64309   1.963  11.667   9.157  0.0279  0.0051 -1.1111
  477MOL0     N64310   1.760  11.529   8.441  0.4483 -0.1182 -0.5092
  477MOL0     N64311   1.686  11.501   8.341  0.3842 -0.6609  0.0293
  477MOL0     C64312   1.544  10.793   7.636 -0.1548  0.3342  0.6940
  477MOL0     C64313   1.623  10.679   7.673  0.1153 -0.1084  0.2306
  477MOL0     C64314   1.873  10.391   7.956  0.4583 -0.3961  0.4770
  477MOL0     C64315   1.870  10.318   8.075 -0.4171 -0.4047 -0.3049
  477MOL0     C64316   1.964  10.218   8.105  0.1273 -0.1260 -0.2142
  477MOL0     C64317   2.050  10.174   8.007  0.1839 -0.0246  0.0715
  477MOL0     O64318   2.133  10.074   8.054 -1.0382 -0.1960  0.5954
  477MOL0     C64319   2.246  10.027   7.984 -0.5822 -0.6681  0.4575
  477MOL0     C64320   2.356   9.967   8.060 -0.7176  0.5029 -0.6346
  477MOL0     C64321   2.449   9.877   7.985 -0.0368  0.3213  0.1231
  477MOL0     C64322   2.561   9.826   8.075  0.4002 -0.7336  0.3431
  477MOL0     C64323   2.513   9.732   8.175  0.0960 -0.6890 -0.3843
  477MOL0     C64324   2.485   9.661   8.274  0.4783  0.7031  0.1155
  477MOL0     C64325   2.053  10.231   7.885 -0.0473  1.0406 -0.3972
  477MOL0     C64326   1.971  10.343   7.856  0.0245  0.5398  0.3151
  477MOL0     C64327   2.000  10.415   7.723 -0.2170  0.2737  1.2498
  477MOL0     H64328   1.814  10.801   7.921 -1.7880  0.3450  0.8230
  477MOL0     H64329   1.692  11.002   7.861 -1.6645  1.9744 -1.9124
  477MOL0     H64330   1.528  11.132   7.814 -3.8510  1.8808  0.3168
  477MOL0     H64331   1.649  11.189   7.692  2.3223 -5.1413 -0.9153
  477MOL0     H64332   1.342  11.190   7.682 -0.0268  1.2737  1.6734
  477MOL0     H64333   1.443  11.230   7.539  3.0499 -1.0988 -0.3995
  477MOL0     H64334   1.331  11.421   7.646  0.2277  0.7867 -0.2430
  477MOL0     H64335   1.504  11.435   7.627  1.2260 -0.3393  0.1240
  477MOL0     H64336   1.543  11.389   7.862 -1.8301 -0.8140  2.0761
  477MOL0     H64337   1.454  11.538   7.849  1.6591 -0.1321  2.0200
  477MOL0     H64338   1.241  11.416   7.882  0.2964  0.7906 -1.3173
  477MOL0     H64339   1.332  11.270   7.913 -0.7700  1.1535  2.3428
  477MOL0     H64340   1.316  11.525   8.073  2.2294  0.8895 -1.0966
  477MOL0     H64341   1.267  11.362   8.121 -0.4284 -2.6337 -4.2107
  477MOL0     H64342   1.557  11.455   8.093  1.9142 -1.4187  1.2410
  477MOL0     H64343   1.511  11.283   8.102 -1.8857 -0.2672 -1.8501
  477MOL0     H64344   1.420  11.488   8.315  0.3912 -0.3582  0.5821
  477MOL0     H64345   1.417  11.320   8.338 -1.0891  2.0321  1.2154
  477MOL0     H64346   1.539  11.316   8.559  2.5373 -3.1741 -1.1819
  477MOL0     H64347   1.748  11.533   8.743  2.0341 -0.0425  3.1605
  477MOL0     H64348   1.750  11.353   8.734  2.2349 -0.1032  0.2971
  477MOL0     H64349   1.957  11.354   8.626 -3.1719  0.6541 -2.5644
  477MOL0     H64350   1.956  11.526   8.592 -1.9269 -1.0613 -1.2061
  477MOL0     H64351   2.117  11.486   8.771  1.5734  2.5455  2.6094
  477MOL0     H64352   1.998  11.414   8.878  3.1018  0.3698 -0.2120
  477MOL0     H64353   1.868  11.647   8.856  0.5735 -0.9661  1.8661
  477MOL0     H64354   2.005  11.695   8.751  0.7819  1.9358  0.8205
  477MOL0     H64355   1.938  11.908   8.927  0.2654 -2.2579 -1.4572
  477MOL0     H64356   1.806  12.018   9.116 -0.7046 -1.4822 -1.9014
  477MOL0     H64357   1.473  11.957   9.448 -1.2589 -0.4026 -0.1494
  477MOL0     H64358   1.338  11.999   9.668 -0.0333  0.1136  2.2238
  477MOL0     H64359   1.315  11.699   9.888 -1.1580 -0.0225 -0.9931
  477MOL0     H64360   1.380  11.754  10.048 -0.5406 -0.8716 -0.2450
  477MOL0     H64361   1.134  11.717  10.037 -0.0877  1.5135  1.3216
  477MOL0     H64362   1.184  11.879  10.092  3.6677  1.1373  0.1127
  477MOL0     H64363   1.132  11.969   9.864  1.9851 -1.0772 -1.3066
  477MOL0     H64364   1.079  11.810   9.813  1.4880  1.6339 -1.6800
  477MOL0     H64365   0.969  11.981  10.038  0.5253 -1.4037  0.3601
  477MOL0     H64366   0.921  11.821  10.028 -1.3468  1.6307  1.6272
  477MOL0     H64367   0.825  11.843   9.802 -0.9471  1.3020 -0.6940
  477MOL0     H64368   0.901  11.993   9.784  1.0859 -0.1112  1.2385
  477MOL0     H64369   0.675  12.049   9.817  0.6374  1.8498  0.1682
  477MOL0     H64370   0.667  11.915   9.943 -1.5257  0.7228 -0.3314
  477MOL0     H64371   0.653  12.188   9.974  0.5139  0.4469 -0.5668
  477MOL0     H64372   0.823  12.164   9.998 -1.4132  1.8831  0.2266
  477MOL0     H64373   0.751  12.007  10.195  1.3805  1.6933 -0.1169
  477MOL0     H64374   0.689  12.168  10.215 -1.5503  0.5627  0.1028
  477MOL0     H64375   1.606  11.759   9.888  2.3943 -1.6623 -1.5115
  477MOL0     H64376   1.751  11.736   9.688 -1.0657 -1.1507  0.4606
  477MOL0     H64377   1.883  11.677   9.359  1.7479 -0.8248  0.4907
  477MOL0     H64378   2.014  11.572   9.172  0.8502  0.7568  1.4742
  477MOL0     H64379   1.474  10.809   7.555 -2.4471  2.7624  2.9753
  477MOL0     H64380   1.608  10.586   7.620 -0.7993  0.9305 -1.4361
  477MOL0     H64381   1.796  10.344   8.150 -0.5656  1.4805 -1.0399
  477MOL0     H64382   1.967  10.167   8.201  0.4715 -0.9144 -0.6394
  477MOL0     H64383   2.298  10.100   7.920 -0.3457 -1.5758 -0.3996
  477MOL0     H64384   2.200   9.959   7.912 -3.8771  1.0079  0.7513
  477MOL0     H64385   2.314   9.915   8.147 -0.0458 -0.1920 -0.7043
  477MOL0     H64386   2.417  10.047   8.103  0.7168 -0.6049 -0.5042
  477MOL0     H64387   2.478   9.937   7.898 -2.1414 -3.5863 -3.6301
  477MOL0     H64388   2.388   9.793   7.953  1.4291 -0.7070 -0.0855
  477MOL0     H64389   2.639   9.786   8.009  1.4659  0.5541  0.7877
  477MOL0     H64390   2.603   9.913   8.125  2.8718 -1.0883 -0.9860
  477MOL0     H64391   2.479   9.595   8.358 -0.9381 -1.3528 -1.4947
  477MOL0     H64392   2.122  10.199   7.807 -1.8233 -0.7303 -1.3420
  477MOL0     H64393   2.008  10.524   7.730  1.3948  0.4494 -1.7063
  477MOL0     H64394   2.088  10.383   7.668 -1.6497  0.0429 -1.0404
  477MOL0     H64395   1.911  10.400   7.661  0.2668  3.0241 -0.2961
  478MOL0     O64396   8.887   6.459   9.783  0.1194  0.5997 -0.7352
  478MOL0     C64397   8.956   6.521   9.862  0.6528  0.4055  1.2425
  478MOL0     O64398   9.050   6.458   9.947  0.2524 -0.0774 -0.3930
  478MOL0     C64399   9.030   6.319   9.958  0.7712 -0.7737  0.3963
  478MOL0     C64400   8.958   6.279  10.068 -0.1829 -0.2246 -1.0269
  478MOL0     C64401   8.938   6.143  10.092  0.6748  0.1517 -0.8107
  478MOL0     C64402   8.978   6.047   9.995 -0.0138 -0.4938  0.0071
  478MOL0     O64403   8.954   5.920  10.023 -0.6706  0.4874 -0.7061
  478MOL0     C64404   9.034   5.819   9.953 -0.0121 -0.3110  0.6457
  478MOL0     C64405   8.932   5.743   9.857  0.1024 -0.4168 -0.6790
  478MOL0     C64406   9.030   5.641   9.788 -0.1537 -0.5562 -0.1791
  478MOL0     C64407   8.949   5.547   9.693 -0.1759 -0.4642  0.1507
  478MOL0     C64408   9.040   5.419   9.661  0.2500 -0.0402 -0.0193
  478MOL0     C64409   9.053   5.319   9.767  0.3418  0.7550 -0.0408
  478MOL0     C64410   8.929   5.240   9.787 -0.2204 -0.2286 -1.2230
  478MOL0     C64411   8.960   5.124   9.881 -0.0522  0.5203  0.6849
  478MOL0     N64412   8.878   5.009   9.841  0.6736 -0.7734  0.8055
  478MOL0     C64413   8.754   4.983   9.888  0.2830  0.6593 -0.2638
  478MOL0     C64414   8.704   4.884   9.806 -0.1198 -0.3093  0.7507
  478MOL0     C64415   8.566   4.825   9.811  1.6571  0.8582  0.0122
  478MOL0     C64416   8.565   4.671   9.784  0.0375  0.0198  0.2130
  478MOL0     C64417   8.633   4.595   9.909  0.8171  0.7117  0.4538
  478MOL0     C64418   8.647   4.442   9.878 -0.4079 -0.3096  0.9014
  478MOL0     O64419   8.655   4.368  10.004 -0.8401  0.3877 -0.0082
  478MOL0     C64420   8.537   4.323  10.057 -0.2222 -0.4700  0.1589
  478MOL0     C64421   8.547   4.256  10.178  0.0378  0.5027  0.5788
  478MOL0     C64422   8.424   4.234  10.247 -0.1066 -0.8517 -0.3458
  478MOL0     C64423   8.298   4.288  10.212  0.0800 -1.1307 -0.0770
  478MOL0     C64424   8.175   4.274  10.288 -0.3258 -0.2371 -0.8360
  478MOL0     O64425   8.177   4.181  10.391 -0.4813  0.4537  0.3131
  478MOL0     C64426   8.079   4.181  10.491  0.1205 -0.3840 -0.0654
  478MOL0     C64427   8.097   4.074  10.578  1.0915  0.0364  0.4910
  478MOL0     C64428   8.028   4.063  10.696  0.4558 -0.6889 -0.5816
  478MOL0     C64429   7.934   4.156  10.734 -0.3711 -0.2775 -0.1486
  478MOL0     O64430   7.845   4.139  10.841 -0.1480 -0.5895 -0.0475
  478MOL0     C64431   7.859   4.029  10.919  0.7605  0.5937 -1.6947
  478MOL0     C64432   7.826   4.081  11.061  0.6797  0.3213  0.0735
  478MOL0     C64433   7.881   3.988  11.173 -0.2365  0.1530 -0.7947
  478MOL0     C64434   7.886   4.055  11.312 -0.3343  0.9367 -0.2054
  478MOL0     C64435   7.755   4.133  11.356  0.3008  0.4100 -0.3663
  478MOL0     C64436   7.770   4.199  11.503 -0.2262  0.0629 -0.1178
  478MOL0     C64437   7.743   4.107  11.616  0.4513  0.8778  0.6585
  478MOL0     C64438   7.865   4.080  11.704 -1.2091 -0.7419  1.1108
  478MOL0    Cl64439   7.822   3.941  11.805  0.0101 -0.8823 -0.0057
  478MOL0     C64440   7.908   4.264  10.646 -0.4802 -0.0153 -0.1648
  478MOL0     C64441   7.983   4.277  10.526 -0.5500 -0.1835  0.1720
  478MOL0     O64442   8.089   4.366  10.279  0.8006 -0.3778  0.5191
  478MOL0     C64443   8.293   4.361  10.097 -0.0174 -0.4082  0.5319
  478MOL0     C64444   8.405   4.385  10.026 -0.4415  0.4870  0.3521
  478MOL0     N64445   8.808   4.849   9.712  0.3703  0.4120 -0.1605
  478MOL0     N64446   8.897   4.930   9.729  0.3509 -0.6746 -0.3114
  478MOL0     C64447   9.044   6.087   9.878  0.0093  0.5254  0.0269
  478MOL0     C64448   9.068   6.226   9.866 -0.1279  0.0112  0.0554
  478MOL0     C64449   8.945   6.663   9.878  0.4804 -0.5996  0.6928
  478MOL0     C64450   9.064   6.737   9.883  0.1088 -1.4717  1.0718
  478MOL0     C64451   9.071   6.877   9.865 -0.1551  0.4274 -0.4722
  478MOL0     C64452   8.948   6.942   9.844  0.4446  0.2806 -0.5931
  478MOL0     O64453   8.963   7.076   9.833 -0.8333  0.6842  0.1438
  478MOL0     C64454   8.912   7.132   9.715 -0.3501 -0.0899  0.5606
  478MOL0     C64455   9.008   7.139   9.594  0.0041  0.5416  0.2458
  478MOL0     C64456   9.085   7.277   9.610 -1.3254  0.3506  0.4956
  478MOL0     C64457   9.161   7.309   9.473 -0.3093 -0.4264 -0.8739
  478MOL0     C64458   9.208   7.202   9.387 -0.0537  1.0395 -0.2346
  478MOL0     C64459   9.253   7.115   9.315 -0.2929  0.1284  0.0462
  478MOL0     C64460   8.823   6.876   9.858  0.8369 -0.9602  1.1101
  478MOL0     C64461   8.825   6.734   9.870 -0.8491 -1.0100  0.0499
  478MOL0     C64462   8.697   6.656   9.877 -0.4039 -0.0836  0.3453
  478MOL0     H64463   8.947   6.346  10.152  1.1462 -2.2192  0.8586
  478MOL0     H64464   8.889   6.124  10.188  2.4558  2.1610  0.5954
  478MOL0     H64465   9.124   5.857   9.904 -0.1774 -1.1111 -0.3034
  478MOL0     H64466   9.066   5.754  10.035 -3.7561 -0.9985  1.7442
  478MOL0     H64467   8.879   5.814   9.793 -1.2463 -0.3902  0.4369
  478MOL0     H64468   8.858   5.681   9.907 -1.9453  1.7695 -0.8175
  478MOL0     H64469   9.075   5.577   9.865  1.0746 -0.5646 -0.8687
  478MOL0     H64470   9.114   5.684   9.733  1.8605 -1.9366  1.6642
  478MOL0     H64471   8.850   5.519   9.730 -0.3755 -0.8046 -0.6266
  478MOL0     H64472   8.924   5.598   9.599  0.7772 -0.1946  0.0262
  478MOL0     H64473   8.990   5.377   9.574 -3.6757  1.2962  1.3385
  478MOL0     H64474   9.142   5.447   9.634  0.9604 -2.0594  0.4072
  478MOL0     H64475   9.134   5.249   9.744 -0.2725 -0.4138  1.1638
  478MOL0     H64476   9.085   5.359   9.864  2.6864  0.5767 -0.6728
  478MOL0     H64477   8.888   5.207   9.691  0.8721  1.2632 -2.2347
  478MOL0     H64478   8.849   5.298   9.833 -1.7725 -2.7110 -0.5862
  478MOL0     H64479   9.066   5.098   9.876 -0.6037 -1.6224 -2.5991
  478MOL0     H64480   8.912   5.163   9.972 -3.2753  1.1790 -1.1462
  478MOL0     H64481   8.706   5.027   9.975 -0.1932  0.1321 -0.2512
  478MOL0     H64482   8.524   4.825   9.912  2.1741 -1.8470  0.3093
  478MOL0     H64483   8.504   4.891   9.750 -1.0686  0.9310  2.6269
  478MOL0     H64484   8.461   4.641   9.774 -1.1240  3.3453  1.1716
  478MOL0     H64485   8.615   4.637   9.692 -0.9761  1.6758 -1.0142
  478MOL0     H64486   8.563   4.610   9.992 -0.3727 -0.2532 -0.3420
  478MOL0     H64487   8.729   4.646   9.922  1.3228  0.6678 -2.4721
  478MOL0     H64488   8.732   4.427   9.810 -1.9810 -3.7549 -0.5233
  478MOL0     H64489   8.564   4.402   9.820 -0.0969 -1.9424  1.5425
  478MOL0     H64490   8.650   4.228  10.199  0.1009 -2.1015 -2.3789
  478MOL0     H64491   8.441   4.178  10.338 -3.9086 -1.8595 -0.0801
  478MOL0     H64492   8.174   4.000  10.560  2.3703  1.0371  1.6818
  478MOL0     H64493   8.036   3.965  10.742  0.5115  0.0662  1.0747
  478MOL0     H64494   7.795   3.945  10.891  0.8498  0.0723 -0.4212
  478MOL0     H64495   7.961   3.997  10.944  0.6872 -1.1234 -3.3499
  478MOL0     H64496   7.856   4.185  11.079  1.9031 -0.2655  1.7110
  478MOL0     H64497   7.718   4.090  11.069  0.4170  0.6828 -2.8056
  478MOL0     H64498   7.811   3.905  11.189  1.4737 -0.9692  1.4993
  478MOL0     H64499   7.973   3.931  11.161 -1.2338 -2.2055  1.5677
  478MOL0     H64500   7.959   4.137  11.313 -1.4715  1.9786  0.0471
  478MOL0     H64501   7.905   3.976  11.385  1.1501 -1.2036 -2.7144
  478MOL0     H64502   7.669   4.067  11.344 -1.0738  2.5020 -3.3694
  478MOL0     H64503   7.738   4.215  11.285  3.3730 -0.1009 -1.8836
  478MOL0     H64504   7.871   4.239  11.514 -0.1473  0.6764 -2.4541
  478MOL0     H64505   7.705   4.286  11.511  0.5758  0.7048 -0.4239
  478MOL0     H64506   7.714   4.012  11.570  2.2914  0.1004  1.0142
  478MOL0     H64507   7.658   4.133  11.680 -2.0947 -1.6905 -1.3771
  478MOL0     H64508   7.953   4.047  11.649 -1.2370 -0.2983  0.7957
  478MOL0     H64509   7.871   4.177  11.756 -0.0532 -0.4372  0.4509
  478MOL0     H64510   7.834   4.341  10.666  0.2966  0.7811 -0.3308
  478MOL0     H64511   7.964   4.368  10.470  0.2722 -0.2190 -0.1783
  478MOL0     H64512   8.211   4.420  10.057 -0.0581 -1.1521 -0.5183
  478MOL0     H64513   8.385   4.466   9.956 -2.7762  0.9428  1.4390
  478MOL0     H64514   9.064   6.024   9.792  1.2206 -0.1395  0.7536
  478MOL0     H64515   9.113   6.253   9.771 -0.4305 -1.2650 -0.4735
  478MOL0     H64516   9.158   6.683   9.890  1.3627  0.8095  4.3324
  478MOL0     H64517   9.167   6.928   9.866  0.0968  0.0149  1.7203
  478MOL0     H64518   8.880   7.236   9.727 -1.4558  0.2285 -3.6491
  478MOL0     H64519   8.821   7.076   9.690  0.8823 -1.9465  0.0348
  478MOL0     H64520   8.950   7.145   9.502  2.2098  2.7545 -1.1378
  478MOL0     H64521   9.068   7.049   9.577  0.5333  0.9198  0.0967
  478MOL0     H64522   9.163   7.253   9.683 -0.9111 -0.3556 -0.1559
  478MOL0     H64523   9.026   7.357   9.653  1.4184  1.8033  1.8427
  478MOL0     H64524   9.092   7.375   9.420  1.1322  2.1176  0.2113
  478MOL0     H64525   9.244   7.374   9.501  1.0395 -1.5645 -2.0868
  478MOL0     H64526   9.299   7.042   9.252  0.7063  1.2506 -0.5640
  478MOL0     H64527   8.733   6.937   9.854  1.5060 -0.0093 -0.6586
  478MOL0     H64528   8.640   6.669   9.784 -3.1357  2.1882  2.1431
  478MOL0     H64529   8.708   6.554   9.912  3.5189  1.0523  3.0941
  478MOL0     H64530   8.640   6.709   9.954  0.0529  0.5372  0.2641
  479MOL0     O64531   5.358   1.046  10.091  1.0319 -0.2834  0.4526
  479MOL0     C64532   5.332   0.960  10.172 -0.0915 -0.5223  0.0966
  479MOL0     O64533   5.293   0.833  10.139 -0.7044  0.1207 -0.4328
  479MOL0     C64534   5.298   0.772  10.016 -1.0210  0.5318  0.0122
  479MOL0     C64535   5.223   0.656  10.003  0.6141  0.0776 -0.7138
  479MOL0     C64536   5.215   0.582   9.879 -0.3080 -0.4976 -0.9977
  479MOL0     C64537   5.281   0.628   9.768  0.0250 -0.1178 -0.1062
  479MOL0     O64538   5.268   0.577   9.648  0.1565 -1.3582  0.5432
  479MOL0     C64539   5.370   0.485   9.618  0.4309  0.0154  0.5198
  479MOL0     C64540   5.403   0.485   9.455  0.0024 -0.7463 -0.3914
  479MOL0     C64541   5.545   0.426   9.429  0.9444 -0.1536  0.2000
  479MOL0     C64542   5.537   0.274   9.397  0.5631  0.2375  0.7715
  479MOL0     C64543   5.666   0.222   9.342 -0.2775  0.0913  0.1276
  479MOL0     C64544   5.790   0.241   9.429 -0.9257 -0.1748 -0.3053
  479MOL0     C64545   5.917   0.192   9.363  0.0748 -0.2489  0.0515
  479MOL0     C64546   6.040   0.234   9.441  0.3336 -0.5591  0.2161
  479MOL0     N64547   6.152   0.179   9.370 -0.5075 -0.5136 -0.5458
  479MOL0     C64548   6.196   0.047   9.369 -0.0673 -0.1729 -0.3103
  479MOL0     C64549   6.288   0.049   9.276  0.5859  0.4620  0.8399
  479MOL0     C64550   6.362  -0.068   9.218 -0.3992  0.1225 -0.4254
  479MOL0     C64551   6.514  -0.061   9.267  0.6319 -0.5232 -0.7351
  479MOL0     C64552   6.596  -0.153   9.170 -0.0870  0.3185  0.3833
  479MOL0     C64553   6.743  -0.099   9.168 -0.1629  0.2161 -0.2673
  479MOL0     O64554   6.816  -0.155   9.276 -0.5031 -0.3439  0.1919
  479MOL0     C64555   6.880  -0.069   9.365  0.2165  0.8480 -0.1721
  479MOL0     C64556   6.951   0.051   9.333  0.3432  0.6987 -0.6714
  479MOL0     C64557   7.019   0.112   9.434 -0.3708  0.3282  0.1516
  479MOL0     C64558   7.025   0.058   9.567  0.5267  0.0584  0.4571
  479MOL0     C64559   7.103   0.123   9.670 -0.1781  0.2715 -0.7309
  479MOL0     O64560   7.076   0.075   9.796 -0.3348  0.2828 -0.9941
  479MOL0     C64561   7.163   0.116   9.901  0.6219 -0.3867  0.3674
  479MOL0     C64562   7.222   0.014   9.968 -0.3084 -0.2010  0.8310
  479MOL0     C64563   7.293   0.037  10.073 -0.3084  0.5271  0.0223
  479MOL0     C64564   7.320   0.167  10.109 -0.9090 -0.5004  0.2868
  479MOL0     O64565   7.386   0.208  10.217 -1.1648 -0.2456 -0.5968
  479MOL0     C64566   7.436   0.116  10.312  0.0363  0.1965 -0.1847
  479MOL0     C64567   7.517   0.206  10.410  0.6187 -0.3818 -0.2329
  479MOL0     C64568   7.585   0.105  10.507 -0.2547  0.7924 -0.0496
  479MOL0     C64569   7.685   0.158  10.607 -0.8134  0.1939  0.3267
  479MOL0     C64570   7.623   0.270  10.692 -0.0582  0.1913 -1.0507
  479MOL0     C64571   7.703   0.288  10.822 -0.5812  0.0559  0.1724
  479MOL0     C64572   7.619   0.378  10.927 -0.4000  0.1432  1.0710
  479MOL0     C64573   7.692   0.408  11.053 -0.4507 -0.1464 -0.3131
  479MOL0    Cl64574   7.600   0.520  11.163  0.2158 -0.0700 -0.0207
  479MOL0     C64575   7.262   0.268  10.036 -0.4934 -0.5705 -0.0287
  479MOL0     C64576   7.175   0.250   9.940  0.1245 -0.0104  0.9415
  479MOL0     O64577   7.198   0.194   9.638  0.3930 -0.2962 -0.4146
  479MOL0     C64578   6.948  -0.055   9.588 -0.1873 -0.2460 -0.4342
  479MOL0     C64579   6.879  -0.118   9.497 -0.0009 -0.5133  0.2108
  479MOL0     N64580   6.317   0.181   9.248  0.3281  1.3763 -0.1478
  479MOL0     N64581   6.234   0.260   9.294 -0.2633  0.1881  0.1619
  479MOL0     C64582   5.355   0.747   9.785  0.1124  0.1834 -0.5483
  479MOL0     C64583   5.364   0.817   9.902 -0.9250  1.0912 -0.4091
  479MOL0     C64584   5.378   0.980  10.314  0.0083  0.8665  0.2442
  479MOL0     C64585   5.348   0.883  10.413  1.1256 -0.4320 -0.3565
  479MOL0     C64586   5.386   0.892  10.543 -0.3529 -0.2512 -0.8264
  479MOL0     C64587   5.445   1.007  10.593  0.0263 -0.3307 -0.9867
  479MOL0     O64588   5.475   1.013  10.728  0.2304  0.2023  0.1358
  479MOL0     C64589   5.517   1.133  10.787 -0.3165 -0.3030 -0.3680
  479MOL0     C64590   5.495   1.110  10.933  0.0421 -0.1526 -1.2905
  479MOL0     C64591   5.593   1.004  10.996 -0.2080  0.3259  0.1547
  479MOL0     C64592   5.588   0.993  11.151 -0.5275 -0.3140 -0.2541
  479MOL0     C64593   5.662   0.883  11.219 -0.1569 -0.2696 -0.7915
  479MOL0     C64594   5.703   0.779  11.275 -0.4802 -0.1230 -0.8794
  479MOL0     C64595   5.481   1.105  10.500 -0.0145 -1.1975  0.4842
  479MOL0     C64596   5.463   1.089  10.357 -0.7326 -0.2001  0.0515
  479MOL0     C64597   5.523   1.192  10.267 -0.6086 -0.4515  0.6390
  479MOL0     H64598   5.168   0.616  10.088 -2.4306 -1.8884 -3.3531
  479MOL0     H64599   5.154   0.492   9.880  0.8052 -1.2915  1.3843
  479MOL0     H64600   5.459   0.498   9.679  0.3835 -4.5129  1.9884
  479MOL0     H64601   5.339   0.381   9.638 -3.3400  1.0718  0.9517
  479MOL0     H64602   5.400   0.590   9.423 -0.7614 -0.1360  1.5110
  479MOL0     H64603   5.329   0.425   9.402  1.9222 -3.8659  0.1798
  479MOL0     H64604   5.620   0.457   9.502  1.3419  1.7808 -0.9733
  479MOL0     H64605   5.569   0.469   9.332  0.5454  1.3130  0.7318
  479MOL0     H64606   5.506   0.225   9.490 -2.4609 -0.2381 -0.3657
  479MOL0     H64607   5.458   0.250   9.326 -1.2221  0.8459  2.4575
  479MOL0     H64608   5.647   0.115   9.328 -0.4571  0.5279 -4.3962
  479MOL0     H64609   5.689   0.254   9.240  1.6467  2.7762  1.2776
  479MOL0     H64610   5.809   0.348   9.440 -0.3856 -0.1173 -1.6384
  479MOL0     H64611   5.784   0.195   9.528  1.8679 -1.5370 -0.6711
  479MOL0     H64612   5.917   0.227   9.259  0.1382 -0.3064  0.0328
  479MOL0     H64613   5.916   0.083   9.353  2.4171 -0.2203 -1.1810
  479MOL0     H64614   6.057   0.339   9.464 -0.3606 -0.5025  0.4924
  479MOL0     H64615   6.020   0.185   9.536 -3.1088  2.8330  1.4975
  479MOL0     H64616   6.149  -0.035   9.421  0.4441 -0.1433  0.2193
  479MOL0     H64617   6.320  -0.156   9.268 -1.8604  1.2187  0.3830
  479MOL0     H64618   6.365  -0.067   9.109 -0.3244 -1.5605 -0.4525
  479MOL0     H64619   6.556   0.038   9.285  0.5488 -0.5217 -0.5406
  479MOL0     H64620   6.518  -0.098   9.370  0.9947  1.5443  0.0347
  479MOL0     H64621   6.551  -0.152   9.070  0.3517 -2.0687  0.1125
  479MOL0     H64622   6.600  -0.254   9.211 -0.6837 -0.6201 -1.7152
  479MOL0     H64623   6.741   0.010   9.169 -1.8332  0.2311  1.8145
  479MOL0     H64624   6.793  -0.131   9.077  1.3897 -3.4872  1.6693
  479MOL0     H64625   6.954   0.081   9.229 -2.4934  1.7286 -0.5471
  479MOL0     H64626   7.064   0.207   9.406 -2.2926  0.3392 -3.5175
  479MOL0     H64627   7.208  -0.090   9.939  2.0564 -0.7962  1.5363
  479MOL0     H64628   7.324  -0.046  10.136  1.5024  1.6688  0.7045
  479MOL0     H64629   7.357   0.056  10.358  1.5030 -1.9892 -0.3691
  479MOL0     H64630   7.504   0.047  10.261 -1.9559 -1.5026 -0.6984
  479MOL0     H64631   7.590   0.275  10.366 -1.5897  1.9640 -0.4134
  479MOL0     H64632   7.447   0.267  10.466  0.0290  0.1776 -1.5409
  479MOL0     H64633   7.512   0.056  10.572  0.1209  1.9243  1.2766
  479MOL0     H64634   7.650   0.047  10.441  2.6761  1.4407  2.0549
  479MOL0     H64635   7.772   0.209  10.565 -2.1592  1.7158 -0.7419
  479MOL0     H64636   7.724   0.075  10.666  1.0472  1.0032  0.2805
  479MOL0     H64637   7.521   0.242  10.719 -0.0318 -0.0891 -1.2415
  479MOL0     H64638   7.631   0.369  10.645  3.4695  1.2027  1.2463
  479MOL0     H64639   7.722   0.193  10.873  0.6275  0.1204 -0.1126
  479MOL0     H64640   7.805   0.319  10.796 -0.1544 -1.8756 -0.6334
  479MOL0     H64641   7.527   0.323  10.950  0.7208 -1.0633  2.9700
  479MOL0     H64642   7.597   0.480  10.897  0.1122 -0.0095  0.1580
  479MOL0     H64643   7.712   0.327  11.125 -0.4144  1.5386  1.6729
  479MOL0     H64644   7.789   0.453  11.029 -1.6914  2.7895 -0.1736
  479MOL0     H64645   7.281   0.365  10.081  0.6902 -1.7223  2.1253
  479MOL0     H64646   7.132   0.334   9.887 -1.5011 -0.9871  0.6441
  479MOL0     H64647   6.944  -0.102   9.686  1.8165 -1.5635 -0.9277
  479MOL0     H64648   6.815  -0.201   9.522  2.6903 -2.6592  0.4772
  479MOL0     H64649   5.395   0.799   9.699 -1.6514  1.8768 -0.4162
  479MOL0     H64650   5.437   0.897   9.909 -0.8888  0.9370  2.0576
  479MOL0     H64651   5.281   0.804  10.379 -2.3964  2.0937  0.1590
  479MOL0     H64652   5.371   0.816  10.619  0.5389 -1.0651 -1.4341
  479MOL0     H64653   5.469   1.224  10.750  0.3656  0.4042  0.4400
  479MOL0     H64654   5.622   1.134  10.757 -1.0189 -0.0529 -3.1447
  479MOL0     H64655   5.388   1.090  10.947  0.5605 -1.2921  2.0346
  479MOL0     H64656   5.525   1.201  10.984 -0.6799 -2.0029  2.8995
  479MOL0     H64657   5.698   1.017  10.967 -0.5928 -0.2127 -1.5761
  479MOL0     H64658   5.569   0.908  10.949  1.0123  0.7627 -1.4528
  479MOL0     H64659   5.620   1.086  11.197 -1.3289 -0.9649  1.6955
  479MOL0     H64660   5.482   0.977  11.173 -0.6059 -0.1311 -0.4927
  479MOL0     H64661   5.749   0.696  11.326 -0.2016  0.3754 -0.3024
  479MOL0     H64662   5.523   1.196  10.542 -1.8344 -0.0731  0.0157
  479MOL0     H64663   5.448   1.248  10.209  1.9259 -1.9510 -4.7908
  479MOL0     H64664   5.581   1.271  10.316 -0.3819 -0.3496  0.2137
  479MOL0     H64665   5.594   1.143  10.199 -0.9382 -0.0203 -0.0356
  480MOL0     O64666   0.301   7.769  10.539  0.5296  0.0339  0.4751
  480MOL0     C64667   0.286   7.660  10.587 -0.0992  0.4292  0.3290
  480MOL0     O64668   0.216   7.557  10.539 -0.2051 -0.1608  0.1891
  480MOL0     C64669   0.175   7.561  10.410  0.2936 -0.8551  0.4038
  480MOL0     C64670   0.048   7.611  10.378  0.6350 -0.9437  0.0111
  480MOL0     C64671   0.008   7.637  10.251 -0.4745 -0.5756 -0.3002
  480MOL0     C64672   0.080   7.599  10.141 -0.1772  0.6001  0.3240
  480MOL0     O64673   0.001   7.612  10.031 -0.5232  0.2307  0.2343
  480MOL0     C64674   0.044   7.551   9.912  0.7151  1.4451 -0.0412
  480MOL0     C64675  -0.052   7.572   9.789 -0.2310  0.9160 -0.4029
  480MOL0     C64676  -0.203   7.538   9.817  0.0691 -0.4263  1.3013
  480MOL0     C64677  -0.294   7.579   9.689 -0.2399 -0.7720  0.1116
  480MOL0     C64678  -0.437   7.535   9.721  0.5429 -0.9112 -0.9359
  480MOL0     C64679  -0.519   7.600   9.614 -0.0594  0.1054 -0.1609
  480MOL0     C64680  -0.669   7.565   9.622  0.8465 -0.2168 -1.8577
  480MOL0     C64681  -0.742   7.664   9.730 -0.1967 -0.3272  1.7427
  480MOL0     N64682  -0.885   7.649   9.732 -0.2470 -0.1739  0.4752
  480MOL0     C64683  -0.968   7.584   9.638  0.4145  0.5941 -0.0561
  480MOL0     C64684  -1.099   7.620   9.686 -1.1849  1.1772 -0.0497
  480MOL0     C64685  -1.230   7.568   9.636  0.3707 -0.7502  1.0406
  480MOL0     C64686  -1.332   7.682   9.638  0.2413 -0.0210  0.3856
  480MOL0     C64687  -1.310   7.783   9.524  0.5967  0.4648  0.2357
  480MOL0     C64688  -1.163   7.827   9.503  0.0917 -0.0434 -0.6425
  480MOL0     O64689  -1.160   7.940   9.415  0.4843 -0.6271 -0.7264
  480MOL0     C64690  -1.056   8.033   9.415  0.9240  0.4768 -0.1792
  480MOL0     C64691  -1.062   8.133   9.316  0.8404 -0.2732  0.0122
  480MOL0     C64692  -0.962   8.231   9.305 -0.6394 -0.0522  0.4386
  480MOL0     C64693  -0.867   8.240   9.412  0.0577 -1.1262  0.1640
  480MOL0     C64694  -0.746   8.334   9.395  0.8364  0.6727 -0.0638
  480MOL0     O64695  -0.644   8.328   9.495  0.7268  0.6524  0.6517
  480MOL0     C64696  -0.533   8.406   9.493 -0.6380 -0.4256  1.3143
  480MOL0     C64697  -0.538   8.539   9.470  0.9673 -0.0868  0.3849
  480MOL0     C64698  -0.422   8.617   9.459 -0.3497 -0.1521 -0.4255
  480MOL0     C64699  -0.297   8.560   9.500  0.5326 -0.2222  0.5851
  480MOL0     O64700  -0.190   8.649   9.492 -0.4460 -0.3212 -0.3612
  480MOL0     C64701  -0.065   8.600   9.557 -0.2855 -0.3682 -0.7715
  480MOL0     C64702   0.040   8.712   9.531  0.9441  0.2874  0.3003
  480MOL0     C64703   0.020   8.832   9.628 -0.5308  0.7039 -0.3497
  480MOL0     C64704   0.072   8.964   9.572 -0.6270 -0.3516  0.1507
  480MOL0     C64705   0.135   9.052   9.675  0.2708  0.3019  0.2313
  480MOL0     C64706   0.290   9.039   9.694  0.3629  0.3708  0.1852
  480MOL0     C64707   0.319   8.902   9.752  0.3351  0.0280 -0.5418
  480MOL0     C64708   0.467   8.904   9.777  0.6276  1.2572 -0.0237
  480MOL0    Cl64709   0.549   8.879   9.613  0.0168  0.2315  0.4242
  480MOL0     C64710  -0.301   8.427   9.537  1.0078  1.0197  0.8556
  480MOL0     C64711  -0.418   8.343   9.537 -0.9790  0.1227  0.5250
  480MOL0     O64712  -0.743   8.401   9.289 -0.2357  0.2625  0.1347
  480MOL0     C64713  -0.859   8.137   9.511  0.6017 -0.1053  0.8880
  480MOL0     C64714  -0.950   8.032   9.500 -1.5553  0.1227 -0.7345
  480MOL0     N64715  -1.088   7.686   9.802 -0.0373  0.5655  0.5152
  480MOL0     N64716  -0.959   7.704   9.829 -0.4496 -0.9692  0.9264
  480MOL0     C64717   0.200   7.536  10.167  0.9199  1.2302  0.1359
  480MOL0     C64718   0.248   7.520  10.297  0.7295  0.2713  0.8727
  480MOL0     C64719   0.355   7.642  10.716 -0.0995 -0.2616 -0.5493
  480MOL0     C64720   0.393   7.509  10.747 -0.1856 -0.1506 -0.6386
  480MOL0     C64721   0.459   7.479  10.870 -0.7784  0.4257 -0.3641
  480MOL0     C64722   0.486   7.578  10.964 -0.4302 -0.1431  0.1191
  480MOL0     O64723   0.560   7.548  11.075 -0.4240 -0.0613 -0.1613
  480MOL0     C64724   0.578   7.650  11.177  0.2576  0.4695  0.3849
  480MOL0     C64725   0.695   7.600  11.267  0.5208 -1.2334  0.6380
  480MOL0     C64726   0.732   7.705  11.370  0.0802  0.3385  0.5964
  480MOL0     C64727   0.864   7.669  11.450 -1.0999 -0.2532 -0.4884
  480MOL0     C64728   0.979   7.647  11.359  0.6153 -0.4377  0.1260
  480MOL0     C64729   1.073   7.651  11.291  0.0288 -0.5522 -0.4688
  480MOL0     C64730   0.428   7.706  10.942 -1.2381 -0.7658 -0.5255
  480MOL0     C64731   0.372   7.738  10.819  1.2650  0.1994 -0.4389
  480MOL0     C64732   0.323   7.886  10.812 -0.2052 -0.2708  0.6686
  480MOL0     H64733  -0.022   7.634  10.457 -0.3454 -4.5414  0.3649
  480MOL0     H64734  -0.081   7.698  10.244 -1.2074 -1.3369  1.5722
  480MOL0     H64735   0.148   7.579   9.891 -0.1726  4.0825 -1.5052
  480MOL0     H64736   0.052   7.443   9.927 -0.4479  1.0877 -1.7170
  480MOL0     H64737  -0.013   7.515   9.704  1.3526  0.2383  0.7287
  480MOL0     H64738  -0.039   7.678   9.764 -1.1656  1.3630  0.9210
  480MOL0     H64739  -0.249   7.597   9.897 -3.2431 -2.3506  1.0206
  480MOL0     H64740  -0.213   7.431   9.838  3.0514 -1.1082 -0.2238
  480MOL0     H64741  -0.286   7.688   9.686  0.3726 -0.8211 -2.7776
  480MOL0     H64742  -0.261   7.525   9.600  1.0051 -0.9934  0.6778
  480MOL0     H64743  -0.448   7.429   9.695  0.0516 -0.0167 -5.2504
  480MOL0     H64744  -0.470   7.555   9.823  0.8892  2.3078 -1.3448
  480MOL0     H64745  -0.518   7.709   9.628 -0.4096  0.1649 -0.5875
  480MOL0     H64746  -0.487   7.591   9.510  0.1846 -0.4108 -0.0421
  480MOL0     H64747  -0.677   7.463   9.661  1.7798  0.1416 -0.6730
  480MOL0     H64748  -0.719   7.558   9.525  0.5428 -1.1427 -1.6493
  480MOL0     H64749  -0.699   7.640   9.828 -0.5727  1.7845  2.4739
  480MOL0     H64750  -0.733   7.770   9.705  1.7151 -1.2985 -2.5603
  480MOL0     H64751  -0.954   7.529   9.545 -2.8001  2.9030 -2.1506
  480MOL0     H64752  -1.230   7.531   9.533 -3.4313 -0.9528  0.9573
  480MOL0     H64753  -1.266   7.484   9.697 -0.5694 -1.1846 -0.0781
  480MOL0     H64754  -1.431   7.636   9.627  1.3716 -2.5161 -0.1949
  480MOL0     H64755  -1.321   7.720   9.740  1.3686 -3.2441  1.6273
  480MOL0     H64756  -1.383   7.862   9.543 -1.2936 -0.8573 -1.1046
  480MOL0     H64757  -1.337   7.735   9.429  1.4190  1.1957 -0.3707
  480MOL0     H64758  -1.122   7.743   9.447  0.2243 -1.6049  1.6600
  480MOL0     H64759  -1.121   7.862   9.598  0.8142  1.5276 -1.4882
  480MOL0     H64760  -1.146   8.121   9.249  1.5031 -2.6969 -0.4718
  480MOL0     H64761  -0.951   8.299   9.222  4.5015 -1.2524 -0.2090
  480MOL0     H64762  -0.633   8.591   9.460 -0.4695 -2.8440 -1.7522
  480MOL0     H64763  -0.418   8.719   9.423 -0.4930  0.0579  0.1483
  480MOL0     H64764  -0.074   8.584   9.665 -0.3939  2.0281 -0.3547
  480MOL0     H64765  -0.032   8.507   9.510  0.4410 -0.5346  0.0406
  480MOL0     H64766   0.140   8.668   9.520  0.0296 -1.9371  0.2747
  480MOL0     H64767   0.016   8.744   9.429  0.4453 -2.9812 -0.7344
  480MOL0     H64768  -0.088   8.849   9.633 -0.2482  3.1242 -1.2082
  480MOL0     H64769   0.048   8.810   9.732 -2.0398 -1.6643 -0.3572
  480MOL0     H64770  -0.004   9.021   9.518 -0.0506  1.5935  1.2863
  480MOL0     H64771   0.155   8.943   9.503  0.0657  0.3933  0.7269
  480MOL0     H64772   0.078   9.042   9.768  1.7575  2.7035  1.5082
  480MOL0     H64773   0.118   9.151   9.633 -1.0824 -0.3584 -0.8675
  480MOL0     H64774   0.347   9.066   9.605 -3.3027  1.6721 -1.9702
  480MOL0     H64775   0.321   9.118   9.763  2.9298  0.0380 -0.4732
  480MOL0     H64776   0.291   8.823   9.682  0.4008 -0.7036  0.2517
  480MOL0     H64777   0.263   8.880   9.843  1.5812  1.2663  0.5795
  480MOL0     H64778   0.513   8.984   9.835  0.6136  2.6746 -1.8937
  480MOL0     H64779   0.491   8.806   9.819 -3.2380 -0.7754 -2.0040
  480MOL0     H64780  -0.212   8.386   9.583  0.8420  1.6498  1.7461
  480MOL0     H64781  -0.405   8.247   9.586 -0.2677 -0.1927 -0.2633
  480MOL0     H64782  -0.765   8.134   9.566  0.8971 -0.7248  0.3685
  480MOL0     H64783  -0.950   7.966   9.586  0.6494 -0.6791 -1.2831
  480MOL0     H64784   0.263   7.493  10.090 -0.0568 -2.3536  1.1309
  480MOL0     H64785   0.348   7.479  10.306  0.7106  0.0905  0.3173
  480MOL0     H64786   0.379   7.428  10.676 -2.9455  1.2230 -1.8311
  480MOL0     H64787   0.504   7.380  10.873  1.6714  1.2390 -3.6972
  480MOL0     H64788   0.478   7.664  11.219  0.9787  3.8569  1.3472
  480MOL0     H64789   0.607   7.740  11.122 -0.8412  0.5528 -0.0877
  480MOL0     H64790   0.783   7.591  11.204  0.6482  2.6390  0.0128
  480MOL0     H64791   0.658   7.513  11.322 -2.8676 -1.8346 -2.2200
  480MOL0     H64792   0.657   7.715  11.450 -0.3184 -2.9438  0.7896
  480MOL0     H64793   0.756   7.800  11.322  0.3297 -1.0032 -2.1390
  480MOL0     H64794   0.899   7.758  11.503 -1.5606  0.5759 -1.5448
  480MOL0     H64795   0.858   7.581  11.516  0.6512  1.1730  1.7057
  480MOL0     H64796   1.167   7.647  11.241 -0.7759  1.2379 -2.2394
  480MOL0     H64797   0.422   7.780  11.022  3.5422  0.9436 -1.4321
  480MOL0     H64798   0.335   7.965  10.887  0.2374  2.2222 -1.8724
  480MOL0     H64799   0.375   7.916  10.721 -1.6974 -0.7391 -0.3797
  480MOL0     H64800   0.216   7.879  10.789  0.1511 -0.7674 -0.9791
  481MOL0     O64801   8.784   5.944  10.386  0.5078 -0.5368 -0.2289
  481MOL0     C64802   8.855   5.865  10.447 -0.5498 -0.4982  0.4420
  481MOL0     O64803   8.893   5.870  10.578  0.1761 -0.5886 -0.8500
  481MOL0     C64804   8.817   5.922  10.676  0.6009  0.5996  0.4822
  481MOL0     C64805   8.681   5.903  10.670  0.3540  0.1959  0.5474
  481MOL0     C64806   8.596   5.954  10.775  0.0679 -1.1089  0.7103
  481MOL0     C64807   8.650   6.028  10.884  0.6217  0.3883 -1.0275
  481MOL0     O64808   8.578   6.078  10.994 -0.6108  0.0774  0.2876
  481MOL0     C64809   8.544   5.977  11.089 -0.7876 -0.1690  0.5520
  481MOL0     C64810   8.498   6.051  11.213  0.3187 -0.0369  0.0608
  481MOL0     C64811   8.399   5.967  11.305  0.4361  0.1128 -0.6334
  481MOL0     C64812   8.331   6.048  11.404  0.7689 -0.3592 -0.1623
  481MOL0     C64813   8.221   5.987  11.487 -0.1303  0.7363 -0.1505
  481MOL0     C64814   8.102   5.960  11.405  0.3333 -0.2152 -0.2618
  481MOL0     C64815   8.005   5.859  11.455  0.3579  0.8628  0.2836
  481MOL0     C64816   7.875   5.831  11.371 -1.1919 -0.2192  0.6304
  481MOL0     N64817   7.799   5.944  11.387 -0.1106  0.1688  0.0218
  481MOL0     C64818   7.717   5.978  11.488  0.3176 -0.4310  0.7382
  481MOL0     C64819   7.656   6.100  11.461 -1.0073  0.4959  0.1137
  481MOL0     C64820   7.552   6.189  11.535 -0.4681 -0.0634 -0.0124
  481MOL0     C64821   7.499   6.132  11.667  0.7964 -0.4485 -0.9880
  481MOL0     C64822   7.394   6.217  11.732 -0.5461  0.1236  0.3470
  481MOL0     C64823   7.382   6.189  11.881  0.6860  0.1523 -0.3482
  481MOL0     O64824   7.322   6.062  11.895  0.0167 -0.4193 -0.3263
  481MOL0     C64825   7.236   6.049  11.999  0.4875 -0.4151  0.1169
  481MOL0     C64826   7.259   5.961  12.096  0.7715 -0.8823 -0.3355
  481MOL0     C64827   7.170   5.943  12.198  1.1573  0.5569  0.9557
  481MOL0     C64828   7.045   6.011  12.206  0.9574  0.3536  0.2708
  481MOL0     C64829   6.948   6.001  12.313 -0.5339 -0.2664 -0.5395
  481MOL0     O64830   6.815   6.036  12.282 -0.0302  0.9310  0.1904
  481MOL0     C64831   6.719   6.033  12.378  0.0858  0.2552 -0.3124
  481MOL0     C64832   6.636   6.145  12.364  0.9644 -0.3365 -0.1263
  481MOL0     C64833   6.543   6.164  12.470  0.0359 -0.3653  0.7571
  481MOL0     C64834   6.520   6.075  12.572 -0.5420 -0.6275 -0.2838
  481MOL0     O64835   6.427   6.112  12.675 -0.1028 -0.0210 -0.2623
  481MOL0     C64836   6.431   6.039  12.797  0.2172  0.2463 -0.4844
  481MOL0     C64837   6.320   6.085  12.890  0.1444  1.0104 -0.2422
  481MOL0     C64838   6.176   6.031  12.855  0.2845 -0.1985 -0.0694
  481MOL0     C64839   6.071   6.104  12.946 -0.6957  0.3530  1.1481
  481MOL0     C64840   5.930   6.036  12.917 -0.3521 -0.5192  0.3386
  481MOL0     C64841   5.836   6.066  13.028  0.9021  0.6402 -0.1180
  481MOL0     C64842   5.723   5.962  13.043 -0.4583  0.6516  0.1086
  481MOL0     C64843   5.759   5.806  13.075  0.0534  0.3253  1.0136
  481MOL0    Cl64844   5.891   5.796  13.191  0.5758 -0.0759 -0.2184
  481MOL0     C64845   6.591   5.958  12.577  0.4694  0.6889  0.3823
  481MOL0     C64846   6.698   5.941  12.484  0.9138 -0.7150  0.2436
  481MOL0     O64847   6.994   5.973  12.421 -0.0677  0.6370  0.5446
  481MOL0     C64848   7.017   6.092  12.097 -0.0126 -0.9513 -0.0464
  481MOL0     C64849   7.110   6.122  11.991  0.9225  1.0357 -0.1360
  481MOL0     N64850   7.704   6.135  11.338  0.0273 -0.4037 -0.0061
  481MOL0     N64851   7.787   6.043  11.294  0.2676 -0.7418  0.1235
  481MOL0     C64852   8.788   6.054  10.874 -0.5388 -0.4822  0.1185
  481MOL0     C64853   8.868   5.986  10.780 -0.8511  0.2912 -0.3386
  481MOL0     C64854   8.923   5.755  10.366  0.9996  0.5706  0.2603
  481MOL0     C64855   9.046   5.711  10.419 -0.2605 -0.3718  0.0604
  481MOL0     C64856   9.121   5.614  10.360  0.3827 -0.1417 -0.7314
  481MOL0     C64857   9.072   5.540  10.252  0.0997  0.7079 -0.8139
  481MOL0     O64858   9.154   5.461  10.172 -0.0734  1.0808 -0.0425
  481MOL0     C64859   9.258   5.517  10.092 -0.2904  0.5550 -0.2326
  481MOL0     C64860   9.355   5.413  10.066 -0.5750  0.4797  0.3321
  481MOL0     C64861   9.483   5.473  10.002 -0.8597 -0.1671 -0.2036
  481MOL0     C64862   9.551   5.595  10.062 -0.0899  0.0114 -0.2788
  481MOL0     C64863   9.485   5.716  10.036  0.3521  1.0044 -0.4105
  481MOL0     C64864   9.420   5.809  10.028 -0.0409 -0.5470 -0.3263
  481MOL0     C64865   8.938   5.569  10.209 -0.2626 -0.2359 -0.0046
  481MOL0     C64866   8.865   5.675  10.260  0.3407  0.5183 -0.5072
  481MOL0     C64867   8.730   5.694  10.201 -0.3873  0.3159 -0.4430
  481MOL0     H64868   8.629   5.860  10.586 -0.7268 -1.9155  2.2010
  481MOL0     H64869   8.490   5.934  10.782  0.0108 -1.2406 -0.4416
  481MOL0     H64870   8.477   5.902  11.047  2.4925 -2.8114 -0.4295
  481MOL0     H64871   8.638   5.922  11.101 -0.1818  0.6785 -0.1115
  481MOL0     H64872   8.430   6.135  11.193 -0.0718  0.4790  3.0696
  481MOL0     H64873   8.579   6.082  11.279 -1.7069  0.3713  2.4912
  481MOL0     H64874   8.459   5.889  11.352  3.2409  2.2158 -0.4265
  481MOL0     H64875   8.333   5.913  11.237  1.9958 -0.8569 -1.4271
  481MOL0     H64876   8.404   6.098  11.468  0.0854 -0.9399  1.1245
  481MOL0     H64877   8.282   6.133  11.357 -0.2788 -0.0135  1.4676
  481MOL0     H64878   8.246   5.887  11.525 -0.1186 -0.6299 -3.3712
  481MOL0     H64879   8.185   6.057  11.563  1.7157  1.7427 -0.1584
  481MOL0     H64880   8.054   6.057  11.392 -1.3137 -1.0590 -0.7568
  481MOL0     H64881   8.146   5.926  11.310  2.9248  0.9374  0.4308
  481MOL0     H64882   7.981   5.881  11.559 -1.0830 -1.7557  0.6032
  481MOL0     H64883   8.057   5.764  11.469 -1.7454 -0.1920  1.4932
  481MOL0     H64884   7.887   5.813  11.264 -0.4737 -1.7101  0.9403
  481MOL0     H64885   7.819   5.752  11.423 -0.3949 -0.2529  1.4815
  481MOL0     H64886   7.717   5.920  11.579 -1.1373 -0.7991  0.5306
  481MOL0     H64887   7.604   6.280  11.564 -2.6722  0.8635  1.2910
  481MOL0     H64888   7.474   6.203  11.460 -1.0547 -1.1869  0.3575
  481MOL0     H64889   7.452   6.035  11.648 -1.0760  0.1824  0.1616
  481MOL0     H64890   7.583   6.123  11.735 -0.8065 -1.1950  0.9965
  481MOL0     H64891   7.300   6.216  11.677 -2.4274  1.9605  3.2394
  481MOL0     H64892   7.427   6.321  11.724 -0.1006 -0.0655 -0.3586
  481MOL0     H64893   7.317   6.265  11.927  1.7931 -0.9750  3.4586
  481MOL0     H64894   7.484   6.195  11.921  0.2247 -0.2611  0.9537
  481MOL0     H64895   7.358   5.919  12.081  0.5545 -1.5035 -0.0528
  481MOL0     H64896   7.181   5.860  12.266 -3.8341 -0.0123  1.4531
  481MOL0     H64897   6.658   6.218  12.287 -0.6009  0.2536 -0.0664
  481MOL0     H64898   6.489   6.257  12.486 -0.0469 -0.4166  0.7770
  481MOL0     H64899   6.422   5.932  12.781  0.1318  0.1565  0.1467
  481MOL0     H64900   6.523   6.060  12.853  1.9354 -1.0159 -2.6117
  481MOL0     H64901   6.337   6.052  12.993  0.0131  1.1618 -0.1711
  481MOL0     H64902   6.311   6.194  12.902 -0.3909  1.2275 -2.2267
  481MOL0     H64903   6.161   6.027  12.747 -1.0173 -0.0137  0.0892
  481MOL0     H64904   6.169   5.924  12.878 -3.2553  0.3750  2.3813
  481MOL0     H64905   6.076   6.207  12.911 -0.9787 -0.9245 -3.3560
  481MOL0     H64906   6.106   6.090  13.049 -1.1739  1.0233  1.4079
  481MOL0     H64907   5.946   5.928  12.915  0.7190 -0.4054  1.4606
  481MOL0     H64908   5.894   6.064  12.817  2.0375  0.9432 -0.2160
  481MOL0     H64909   5.900   6.068  13.117  0.7417  0.6482 -0.0026
  481MOL0     H64910   5.803   6.169  13.011  1.1959  0.7544 -0.0066
  481MOL0     H64911   5.670   5.962  12.948  0.6005  0.9836 -0.4968
  481MOL0     H64912   5.664   5.995  13.130  0.4065  2.4548  0.0612
  481MOL0     H64913   5.671   5.757  13.117 -0.6557 -0.1342 -0.9238
  481MOL0     H64914   5.792   5.749  12.988 -0.3622 -0.7185  1.5219
  481MOL0     H64915   6.575   5.883  12.654 -2.8858  0.7484 -0.1359
  481MOL0     H64916   6.760   5.853  12.479  4.7092  1.7430  0.2317
  481MOL0     H64917   6.922   6.141  12.081 -0.8783 -3.0922 -2.2405
  481MOL0     H64918   7.077   6.176  11.903  3.8222 -0.3269 -2.2265
  481MOL0     H64919   8.823   6.109  10.960  0.6568 -2.9547  1.3205
  481MOL0     H64920   8.976   5.994  10.780 -0.2530 -4.4523 -2.4146
  481MOL0     H64921   9.088   5.719  10.519  2.4461 -0.6978 -0.9573
  481MOL0     H64922   9.218   5.611  10.408 -0.2678 -0.6040  0.6061
  481MOL0     H64923   9.309   5.597  10.148  2.4989 -1.4477  0.3016
  481MOL0     H64924   9.232   5.554   9.992 -3.2591 -0.0238  0.2606
  481MOL0     H64925   9.317   5.339   9.994  0.2361 -0.3185  0.7017
  481MOL0     H64926   9.383   5.368  10.162 -1.8065 -1.6101 -0.2118
  481MOL0     H64927   9.458   5.487   9.896 -3.4302 -4.0804 -0.3173
  481MOL0     H64928   9.556   5.392  10.001 -1.8670 -1.0939 -0.4732
  481MOL0     H64929   9.564   5.573  10.168 -0.0483  0.3993 -0.2032
  481MOL0     H64930   9.648   5.603  10.012 -1.2430 -3.1558 -3.4940
  481MOL0     H64931   9.339   5.879  10.016  0.9770  1.0671  1.5896
  481MOL0     H64932   8.901   5.520  10.119  4.5406 -0.2180 -2.3115
  481MOL0     H64933   8.680   5.597  10.201 -1.2258  0.7383 -0.7375
  481MOL0     H64934   8.664   5.754  10.265  0.6828  3.1766 -1.8436
  481MOL0     H64935   8.727   5.736  10.100 -0.6451  0.3906 -0.4060
  482MOL0     O64936   5.032   8.916   7.003 -0.2925 -0.7381  0.4504
  482MOL0     C64937   4.938   8.886   6.937 -0.6689 -0.7853  0.4409
  482MOL0     O64938   4.944   8.831   6.812  0.1634 -0.0345 -1.0347
  482MOL0     C64939   5.064   8.782   6.779  0.4136  0.1966 -0.1299
  482MOL0     C64940   5.096   8.647   6.806 -0.2162  0.8114  0.4294
  482MOL0     C64941   5.226   8.599   6.767  0.6644 -0.6580 -0.2275
  482MOL0     C64942   5.312   8.684   6.691 -0.6425  0.3220 -0.6341
  482MOL0     O64943   5.427   8.624   6.654 -0.0656 -0.5031 -0.8303
  482MOL0     C64944   5.529   8.725   6.639 -0.8942  0.4953 -0.4729
  482MOL0     C64945   5.662   8.646   6.667 -0.5682 -0.4484  0.3788
  482MOL0     C64946   5.798   8.719   6.640 -0.1216 -0.1208 -0.2895
  482MOL0     C64947   5.804   8.800   6.514 -0.1050  0.4826  0.8701
  482MOL0     C64948   5.945   8.801   6.456  0.1395  0.1687  0.2215
  482MOL0     C64949   6.044   8.904   6.522 -0.3046  0.1745  0.1139
  482MOL0     C64950   6.176   8.930   6.443  0.2537  0.3485  0.9963
  482MOL0     C64951   6.277   8.998   6.532  0.1772  0.0234  0.7281
  482MOL0     N64952   6.418   8.965   6.488 -0.2314 -0.5852  0.0956
  482MOL0     C64953   6.475   9.015   6.368 -0.4978  0.0322 -0.6722
  482MOL0     C64954   6.602   8.960   6.373  0.0270 -0.8530 -0.6421
  482MOL0     C64955   6.712   8.968   6.265  0.8132  0.7923 -0.3299
  482MOL0     C64956   6.801   9.084   6.297  1.1809  0.7780  0.3118
  482MOL0     C64957   6.878   9.116   6.165 -0.1955  0.5790  0.4049
  482MOL0     C64958   6.802   9.193   6.066 -0.3211  0.1822  0.0934
  482MOL0     O64959   6.759   9.322   6.113  1.5908 -0.5588  0.0472
  482MOL0     C64960   6.838   9.433   6.089  0.7386  0.2299  0.7761
  482MOL0     C64961   6.778   9.560   6.115 -0.8395  0.1307  0.1263
  482MOL0     C64962   6.851   9.681   6.113  0.4665  0.2630 -0.1219
  482MOL0     C64963   6.983   9.672   6.071 -0.3974 -1.0783 -0.2984
  482MOL0     C64964   7.081   9.786   6.058  0.4433 -0.4395 -0.1573
  482MOL0     O64965   7.018   9.911   6.065 -0.4841  0.7538  0.2010
  482MOL0     C64966   7.089  10.026   6.082  0.8805  0.1206  0.9281
  482MOL0     C64967   7.001  10.138   6.100  0.6039  0.7039 -0.0678
  482MOL0     C64968   7.051  10.262   6.141 -0.5781 -0.1403  0.2877
  482MOL0     C64969   7.193  10.284   6.153  0.7748  0.2623 -0.2949
  482MOL0     O64970   7.254  10.401   6.182  0.2847 -0.0977 -1.0202
  482MOL0     C64971   7.200  10.463   6.300 -0.0523  0.3844  1.8866
  482MOL0     C64972   7.280  10.594   6.340  0.1342 -0.5885  0.1895
  482MOL0     C64973   7.305  10.691   6.213 -0.9623 -0.3069  0.7187
  482MOL0     C64974   7.187  10.781   6.184  0.4229 -0.0150 -0.0195
  482MOL0     C64975   7.167  10.897   6.283  0.0870  0.0395  0.3817
  482MOL0     C64976   7.015  10.937   6.301 -0.6650  0.7494  0.0040
  482MOL0     C64977   6.951  11.006   6.174  0.1493 -1.1661  1.1938
  482MOL0     C64978   6.810  11.053   6.203 -0.2159  0.4814  0.4944
  482MOL0    Cl64979   6.818  11.186   6.314 -0.0141 -0.3040  0.2748
  482MOL0     C64980   7.274  10.181   6.130  0.8009  0.5282 -0.6347
  482MOL0     C64981   7.226  10.054   6.099 -0.0006  0.1363  0.5351
  482MOL0     O64982   7.200   9.763   6.052  0.6002 -0.4817 -0.1962
  482MOL0     C64983   7.040   9.543   6.039 -0.9716 -0.3788  0.7679
  482MOL0     C64984   6.968   9.431   6.044 -0.5307 -0.5743 -0.1176
  482MOL0     N64985   6.615   8.877   6.486 -0.7351  0.6164 -0.7624
  482MOL0     N64986   6.506   8.889   6.556 -0.9780  1.1272 -0.2552
  482MOL0     C64987   5.271   8.816   6.647 -0.2558  0.2181 -0.5531
  482MOL0     C64988   5.154   8.863   6.698  1.1625  0.1193 -0.2393
  482MOL0     C64989   4.812   8.928   7.000  1.2403 -0.0892 -0.1256
  482MOL0     C64990   4.699   8.890   6.924 -0.0616  2.5309 -0.6597
  482MOL0     C64991   4.575   8.942   6.958  0.5454 -0.3520  0.0887
  482MOL0     C64992   4.547   9.019   7.073  0.0322 -0.8257 -0.6452
  482MOL0     O64993   4.423   9.071   7.103  0.3606 -0.7651 -0.0688
  482MOL0     C64994   4.373   9.058   7.236  0.2989 -0.7704  0.0005
  482MOL0     C64995   4.217   9.037   7.254 -0.9127  0.5141 -0.3213
  482MOL0     C64996   4.145   9.130   7.155  0.3508  0.2984  0.1994
  482MOL0     C64997   4.010   9.153   7.206  0.6949 -0.4621 -0.0021
  482MOL0     C64998   3.955   9.255   7.113 -0.6277  0.5789  0.9495
  482MOL0     C64999   3.912   9.337   7.034 -0.1524  0.6133 -0.3114
  482MOL0     C65000   4.657   9.048   7.146 -0.4958  0.8363 -0.6546
  482MOL0     C65001   4.785   9.009   7.116  0.1248 -1.1773  0.3842
  482MOL0     C65002   4.903   9.063   7.211  0.5322  0.7369 -0.4304
  482MOL0     H65003   5.026   8.588   6.864  0.5703 -2.2276 -1.4577
  482MOL0     H65004   5.266   8.508   6.810 -2.9673 -3.4924 -2.2273
  482MOL0     H65005   5.545   8.766   6.539  1.0853  1.4930  0.1959
  482MOL0     H65006   5.514   8.815   6.700 -1.8810  0.7683 -1.0984
  482MOL0     H65007   5.668   8.558   6.602  2.2887 -0.9054  1.0888
  482MOL0     H65008   5.671   8.609   6.770 -1.0750 -3.5244 -0.5694
  482MOL0     H65009   5.873   8.638   6.642  0.6478  0.5267 -1.4751
  482MOL0     H65010   5.811   8.792   6.720  2.8225 -0.3227 -0.4503
  482MOL0     H65011   5.740   8.757   6.436  0.5203 -0.1635  0.6999
  482MOL0     H65012   5.750   8.894   6.516 -0.7573  0.3067 -2.3636
  482MOL0     H65013   5.991   8.703   6.471 -0.4339  0.2942  3.5640
  482MOL0     H65014   5.941   8.840   6.354 -2.6310 -2.8453 -0.9693
  482MOL0     H65015   5.992   9.000   6.536 -3.4222 -1.6599  2.3162
  482MOL0     H65016   6.070   8.866   6.621 -1.2408 -0.1050  0.2568
  482MOL0     H65017   6.160   8.988   6.351  0.2744 -0.8662  0.1980
  482MOL0     H65018   6.219   8.834   6.413  4.5597  1.8699  1.6774
  482MOL0     H65019   6.268   9.107   6.521 -2.9537 -0.0415  1.7140
  482MOL0     H65020   6.263   8.972   6.637  0.8864 -4.1960 -0.0569
  482MOL0     H65021   6.436   9.056   6.276  1.5495  0.5236 -1.3722
  482MOL0     H65022   6.768   8.874   6.272 -1.5402 -0.5617  3.5862
  482MOL0     H65023   6.669   8.968   6.165 -1.0072 -0.4507  0.4111
  482MOL0     H65024   6.749   9.169   6.343 -1.7964 -2.4808  3.6499
  482MOL0     H65025   6.866   9.054   6.380 -0.9783  3.5881  3.2961
  482MOL0     H65026   6.906   9.029   6.106 -2.3435 -2.5371  3.6025
  482MOL0     H65027   6.969   9.173   6.188 -2.5600  3.9699  2.3685
  482MOL0     H65028   6.713   9.139   6.032  1.5755 -1.5076 -2.5366
  482MOL0     H65029   6.866   9.206   5.979 -0.4393 -0.2797 -0.0610
  482MOL0     H65030   6.674   9.566   6.144 -0.4114  0.9551  1.6209
  482MOL0     H65031   6.798   9.774   6.133 -0.7598 -0.5584  0.5467
  482MOL0     H65032   6.895  10.115   6.094  0.8465 -0.9512  1.1636
  482MOL0     H65033   6.985  10.348   6.147  2.6972  2.5198  0.5869
  482MOL0     H65034   7.095  10.488   6.283  0.4043 -0.3682 -3.9738
  482MOL0     H65035   7.208  10.387   6.378 -1.9320  0.5669  2.2986
  482MOL0     H65036   7.230  10.659   6.412 -1.0782  2.3327 -3.0268
  482MOL0     H65037   7.385  10.570   6.364  1.1599  0.1615 -3.0117
  482MOL0     H65038   7.397  10.747   6.232  0.5573 -1.3491 -2.7988
  482MOL0     H65039   7.328  10.641   6.118 -0.3027 -0.7164  1.0884
  482MOL0     H65040   7.101  10.714   6.180  0.2344 -0.0125  2.3046
  482MOL0     H65041   7.202  10.836   6.091 -0.8338  2.2827  1.0347
  482MOL0     H65042   7.221  10.988   6.255  0.0015  0.5212  1.7354
  482MOL0     H65043   7.201  10.869   6.383  0.2528  2.8823  1.2064
  482MOL0     H65044   6.969  10.849   6.347 -0.1120 -0.7024 -2.0874
  482MOL0     H65045   7.015  11.003   6.388  1.5523 -3.2574  3.4226
  482MOL0     H65046   6.938  10.926   6.100 -1.1086  0.7000 -0.7191
  482MOL0     H65047   7.016  11.088   6.142  1.4850 -1.5072  2.8547
  482MOL0     H65048   6.767  11.093   6.111  1.7353  1.1682 -0.1583
  482MOL0     H65049   6.741  10.975   6.239 -3.4341  2.0138 -1.8226
  482MOL0     H65050   7.380  10.191   6.151  0.3308 -1.6533  3.8866
  482MOL0     H65051   7.304   9.979   6.106  0.3475  0.1316 -2.2710
  482MOL0     H65052   7.142   9.531   6.006 -1.0920  1.3617 -0.3849
  482MOL0     H65053   7.029   9.344   6.025  1.1785  0.5497 -0.0186
  482MOL0     H65054   5.334   8.888   6.595  1.5999 -0.2252  0.9454
  482MOL0     H65055   5.111   8.959   6.672 -0.6881 -0.4074  0.7098
  482MOL0     H65056   4.696   8.830   6.833 -2.9947  3.8799 -1.5675
  482MOL0     H65057   4.484   8.923   6.902 -0.8119 -1.9402  2.6454
  482MOL0     H65058   4.402   9.138   7.305 -2.2859 -1.3505  1.8860
  482MOL0     H65059   4.408   8.962   7.276 -0.4089 -1.7863 -1.7109
  482MOL0     H65060   4.205   9.066   7.359 -1.4082 -2.4128  0.5406
  482MOL0     H65061   4.188   8.931   7.247  3.2684 -1.0282  1.8188
  482MOL0     H65062   4.137   9.081   7.058 -1.1334  0.0978  0.3977
  482MOL0     H65063   4.199   9.224   7.140  3.3280 -1.4636 -1.1044
  482MOL0     H65064   3.954   9.059   7.207 -0.8007  0.3970  1.6149
  482MOL0     H65065   4.017   9.187   7.310 -1.2075  0.5175 -0.1588
  482MOL0     H65066   3.882   9.424   6.978 -1.6486 -0.2728 -0.9459
  482MOL0     H65067   4.662   9.109   7.235  1.0984 -1.4826  0.9834
  482MOL0     H65068   4.871   9.122   7.298  0.5188  2.3286 -1.4757
  482MOL0     H65069   4.961   8.977   7.247  0.8459  0.0503 -2.4924
  482MOL0     H65070   4.972   9.119   7.148  2.1686  0.4935  1.0547
  483MOL0     O65071   5.896   0.063   3.939  0.0978  0.3660  0.2785
  483MOL0     C65072   5.903  -0.060   3.927  0.7574 -0.4096 -0.2519
  483MOL0     O65073   5.898  -0.142   4.032 -0.5069 -0.4886 -0.1819
  483MOL0     C65074   5.906  -0.109   4.163  0.7210 -1.1234 -0.6244
  483MOL0     C65075   5.782  -0.114   4.235 -0.7240  0.1128  0.0492
  483MOL0     C65076   5.787  -0.108   4.377 -0.7786 -0.0917 -0.1666
  483MOL0     C65077   5.905  -0.099   4.448  0.3104  0.0409 -0.2313
  483MOL0     O65078   5.904  -0.101   4.579  0.1904  0.0752 -0.4654
  483MOL0     C65079   5.885  -0.240   4.631  0.6214 -0.0266  0.3964
  483MOL0     C65080   5.877  -0.255   4.784 -0.3520 -0.5495  0.7799
  483MOL0     C65081   5.813  -0.391   4.821  1.0661 -0.2615  0.7296
  483MOL0     C65082   5.660  -0.385   4.817  0.5902  0.0724  0.9685
  483MOL0     C65083   5.601  -0.529   4.848  0.3365  0.6197 -0.1869
  483MOL0     C65084   5.509  -0.575   4.737 -0.5534 -0.0326 -1.0621
  483MOL0     C65085   5.403  -0.666   4.801  0.2441  0.5596 -0.0459
  483MOL0     C65086   5.293  -0.713   4.698 -0.9911 -0.6745 -0.2516
  483MOL0     N65087   5.344  -0.798   4.589  0.3693  0.6644 -1.0250
  483MOL0     C65088   5.358  -0.941   4.594 -1.0031 -0.0002 -0.0404
  483MOL0     C65089   5.404  -0.961   4.466  0.1500 -1.0171 -0.4172
  483MOL0     C65090   5.429  -1.094   4.402  1.2428 -0.2104 -0.2023
  483MOL0     C65091   5.569  -1.105   4.363 -0.6091 -0.8059  0.1362
  483MOL0     C65092   5.592  -1.250   4.302  0.2520 -0.0129 -0.2065
  483MOL0     C65093   5.740  -1.279   4.272  0.0560 -0.0040  0.7419
  483MOL0     O65094   5.763  -1.412   4.306 -0.7828 -0.2871 -0.1971
  483MOL0     C65095   5.897  -1.457   4.300  0.5266 -0.6512  0.3260
  483MOL0     C65096   5.921  -1.565   4.378  0.6341 -0.7116 -0.7513
  483MOL0     C65097   6.047  -1.617   4.387 -0.0360 -0.2111  0.1589
  483MOL0     C65098   6.154  -1.578   4.304 -0.8169 -0.0163 -0.3570
  483MOL0     C65099   6.289  -1.636   4.330 -0.9393 -0.0405  0.1846
  483MOL0     O65100   6.300  -1.746   4.413 -0.6415  0.2673  0.3654
  483MOL0     C65101   6.416  -1.809   4.437 -0.0756  0.4133 -0.9145
  483MOL0     C65102   6.436  -1.929   4.376  1.0505 -0.4849 -0.1327
  483MOL0     C65103   6.549  -2.006   4.391 -0.4170  0.8877 -0.6855
  483MOL0     C65104   6.657  -1.946   4.464  0.6968  0.6683  0.8146
  483MOL0     O65105   6.775  -2.003   4.443  0.7368 -0.0170  0.4727
  483MOL0     C65106   6.892  -1.970   4.515 -0.6834 -0.7604 -0.3632
  483MOL0     C65107   7.007  -2.055   4.447 -0.3033 -0.1614 -0.0124
  483MOL0     C65108   7.046  -2.000   4.311 -0.0686 -0.2453 -0.3881
  483MOL0     C65109   7.169  -2.069   4.252  0.3862  0.0148 -0.1411
  483MOL0     C65110   7.213  -1.967   4.143  0.1766 -0.3622  0.3834
  483MOL0     C65111   7.316  -2.022   4.040 -0.6443  0.3200  0.0929
  483MOL0     C65112   7.463  -2.047   4.091 -0.5222  0.2216  0.1179
  483MOL0     C65113   7.571  -2.046   3.975 -0.5880 -0.2311  0.1213
  483MOL0    Cl65114   7.746  -2.071   4.023  0.3846  0.2154  0.0775
  483MOL0     C65115   6.641  -1.815   4.516 -0.0586  0.0215 -0.9113
  483MOL0     C65116   6.519  -1.752   4.502  0.0055  0.0463 -0.0780
  483MOL0     O65117   6.387  -1.581   4.275  0.4415 -0.7448 -0.4654
  483MOL0     C65118   6.130  -1.467   4.224 -1.2140 -0.4171 -0.3151
  483MOL0     C65119   6.006  -1.405   4.215 -0.2045 -0.1830 -0.6632
  483MOL0     N65120   5.426  -0.848   4.404 -0.3448  0.4692 -0.2767
  483MOL0     N65121   5.399  -0.751   4.477  0.0285 -0.2269 -0.0388
  483MOL0     C65122   6.021  -0.103   4.376 -0.3193  0.3779  0.2762
  483MOL0     C65123   6.022  -0.090   4.237 -0.3767  0.8292  0.1344
  483MOL0     C65124   5.945  -0.111   3.796  0.4097 -0.1528  1.0728
  483MOL0     C65125   5.972  -0.014   3.693 -0.5178 -0.0327  0.9269
  483MOL0     C65126   6.030  -0.056   3.567 -0.2569 -0.0054 -0.0635
  483MOL0     C65127   6.057  -0.192   3.543 -0.3412  0.0323 -0.2215
  483MOL0     O65128   6.097  -0.226   3.415 -0.2615 -0.1898  0.3481
  483MOL0     C65129   6.178  -0.344   3.405 -0.6194  0.6554  0.9903
  483MOL0     C65130   6.318  -0.300   3.453 -0.0039  0.1132 -0.6822
  483MOL0     C65131   6.434  -0.401   3.441  0.4694  0.0389 -0.1053
  483MOL0     C65132   6.564  -0.336   3.485 -0.8705 -0.5736  0.6974
  483MOL0     C65133   6.605  -0.232   3.390  0.5680  0.3143  0.1373
  483MOL0     C65134   6.633  -0.152   3.303 -0.7575 -0.8411 -0.5751
  483MOL0     C65135   6.032  -0.283   3.652 -0.5251  0.3137 -0.4673
  483MOL0     C65136   5.972  -0.249   3.768  0.1289  0.9994 -1.1141
  483MOL0     C65137   5.940  -0.368   3.871 -0.5962  0.0951  0.2569
  483MOL0     H65138   5.684  -0.116   4.188 -1.2362  0.1776  1.0710
  483MOL0     H65139   5.697  -0.120   4.437 -0.7056 -0.6820 -0.1688
  483MOL0     H65140   5.796  -0.283   4.585  1.6716 -2.0888  0.1643
  483MOL0     H65141   5.965  -0.299   4.587 -0.5432 -0.9907 -0.4900
  483MOL0     H65142   5.816  -0.173   4.823 -0.7574 -1.0506  1.2194
  483MOL0     H65143   5.973  -0.254   4.836 -0.1912  1.9139  0.5484
  483MOL0     H65144   5.853  -0.413   4.920 -0.0169  0.5305  1.3724
  483MOL0     H65145   5.846  -0.473   4.757  2.4842  0.3671  0.6269
  483MOL0     H65146   5.619  -0.309   4.884 -0.9207  0.0371  0.1141
  483MOL0     H65147   5.634  -0.365   4.713  2.1064 -0.6897  0.4057
  483MOL0     H65148   5.680  -0.603   4.834  0.0854  0.4974 -1.0560
  483MOL0     H65149   5.556  -0.538   4.947 -0.6884  0.9769 -0.5998
  483MOL0     H65150   5.460  -0.492   4.685 -5.1595  1.2462  4.2550
  483MOL0     H65151   5.566  -0.641   4.672 -0.0982 -0.7328  0.0248
  483MOL0     H65152   5.366  -0.602   4.882  2.7631 -1.1909  2.6917
  483MOL0     H65153   5.448  -0.757   4.843  2.0372  0.3023 -2.3370
  483MOL0     H65154   5.220  -0.777   4.750 -0.7146  0.6615  1.8756
  483MOL0     H65155   5.244  -0.619   4.669  2.1195  1.5914  1.3235
  483MOL0     H65156   5.322  -1.012   4.667 -0.4776 -1.1892 -0.9070
  483MOL0     H65157   5.396  -1.174   4.469 -0.3129 -0.6237 -1.3995
  483MOL0     H65158   5.369  -1.103   4.311  0.1093  2.6879  0.1284
  483MOL0     H65159   5.611  -1.038   4.288 -1.3846 -1.0217 -0.5124
  483MOL0     H65160   5.630  -1.099   4.453 -2.2939 -1.6344  1.4045
  483MOL0     H65161   5.542  -1.260   4.205 -1.4296  1.6555  0.4251
  483MOL0     H65162   5.566  -1.329   4.374  2.3221 -0.3939  0.1918
  483MOL0     H65163   5.806  -1.215   4.331  0.7365  0.0584 -0.0742
  483MOL0     H65164   5.759  -1.261   4.166 -3.9905 -1.8874 -0.5029
  483MOL0     H65165   5.840  -1.605   4.438 -0.0660 -0.3880 -1.4777
  483MOL0     H65166   6.054  -1.688   4.468 -0.1582  2.1974  2.4358
  483MOL0     H65167   6.348  -1.953   4.317 -0.4261 -1.8175  2.4318
  483MOL0     H65168   6.557  -2.101   4.340  3.3203 -0.9751  2.7647
  483MOL0     H65169   6.910  -1.862   4.521 -2.0753 -0.3042 -3.1322
  483MOL0     H65170   6.879  -1.999   4.620  3.0617 -0.3094  0.3788
  483MOL0     H65171   7.094  -2.065   4.513  0.8955  3.1587 -0.8975
  483MOL0     H65172   6.982  -2.159   4.424  1.1845  0.2054 -4.0911
  483MOL0     H65173   6.965  -2.003   4.237 -0.1000 -1.2665 -0.3239
  483MOL0     H65174   7.082  -1.896   4.313 -0.5190 -0.0905 -0.0362
  483MOL0     H65175   7.134  -2.169   4.223 -3.0865  1.5699 -1.9200
  483MOL0     H65176   7.245  -2.095   4.326  3.2859  4.6195 -1.1249
  483MOL0     H65177   7.259  -1.875   4.181 -0.0912 -0.5334  1.1255
  483MOL0     H65178   7.129  -1.936   4.080  2.1783  2.3616 -1.2085
  483MOL0     H65179   7.290  -2.118   3.996  2.1000 -1.6349  2.4050
  483MOL0     H65180   7.331  -1.944   3.964 -0.6034 -0.3225 -0.5627
  483MOL0     H65181   7.470  -2.147   4.133  1.2712 -0.2639 -1.2309
  483MOL0     H65182   7.488  -1.969   4.164  1.0453  0.1459 -0.3030
  483MOL0     H65183   7.532  -2.122   3.906  1.0427 -0.1654 -0.9197
  483MOL0     H65184   7.574  -1.958   3.911  3.0298 -2.3545 -3.0895
  483MOL0     H65185   6.722  -1.752   4.552 -0.7565  1.5396 -1.8701
  483MOL0     H65186   6.498  -1.653   4.540 -0.5498  0.1099 -0.5370
  483MOL0     H65187   6.201  -1.414   4.161 -0.1091  1.1969  2.1419
  483MOL0     H65188   5.988  -1.313   4.162 -1.6638 -1.5195 -2.6483
  483MOL0     H65189   6.115  -0.106   4.429 -0.8002 -1.0914  1.1209
  483MOL0     H65190   6.116  -0.096   4.182 -1.8611  1.3059 -2.6461
  483MOL0     H65191   5.953   0.089   3.719  1.1471  0.1847  1.4310
  483MOL0     H65192   6.055   0.007   3.482  0.3260 -0.1592 -0.0095
  483MOL0     H65193   6.184  -0.363   3.298  0.3433  4.1813  0.2898
  483MOL0     H65194   6.142  -0.432   3.460 -2.5952  2.2203  2.3493
  483MOL0     H65195   6.301  -0.260   3.554 -2.4097 -4.5522  1.0512
  483MOL0     H65196   6.340  -0.209   3.396  0.1966  0.6544  0.2211
  483MOL0     H65197   6.443  -0.442   3.340 -4.3598  1.0369 -1.1778
  483MOL0     H65198   6.416  -0.495   3.495  2.2003  0.2865  0.9700
  483MOL0     H65199   6.566  -0.272   3.574 -2.6652  1.5622 -0.6743
  483MOL0     H65200   6.643  -0.410   3.469  0.0138  0.7315 -1.4811
  483MOL0     H65201   6.657  -0.095   3.216 -0.8487  0.9683  0.5299
  483MOL0     H65202   6.045  -0.389   3.632  0.8989  0.4838 -0.5776
  483MOL0     H65203   5.843  -0.346   3.915  0.7953  3.4617  2.0543
  483MOL0     H65204   5.932  -0.470   3.831 -0.3580 -0.0218  0.5032
  483MOL0     H65205   6.002  -0.367   3.961 -0.8817 -1.5152  0.5010
  484MOL0     O65206   5.211   2.420   1.929 -0.1320  0.3125  0.1631
  484MOL0     C65207   5.244   2.361   2.031  0.2580 -0.1410  0.4965
  484MOL0     O65208   5.232   2.409   2.157 -0.4853  0.4879 -0.5542
  484MOL0     C65209   5.143   2.512   2.190  0.5320 -0.1626 -0.1778
  484MOL0     C65210   5.171   2.634   2.141 -0.0050 -0.4439  0.4478
  484MOL0     C65211   5.078   2.740   2.172  0.9588  0.1591 -0.3505
  484MOL0     C65212   4.964   2.711   2.252  0.1502  0.1893  0.3205
  484MOL0     O65213   4.870   2.807   2.280 -0.2910 -0.0386 -0.8055
  484MOL0     C65214   4.862   2.925   2.209 -0.4781  0.4643  0.2235
  484MOL0     C65215   4.755   3.017   2.257 -0.6097  0.6472 -0.1448
  484MOL0     C65216   4.726   3.142   2.168  1.4652 -0.1709 -1.0919
  484MOL0     C65217   4.578   3.166   2.154 -0.6279 -0.3517 -0.1714
  484MOL0     C65218   4.541   3.270   2.040 -0.0087 -0.1783 -1.0925
  484MOL0     C65219   4.569   3.414   2.089 -0.0163  0.1413 -0.2080
  484MOL0     C65220   4.453   3.478   2.166 -0.1236 -0.0516 -0.2659
  484MOL0     C65221   4.482   3.615   2.224 -0.0169 -0.1737  0.2337
  484MOL0     N65222   4.406   3.660   2.341  0.9791  0.2626  0.8307
  484MOL0     C65223   4.398   3.591   2.463  0.6759  0.9022  0.4084
  484MOL0     C65224   4.316   3.657   2.547 -0.6738  0.7742 -0.8131
  484MOL0     C65225   4.258   3.613   2.671  0.9234 -0.6970  0.1544
  484MOL0     C65226   4.129   3.523   2.655 -0.0698  0.2338 -0.4378
  484MOL0     C65227   4.148   3.374   2.611  0.6139 -0.1530 -0.3446
  484MOL0     C65228   4.011   3.304   2.595 -0.5463 -0.0527 -0.3494
  484MOL0     O65229   4.028   3.162   2.599 -0.9413  0.1236 -0.8469
  484MOL0     C65230   3.968   3.091   2.700 -0.2068  0.0161  0.4949
  484MOL0     C65231   3.934   2.963   2.668 -0.4044  0.4540  0.3991
  484MOL0     C65232   3.867   2.892   2.771  0.2943  0.1767  0.3296
  484MOL0     C65233   3.844   2.936   2.896 -0.1942  0.3014 -0.1015
  484MOL0     C65234   3.767   2.857   2.995  0.4170  0.4656 -0.0793
  484MOL0     O65235   3.718   2.912   3.112 -0.4002  0.3997 -0.6097
  484MOL0     C65236   3.620   2.838   3.180  0.0697 -0.5172  0.6747
  484MOL0     C65237   3.642   2.715   3.240 -1.4298 -0.2442 -0.0648
  484MOL0     C65238   3.542   2.642   3.306  0.3689 -1.1925  1.2523
  484MOL0     C65239   3.413   2.712   3.316 -0.1925 -0.1005 -0.2951
  484MOL0     O65240   3.328   2.649   3.399  0.1814 -0.7520 -0.2433
  484MOL0     C65241   3.230   2.734   3.467  0.2024 -0.7455  0.2483
  484MOL0     C65242   3.097   2.763   3.387 -0.5873 -0.5130  0.0963
  484MOL0     C65243   2.996   2.842   3.473  0.0248 -0.3208 -0.7193
  484MOL0     C65244   2.856   2.836   3.410 -0.7193  0.1299 -0.5706
  484MOL0     C65245   2.772   2.962   3.445  0.3390  0.2526  0.2422
  484MOL0     C65246   2.618   2.952   3.424 -0.5301  0.0490  0.0657
  484MOL0     C65247   2.547   3.088   3.452 -0.0887  1.3098  0.5465
  484MOL0     C65248   2.405   3.092   3.401 -0.5928  0.0888 -0.5865
  484MOL0    Cl65249   2.315   2.951   3.459  0.0639 -0.3392  0.0814
  484MOL0     C65250   3.387   2.829   3.243 -0.3480 -0.1636 -0.2438
  484MOL0     C65251   3.495   2.897   3.189  0.5235 -0.0089  0.5501
  484MOL0     O65252   3.768   2.736   2.966  0.1937  0.0735 -0.6444
  484MOL0     C65253   3.874   3.069   2.927  0.7963  0.0741 -0.7085
  484MOL0     C65254   3.929   3.146   2.824  0.0527 -0.4403  0.6219
  484MOL0     N65255   4.278   3.765   2.475 -0.2013 -0.2597 -0.8186
  484MOL0     N65256   4.335   3.771   2.364 -0.4227 -0.1105  0.0048
  484MOL0     C65257   4.953   2.583   2.311 -0.2881  1.2665 -0.4302
  484MOL0     C65258   5.035   2.478   2.269 -0.5022 -0.0000  0.3228
  484MOL0     C65259   5.297   2.218   2.006  0.5457  0.5238  0.5924
  484MOL0     C65260   5.377   2.163   2.104  1.1109  0.1600 -0.7273
  484MOL0     C65261   5.430   2.028   2.098 -0.6494 -0.0122 -0.8212
  484MOL0     C65262   5.371   1.948   2.004  0.3927  0.2786 -0.3574
  484MOL0     O65263   5.393   1.807   2.001 -0.2342 -0.0726  0.2010
  484MOL0     C65264   5.339   1.741   2.126 -0.3681  0.0070  0.3209
  484MOL0     C65265   5.353   1.588   2.121 -0.4458 -0.2796  1.0511
  484MOL0     C65266   5.315   1.541   1.977 -0.4411  0.5264 -0.0946
  484MOL0     C65267   5.337   1.388   1.964 -0.7231  0.9033  0.7742
  484MOL0     C65268   5.478   1.357   1.926 -0.1297  0.0517 -0.5106
  484MOL0     C65269   5.597   1.342   1.919 -0.5034 -0.5687 -0.7638
  484MOL0     C65270   5.284   2.001   1.897 -0.2109 -0.1069 -0.9124
  484MOL0     C65271   5.251   2.135   1.899  0.2785  0.4411 -0.8858
  484MOL0     C65272   5.153   2.179   1.799  0.6358  0.1378  0.3341
  484MOL0     H65273   5.265   2.664   2.096 -1.5483  1.2904 -1.8952
  484MOL0     H65274   5.085   2.841   2.133 -0.9884 -1.0198 -4.1874
  484MOL0     H65275   4.952   2.988   2.208 -0.4580  0.4700 -1.7405
  484MOL0     H65276   4.836   2.894   2.107  1.8028 -3.1727  0.5410
  484MOL0     H65277   4.777   3.045   2.361 -1.6902  1.4964 -0.1324
  484MOL0     H65278   4.663   2.960   2.245 -1.5212  1.9992  0.2012
  484MOL0     H65279   4.767   3.117   2.070  0.1888  0.0212 -1.6932
  484MOL0     H65280   4.769   3.236   2.205  1.9639 -1.5896  2.3524
  484MOL0     H65281   4.527   3.074   2.127  1.0773 -0.6845 -2.6879
  484MOL0     H65282   4.543   3.218   2.243  1.3643  0.2583  0.3211
  484MOL0     H65283   4.592   3.246   1.946 -0.5728 -2.4969 -0.8611
  484MOL0     H65284   4.435   3.260   2.016 -0.2782  0.4759 -0.2281
  484MOL0     H65285   4.653   3.412   2.159 -0.6336 -1.3204  0.5383
  484MOL0     H65286   4.586   3.480   2.003 -2.8264  0.9473 -0.2648
  484MOL0     H65287   4.430   3.415   2.252 -2.8910  0.3403 -0.6170
  484MOL0     H65288   4.356   3.477   2.115 -1.8434 -3.5780  2.6123
  484MOL0     H65289   4.588   3.622   2.251  0.9964  1.2558 -3.3837
  484MOL0     H65290   4.477   3.685   2.140 -3.4495 -1.5419 -0.8705
  484MOL0     H65291   4.432   3.492   2.494 -0.2338  0.1264 -0.9639
  484MOL0     H65292   4.322   3.557   2.740  3.7651 -1.5921 -2.9364
  484MOL0     H65293   4.214   3.693   2.730  1.5479 -0.9258  0.9474
  484MOL0     H65294   4.083   3.522   2.754  1.3343 -2.3751  0.2790
  484MOL0     H65295   4.066   3.575   2.583 -1.4970 -1.8018 -0.7390
  484MOL0     H65296   4.205   3.322   2.689 -1.0885  1.3165  2.0094
  484MOL0     H65297   4.203   3.359   2.518  1.4474 -0.8120  0.2282
  484MOL0     H65298   3.979   3.323   2.492 -2.4902 -0.7363  0.0749
  484MOL0     H65299   3.927   3.347   2.652  1.0385 -0.0011  2.1169
  484MOL0     H65300   3.962   2.931   2.568 -0.3644  0.3169  0.4536
  484MOL0     H65301   3.848   2.792   2.733 -0.2076 -0.2765  1.7312
  484MOL0     H65302   3.739   2.666   3.230 -1.5140 -0.3742 -0.2381
  484MOL0     H65303   3.569   2.552   3.360  0.0364 -0.6499  2.3485
  484MOL0     H65304   3.191   2.677   3.552  1.8609 -0.6023  1.1455
  484MOL0     H65305   3.287   2.820   3.505  1.3169 -1.4416  0.2121
  484MOL0     H65306   3.126   2.822   3.299 -0.1013 -3.7769 -2.1290
  484MOL0     H65307   3.047   2.673   3.350  0.7166 -1.6332  0.9521
  484MOL0     H65308   2.991   2.812   3.578 -0.4542 -0.1672 -0.6970
  484MOL0     H65309   3.023   2.948   3.480  1.4681 -0.7483  0.6882
  484MOL0     H65310   2.811   2.740   3.439  0.1357 -0.5511 -1.4374
  484MOL0     H65311   2.856   2.810   3.304  1.5494 -0.1313 -0.5531
  484MOL0     H65312   2.808   3.037   3.374 -1.9266  1.2594  0.0641
  484MOL0     H65313   2.793   3.002   3.545 -0.5733  1.1115  0.1073
  484MOL0     H65314   2.586   2.914   3.326 -1.0698  0.4860  0.0635
  484MOL0     H65315   2.581   2.878   3.496  1.0303 -0.5123  0.3248
  484MOL0     H65316   2.608   3.167   3.407 -0.0974  1.3058  0.5274
  484MOL0     H65317   2.557   3.095   3.561 -1.2165 -1.1069  0.8615
  484MOL0     H65318   2.349   3.181   3.431  1.2349  0.1186  3.4102
  484MOL0     H65319   2.404   3.091   3.292 -0.7636  0.3695 -0.5894
  484MOL0     H65320   3.292   2.882   3.238 -0.3442  0.0576  1.3728
  484MOL0     H65321   3.488   2.999   3.153 -0.0306 -1.1652 -2.9078
  484MOL0     H65322   3.848   3.112   3.023 -2.5524 -3.0092 -0.0319
  484MOL0     H65323   3.956   3.244   2.862 -0.1371 -0.8384  1.8299
  484MOL0     H65324   4.877   2.550   2.382  2.3102 -2.7548  0.8168
  484MOL0     H65325   5.019   2.383   2.319  0.0569  1.4163  3.5096
  484MOL0     H65326   5.409   2.229   2.184 -0.1230 -3.5770  3.2299
  484MOL0     H65327   5.487   1.991   2.182  0.6930 -1.9726 -2.4855
  484MOL0     H65328   5.239   1.778   2.150  0.5939  3.2093 -0.1886
  484MOL0     H65329   5.406   1.779   2.204  0.7328  1.0238 -1.0605
  484MOL0     H65330   5.287   1.532   2.188  0.6251 -3.6860 -0.4764
  484MOL0     H65331   5.460   1.571   2.136  0.8394  4.0554 -1.4443
  484MOL0     H65332   5.380   1.586   1.902 -0.1224  1.0544  0.4931
  484MOL0     H65333   5.211   1.565   1.951  0.9836  3.9526 -3.7333
  484MOL0     H65334   5.312   1.328   2.052  1.1583 -0.1342  0.6700
  484MOL0     H65335   5.280   1.354   1.878  2.2282  0.2178 -1.0622
  484MOL0     H65336   5.702   1.322   1.907 -0.1605 -0.0630  1.0875
  484MOL0     H65337   5.255   1.938   1.813 -0.0577 -2.3865  0.6464
  484MOL0     H65338   5.126   2.089   1.743 -2.9768  0.3868  1.4109
  484MOL0     H65339   5.056   2.197   1.847 -0.5971 -4.0544 -0.1663
  484MOL0     H65340   5.198   2.243   1.723 -0.3291 -3.5486 -3.7295
  485MOL0     O65341   5.968   0.125   0.370  0.6510  0.2807  0.3245
  485MOL0     C65342   6.000   0.221   0.433  0.2130  0.0098  0.3172
  485MOL0     O65343   5.931   0.280   0.533 -0.7703  0.7026 -0.2168
  485MOL0     C65344   5.810   0.236   0.601  0.1280 -0.6422 -0.1344
  485MOL0     C65345   5.777   0.316   0.704 -1.0362  0.0448 -1.1047
  485MOL0     C65346   5.675   0.292   0.796  0.0769  0.5441  0.4815
  485MOL0     C65347   5.596   0.167   0.782 -0.3925 -0.3006 -0.3474
  485MOL0     O65348   5.491   0.130   0.869  0.1473 -0.4065 -0.6309
  485MOL0     C65349   5.406   0.234   0.918 -0.1781 -0.7431 -0.5953
  485MOL0     C65350   5.416   0.268   1.068  0.0989  0.2544  0.0479
  485MOL0     C65351   5.347   0.398   1.091 -0.8924 -0.0386 -1.3496
  485MOL0     C65352   5.197   0.394   1.064  0.2705  0.4535  0.2469
  485MOL0     C65353   5.113   0.521   1.111 -0.2117 -0.2468  0.2129
  485MOL0     C65354   5.070   0.514   1.256 -0.0666  0.0043 -0.4408
  485MOL0     C65355   4.938   0.453   1.284  0.8298  0.1152  1.6973
  485MOL0     C65356   4.807   0.532   1.251  1.2542  0.2794  0.0706
  485MOL0     N65357   4.790   0.656   1.333 -0.9822  0.4589  0.4966
  485MOL0     C65358   4.797   0.662   1.472  0.6982  1.0260  0.5149
  485MOL0     C65359   4.822   0.785   1.499  0.6914  0.3658 -1.1574
  485MOL0     C65360   4.850   0.830   1.639 -0.3289 -0.1933  0.1149
  485MOL0     C65361   4.997   0.861   1.640 -1.0767  0.5758  1.0296
  485MOL0     C65362   5.016   1.016   1.624  0.3422 -0.2822 -0.2528
  485MOL0     C65363   5.161   1.038   1.606 -0.0442 -1.0057  0.3095
  485MOL0     O65364   5.244   1.008   1.715  0.4740 -0.3960 -0.2858
  485MOL0     C65365   5.379   1.011   1.688 -0.8659 -0.6019  0.0727
  485MOL0     C65366   5.446   1.110   1.607  0.2795  0.5554 -0.8558
  485MOL0     C65367   5.586   1.137   1.617 -0.0772 -0.1910  0.2750
  485MOL0     C65368   5.663   1.059   1.706 -0.1298 -1.1665  0.8199
  485MOL0     C65369   5.801   1.090   1.739 -0.2749 -1.1213 -0.5429
  485MOL0     O65370   5.859   1.028   1.848 -0.3399 -0.0824  0.2352
  485MOL0     C65371   5.974   1.082   1.905 -0.0168 -0.0686  0.2358
  485MOL0     C65372   6.098   1.047   1.861  0.0350  0.2390 -0.5960
  485MOL0     C65373   6.220   1.099   1.906  0.8164 -0.6949  0.8609
  485MOL0     C65374   6.215   1.205   1.999  0.2472 -0.8440 -0.1048
  485MOL0     O65375   6.338   1.255   2.033 -0.0308 -0.8555  0.9843
  485MOL0     C65376   6.339   1.366   2.129 -0.1263 -0.0914  0.0827
  485MOL0     C65377   6.466   1.402   2.203 -0.9075  0.3445 -1.0971
  485MOL0     C65378   6.541   1.277   2.255  1.2105 -0.7626  0.6920
  485MOL0     C65379   6.669   1.313   2.315  0.0168  0.5911 -0.0554
  485MOL0     C65380   6.737   1.190   2.382  0.1791  0.5959  0.8098
  485MOL0     C65381   6.788   1.100   2.268  1.3829 -0.1375  0.3586
  485MOL0     C65382   6.881   0.993   2.315 -0.3746  1.3367 -0.4229
  485MOL0     C65383   6.813   0.893   2.405  0.2563 -0.4955  0.0119
  485MOL0    Cl65384   6.925   0.745   2.418  0.5806  0.2022  0.2096
  485MOL0     C65385   6.092   1.244   2.046 -0.1940  0.6145 -0.5200
  485MOL0     C65386   5.973   1.185   1.998 -0.7140 -0.5963 -0.5664
  485MOL0     O65387   5.847   1.189   1.671  0.4891  0.0892 -0.9973
  485MOL0     C65388   5.599   0.946   1.763  0.7795 -1.1448 -0.0331
  485MOL0     C65389   5.463   0.925   1.753  0.0595  0.6301 -1.0512
  485MOL0     N65390   4.814   0.861   1.386 -0.6170 -0.8682 -0.5583
  485MOL0     N65391   4.806   0.786   1.287  0.9232  0.1640  0.2966
  485MOL0     C65392   5.642   0.067   0.689 -0.3946 -0.2903  0.5482
  485MOL0     C65393   5.754   0.106   0.597  0.2461  0.1233  0.4056
  485MOL0     C65394   6.127   0.300   0.402  0.0311 -0.2355 -0.2829
  485MOL0     C65395   6.179   0.393   0.491  0.0186 -0.3960 -0.1196
  485MOL0     C65396   6.304   0.458   0.475  0.9816 -0.1118 -0.4833
  485MOL0     C65397   6.369   0.448   0.359 -0.0558 -0.2224  0.2793
  485MOL0     O65398   6.481   0.524   0.338 -0.0188 -0.7091  0.3137
  485MOL0     C65399   6.444   0.658   0.293  0.5572 -0.4208  0.4796
  485MOL0     C65400   6.513   0.768   0.385  0.6391  0.0111  0.1861
  485MOL0     C65401   6.623   0.851   0.328 -0.1549  0.3884 -0.9473
  485MOL0     C65402   6.583   0.988   0.266 -1.0240  0.6205 -0.0161
  485MOL0     C65403   6.638   1.092   0.360 -0.3669  0.1246  0.6056
  485MOL0     C65404   6.684   1.186   0.415  0.4409 -0.8585 -0.0851
  485MOL0     C65405   6.325   0.365   0.262 -0.1685  0.1397 -0.4014
  485MOL0     C65406   6.207   0.285   0.281 -0.9672  1.4199 -0.9566
  485MOL0     C65407   6.164   0.197   0.166 -0.5224  0.6835  0.2908
  485MOL0     H65408   5.844   0.400   0.720 -2.0633  0.4614  1.5289
  485MOL0     H65409   5.651   0.347   0.886 -0.0929 -0.8826  1.3461
  485MOL0     H65410   5.424   0.327   0.864  1.8630 -2.4854 -3.1929
  485MOL0     H65411   5.306   0.199   0.892  0.2408 -3.4416  1.0699
  485MOL0     H65412   5.517   0.258   1.111  0.5269  1.8134 -0.5368
  485MOL0     H65413   5.367   0.190   1.127  2.5708 -1.4516  0.0129
  485MOL0     H65414   5.387   0.490   1.046 -2.1567  1.0009 -0.4530
  485MOL0     H65415   5.359   0.408   1.199  3.3361 -1.8440 -1.4530
  485MOL0     H65416   5.190   0.388   0.955  2.6665  0.2813  0.0567
  485MOL0     H65417   5.165   0.301   1.112 -0.1785  0.8182  0.6700
  485MOL0     H65418   5.184   0.604   1.105 -2.1836  1.4324 -1.2372
  485MOL0     H65419   5.028   0.543   1.046 -1.0474 -0.7324  1.1142
  485MOL0     H65420   5.143   0.457   1.314 -0.9296 -3.0662 -2.1714
  485MOL0     H65421   5.054   0.618   1.286  1.3389  0.0085  0.3840
  485MOL0     H65422   4.927   0.438   1.392 -0.2763 -3.0082  1.2642
  485MOL0     H65423   4.933   0.350   1.248  3.2595  0.3673  0.4634
  485MOL0     H65424   4.812   0.544   1.143 -0.2605 -6.2600 -1.1399
  485MOL0     H65425   4.716   0.472   1.263  2.8257 -1.6902  3.8846
  485MOL0     H65426   4.790   0.573   1.532  0.5265 -0.0431 -1.0220
  485MOL0     H65427   4.792   0.921   1.655  2.3777  1.6703  0.0115
  485MOL0     H65428   4.826   0.756   1.715  2.8947  0.3441  1.8198
  485MOL0     H65429   5.030   0.842   1.742 -1.1743 -0.1941  0.9217
  485MOL0     H65430   5.056   0.801   1.570 -1.5874  0.6478  0.5279
  485MOL0     H65431   4.983   1.074   1.711  1.3212 -0.4791  0.2724
  485MOL0     H65432   4.959   1.061   1.542 -0.5154  4.4317  2.5242
  485MOL0     H65433   5.173   1.146   1.592 -0.0110 -0.8757  1.2518
  485MOL0     H65434   5.188   0.976   1.520  2.2157  0.4580 -0.1463
  485MOL0     H65435   5.388   1.171   1.539  0.6395  0.7490 -0.9921
  485MOL0     H65436   5.632   1.222   1.567  2.6773 -1.2176  0.8517
  485MOL0     H65437   6.108   0.961   1.795 -1.0600 -1.0861  0.9057
  485MOL0     H65438   6.315   1.058   1.874  0.9197  1.3055 -1.7427
  485MOL0     H65439   6.300   1.458   2.086 -0.7915 -0.3387  0.1441
  485MOL0     H65440   6.268   1.335   2.207  0.5636 -2.0088 -0.0032
  485MOL0     H65441   6.531   1.465   2.142  0.7827  1.1397  1.3779
  485MOL0     H65442   6.447   1.464   2.291  0.1274 -1.2343  0.3047
  485MOL0     H65443   6.485   1.215   2.325  1.0898  1.1841  2.4119
  485MOL0     H65444   6.557   1.215   2.166 -2.0202 -0.1985 -0.4120
  485MOL0     H65445   6.639   1.383   2.393 -3.9337 -1.9130  0.9938
  485MOL0     H65446   6.731   1.374   2.248 -1.3552  0.1214 -1.8392
  485MOL0     H65447   6.682   1.126   2.453 -0.1118 -0.9710 -0.7574
  485MOL0     H65448   6.824   1.232   2.433  2.5119 -2.8446  0.0431
  485MOL0     H65449   6.702   1.053   2.218 -0.1154  3.3188 -0.6596
  485MOL0     H65450   6.830   1.153   2.182 -0.3244  0.6412 -0.0480
  485MOL0     H65451   6.959   1.039   2.376 -0.5209 -0.3878  1.1533
  485MOL0     H65452   6.917   0.940   2.227 -2.8074 -0.1275 -0.6314
  485MOL0     H65453   6.802   0.939   2.504 -2.5775  1.3148 -0.9950
  485MOL0     H65454   6.714   0.871   2.364 -0.0394  0.5096  0.1509
  485MOL0     H65455   6.094   1.330   2.113  1.5900 -0.2836  0.6528
  485MOL0     H65456   5.879   1.220   2.040 -0.2945  0.7362 -0.6966
  485MOL0     H65457   5.654   0.867   1.814  1.2459 -1.4789 -1.0145
  485MOL0     H65458   5.418   0.860   1.827 -1.4034  1.7132 -0.9433
  485MOL0     H65459   5.582  -0.023   0.676 -0.5836 -0.3697  1.8011
  485MOL0     H65460   5.776   0.048   0.507  0.3439  5.8526 -3.8866
  485MOL0     H65461   6.123   0.421   0.580 -0.3952 -1.2014 -0.1198
  485MOL0     H65462   6.321   0.535   0.549 -2.8488  1.5772 -1.0802
  485MOL0     H65463   6.337   0.679   0.305  0.6186  1.9377 -2.1152
  485MOL0     H65464   6.449   0.679   0.186 -0.6680  3.6081  1.0319
  485MOL0     H65465   6.533   0.709   0.476 -2.0244 -1.2618  0.0344
  485MOL0     H65466   6.435   0.842   0.402 -0.0929 -0.9864  1.3368
  485MOL0     H65467   6.676   0.780   0.265 -1.8912 -1.7928 -0.0798
  485MOL0     H65468   6.690   0.868   0.413  0.8815 -2.5340 -1.0836
  485MOL0     H65469   6.620   1.010   0.165  0.8423 -0.6212  0.3409
  485MOL0     H65470   6.477   1.012   0.269 -1.8155 -2.4056  0.2852
  485MOL0     H65471   6.721   1.276   0.459  0.2714 -0.2557 -1.1518
  485MOL0     H65472   6.374   0.386   0.168 -0.0624 -1.3551 -0.7019
  485MOL0     H65473   6.214   0.225   0.073  0.9609 -2.4779 -0.0159
  485MOL0     H65474   6.175   0.090   0.188  0.0385  0.1268 -2.3259
  485MOL0     H65475   6.059   0.214   0.141 -0.4448  0.6482 -0.0572
  486MOL0     O65476   2.180   7.098  11.035 -0.6367 -2.0574 -0.2659
  486MOL0     C65477   2.242   7.207  11.051  0.5128  0.1872 -0.8417
  486MOL0     O65478   2.330   7.229  11.145  0.9064  0.4151  0.0744
  486MOL0     C65479   2.366   7.133  11.235  1.8804 -0.3033  0.0925
  486MOL0     C65480   2.280   7.052  11.310 -1.2762  0.0936  0.1520
  486MOL0     C65481   2.337   6.957  11.398 -0.3965  0.5285  0.2447
  486MOL0     C65482   2.479   6.928  11.404 -0.8687 -0.2326  0.1390
  486MOL0     O65483   2.536   6.837  11.495 -0.0899 -0.8145 -0.5324
  486MOL0     C65484   2.657   6.878  11.564 -0.2175 -0.4994  0.6114
  486MOL0     C65485   2.652   6.984  11.675 -0.3823 -0.0058  0.1201
  486MOL0     C65486   2.771   6.984  11.763  1.0465  0.1317  0.4307
  486MOL0     C65487   2.753   7.076  11.885  0.4005 -0.3730  0.7220
  486MOL0     C65488   2.879   7.097  11.955  0.4015 -0.5866 -0.5666
  486MOL0     C65489   2.851   7.188  12.071  0.4236  0.4434 -0.0036
  486MOL0     C65490   2.979   7.216  12.148 -0.5269  0.2870 -0.1006
  486MOL0     C65491   3.005   7.118  12.264  0.8251  0.0031 -0.2411
  486MOL0     N65492   3.143   7.124  12.313  0.3890 -1.0008  0.2781
  486MOL0     C65493   3.182   7.137  12.444  0.2441 -0.7646  0.3238
  486MOL0     C65494   3.322   7.138  12.436  0.1297 -0.8636  0.6087
  486MOL0     C65495   3.406   7.146  12.561 -0.5633  0.3253  1.0217
  486MOL0     C65496   3.441   7.299  12.602 -0.6079 -0.1381 -0.2532
  486MOL0     C65497   3.325   7.400  12.573  0.1818 -0.0844 -0.1672
  486MOL0     C65498   3.365   7.526  12.643  0.8590 -0.0895  0.0370
  486MOL0     O65499   3.398   7.515  12.782 -0.7038  0.4067  0.3492
  486MOL0     C65500   3.318   7.503  12.889 -0.1468  0.1515  0.6262
  486MOL0     C65501   3.181   7.493  12.877 -0.1497  0.4180  0.6083
  486MOL0     C65502   3.093   7.477  12.988 -0.1364 -0.5139  0.7359
  486MOL0     C65503   3.143   7.475  13.122  0.5722  0.7465  0.2461
  486MOL0     C65504   3.063   7.423  13.232  0.4912  0.0625 -0.0332
  486MOL0     O65505   2.940   7.370  13.192 -0.3598 -0.0576 -0.3969
  486MOL0     C65506   2.874   7.295  13.284  1.8022 -0.3754  0.6964
  486MOL0     C65507   2.929   7.183  13.336 -0.2640 -0.1454 -0.0026
  486MOL0     C65508   2.858   7.099  13.427 -0.8513  0.1548 -0.3106
  486MOL0     C65509   2.727   7.129  13.466 -0.0674 -0.5282  0.5157
  486MOL0     O65510   2.674   7.039  13.557 -0.2252  0.2700 -1.0938
  486MOL0     C65511   2.561   6.956  13.512 -0.8153 -0.8773 -0.7446
  486MOL0     C65512   2.628   6.819  13.460 -0.6128 -0.4159  0.7477
  486MOL0     C65513   2.724   6.758  13.562  0.3938 -0.1145 -0.0143
  486MOL0     C65514   2.676   6.709  13.699  0.4171  0.1924 -0.5180
  486MOL0     C65515   2.582   6.590  13.681 -0.2532 -0.3723 -0.8818
  486MOL0     C65516   2.534   6.550  13.825  0.5187 -0.7089  0.2744
  486MOL0     C65517   2.425   6.442  13.815  0.1476  0.9503 -0.3893
  486MOL0     C65518   2.369   6.409  13.949  0.5543 -0.0544 -0.4031
  486MOL0    Cl65519   2.250   6.546  13.986 -0.1590  0.0364  0.0291
  486MOL0     C65520   2.670   7.256  13.424 -0.6032  0.3833 -0.1719
  486MOL0     C65521   2.736   7.339  13.326  0.0566  0.0039  0.0084
  486MOL0     O65522   3.109   7.418  13.347  0.0870  0.7664 -0.5790
  486MOL0     C65523   3.279   7.493  13.133  0.0855 -1.3063  0.3345
  486MOL0     C65524   3.366   7.498  13.022  0.3672 -1.0509  0.9127
  486MOL0     N65525   3.354   7.121  12.301  0.7321 -0.6722  0.1666
  486MOL0     N65526   3.247   7.104  12.228 -0.8362  0.0271 -0.3110
  486MOL0     C65527   2.559   7.022  11.337 -0.0407 -0.0521 -1.1991
  486MOL0     C65528   2.501   7.121  11.255  0.7316  0.1447 -0.8359
  486MOL0     C65529   2.192   7.307  10.963  0.3910 -1.3297 -0.5454
  486MOL0     C65530   2.066   7.298  10.910 -0.1767  0.5619  0.4072
  486MOL0     C65531   2.012   7.394  10.827 -0.2286  0.3848 -0.2202
  486MOL0     C65532   2.088   7.506  10.791  0.8721  0.0460  0.0490
  486MOL0     O65533   2.059   7.625  10.731  0.1890 -0.5673 -0.2493
  486MOL0     C65534   1.925   7.642  10.685  1.3750 -0.7259  0.4932
  486MOL0     C65535   1.842   7.735  10.780 -0.9027 -0.0222  0.4446
  486MOL0     C65536   1.900   7.878  10.796 -1.0925 -0.5830  0.4084
  486MOL0     C65537   1.895   7.967  10.664  0.1391  0.3679  0.0408
  486MOL0     C65538   1.770   7.935  10.590 -0.6104  0.0885 -0.5103
  486MOL0     C65539   1.671   7.916  10.530  0.1148 -1.0563 -0.1889
  486MOL0     C65540   2.220   7.513  10.828 -0.2043  0.6305  0.0915
  486MOL0     C65541   2.266   7.414  10.920  0.3414 -0.1046 -0.9705
  486MOL0     C65542   2.412   7.437  10.956 -0.0542  0.7540 -0.1390
  486MOL0     H65543   2.173   7.064  11.324 -0.9836  0.2379  2.7278
  486MOL0     H65544   2.277   6.889  11.458 -1.2526 -1.4095 -2.5742
  486MOL0     H65545   2.681   6.789  11.621 -1.3223  0.4288  2.6078
  486MOL0     H65546   2.735   6.891  11.488 -1.9990 -0.1481 -1.2501
  486MOL0     H65547   2.561   6.964  11.733 -1.3224 -1.0826 -1.6206
  486MOL0     H65548   2.642   7.083  11.629  0.3181 -0.3565 -0.8234
  486MOL0     H65549   2.856   7.017  11.703  0.9394  1.8278  1.1574
  486MOL0     H65550   2.803   6.884  11.797  2.4270  0.2267 -0.5124
  486MOL0     H65551   2.716   7.171  11.845  0.8288  0.1823  1.6254
  486MOL0     H65552   2.678   7.028  11.948  1.6329 -2.8007  0.4642
  486MOL0     H65553   2.908   7.003  12.003  1.8896  1.4824  2.9205
  486MOL0     H65554   2.959   7.128  11.887  2.0005 -0.3783  1.3364
  486MOL0     H65555   2.808   7.281  12.032 -0.0710 -0.4813 -1.8015
  486MOL0     H65556   2.777   7.135  12.132  2.2116 -2.0600  0.1555
  486MOL0     H65557   2.982   7.323  12.170  0.3287  0.3148 -0.3222
  486MOL0     H65558   3.060   7.210  12.075 -0.7813  2.9309 -0.6903
  486MOL0     H65559   2.935   7.132  12.347 -0.4296  0.1308 -1.2904
  486MOL0     H65560   2.989   7.017  12.225 -1.8301 -0.2868  1.4094
  486MOL0     H65561   3.121   7.138  12.533  0.7533  0.6445  0.6893
  486MOL0     H65562   3.361   7.087  12.641 -1.7493 -0.9144 -0.4768
  486MOL0     H65563   3.501   7.092  12.551 -1.3562 -1.2615  1.6783
  486MOL0     H65564   3.466   7.290  12.708 -2.6838  0.9037  0.3861
  486MOL0     H65565   3.535   7.329  12.555 -0.1286 -1.1567  0.0175
  486MOL0     H65566   3.225   7.370  12.607  0.7179  0.1380  1.7086
  486MOL0     H65567   3.314   7.419  12.466 -0.2290  0.5700 -0.0180
  486MOL0     H65568   3.284   7.599  12.636  1.6172  0.8644  0.9313
  486MOL0     H65569   3.447   7.561  12.579 -1.3013  0.4185 -2.6327
  486MOL0     H65570   3.146   7.490  12.774  1.0226  1.1917  0.1679
  486MOL0     H65571   3.001   7.460  12.934  1.7444 -0.5705 -2.7752
  486MOL0     H65572   3.022   7.157  13.285  0.9455 -0.4381  2.2378
  486MOL0     H65573   2.898   7.010  13.473 -1.1498  0.7386  1.1206
  486MOL0     H65574   2.497   6.935  13.599 -0.7617 -1.6683 -0.8924
  486MOL0     H65575   2.517   7.007  13.426  2.6783  0.8786 -1.6778
  486MOL0     H65576   2.559   6.744  13.420  1.6976  0.1253 -5.4107
  486MOL0     H65577   2.687   6.839  13.369 -0.0370 -0.2481  1.1526
  486MOL0     H65578   2.760   6.665  13.516 -1.1904 -0.2512 -1.0586
  486MOL0     H65579   2.806   6.827  13.581  0.5981  0.0851 -1.4586
  486MOL0     H65580   2.615   6.788  13.745  0.9926  0.6057 -0.4547
  486MOL0     H65581   2.758   6.690  13.769  2.2155  1.5301 -2.1588
  486MOL0     H65582   2.645   6.507  13.647 -1.3460 -2.2071  1.3085
  486MOL0     H65583   2.498   6.626  13.621  1.2777  2.1323 -1.6361
  486MOL0     H65584   2.615   6.523  13.893  0.1674 -2.6942 -0.0531
  486MOL0     H65585   2.491   6.645  13.860 -1.5636 -1.2385 -0.6915
  486MOL0     H65586   2.478   6.355  13.777  0.9924  1.3309 -0.0888
  486MOL0     H65587   2.343   6.477  13.751  0.4712  1.4558 -0.5309
  486MOL0     H65588   2.317   6.313  13.953  0.4879 -0.1840 -2.8674
  486MOL0     H65589   2.448   6.406  14.025  1.7547 -1.7145 -1.6419
  486MOL0     H65590   2.580   7.295  13.470  0.6651  0.1413  2.7193
  486MOL0     H65591   2.682   7.417  13.274 -1.2676  1.1133  2.8013
  486MOL0     H65592   3.316   7.498  13.235 -0.0409  0.7965  0.3359
  486MOL0     H65593   3.474   7.497  13.029  0.4924  1.8828  0.5850
  486MOL0     H65594   2.667   7.024  11.337 -0.0287  0.4880  0.3100
  486MOL0     H65595   2.566   7.194  11.207  1.2973  1.5232  1.8080
  486MOL0     H65596   2.000   7.215  10.931 -0.6579  0.6127 -0.8894
  486MOL0     H65597   1.909   7.386  10.794 -0.2075  2.3202 -0.9214
  486MOL0     H65598   1.867   7.550  10.678  0.6292 -0.2924 -6.1742
  486MOL0     H65599   1.918   7.682  10.583 -1.9697 -2.6940 -0.2014
  486MOL0     H65600   1.846   7.686  10.877 -1.2977  0.3404  0.6482
  486MOL0     H65601   1.742   7.750  10.737  0.2155  0.1494 -2.2814
  486MOL0     H65602   2.004   7.862  10.826 -0.7610  0.7064  0.0096
  486MOL0     H65603   1.845   7.915  10.883 -0.0294  1.0788  0.4078
  486MOL0     H65604   1.903   8.071  10.694  1.9583 -0.3328  2.3191
  486MOL0     H65605   1.980   7.950  10.598 -0.2978  3.5126 -1.5227
  486MOL0     H65606   1.588   7.897  10.464 -0.8083  1.2048  0.2240
  486MOL0     H65607   2.280   7.590  10.780 -1.4458  0.5014 -1.7800
  486MOL0     H65608   2.469   7.344  10.963 -4.4789 -2.1172  2.4529
  486MOL0     H65609   2.458   7.503  10.882  0.6248 -1.3018 -1.6494
  486MOL0     H65610   2.400   7.478  11.057 -1.5015 -3.6066  1.7212
  487MOL0     O65611   0.296   6.189   6.595  0.2338  0.1447  0.0218
  487MOL0     C65612   0.307   6.296   6.659  0.0050 -0.0580 -0.0592
  487MOL0     O65613   0.268   6.419   6.619 -0.2452 -0.0185 -0.2348
  487MOL0     C65614   0.237   6.438   6.488  0.9793  1.0300  0.7982
  487MOL0     C65615   0.118   6.377   6.443  0.3288  0.3517  0.4808
  487MOL0     C65616   0.072   6.381   6.311  0.6555 -0.3748  0.3519
  487MOL0     C65617   0.146   6.454   6.219  0.2594  0.5293  0.4844
  487MOL0     O65618   0.109   6.454   6.094 -0.1346  0.1904  0.4167
  487MOL0     C65619   0.220   6.426   5.993  0.5505 -0.2834 -0.1661
  487MOL0     C65620   0.166   6.382   5.862  0.7087 -0.0402  0.4560
  487MOL0     C65621   0.275   6.363   5.769 -1.1127  1.1592 -0.1447
  487MOL0     C65622   0.240   6.363   5.616 -0.3086 -0.4318  0.5499
  487MOL0     C65623   0.204   6.503   5.561  0.0934  0.5818 -0.9075
  487MOL0     C65624   0.330   6.593   5.563 -0.8225  0.5086  0.5275
  487MOL0     C65625   0.304   6.741   5.584 -0.2474 -0.1872 -0.2784
  487MOL0     C65626   0.260   6.755   5.733 -0.2359  0.2070  1.4273
  487MOL0     N65627   0.235   6.896   5.763  0.2447 -0.1000  0.0285
  487MOL0     C65628   0.115   6.953   5.775  0.0347 -0.9383 -0.2216
  487MOL0     C65629   0.138   7.083   5.807 -0.6433 -0.1400  0.0281
  487MOL0     C65630   0.038   7.177   5.843  0.3664 -1.4625  0.8568
  487MOL0     C65631  -0.014   7.185   5.991 -0.6678 -0.2143 -0.3854
  487MOL0     C65632  -0.118   7.088   6.033 -0.5930  1.0709 -0.0215
  487MOL0     C65633  -0.261   7.122   5.982 -1.0869  0.7363 -0.9055
  487MOL0     O65634  -0.322   7.228   6.064 -0.1205 -0.2470 -0.6244
  487MOL0     C65635  -0.408   7.306   5.998 -0.0819  0.0577  0.4035
  487MOL0     C65636  -0.507   7.257   5.905 -0.5823  0.9888  0.5104
  487MOL0     C65637  -0.583   7.347   5.832  0.9261  0.0365 -0.2741
  487MOL0     C65638  -0.570   7.488   5.852 -0.2958  1.3808 -0.2253
  487MOL0     C65639  -0.652   7.579   5.776 -0.2270  0.1528 -0.3451
  487MOL0     O65640  -0.729   7.541   5.675 -0.6334 -0.6939  0.1756
  487MOL0     C65641  -0.846   7.611   5.641 -0.7142  0.3730 -0.3990
  487MOL0     C65642  -0.853   7.689   5.526  0.3656 -1.1068  1.0154
  487MOL0     C65643  -0.970   7.772   5.499 -0.1081  0.2664  0.8595
  487MOL0     C65644  -1.076   7.764   5.590  0.5362 -1.0332  0.8102
  487MOL0     O65645  -1.192   7.839   5.551  0.7517  0.8719  0.6310
  487MOL0     C65646  -1.316   7.817   5.627  1.5695 -0.1227 -0.2127
  487MOL0     C65647  -1.436   7.906   5.589  1.3588  0.3015  0.1986
  487MOL0     C65648  -1.575   7.844   5.629  0.3916 -0.0843 -0.4074
  487MOL0     C65649  -1.616   7.892   5.771 -0.3418 -0.2591  0.2987
  487MOL0     C65650  -1.762   7.866   5.805 -0.4736 -0.3604  0.1364
  487MOL0     C65651  -1.804   7.717   5.796  0.0011  0.0360 -1.1451
  487MOL0     C65652  -1.898   7.690   5.687 -0.2972  0.1324  0.2284
  487MOL0     C65653  -1.897   7.542   5.661  0.3262  0.7627 -0.1243
  487MOL0    Cl65654  -1.736   7.501   5.598  0.5673  0.1068 -0.1612
  487MOL0     C65655  -1.070   7.683   5.709 -1.0696 -0.4161  0.7496
  487MOL0     C65656  -0.954   7.604   5.725 -0.1893 -0.3022  0.5177
  487MOL0     O65657  -0.652   7.692   5.828  0.7407  0.4168 -0.3662
  487MOL0     C65658  -0.483   7.528   5.955 -0.1982 -0.0291  0.1371
  487MOL0     C65659  -0.390   7.443   6.019  0.4049  0.3967  0.0270
  487MOL0     N65660   0.277   7.098   5.812 -0.1490  0.3847 -0.1685
  487MOL0     N65661   0.330   6.994   5.769  0.0576  0.7075  0.2375
  487MOL0     C65662   0.275   6.503   6.263 -1.0045  0.2828  0.1745
  487MOL0     C65663   0.310   6.507   6.394  0.2240  0.4429 -0.3239
  487MOL0     C65664   0.361   6.283   6.806  1.0590  1.1979  0.8811
  487MOL0     C65665   0.477   6.210   6.811  1.2717  0.1151 -0.2351
  487MOL0     C65666   0.531   6.194   6.942 -0.4299  0.4449  0.4294
  487MOL0     C65667   0.468   6.250   7.053 -0.5925 -0.1239 -0.2840
  487MOL0     O65668   0.507   6.229   7.178 -0.4040  0.3475 -0.1228
  487MOL0     C65669   0.541   6.096   7.219 -0.4228 -0.3974  0.3222
  487MOL0     C65670   0.495   6.090   7.364 -0.6285  0.3133  0.9530
  487MOL0     C65671   0.347   6.071   7.375 -0.1938  0.4200 -0.0868
  487MOL0     C65672   0.294   5.965   7.277  0.2061 -0.0866 -0.2075
  487MOL0     C65673   0.159   5.930   7.326  0.2073 -0.3042 -0.0876
  487MOL0     C65674   0.053   5.917   7.383  0.4255  0.5279  0.2285
  487MOL0     C65675   0.344   6.316   7.038 -0.6360 -0.0831 -0.2197
  487MOL0     C65676   0.287   6.334   6.914  0.5921 -0.3730 -0.3098
  487MOL0     C65677   0.162   6.411   6.909  1.2783 -0.1690 -0.7641
  487MOL0     H65678   0.056   6.318   6.510 -0.3452  0.1405 -0.3158
  487MOL0     H65679  -0.023   6.340   6.277  0.0286 -0.1895  1.7638
  487MOL0     H65680   0.267   6.520   5.965 -3.0099  1.2255 -1.7518
  487MOL0     H65681   0.288   6.347   6.026 -0.4536 -0.2921  2.1359
  487MOL0     H65682   0.094   6.452   5.819  1.3498  0.4589  0.1867
  487MOL0     H65683   0.121   6.283   5.875  0.0221  0.3458  1.0797
  487MOL0     H65684   0.322   6.273   5.808  0.1086  2.2578  1.0442
  487MOL0     H65685   0.354   6.437   5.785  0.8490 -0.4410 -1.8204
  487MOL0     H65686   0.326   6.317   5.565  0.2214  1.3026 -0.2030
  487MOL0     H65687   0.148   6.304   5.611 -1.3239  1.1649 -0.7349
  487MOL0     H65688   0.166   6.502   5.459  0.7727  1.2343 -1.1755
  487MOL0     H65689   0.129   6.543   5.630  0.4521  2.0199 -1.3250
  487MOL0     H65690   0.405   6.568   5.639 -2.6811  3.4575  3.6266
  487MOL0     H65691   0.377   6.575   5.466 -2.3007 -4.9728  0.5173
  487MOL0     H65692   0.238   6.787   5.510 -0.5008  0.5079  0.3691
  487MOL0     H65693   0.399   6.795   5.574  0.3953 -1.0106  1.0515
  487MOL0     H65694   0.164   6.707   5.755 -1.2319  3.4662  5.4779
  487MOL0     H65695   0.332   6.716   5.804 -0.2595 -0.4860  1.0789
  487MOL0     H65696   0.026   6.895   5.755 -1.4862  0.1779  2.5906
  487MOL0     H65697   0.084   7.275   5.828 -2.8907  0.0012 -0.5609
  487MOL0     H65698  -0.044   7.176   5.771  0.3351  3.9347  0.4517
  487MOL0     H65699   0.073   7.190   6.057 -2.2996  2.8129  1.7997
  487MOL0     H65700  -0.062   7.283   6.000  0.0286  0.1380 -0.4664
  487MOL0     H65701  -0.122   7.101   6.142  3.2102  1.9401  0.1697
  487MOL0     H65702  -0.087   6.987   6.005 -0.1056  1.6353 -1.6392
  487MOL0     H65703  -0.329   7.037   5.988 -0.4137  0.2651  1.1235
  487MOL0     H65704  -0.261   7.150   5.877 -0.4643  3.3446 -0.3021
  487MOL0     H65705  -0.500   7.149   5.900  1.1621  1.0661  0.8040
  487MOL0     H65706  -0.660   7.306   5.768 -1.1186  2.7226  0.2973
  487MOL0     H65707  -0.765   7.689   5.463  2.9682  0.3060  4.3293
  487MOL0     H65708  -0.984   7.829   5.408  1.8983  0.4688  0.6249
  487MOL0     H65709  -1.345   7.712   5.615 -0.3264  0.0818  1.9273
  487MOL0     H65710  -1.306   7.830   5.735  0.1677 -1.0275  0.0545
  487MOL0     H65711  -1.430   8.006   5.632  0.4142 -0.1167  1.3676
  487MOL0     H65712  -1.437   7.914   5.480 -0.2397 -0.7404  0.0970
  487MOL0     H65713  -1.654   7.884   5.565 -3.3953 -3.1840  1.8421
  487MOL0     H65714  -1.563   7.735   5.633 -0.8629 -0.1908  1.9516
  487MOL0     H65715  -1.607   8.001   5.781 -2.1171 -0.0135 -0.4907
  487MOL0     H65716  -1.555   7.840   5.846 -0.8382 -1.8958 -0.3967
  487MOL0     H65717  -1.827   7.931   5.746 -1.1909 -0.2193  1.0511
  487MOL0     H65718  -1.775   7.898   5.909 -2.3171 -1.1876  0.1977
  487MOL0     H65719  -1.715   7.655   5.780  0.7429  0.6705  0.2958
  487MOL0     H65720  -1.842   7.681   5.892  1.0791 -2.9105 -1.7135
  487MOL0     H65721  -1.869   7.735   5.592 -0.4078 -2.2671 -0.9958
  487MOL0     H65722  -1.995   7.733   5.714  0.7976  2.6713  0.3851
  487MOL0     H65723  -1.920   7.479   5.748 -1.3767  0.2381 -0.9227
  487MOL0     H65724  -1.971   7.514   5.586  0.5094 -0.7691  0.2408
  487MOL0     H65725  -1.157   7.672   5.772 -0.2871 -0.5236  1.8333
  487MOL0     H65726  -0.958   7.544   5.815  0.6600 -1.7447 -0.3716
  487MOL0     H65727  -0.468   7.634   5.974  1.7733  0.3501 -2.8822
  487MOL0     H65728  -0.314   7.491   6.079  0.7063 -1.3457  1.1130
  487MOL0     H65729   0.337   6.563   6.197  0.2900 -1.1560  0.0248
  487MOL0     H65730   0.401   6.557   6.426  1.4627  0.6209 -3.7167
  487MOL0     H65731   0.535   6.177   6.726  1.7932  1.0494 -0.2615
  487MOL0     H65732   0.618   6.133   6.960  0.3634  1.4706  0.1945
  487MOL0     H65733   0.650   6.092   7.209 -0.4278  1.3867 -0.7795
  487MOL0     H65734   0.513   6.013   7.154  0.5968 -0.7067  0.2579
  487MOL0     H65735   0.535   6.174   7.421 -3.0931  1.1556  1.5771
  487MOL0     H65736   0.537   5.997   7.404 -0.2590  0.0039 -0.1150
  487MOL0     H65737   0.300   6.167   7.351  1.0620  2.0263  3.2555
  487MOL0     H65738   0.328   6.049   7.480 -1.7492  0.8562 -0.2588
  487MOL0     H65739   0.297   6.006   7.175  0.0778  1.8558  0.5253
  487MOL0     H65740   0.360   5.878   7.275  2.5296  1.5985 -1.4019
  487MOL0     H65741  -0.040   5.925   7.437 -0.7548 -0.5324 -1.5711
  487MOL0     H65742   0.301   6.362   7.127  0.3866  1.5283 -0.5182
  487MOL0     H65743   0.176   6.509   6.861 -1.7867 -0.1221 -1.7558
  487MOL0     H65744   0.088   6.359   6.848  0.2643 -1.2696  1.3318
  487MOL0     H65745   0.121   6.428   7.008 -1.5030 -4.0148 -1.0342
  488MOL0     O65746   0.156   6.043   0.171  0.0191 -0.6830 -0.7857
  488MOL0     C65747   0.274   6.060   0.203  0.2915 -0.3399  0.2011
  488MOL0     O65748   0.377   5.980   0.168 -0.2760 -0.4029 -0.2266
  488MOL0     C65749   0.346   5.865   0.100  0.5544 -1.3030  0.1094
  488MOL0     C65750   0.264   5.762   0.151 -0.7474  0.3964  0.3960
  488MOL0     C65751   0.237   5.651   0.064  0.4755  0.2870  0.1175
  488MOL0     C65752   0.290   5.640  -0.072  1.1929 -1.1543 -0.2034
  488MOL0     O65753   0.248   5.545  -0.162  0.1048 -0.3003  0.4926
  488MOL0     C65754   0.164   5.430  -0.130 -1.3974 -0.4659  0.2217
  488MOL0     C65755   0.178   5.308  -0.228  0.1543 -1.2498 -1.1591
  488MOL0     C65756   0.088   5.190  -0.195  0.6013  0.5326  1.3591
  488MOL0     C65757   0.081   5.072  -0.302  0.2868 -0.9566 -0.5093
  488MOL0     C65758  -0.029   4.973  -0.278 -0.9589  0.2663  0.5941
  488MOL0     C65759  -0.036   4.846  -0.366 -0.4117  0.4150 -0.8709
  488MOL0     C65760  -0.056   4.865  -0.516  0.2395 -0.6608 -0.0170
  488MOL0     C65761  -0.191   4.913  -0.550  0.1474 -0.8782 -0.9767
  488MOL0     N65762  -0.293   4.824  -0.482 -0.1887  0.3083 -0.3431
  488MOL0     C65763  -0.301   4.689  -0.486  0.4144 -1.1475 -0.3003
  488MOL0     C65764  -0.388   4.654  -0.396  0.1790  0.2805  0.8933
  488MOL0     C65765  -0.421   4.505  -0.361 -0.9521  0.3700  0.2323
  488MOL0     C65766  -0.292   4.396  -0.391 -0.3057 -0.5807 -0.1419
  488MOL0     C65767  -0.312   4.277  -0.299  0.0791 -0.5186 -0.4592
  488MOL0     C65768  -0.222   4.158  -0.354 -0.2621 -0.4610 -1.0526
  488MOL0     O65769  -0.141   4.101  -0.245 -0.2755  0.3622 -0.2608
  488MOL0     C65770  -0.214   4.035  -0.145 -0.4411 -0.0317  0.1943
  488MOL0     C65771  -0.357   4.025  -0.124  0.5224  0.0634  0.4895
  488MOL0     C65772  -0.411   3.966  -0.009  0.1261  0.6840 -1.5254
  488MOL0     C65773  -0.321   3.924   0.094 -0.0894 -0.0198  0.2846
  488MOL0     C65774  -0.359   3.864   0.219 -0.5136 -0.9347  0.5859
  488MOL0     O65775  -0.487   3.891   0.259  0.9641  0.7366 -0.2603
  488MOL0     C65776  -0.539   3.827   0.375 -0.0262  0.1244 -0.7187
  488MOL0     C65777  -0.465   3.837   0.500  0.0791 -0.1973 -0.6189
  488MOL0     C65778  -0.491   3.747   0.606  0.5505 -0.1649 -1.3346
  488MOL0     C65779  -0.598   3.660   0.596 -0.6353  0.0342 -0.4676
  488MOL0     O65780  -0.625   3.568   0.702 -0.3544 -0.2895  0.2269
  488MOL0     C65781  -0.668   3.434   0.657  1.0818  0.4735 -0.2253
  488MOL0     C65782  -0.628   3.336   0.773 -0.1855  0.0634 -0.0025
  488MOL0     C65783  -0.480   3.327   0.799 -0.7519  0.8765  0.1836
  488MOL0     C65784  -0.450   3.252   0.932 -0.4435 -1.3289  0.6006
  488MOL0     C65785  -0.298   3.263   0.979  0.0251  0.2662  0.8468
  488MOL0     C65786  -0.280   3.219   1.122 -0.4334 -0.3974  0.7386
  488MOL0     C65787  -0.133   3.198   1.161  0.4740 -0.7800 -0.1369
  488MOL0     C65788  -0.108   3.203   1.319 -0.3471 -0.7960  0.2110
  488MOL0    Cl65789  -0.197   3.069   1.386  0.0880  0.4802  1.0122
  488MOL0     C65790  -0.682   3.669   0.481 -0.0873  0.0684  0.7776
  488MOL0     C65791  -0.653   3.754   0.369 -0.3893 -0.4512  0.5053
  488MOL0     O65792  -0.280   3.797   0.281  0.3060 -0.6524 -0.3416
  488MOL0     C65793  -0.187   3.944   0.075 -1.0870 -0.8791 -1.7977
  488MOL0     C65794  -0.130   3.994  -0.045  0.6245  0.2851 -1.4894
  488MOL0     N65795  -0.449   4.770  -0.345  0.5083  0.3168  0.8123
  488MOL0     N65796  -0.388   4.873  -0.402  1.0164  0.3129 -0.3853
  488MOL0     C65797   0.376   5.740  -0.121  0.5878 -0.6665  0.6571
  488MOL0     C65798   0.400   5.849  -0.038  0.0908 -0.1217 -0.4480
  488MOL0     C65799   0.308   6.181   0.281  0.0609 -0.3075 -0.0034
  488MOL0     C65800   0.228   6.299   0.262 -0.2509 -0.1827  0.4147
  488MOL0     C65801   0.256   6.417   0.325  0.1427  0.6114 -0.7288
  488MOL0     C65802   0.367   6.432   0.406  0.6717  0.7132 -0.0985
  488MOL0     O65803   0.400   6.556   0.456 -0.1398 -0.4655 -0.1421
  488MOL0     C65804   0.530   6.588   0.506  0.2536  0.2388 -0.2420
  488MOL0     C65805   0.526   6.737   0.496  0.1206  0.0927  0.0218
  488MOL0     C65806   0.401   6.805   0.564  1.3293 -0.1052  0.3089
  488MOL0     C65807   0.399   6.951   0.586 -0.2878  0.3519 -0.8806
  488MOL0     C65808   0.279   6.996   0.658 -0.0550 -1.0537 -0.0565
  488MOL0     C65809   0.196   7.040   0.734  0.7649  0.1315 -0.4141
  488MOL0     C65810   0.436   6.317   0.430 -0.2700 -0.3633 -0.1214
  488MOL0     C65811   0.420   6.192   0.365  0.6830 -0.6289 -0.1897
  488MOL0     C65812   0.528   6.083   0.382  0.8488  0.3172 -0.2072
  488MOL0     H65813   0.229   5.794   0.249  0.5334  2.6901  0.1899
  488MOL0     H65814   0.182   5.563   0.095  0.3586 -0.2959 -1.6392
  488MOL0     H65815   0.193   5.392  -0.032 -2.3243  1.2671  1.2194
  488MOL0     H65816   0.066   5.479  -0.123 -0.9415  0.5501 -0.2680
  488MOL0     H65817   0.281   5.272  -0.240 -0.3238 -2.7121 -1.0557
  488MOL0     H65818   0.139   5.335  -0.326 -2.9095  0.3196  0.3515
  488MOL0     H65819  -0.013   5.232  -0.193  0.2881 -0.2247  1.9698
  488MOL0     H65820   0.115   5.146  -0.099 -0.6276  2.2897  2.5827
  488MOL0     H65821   0.075   5.119  -0.400  1.6905  0.6283  0.1209
  488MOL0     H65822   0.178   5.021  -0.301  0.0352 -1.4818 -1.3169
  488MOL0     H65823  -0.012   4.932  -0.177 -1.9829 -0.4549  0.4963
  488MOL0     H65824  -0.127   5.022  -0.271 -0.3007  1.6948 -0.0340
  488MOL0     H65825   0.055   4.787  -0.351 -0.6091  0.0338 -1.1364
  488MOL0     H65826  -0.117   4.790  -0.318 -0.3824  0.7323 -0.4454
  488MOL0     H65827  -0.023   4.779  -0.574 -0.8619 -1.1165  0.0069
  488MOL0     H65828   0.010   4.948  -0.541 -1.3032  0.4790 -0.4963
  488MOL0     H65829  -0.215   5.015  -0.521 -0.2254 -0.9470 -1.0383
  488MOL0     H65830  -0.206   4.916  -0.658 -2.5812  1.6496 -0.6567
  488MOL0     H65831  -0.228   4.621  -0.527  2.8513  0.8159  0.5060
  488MOL0     H65832  -0.439   4.489  -0.255 -1.3733  0.4860  0.1825
  488MOL0     H65833  -0.512   4.480  -0.418  1.0872 -1.9904 -2.2715
  488MOL0     H65834  -0.290   4.357  -0.493  0.1264 -2.2545  0.4656
  488MOL0     H65835  -0.196   4.438  -0.357  0.0128 -1.9630  0.7569
  488MOL0     H65836  -0.418   4.251  -0.306  0.3729 -1.6450 -0.9363
  488MOL0     H65837  -0.279   4.294  -0.197  0.1143 -1.5456 -0.2945
  488MOL0     H65838  -0.146   4.189  -0.427  2.2165 -0.7601  1.2298
  488MOL0     H65839  -0.288   4.088  -0.405  0.7300 -2.1376 -0.1106
  488MOL0     H65840  -0.433   4.056  -0.196 -1.2739 -2.5964  1.1195
  488MOL0     H65841  -0.516   3.939   0.003  0.2103  0.3848 -1.4562
  488MOL0     H65842  -0.393   3.918   0.490  0.1193 -0.3475 -1.7545
  488MOL0     H65843  -0.430   3.748   0.695 -0.5410  1.3559 -0.5513
  488MOL0     H65844  -0.778   3.431   0.654  1.1204 -0.4499 -0.7642
  488MOL0     H65845  -0.634   3.396   0.561  0.2265 -0.9333  0.0098
  488MOL0     H65846  -0.676   3.373   0.864 -0.2419  0.1023 -0.0478
  488MOL0     H65847  -0.662   3.234   0.753  0.3601  0.4361 -3.5753
  488MOL0     H65848  -0.442   3.271   0.713  0.2833  2.4229 -0.4172
  488MOL0     H65849  -0.432   3.425   0.805 -0.5533  0.8810 -1.0815
  488MOL0     H65850  -0.485   3.149   0.938  0.5016 -1.6060  4.5145
  488MOL0     H65851  -0.500   3.300   1.017  0.3247 -2.6062  1.8138
  488MOL0     H65852  -0.268   3.366   0.962  0.2797  0.5507  2.8173
  488MOL0     H65853  -0.240   3.194   0.917 -1.0639 -1.4214  1.6241
  488MOL0     H65854  -0.313   3.302   1.185  2.2788  1.2996  0.1037
  488MOL0     H65855  -0.342   3.130   1.132 -0.8197 -0.1200  0.8446
  488MOL0     H65856  -0.077   3.288   1.134 -1.2360 -0.0720 -1.4276
  488MOL0     H65857  -0.089   3.115   1.104  1.1471 -0.1701 -0.5186
  488MOL0     H65858  -0.002   3.202   1.343 -0.1539 -3.5869 -0.4168
  488MOL0     H65859  -0.158   3.299   1.338  0.7003  0.2773 -2.0449
  488MOL0     H65860  -0.767   3.602   0.483 -0.7892  0.9465  0.9290
  488MOL0     H65861  -0.716   3.762   0.281  2.8410  2.8534 -1.7845
  488MOL0     H65862  -0.117   3.908   0.149 -2.2859  0.1149 -0.0946
  488MOL0     H65863  -0.023   4.006  -0.058  0.7116  0.8013 -0.3640
  488MOL0     H65864   0.417   5.731  -0.221  0.0171 -3.3070  0.5847
  488MOL0     H65865   0.469   5.927  -0.068 -3.2240  3.5602  0.7383
  488MOL0     H65866   0.142   6.294   0.196  0.4358 -0.8892 -0.4388
  488MOL0     H65867   0.195   6.507   0.326  1.0969  1.3158  1.4519
  488MOL0     H65868   0.613   6.546   0.448  0.3018 -1.4517  0.9677
  488MOL0     H65869   0.521   6.566   0.612  0.9096  0.2615 -0.1729
  488MOL0     H65870   0.546   6.766   0.392  0.4310 -0.2733 -0.0223
  488MOL0     H65871   0.610   6.780   0.551 -1.6383  2.4682  1.0263
  488MOL0     H65872   0.380   6.754   0.658  0.8139 -2.6038 -1.0442
  488MOL0     H65873   0.312   6.796   0.501 -1.7739  1.5084  4.0954
  488MOL0     H65874   0.484   6.970   0.652 -2.1382 -0.9401  2.0882
  488MOL0     H65875   0.403   6.999   0.488  0.6974  1.6677 -0.2260
  488MOL0     H65876   0.118   7.070   0.802 -1.9586 -4.1526 -1.2454
  488MOL0     H65877   0.524   6.313   0.493  0.2488  2.2436 -0.5502
  488MOL0     H65878   0.494   5.980   0.397  1.0909 -0.2029 -2.8112
  488MOL0     H65879   0.595   6.084   0.296 -0.5243 -1.6625 -1.3731
  488MOL0     H65880   0.592   6.102   0.469  0.8302 -2.4276  0.5150
  489MOL0     O65881   0.875   0.738   2.802 -0.9917 -0.4325  0.4376
  489MOL0     C65882   0.847   0.624   2.817  0.3286 -0.8140 -1.1344
  489MOL0     O65883   0.768   0.562   2.723 -0.2056  0.0712  0.2940
  489MOL0     C65884   0.709   0.637   2.626 -0.8227 -0.7377  0.5176
  489MOL0     C65885   0.784   0.710   2.530  0.0684  0.1757 -0.3567
  489MOL0     C65886   0.720   0.764   2.418  0.1793  1.2183  0.2440
  489MOL0     C65887   0.584   0.775   2.402  0.4400  0.0891 -0.8740
  489MOL0     O65888   0.537   0.829   2.287 -0.2598 -0.0188 -0.1057
  489MOL0     C65889   0.420   0.761   2.235  0.3516 -0.0364 -0.3496
  489MOL0     C65890   0.387   0.801   2.088 -0.8555  0.0357 -0.5609
  489MOL0     C65891   0.350   0.952   2.060  0.8597  0.6073  0.5978
  489MOL0     C65892   0.201   0.978   2.015  0.4000  0.4674 -0.0740
  489MOL0     C65893   0.177   0.967   1.858 -0.0149 -1.0171 -0.5429
  489MOL0     C65894   0.246   0.847   1.800  0.6386  1.8566  0.4893
  489MOL0     C65895   0.205   0.832   1.652 -0.4062  0.1337  0.6130
  489MOL0     C65896   0.317   0.776   1.566  0.1764 -0.4468  0.1480
  489MOL0     N65897   0.370   0.649   1.612 -1.3170  0.3001 -0.7622
  489MOL0     C65898   0.467   0.632   1.709 -0.4159  0.8238  0.1455
  489MOL0     C65899   0.452   0.503   1.748 -0.8572 -0.4962  0.1124
  489MOL0     C65900   0.517   0.439   1.857  0.4293  0.0400 -0.0128
  489MOL0     C65901   0.653   0.496   1.897 -1.0167 -0.0815  0.3248
  489MOL0     C65902   0.756   0.382   1.942  0.5007  0.2091  0.5207
  489MOL0     C65903   0.758   0.362   2.088  0.6697  0.7219 -0.6694
  489MOL0     O65904   0.627   0.322   2.129  0.7389 -0.1050  0.5343
  489MOL0     C65905   0.617   0.308   2.257 -0.5787 -0.0366 -0.0574
  489MOL0     C65906   0.486   0.280   2.294  0.1869  0.9012  0.4313
  489MOL0     C65907   0.453   0.272   2.435 -0.0917  0.2878  0.4043
  489MOL0     C65908   0.550   0.271   2.538  0.0789  0.9369 -0.2117
  489MOL0     C65909   0.515   0.264   2.684 -0.2437 -0.7061  0.5390
  489MOL0     O65910   0.627   0.240   2.765  0.2029 -0.2809 -0.0845
  489MOL0     C65911   0.604   0.221   2.901 -0.0912 -0.1890 -0.0413
  489MOL0     C65912   0.565   0.328   2.986 -0.0918 -0.0730 -0.3859
  489MOL0     C65913   0.577   0.304   3.121  0.9077 -0.2978 -0.4517
  489MOL0     C65914   0.587   0.168   3.177  0.2177 -0.7938 -0.3176
  489MOL0     O65915   0.603   0.148   3.308  0.1898  0.1134 -0.7651
  489MOL0     C65916   0.701   0.046   3.350  0.1230 -0.8663  0.2675
  489MOL0     C65917   0.647  -0.093   3.376  0.5584 -1.0844 -0.0509
  489MOL0     C65918   0.563  -0.096   3.507 -0.0150 -0.0589 -0.1831
  489MOL0     C65919   0.515  -0.237   3.551 -0.2579  1.1584  0.6729
  489MOL0     C65920   0.386  -0.233   3.629 -0.1793 -0.1175 -0.7264
  489MOL0     C65921   0.370  -0.107   3.732  0.3956 -0.2195 -0.3092
  489MOL0     C65922   0.247  -0.123   3.808  1.1347 -0.3812 -0.2540
  489MOL0     C65923   0.227  -0.004   3.914 -0.9792  1.0506 -0.5247
  489MOL0    Cl65924   0.336  -0.034   4.058  0.0497  0.2338  0.2005
  489MOL0     C65925   0.618   0.056   3.089 -0.7405 -0.1960 -0.6030
  489MOL0     C65926   0.627   0.090   2.952 -0.0006 -0.6538  0.3246
  489MOL0     O65927   0.400   0.257   2.713  0.3412 -0.1234  0.1938
  489MOL0     C65928   0.682   0.303   2.498  0.3363 -0.1393  0.3971
  489MOL0     C65929   0.707   0.322   2.357 -0.2701  0.5173 -1.8708
  489MOL0     N65930   0.353   0.443   1.672  0.4417  0.3111  0.2473
  489MOL0     N65931   0.306   0.535   1.590 -0.1890 -0.1857  0.0091
  489MOL0     C65932   0.509   0.706   2.507 -0.9077 -0.3883 -0.5027
  489MOL0     C65933   0.573   0.641   2.616 -0.5776  0.2901  0.2511
  489MOL0     C65934   0.916   0.539   2.928  0.9543 -0.7568 -0.1260
  489MOL0     C65935   0.900   0.396   2.932  0.3247 -0.5905 -0.0081
  489MOL0     C65936   0.954   0.318   3.028  0.5647 -0.1284 -0.9156
  489MOL0     C65937   1.026   0.368   3.130 -0.6198  0.6353 -0.7618
  489MOL0     O65938   1.074   0.286   3.231  0.2413  0.8405  0.3177
  489MOL0     C65939   1.069   0.136   3.221 -1.4165  1.0494 -0.4066
  489MOL0     C65940   1.204   0.069   3.260 -0.0382 -0.1409 -0.1615
  489MOL0     C65941   1.317   0.118   3.176 -0.4728  0.2365 -0.1344
  489MOL0     C65942   1.416  -0.002   3.154 -0.1140 -1.0496  1.0029
  489MOL0     C65943   1.361  -0.097   3.052 -0.3196 -0.4366 -0.3992
  489MOL0     C65944   1.300  -0.181   2.986 -0.4061  0.1874 -0.2900
  489MOL0     C65945   1.059   0.506   3.132  0.7601  0.0129 -0.4432
  489MOL0     C65946   1.009   0.591   3.032 -0.0628  0.6264  0.7606
  489MOL0     C65947   1.040   0.733   3.043 -0.3895  0.2831 -0.0227
  489MOL0     H65948   0.889   0.700   2.554  0.5812 -2.9103 -3.0910
  489MOL0     H65949   0.784   0.815   2.347  0.7541 -0.7409 -0.6887
  489MOL0     H65950   0.415   0.652   2.243  0.5113  0.0296  0.9517
  489MOL0     H65951   0.335   0.789   2.299 -1.3688 -1.6144 -1.8175
  489MOL0     H65952   0.310   0.732   2.051  0.5454 -2.5421  1.1002
  489MOL0     H65953   0.469   0.772   2.022 -0.2650  0.8558 -0.1913
  489MOL0     H65954   0.404   0.996   1.976  2.4905 -0.6972  0.8893
  489MOL0     H65955   0.367   1.017   2.147  0.2160  3.2147 -1.1220
  489MOL0     H65956   0.138   0.913   2.076  1.6777  2.5779  3.9081
  489MOL0     H65957   0.178   1.079   2.051  2.0274  0.1074  2.2163
  489MOL0     H65958   0.070   0.964   1.837  0.0531 -3.3008 -0.8083
  489MOL0     H65959   0.218   1.057   1.810 -1.0934 -1.9218 -3.3675
  489MOL0     H65960   0.354   0.839   1.809  0.5219 -0.8246  0.1758
  489MOL0     H65961   0.214   0.758   1.855  1.1444  1.4441  0.1176
  489MOL0     H65962   0.190   0.932   1.610  1.0694  0.4914  0.8952
  489MOL0     H65963   0.103   0.792   1.647  0.1586 -1.1997 -2.3696
  489MOL0     H65964   0.264   0.754   1.473 -1.3851 -2.2026  1.3682
  489MOL0     H65965   0.399   0.845   1.548  1.0232 -0.8940  2.0074
  489MOL0     H65966   0.542   0.704   1.740  1.6576 -0.2154 -2.1336
  489MOL0     H65967   0.449   0.440   1.942  2.5432 -1.7665  1.8151
  489MOL0     H65968   0.529   0.332   1.840  1.5793  0.0577  0.6147
  489MOL0     H65969   0.690   0.560   1.816 -1.4699  3.6891  2.8159
  489MOL0     H65970   0.647   0.577   1.970 -1.2927  1.2857 -1.1601
  489MOL0     H65971   0.856   0.415   1.914  0.6034  0.6022  1.3215
  489MOL0     H65972   0.743   0.289   1.886  0.5800  1.5897 -1.9485
  489MOL0     H65973   0.787   0.454   2.138 -0.3646  0.0083  1.3729
  489MOL0     H65974   0.830   0.285   2.118 -1.8422 -1.2288  0.8975
  489MOL0     H65975   0.401   0.254   2.231  0.9152 -1.7881  0.4277
  489MOL0     H65976   0.351   0.248   2.462  1.0069 -3.7883  1.7718
  489MOL0     H65977   0.563   0.426   2.937 -3.5802  0.5411  0.6931
  489MOL0     H65978   0.570   0.385   3.193  1.4642 -0.0083 -0.7129
  489MOL0     H65979   0.788   0.049   3.284  0.2105  2.2245  0.3818
  489MOL0     H65980   0.745   0.079   3.444  2.6498 -2.0350 -0.4083
  489MOL0     H65981   0.586  -0.126   3.293 -1.1831  0.4959  0.5212
  489MOL0     H65982   0.732  -0.162   3.382 -0.0531 -1.9444 -1.1228
  489MOL0     H65983   0.628  -0.047   3.581  2.2275  2.1574 -3.3243
  489MOL0     H65984   0.486  -0.019   3.496  0.5038  0.6383  0.8172
  489MOL0     H65985   0.594  -0.296   3.597 -0.1360 -0.6523 -1.6442
  489MOL0     H65986   0.489  -0.295   3.462  1.8544  2.3001 -0.7849
  489MOL0     H65987   0.359  -0.321   3.689 -2.1579  0.4956 -0.6272
  489MOL0     H65988   0.296  -0.214   3.571 -3.1163  1.5803  3.7974
  489MOL0     H65989   0.460  -0.102   3.794  1.4109 -3.4550 -1.2932
  489MOL0     H65990   0.372  -0.010   3.684  2.1401 -0.8157 -1.5101
  489MOL0     H65991   0.234  -0.221   3.856  0.1730 -0.6971 -1.0947
  489MOL0     H65992   0.159  -0.131   3.742 -0.5371  2.2231  1.4724
  489MOL0     H65993   0.247   0.096   3.873 -0.3071  1.2541  0.2766
  489MOL0     H65994   0.123  -0.005   3.947  0.0344  0.2666  3.0269
  489MOL0     H65995   0.639  -0.050   3.095 -0.2887 -0.0252  2.1753
  489MOL0     H65996   0.655   0.010   2.884  0.5500 -2.0572  2.1333
  489MOL0     H65997   0.766   0.326   2.563  1.4694  0.2161 -1.1260
  489MOL0     H65998   0.808   0.340   2.322  0.5532 -0.9564 -0.3949
  489MOL0     H65999   0.401   0.693   2.503 -0.9747 -0.0129 -0.0411
  489MOL0     H66000   0.524   0.585   2.695 -2.4519  0.4617 -0.7271
  489MOL0     H66001   0.847   0.355   2.847  1.4579  0.7844 -1.4471
  489MOL0     H66002   0.928   0.213   3.037  2.9574 -0.7711 -0.9467
  489MOL0     H66003   1.034   0.083   3.132  1.2893 -3.9064  1.1025
  489MOL0     H66004   0.998   0.112   3.301 -1.5487 -1.2801 -1.1699
  489MOL0     H66005   1.180  -0.037   3.244 -1.0264 -0.6537  3.5478
  489MOL0     H66006   1.230   0.083   3.366  2.3691 -0.4122 -0.6593
  489MOL0     H66007   1.372   0.200   3.223  1.4513  1.2939 -3.8145
  489MOL0     H66008   1.276   0.159   3.083 -1.0355  3.8936  1.5625
  489MOL0     H66009   1.513   0.027   3.114  0.8233 -2.0721  2.4363
  489MOL0     H66010   1.412  -0.053   3.251 -4.9593 -1.9847  0.5815
  489MOL0     H66011   1.256  -0.266   2.937 -0.5033  0.0730 -0.0076
  489MOL0     H66012   1.119   0.543   3.214  0.2536 -0.2556  0.0511
  489MOL0     H66013   1.110   0.754   3.124  0.4022  1.6367 -1.0077
  489MOL0     H66014   1.060   0.775   2.944 -1.1024 -3.1314 -1.7711
  489MOL0     H66015   0.950   0.777   3.087 -0.9595 -0.4703 -0.4008
  490MOL0     O66016   8.134   3.778   7.963  0.8277  0.7436  0.5386
  490MOL0     C66017   8.175   3.669   7.917  0.3471 -0.0378 -0.0249
  490MOL0     O66018   8.214   3.643   7.786 -0.3318 -0.1630 -0.7161
  490MOL0     C66019   8.204   3.734   7.686  0.3598 -0.2553  0.3468
  490MOL0     C66020   8.093   3.812   7.665  0.7421  0.2446 -0.0816
  490MOL0     C66021   8.073   3.890   7.551 -0.3646  0.4540  0.2442
  490MOL0     C66022   8.175   3.902   7.463  0.5769  0.2545 -0.0701
  490MOL0     O66023   8.168   3.985   7.361 -0.5698 -0.1084  0.1981
  490MOL0     C66024   8.276   3.978   7.262  0.8937 -0.1532  0.7450
  490MOL0     C66025   8.235   4.062   7.141 -0.2026  0.1616 -1.3391
  490MOL0     C66026   8.132   3.973   7.068  0.0261  0.0089 -0.4690
  490MOL0     C66027   8.048   4.036   6.951  0.9863 -0.5877  0.3309
  490MOL0     C66028   7.977   3.932   6.863 -0.6228  0.0760 -0.3140
  490MOL0     C66029   7.862   3.847   6.943 -0.0080  0.0955  0.2360
  490MOL0     C66030   7.743   3.827   6.837  0.6520 -0.5131  0.0871
  490MOL0     C66031   7.623   3.775   6.911  1.0695  0.7982  0.6820
  490MOL0     N66032   7.492   3.755   6.834  0.2154 -0.1544 -0.1160
  490MOL0     C66033   7.449   3.859   6.745  0.5046  0.6447  0.4151
  490MOL0     C66034   7.341   3.796   6.696  0.5203  0.2897  0.1458
  490MOL0     C66035   7.255   3.859   6.587  0.3677 -0.0405 -0.0261
  490MOL0     C66036   7.213   4.010   6.635 -1.0260  0.4923  0.1062
  490MOL0     C66037   7.085   4.015   6.715 -0.4782  0.9895  0.8170
  490MOL0     C66038   7.107   4.122   6.819  0.0781  0.2655 -0.3008
  490MOL0     O66039   7.145   4.246   6.769  0.4063  0.0098  0.4492
  490MOL0     C66040   7.045   4.314   6.695  0.0009  0.0696  0.0868
  490MOL0     C66041   7.095   4.439   6.643  0.9218  0.2367 -0.2020
  490MOL0     C66042   7.003   4.517   6.572 -0.0944  1.1456  0.2233
  490MOL0     C66043   6.865   4.489   6.553  0.3954 -0.5329 -0.3376
  490MOL0     C66044   6.783   4.591   6.489  0.8656 -0.0477 -0.1864
  490MOL0     O66045   6.830   4.716   6.470 -0.4828  0.4247 -0.6539
  490MOL0     C66046   6.741   4.796   6.397  0.1411  0.3107 -0.0801
  490MOL0     C66047   6.717   4.772   6.265  0.3017  0.8535  0.4392
  490MOL0     C66048   6.656   4.860   6.178 -0.5002 -0.9330 -0.1422
  490MOL0     C66049   6.614   4.985   6.238 -0.0207 -0.1892  0.3365
  490MOL0     O66050   6.564   5.090   6.168 -0.8504  0.6470 -1.2497
  490MOL0     C66051   6.546   5.080   6.026  1.0090 -0.3762 -0.2798
  490MOL0     C66052   6.412   5.011   5.996  0.3256 -0.3809  0.5651
  490MOL0     C66053   6.371   5.005   5.842 -0.3494  0.1110 -0.1851
  490MOL0     C66054   6.460   4.908   5.758  0.2169 -0.9670  0.1212
  490MOL0     C66055   6.407   4.900   5.619 -0.8258  1.1532  0.2133
  490MOL0     C66056   6.524   4.939   5.517  0.8996 -0.5903 -0.3978
  490MOL0     C66057   6.475   4.898   5.380  0.6522 -0.1649  0.4041
  490MOL0     C66058   6.567   4.946   5.275 -0.3387 -0.7920 -0.9493
  490MOL0    Cl66059   6.538   4.905   5.108 -0.4342 -0.2249  0.0549
  490MOL0     C66060   6.650   5.024   6.371  0.5992  0.8733  0.3068
  490MOL0     C66061   6.718   4.923   6.445  0.3747 -0.7425 -0.2959
  490MOL0     O66062   6.673   4.555   6.455 -0.1920  1.1154 -0.4726
  490MOL0     C66063   6.815   4.375   6.617  0.4840  0.3908  0.2539
  490MOL0     C66064   6.903   4.279   6.679 -0.0053 -0.2039  0.8691
  490MOL0     N66065   7.313   3.674   6.757  0.1434  0.0460  0.2098
  490MOL0     N66066   7.410   3.649   6.831 -0.8768 -0.0390  0.6055
  490MOL0     C66067   8.296   3.833   7.492 -0.2412 -0.7820  0.0844
  490MOL0     C66068   8.311   3.746   7.603  0.1960 -0.1221 -0.0203
  490MOL0     C66069   8.176   3.559   8.010  0.7297  0.0337  0.4573
  490MOL0     C66070   8.058   3.546   8.088 -0.7711 -0.6564 -0.3666
  490MOL0     C66071   8.056   3.440   8.178 -0.4723  0.4527  0.4546
  490MOL0     C66072   8.155   3.343   8.190 -0.0327  0.3139 -0.1211
  490MOL0     O66073   8.136   3.242   8.278  0.4853  0.6953 -0.0304
  490MOL0     C66074   8.254   3.165   8.323  0.2792 -0.2616 -0.5572
  490MOL0     C66075   8.225   3.118   8.462 -0.4573  1.0487 -0.2563
  490MOL0     C66076   8.201   3.228   8.574 -0.6887  0.2656 -0.3226
  490MOL0     C66077   8.311   3.326   8.593 -0.4598 -0.1002  0.3688
  490MOL0     C66078   8.283   3.366   8.729  0.6646 -1.0024 -0.6681
  490MOL0     C66079   8.226   3.391   8.837  0.4158 -0.7409 -0.8656
  490MOL0     C66080   8.278   3.371   8.118 -1.0994  0.5076  0.1780
  490MOL0     C66081   8.288   3.477   8.037 -0.3453  0.1132 -0.3039
  490MOL0     C66082   8.413   3.504   7.949 -0.0225  0.9534  0.6893
  490MOL0     H66083   8.009   3.810   7.735  0.9945  1.2729  0.2591
  490MOL0     H66084   7.985   3.941   7.515  0.0702  1.4715  0.5863
  490MOL0     H66085   8.366   4.037   7.285 -1.5277  4.8500 -1.1933
  490MOL0     H66086   8.296   3.872   7.245  1.1816 -0.4652  2.7169
  490MOL0     H66087   8.316   4.089   7.072  0.9503  0.7119  0.1622
  490MOL0     H66088   8.190   4.155   7.175  3.0094  0.8892  1.4965
  490MOL0     H66089   8.067   3.942   7.150  0.9908  0.6239  0.5664
  490MOL0     H66090   8.186   3.881   7.041 -0.1901 -0.1065 -0.5064
  490MOL0     H66091   7.986   4.118   6.990 -1.0799 -0.3303 -3.1337
  490MOL0     H66092   8.118   4.089   6.886 -1.5505  1.9766 -0.5271
  490MOL0     H66093   7.935   3.993   6.782  0.9086  2.1167  0.3552
  490MOL0     H66094   8.041   3.859   6.812  0.2075  0.9115 -0.4948
  490MOL0     H66095   7.890   3.748   6.982 -1.0244 -1.0637 -1.8210
  490MOL0     H66096   7.819   3.899   7.029 -0.9809 -1.9443  1.0691
  490MOL0     H66097   7.781   3.752   6.766  0.6005 -0.0759 -0.4074
  490MOL0     H66098   7.720   3.918   6.782  1.4897 -0.2525  0.1604
  490MOL0     H66099   7.654   3.679   6.952  0.9191  0.9617  1.1863
  490MOL0     H66100   7.613   3.838   7.001 -0.2242  1.0140  0.4109
  490MOL0     H66101   7.501   3.949   6.713  0.0596 -0.0188 -2.4843
  490MOL0     H66102   7.308   3.858   6.492 -1.1939 -0.3913 -0.9127
  490MOL0     H66103   7.168   3.794   6.572 -0.5157  1.5247 -2.1108
  490MOL0     H66104   7.294   4.036   6.704  0.2140 -3.8140  0.5732
  490MOL0     H66105   7.206   4.081   6.552 -2.6375  1.3945  0.9717
  490MOL0     H66106   7.075   3.919   6.766  2.8233 -0.6010 -1.2127
  490MOL0     H66107   7.001   4.032   6.647 -1.4673  1.2352  2.0513
  490MOL0     H66108   7.177   4.089   6.895 -0.5690 -0.5785 -0.0599
  490MOL0     H66109   7.014   4.127   6.876  0.2025  0.5582 -0.1206
  490MOL0     H66110   7.197   4.459   6.674  1.1041 -1.3772  0.3254
  490MOL0     H66111   7.040   4.617   6.552  1.3711  0.2985 -1.6164
  490MOL0     H66112   6.744   4.674   6.226  2.6399  1.2823  0.8690
  490MOL0     H66113   6.636   4.841   6.073 -0.6663 -1.9025  0.0527
  490MOL0     H66114   6.545   5.187   6.002 -2.0276 -0.1522  0.3893
  490MOL0     H66115   6.634   5.032   5.983  0.4318 -0.6212 -1.2167
  490MOL0     H66116   6.416   4.914   6.046 -0.8737 -1.2110 -0.8720
  490MOL0     H66117   6.332   5.063   6.049  1.0835  1.8527 -0.3536
  490MOL0     H66118   6.267   4.978   5.824  0.0192 -1.0710 -0.6414
  490MOL0     H66119   6.380   5.105   5.798 -0.2284  0.7874  1.2831
  490MOL0     H66120   6.442   4.810   5.804  2.4574 -0.5301  2.1289
  490MOL0     H66121   6.566   4.935   5.760  0.1202 -0.4514 -0.7859
  490MOL0     H66122   6.331   4.978   5.609  0.6810  2.6429 -0.0409
  490MOL0     H66123   6.360   4.806   5.588 -1.7077  1.2434  1.2231
  490MOL0     H66124   6.540   5.047   5.527 -2.5113 -0.1257  1.9309
  490MOL0     H66125   6.617   4.887   5.538  0.8181 -1.6701 -2.4932
  490MOL0     H66126   6.377   4.947   5.366  1.3333  1.3428  0.6552
  490MOL0     H66127   6.466   4.789   5.377  0.0790 -0.1455  1.0539
  490MOL0     H66128   6.593   5.053   5.272  0.2429 -0.9417 -1.5734
  490MOL0     H66129   6.665   4.909   5.309  0.2221  0.8258 -0.6931
  490MOL0     H66130   6.642   5.129   6.399  2.1833  1.2756 -0.5831
  490MOL0     H66131   6.746   4.951   6.546  0.9096 -1.6870 -0.1645
  490MOL0     H66132   6.709   4.361   6.633  0.3466  1.3345  0.2025
  490MOL0     H66133   6.844   4.196   6.717 -0.5865 -0.3017 -0.2221
  490MOL0     H66134   8.383   3.843   7.426 -0.9513  2.5004 -0.5345
  490MOL0     H66135   8.406   3.696   7.620  0.3592  1.1085  3.4153
  490MOL0     H66136   7.977   3.618   8.076  0.9596  1.2207 -1.3749
  490MOL0     H66137   7.963   3.442   8.234 -0.2990  3.1550  0.8007
  490MOL0     H66138   8.335   3.238   8.333 -1.7715  2.4096 -1.9286
  490MOL0     H66139   8.286   3.082   8.260  4.0025  0.2731  0.4154
  490MOL0     H66140   8.310   3.054   8.487  0.1240  2.0895  0.5561
  490MOL0     H66141   8.141   3.049   8.468  0.8853 -0.5194  2.2893
  490MOL0     H66142   8.200   3.167   8.666  2.1261  0.0199 -0.3548
  490MOL0     H66143   8.105   3.280   8.572 -0.7555  0.4476  2.8048
  490MOL0     H66144   8.407   3.277   8.576 -1.2440 -1.5800  0.0693
  490MOL0     H66145   8.293   3.412   8.528 -0.1668 -0.5482 -0.3040
  490MOL0     H66146   8.195   3.393   8.939 -1.0015 -1.2531 -1.2529
  490MOL0     H66147   8.366   3.308   8.124 -1.6393 -0.2616  0.1719
  490MOL0     H66148   8.496   3.450   7.998 -0.5332 -1.1513 -0.6318
  490MOL0     H66149   8.418   3.476   7.843  5.0036  2.7232  0.1918
  490MOL0     H66150   8.439   3.610   7.953 -0.9506  1.1738  1.1161
  491MOL0     O66151   1.087   4.248   6.005  0.3305 -0.4520  0.0089
  491MOL0     C66152   1.163   4.220   6.096 -0.3347 -0.1982 -0.1516
  491MOL0     O66153   1.117   4.196   6.217  0.1717 -0.4672  0.6143
  491MOL0     C66154   1.014   4.280   6.262 -0.5950  0.1640  0.7205
  491MOL0     C66155   0.879   4.242   6.235  0.9885  0.8665  0.3691
  491MOL0     C66156   0.764   4.320   6.273 -0.7585 -0.7199 -0.1679
  491MOL0     C66157   0.785   4.422   6.359  0.5635 -0.2910 -0.2846
  491MOL0     O66158   0.678   4.497   6.414  0.1231  0.2190 -0.3937
  491MOL0     C66159   0.540   4.479   6.372  0.6069  0.3979  0.0652
  491MOL0     C66160   0.438   4.574   6.444  0.0581  0.0463  0.5154
  491MOL0     C66161   0.427   4.557   6.588  0.4115  0.5755 -0.6783
  491MOL0     C66162   0.387   4.408   6.618 -0.4796  0.6073  0.6867
  491MOL0     C66163   0.320   4.398   6.753  0.8742  0.2678  0.4647
  491MOL0     C66164   0.287   4.258   6.802  0.0146 -0.2241  0.7944
  491MOL0     C66165   0.408   4.166   6.821 -0.3999 -0.0849 -0.4381
  491MOL0     C66166   0.517   4.219   6.916 -0.2685 -0.1229 -0.1001
  491MOL0     N66167   0.608   4.111   6.949  0.1083 -0.5749  0.8703
  491MOL0     C66168   0.715   4.074   6.865  0.1701  0.0518 -0.1700
  491MOL0     C66169   0.757   3.965   6.927  0.1361  0.0727 -0.8790
  491MOL0     C66170   0.846   3.864   6.870 -0.6212 -0.4344  0.4202
  491MOL0     C66171   0.771   3.749   6.801 -0.6341 -0.2752  0.2577
  491MOL0     C66172   0.875   3.665   6.718  0.6439 -0.1440  0.1700
  491MOL0     C66173   0.828   3.533   6.651  0.7093  0.0333 -0.0130
  491MOL0     O66174   0.832   3.425   6.744  0.2941 -0.3254 -0.8056
  491MOL0     C66175   0.948   3.404   6.806  0.2294  0.9380  0.1284
  491MOL0     C66176   0.945   3.370   6.940  0.6670  1.0670 -0.4704
  491MOL0     C66177   1.055   3.339   7.023  0.8534 -0.1053  0.5511
  491MOL0     C66178   1.185   3.352   6.973  0.5588 -0.1242  0.2640
  491MOL0     C66179   1.304   3.329   7.053 -0.4714  0.3438 -0.2307
  491MOL0     O66180   1.277   3.313   7.182 -0.9844 -0.1572 -0.6803
  491MOL0     C66181   1.345   3.226   7.256 -0.4116  0.3247 -0.3841
  491MOL0     C66182   1.347   3.247   7.392  0.3624 -0.3739 -1.0606
  491MOL0     C66183   1.428   3.183   7.477 -0.8294 -0.1388 -0.8490
  491MOL0     C66184   1.525   3.094   7.427 -0.7327  0.0020 -0.7278
  491MOL0     O66185   1.612   3.009   7.498 -0.3982 -0.2280 -0.0769
  491MOL0     C66186   1.639   3.038   7.632  0.0771 -0.9804  0.0089
  491MOL0     C66187   1.755   2.944   7.679  0.5224 -0.4599  0.6328
  491MOL0     C66188   1.885   2.943   7.610 -1.2337  0.6794  0.1211
  491MOL0     C66189   2.004   2.914   7.698 -0.7269 -0.7479 -0.0410
  491MOL0     C66190   2.121   2.897   7.604 -0.4520  1.1791 -0.3868
  491MOL0     C66191   2.243   2.871   7.688 -0.0517  0.5806 -0.6050
  491MOL0     C66192   2.359   2.808   7.601 -0.0606  0.3789 -1.0803
  491MOL0     C66193   2.470   2.769   7.697 -0.6146  0.0233 -0.1859
  491MOL0    Cl66194   2.564   2.918   7.726  0.0732 -0.5939  0.4677
  491MOL0     C66195   1.524   3.069   7.293  0.1956  0.0990 -0.2158
  491MOL0     C66196   1.432   3.125   7.200 -0.2199 -0.1836 -0.0981
  491MOL0     O66197   1.414   3.338   7.002  0.2207  0.3082 -0.1609
  491MOL0     C66198   1.196   3.384   6.830  0.2877 -0.3398 -0.7293
  491MOL0     C66199   1.078   3.421   6.754  0.2873 -0.5244  0.3824
  491MOL0     N66200   0.681   3.939   7.039 -0.1300 -0.2740  0.6093
  491MOL0     N66201   0.591   4.025   7.052  0.3124  0.2252  0.7919
  491MOL0     C66202   0.919   4.455   6.389  0.9755 -0.2748 -0.1846
  491MOL0     C66203   1.037   4.393   6.345 -0.0342 -0.2871 -0.7676
  491MOL0     C66204   1.304   4.199   6.055 -0.8591  0.5804  0.6800
  491MOL0     C66205   1.338   4.243   5.924  0.7227 -0.0585 -0.5233
  491MOL0     C66206   1.466   4.245   5.877 -0.3987 -0.1059  0.3060
  491MOL0     C66207   1.577   4.201   5.960  0.5274  0.5405  0.5363
  491MOL0     O66208   1.711   4.204   5.927 -0.0641  0.1650  0.4255
  491MOL0     C66209   1.741   4.270   5.801 -0.1674 -1.0201 -0.2580
  491MOL0     C66210   1.883   4.283   5.784 -0.3066 -0.3109 -0.6904
  491MOL0     C66211   1.922   4.310   5.639 -0.6102  0.1306  0.2802
  491MOL0     C66212   2.079   4.303   5.634  0.5655  0.5652  0.6358
  491MOL0     C66213   2.140   4.411   5.710 -0.8680  1.3490 -0.6410
  491MOL0     C66214   2.208   4.488   5.772 -0.7432  0.4379 -0.2923
  491MOL0     C66215   1.538   4.139   6.076 -0.7269  0.3809 -0.0656
  491MOL0     C66216   1.409   4.137   6.133  0.9156 -0.5418  0.6642
  491MOL0     C66217   1.394   4.087   6.276  0.4068  0.5100  0.0809
  491MOL0     H66218   0.869   4.150   6.177 -3.4065  0.3901  1.5479
  491MOL0     H66219   0.666   4.288   6.240 -1.6108 -0.1148  1.6368
  491MOL0     H66220   0.530   4.508   6.267  2.4593  4.5819  0.8317
  491MOL0     H66221   0.502   4.378   6.385 -2.2082  1.2595 -0.7040
  491MOL0     H66222   0.343   4.531   6.411 -0.7769 -1.2943  4.2014
  491MOL0     H66223   0.448   4.680   6.416  3.2402 -0.2797  0.1291
  491MOL0     H66224   0.352   4.621   6.635  2.1170  0.3843  2.6534
  491MOL0     H66225   0.515   4.595   6.641 -1.4399  1.8507  1.7143
  491MOL0     H66226   0.315   4.368   6.546  0.1786  0.0587  0.3228
  491MOL0     H66227   0.479   4.349   6.618 -2.4014 -2.7185  1.9027
  491MOL0     H66228   0.364   4.462   6.829 -0.5634  3.0354 -0.8837
  491MOL0     H66229   0.220   4.443   6.747  0.6720  0.0304  1.7785
  491MOL0     H66230   0.240   4.263   6.900 -0.9379 -3.5863  0.6263
  491MOL0     H66231   0.218   4.196   6.745  1.1098 -0.8895  0.1597
  491MOL0     H66232   0.451   4.144   6.723  0.1392 -0.7212 -0.0682
  491MOL0     H66233   0.369   4.070   6.858  1.5678 -0.3242  1.2267
  491MOL0     H66234   0.570   4.304   6.872  0.2266 -1.1966 -1.6293
  491MOL0     H66235   0.463   4.245   7.008  1.2072 -1.2630  1.1208
  491MOL0     H66236   0.760   4.117   6.776  1.6684 -0.9585  0.0550
  491MOL0     H66237   0.904   3.912   6.790  1.6001 -4.3943 -0.6083
  491MOL0     H66238   0.910   3.835   6.954  0.2673  1.9714  0.6498
  491MOL0     H66239   0.724   3.688   6.878 -3.2278  0.2738 -0.7853
  491MOL0     H66240   0.688   3.785   6.741 -1.3244 -1.6979  0.3114
  491MOL0     H66241   0.956   3.644   6.789  2.0723  2.9170 -0.3897
  491MOL0     H66242   0.927   3.716   6.637  1.9840 -1.7403 -0.0302
  491MOL0     H66243   0.892   3.505   6.567  0.5369 -0.5906  0.0617
  491MOL0     H66244   0.727   3.546   6.609  1.0090  1.3207 -0.3952
  491MOL0     H66245   0.847   3.369   6.987  1.1987  0.6194  0.6766
  491MOL0     H66246   1.042   3.310   7.127 -2.3986  0.3137  0.3596
  491MOL0     H66247   1.277   3.316   7.438  1.2789 -0.5435  0.7125
  491MOL0     H66248   1.417   3.190   7.584  0.4439  1.6836 -0.7970
  491MOL0     H66249   1.676   3.141   7.630  1.7194 -1.5323  0.3113
  491MOL0     H66250   1.553   3.027   7.699  0.7402  0.7362  1.2040
  491MOL0     H66251   1.779   2.968   7.783  0.2934  1.8944  0.2056
  491MOL0     H66252   1.710   2.844   7.683 -3.0080  0.9826  1.6947
  491MOL0     H66253   1.872   2.870   7.529  2.8305 -2.3238  1.8162
  491MOL0     H66254   1.905   3.040   7.564  1.3007 -1.1165 -2.9980
  491MOL0     H66255   1.983   2.822   7.754  0.3582 -2.1540 -1.8436
  491MOL0     H66256   2.034   3.002   7.756  3.1168 -0.2377 -2.4520
  491MOL0     H66257   2.141   2.985   7.542  1.8681  1.3203  0.4551
  491MOL0     H66258   2.105   2.812   7.537 -1.2989 -2.1805  3.6627
  491MOL0     H66259   2.265   2.970   7.731 -0.0592  0.4683 -0.3445
  491MOL0     H66260   2.224   2.797   7.766 -0.5051  1.2182 -0.1012
  491MOL0     H66261   2.413   2.874   7.533  2.0332 -0.9189 -0.7713
  491MOL0     H66262   2.318   2.726   7.542  1.1251 -2.7273  2.0258
  491MOL0     H66263   2.416   2.731   7.785  0.8566  0.4250  0.9357
  491MOL0     H66264   2.529   2.691   7.649 -0.2864 -0.5172  1.0566
  491MOL0     H66265   1.598   2.995   7.264 -0.8736 -1.8873  1.7294
  491MOL0     H66266   1.428   3.089   7.098 -1.0548 -0.1024 -0.1016
  491MOL0     H66267   1.295   3.401   6.790  0.4072  4.3150  0.9250
  491MOL0     H66268   1.098   3.451   6.652 -0.8699 -1.0841 -0.0219
  491MOL0     H66269   0.917   4.528   6.470  1.6645 -0.2992 -0.1409
  491MOL0     H66270   1.135   4.415   6.385  2.0973 -4.5828 -2.9609
  491MOL0     H66271   1.266   4.272   5.849 -0.3384  1.7563  1.1194
  491MOL0     H66272   1.482   4.277   5.774 -0.3282 -1.0564  0.0150
  491MOL0     H66273   1.705   4.373   5.805  0.3577 -0.8793  2.3858
  491MOL0     H66274   1.696   4.210   5.721  2.6357  0.0051 -2.7684
  491MOL0     H66275   1.931   4.188   5.810  0.3830  0.3716  0.6668
  491MOL0     H66276   1.919   4.364   5.848  0.3215 -1.7680  0.8580
  491MOL0     H66277   1.894   4.412   5.610  1.3778  1.0576  1.4708
  491MOL0     H66278   1.892   4.236   5.565  1.3917 -1.7171  1.2270
  491MOL0     H66279   2.112   4.205   5.671 -1.4065  0.3754  2.0410
  491MOL0     H66280   2.096   4.306   5.526 -4.5798  1.4049 -0.3866
  491MOL0     H66281   2.256   4.570   5.823 -0.7629  0.3319 -0.1053
  491MOL0     H66282   1.617   4.095   6.136  0.3510  1.6581 -0.5289
  491MOL0     H66283   1.318   4.008   6.278  2.8487 -2.1048 -1.5481
  491MOL0     H66284   1.488   4.036   6.300  0.6804 -1.0260 -3.5213
  491MOL0     H66285   1.362   4.167   6.342 -1.3177 -0.4810  0.4846
  492MOL0     O66286   1.626   8.698   3.062 -0.0409 -0.0064  0.1514
  492MOL0     C66287   1.603   8.704   2.939  0.5732  0.9339  0.8598
  492MOL0     O66288   1.573   8.816   2.868  0.7675  0.3079  0.1192
  492MOL0     C66289   1.535   8.935   2.938 -0.1022  0.2998 -0.2882
  492MOL0     C66290   1.423   9.003   2.877 -1.0757 -1.1458 -0.8641
  492MOL0     C66291   1.386   9.126   2.920  0.4940  0.5782  0.6851
  492MOL0     C66292   1.463   9.192   3.016 -0.0995  0.0422 -0.5990
  492MOL0     O66293   1.438   9.325   3.059  0.3232  0.3831  0.2973
  492MOL0     C66294   1.480   9.430   2.971 -0.5998 -0.4504 -0.2719
  492MOL0     C66295   1.496   9.563   3.048  0.1321  0.7642 -0.4926
  492MOL0     C66296   1.359   9.639   3.031  0.1669 -0.2074 -1.4146
  492MOL0     C66297   1.232   9.549   3.072 -0.2614 -0.1848  0.0240
  492MOL0     C66298   1.106   9.619   3.035 -0.5035 -0.6573 -0.1256
  492MOL0     C66299   0.982   9.534   3.045  0.3766  0.2852  0.2279
  492MOL0     C66300   0.940   9.505   3.192  0.0816 -0.5271 -0.1135
  492MOL0     C66301   0.805   9.429   3.187  0.2086  0.5068  0.6356
  492MOL0     N66302   0.707   9.483   3.101 -0.4662 -1.0133  0.6463
  492MOL0     C66303   0.610   9.567   3.130 -0.0413  0.3784 -0.0248
  492MOL0     C66304   0.533   9.604   3.022 -0.6895  0.4684  0.0846
  492MOL0     C66305   0.412   9.688   3.032 -0.1147  0.4632  0.4992
  492MOL0     C66306   0.349   9.696   3.173  0.3296  0.1685  0.0543
  492MOL0     C66307   0.251   9.816   3.181  0.4349 -0.3908 -0.6938
  492MOL0     C66308   0.161   9.821   3.309 -1.5007 -0.8716  0.0001
  492MOL0     O66309   0.084   9.700   3.335 -0.0834 -0.1189 -0.0343
  492MOL0     C66310  -0.023   9.715   3.421 -0.0596  0.0877  0.2967
  492MOL0     C66311  -0.098   9.597   3.425 -0.0203  0.7261 -0.3963
  492MOL0     C66312  -0.210   9.574   3.504  0.1897  0.0767 -0.3062
  492MOL0     C66313  -0.261   9.685   3.574  0.0357 -0.3461  0.1556
  492MOL0     C66314  -0.389   9.686   3.654  0.5203  0.6485  0.5686
  492MOL0     O66315  -0.468   9.588   3.622  0.8433 -0.1657  0.3727
  492MOL0     C66316  -0.550   9.533   3.718 -0.0337 -0.1779  0.7250
  492MOL0     C66317  -0.660   9.466   3.680  1.0737  0.1786  1.6459
  492MOL0     C66318  -0.742   9.389   3.759 -0.4397 -0.0257 -0.4880
  492MOL0     C66319  -0.715   9.387   3.898 -1.3336 -0.4227  1.1414
  492MOL0     O66320  -0.775   9.299   3.985  0.0279 -0.0817  0.3376
  492MOL0     C66321  -0.703   9.249   4.091 -0.7017  0.0294  0.3944
  492MOL0     C66322  -0.794   9.162   4.180  0.7315 -0.0528 -0.6913
  492MOL0     C66323  -0.844   9.041   4.096  0.0899 -0.0165 -0.3795
  492MOL0     C66324  -0.903   8.916   4.171 -0.3331  0.1325  0.0287
  492MOL0     C66325  -0.963   8.815   4.073  0.2078 -0.0372 -0.1099
  492MOL0     C66326  -1.006   8.696   4.163 -0.6089  0.0022 -1.1130
  492MOL0     C66327  -1.092   8.598   4.086 -1.0536  0.4012 -0.5389
  492MOL0     C66328  -1.127   8.464   4.155 -0.8076 -1.0091 -0.3943
  492MOL0    Cl66329  -0.985   8.385   4.235 -0.0520  0.3045  0.0199
  492MOL0     C66330  -0.610   9.467   3.943 -0.2265  0.6789  0.3193
  492MOL0     C66331  -0.529   9.535   3.852 -0.2670 -0.6543  0.5607
  492MOL0     O66332  -0.420   9.788   3.717  0.0642  0.7717  0.0520
  492MOL0     C66333  -0.184   9.802   3.580 -0.8246  0.5289 -0.0590
  492MOL0     C66334  -0.065   9.819   3.507  0.2396  0.0967 -1.5615
  492MOL0     N66335   0.580   9.524   2.920  0.2170  0.2698 -0.6585
  492MOL0     N66336   0.687   9.466   2.964  0.4530  0.8119 -0.0676
  492MOL0     C66337   1.576   9.126   3.069  0.0410  0.2975  0.4520
  492MOL0     C66338   1.615   8.999   3.030  0.9704  1.0295  0.2620
  492MOL0     C66339   1.623   8.576   2.853 -0.8017 -0.1970  0.1402
  492MOL0     C66340   1.523   8.540   2.755 -0.6611 -0.5432  0.0153
  492MOL0     C66341   1.526   8.416   2.694  0.0624 -0.7632 -0.4056
  492MOL0     C66342   1.642   8.336   2.699  0.3241  0.9687 -0.4635
  492MOL0     O66343   1.656   8.217   2.633  0.5166  0.5844  0.4008
  492MOL0     C66344   1.567   8.212   2.519  0.8096 -0.8374  0.0389
  492MOL0     C66345   1.598   8.083   2.445 -0.6176  0.7129 -0.7778
  492MOL0     C66346   1.596   7.960   2.543  0.6933  0.2905 -0.2308
  492MOL0     C66347   1.457   7.925   2.603 -0.1506  0.1136  0.1701
  492MOL0     C66348   1.417   8.013   2.709 -0.0290 -0.0954  0.9037
  492MOL0     C66349   1.391   8.088   2.803  0.1362 -0.3368  0.5242
  492MOL0     C66350   1.740   8.365   2.792 -0.1270 -0.2601 -0.2089
  492MOL0     C66351   1.734   8.489   2.871  0.8283  0.6658  0.7079
  492MOL0     C66352   1.841   8.508   2.977  0.0883 -0.8011 -0.0269
  492MOL0     H66353   1.373   8.950   2.797 -1.7738 -2.0755  0.1528
  492MOL0     H66354   1.299   9.173   2.875  0.2802  1.0351  1.5358
  492MOL0     H66355   1.577   9.405   2.925  0.5453  0.1775  1.6920
  492MOL0     H66356   1.406   9.437   2.890  0.0456 -2.4576 -1.1118
  492MOL0     H66357   1.584   9.614   3.007  1.6866 -0.7207  0.7920
  492MOL0     H66358   1.512   9.552   3.156 -0.1293  1.3890 -0.3908
  492MOL0     H66359   1.341   9.678   2.931  0.4898  0.7757 -1.1032
  492MOL0     H66360   1.363   9.727   3.096 -1.1782 -0.7464 -0.5406
  492MOL0     H66361   1.232   9.448   3.031  0.6989  0.5452 -1.8469
  492MOL0     H66362   1.220   9.535   3.180  2.0934 -2.9789  0.0484
  492MOL0     H66363   1.100   9.699   3.109 -4.3550 -0.5300 -0.4081
  492MOL0     H66364   1.120   9.658   2.933 -1.9526  1.6889  0.4994
  492MOL0     H66365   0.903   9.587   2.991  2.0774  0.3980 -2.3491
  492MOL0     H66366   0.995   9.435   3.000  2.7036  0.8636 -0.5360
  492MOL0     H66367   0.918   9.603   3.234 -2.1956  0.0999 -2.4658
  492MOL0     H66368   1.013   9.451   3.252  1.3889  1.4274  0.1367
  492MOL0     H66369   0.807   9.325   3.153 -2.4463 -0.9600  4.2494
  492MOL0     H66370   0.762   9.427   3.288 -1.3250 -0.8614  0.0089
  492MOL0     H66371   0.601   9.595   3.235 -1.0200 -4.0790  1.2782
  492MOL0     H66372   0.448   9.785   2.998 -2.1122  0.5924 -1.5064
  492MOL0     H66373   0.347   9.640   2.957 -0.2859  0.6472  0.5299
  492MOL0     H66374   0.304   9.605   3.211  0.5285 -0.7931 -1.8934
  492MOL0     H66375   0.423   9.723   3.250 -0.5929  0.3396  0.9044
  492MOL0     H66376   0.188   9.811   3.092  2.6728 -4.2717 -2.3564
  492MOL0     H66377   0.319   9.900   3.163  0.4500 -0.7020 -2.2750
  492MOL0     H66378   0.102   9.913   3.311  0.6922  0.6036 -0.1339
  492MOL0     H66379   0.228   9.820   3.395 -2.9673 -1.5751  1.1744
  492MOL0     H66380  -0.072   9.513   3.362  0.3391  0.4948  0.0552
  492MOL0     H66381  -0.271   9.485   3.511  0.3860  0.0189  0.8898
  492MOL0     H66382  -0.673   9.454   3.573 -2.4414 -3.3425  2.2490
  492MOL0     H66383  -0.823   9.329   3.719 -0.3995 -0.4949  0.1152
  492MOL0     H66384  -0.611   9.197   4.062 -0.8934  0.4295 -1.0139
  492MOL0     H66385  -0.674   9.337   4.148 -3.7115  1.0111  0.5794
  492MOL0     H66386  -0.745   9.139   4.275 -1.6828 -1.6664  0.2851
  492MOL0     H66387  -0.887   9.213   4.207  0.3870 -0.2991 -1.4063
  492MOL0     H66388  -0.929   9.073   4.035 -0.0638 -0.2722 -0.3003
  492MOL0     H66389  -0.764   9.004   4.032 -0.5400 -0.2623 -1.0477
  492MOL0     H66390  -0.982   8.954   4.237  0.5236  1.0928  0.5269
  492MOL0     H66391  -0.828   8.859   4.227  0.5804 -2.8821 -3.8646
  492MOL0     H66392  -0.888   8.794   3.996 -0.7019 -4.0747 -0.1369
  492MOL0     H66393  -1.049   8.849   4.015  1.5707 -1.7310 -3.4243
  492MOL0     H66394  -0.906   8.659   4.188  0.5611  0.6800 -4.3468
  492MOL0     H66395  -1.064   8.733   4.248  1.5537 -1.0201  0.9386
  492MOL0     H66396  -1.049   8.588   3.986 -1.1395 -1.0428 -0.4565
  492MOL0     H66397  -1.189   8.648   4.083 -2.4659 -1.9385  2.0454
  492MOL0     H66398  -1.203   8.488   4.230 -0.8498  0.5277 -0.8920
  492MOL0     H66399  -1.168   8.398   4.077  1.5666  2.0094 -4.6471
  492MOL0     H66400  -0.582   9.474   4.048  0.4932  1.6944  0.0838
  492MOL0     H66401  -0.441   9.591   3.883 -0.6700  0.8439 -0.8210
  492MOL0     H66402  -0.218   9.893   3.628  1.7383  2.4719 -1.6480
  492MOL0     H66403  -0.006   9.908   3.525 -1.9490  0.9543  3.0285
  492MOL0     H66404   1.637   9.178   3.143  2.3241 -1.7814  0.1431
  492MOL0     H66405   1.698   8.946   3.073 -1.2058 -1.2374  1.9547
  492MOL0     H66406   1.439   8.605   2.730 -0.9655 -0.6477  0.7554
  492MOL0     H66407   1.441   8.390   2.632  0.9456  0.9714 -2.4830
  492MOL0     H66408   1.571   8.292   2.444 -1.2986 -0.9884 -0.2765
  492MOL0     H66409   1.460   8.207   2.541  0.2966  1.7193 -1.4475
  492MOL0     H66410   1.699   8.075   2.404 -0.0642 -0.9057  0.7641
  492MOL0     H66411   1.524   8.052   2.371 -0.6526 -3.1590  0.6432
  492MOL0     H66412   1.679   7.966   2.615  2.0321  0.3143 -1.7317
  492MOL0     H66413   1.617   7.879   2.473  1.4272  0.1028  0.1920
  492MOL0     H66414   1.384   7.939   2.523  0.0630  2.3710  0.2937
  492MOL0     H66415   1.456   7.821   2.636  2.9817 -0.7379 -2.0021
  492MOL0     H66416   1.353   8.150   2.882 -1.3119 -0.5038 -0.0068
  492MOL0     H66417   1.817   8.290   2.803 -1.1664 -1.3167  0.1294
  492MOL0     H66418   1.858   8.611   3.009  2.0889 -1.4073  1.0603
  492MOL0     H66419   1.789   8.467   3.063 -2.0528 -0.4331 -1.0831
  492MOL0     H66420   1.933   8.451   2.961 -2.8805 -5.9130 -1.0104
  493MOL0     O66421   5.105  11.120   4.537  0.6262 -0.4690  0.1205
  493MOL0     C66422   5.156  11.182   4.444  0.2650 -0.1996  0.8227
  493MOL0     O66423   5.134  11.155   4.313 -0.1255 -0.9698  0.2009
  493MOL0     C66424   5.071  11.041   4.275 -0.7466  0.7880  0.1069
  493MOL0     C66425   4.973  11.052   4.179 -0.9402  0.3916  0.3076
  493MOL0     C66426   4.903  10.933   4.138  1.0801  0.3841  0.0894
  493MOL0     C66427   4.937  10.806   4.184 -0.5654  0.8360 -0.2809
  493MOL0     O66428   4.879  10.690   4.143 -1.3844 -0.2248 -0.2074
  493MOL0     C66429   4.751  10.697   4.091 -0.2275  0.6009  0.2836
  493MOL0     C66430   4.682  10.556   4.121  0.6562 -0.0892  0.0960
  493MOL0     C66431   4.654  10.552   4.265  0.2897 -0.1270 -0.1668
  493MOL0     C66432   4.584  10.428   4.299 -0.1551  0.3179 -0.3827
  493MOL0     C66433   4.437  10.420   4.247 -0.0839 -1.0905 -0.5680
  493MOL0     C66434   4.375  10.277   4.289  0.3586 -1.3439  0.1626
  493MOL0     C66435   4.236  10.260   4.235 -0.1943 -0.7239  0.6714
  493MOL0     C66436   4.127  10.346   4.301 -0.4273 -0.3893  0.5077
  493MOL0     N66437   3.998  10.269   4.327  0.2936  0.5367  0.4138
  493MOL0     C66438   3.953  10.173   4.236  0.5434 -0.1450 -0.5903
  493MOL0     C66439   3.843  10.115   4.285 -0.1596  0.0562 -0.0970
  493MOL0     C66440   3.770  10.014   4.219 -0.2373 -0.2410  0.3165
  493MOL0     C66441   3.621  10.005   4.246  0.7046  0.5408 -0.0281
  493MOL0     C66442   3.560   9.902   4.149 -0.6010  0.7483  0.5072
  493MOL0     C66443   3.408   9.890   4.180  0.1562  0.2730 -0.5163
  493MOL0     O66444   3.402   9.793   4.287  0.6372  0.0473  0.3065
  493MOL0     C66445   3.298   9.718   4.308 -0.0754 -0.6234  0.3573
  493MOL0     C66446   3.317   9.600   4.379  0.8177 -0.6121  0.4845
  493MOL0     C66447   3.210   9.522   4.414  0.9626  0.3627  0.1095
  493MOL0     C66448   3.078   9.562   4.382  0.6973  0.4469  0.4888
  493MOL0     C66449   2.960   9.483   4.423 -0.9384 -0.4136  0.7687
  493MOL0     O66450   2.835   9.550   4.407 -0.9797 -0.4344 -0.0816
  493MOL0     C66451   2.721   9.493   4.445  1.3311 -0.5068 -0.3495
  493MOL0     C66452   2.610   9.545   4.377  0.3681 -1.0237  0.3278
  493MOL0     C66453   2.474   9.502   4.387  0.0392 -0.4711  0.0822
  493MOL0     C66454   2.448   9.401   4.473  0.5166  0.0081  0.8097
  493MOL0     O66455   2.314   9.362   4.465  0.2251  0.4105  0.2340
  493MOL0     C66456   2.284   9.244   4.540  0.5398 -0.1892 -0.5422
  493MOL0     C66457   2.140   9.239   4.601 -0.4508 -0.7442 -1.0566
  493MOL0     C66458   2.119   9.359   4.702 -0.1227  0.0361 -0.1784
  493MOL0     C66459   1.975   9.386   4.737  1.2394 -0.0161  0.2025
  493MOL0     C66460   1.969   9.457   4.883 -0.7694  0.1610  0.5157
  493MOL0     C66461   1.830   9.509   4.909 -0.4843  0.0519 -0.0525
  493MOL0     C66462   1.826   9.595   5.032  0.6348 -0.1075 -0.7190
  493MOL0     C66463   1.903   9.546   5.153 -0.2215  1.1998 -0.2410
  493MOL0    Cl66464   1.864   9.615   5.313  0.0227 -0.1311 -0.2552
  493MOL0     C66465   2.560   9.341   4.545  0.4443 -0.7774 -0.0470
  493MOL0     C66466   2.693   9.390   4.536 -0.0306  1.0307 -0.6163
  493MOL0     O66467   2.974   9.366   4.451  0.0223  0.7062 -1.0210
  493MOL0     C66468   3.058   9.676   4.305 -0.3982 -0.4818  1.1017
  493MOL0     C66469   3.163   9.760   4.270 -0.5640  0.2549 -0.3487
  493MOL0     N66470   3.814  10.168   4.420 -0.0620  0.6348  0.0099
  493MOL0     N66471   3.917  10.256   4.438  0.2733 -0.2573 -0.1718
  493MOL0     C66472   5.048  10.785   4.274 -0.0061 -0.1737 -0.3417
  493MOL0     C66473   5.109  10.913   4.317  0.5077  0.2317 -0.5653
  493MOL0     C66474   5.236  11.299   4.473 -0.0080  0.8458 -0.9285
  493MOL0     C66475   5.309  11.347   4.364 -0.3620 -0.3273  0.3087
  493MOL0     C66476   5.410  11.444   4.390 -0.6083 -0.5681 -0.1859
  493MOL0     C66477   5.439  11.499   4.519 -0.8538  0.4420  0.3459
  493MOL0     O66478   5.536  11.603   4.535 -0.3836  0.2476  0.2880
  493MOL0     C66479   5.545  11.669   4.663  0.3582 -0.1931 -0.2182
  493MOL0     C66480   5.636  11.585   4.760 -0.0756  0.2479 -0.7084
  493MOL0     C66481   5.666  11.650   4.888  0.8344  0.2800 -0.3827
  493MOL0     C66482   5.548  11.679   4.984  0.6158  1.1771 -0.5485
  493MOL0     C66483   5.579  11.765   5.099 -0.5149 -1.0869  1.0252
  493MOL0     C66484   5.611  11.834   5.187  0.3204  0.0106 -0.1061
  493MOL0     C66485   5.355  11.455   4.620 -0.3438  0.5521 -0.2524
  493MOL0     C66486   5.265  11.348   4.606  0.1634  0.0513  0.8905
  493MOL0     C66487   5.191  11.298   4.732 -1.2108 -0.6840  0.5625
  493MOL0     H66488   4.938  11.148   4.142 -2.0961 -0.5861 -1.2631
  493MOL0     H66489   4.815  10.951   4.077  1.2739  0.1948 -0.2538
  493MOL0     H66490   4.690  10.776   4.136 -0.6881 -0.1310  0.9708
  493MOL0     H66491   4.756  10.724   3.985 -0.9804  1.1516  0.3739
  493MOL0     H66492   4.743  10.471   4.088 -2.0124 -0.6554 -4.2040
  493MOL0     H66493   4.594  10.562   4.056  1.9455 -3.5625 -2.3055
  493MOL0     H66494   4.591  10.636   4.297 -0.4286 -0.6891 -0.0847
  493MOL0     H66495   4.746  10.547   4.325 -0.1484 -1.4530  0.4323
  493MOL0     H66496   4.641  10.340   4.268  2.6911  1.2554  1.7637
  493MOL0     H66497   4.588  10.426   4.408  2.6345  2.5508 -0.3338
  493MOL0     H66498   4.383  10.500   4.298 -0.6949 -2.7556  1.6005
  493MOL0     H66499   4.435  10.423   4.138 -2.2931  4.0682 -0.6242
  493MOL0     H66500   4.444  10.202   4.249  0.1394 -2.1556  1.2537
  493MOL0     H66501   4.376  10.248   4.395 -1.2135 -0.7380  0.3596
  493MOL0     H66502   4.211  10.156   4.260 -3.1342 -0.2389  0.2056
  493MOL0     H66503   4.230  10.268   4.126  0.2793 -1.3572  0.5964
  493MOL0     H66504   4.167  10.386   4.394 -0.4690 -1.6808  1.1110
  493MOL0     H66505   4.110  10.429   4.231  0.0553  0.1567  1.0362
  493MOL0     H66506   4.003  10.144   4.144 -1.5709 -0.2042 -1.7627
  493MOL0     H66507   3.762  10.025   4.110 -0.6430 -2.6730  0.0441
  493MOL0     H66508   3.833   9.926   4.238 -2.7138 -2.5119 -1.2327
  493MOL0     H66509   3.601   9.969   4.347 -2.7968  1.9980 -0.0496
  493MOL0     H66510   3.570  10.101   4.234  0.4098  0.7637  2.4484
  493MOL0     H66511   3.609   9.806   4.168 -0.7050  0.5201 -0.3367
  493MOL0     H66512   3.578   9.926   4.044 -2.6814  1.8512  0.3490
  493MOL0     H66513   3.367   9.836   4.095 -5.1036  0.3286  1.6099
  493MOL0     H66514   3.355   9.983   4.202 -1.8121 -1.1208  0.9757
  493MOL0     H66515   3.415   9.572   4.419  1.4690  2.2149  1.0838
  493MOL0     H66516   3.226   9.427   4.463 -0.2558  0.5917  0.9824
  493MOL0     H66517   2.633   9.626   4.308  0.5188 -0.7766  0.6708
  493MOL0     H66518   2.396   9.534   4.319  1.8680 -1.3489 -2.5927
  493MOL0     H66519   2.290   9.159   4.471  0.0658  0.3312 -1.2409
  493MOL0     H66520   2.345   9.236   4.630 -1.2246  0.2399  0.7313
  493MOL0     H66521   2.074   9.252   4.514 -0.9326 -4.5108 -1.3961
  493MOL0     H66522   2.136   9.144   4.655  0.9575 -0.5040 -0.4793
  493MOL0     H66523   2.173   9.340   4.795  1.1508 -0.9277 -1.0877
  493MOL0     H66524   2.161   9.450   4.656  1.3634 -0.2763  0.5182
  493MOL0     H66525   1.911   9.300   4.757 -1.7556  2.1425  0.6537
  493MOL0     H66526   1.923   9.456   4.672  0.6413 -0.2579  0.4192
  493MOL0     H66527   2.031   9.546   4.873 -3.1271  1.8268 -0.3733
  493MOL0     H66528   2.006   9.390   4.961  1.0158  0.5203  0.0090
  493MOL0     H66529   1.800   9.563   4.818  2.5400  2.8681  0.4467
  493MOL0     H66530   1.757   9.427   4.907  0.1172 -0.4782 -1.2212
  493MOL0     H66531   1.718   9.603   5.051  1.2063  4.3221  2.0822
  493MOL0     H66532   1.865   9.696   5.017 -0.8169  0.4753 -0.7181
  493MOL0     H66533   1.885   9.439   5.161 -0.1807  1.0888 -1.4484
  493MOL0     H66534   2.009   9.554   5.128 -0.0133 -0.1787  0.1310
  493MOL0     H66535   2.543   9.260   4.615 -0.9166 -1.8696 -1.5642
  493MOL0     H66536   2.778   9.349   4.590 -0.4799  0.3555 -0.4048
  493MOL0     H66537   2.963   9.714   4.270  0.3811 -1.0346 -1.8816
  493MOL0     H66538   3.156   9.845   4.203  1.7181 -0.7639 -2.0104
  493MOL0     H66539   5.090  10.690   4.303 -0.7389  0.0075  1.4661
  493MOL0     H66540   5.199  10.917   4.378  0.4811  1.4238 -0.5894
  493MOL0     H66541   5.314  11.319   4.259  0.1946 -4.3439  1.2190
  493MOL0     H66542   5.472  11.486   4.312 -1.9423  1.4378 -0.2670
  493MOL0     H66543   5.444  11.681   4.703 -0.0950 -0.4452 -1.2459
  493MOL0     H66544   5.592  11.765   4.639  1.5481 -0.4492  0.9737
  493MOL0     H66545   5.730  11.571   4.705  1.6599 -0.4946  2.2628
  493MOL0     H66546   5.585  11.490   4.777 -0.9534  1.2485  2.9592
  493MOL0     H66547   5.732  11.735   4.866  1.0104 -0.0900 -1.3411
  493MOL0     H66548   5.734  11.590   4.949 -0.2461 -0.5405  0.0440
  493MOL0     H66549   5.473  11.734   4.926 -0.7736 -1.6216 -1.6294
  493MOL0     H66550   5.501  11.586   5.018 -2.6274  1.9903 -2.3643
  493MOL0     H66551   5.631  11.897   5.271 -3.9468 -0.7467  1.7330
  493MOL0     H66552   5.349  11.494   4.721 -0.2114  0.0955 -0.0661
  493MOL0     H66553   5.236  11.205   4.768  2.1622  1.7350  3.2486
  493MOL0     H66554   5.201  11.357   4.824 -3.2817  0.5997  0.0260
  493MOL0     H66555   5.083  11.283   4.725 -1.1013 -1.2127 -0.1512
  494MOL0     O66556   4.876   1.413   2.800 -0.1298 -0.6976 -0.5724
  494MOL0     C66557   4.999   1.410   2.789  0.8985 -0.1947 -0.4180
  494MOL0     O66558   5.078   1.298   2.789 -0.3128  0.8298 -0.6013
  494MOL0     C66559   5.011   1.180   2.811  0.3768  0.1950  0.6510
  494MOL0     C66560   5.053   1.080   2.724  0.0828  0.2699  0.4149
  494MOL0     C66561   5.011   0.946   2.734 -0.0785 -0.9877 -0.3052
  494MOL0     C66562   4.929   0.910   2.845  0.2609  0.1743  0.1793
  494MOL0     O66563   4.896   0.781   2.888  0.4146 -0.5840 -0.0913
  494MOL0     C66564   4.951   0.668   2.826  0.2186  0.7409  0.1143
  494MOL0     C66565   4.865   0.551   2.848  0.0836  1.4147 -0.0283
  494MOL0     C66566   4.722   0.560   2.777  0.2978 -0.3010  0.3893
  494MOL0     C66567   4.626   0.439   2.816 -0.6957 -0.3410 -0.0213
  494MOL0     C66568   4.672   0.296   2.794  0.5319 -0.5894 -0.0991
  494MOL0     C66569   4.574   0.181   2.818 -0.1054 -0.0872  0.7260
  494MOL0     C66570   4.481   0.192   2.934 -0.7440 -0.7649 -1.0774
  494MOL0     C66571   4.374   0.081   2.920  0.2521 -0.6962 -0.7571
  494MOL0     N66572   4.279   0.093   2.811 -0.8175  0.4302  0.3131
  494MOL0     C66573   4.196   0.202   2.779  0.2230 -0.6177  0.1363
  494MOL0     C66574   4.126   0.173   2.665 -1.0042 -0.7840  0.1147
  494MOL0     C66575   4.039   0.274   2.575 -0.2625  0.1235  0.5494
  494MOL0     C66576   3.955   0.363   2.655  0.1495 -0.3352 -0.4904
  494MOL0     C66577   3.878   0.295   2.772  0.3333  0.0952 -0.6162
  494MOL0     C66578   3.762   0.381   2.812  0.7041 -0.1292  0.3628
  494MOL0     O66579   3.724   0.366   2.947 -0.0434 -0.3863  0.6716
  494MOL0     C66580   3.767   0.446   3.050  0.2991 -0.8779  0.0925
  494MOL0     C66581   3.675   0.469   3.155 -0.2676 -0.3439  1.0973
  494MOL0     C66582   3.702   0.567   3.254  0.0806 -0.7589 -0.0085
  494MOL0     C66583   3.822   0.633   3.273  0.4453  0.2987 -0.0819
  494MOL0     C66584   3.852   0.724   3.381  0.3981  0.1555  0.3542
  494MOL0     O66585   3.984   0.766   3.377  0.4235  0.4246  0.2321
  494MOL0     C66586   4.029   0.824   3.486 -0.4957 -0.6497  0.6101
  494MOL0     C66587   4.165   0.792   3.511 -0.2966 -0.9043 -0.2321
  494MOL0     C66588   4.231   0.852   3.615  0.1705 -0.2545  0.3305
  494MOL0     C66589   4.170   0.959   3.686 -0.7803 -0.3174 -0.1731
  494MOL0     O66590   4.250   1.026   3.770  0.2713 -0.1806 -0.4486
  494MOL0     C66591   4.186   1.116   3.870  0.3856 -0.2403  0.3597
  494MOL0     C66592   4.247   1.112   4.006  0.3172  0.1701 -0.0506
  494MOL0     C66593   4.234   0.987   4.089  0.1246  0.6143 -0.5875
  494MOL0     C66594   4.300   1.007   4.230 -0.8770  1.0033 -0.8611
  494MOL0     C66595   4.299   0.875   4.316 -0.3956 -0.2192  0.4284
  494MOL0     C66596   4.419   0.875   4.405  0.5651 -1.1566 -0.2703
  494MOL0     C66597   4.446   0.752   4.465  0.1724 -0.5078 -0.0917
  494MOL0     C66598   4.362   0.727   4.585  1.2281  0.2085 -0.0847
  494MOL0    Cl66599   4.427   0.810   4.737  0.1091 -0.2116 -0.0804
  494MOL0     C66600   4.033   0.988   3.658  0.0085 -0.0708  0.2877
  494MOL0     C66601   3.965   0.921   3.557  0.5864  0.2602  0.2125
  494MOL0     O66602   3.781   0.733   3.482  0.3375  0.4582 -0.3421
  494MOL0     C66603   3.914   0.608   3.169 -0.2866 -0.2263 -0.2331
  494MOL0     C66604   3.881   0.521   3.061 -0.4874  1.2409  0.3348
  494MOL0     N66605   4.172   0.045   2.627  1.0629 -0.4044  0.4945
  494MOL0     N66606   4.254  -0.001   2.717 -0.3786 -0.0150  0.6905
  494MOL0     C66607   4.895   1.016   2.940 -0.0785  1.6229 -0.1567
  494MOL0     C66608   4.923   1.142   2.918  0.1787 -0.2136 -0.5669
  494MOL0     C66609   5.068   1.544   2.788  0.1922  1.2015 -0.8517
  494MOL0     C66610   5.198   1.546   2.819 -0.4061  0.0096  0.1329
  494MOL0     C66611   5.262   1.665   2.839  0.1449 -0.6153 -0.1585
  494MOL0     C66612   5.201   1.791   2.819 -0.8986 -0.4124 -0.2481
  494MOL0     O66613   5.258   1.908   2.862 -0.6354  0.9201 -0.9804
  494MOL0     C66614   5.404   1.911   2.845 -0.8726 -0.5158 -0.3859
  494MOL0     C66615   5.445   2.052   2.824 -0.5340 -0.5338 -0.2168
  494MOL0     C66616   5.410   2.163   2.933 -0.2558 -0.0875 -0.0826
  494MOL0     C66617   5.483   2.126   3.066  1.2836 -1.0083 -0.6324
  494MOL0     C66618   5.629   2.135   3.063 -0.2807 -0.1774  0.7413
  494MOL0     C66619   5.745   2.151   3.069 -0.1865 -0.2427  1.0551
  494MOL0     C66620   5.075   1.792   2.780 -0.1879 -0.3117  0.1081
  494MOL0     C66621   5.011   1.665   2.753 -0.0788 -0.2361 -1.1578
  494MOL0     C66622   4.882   1.692   2.679 -0.1248  0.5842 -0.2527
  494MOL0     H66623   5.115   1.116   2.643 -0.0400  2.1342  1.0914
  494MOL0     H66624   5.040   0.869   2.663  1.3702  0.4869 -1.4135
  494MOL0     H66625   4.951   0.693   2.720  0.5498  4.8334  0.9228
  494MOL0     H66626   5.051   0.643   2.863 -0.2677 -1.0749  0.2828
  494MOL0     H66627   4.858   0.537   2.956  0.1655 -1.2745 -0.3026
  494MOL0     H66628   4.921   0.461   2.822  0.0284 -0.3280  4.8710
  494MOL0     H66629   4.732   0.569   2.668  2.9666  0.2990  0.6096
  494MOL0     H66630   4.674   0.655   2.803  0.0821  0.0431 -1.1481
  494MOL0     H66631   4.613   0.445   2.925 -0.9336 -1.4436  0.0292
  494MOL0     H66632   4.529   0.457   2.770  0.9862  1.3189 -3.3162
  494MOL0     H66633   4.696   0.281   2.688  2.0605 -0.9167  0.2681
  494MOL0     H66634   4.758   0.283   2.859  0.2625  1.6509  0.7977
  494MOL0     H66635   4.510   0.170   2.729 -0.3490 -0.3381  0.9318
  494MOL0     H66636   4.620   0.082   2.825 -2.5974 -1.1883  3.9508
  494MOL0     H66637   4.439   0.290   2.956 -2.8521 -1.3799 -2.0744
  494MOL0     H66638   4.540   0.178   3.025 -1.9398 -2.2527 -0.4665
  494MOL0     H66639   4.417  -0.019   2.921  2.3878  0.1195  2.0029
  494MOL0     H66640   4.330   0.081   3.020 -0.2765  1.1460 -0.9424
  494MOL0     H66641   4.203   0.298   2.829  1.0228 -0.8863  0.5419
  494MOL0     H66642   4.106   0.343   2.523 -0.6986  0.1024 -0.0610
  494MOL0     H66643   3.990   0.212   2.499  0.8538 -1.1688  0.8436
  494MOL0     H66644   4.015   0.449   2.685  0.9069 -0.4953 -1.4985
  494MOL0     H66645   3.881   0.399   2.582  0.1942 -0.8601 -0.7947
  494MOL0     H66646   3.938   0.295   2.863  0.9659  0.5697 -1.0229
  494MOL0     H66647   3.847   0.193   2.747 -2.5212  0.8008 -0.3586
  494MOL0     H66648   3.685   0.364   2.737  1.0231  5.1565 -1.6273
  494MOL0     H66649   3.782   0.488   2.802 -3.4059  0.8904  1.2365
  494MOL0     H66650   3.587   0.407   3.142 -0.7885  0.3618  1.1725
  494MOL0     H66651   3.620   0.588   3.322 -0.3055 -1.4300 -0.2598
  494MOL0     H66652   4.222   0.712   3.464  1.4970 -2.1855  3.6680
  494MOL0     H66653   4.337   0.831   3.630  0.2334 -1.2048 -1.1693
  494MOL0     H66654   4.189   1.217   3.828  2.1407 -1.1003 -1.7451
  494MOL0     H66655   4.077   1.101   3.873  0.2097  0.6235 -0.8969
  494MOL0     H66656   4.353   1.131   3.985  1.1424 -3.2452  0.3785
  494MOL0     H66657   4.206   1.195   4.065 -2.3587 -0.6901 -0.5968
  494MOL0     H66658   4.126   0.968   4.090  0.1936  0.2103 -0.2664
  494MOL0     H66659   4.286   0.909   4.032 -0.7520  2.1139 -3.6509
  494MOL0     H66660   4.236   1.083   4.276 -3.9054 -0.2369 -2.6669
  494MOL0     H66661   4.400   1.049   4.213 -0.3672  0.2818  0.3005
  494MOL0     H66662   4.298   0.783   4.256 -0.0137  0.3603 -0.4926
  494MOL0     H66663   4.203   0.876   4.368 -0.2742 -0.7758  0.6764
  494MOL0     H66664   4.508   0.889   4.344  0.1326  2.6677 -0.2431
  494MOL0     H66665   4.414   0.948   4.486  0.2764 -1.3991 -0.0672
  494MOL0     H66666   4.550   0.754   4.500 -0.8204  1.7166  3.2093
  494MOL0     H66667   4.442   0.682   4.381 -0.5266  0.9167 -1.2872
  494MOL0     H66668   4.257   0.755   4.578  0.6125 -2.2155 -1.5939
  494MOL0     H66669   4.369   0.621   4.611  0.4190 -0.3623 -2.0096
  494MOL0     H66670   3.968   1.054   3.715 -0.1585 -0.1690  0.2097
  494MOL0     H66671   3.859   0.942   3.555  0.7714  1.2650  0.4027
  494MOL0     H66672   4.004   0.667   3.178 -1.1957  1.4427 -1.5800
  494MOL0     H66673   3.960   0.503   2.990 -1.7178 -0.4116 -0.6870
  494MOL0     H66674   4.847   0.983   3.032 -0.9513  2.2323 -0.3854
  494MOL0     H66675   4.887   1.215   2.990  0.7095 -0.6601  0.1589
  494MOL0     H66676   5.265   1.462   2.833  0.8940  1.0150  0.0768
  494MOL0     H66677   5.364   1.669   2.875 -0.5515  0.9316  1.8147
  494MOL0     H66678   5.441   1.855   2.758  1.0171 -0.7174  0.5062
  494MOL0     H66679   5.460   1.880   2.933 -0.9948  2.9687  1.0760
  494MOL0     H66680   5.399   2.090   2.732 -2.0451 -1.6116  0.0487
  494MOL0     H66681   5.552   2.062   2.802 -0.4779  2.0236  0.8438
  494MOL0     H66682   5.303   2.164   2.955 -0.4173  3.9892 -0.2142
  494MOL0     H66683   5.433   2.261   2.890 -1.3272  0.1815 -0.0790
  494MOL0     H66684   5.449   2.194   3.146 -0.7705 -5.1714  2.4309
  494MOL0     H66685   5.450   2.032   3.110 -1.6458  0.1265 -0.1712
  494MOL0     H66686   5.850   2.172   3.081 -0.1778  1.0305 -0.8820
  494MOL0     H66687   5.028   1.888   2.758  0.9225  0.4510  0.9705
  494MOL0     H66688   4.855   1.596   2.635  2.5676 -0.9044  1.0708
  494MOL0     H66689   4.802   1.713   2.751 -0.0452  1.0856 -0.3058
  494MOL0     H66690   4.882   1.780   2.613 -3.2399  2.6845  2.2283
  495MOL0     O66691   3.571   3.476   3.035  0.5154 -0.2472  0.4058
  495MOL0     C66692   3.615   3.395   2.951  0.2072 -0.4228 -0.4165
  495MOL0     O66693   3.734   3.407   2.891  0.2846 -0.6994 -0.4833
  495MOL0     C66694   3.815   3.506   2.930 -0.3296  0.5354  0.6587
  495MOL0     C66695   3.801   3.632   2.869  0.4611 -0.2183 -0.0069
  495MOL0     C66696   3.870   3.744   2.908 -0.2993  0.0166 -0.9356
  495MOL0     C66697   3.968   3.732   3.006  0.4351  0.3982  0.0313
  495MOL0     O66698   4.030   3.840   3.058  0.0962 -0.4529 -0.6206
  495MOL0     C66699   4.179   3.817   3.067  0.4835  0.6495  0.9823
  495MOL0     C66700   4.251   3.950   3.052 -0.8472 -0.5045  0.5304
  495MOL0     C66701   4.196   4.045   3.153 -0.5947 -0.1376 -0.4805
  495MOL0     C66702   4.308   4.146   3.194 -0.1557 -0.5496 -0.4475
  495MOL0     C66703   4.249   4.237   3.310 -0.3911  0.3279  0.0000
  495MOL0     C66704   4.349   4.328   3.377 -0.1781 -0.5815 -0.1480
  495MOL0     C66705   4.385   4.456   3.293 -0.0374 -0.0427  0.0664
  495MOL0     C66706   4.269   4.550   3.276  1.1823  0.2465 -0.5437
  495MOL0     N66707   4.321   4.676   3.222  0.3919 -0.3243  0.7702
  495MOL0     C66708   4.236   4.780   3.208 -0.0765  0.5768  0.2614
  495MOL0     C66709   4.315   4.867   3.139 -0.3375 -1.1491  0.0150
  495MOL0     C66710   4.286   5.012   3.110  0.8319  0.4072 -0.4411
  495MOL0     C66711   4.368   5.076   3.004 -0.2270  0.4317 -0.8734
  495MOL0     C66712   4.311   5.216   2.969  0.7430  0.9246 -0.0693
  495MOL0     C66713   4.384   5.277   2.854 -0.3663  0.8557  0.8716
  495MOL0     O66714   4.319   5.226   2.738  0.1016 -0.2117 -0.2832
  495MOL0     C66715   4.374   5.273   2.618 -0.2483 -0.8135  0.3043
  495MOL0     C66716   4.301   5.235   2.502 -0.3786  0.9402 -0.1584
  495MOL0     C66717   4.326   5.288   2.381  0.1137  0.2424  0.0312
  495MOL0     C66718   4.440   5.370   2.364 -0.2056 -0.5491  0.4026
  495MOL0     C66719   4.478   5.431   2.231  0.0463  0.7597 -0.4406
  495MOL0     O66720   4.400   5.417   2.122 -0.0507 -0.4586 -0.1944
  495MOL0     C66721   4.440   5.463   2.003 -0.4346 -0.7378  0.8321
  495MOL0     C66722   4.498   5.380   1.896  0.4112 -0.3759 -0.4950
  495MOL0     C66723   4.528   5.433   1.769  0.0298 -0.8964  0.0461
  495MOL0     C66724   4.518   5.571   1.739 -0.0016 -0.8653 -0.5193
  495MOL0     O66725   4.542   5.617   1.613  0.0532  0.2920 -0.5119
  495MOL0     C66726   4.433   5.684   1.550  0.1343 -0.2021 -0.3564
  495MOL0     C66727   4.464   5.642   1.406  0.9853  0.1614 -0.8654
  495MOL0     C66728   4.345   5.681   1.317 -1.1531  0.0148 -0.7072
  495MOL0     C66729   4.371   5.646   1.172  0.2453 -0.0193  0.9272
  495MOL0     C66730   4.258   5.684   1.084  0.7547  0.1583  0.4971
  495MOL0     C66731   4.279   5.625   0.943  0.1479 -0.2200  0.7267
  495MOL0     C66732   4.389   5.703   0.857  0.6274 -0.3671  1.0483
  495MOL0     C66733   4.511   5.609   0.847  0.1081 -0.0653  0.3752
  495MOL0    Cl66734   4.460   5.462   0.770  0.3211  0.3497 -0.0069
  495MOL0     C66735   4.478   5.649   1.843  0.0977  0.3755 -0.9116
  495MOL0     C66736   4.445   5.601   1.978  0.5675  1.1369  1.0351
  495MOL0     O66737   4.578   5.500   2.235 -0.1228  0.5258  0.6947
  495MOL0     C66738   4.515   5.404   2.474  0.5957 -0.5983 -0.3444
  495MOL0     C66739   4.482   5.356   2.600  0.3390  0.0706  0.0968
  495MOL0     N66740   4.439   4.811   3.106  0.3648 -0.1458  0.4789
  495MOL0     N66741   4.435   4.693   3.149 -0.0639 -0.8116  0.0789
  495MOL0     C66742   3.987   3.605   3.061  0.6478  0.5723 -0.5702
  495MOL0     C66743   3.918   3.489   3.018 -0.0845 -0.4807 -0.7908
  495MOL0     C66744   3.528   3.278   2.919  1.5761 -0.6450 -0.7930
  495MOL0     C66745   3.571   3.175   2.838  0.2136 -0.7583 -0.1213
  495MOL0     C66746   3.495   3.062   2.819 -0.2244 -0.0612  1.8971
  495MOL0     C66747   3.372   3.048   2.874  0.6129  0.1284 -0.3750
  495MOL0     O66748   3.291   2.936   2.861  0.4936 -0.3421  0.3646
  495MOL0     C66749   3.311   2.827   2.776  0.3625  1.0418 -0.5123
  495MOL0     C66750   3.363   2.698   2.854 -0.3640  0.6419  0.6892
  495MOL0     C66751   3.501   2.663   2.800  0.6691  0.0104 -0.8328
  495MOL0     C66752   3.490   2.563   2.693  0.8969 -0.3752  0.5700
  495MOL0     C66753   3.376   2.588   2.602 -0.8959 -0.2189 -0.0326
  495MOL0     C66754   3.285   2.600   2.518 -0.5144 -0.7653 -0.3009
  495MOL0     C66755   3.325   3.140   2.963 -0.0185  0.8079  0.2376
  495MOL0     C66756   3.400   3.261   2.976 -0.4539 -0.1436 -0.0801
  495MOL0     C66757   3.329   3.357   3.065 -0.4141 -0.3676  0.7545
  495MOL0     H66758   3.724   3.647   2.794  0.5207 -0.1809 -0.0609
  495MOL0     H66759   3.848   3.835   2.853 -3.4296  2.0034  3.0196
  495MOL0     H66760   4.195   3.795   3.173 -3.9584  2.5048  2.2696
  495MOL0     H66761   4.220   3.745   2.995  1.3255  2.0374  0.0300
  495MOL0     H66762   4.242   4.001   2.956 -0.7893  3.2812  2.3388
  495MOL0     H66763   4.359   3.947   3.072 -0.2953  0.4764 -1.9516
  495MOL0     H66764   4.158   3.985   3.236  3.3042 -2.0009  0.2268
  495MOL0     H66765   4.120   4.101   3.098  1.6819  1.6166 -2.0290
  495MOL0     H66766   4.399   4.099   3.232  0.2435  1.0791  0.7348
  495MOL0     H66767   4.348   4.211   3.116  0.3712 -1.3037 -0.8222
  495MOL0     H66768   4.165   4.291   3.267 -0.2613  1.4011  1.0674
  495MOL0     H66769   4.198   4.179   3.387 -0.8211  1.8063  0.8606
  495MOL0     H66770   4.316   4.363   3.475  0.0719 -0.3973 -0.1301
  495MOL0     H66771   4.443   4.274   3.388 -0.8390 -1.7343 -0.0032
  495MOL0     H66772   4.425   4.425   3.196 -3.3514  0.2194 -1.5375
  495MOL0     H66773   4.474   4.507   3.329 -1.1015  0.5799  1.9378
  495MOL0     H66774   4.182   4.513   3.220 -0.2362 -2.6242  3.0866
  495MOL0     H66775   4.230   4.567   3.377  0.4026  4.1534 -1.3295
  495MOL0     H66776   4.135   4.786   3.245 -2.4081 -0.5677 -5.0499
  495MOL0     H66777   4.180   5.024   3.087  1.2319  1.3878 -1.9044
  495MOL0     H66778   4.315   5.078   3.193  1.0127 -0.8178  0.5062
  495MOL0     H66779   4.466   5.101   3.045  0.1055  0.8394 -1.9026
  495MOL0     H66780   4.374   5.022   2.909  2.9107  4.6023 -3.4046
  495MOL0     H66781   4.312   5.284   3.054 -0.4962  0.5370  0.2777
  495MOL0     H66782   4.208   5.217   2.931  0.5380 -0.2038  0.4238
  495MOL0     H66783   4.493   5.267   2.860 -0.2694  0.5163 -0.7506
  495MOL0     H66784   4.375   5.386   2.857  0.6683  0.9559  0.7262
  495MOL0     H66785   4.218   5.167   2.522  2.6906 -2.4586  2.2351
  495MOL0     H66786   4.276   5.265   2.288  1.9534  2.2378 -1.5660
  495MOL0     H66787   4.513   5.277   1.927  2.5301  0.9050  3.4762
  495MOL0     H66788   4.559   5.381   1.679 -0.8818  0.8776 -1.3352
  495MOL0     H66789   4.338   5.641   1.583  0.2666  0.0300  0.3425
  495MOL0     H66790   4.436   5.791   1.573  1.7561 -0.5750  1.3621
  495MOL0     H66791   4.554   5.689   1.367  0.2438  1.0195 -1.6102
  495MOL0     H66792   4.474   5.533   1.402  0.1095  0.1036 -1.7236
  495MOL0     H66793   4.251   5.630   1.338 -0.5957 -1.6470 -1.9454
  495MOL0     H66794   4.326   5.788   1.326 -1.5713 -0.0111 -1.2465
  495MOL0     H66795   4.387   5.538   1.175 -1.4075 -0.2736  2.0296
  495MOL0     H66796   4.453   5.705   1.130  0.5454 -1.3768 -0.4381
  495MOL0     H66797   4.235   5.791   1.072  0.8146 -0.1793 -4.9564
  495MOL0     H66798   4.167   5.639   1.125  2.5630 -1.7121  2.7374
  495MOL0     H66799   4.302   5.518   0.940  4.2842  0.5015  0.9736
  495MOL0     H66800   4.189   5.627   0.881  0.3430 -1.7334  0.3465
  495MOL0     H66801   4.422   5.795   0.906  0.3287 -0.1455  0.8368
  495MOL0     H66802   4.344   5.724   0.760 -1.8796 -3.3848  1.3739
  495MOL0     H66803   4.597   5.662   0.805  1.8625 -1.7602  1.5974
  495MOL0     H66804   4.541   5.582   0.949 -1.6739 -2.0152  0.4589
  495MOL0     H66805   4.462   5.755   1.829  0.2156  0.3408 -1.3071
  495MOL0     H66806   4.400   5.668   2.051 -0.7684 -0.4872  1.7533
  495MOL0     H66807   4.596   5.476   2.461 -0.4137  0.7986  0.7764
  495MOL0     H66808   4.545   5.385   2.684  2.0979  2.2748 -1.8489
  495MOL0     H66809   4.054   3.591   3.146 -1.3984 -2.4905  0.7415
  495MOL0     H66810   3.932   3.392   3.065  0.2213 -1.0180 -1.9376
  495MOL0     H66811   3.664   3.177   2.782  0.0607  1.0882 -0.3494
  495MOL0     H66812   3.525   2.981   2.753 -2.2265 -0.9877  2.0329
  495MOL0     H66813   3.381   2.849   2.695 -1.9820 -0.9961 -3.3065
  495MOL0     H66814   3.223   2.790   2.723  2.0913 -1.4072 -1.8276
  495MOL0     H66815   3.294   2.614   2.842  0.1452  0.2889  0.1589
  495MOL0     H66816   3.384   2.719   2.960  0.6457 -1.4067  0.9472
  495MOL0     H66817   3.567   2.614   2.872  2.0177  0.3087 -1.8254
  495MOL0     H66818   3.555   2.755   2.777  0.6291 -0.0572 -1.2076
  495MOL0     H66819   3.591   2.566   2.652  0.6117 -3.1819 -0.5360
  495MOL0     H66820   3.471   2.462   2.731  2.6251 -1.2056 -0.6485
  495MOL0     H66821   3.208   2.619   2.447  1.1431  2.7235 -1.3910
  495MOL0     H66822   3.237   3.124   3.024  1.6134 -2.3008  2.0319
  495MOL0     H66823   3.393   3.395   3.146  1.1764  0.9538 -1.0408
  495MOL0     H66824   3.298   3.438   2.999 -1.0489 -2.0890 -1.1683
  495MOL0     H66825   3.244   3.313   3.119 -2.3725  2.3512  0.0562
  496MOL0     O66826   9.161   9.488   7.650 -0.0540  1.1295 -0.1451
  496MOL0     C66827   9.176   9.484   7.770 -0.8076  0.2890 -0.5639
  496MOL0     O66828   9.208   9.368   7.833  0.0503  0.0933  0.3564
  496MOL0     C66829   9.185   9.256   7.760 -0.3416  0.4258 -0.4238
  496MOL0     C66830   9.297   9.185   7.722 -0.0821  0.2561  0.7095
  496MOL0     C66831   9.280   9.073   7.633  0.5741 -0.1589 -0.1874
  496MOL0     C66832   9.140   9.034   7.596 -0.8380 -1.0308 -0.0624
  496MOL0     O66833   9.128   8.938   7.505 -0.0323 -0.2124  0.1915
  496MOL0     C66834   9.002   8.853   7.493 -0.0698 -0.9803 -0.5352
  496MOL0     C66835   9.016   8.750   7.383 -0.1911  0.1367 -0.8024
  496MOL0     C66836   8.889   8.703   7.327 -1.4357 -0.2703  1.2577
  496MOL0     C66837   8.918   8.612   7.212  0.4666 -0.1929 -0.2389
  496MOL0     C66838   8.791   8.611   7.138 -0.2337  0.1143 -0.0323
  496MOL0     C66839   8.785   8.516   7.021 -0.3982  0.3082  0.5941
  496MOL0     C66840   8.649   8.437   7.000  0.2558 -0.1812  0.1125
  496MOL0     C66841   8.517   8.519   6.984 -0.1133 -0.1103  0.5809
  496MOL0     N66842   8.533   8.666   6.959  0.4239 -0.9735 -1.0194
  496MOL0     C66843   8.548   8.708   6.836  0.2421 -0.3545  0.4609
  496MOL0     C66844   8.574   8.837   6.845  0.4772  0.1665  0.6622
  496MOL0     C66845   8.615   8.927   6.733  0.6232  0.6552 -0.5592
  496MOL0     C66846   8.618   9.068   6.775 -0.0581 -0.7684  0.1178
  496MOL0     C66847   8.645   9.167   6.665  0.0287 -0.1752  0.3431
  496MOL0     C66848   8.521   9.183   6.564 -0.2002  0.1722  0.0236
  496MOL0     O66849   8.549   9.229   6.430  0.2047  0.4129  0.3322
  496MOL0     C66850   8.443   9.271   6.349 -0.4322  0.7545 -0.6965
  496MOL0     C66851   8.476   9.311   6.225 -0.4827 -0.1367 -0.1908
  496MOL0     C66852   8.382   9.340   6.123  0.3992  0.2844 -0.7509
  496MOL0     C66853   8.244   9.328   6.149 -0.3727 -0.7911  0.2884
  496MOL0     C66854   8.145   9.373   6.058  1.3054  0.7443 -0.4197
  496MOL0     O66855   8.183   9.384   5.922 -0.9321  0.5759  0.2875
  496MOL0     C66856   8.113   9.446   5.825 -0.1447  0.9204 -0.5211
  496MOL0     C66857   7.966   9.432   5.830 -0.0568 -0.3237  0.5181
  496MOL0     C66858   7.895   9.494   5.726 -0.3547 -0.2621  0.6884
  496MOL0     C66859   7.954   9.569   5.628 -0.4279  0.6828 -0.1640
  496MOL0     O66860   7.892   9.647   5.534 -0.3366  0.2369 -1.4791
  496MOL0     C66861   7.753   9.621   5.510 -0.4985  0.0845  0.2068
  496MOL0     C66862   7.700   9.726   5.407 -0.4407 -0.6492  0.3403
  496MOL0     C66863   7.730   9.869   5.452  0.6254 -0.4391 -0.0148
  496MOL0     C66864   7.669   9.947   5.333 -0.1000 -0.3800  0.1595
  496MOL0     C66865   7.729  10.090   5.348 -0.2426  0.0570 -0.3445
  496MOL0     C66866   7.724  10.172   5.213 -1.6742 -0.0180 -0.8994
  496MOL0     C66867   7.605  10.263   5.205 -0.0318 -0.1397 -0.2511
  496MOL0     C66868   7.566  10.350   5.322 -0.0675  0.6039  0.4636
  496MOL0    Cl66869   7.456  10.497   5.271 -0.1093  0.0905 -0.6074
  496MOL0     C66870   8.090   9.562   5.615 -0.2192  0.4599 -0.4014
  496MOL0     C66871   8.177   9.512   5.715  0.6545  0.6281  0.4072
  496MOL0     O66872   8.033   9.393   6.109  0.4843 -0.1377 -0.6445
  496MOL0     C66873   8.213   9.293   6.286 -0.6227 -1.4786  0.3153
  496MOL0     C66874   8.310   9.268   6.386  1.2721  0.6278  0.0110
  496MOL0     N66875   8.561   8.873   6.972  0.1688  0.1813  0.2720
  496MOL0     N66876   8.553   8.767   7.044 -0.1071 -0.6374  0.7904
  496MOL0     C66877   9.035   9.119   7.635  0.0665 -0.1074 -0.0859
  496MOL0     C66878   9.056   9.226   7.715  0.4911  0.5482  0.6385
  496MOL0     C66879   9.186   9.611   7.846 -0.0682  0.4148 -1.7354
  496MOL0     C66880   9.232   9.610   7.982 -0.4379 -0.2287 -0.3461
  496MOL0     C66881   9.258   9.726   8.046  0.4551  0.1135 -0.1251
  496MOL0     C66882   9.217   9.850   7.996  0.1858 -0.6188  0.3505
  496MOL0     O66883   9.201   9.952   8.080  0.1642 -0.0665  0.5882
  496MOL0     C66884   9.150  10.083   8.039 -0.7715 -0.4745  0.3495
  496MOL0     C66885   9.155  10.184   8.158  0.3440 -0.3067 -0.1915
  496MOL0     C66886   9.054  10.120   8.263 -0.1759 -0.5148  0.8974
  496MOL0     C66887   8.911  10.153   8.231 -0.2522  0.2950 -0.7796
  496MOL0     C66888   8.826  10.162   8.353  0.3213 -0.2363  0.4883
  496MOL0     C66889   8.748  10.177   8.444  1.0462 -0.2661 -0.6553
  496MOL0     C66890   9.168   9.863   7.863 -0.1558  0.0050 -0.2314
  496MOL0     C66891   9.154   9.750   7.792 -0.7079  0.7940  0.3125
  496MOL0     C66892   9.113   9.774   7.651  0.6580  0.1441  0.2188
  496MOL0     H66893   9.397   9.216   7.750  1.0261  0.9418 -3.3306
  496MOL0     H66894   9.360   9.012   7.592 -1.2231 -2.0473 -1.0155
  496MOL0     H66895   8.996   8.803   7.591 -3.1230 -0.6983 -0.5016
  496MOL0     H66896   8.914   8.917   7.485  0.4135  0.0033  1.3495
  496MOL0     H66897   9.084   8.672   7.419  1.2430  2.0941  0.9223
  496MOL0     H66898   9.075   8.790   7.300  1.4010 -2.2761 -0.9367
  496MOL0     H66899   8.845   8.795   7.286  0.7830  1.4616  2.4907
  496MOL0     H66900   8.817   8.670   7.402 -2.5753  1.7324  1.1089
  496MOL0     H66901   8.994   8.653   7.144  0.1852 -0.2911 -0.6201
  496MOL0     H66902   8.944   8.511   7.245  3.1387  0.5263  0.1239
  496MOL0     H66903   8.704   8.589   7.201 -2.2966  0.9198 -2.3960
  496MOL0     H66904   8.781   8.707   7.086 -0.5672 -0.5942 -1.3083
  496MOL0     H66905   8.819   8.571   6.933  0.9963  2.6562  2.4587
  496MOL0     H66906   8.861   8.438   7.033  0.1909  0.7444 -0.2235
  496MOL0     H66907   8.642   8.364   7.080  1.7377  1.3925  1.7658
  496MOL0     H66908   8.650   8.376   6.909 -0.3310  1.8738 -1.3631
  496MOL0     H66909   8.455   8.473   6.906  3.8632 -1.6317 -1.9801
  496MOL0     H66910   8.468   8.520   7.082  0.2478  2.2012  0.7946
  496MOL0     H66911   8.556   8.641   6.751  3.0879  1.3480 -0.7732
  496MOL0     H66912   8.712   8.886   6.702  0.5308  0.9552 -1.2482
  496MOL0     H66913   8.544   8.919   6.650 -1.6376  1.4262  1.1980
  496MOL0     H66914   8.524   9.106   6.817  1.2274  0.2445  2.2135
  496MOL0     H66915   8.687   9.080   6.859 -3.1744  0.0752  2.7919
  496MOL0     H66916   8.736   9.130   6.617  0.0477 -1.1914  1.1180
  496MOL0     H66917   8.672   9.269   6.693  0.2705  0.9838 -3.5487
  496MOL0     H66918   8.449   9.252   6.609 -1.0376 -0.4633 -0.2904
  496MOL0     H66919   8.472   9.085   6.555  0.8866 -0.3446 -0.4295
  496MOL0     H66920   8.581   9.325   6.204 -0.7248  3.9516  0.4296
  496MOL0     H66921   8.414   9.380   6.028  1.8002 -1.6339 -1.1392
  496MOL0     H66922   7.913   9.375   5.905  1.0770 -0.0241  1.5797
  496MOL0     H66923   7.789   9.484   5.744 -0.0752 -1.0518  2.0316
  496MOL0     H66924   7.742   9.520   5.471  0.6687  0.2024 -0.4614
  496MOL0     H66925   7.702   9.642   5.605 -0.7461 -0.0772  0.1097
  496MOL0     H66926   7.759   9.711   5.316 -0.4251  0.4870  0.1484
  496MOL0     H66927   7.597   9.699   5.382 -0.9151 -1.3700  2.8044
  496MOL0     H66928   7.679   9.886   5.547  0.9897 -0.7843  0.2432
  496MOL0     H66929   7.839   9.868   5.461  0.6314 -5.4224  3.2563
  496MOL0     H66930   7.560   9.950   5.344 -0.0006 -1.7150  2.1496
  496MOL0     H66931   7.695   9.910   5.234 -4.0733  0.1514 -1.2649
  496MOL0     H66932   7.834  10.070   5.373 -0.8700 -1.1886  1.5389
  496MOL0     H66933   7.678  10.136   5.433 -1.4561 -2.4937  0.4024
  496MOL0     H66934   7.818  10.227   5.203 -1.1055 -1.0107 -1.1598
  496MOL0     H66935   7.724  10.105   5.126 -0.3006 -0.9808 -0.1790
  496MOL0     H66936   7.513  10.215   5.170 -0.2884  0.7884 -0.8769
  496MOL0     H66937   7.618  10.328   5.119 -1.6301 -0.2446 -0.6067
  496MOL0     H66938   7.510  10.282   5.387  0.7870 -1.5634 -0.9679
  496MOL0     H66939   7.656  10.381   5.375  0.3413 -1.3872  0.9821
  496MOL0     H66940   8.146   9.611   5.536  0.7755  1.2474  0.7444
  496MOL0     H66941   8.285   9.509   5.723  0.9064 -0.6324 -2.2947
  496MOL0     H66942   8.110   9.289   6.319 -0.6198 -2.3361  0.2567
  496MOL0     H66943   8.277   9.239   6.486 -2.2713  2.8239 -0.3582
  496MOL0     H66944   8.933   9.110   7.597  0.0391  2.1155 -0.6350
  496MOL0     H66945   8.964   9.273   7.748  1.0587  2.5322 -0.4531
  496MOL0     H66946   9.280   9.519   8.014 -1.1159  0.0156  1.4618
  496MOL0     H66947   9.294   9.731   8.148  0.2117  2.5431 -0.1155
  496MOL0     H66948   9.049  10.071   7.998  0.2077  0.1045 -2.4509
  496MOL0     H66949   9.202  10.121   7.951  0.7269 -2.6370  0.2244
  496MOL0     H66950   9.138  10.287   8.123  1.8241 -0.4945 -1.6236
  496MOL0     H66951   9.256  10.182   8.201  0.1788  0.8205  0.2837
  496MOL0     H66952   9.079  10.174   8.354 -0.5587  1.1432  0.0564
  496MOL0     H66953   9.076  10.015   8.284 -1.2143 -1.3547 -1.7492
  496MOL0     H66954   8.913  10.247   8.176  3.4450  0.7629 -0.1142
  496MOL0     H66955   8.858  10.074   8.176 -2.9640  0.3621  1.5014
  496MOL0     H66956   8.685  10.171   8.530  0.8948 -3.3104 -0.8624
  496MOL0     H66957   9.136   9.962   7.833  6.4191  3.0354  1.0054
  496MOL0     H66958   9.075   9.875   7.630  1.0162  0.2390  0.0162
  496MOL0     H66959   9.195   9.767   7.579  0.7003  0.8520  0.1908
  496MOL0     H66960   9.042   9.699   7.615  2.1636 -1.5854  0.7401
  497MOL0     O66961   6.016   6.264   6.414  0.3240  0.3264  0.3527
  497MOL0     C66962   6.029   6.370   6.351 -0.0777  0.5079 -0.6148
  497MOL0     O66963   6.078   6.482   6.404  0.3249  0.6980 -0.4040
  497MOL0     C66964   6.154   6.469   6.527 -0.2612 -0.0630 -0.0079
  497MOL0     C66965   6.294   6.499   6.523  0.0587  0.3309  0.1427
  497MOL0     C66966   6.361   6.486   6.649  0.1900 -0.5098  0.0130
  497MOL0     C66967   6.291   6.454   6.770 -0.4093 -0.5746  0.0568
  497MOL0     O66968   6.373   6.454   6.881 -0.5198 -0.1765  0.2481
  497MOL0     C66969   6.349   6.351   6.976  0.0692 -0.2238 -0.4533
  497MOL0     C66970   6.447   6.379   7.083 -0.0205  0.6388 -0.6980
  497MOL0     C66971   6.429   6.280   7.201  0.8665 -0.2723  0.5633
  497MOL0     C66972   6.555   6.282   7.293  0.0414  0.9483  0.1370
  497MOL0     C66973   6.539   6.185   7.409  0.1776  0.4513  0.0662
  497MOL0     C66974   6.445   6.226   7.522  0.7917 -0.3463  0.4356
  497MOL0     C66975   6.481   6.147   7.653  0.0912  0.4973  1.2142
  497MOL0     C66976   6.390   6.182   7.770 -1.2821  1.1234  0.1306
  497MOL0     N66977   6.254   6.130   7.743 -0.4051 -0.8852 -0.2960
  497MOL0     C66978   6.153   6.218   7.746  1.1829  0.2641 -0.1818
  497MOL0     C66979   6.041   6.147   7.725 -0.3859 -0.8749 -0.6826
  497MOL0     C66980   5.904   6.204   7.723 -0.1257  0.1354  0.8266
  497MOL0     C66981   5.824   6.222   7.849 -0.5178  0.0726 -0.2208
  497MOL0     C66982   5.895   6.330   7.937 -0.2555 -0.7083  0.0323
  497MOL0     C66983   5.797   6.354   8.056 -0.6277 -1.1712 -0.0541
  497MOL0     O66984   5.761   6.235   8.124 -0.1747 -0.2563 -0.2914
  497MOL0     C66985   5.672   6.237   8.224 -0.3886  0.2688 -0.1575
  497MOL0     C66986   5.633   6.109   8.266 -0.1210  0.1234  0.4959
  497MOL0     C66987   5.534   6.104   8.359 -0.2882  0.1239 -0.8503
  497MOL0     C66988   5.467   6.219   8.408  0.4931  0.2799 -0.2370
  497MOL0     C66989   5.361   6.201   8.515 -0.0313 -0.4932  0.5650
  497MOL0     O66990   5.344   6.302   8.613 -0.3257 -0.3699  0.8048
  497MOL0     C66991   5.243   6.285   8.695  0.1723  0.1836  0.5811
  497MOL0     C66992   5.109   6.307   8.658 -0.5899  1.4145  0.9036
  497MOL0     C66993   5.005   6.290   8.745 -0.1559  0.2626  0.2095
  497MOL0     C66994   5.036   6.258   8.877 -0.4168 -0.5451 -0.4318
  497MOL0     O66995   4.937   6.247   8.976  0.9986 -0.1489 -0.2279
  497MOL0     C66996   4.898   6.362   9.041 -0.0173  0.3457  0.0866
  497MOL0     C66997   4.775   6.326   9.125  0.0062  0.0076 -0.2839
  497MOL0     C66998   4.810   6.238   9.242 -0.7988 -0.3033  0.9206
  497MOL0     C66999   4.714   6.125   9.263  0.2016  0.6284 -0.0083
  497MOL0     C67000   4.561   6.170   9.293  0.0903  0.2063 -0.2861
  497MOL0     C67001   4.454   6.063   9.354  0.5288 -0.2876 -0.0732
  497MOL0     C67002   4.307   6.101   9.348  0.0737  0.5495 -0.9086
  497MOL0     C67003   4.210   5.978   9.346  0.1657 -0.2613 -0.7934
  497MOL0    Cl67004   4.051   6.031   9.390  0.4934 -0.2713 -0.3755
  497MOL0     C67005   5.174   6.242   8.927  1.3149  0.1909 -1.1961
  497MOL0     C67006   5.268   6.249   8.824 -0.4684 -0.2411 -0.8133
  497MOL0     O67007   5.297   6.105   8.514 -0.4166  0.2460  0.0614
  497MOL0     C67008   5.516   6.346   8.378 -0.3492  0.3926 -0.7147
  497MOL0     C67009   5.617   6.355   8.284  0.3699  0.1707  0.6982
  497MOL0     N67010   6.076   6.016   7.723 -0.3585  0.4811 -0.0128
  497MOL0     N67011   6.211   6.005   7.735 -0.0136 -0.7826  0.0185
  497MOL0     C67012   6.154   6.428   6.766  0.1174 -1.0245 -0.8347
  497MOL0     C67013   6.089   6.442   6.648 -0.3246  0.5254  0.6903
  497MOL0     C67014   5.987   6.365   6.207  0.3564 -0.3775 -0.9518
  497MOL0     C67015   5.903   6.268   6.164  0.0010 -0.3769  0.2419
  497MOL0     C67016   5.855   6.249   6.038  0.1546 -0.0853 -0.5577
  497MOL0     C67017   5.882   6.343   5.942  0.0997 -0.0652  0.2644
  497MOL0     O67018   5.830   6.322   5.819 -0.0002 -0.3820 -0.8068
  497MOL0     C67019   5.856   6.419   5.720  0.0110  1.1654 -1.2927
  497MOL0     C67020   5.794   6.360   5.595  1.1824 -0.2798  0.7781
  497MOL0     C67021   5.635   6.378   5.609 -0.6693  0.0437 -0.1367
  497MOL0     C67022   5.565   6.508   5.597 -0.0382  0.1287 -0.1677
  497MOL0     C67023   5.545   6.573   5.471  0.5360 -0.3025  0.9885
  497MOL0     C67024   5.532   6.640   5.367 -0.1335 -0.7425  0.6493
  497MOL0     C67025   5.964   6.455   5.974 -0.1502  1.3413 -0.6429
  497MOL0     C67026   6.017   6.460   6.103  0.3495  0.4985 -0.7089
  497MOL0     C67027   6.121   6.562   6.128  0.0968 -0.3931  0.0851
  497MOL0     H67028   6.343   6.536   6.434  2.4708  0.7209  1.5600
  497MOL0     H67029   6.467   6.502   6.666  0.1963 -0.6876  0.1456
  497MOL0     H67030   6.247   6.343   7.016 -0.1895  2.2881 -0.4349
  497MOL0     H67031   6.382   6.259   6.927  1.1043 -0.6935  1.0486
  497MOL0     H67032   6.437   6.478   7.128  1.7432  0.8340 -0.6605
  497MOL0     H67033   6.551   6.363   7.053  0.3502 -2.6572  1.6862
  497MOL0     H67034   6.407   6.177   7.171  0.9630 -0.0426 -0.3358
  497MOL0     H67035   6.341   6.312   7.258 -0.9021 -0.3520 -1.9627
  497MOL0     H67036   6.640   6.248   7.232  0.1654  0.6376  0.4783
  497MOL0     H67037   6.570   6.376   7.347 -5.0237  0.1493  3.5813
  497MOL0     H67038   6.531   6.080   7.378  1.7807  0.2240  0.3366
  497MOL0     H67039   6.637   6.184   7.459  0.7772  0.1697 -1.0612
  497MOL0     H67040   6.453   6.334   7.538  1.4266 -0.1847 -0.8526
  497MOL0     H67041   6.341   6.209   7.493  0.7666 -2.2895  1.4481
  497MOL0     H67042   6.585   6.143   7.686  1.0351 -0.8901 -1.6467
  497MOL0     H67043   6.470   6.041   7.629  1.4118  0.4167  0.8876
  497MOL0     H67044   6.429   6.133   7.860 -0.2442  1.2461 -0.2442
  497MOL0     H67045   6.399   6.290   7.786 -1.6317  0.8786  2.2854
  497MOL0     H67046   6.156   6.327   7.750 -0.0836  0.2781  0.7570
  497MOL0     H67047   5.914   6.304   7.679 -0.1341  0.4492  1.5231
  497MOL0     H67048   5.844   6.141   7.657 -1.5441  3.6477 -1.5486
  497MOL0     H67049   5.725   6.266   7.831 -2.2653 -0.9776  5.0840
  497MOL0     H67050   5.808   6.137   7.915 -3.9278  1.2865  0.7150
  497MOL0     H67051   5.915   6.426   7.888  3.2116 -1.7046 -0.7663
  497MOL0     H67052   5.986   6.298   7.988 -0.1242 -1.0655 -0.4194
  497MOL0     H67053   5.710   6.406   8.015  1.6553  1.8808 -1.4208
  497MOL0     H67054   5.841   6.419   8.132 -0.5924  0.5560 -1.4751
  497MOL0     H67055   5.679   6.017   8.232 -0.8381 -1.5419  3.6742
  497MOL0     H67056   5.501   6.006   8.394  0.3911  0.5611  1.1736
  497MOL0     H67057   5.092   6.324   8.552 -0.1735  1.5392  0.8557
  497MOL0     H67058   4.900   6.291   8.718  0.2144 -0.2587 -1.3621
  497MOL0     H67059   4.972   6.405   9.110 -0.6848  0.1965  0.9192
  497MOL0     H67060   4.882   6.441   8.967  2.2165  1.5501  0.8059
  497MOL0     H67061   4.732   6.418   9.166 -2.3082 -1.7610  1.5245
  497MOL0     H67062   4.695   6.280   9.066 -0.3003  2.1030 -1.6184
  497MOL0     H67063   4.911   6.197   9.227 -0.1303  1.2340  1.0075
  497MOL0     H67064   4.813   6.297   9.334  0.7837  0.1929  0.5763
  497MOL0     H67065   4.747   6.072   9.353  1.4952  1.0994 -0.1890
  497MOL0     H67066   4.724   6.062   9.175 -0.9185 -4.0602  2.8810
  497MOL0     H67067   4.525   6.215   9.199 -3.4185  1.7153  1.5985
  497MOL0     H67068   4.552   6.258   9.358  1.2402 -0.1876  0.4290
  497MOL0     H67069   4.467   5.969   9.300 -1.4427 -2.3659  2.7197
  497MOL0     H67070   4.488   6.046   9.456  1.7979  1.5547 -0.1330
  497MOL0     H67071   4.282   6.156   9.257 -2.6520  0.2481 -0.4269
  497MOL0     H67072   4.291   6.152   9.443  2.7872 -3.5646  2.0842
  497MOL0     H67073   4.214   5.925   9.250  3.1143 -1.0084 -0.3384
  497MOL0     H67074   4.234   5.912   9.430  0.5306 -0.9656 -1.4319
  497MOL0     H67075   5.209   6.233   9.030  1.7412  1.5229 -1.2109
  497MOL0     H67076   5.373   6.247   8.851 -0.6039 -0.0636 -0.2637
  497MOL0     H67077   5.471   6.436   8.418 -1.7336  2.4540 -6.0031
  497MOL0     H67078   5.673   6.444   8.261  0.3532 -0.0742 -0.3574
  497MOL0     H67079   6.094   6.394   6.850  0.5906 -0.7850 -0.3934
  497MOL0     H67080   5.986   6.411   6.630  0.3873 -1.7787  0.1726
  497MOL0     H67081   5.865   6.201   6.241 -1.4114 -0.5925 -0.6204
  497MOL0     H67082   5.786   6.168   6.020  2.4975 -2.0379 -1.3164
  497MOL0     H67083   5.963   6.436   5.707  0.1204  3.1829  1.4307
  497MOL0     H67084   5.818   6.518   5.748  1.4350  1.8003 -1.5226
  497MOL0     H67085   5.803   6.251   5.592 -3.6302 -0.8740 -0.6057
  497MOL0     H67086   5.827   6.416   5.507  2.6216  0.9892  2.0551
  497MOL0     H67087   5.605   6.339   5.707 -1.4406 -0.4338 -0.5585
  497MOL0     H67088   5.604   6.306   5.534  0.6764 -0.9782  0.2478
  497MOL0     H67089   5.465   6.488   5.638  0.5068 -0.2918  0.9815
  497MOL0     H67090   5.623   6.573   5.662 -3.2544 -0.3791  3.5755
  497MOL0     H67091   5.530   6.676   5.266  4.3861 -3.4244 -0.6909
  497MOL0     H67092   6.001   6.526   5.899  4.9615  0.7855  0.9549
  497MOL0     H67093   6.217   6.512   6.122  0.7101  0.7409  0.0544
  497MOL0     H67094   6.115   6.633   6.044 -0.8585 -0.6154 -0.0438
  497MOL0     H67095   6.096   6.618   6.219  0.4023  2.7290 -1.5842
  498MOL0     O67096  11.038   5.911   9.876 -0.0312  0.5040 -0.4523
  498MOL0     C67097  11.047   5.982   9.778  0.0044  0.7791  0.2896
  498MOL0     O67098  11.129   6.093   9.770 -0.3753 -0.2104 -0.4113
  498MOL0     C67099  11.235   6.093   9.853  0.4002 -0.5852  0.4725
  498MOL0     C67100  11.221   6.159   9.965 -0.0123  0.2603  0.2070
  498MOL0     C67101  11.330   6.181  10.050 -0.0629 -0.8196 -0.3247
  498MOL0     C67102  11.460   6.139  10.016 -0.6858 -0.0649 -0.2119
  498MOL0     O67103  11.565   6.125  10.098 -0.5347  0.5643 -0.1794
  498MOL0     C67104  11.531   6.097  10.234 -0.6136 -0.0465  0.3989
  498MOL0     C67105  11.628   5.990  10.281 -1.0462  0.0432 -0.0123
  498MOL0     C67106  11.597   5.847  10.221 -0.1723  0.4873 -0.1570
  498MOL0     C67107  11.709   5.744  10.239 -0.3963  0.0970  0.4554
  498MOL0     C67108  11.707   5.710  10.387  0.4667 -0.0900 -0.8018
  498MOL0     C67109  11.808   5.605  10.416  0.2515  0.7849 -0.2934
  498MOL0     C67110  11.780   5.531  10.546 -0.1327  1.0746 -0.6558
  498MOL0     C67111  11.869   5.400  10.551 -1.2632  0.4700 -0.3807
  498MOL0     N67112  11.795   5.281  10.510 -0.4250 -0.0156 -0.5247
  498MOL0     C67113  11.723   5.264  10.393 -0.2766 -0.1060  0.7156
  498MOL0     C67114  11.665   5.148  10.416 -0.0520 -0.3390 -0.5573
  498MOL0     C67115  11.578   5.083  10.311 -0.1999 -0.9270  0.1320
  498MOL0     C67116  11.447   5.050  10.378  0.2278 -0.2987  0.5784
  498MOL0     C67117  11.332   5.016  10.280 -0.8770  0.1113 -0.2717
  498MOL0     C67118  11.356   4.875  10.221 -0.1702  1.0951  0.6588
  498MOL0     O67119  11.255   4.829  10.128 -0.0325 -0.1873  0.0731
  498MOL0     C67120  11.270   4.860   9.990  0.7902 -0.5852 -0.4249
  498MOL0     C67121  11.325   4.770   9.895 -0.3109 -1.1874  0.5277
  498MOL0     C67122  11.330   4.819   9.764 -1.0366  0.2205 -1.0338
  498MOL0     C67123  11.285   4.942   9.720  0.3993 -0.2448 -0.0469
  498MOL0     C67124  11.295   4.978   9.580  0.9548 -1.0199  0.2897
  498MOL0     O67125  11.224   5.091   9.535  0.4815  0.0995  0.5193
  498MOL0     C67126  11.238   5.142   9.405  0.9389  0.8005 -0.8597
  498MOL0     C67127  11.276   5.075   9.289 -0.5955  0.2228 -0.2029
  498MOL0     C67128  11.277   5.152   9.171  0.4319 -0.1152 -0.4390
  498MOL0     C67129  11.250   5.287   9.162 -0.0750 -0.1744 -0.8248
  498MOL0     O67130  11.241   5.365   9.050 -1.0476  0.3808 -0.0716
  498MOL0     C67131  11.266   5.294   8.927  0.2584  0.1767  0.6502
  498MOL0     C67132  11.243   5.389   8.802  0.0099  0.0112 -0.8998
  498MOL0     C67133  11.336   5.513   8.817  0.1667  0.6924 -0.6545
  498MOL0     C67134  11.411   5.545   8.694 -0.0404  0.0477 -0.2975
  498MOL0     C67135  11.442   5.693   8.676 -0.2299  0.1871 -0.1968
  498MOL0     C67136  11.523   5.759   8.785 -1.1240 -0.8259 -0.0143
  498MOL0     C67137  11.546   5.906   8.759  0.4064  0.5498  0.0946
  498MOL0     C67138  11.434   5.998   8.792  0.4780 -0.2047 -0.0233
  498MOL0    Cl67139  11.488   6.166   8.776  0.1423  0.1669 -0.0090
  498MOL0     C67140  11.212   5.345   9.283 -0.8216 -1.5923 -0.9613
  498MOL0     C67141  11.217   5.277   9.408 -0.2444 -1.0987 -0.0778
  498MOL0     O67142  11.348   4.891   9.513  0.2410 -0.5348  0.3207
  498MOL0     C67143  11.222   5.019   9.815 -0.0622  0.3970 -0.5705
  498MOL0     C67144  11.218   4.988   9.951 -0.9229 -0.1030 -0.1311
  498MOL0     N67145  11.704   5.090  10.532 -0.5178 -0.2742 -0.0075
  498MOL0     N67146  11.787   5.169  10.588 -0.1706  0.8860  0.2821
  498MOL0     C67147  11.476   6.071   9.893  0.4388  0.2587  0.7943
  498MOL0     C67148  11.364   6.045   9.812  0.0730 -0.7976  0.9260
  498MOL0     C67149  10.965   5.958   9.668  0.1476  0.1406 -0.2735
  498MOL0     C67150  10.989   6.038   9.550 -0.3150  0.5358 -0.7039
  498MOL0     C67151  10.901   6.008   9.441 -0.1837  0.2367 -0.1889
  498MOL0     C67152  10.809   5.905   9.428  0.9196 -0.5256 -0.6326
  498MOL0     O67153  10.732   5.882   9.309 -0.1367  0.1124  0.4930
  498MOL0     C67154  10.754   5.756   9.249  0.1780 -0.1938 -0.1852
  498MOL0     C67155  10.721   5.763   9.095  0.4345  0.0314  0.9467
  498MOL0     C67156  10.780   5.643   9.021  0.2343 -0.6294  0.4710
  498MOL0     C67157  10.697   5.590   8.909 -0.4434  0.6658 -0.9580
  498MOL0     C67158  10.646   5.702   8.826  0.7143  0.3417 -0.1550
  498MOL0     C67159  10.594   5.777   8.742 -0.5652 -0.9358 -0.1149
  498MOL0     C67160  10.794   5.836   9.546  0.1508 -0.7765 -0.4092
  498MOL0     C67161  10.864   5.862   9.671  1.1371  0.3126  0.1340
  498MOL0     C67162  10.805   5.769   9.781  0.5984 -0.7119 -0.3462
  498MOL0     H67163  11.125   6.197   9.998 -0.8553 -1.7821  0.2349
  498MOL0     H67164  11.305   6.226  10.145  1.7928 -1.6862  0.6263
  498MOL0     H67165  11.546   6.196  10.279  0.7907  0.8817 -1.9336
  498MOL0     H67166  11.428   6.068  10.253 -0.6512 -0.3930 -0.3063
  498MOL0     H67167  11.609   5.996  10.389  0.2373 -2.4540  0.4261
  498MOL0     H67168  11.729   6.024  10.256 -0.2335 -2.3626 -0.2513
  498MOL0     H67169  11.572   5.852  10.115 -3.2789  0.9767  0.4887
  498MOL0     H67170  11.504   5.817  10.271 -0.7981 -0.5781 -1.8756
  498MOL0     H67171  11.684   5.653  10.183 -0.8312  1.2115 -1.2531
  498MOL0     H67172  11.808   5.782  10.212  0.1913 -0.2685  1.9819
  498MOL0     H67173  11.724   5.792  10.457  2.7546 -1.8846  0.8743
  498MOL0     H67174  11.606   5.668  10.396  1.7573 -3.4660 -0.6646
  498MOL0     H67175  11.799   5.537  10.331  1.4663  0.2248 -0.0021
  498MOL0     H67176  11.910   5.644  10.407 -0.2799  1.7735 -2.7587
  498MOL0     H67177  11.675   5.497  10.543  1.4217 -5.1479  0.4010
  498MOL0     H67178  11.810   5.594  10.630  0.8380  1.0368 -0.9642
  498MOL0     H67179  11.963   5.409  10.496  0.6382 -4.3467  1.5613
  498MOL0     H67180  11.906   5.397  10.654 -0.4720 -1.0736 -0.6783
  498MOL0     H67181  11.707   5.329  10.308 -2.1992 -1.2977  0.0847
  498MOL0     H67182  11.565   5.141  10.219 -2.5418  0.1084  1.0254
  498MOL0     H67183  11.620   4.986  10.284 -3.7418 -1.8156 -3.0129
  498MOL0     H67184  11.456   4.979  10.461 -1.8419  0.8593  1.8698
  498MOL0     H67185  11.412   5.146  10.417 -0.2342 -0.4148  0.4629
  498MOL0     H67186  11.323   5.088  10.198 -0.8165 -0.0527 -0.4229
  498MOL0     H67187  11.236   5.008  10.330 -0.3458 -3.3777  0.4419
  498MOL0     H67188  11.375   4.811  10.308 -0.5805  2.8137  2.0791
  498MOL0     H67189  11.447   4.887  10.162  0.0771  2.0206  1.2046
  498MOL0     H67190  11.378   4.678   9.916  1.0414 -0.3000  1.2063
  498MOL0     H67191  11.369   4.748   9.691 -0.3759 -1.6859  1.0794
  498MOL0     H67192  11.297   4.969   9.301  2.8542  0.9198  1.3635
  498MOL0     H67193  11.292   5.109   9.072 -1.1540 -1.3831 -0.1782
  498MOL0     H67194  11.371   5.269   8.913 -0.0381 -1.6104  1.3622
  498MOL0     H67195  11.196   5.211   8.916 -0.7213  0.9410  0.9482
  498MOL0     H67196  11.262   5.336   8.708  5.3140 -0.6582  0.2622
  498MOL0     H67197  11.136   5.409   8.795  0.4323  2.7893 -0.6028
  498MOL0     H67198  11.286   5.605   8.850  2.3494  1.8434 -0.4018
  498MOL0     H67199  11.399   5.494   8.904 -3.8212 -1.1688  2.1735
  498MOL0     H67200  11.340   5.515   8.616  0.0226 -2.8832  0.6551
  498MOL0     H67201  11.503   5.487   8.683  0.1250  0.0602  0.8938
  498MOL0     H67202  11.348   5.747   8.668  0.7829  1.8724 -1.8159
  498MOL0     H67203  11.509   5.700   8.589  2.8217 -0.2764  1.9438
  498MOL0     H67204  11.490   5.746   8.888 -1.1069  1.1345  0.2724
  498MOL0     H67205  11.620   5.708   8.788 -0.3140  0.1319 -3.7357
  498MOL0     H67206  11.561   5.920   8.652 -2.0274  2.1896 -0.1064
  498MOL0     H67207  11.623   5.944   8.828 -0.2662  2.1538  0.0151
  498MOL0     H67208  11.353   5.985   8.720 -0.7042  2.2724  0.7465
  498MOL0     H67209  11.393   5.984   8.892 -0.5002  1.2318 -0.1943
  498MOL0     H67210  11.190   5.452   9.285  1.0348 -1.1871 -0.0836
  498MOL0     H67211  11.209   5.314   9.510  3.0029  0.9228 -0.3874
  498MOL0     H67212  11.175   5.104   9.765 -1.6726 -2.6429 -4.8547
  498MOL0     H67213  11.179   5.062  10.020  0.9969  1.9222 -1.1043
  498MOL0     H67214  11.570   6.036   9.851 -1.1730 -0.3944 -2.5454
  498MOL0     H67215  11.373   6.002   9.713 -0.9306  2.0583 -0.4901
  498MOL0     H67216  11.068   6.112   9.546 -0.0160  0.4867  2.1560
  498MOL0     H67217  10.899   6.067   9.350 -3.9191 -3.8786 -3.1967
  498MOL0     H67218  10.678   5.688   9.288  1.0002  0.0111  1.9226
  498MOL0     H67219  10.857   5.720   9.261  1.4532  2.8602 -1.0178
  498MOL0     H67220  10.778   5.853   9.069  1.9215 -0.9343  0.6958
  498MOL0     H67221  10.614   5.777   9.081  1.1190  4.0452 -2.0454
  498MOL0     H67222  10.767   5.568   9.099 -0.2885  0.2343  1.2413
  498MOL0     H67223  10.887   5.654   9.002  0.3557 -2.6266 -0.1747
  498MOL0     H67224  10.756   5.521   8.848 -0.8983 -0.1677 -0.4921
  498MOL0     H67225  10.614   5.540   8.961  1.6858 -2.8892 -0.6028
  498MOL0     H67226  10.548   5.828   8.660  0.9825 -2.1776 -1.8443
  498MOL0     H67227  10.716   5.761   9.540 -1.8807  1.1316  0.4401
  498MOL0     H67228  10.696   5.754   9.781  0.4936 -0.0589  0.7383
  498MOL0     H67229  10.855   5.671   9.780  0.5699 -0.7946  1.7447
  498MOL0     H67230  10.824   5.817   9.878  0.2527  0.8668 -1.0378
  499MOL0     O67231   7.702   4.471   1.859  0.0955 -0.3456 -0.2888
  499MOL0     C67232   7.681   4.413   1.959  0.6033  1.2465 -0.5346
  499MOL0     O67233   7.608   4.460   2.074  0.3204 -0.0911 -0.4596
  499MOL0     C67234   7.582   4.599   2.079 -0.0818  0.8444  0.6278
  499MOL0     C67235   7.446   4.638   2.081  0.7341  0.1531  0.0567
  499MOL0     C67236   7.411   4.772   2.091 -0.6514  0.1442 -0.4477
  499MOL0     C67237   7.515   4.864   2.093 -0.2305 -0.5458 -0.1471
  499MOL0     O67238   7.496   4.997   2.109  0.0827  0.3443  0.6005
  499MOL0     C67239   7.453   5.057   1.984 -0.3648  0.6616  0.0104
  499MOL0     C67240   7.387   5.196   1.993 -1.3927  0.0036 -0.2288
  499MOL0     C67241   7.497   5.296   2.032 -0.7502 -0.1136 -0.2221
  499MOL0     C67242   7.423   5.433   2.036  0.0704  1.0810  0.1299
  499MOL0     C67243   7.513   5.548   2.046 -0.6860  0.0449  0.3353
  499MOL0     C67244   7.435   5.682   2.057  0.1121  0.4408 -0.5912
  499MOL0     C67245   7.356   5.723   1.925  0.2760  1.2448  0.2638
  499MOL0     C67246   7.248   5.825   1.954  0.3267 -0.1998 -0.1424
  499MOL0     N67247   7.177   5.869   1.823  0.2023  0.6563  0.3093
  499MOL0     C67248   7.236   5.930   1.716  0.0757  0.3844  0.4356
  499MOL0     C67249   7.137   5.927   1.619  0.4309 -0.5788 -0.3112
  499MOL0     C67250   7.153   5.949   1.466  0.5838  0.2705 -0.8841
  499MOL0     C67251   7.063   5.838   1.405 -0.3915 -0.0413  0.0612
  499MOL0     C67252   7.115   5.691   1.424 -0.4037 -1.4095 -1.0058
  499MOL0     C67253   7.256   5.674   1.359 -0.1844  0.6034  0.6054
  499MOL0     O67254   7.242   5.694   1.223  0.3506 -0.3957  0.3334
  499MOL0     C67255   7.327   5.792   1.170 -0.1141  0.3925  1.2778
  499MOL0     C67256   7.457   5.837   1.213 -0.9789  0.0335 -0.0427
  499MOL0     C67257   7.521   5.945   1.153  0.1854 -0.5263 -0.4921
  499MOL0     C67258   7.463   6.013   1.045 -0.4064  0.3420 -1.0818
  499MOL0     C67259   7.522   6.136   0.973  0.2232 -0.0639  0.2726
  499MOL0     O67260   7.467   6.167   0.860 -0.6826  0.1385  0.4514
  499MOL0     C67261   7.519   6.261   0.786  0.2682 -0.5085  0.7267
  499MOL0     C67262   7.654   6.289   0.771  0.2977  0.8904 -0.3062
  499MOL0     C67263   7.694   6.387   0.677 -0.1468 -0.4600 -0.2901
  499MOL0     C67264   7.604   6.464   0.599 -0.2111 -0.3215 -0.7415
  499MOL0     O67265   7.642   6.564   0.499  0.2020  1.3970 -0.1251
  499MOL0     C67266   7.758   6.637   0.525  0.1173  1.3068  0.8329
  499MOL0     C67267   7.726   6.750   0.625 -0.7163 -0.2727 -0.8030
  499MOL0     C67268   7.603   6.827   0.603  0.3853 -0.0520  0.1968
  499MOL0     C67269   7.573   6.937   0.705 -0.0975 -0.1732  0.7499
  499MOL0     C67270   7.437   7.009   0.688  0.4396 -1.4501 -0.1260
  499MOL0     C67271   7.317   6.939   0.748  0.1403  0.1365 -0.2825
  499MOL0     C67272   7.201   7.024   0.730  0.8574 -1.9105 -0.0971
  499MOL0     C67273   7.071   6.947   0.762  0.3073  0.4295 -0.5015
  499MOL0    Cl67274   7.031   6.920   0.933  0.4433  0.5810  0.0609
  499MOL0     C67275   7.468   6.428   0.612  0.3430 -0.8818 -0.4051
  499MOL0     C67276   7.425   6.336   0.716 -1.0762 -0.6955  0.7151
  499MOL0     O67277   7.611   6.203   1.035  0.2195  0.1669  0.1903
  499MOL0     C67278   7.341   5.963   0.991 -0.6591  1.2194 -0.5938
  499MOL0     C67279   7.277   5.854   1.052 -0.3085  0.6349  0.4191
  499MOL0     N67280   7.013   5.894   1.674 -0.0283  0.1669 -0.2748
  499MOL0     N67281   7.045   5.851   1.795  0.0100 -0.4713  0.1283
  499MOL0     C67282   7.646   4.832   2.074 -0.6117  0.2207 -0.4327
  499MOL0     C67283   7.683   4.698   2.071  0.4661  0.7784 -0.9279
  499MOL0     C67284   7.722   4.274   1.961  0.6811 -0.6188 -0.3672
  499MOL0     C67285   7.631   4.178   2.020  0.2795  0.8000 -0.2825
  499MOL0     C67286   7.658   4.040   2.016 -0.1321 -0.2086 -0.4728
  499MOL0     C67287   7.771   3.994   1.945  0.3842 -0.3309 -0.5379
  499MOL0     O67288   7.795   3.855   1.918  0.9851 -0.4785 -0.4783
  499MOL0     C67289   7.813   3.771   2.031  0.7643 -0.6167 -0.6851
  499MOL0     C67290   7.811   3.632   1.992 -0.2803  0.1919  0.4545
  499MOL0     C67291   7.944   3.593   1.918  1.5814 -1.3997  0.1780
  499MOL0     C67292   7.928   3.445   1.883  0.1361 -0.5138  0.1062
  499MOL0     C67293   8.003   3.402   1.766  0.6366  0.3267 -0.0459
  499MOL0     C67294   8.063   3.348   1.673 -0.0660 -0.1549  0.0980
  499MOL0     C67295   7.858   4.080   1.890  0.9634 -1.1648  0.1695
  499MOL0     C67296   7.840   4.229   1.897 -0.5075  0.9010  0.4683
  499MOL0     C67297   7.943   4.317   1.825 -0.3748  0.6390  0.2800
  499MOL0     H67298   7.378   4.555   2.065  2.0135 -1.6932  3.3894
  499MOL0     H67299   7.305   4.795   2.098 -1.0882 -2.1603  1.4650
  499MOL0     H67300   7.539   5.059   1.916  0.3495 -2.9685  0.6048
  499MOL0     H67301   7.379   4.994   1.934 -0.8104  0.0313  1.4125
  499MOL0     H67302   7.306   5.193   2.067 -2.3571  0.9933 -1.2073
  499MOL0     H67303   7.354   5.212   1.890  1.9925  0.5038 -1.3430
  499MOL0     H67304   7.574   5.293   1.954 -1.1791 -1.0450 -0.6182
  499MOL0     H67305   7.533   5.273   2.133  0.3524  0.9019 -0.3535
  499MOL0     H67306   7.366   5.441   1.943  0.7349 -0.1794 -0.3982
  499MOL0     H67307   7.351   5.439   2.118 -0.8543  1.5966 -0.6981
  499MOL0     H67308   7.580   5.542   2.132  2.5019 -1.8961 -2.0929
  499MOL0     H67309   7.571   5.544   1.954 -0.3704  1.8677  0.4134
  499MOL0     H67310   7.363   5.677   2.139 -1.2303 -0.3629 -1.7928
  499MOL0     H67311   7.509   5.763   2.071 -0.9637  1.5386 -1.0571
  499MOL0     H67312   7.310   5.640   1.870 -1.0908  1.5997  0.8384
  499MOL0     H67313   7.436   5.766   1.864  0.1986  2.3896  0.9321
  499MOL0     H67314   7.177   5.769   2.015  0.7797 -0.8633 -0.2149
  499MOL0     H67315   7.281   5.915   2.007 -0.3622  0.1518 -0.2936
  499MOL0     H67316   7.340   5.953   1.694  0.1627 -1.8704 -2.0552
  499MOL0     H67317   7.116   6.044   1.430  2.9362  1.5363 -0.2052
  499MOL0     H67318   7.260   5.943   1.442  0.6915  0.3872 -0.4532
  499MOL0     H67319   6.958   5.836   1.435 -0.4803  0.6545 -0.1736
  499MOL0     H67320   7.067   5.854   1.297  0.2526 -0.8889 -0.0494
  499MOL0     H67321   7.040   5.618   1.392  0.5602 -2.2075 -1.5045
  499MOL0     H67322   7.143   5.670   1.527 -1.1353 -0.2550 -0.5602
  499MOL0     H67323   7.292   5.572   1.373 -1.3987 -0.0512 -0.7632
  499MOL0     H67324   7.317   5.747   1.412  0.3373  2.3769 -2.2131
  499MOL0     H67325   7.508   5.791   1.297  1.8668 -0.1660 -1.7818
  499MOL0     H67326   7.604   5.994   1.204 -0.7657  1.6590 -0.9517
  499MOL0     H67327   7.731   6.228   0.817  0.9064 -1.0898 -3.6463
  499MOL0     H67328   7.801   6.389   0.659  0.1075  2.7287  0.9127
  499MOL0     H67329   7.838   6.571   0.560 -1.2803 -0.3722  1.0258
  499MOL0     H67330   7.797   6.672   0.429  0.2925 -0.7240  0.1225
  499MOL0     H67331   7.733   6.710   0.726  5.3641  0.9868 -0.3312
  499MOL0     H67332   7.810   6.819   0.613 -2.1661  1.4732 -1.4086
  499MOL0     H67333   7.612   6.873   0.504  0.2563  1.1497  0.7239
  499MOL0     H67334   7.533   6.744   0.616  2.5457 -1.8832  0.6925
  499MOL0     H67335   7.651   7.013   0.699  0.8234 -1.0208  1.6289
  499MOL0     H67336   7.579   6.890   0.804  0.3866  1.1971  1.4016
  499MOL0     H67337   7.416   7.034   0.584  1.3139 -0.2216 -0.0346
  499MOL0     H67338   7.453   7.107   0.734 -0.3865 -2.7094  3.0953
  499MOL0     H67339   7.304   6.844   0.696 -0.1259 -0.3337  0.6205
  499MOL0     H67340   7.320   6.913   0.855  0.9385  2.2759  0.2709
  499MOL0     H67341   7.185   7.048   0.624 -2.1807  1.6351  0.9405
  499MOL0     H67342   7.199   7.110   0.798 -0.3921  1.2276 -3.7272
  499MOL0     H67343   6.980   6.991   0.719 -1.3082 -0.8745  1.4132
  499MOL0     H67344   7.081   6.853   0.706 -2.5136  0.8554 -1.9153
  499MOL0     H67345   7.400   6.486   0.550 -0.6210 -1.2593  0.2759
  499MOL0     H67346   7.321   6.307   0.725 -1.8750  1.5467 -0.4942
  499MOL0     H67347   7.294   6.010   0.905 -1.7263  1.2291 -0.0248
  499MOL0     H67348   7.185   5.815   1.012  0.9680  1.3366 -3.6482
  499MOL0     H67349   7.712   4.918   2.087 -0.9349  0.3855  0.1443
  499MOL0     H67350   7.784   4.665   2.049 -0.4873 -1.8836 -1.6624
  499MOL0     H67351   7.541   4.211   2.071 -0.3237 -0.6364 -0.3685
  499MOL0     H67352   7.596   3.962   2.060  1.5587 -1.0283  0.5730
  499MOL0     H67353   7.724   3.791   2.092  0.5228  0.3092 -1.3159
  499MOL0     H67354   7.909   3.792   2.079  1.1362 -0.1836 -1.5847
  499MOL0     H67355   7.731   3.610   1.921 -0.9114  2.4029  0.3842
  499MOL0     H67356   7.797   3.570   2.081  0.6512  0.4047  0.7557
  499MOL0     H67357   8.032   3.588   1.983  0.8696  1.6234  1.5579
  499MOL0     H67358   7.960   3.662   1.835 -2.2392 -0.2613  0.1916
  499MOL0     H67359   7.953   3.393   1.976 -2.1026 -0.2043  0.9389
  499MOL0     H67360   7.824   3.417   1.865  0.0305 -1.3438  1.7907
  499MOL0     H67361   8.087   3.293   1.585 -2.4069 -3.4554  1.3203
  499MOL0     H67362   7.952   4.052   1.844  3.1910  5.1746 -0.0456
  499MOL0     H67363   8.032   4.294   1.883  0.7189  2.0179 -0.7706
  499MOL0     H67364   7.963   4.307   1.717  2.2193 -4.1712  0.9378
  499MOL0     H67365   7.925   4.425   1.833 -3.7135  0.0864  1.8638
  500MOL0     O67366  11.166   2.938   2.779 -1.0955  0.4982 -0.0139
  500MOL0     C67367  11.119   2.872   2.871 -1.1195 -0.2685  0.8195
  500MOL0     O67368  11.059   2.927   2.979  0.8098  0.4628  0.4890
  500MOL0     C67369  11.055   3.064   2.978 -1.0847  0.6127 -0.2192
  500MOL0     C67370  11.174   3.148   2.980  0.8440 -0.9539  0.3648
  500MOL0     C67371  11.156   3.285   2.957  0.2424 -0.5501  0.8219
  500MOL0     C67372  11.023   3.337   2.958 -0.5050  0.0980  0.1191
  500MOL0     O67373  11.014   3.470   2.938 -0.5127 -0.5489  0.4708
  500MOL0     C67374  10.878   3.532   2.905 -0.1791 -0.1244 -0.5513
  500MOL0     C67375  10.901   3.680   2.858  0.7359 -0.1250  1.0697
  500MOL0     C67376  10.768   3.769   2.862  0.4519 -0.7904 -0.1866
  500MOL0     C67377  10.669   3.719   2.748  0.4755  0.1299 -0.0947
  500MOL0     C67378  10.529   3.770   2.779  1.1573  0.1159 -0.3557
  500MOL0     C67379  10.513   3.918   2.729 -0.5157  0.0115 -0.2169
  500MOL0     C67380  10.373   3.969   2.718 -0.5254 -0.4634 -1.0826
  500MOL0     C67381  10.318   3.992   2.858  0.6425 -0.3610 -0.3211
  500MOL0     N67382  10.189   4.082   2.847 -0.8514  0.6812  0.5989
  500MOL0     C67383  10.077   4.036   2.780  0.1200 -0.2392 -0.2400
  500MOL0     C67384   9.988   4.124   2.818  0.8566 -0.4878 -0.0050
  500MOL0     C67385   9.858   4.099   2.755  1.1924 -0.2653  1.0078
  500MOL0     C67386   9.726   4.141   2.823  0.3709  0.3313  0.0458
  500MOL0     C67387   9.608   4.120   2.725  0.1979 -0.3209  1.1450
  500MOL0     C67388   9.477   4.175   2.793  0.3757  1.5214 -0.0872
  500MOL0     O67389   9.443   4.080   2.896 -0.4934 -0.9109  0.2529
  500MOL0     C67390   9.336   4.100   2.970 -0.2440 -0.9995 -0.3424
  500MOL0     C67391   9.344   4.069   3.106  0.2567  0.6586  0.4054
  500MOL0     C67392   9.235   4.079   3.187  0.3504 -0.1845  0.0397
  500MOL0     C67393   9.102   4.122   3.137  0.1322  0.6583  0.2164
  500MOL0     C67394   8.991   4.128   3.224 -0.9682  0.2590  0.1584
  500MOL0     O67395   9.024   4.146   3.359  0.4238  0.8524 -0.2156
  500MOL0     C67396   8.936   4.200   3.449 -0.0988  0.4525 -0.1129
  500MOL0     C67397   8.829   4.285   3.420 -0.1088 -0.7630 -0.3983
  500MOL0     C67398   8.737   4.340   3.504 -0.5940  0.0937 -0.1487
  500MOL0     C67399   8.756   4.304   3.636  0.1169 -0.2189  0.1503
  500MOL0     O67400   8.676   4.344   3.738  0.2795  0.7565  0.8124
  500MOL0     C67401   8.553   4.267   3.720  0.0060 -0.4624  0.1756
  500MOL0     C67402   8.462   4.265   3.841 -0.2373 -0.2073  0.0700
  500MOL0     C67403   8.371   4.385   3.856  0.0011 -0.2273 -0.9414
  500MOL0     C67404   8.291   4.442   3.745 -0.3732  0.8099  0.3266
  500MOL0     C67405   8.169   4.526   3.785  0.6220 -0.5038  0.4456
  500MOL0     C67406   8.199   4.644   3.878 -0.3277  0.4044  0.7823
  500MOL0     C67407   8.066   4.727   3.902 -0.4361  0.7338 -0.6277
  500MOL0     C67408   8.106   4.859   3.961 -0.7468  0.0190  0.0021
  500MOL0    Cl67409   8.215   4.843   4.102  0.0211  0.2898  0.6988
  500MOL0     C67410   8.860   4.224   3.673  1.3404 -0.5506  0.6020
  500MOL0     C67411   8.953   4.169   3.585 -0.1155  0.2668  0.3450
  500MOL0     O67412   8.881   4.118   3.178  0.2219  0.3467  0.4145
  500MOL0     C67413   9.093   4.145   3.003 -0.0809 -0.4849 -0.0628
  500MOL0     C67414   9.215   4.130   2.915  0.1243  0.1516 -0.0773
  500MOL0     N67415  10.038   4.218   2.907 -0.5507  0.0875  0.0192
  500MOL0     N67416  10.158   4.183   2.933  0.7548  0.2438 -0.0744
  500MOL0     C67417  10.917   3.258   2.981 -1.0457  0.1486  0.3649
  500MOL0     C67418  10.924   3.121   2.986 -0.1203  0.0266  0.6198
  500MOL0     C67419  11.105   2.716   2.876 -0.2176 -0.9667  0.8256
  500MOL0     C67420  11.020   2.654   2.970  0.0477  0.6452  0.8034
  500MOL0     C67421  10.994   2.524   2.954  0.8906 -0.0475 -0.2808
  500MOL0     C67422  11.048   2.436   2.855  1.2336 -0.5508 -0.6635
  500MOL0     O67423  10.988   2.313   2.849  0.0649 -0.3261 -0.3051
  500MOL0     C67424  11.021   2.243   2.729 -0.2084  0.4687 -0.0933
  500MOL0     C67425  10.990   2.096   2.755 -0.2511 -0.1041 -1.0008
  500MOL0     C67426  11.020   2.010   2.633  0.4351  0.7218 -0.4718
  500MOL0     C67427  10.916   1.999   2.519  0.2602  1.2197  0.1709
  500MOL0     C67428  10.897   2.118   2.426 -0.2784  0.0567  0.2790
  500MOL0     C67429  10.907   2.210   2.349 -0.6966  0.2389 -0.7407
  500MOL0     C67430  11.135   2.501   2.762  0.5473  0.3016 -0.6964
  500MOL0     C67431  11.167   2.635   2.768  0.5468 -0.5206  0.5295
  500MOL0     C67432  11.250   2.696   2.659 -0.0659 -0.6290 -0.4693
  500MOL0     H67433  11.270   3.098   2.986  3.4617  3.5891  2.0725
  500MOL0     H67434  11.228   3.366   2.960 -0.8105  0.3832  1.7377
  500MOL0     H67435  10.830   3.471   2.829 -0.6080 -2.5772  1.5475
  500MOL0     H67436  10.819   3.546   2.996  1.5944  2.5380  0.3109
  500MOL0     H67437  10.925   3.683   2.752 -3.3814  0.5711 -0.0435
  500MOL0     H67438  10.983   3.723   2.916  0.3432  0.7090  1.0251
  500MOL0     H67439  10.798   3.870   2.836 -1.7090  0.1296  0.6192
  500MOL0     H67440  10.716   3.771   2.959  0.3505 -1.0317 -0.2347
  500MOL0     H67441  10.698   3.751   2.648 -0.3676 -2.9801 -1.4515
  500MOL0     H67442  10.664   3.610   2.753  0.0955  0.1896  1.6154
  500MOL0     H67443  10.453   3.699   2.745  1.9137 -1.1155  0.4106
  500MOL0     H67444  10.508   3.784   2.885 -1.6887  2.5682 -1.1318
  500MOL0     H67445  10.572   3.991   2.786 -1.3053  1.7544 -1.5607
  500MOL0     H67446  10.565   3.936   2.635  0.7962  0.5800  0.5777
  500MOL0     H67447  10.309   3.901   2.661  0.4717 -2.9165  0.5352
  500MOL0     H67448  10.377   4.064   2.665  1.4607  1.1296  1.6894
  500MOL0     H67449  10.300   3.902   2.918 -2.8719 -0.7996 -1.8243
  500MOL0     H67450  10.396   4.049   2.909  1.8981 -3.4240  1.4484
  500MOL0     H67451  10.075   3.948   2.717  0.4391 -0.1905 -0.3242
  500MOL0     H67452   9.850   4.139   2.653 -0.4145 -1.6520  0.5284
  500MOL0     H67453   9.856   3.991   2.740 -0.2911 -0.5294  2.7568
  500MOL0     H67454   9.706   4.075   2.908 -2.6441 -0.0122 -0.7833
  500MOL0     H67455   9.730   4.246   2.850  4.0718  0.6118 -1.0616
  500MOL0     H67456   9.591   4.022   2.679 -3.7916  0.1067  1.3201
  500MOL0     H67457   9.629   4.181   2.637 -1.0583 -0.5640  0.6386
  500MOL0     H67458   9.390   4.171   2.727 -0.0559 -1.8376  0.5094
  500MOL0     H67459   9.486   4.268   2.851  0.5395  1.0047  0.7352
  500MOL0     H67460   9.444   4.049   3.143  2.5438  2.0216 -4.2523
  500MOL0     H67461   9.239   4.053   3.293 -0.6738 -0.7252 -0.0398
  500MOL0     H67462   8.820   4.306   3.314 -0.8232 -1.1688 -0.4254
  500MOL0     H67463   8.656   4.399   3.463 -1.4338 -0.8083  0.1558
  500MOL0     H67464   8.509   4.306   3.628  3.8897  0.0731 -1.6502
  500MOL0     H67465   8.575   4.165   3.689  2.8309 -0.7330  2.6504
  500MOL0     H67466   8.402   4.174   3.845 -2.5905  1.3052  2.6247
  500MOL0     H67467   8.526   4.273   3.929  0.3278  2.7943 -0.5090
  500MOL0     H67468   8.295   4.363   3.932  0.3372 -0.1628 -0.5799
  500MOL0     H67469   8.436   4.467   3.889 -0.3477 -0.7134  1.0870
  500MOL0     H67470   8.259   4.365   3.674 -4.6845  0.8796  1.9260
  500MOL0     H67471   8.363   4.501   3.688  1.4391 -0.6818  0.9570
  500MOL0     H67472   8.102   4.457   3.836 -0.5027 -0.6518 -1.1483
  500MOL0     H67473   8.126   4.559   3.690 -2.3367 -0.2961  1.7417
  500MOL0     H67474   8.226   4.602   3.975 -2.4994 -1.7703  0.5485
  500MOL0     H67475   8.280   4.706   3.838 -2.7502  2.7860 -0.7788
  500MOL0     H67476   8.003   4.665   3.967  3.0224 -1.8572  0.5326
  500MOL0     H67477   8.017   4.734   3.804 -3.3070 -0.4512  0.5796
  500MOL0     H67478   8.178   4.912   3.897  2.0659 -1.1418  1.9802
  500MOL0     H67479   8.021   4.918   3.996 -0.5690 -1.5160  3.4091
  500MOL0     H67480   8.853   4.192   3.776  1.4779  2.0080  1.4870
  500MOL0     H67481   9.029   4.098   3.616  2.7226  2.7234 -0.5027
  500MOL0     H67482   9.002   4.186   2.959  1.5189  3.8328  0.0968
  500MOL0     H67483   9.194   4.148   2.810 -1.1351  4.3890  0.7003
  500MOL0     H67484  10.814   3.291   2.985 -1.0306  0.2121  0.2239
  500MOL0     H67485  10.833   3.067   3.008 -0.2508  0.9230  2.4819
  500MOL0     H67486  10.962   2.701   3.049 -1.4208  0.0608  0.1129
  500MOL0     H67487  10.920   2.478   3.018  1.4375 -0.4237  0.0836
  500MOL0     H67488  11.130   2.240   2.723 -0.0453 -0.5007  2.2111
  500MOL0     H67489  10.969   2.274   2.638 -0.5635  0.3517  0.0684
  500MOL0     H67490  10.888   2.078   2.789 -0.4135 -1.8026 -2.2675
  500MOL0     H67491  11.054   2.052   2.832 -0.9440  0.7621  0.1033
  500MOL0     H67492  11.017   1.911   2.678 -1.0470  1.6073  1.5211
  500MOL0     H67493  11.121   2.030   2.595  1.1394  1.7784  1.7713
  500MOL0     H67494  10.927   1.903   2.467 -0.8476 -0.8077  3.3631
  500MOL0     H67495  10.815   1.978   2.557 -0.5653 -1.7251 -3.0834
  500MOL0     H67496  10.903   2.293   2.281 -1.0609  1.3853  0.6423
  500MOL0     H67497  11.178   2.450   2.676 -0.0633  1.4577 -1.7193
  500MOL0     H67498  11.180   2.762   2.607 -1.0503 -1.8817 -0.7624
  500MOL0     H67499  11.336   2.755   2.693 -0.7606 -1.0103  2.1680
  500MOL0     H67500  11.289   2.617   2.594  1.3121 -2.3721  2.2586
  501MOL0     O67501   9.416   5.488   1.358  0.2480 -0.2237 -0.4244
  501MOL0     C67502   9.338   5.535   1.276  0.7937 -0.4362  0.0846
  501MOL0     O67503   9.212   5.581   1.310  0.1291 -0.5484  0.0436
  501MOL0     C67504   9.169   5.562   1.442  0.2848 -0.7738 -0.4524
  501MOL0     C67505   9.205   5.654   1.546  1.2114  0.4785 -0.2917
  501MOL0     C67506   9.156   5.641   1.671  0.2070 -0.5284 -0.4386
  501MOL0     C67507   9.056   5.544   1.697  0.3407  0.3254 -0.1415
  501MOL0     O67508   8.999   5.528   1.824 -0.6888 -0.2540  0.6939
  501MOL0     C67509   9.058   5.584   1.937 -0.2304 -0.0960 -1.3704
  501MOL0     C67510   8.981   5.537   2.060 -0.6210 -0.0241 -0.2691
  501MOL0     C67511   8.888   5.649   2.115  0.9225  0.6145  0.4591
  501MOL0     C67512   8.787   5.576   2.210 -0.6715  0.1568  0.0398
  501MOL0     C67513   8.672   5.670   2.242  0.2272  0.2305  0.2049
  501MOL0     C67514   8.727   5.801   2.294 -0.0114  0.4338 -0.0334
  501MOL0     C67515   8.608   5.900   2.319  0.4866  0.8136  1.0707
  501MOL0     C67516   8.651   6.033   2.366 -0.8894  0.3144 -0.6781
  501MOL0     N67517   8.540   6.123   2.377  0.5860  0.3741  0.0199
  501MOL0     C67518   8.448   6.105   2.482  0.6506  0.3737  0.1132
  501MOL0     C67519   8.356   6.194   2.457  0.2136  0.1682  0.0896
  501MOL0     C67520   8.224   6.226   2.532 -0.8605  0.4645  0.0697
  501MOL0     C67521   8.249   6.305   2.655  0.3447 -0.8116 -0.2503
  501MOL0     C67522   8.118   6.347   2.731  0.6170 -0.4016  0.2212
  501MOL0     C67523   8.098   6.251   2.849  0.2349 -0.4350 -0.4468
  501MOL0     O67524   7.977   6.269   2.926 -0.4319 -0.1330  0.4668
  501MOL0     C67525   7.986   6.334   3.048 -0.7762 -0.8747 -0.8201
  501MOL0     C67526   8.095   6.413   3.098  0.6980  0.0150  0.7386
  501MOL0     C67527   8.091   6.475   3.214 -0.4012 -0.2657  0.6319
  501MOL0     C67528   7.982   6.462   3.304 -1.1477 -0.1094  0.0187
  501MOL0     C67529   7.982   6.530   3.440 -0.8906 -0.4026  0.0959
  501MOL0     O67530   7.864   6.522   3.514  0.2722 -0.5170  0.5354
  501MOL0     C67531   7.821   6.625   3.594  0.0786  0.4463 -0.7549
  501MOL0     C67532   7.692   6.612   3.639 -0.1839 -0.8093 -0.1780
  501MOL0     C67533   7.633   6.705   3.723 -0.4071  0.3338 -0.9836
  501MOL0     C67534   7.710   6.798   3.790  0.4125 -1.1364 -0.2451
  501MOL0     O67535   7.649   6.882   3.889 -1.3199 -0.0585 -0.4493
  501MOL0     C67536   7.702   7.013   3.894 -0.9496 -0.7554 -0.2586
  501MOL0     C67537   7.656   7.104   4.009  0.4491  0.7051  0.5523
  501MOL0     C67538   7.692   7.056   4.144  0.4132 -0.9039  1.5843
  501MOL0     C67539   7.636   7.132   4.264 -0.2579  0.7207  0.6332
  501MOL0     C67540   7.499   7.083   4.316 -0.0502  0.4076  0.6831
  501MOL0     C67541   7.455   7.142   4.451  0.4094 -0.8373 -0.5973
  501MOL0     C67542   7.315   7.116   4.485  0.0063 -0.5162  0.2981
  501MOL0     C67543   7.294   7.144   4.633  0.4466 -0.0200  0.1187
  501MOL0    Cl67544   7.109   7.138   4.656 -0.0136  0.2187  0.0291
  501MOL0     C67545   7.843   6.808   3.752  0.7663  0.5183 -0.0736
  501MOL0     C67546   7.898   6.723   3.655 -0.3764 -0.1063  0.2858
  501MOL0     O67547   8.086   6.594   3.467 -0.3916 -0.0049  0.3075
  501MOL0     C67548   7.879   6.395   3.256 -0.0277  0.5233  0.0917
  501MOL0     C67549   7.873   6.324   3.130  0.2009  0.3416 -0.0672
  501MOL0     N67550   8.389   6.258   2.335 -0.0436 -0.0070 -0.4916
  501MOL0     N67551   8.506   6.222   2.285  0.5576 -0.7155  0.4812
  501MOL0     C67552   9.000   5.464   1.591  0.3885 -0.1460  1.0657
  501MOL0     C67553   9.062   5.475   1.464  0.7728  0.2444  0.0663
  501MOL0     C67554   9.374   5.537   1.134  0.2970  0.2267  0.0620
  501MOL0     C67555   9.500   5.585   1.098 -0.5384 -0.0356  0.2940
  501MOL0     C67556   9.544   5.608   0.961  0.2951  0.3154 -0.1412
  501MOL0     C67557   9.450   5.591   0.861 -0.5414  0.1624 -0.3235
  501MOL0     O67558   9.494   5.605   0.729  0.7645 -0.2032 -0.7662
  501MOL0     C67559   9.554   5.731   0.691 -0.1036 -0.5883 -0.2736
  501MOL0     C67560   9.456   5.844   0.684 -0.3717  0.4267  0.0795
  501MOL0     C67561   9.339   5.815   0.592  0.8560  0.0882  0.1328
  501MOL0     C67562   9.256   5.948   0.568 -0.1605 -1.4502  0.7352
  501MOL0     C67563   9.212   6.021   0.693  0.5227  0.5109 -0.7317
  501MOL0     C67564   9.175   6.073   0.790 -0.2345 -0.6101 -0.1365
  501MOL0     C67565   9.333   5.534   0.891 -0.1627 -0.5069  0.5196
  501MOL0     C67566   9.285   5.516   1.017 -0.0039 -0.9123 -0.4267
  501MOL0     C67567   9.143   5.476   1.033  0.3657  0.6807 -0.3028
  501MOL0     H67568   9.274   5.735   1.527  0.5436  1.3753  0.9194
  501MOL0     H67569   9.195   5.697   1.755 -2.4620 -2.3656  2.2372
  501MOL0     H67570   9.162   5.552   1.951  0.5417  2.9326  1.0624
  501MOL0     H67571   9.062   5.694   1.941  3.1839 -0.0623  3.6106
  501MOL0     H67572   9.050   5.496   2.135  0.1405 -0.7082 -1.3187
  501MOL0     H67573   8.917   5.463   2.011  0.6942 -2.6260  1.6695
  501MOL0     H67574   8.849   5.705   2.029 -0.0701  0.5647  0.8627
  501MOL0     H67575   8.937   5.728   2.173  1.1231 -0.6394  2.0387
  501MOL0     H67576   8.755   5.480   2.170 -0.1909 -0.7655  1.7663
  501MOL0     H67577   8.833   5.541   2.303 -3.5463 -1.4211  0.9812
  501MOL0     H67578   8.615   5.689   2.150  0.1927  0.1340  0.2064
  501MOL0     H67579   8.596   5.623   2.305 -0.7224  1.3288 -0.0834
  501MOL0     H67580   8.771   5.781   2.392  1.6084 -0.8950 -0.9911
  501MOL0     H67581   8.798   5.854   2.230  1.1995 -0.5792  0.4455
  501MOL0     H67582   8.545   5.849   2.393  1.8507 -2.3770  0.2216
  501MOL0     H67583   8.549   5.915   2.228  3.1238  2.9599 -0.4228
  501MOL0     H67584   8.701   6.022   2.462 -0.9055  0.0588 -0.6985
  501MOL0     H67585   8.733   6.058   2.297 -0.0320 -2.4500 -0.8103
  501MOL0     H67586   8.443   6.033   2.564  1.2329  0.2452  0.0404
  501MOL0     H67587   8.147   6.277   2.473 -2.6818 -2.4277 -0.2615
  501MOL0     H67588   8.172   6.136   2.567 -2.5478  2.4845  3.1493
  501MOL0     H67589   8.313   6.248   2.723  0.7149  2.2008  2.1780
  501MOL0     H67590   8.313   6.386   2.621 -2.3493  0.9420 -1.5320
  501MOL0     H67591   8.025   6.353   2.673 -0.7128 -0.8141  2.2216
  501MOL0     H67592   8.122   6.442   2.785 -1.8819 -0.8934  1.4332
  501MOL0     H67593   8.183   6.234   2.916 -0.5675  0.9872  0.9998
  501MOL0     H67594   8.088   6.147   2.814 -3.5600  0.1307 -1.4328
  501MOL0     H67595   8.177   6.422   3.027 -0.8750 -4.4270 -2.0675
  501MOL0     H67596   8.176   6.535   3.246 -1.4529  0.0931  2.9414
  501MOL0     H67597   7.621   6.535   3.610 -2.5496  0.6128  1.4491
  501MOL0     H67598   7.526   6.696   3.741 -0.9649  1.1309 -3.4709
  501MOL0     H67599   7.811   7.013   3.882 -0.7574  0.4155  1.2620
  501MOL0     H67600   7.663   7.058   3.802 -0.1268 -1.3792 -0.9310
  501MOL0     H67601   7.693   7.206   3.996 -1.2478  1.1669 -1.0761
  501MOL0     H67602   7.548   7.121   4.003  0.4975  0.4911 -1.8604
  501MOL0     H67603   7.669   6.950   4.159 -2.6095 -0.7304 -1.0098
  501MOL0     H67604   7.801   7.058   4.150  0.4305 -0.3623  1.1087
  501MOL0     H67605   7.637   7.238   4.237 -0.3354  0.3616 -0.8705
  501MOL0     H67606   7.710   7.109   4.342 -0.1396 -2.4221 -0.2574
  501MOL0     H67607   7.499   6.974   4.327 -3.4968  0.3952  1.5627
  501MOL0     H67608   7.424   7.117   4.245  0.9435  1.1559 -0.0316
  501MOL0     H67609   7.513   7.107   4.537  2.5566  3.7784  0.1530
  501MOL0     H67610   7.462   7.251   4.445  1.3094 -0.9558 -2.1245
  501MOL0     H67611   7.289   7.010   4.477 -1.0445 -0.1062 -3.6810
  501MOL0     H67612   7.243   7.177   4.430 -1.9594 -0.5885  2.6077
  501MOL0     H67613   7.339   7.072   4.702 -2.0923 -2.1453 -0.2534
  501MOL0     H67614   7.315   7.248   4.658  2.4653 -0.7546  1.7187
  501MOL0     H67615   7.917   6.881   3.783 -0.9940  1.6738  1.6382
  501MOL0     H67616   8.002   6.741   3.627  0.1640  0.5463  2.4973
  501MOL0     H67617   7.791   6.400   3.319  1.1270 -1.4621  2.0101
  501MOL0     H67618   7.791   6.267   3.087 -1.8914  2.2362  1.1941
  501MOL0     H67619   8.911   5.404   1.610  1.4201 -2.0975  0.1275
  501MOL0     H67620   9.030   5.445   1.365  1.7742  0.3608 -0.2956
  501MOL0     H67621   9.575   5.582   1.176 -0.8629 -3.1948  0.6535
  501MOL0     H67622   9.646   5.630   0.933  0.1567 -0.7860 -1.6017
  501MOL0     H67623   9.607   5.709   0.598  1.5147 -2.4204  0.9996
  501MOL0     H67624   9.620   5.763   0.773 -0.0682 -4.0644  1.2140
  501MOL0     H67625   9.514   5.932   0.656  1.7893  0.0222  2.8702
  501MOL0     H67626   9.418   5.881   0.779 -1.7552  1.1770 -0.7459
  501MOL0     H67627   9.269   5.745   0.637  0.3440  0.0455 -0.7046
  501MOL0     H67628   9.360   5.758   0.501  0.0659  2.5631 -1.7391
  501MOL0     H67629   9.311   6.022   0.510  1.2426 -2.4815  0.7112
  501MOL0     H67630   9.159   5.931   0.518 -0.3326 -2.3199  1.3492
  501MOL0     H67631   9.136   6.114   0.881  1.9815  0.9567  0.1837
  501MOL0     H67632   9.266   5.516   0.807 -0.9144  3.1175  0.1894
  501MOL0     H67633   9.133   5.393   1.104  0.5884  0.9182  0.0054
  501MOL0     H67634   9.091   5.562   1.076 -0.2770 -1.1736  2.9600
  501MOL0     H67635   9.092   5.442   0.942 -1.0829 -4.2621  2.0140
  502MOL0     O67636   2.373   0.140  10.682 -0.6504  0.1279 -0.4983
  502MOL0     C67637   2.275   0.201  10.730  0.1107  0.0088 -0.2504
  502MOL0     O67638   2.285   0.307  10.826  0.1441  0.0539 -0.2290
  502MOL0     C67639   2.408   0.344  10.892  0.0459  0.0737 -0.6005
  502MOL0     C67640   2.396   0.430  10.998 -0.2513 -0.1445  0.1427
  502MOL0     C67641   2.492   0.470  11.088 -0.9418 -0.1154  0.2983
  502MOL0     C67642   2.628   0.431  11.050 -0.0871 -0.3596 -0.4266
  502MOL0     O67643   2.741   0.457  11.133  0.3231  0.6463  0.7361
  502MOL0     C67644   2.745   0.568  11.224 -0.4913  0.4242  0.2330
  502MOL0     C67645   2.877   0.573  11.286  0.2172 -0.0683  0.1912
  502MOL0     C67646   2.889   0.699  11.377 -0.4663 -0.6098 -0.1721
  502MOL0     C67647   3.004   0.655  11.467  0.4433  0.7564  0.2350
  502MOL0     C67648   3.045   0.765  11.561  0.3192 -0.1318  0.5297
  502MOL0     C67649   3.127   0.716  11.681 -0.2551  0.7857 -1.1000
  502MOL0     C67650   3.202   0.833  11.736 -0.0489 -0.0786 -0.2624
  502MOL0     C67651   3.287   0.772  11.846  0.2354 -0.2798 -0.6394
  502MOL0     N67652   3.371   0.875  11.918 -0.3539  0.2479  0.5801
  502MOL0     C67653   3.412   0.993  11.868  0.7356 -0.5878  0.6250
  502MOL0     C67654   3.525   1.015  11.936  0.1304 -0.3347  0.0999
  502MOL0     C67655   3.615   1.142  11.922 -0.4489  0.1999  0.1902
  502MOL0     C67656   3.733   1.117  11.829  0.6538 -0.0534 -0.5170
  502MOL0     C67657   3.843   1.228  11.835  0.3357 -0.7855  0.6271
  502MOL0     C67658   3.957   1.197  11.736  0.5861 -0.0220  1.1594
  502MOL0     O67659   4.032   1.088  11.792  0.1706 -0.0729 -0.2880
  502MOL0     C67660   4.088   0.988  11.720 -0.4245  0.4868  0.4902
  502MOL0     C67661   4.059   0.857  11.741  0.5328  0.7927  0.0148
  502MOL0     C67662   4.139   0.747  11.689  0.8610 -1.2589 -0.1255
  502MOL0     C67663   4.235   0.784  11.600  0.3289  0.2758 -0.4640
  502MOL0     C67664   4.322   0.695  11.539 -0.6028 -0.3716 -0.2029
  502MOL0     O67665   4.429   0.740  11.456  0.4534 -0.0018 -0.0563
  502MOL0     C67666   4.499   0.641  11.389 -0.6931  0.1043  0.0568
  502MOL0     C67667   4.636   0.624  11.418  0.2493 -0.2158  0.4649
  502MOL0     C67668   4.711   0.521  11.350  0.1094  0.5931  0.0917
  502MOL0     C67669   4.654   0.437  11.260  0.2703  0.0815 -0.6280
  502MOL0     O67670   4.729   0.349  11.195 -1.0824  0.4114  0.6623
  502MOL0     C67671   4.669   0.282  11.084 -0.3158  0.8703 -0.7796
  502MOL0     C67672   4.766   0.197  11.010 -0.4467 -0.2120  0.0670
  502MOL0     C67673   4.860   0.283  10.938  0.6144  0.1672  0.8561
  502MOL0     C67674   4.935   0.196  10.827  0.8206 -0.1810  0.2441
  502MOL0     C67675   4.987   0.277  10.708  0.1426 -0.7781  0.3082
  502MOL0     C67676   5.126   0.337  10.723 -0.6868  0.1931 -0.0848
  502MOL0     C67677   5.175   0.413  10.603 -0.4013  0.4285 -0.1786
  502MOL0     C67678   5.290   0.506  10.630 -0.2414  0.6120 -0.3860
  502MOL0    Cl67679   5.374   0.546  10.474  0.0070 -0.4480 -0.2717
  502MOL0     C67680   4.518   0.445  11.241  0.2518  0.3317 -0.4349
  502MOL0     C67681   4.441   0.548  11.298  0.1144  0.0876 -0.3989
  502MOL0     O67682   4.300   0.576  11.571  0.1884 -0.3956  0.4330
  502MOL0     C67683   4.257   0.912  11.566 -0.7115 -0.2271 -1.1173
  502MOL0     C67684   4.181   1.018  11.623  0.3726  0.4481 -0.9175
  502MOL0     N67685   3.544   0.926  12.037  0.6975  0.3735 -1.0788
  502MOL0     N67686   3.447   0.835  12.029 -0.3319 -0.1274 -0.1068
  502MOL0     C67687   2.646   0.359  10.926 -1.6481 -0.1889  0.0991
  502MOL0     C67688   2.543   0.305  10.855  0.1959  0.4545 -0.1225
  502MOL0     C67689   2.138   0.163  10.667 -0.3354  0.0470 -0.1840
  502MOL0     C67690   2.023   0.234  10.707  0.1059  0.6660 -0.4174
  502MOL0     C67691   1.895   0.207  10.655  0.3523 -0.6779  0.1130
  502MOL0     C67692   1.877   0.109  10.569 -0.3239  0.0591  0.0052
  502MOL0     O67693   1.758   0.071  10.512  1.1185  0.2172 -0.1028
  502MOL0     C67694   1.634   0.126  10.568 -0.1353  0.0909  0.0052
  502MOL0     C67695   1.531   0.072  10.473 -0.8634 -0.0808 -0.1362
  502MOL0     C67696   1.394   0.128  10.508 -0.4620  0.2655 -0.6331
  502MOL0     C67697   1.293   0.138  10.385  0.3219 -0.6108 -0.0675
  502MOL0     C67698   1.162   0.171  10.447  0.4171 -0.0499  0.6385
  502MOL0     C67699   1.069   0.195  10.511  0.6768  0.0706  0.0728
  502MOL0     C67700   1.984   0.022  10.542 -0.2059 -0.2445  0.3599
  502MOL0     C67701   2.119   0.053  10.582  0.9762 -0.0297  0.1425
  502MOL0     C67702   2.220  -0.025  10.518 -0.2043  0.1086 -0.4420
  502MOL0     H67703   2.292   0.457  11.012 -1.0242 -1.1494 -2.8471
  502MOL0     H67704   2.461   0.523  11.178  1.1956  0.7075  0.6222
  502MOL0     H67705   2.732   0.660  11.166 -0.3542 -1.0823 -2.3050
  502MOL0     H67706   2.666   0.569  11.300  1.4011  3.0929  2.3559
  502MOL0     H67707   2.952   0.576  11.206  0.4417 -1.0249  0.3423
  502MOL0     H67708   2.887   0.482  11.347  0.3732  1.0811  1.9519
  502MOL0     H67709   2.795   0.729  11.423 -1.5095 -0.5454 -2.2240
  502MOL0     H67710   2.917   0.791  11.324  1.8058 -0.2881  1.4237
  502MOL0     H67711   2.963   0.572  11.525  0.2212  0.3187 -0.5265
  502MOL0     H67712   3.088   0.622  11.404  0.7186  1.6533  0.1166
  502MOL0     H67713   3.118   0.813  11.495  1.1196 -2.8303 -0.6847
  502MOL0     H67714   2.964   0.834  11.585  0.5147  0.5653 -0.7228
  502MOL0     H67715   3.052   0.667  11.744 -1.9316  1.3738 -2.5581
  502MOL0     H67716   3.206   0.656  11.635  3.2014  4.5538 -0.6115
  502MOL0     H67717   3.139   0.913  11.777 -0.2707  0.4824 -1.6369
  502MOL0     H67718   3.266   0.880  11.659  2.2232 -1.0572  0.9389
  502MOL0     H67719   3.224   0.736  11.928  0.0609 -0.3610 -0.8080
  502MOL0     H67720   3.353   0.688  11.820  4.5516  2.8145 -0.8229
  502MOL0     H67721   3.363   1.049  11.789 -0.7728 -3.5304 -0.6679
  502MOL0     H67722   3.563   1.230  11.882 -1.2308 -1.3343 -2.4449
  502MOL0     H67723   3.660   1.167  12.018  0.0287  0.1641 -0.0244
  502MOL0     H67724   3.790   1.027  11.852 -0.8829 -0.7830  0.5962
  502MOL0     H67725   3.693   1.107  11.728  1.4557 -0.1138 -0.8313
  502MOL0     H67726   3.876   1.238  11.939 -4.1610  0.1832  2.1783
  502MOL0     H67727   3.801   1.325  11.807  2.9462  0.9008  2.0846
  502MOL0     H67728   4.014   1.290  11.729  1.7324 -0.6198  2.1463
  502MOL0     H67729   3.926   1.155  11.639 -1.6287  1.5757  1.1115
  502MOL0     H67730   3.978   0.835  11.810  0.0395 -2.3042 -1.3843
  502MOL0     H67731   4.116   0.648  11.726 -0.7703 -0.3643  1.3828
  502MOL0     H67732   4.700   0.701  11.460  1.4003 -1.3049  0.7920
  502MOL0     H67733   4.818   0.509  11.362  0.4489  0.5654 -2.4145
  502MOL0     H67734   4.600   0.207  11.123 -1.3424  1.7047 -0.9179
  502MOL0     H67735   4.616   0.349  11.015 -1.3207  3.6866  2.4876
  502MOL0     H67736   4.829   0.130  11.069  1.1910  0.8150 -0.4486
  502MOL0     H67737   4.714   0.125  10.946  2.9356 -1.8240 -1.0978
  502MOL0     H67738   4.809   0.371  10.898 -0.5620 -0.8822 -0.0411
  502MOL0     H67739   4.933   0.326  11.007  1.3545 -1.5520  1.2075
  502MOL0     H67740   4.858   0.131  10.786  0.7034  0.8864 -1.3374
  502MOL0     H67741   5.015   0.134  10.869  0.8233 -2.2451 -2.5040
  502MOL0     H67742   4.926   0.366  10.691  1.7347 -0.0148 -1.8297
  502MOL0     H67743   4.975   0.216  10.618 -1.6936  1.0825 -0.8020
  502MOL0     H67744   5.128   0.398  10.814  0.2621 -0.3797  0.3031
  502MOL0     H67745   5.199   0.257  10.742  0.3044  0.7327 -1.4461
  502MOL0     H67746   5.093   0.466  10.554  0.0908 -0.7656 -2.4759
  502MOL0     H67747   5.209   0.334  10.534  0.2838 -1.9473  2.6486
  502MOL0     H67748   5.250   0.599  10.671 -4.4475 -0.4694 -1.4845
  502MOL0     H67749   5.357   0.464  10.705  0.6227 -1.8161 -2.3922
  502MOL0     H67750   4.469   0.393  11.160 -0.4728 -0.8891  0.7294
  502MOL0     H67751   4.335   0.558  11.278 -0.3361  1.5592  2.1985
  502MOL0     H67752   4.334   0.950  11.501 -1.4721  3.0157 -0.3161
  502MOL0     H67753   4.177   1.124  11.601 -4.0344  0.2713 -1.8775
  502MOL0     H67754   2.749   0.335  10.901 -1.1624 -0.7012  2.3161
  502MOL0     H67755   2.556   0.231  10.776  0.0084 -1.4854  1.5816
  502MOL0     H67756   2.045   0.312  10.779  5.0496 -0.5484 -0.2587
  502MOL0     H67757   1.814   0.274  10.680  2.2712  1.9846 -0.3893
  502MOL0     H67758   1.636   0.235  10.563  1.5714  0.0757 -0.1135
  502MOL0     H67759   1.613   0.088  10.669  0.4155  1.0406  0.4829
  502MOL0     H67760   1.530  -0.038  10.474 -2.1132 -0.1073 -1.2485
  502MOL0     H67761   1.548   0.096  10.368 -2.3814 -1.1422 -0.6641
  502MOL0     H67762   1.396   0.224  10.561 -1.2387 -0.4317  0.7245
  502MOL0     H67763   1.350   0.056  10.577 -2.1050 -0.3228 -2.2105
  502MOL0     H67764   1.324   0.216  10.315 -0.0763  0.0288  0.4604
  502MOL0     H67765   1.293   0.039  10.338 -1.0878 -0.3772 -0.6170
  502MOL0     H67766   0.986   0.186  10.579  0.5163 -0.8756 -0.2336
  502MOL0     H67767   1.963  -0.062  10.477  1.8426  1.5362 -2.8965
  502MOL0     H67768   2.295   0.025  10.457 -1.4155  1.0387 -1.2184
  502MOL0     H67769   2.265  -0.086  10.597 -1.0036  2.2929  1.8253
  502MOL0     H67770   2.164  -0.086  10.446  1.2343 -2.6144  0.6082
  503MOL0     O67771   1.640   0.739   1.863  0.0005  0.1948  0.9228
  503MOL0     C67772   1.706   0.791   1.949  0.7979  0.9086 -0.3930
  503MOL0     O67773   1.836   0.805   1.943 -0.1871  0.4744  0.7510
  503MOL0     C67774   1.925   0.752   1.841 -0.0850  0.8654  0.3912
  503MOL0     C67775   2.053   0.804   1.833  0.5621  0.6908 -0.0181
  503MOL0     C67776   2.150   0.765   1.737  0.4604 -0.0998 -0.5057
  503MOL0     C67777   2.121   0.661   1.642  0.1553 -0.0500 -0.0667
  503MOL0     O67778   2.211   0.623   1.545  0.0680  0.2314  0.0934
  503MOL0     C67779   2.203   0.515   1.447  0.4036 -0.2224 -0.0022
  503MOL0     C67780   2.199   0.375   1.514  0.6393  1.3132  0.3868
  503MOL0     C67781   2.334   0.326   1.557  0.5067 -1.3957 -0.9891
  503MOL0     C67782   2.403   0.250   1.449 -0.1201  0.7381  0.1153
  503MOL0     C67783   2.558   0.245   1.456  0.0815 -1.0868  0.7167
  503MOL0     C67784   2.619   0.195   1.574 -1.1353 -0.1143  0.5620
  503MOL0     C67785   2.773   0.248   1.586  0.2294 -0.3479  0.4032
  503MOL0     C67786   2.785   0.394   1.623  0.2848  0.0676  0.2524
  503MOL0     N67787   2.749   0.432   1.763  0.2500 -0.7296  0.7876
  503MOL0     C67788   2.760   0.555   1.818  0.1175  0.1452 -0.3111
  503MOL0     C67789   2.726   0.536   1.944  0.0312 -0.4885 -0.7747
  503MOL0     C67790   2.730   0.648   2.051  0.1103 -0.2809 -0.5813
  503MOL0     C67791   2.683   0.787   2.023  0.7620 -0.4896  0.4384
  503MOL0     C67792   2.531   0.790   2.001  0.2093 -0.1649 -0.3689
  503MOL0     C67793   2.446   0.720   2.110  0.1114  0.4279 -0.4254
  503MOL0     O67794   2.316   0.786   2.091 -0.0303 -1.0145 -0.3937
  503MOL0     C67795   2.226   0.794   2.199 -0.7329  0.0636  0.0518
  503MOL0     C67796   2.231   0.700   2.301 -0.0612 -0.9509  0.8820
  503MOL0     C67797   2.155   0.723   2.415  0.3495 -0.3795  0.2590
  503MOL0     C67798   2.064   0.825   2.418 -0.2897  0.6511 -0.4441
  503MOL0     C67799   1.965   0.838   2.536  0.2865 -0.2251 -0.6313
  503MOL0     O67800   1.962   0.750   2.645 -0.0842  0.2211  0.0059
  503MOL0     C67801   1.881   0.781   2.751  0.3927 -0.0093 -0.2120
  503MOL0     C67802   1.895   0.896   2.823  0.9145 -0.5299 -0.0341
  503MOL0     C67803   1.832   0.902   2.943  0.0060  0.2746 -0.1758
  503MOL0     C67804   1.729   0.802   2.971  0.1278 -0.1675  0.4657
  503MOL0     O67805   1.629   0.827   3.061 -0.6672  0.2120 -0.1431
  503MOL0     C67806   1.652   0.818   3.200 -0.3035  0.2731  0.9269
  503MOL0     C67807   1.518   0.829   3.275 -0.8739 -0.3741  0.0070
  503MOL0     C67808   1.470   0.980   3.286  0.3761  0.0444 -0.6086
  503MOL0     C67809   1.415   1.035   3.161  0.1909 -0.1205  0.2510
  503MOL0     C67810   1.451   1.175   3.125 -0.7980 -1.0157  0.1935
  503MOL0     C67811   1.597   1.196   3.083  0.2144  0.4707 -0.3848
  503MOL0     C67812   1.619   1.330   3.029 -0.2237 -0.5254  0.6244
  503MOL0     C67813   1.647   1.438   3.134 -0.2610 -0.1643  0.1173
  503MOL0    Cl67814   1.813   1.515   3.102 -0.5711  0.1177 -0.2596
  503MOL0     C67815   1.720   0.690   2.894  1.0546 -0.1485  0.3546
  503MOL0     C67816   1.783   0.685   2.781  0.1102  1.5885  0.5234
  503MOL0     O67817   1.883   0.930   2.521 -0.3344 -0.3056 -0.4517
  503MOL0     C67818   2.041   0.907   2.303 -0.1894  0.3390 -0.7974
  503MOL0     C67819   2.132   0.895   2.198  0.2495  0.3856  0.2435
  503MOL0     N67820   2.696   0.408   1.964 -0.5652 -0.0779 -0.7838
  503MOL0     N67821   2.707   0.346   1.853  0.1917  0.1049  0.0849
  503MOL0     C67822   1.989   0.611   1.649  0.9348  0.4954  0.3573
  503MOL0     C67823   1.890   0.648   1.751 -0.4108 -0.3335 -0.3580
  503MOL0     C67824   1.643   0.839   2.074 -0.8295  0.2409 -0.0740
  503MOL0     C67825   1.718   0.940   2.147  0.2373  0.7891  0.0678
  503MOL0     C67826   1.658   0.994   2.261 -0.1664 -0.3941 -0.0078
  503MOL0     C67827   1.540   0.958   2.314  0.1157  0.0550 -0.2007
  503MOL0     O67828   1.475   1.002   2.431  0.3764 -0.1615  0.1524
  503MOL0     C67829   1.554   0.994   2.550 -0.3348 -0.0853 -0.1579
  503MOL0     C67830   1.458   0.991   2.670 -0.2030 -0.1429  0.6871
  503MOL0     C67831   1.394   0.844   2.674  0.4697  0.5049  0.0008
  503MOL0     C67832   1.339   0.816   2.815  0.6155 -0.6763 -0.1597
  503MOL0     C67833   1.302   0.679   2.834 -0.7135 -0.0474 -0.7606
  503MOL0     C67834   1.279   0.562   2.840 -0.1778 -0.4054  0.9342
  503MOL0     C67835   1.469   0.857   2.249  0.2461 -0.7031 -1.0637
  503MOL0     C67836   1.520   0.797   2.134  0.2256 -0.0403 -0.5324
  503MOL0     C67837   1.451   0.668   2.076 -0.1315 -0.8597 -0.2426
  503MOL0     H67838   2.080   0.886   1.899 -2.6614 -0.6577  3.3098
  503MOL0     H67839   2.238   0.827   1.719  1.5645 -1.8898 -1.6778
  503MOL0     H67840   2.115   0.528   1.383 -0.6426  2.1986  1.7608
  503MOL0     H67841   2.287   0.518   1.377 -0.7407  3.3377 -1.4389
  503MOL0     H67842   2.142   0.301   1.458 -0.4070  0.3450  2.5879
  503MOL0     H67843   2.143   0.393   1.607 -0.8762  0.1285 -0.2458
  503MOL0     H67844   2.317   0.273   1.651  0.6786 -1.4992 -1.0166
  503MOL0     H67845   2.380   0.422   1.580  0.1016 -1.2055 -0.9661
  503MOL0     H67846   2.360   0.151   1.467  0.3144  0.5515  0.1316
  503MOL0     H67847   2.374   0.277   1.348 -2.0412 -3.4724 -0.7060
  503MOL0     H67848   2.606   0.186   1.378  2.2062 -0.7738  1.6996
  503MOL0     H67849   2.591   0.347   1.432 -3.5862  0.4328  1.4005
  503MOL0     H67850   2.564   0.235   1.660 -0.6994  1.0780  0.3161
  503MOL0     H67851   2.626   0.087   1.582  1.1012  0.0137  1.1120
  503MOL0     H67852   2.839   0.223   1.503 -1.4703 -0.4119 -0.9904
  503MOL0     H67853   2.825   0.184   1.657  0.8810 -1.0567 -0.6809
  503MOL0     H67854   2.892   0.419   1.622  0.6014 -0.9205  2.3734
  503MOL0     H67855   2.720   0.453   1.559 -1.7833 -2.9880 -0.6801
  503MOL0     H67856   2.777   0.651   1.769  0.3841  0.0763 -0.3547
  503MOL0     H67857   2.696   0.623   2.152  1.3756  1.4559  0.3388
  503MOL0     H67858   2.838   0.665   2.059  0.1260  0.3390 -1.8314
  503MOL0     H67859   2.721   0.852   2.102  1.6969  0.0281 -0.4238
  503MOL0     H67860   2.730   0.817   1.930  1.5896 -2.8522  0.0213
  503MOL0     H67861   2.503   0.739   1.909  2.2305 -1.1053 -0.5281
  503MOL0     H67862   2.503   0.896   1.997 -1.4179 -0.5973 -0.9776
  503MOL0     H67863   2.497   0.735   2.206  1.8483 -0.6529 -1.1168
  503MOL0     H67864   2.448   0.611   2.096  0.7659  0.6084 -1.9715
  503MOL0     H67865   2.290   0.610   2.293  1.1233 -0.2446  1.4441
  503MOL0     H67866   2.158   0.654   2.499  0.5412 -1.8228 -0.8821
  503MOL0     H67867   1.962   0.980   2.803 -2.6425  2.1671 -1.7537
  503MOL0     H67868   1.853   0.977   3.018  1.3302  0.1720 -0.4163
  503MOL0     H67869   1.696   0.721   3.226 -2.3836 -1.4024 -1.3750
  503MOL0     H67870   1.722   0.891   3.242 -0.8408  0.0304  2.2932
  503MOL0     H67871   1.442   0.769   3.224 -2.5759  1.4197  0.3312
  503MOL0     H67872   1.522   0.783   3.374 -1.4367  0.7066  0.5559
  503MOL0     H67873   1.385   0.982   3.355 -0.1484 -2.8911 -1.0668
  503MOL0     H67874   1.540   1.049   3.335 -1.4484  1.0634  0.6682
  503MOL0     H67875   1.307   1.024   3.155  0.2107 -0.7482  0.7814
  503MOL0     H67876   1.443   0.969   3.078  0.9625  1.8743 -1.1344
  503MOL0     H67877   1.430   1.243   3.209 -3.8639 -0.2009 -1.0879
  503MOL0     H67878   1.386   1.187   3.038  0.4752 -4.2833 -1.3310
  503MOL0     H67879   1.668   1.174   3.164  0.1096  0.7556 -0.2154
  503MOL0     H67880   1.633   1.126   3.007  3.4541  2.6922 -1.0901
  503MOL0     H67881   1.542   1.356   2.956 -1.2511 -0.2633  1.7697
  503MOL0     H67882   1.713   1.331   2.973 -0.4498  0.4135  0.2376
  503MOL0     H67883   1.565   1.510   3.128  1.3330  1.6322 -1.2515
  503MOL0     H67884   1.659   1.392   3.232  3.1355 -1.1084 -0.5834
  503MOL0     H67885   1.653   0.614   2.931 -0.7929  1.7912  1.2512
  503MOL0     H67886   1.775   0.586   2.737  0.2373  1.9107 -0.2567
  503MOL0     H67887   1.964   0.984   2.303 -1.8049 -1.1872  0.5373
  503MOL0     H67888   2.117   0.974   2.126 -1.7965  2.1379  2.4403
  503MOL0     H67889   1.947   0.536   1.583 -2.1728  1.5465  0.9411
  503MOL0     H67890   1.789   0.608   1.742 -0.4356 -0.3933  0.1314
  503MOL0     H67891   1.808   0.970   2.094  0.2763  3.4167  1.4403
  503MOL0     H67892   1.698   1.078   2.317 -1.5466  0.2912  0.0054
  503MOL0     H67893   1.616   1.082   2.570  1.1899 -1.1814  0.0062
  503MOL0     H67894   1.611   0.902   2.557  0.8629  0.7081  1.0192
  503MOL0     H67895   1.380   1.067   2.657  0.1401 -0.2356 -3.4370
  503MOL0     H67896   1.508   1.012   2.764  1.3230 -1.1022  0.1257
  503MOL0     H67897   1.477   0.778   2.647 -0.4457 -0.1393 -1.3420
  503MOL0     H67898   1.319   0.843   2.594  2.9141  0.9688 -2.4094
  503MOL0     H67899   1.423   0.839   2.881  0.9291  1.2927 -1.1415
  503MOL0     H67900   1.254   0.882   2.835  0.7926 -0.8359  1.2210
  503MOL0     H67901   1.257   0.460   2.863  0.5617 -0.3609  1.8836
  503MOL0     H67902   1.367   0.841   2.284 -0.7906  1.8181 -2.6171
  503MOL0     H67903   1.533   0.597   2.064  0.9706  0.2578  0.3572
  503MOL0     H67904   1.376   0.631   2.146  0.2457 -1.8915 -0.3738
  503MOL0     H67905   1.403   0.685   1.979 -0.0733  3.1860  0.2362
  504MOL0     O67906   1.896   1.048   9.265 -0.3994 -0.5554 -0.0149
  504MOL0     C67907   1.843   1.035   9.158  0.3987  0.1167  0.3106
  504MOL0     O67908   1.889   0.954   9.062 -0.6838  0.0644 -0.2988
  504MOL0     C67909   1.968   0.841   9.102 -0.1832  0.3839  0.3108
  504MOL0     C67910   1.946   0.759   9.218 -0.9646  0.1375 -0.6863
  504MOL0     C67911   2.035   0.645   9.241  0.5316  0.0557 -0.8586
  504MOL0     C67912   2.145   0.608   9.152  1.2367 -0.2968 -0.7529
  504MOL0     O67913   2.236   0.509   9.157  0.5640  0.1459 -0.2187
  504MOL0     C67914   2.204   0.400   9.248 -0.7193 -0.8244 -0.5550
  504MOL0     C67915   2.321   0.367   9.334 -0.3141  0.0797 -0.4428
  504MOL0     C67916   2.356   0.490   9.414  0.1816  0.6299  0.2563
  504MOL0     C67917   2.403   0.459   9.556  1.0619 -0.2969 -0.3143
  504MOL0     C67918   2.422   0.577   9.638  0.1378 -0.4379 -0.0275
  504MOL0     C67919   2.457   0.541   9.789  0.1950  0.1393 -1.4230
  504MOL0     C67920   2.588   0.471   9.798 -0.5939 -0.2871 -0.7766
  504MOL0     C67921   2.609   0.427   9.940  0.2449  1.4232 -0.2790
  504MOL0     N67922   2.747   0.431   9.989 -0.0467  0.1161 -0.2195
  504MOL0     C67923   2.841   0.533   9.962  0.3624 -0.0749  0.7825
  504MOL0     C67924   2.953   0.496  10.032 -0.9252 -0.6585  0.1961
  504MOL0     C67925   3.083   0.573  10.013 -0.0386 -0.4342 -0.2780
  504MOL0     C67926   3.155   0.548   9.885  0.0814 -0.2060 -0.9536
  504MOL0     C67927   3.305   0.574   9.893 -0.5880 -0.2615 -1.0204
  504MOL0     C67928   3.393   0.537   9.772 -0.7500  0.5508 -0.6196
  504MOL0     O67929   3.347   0.623   9.662  0.0623  0.2467 -0.6863
  504MOL0     C67930   3.422   0.615   9.555 -1.7712  0.1814  0.2909
  504MOL0     C67931   3.529   0.696   9.548 -0.8398  0.0126 -1.5572
  504MOL0     C67932   3.626   0.682   9.445  0.2102 -0.2818  0.3804
  504MOL0     C67933   3.624   0.577   9.353 -0.4886 -0.6037 -0.4404
  504MOL0     C67934   3.744   0.556   9.260  0.3630  1.0071 -0.6190
  504MOL0     O67935   3.735   0.448   9.177  0.6056 -0.2344  0.0012
  504MOL0     C67936   3.847   0.408   9.116 -0.1973 -0.5854 -0.8296
  504MOL0     C67937   3.934   0.337   9.201  0.1628 -0.5234  0.2844
  504MOL0     C67938   4.039   0.272   9.141 -0.3477  0.6942  0.5180
  504MOL0     C67939   4.071   0.284   9.011 -0.1020 -0.3653 -1.0183
  504MOL0     O67940   4.176   0.212   8.959 -0.4151  0.1507  0.0115
  504MOL0     C67941   4.178   0.186   8.813 -0.1261  0.2479  0.4080
  504MOL0     C67942   4.289   0.082   8.793  0.1646 -0.1602 -0.0338
  504MOL0     C67943   4.347   0.059   8.648 -0.0156 -0.7325  0.0466
  504MOL0     C67944   4.243   0.059   8.537  0.0649 -0.4361  0.2006
  504MOL0     C67945   4.311   0.079   8.405 -0.3562 -0.6665  0.4769
  504MOL0     C67946   4.199   0.098   8.296  0.2693  0.6214  0.1630
  504MOL0     C67947   4.246   0.108   8.148  0.6135  0.6710 -0.1804
  504MOL0     C67948   4.124   0.111   8.044  0.1930  0.2562 -0.1349
  504MOL0    Cl67949   4.012   0.248   8.056  0.4044  0.1929 -0.0140
  504MOL0     C67950   3.989   0.368   8.929 -0.0757 -0.1599 -0.1431
  504MOL0     C67951   3.866   0.414   8.984  0.1671 -1.1289  0.2633
  504MOL0     O67952   3.828   0.639   9.250 -0.2672 -0.0984 -0.3996
  504MOL0     C67953   3.515   0.495   9.357 -0.4309  0.2077  1.6716
  504MOL0     C67954   3.416   0.512   9.451  0.0570 -0.1479 -0.2677
  504MOL0     N67955   2.918   0.382  10.099 -1.2746  0.3023 -0.0888
  504MOL0     N67956   2.800   0.344  10.078 -0.1128 -0.9250  0.1201
  504MOL0     C67957   2.154   0.697   9.043  0.4745 -0.2270 -0.3063
  504MOL0     C67958   2.071   0.802   9.016 -0.1354 -0.4505  0.8789
  504MOL0     C67959   1.701   1.086   9.133  1.0329 -0.6996 -0.1077
  504MOL0     C67960   1.632   1.035   9.031  0.9430  0.6855 -0.3132
  504MOL0     C67961   1.489   1.064   9.016  0.2048  1.1147 -0.5862
  504MOL0     C67962   1.426   1.152   9.105 -0.9813 -0.2774 -1.1370
  504MOL0     O67963   1.293   1.192   9.107  0.4058  0.4843  0.0100
  504MOL0     C67964   1.203   1.090   9.059  0.7729 -0.0834 -0.6198
  504MOL0     C67965   1.057   1.143   9.085 -1.0914  0.0764 -0.7078
  504MOL0     C67966   0.971   1.081   8.970 -0.4594 -0.3298 -0.7799
  504MOL0     C67967   0.829   1.109   8.970 -0.4271  0.0039  0.1909
  504MOL0     C67968   0.767   1.029   9.077  0.8412 -0.1831  0.7751
  504MOL0     C67969   0.710   0.991   9.177  0.1758  0.0409 -0.3526
  504MOL0     C67970   1.506   1.210   9.202  1.4256  0.3470  0.3767
  504MOL0     C67971   1.636   1.181   9.217 -1.0683  0.2474 -0.1817
  504MOL0     C67972   1.715   1.262   9.329 -0.4605 -0.1350  0.4735
  504MOL0     H67973   1.870   0.774   9.294 -1.8957 -3.1263 -0.7932
  504MOL0     H67974   2.013   0.602   9.338 -1.7179  2.1837 -0.3169
  504MOL0     H67975   2.120   0.418   9.316  1.5100 -0.7051  2.3580
  504MOL0     H67976   2.178   0.315   9.184 -3.1138 -0.2816 -0.3899
  504MOL0     H67977   2.403   0.329   9.273 -1.6983  1.3206 -3.2946
  504MOL0     H67978   2.283   0.284   9.396 -0.8343  0.5223 -0.1647
  504MOL0     H67979   2.281   0.567   9.399  0.3700  0.2572 -3.7956
  504MOL0     H67980   2.443   0.527   9.359 -0.1131  3.3548  1.4605
  504MOL0     H67981   2.332   0.401   9.615  2.1350 -0.3074  1.0113
  504MOL0     H67982   2.498   0.405   9.551 -0.2357 -2.8516  0.6224
  504MOL0     H67983   2.504   0.635   9.595  0.3393 -3.2927 -4.1019
  504MOL0     H67984   2.330   0.636   9.633  0.2458 -0.1639  1.0515
  504MOL0     H67985   2.467   0.631   9.851 -1.3650 -2.5446  3.2179
  504MOL0     H67986   2.375   0.481   9.830  0.7561 -0.3756 -1.0373
  504MOL0     H67987   2.666   0.538   9.763 -1.2828  2.6761  2.7122
  504MOL0     H67988   2.591   0.379   9.738 -2.4650  0.5729 -2.2833
  504MOL0     H67989   2.551   0.484  10.013 -2.1378 -0.1540 -0.8261
  504MOL0     H67990   2.572   0.325   9.952  1.8299  0.7560 -0.8372
  504MOL0     H67991   2.834   0.619   9.897 -1.6809  0.9305  2.2549
  504MOL0     H67992   3.064   0.678  10.033  1.3474 -0.2916  0.3906
  504MOL0     H67993   3.147   0.543  10.097  0.0968  0.2758 -0.1251
  504MOL0     H67994   3.149   0.441   9.863  1.8852 -0.2642 -1.3315
  504MOL0     H67995   3.109   0.596   9.798  0.9655 -5.1134 -4.5923
  504MOL0     H67996   3.332   0.523   9.986 -0.8411  1.7093  0.1766
  504MOL0     H67997   3.323   0.678   9.921  0.5704 -1.4062  3.2012
  504MOL0     H67998   3.390   0.431   9.746 -1.5984  0.2038  0.7528
  504MOL0     H67999   3.499   0.560   9.790 -0.0481 -2.7991  0.2654
  504MOL0     H68000   3.542   0.771   9.625 -1.3004 -0.4728 -0.9908
  504MOL0     H68001   3.705   0.756   9.436 -1.7407  1.7915 -0.7141
  504MOL0     H68002   3.925   0.336   9.309 -2.9462  1.6842  0.1827
  504MOL0     H68003   4.111   0.212   9.197  0.7229 -0.2995 -1.7835
  504MOL0     H68004   4.086   0.146   8.771  0.8666  1.3364 -3.2078
  504MOL0     H68005   4.204   0.278   8.758  1.7992 -0.8858 -0.7113
  504MOL0     H68006   4.380   0.106   8.848  0.6865  1.3127 -1.4783
  504MOL0     H68007   4.254  -0.016   8.828 -0.2354 -0.6344 -1.6834
  504MOL0     H68008   4.415   0.143   8.631 -1.3502  0.7174  1.6513
  504MOL0     H68009   4.405  -0.035   8.647  1.7902  0.3129 -1.7884
  504MOL0     H68010   4.184   0.151   8.544  2.4873  1.1056  2.6049
  504MOL0     H68011   4.179  -0.030   8.536 -2.0638  1.0108  0.8218
  504MOL0     H68012   4.381  -0.003   8.387 -1.6513 -1.6296 -0.3612
  504MOL0     H68013   4.367   0.173   8.405 -0.4211 -0.6163 -0.6287
  504MOL0     H68014   4.130   0.014   8.307  2.3562 -1.0169  1.6542
  504MOL0     H68015   4.131   0.182   8.309 -0.3903  0.3293 -1.2378
  504MOL0     H68016   4.316   0.025   8.133 -0.3532 -0.1688 -0.2052
  504MOL0     H68017   4.307   0.199   8.150 -0.4088  1.3926  2.1455
  504MOL0     H68018   4.160   0.109   7.941 -3.3849  2.6221 -1.6630
  504MOL0     H68019   4.052   0.029   8.057  0.2323  0.3266  0.5730
  504MOL0     H68020   4.011   0.399   8.827 -2.2452  2.0812 -0.0208
  504MOL0     H68021   3.796   0.463   8.917 -0.8500 -0.0524  2.0219
  504MOL0     H68022   3.509   0.403   9.299  1.2205  1.9770 -1.5921
  504MOL0     H68023   3.321   0.460   9.454  0.5017 -0.9523  1.5855
  504MOL0     H68024   2.228   0.668   8.968 -0.4676 -2.1014 -0.5614
  504MOL0     H68025   2.079   0.854   8.920 -1.9080 -0.6887  0.5660
  504MOL0     H68026   1.683   0.964   8.966 -0.1204  0.9299 -1.4482
  504MOL0     H68027   1.435   1.022   8.931  1.5260  0.7517 -1.2696
  504MOL0     H68028   1.208   0.992   9.108  0.7692  0.3401  0.2569
  504MOL0     H68029   1.209   1.068   8.952 -0.4428 -1.0618 -0.5184
  504MOL0     H68030   1.047   1.252   9.085 -7.2412 -0.1432  0.6928
  504MOL0     H68031   1.035   1.099   9.183 -2.2828 -0.7975 -1.3498
  504MOL0     H68032   0.981   0.972   8.974  0.7357 -0.2102 -0.1946
  504MOL0     H68033   1.005   1.125   8.875 -0.3598 -1.7416 -1.4233
  504MOL0     H68034   0.816   1.214   8.998 -0.3552 -0.4219  1.9191
  504MOL0     H68035   0.770   1.106   8.878 -1.0971  0.8599  0.5729
  504MOL0     H68036   0.677   0.951   9.271 -1.2262  0.3052 -0.7118
  504MOL0     H68037   1.458   1.270   9.279 -1.8530 -4.3094  2.4750
  504MOL0     H68038   1.807   1.312   9.298  0.6358  0.4384  4.2082
  504MOL0     H68039   1.653   1.344   9.366  1.6978  0.1792  3.7487
  504MOL0     H68040   1.739   1.199   9.415  0.6304 -1.0885 -0.4939
  505MOL0     O68041   1.678   2.781  11.234  0.3976  0.3313 -0.0384
  505MOL0     C68042   1.696   2.694  11.310 -0.5697  0.5776 -0.1426
  505MOL0     O68043   1.785   2.596  11.286 -0.0106  0.7203  0.3793
  505MOL0     C68044   1.823   2.571  11.158 -0.0182  1.2399 -0.0232
  505MOL0     C68045   1.919   2.649  11.091 -0.1990  0.1624  0.1640
  505MOL0     C68046   1.959   2.607  10.964 -0.2424 -0.4027 -0.2799
  505MOL0     C68047   1.909   2.491  10.901 -0.0358  0.3555  0.3209
  505MOL0     O68048   1.956   2.449  10.776  0.3507  1.1102  1.3002
  505MOL0     C68049   1.864   2.361  10.711 -0.2780 -0.4833  0.0353
  505MOL0     C68050   1.904   2.352  10.561 -0.2582  0.2731  0.3642
  505MOL0     C68051   2.053   2.294  10.529 -0.4202 -0.1232  0.0906
  505MOL0     C68052   2.060   2.143  10.544 -0.1319  0.7156  0.3297
  505MOL0     C68053   2.194   2.081  10.499  0.8260 -0.0073  0.0727
  505MOL0     C68054   2.155   1.952  10.421 -0.0418  0.1708  0.4585
  505MOL0     C68055   2.299   1.913  10.367  0.2658  1.1814  0.1360
  505MOL0     C68056   2.298   1.765  10.336  0.4238  0.3465  0.2411
  505MOL0     N68057   2.414   1.734  10.255 -0.4773  0.2367  0.4002
  505MOL0     C68058   2.421   1.703  10.120  0.4676 -0.9176 -0.7546
  505MOL0     C68059   2.550   1.665  10.105  0.2851 -0.0386  0.2271
  505MOL0     C68060   2.601   1.642   9.957  0.6363 -0.9200 -0.4807
  505MOL0     C68061   2.725   1.717   9.934  0.0741 -0.2629  0.0451
  505MOL0     C68062   2.702   1.856   9.861  0.0636 -0.5540  0.0306
  505MOL0     C68063   2.829   1.911   9.780  0.1716  0.3013 -0.5037
  505MOL0     O68064   2.866   1.809   9.691 -0.0835  0.9654  0.1455
  505MOL0     C68065   2.992   1.811   9.645 -0.6805 -0.3318  0.2130
  505MOL0     C68066   3.032   1.693   9.599  0.6455 -0.2411 -0.1023
  505MOL0     C68067   3.157   1.678   9.547  1.0535  0.9480  0.2702
  505MOL0     C68068   3.244   1.784   9.518  0.4524 -0.3702 -0.7116
  505MOL0     C68069   3.373   1.757   9.456 -0.2277 -0.2397  0.4593
  505MOL0     O68070   3.421   1.867   9.378  0.6837  0.4362 -0.2041
  505MOL0     C68071   3.542   1.861   9.312  0.2148  0.0512 -0.1457
  505MOL0     C68072   3.622   1.972   9.337  0.0736  0.0008  0.5551
  505MOL0     C68073   3.755   1.981   9.289  0.0916 -0.0014  0.2342
  505MOL0     C68074   3.799   1.886   9.199 -0.0245 -0.9459 -0.4192
  505MOL0     O68075   3.920   1.905   9.141 -0.5734 -0.1435 -0.2791
  505MOL0     C68076   3.934   1.832   9.017 -0.0212 -0.2328  0.1305
  505MOL0     C68077   4.014   1.704   9.051  0.7052  0.8424  0.2604
  505MOL0     C68078   4.005   1.605   8.922  0.3794 -0.2212 -0.5494
  505MOL0     C68079   4.113   1.492   8.918  0.1613 -0.8331  0.2475
  505MOL0     C68080   4.122   1.425   8.777 -0.7643  0.0391 -0.0517
  505MOL0     C68081   4.230   1.316   8.778  0.2240 -0.4688  0.1584
  505MOL0     C68082   4.224   1.231   8.641  0.4575  0.3057 -0.2685
  505MOL0     C68083   4.317   1.112   8.656 -0.1136  0.2324  0.0713
  505MOL0    Cl68084   4.294   1.037   8.813 -0.3367 -0.0044 -0.3304
  505MOL0     C68085   3.718   1.768   9.182 -0.4977 -0.2054  0.2223
  505MOL0     C68086   3.587   1.756   9.231 -0.0377 -0.8801  0.9777
  505MOL0     O68087   3.427   1.646   9.467  0.3949 -0.1348  0.5481
  505MOL0     C68088   3.194   1.910   9.558  0.4141  0.6724 -0.1550
  505MOL0     C68089   3.073   1.921   9.620 -0.1005 -0.2822 -0.1754
  505MOL0     N68090   2.614   1.656  10.228  0.3213  0.1305  0.0910
  505MOL0     N68091   2.531   1.703  10.311 -0.2439  0.1473  1.2033
  505MOL0     C68092   1.819   2.410  10.976 -0.8880 -0.2810  1.1717
  505MOL0     C68093   1.775   2.453  11.096  0.8635 -0.8414 -0.0133
  505MOL0     C68094   1.632   2.697  11.439 -0.0321 -0.8312 -0.4364
  505MOL0     C68095   1.705   2.647  11.550 -0.3519 -0.0694 -0.6245
  505MOL0     C68096   1.661   2.657  11.681  0.2724  0.0399 -0.1066
  505MOL0     C68097   1.535   2.712  11.711  0.9320  0.1459 -0.4089
  505MOL0     O68098   1.503   2.711  11.846  0.4674 -0.2873 -0.5832
  505MOL0     C68099   1.392   2.797  11.883 -0.0806  0.3990 -0.1025
  505MOL0     C68100   1.263   2.724  11.927  0.0541 -0.2447 -1.0318
  505MOL0     C68101   1.300   2.599  12.001  0.9806  0.2649  0.7006
  505MOL0     C68102   1.252   2.474  11.918 -0.1536  0.4230  0.2174
  505MOL0     C68103   1.284   2.351  11.984 -1.1393 -0.0311  0.0011
  505MOL0     C68104   1.310   2.252  12.049  0.1928  0.1958  0.3576
  505MOL0     C68105   1.460   2.762  11.597 -0.4478 -0.0070  0.0462
  505MOL0     C68106   1.505   2.758  11.467  0.9069 -0.1143  0.2268
  505MOL0     C68107   1.413   2.818  11.359  0.6029 -0.6082 -0.4480
  505MOL0     H68108   1.954   2.742  11.136  0.4237  0.1507 -0.2776
  505MOL0     H68109   2.037   2.662  10.913  1.5975 -2.9050 -0.3703
  505MOL0     H68110   1.881   2.260  10.752  0.2077 -0.5248 -0.2694
  505MOL0     H68111   1.761   2.395  10.725  0.2536  1.2982 -0.2014
  505MOL0     H68112   1.896   2.448  10.508 -0.0567  0.0620 -0.0511
  505MOL0     H68113   1.845   2.276  10.510  3.0717 -2.3870  0.1176
  505MOL0     H68114   2.137   2.342  10.579  0.0307 -0.7656 -0.0412
  505MOL0     H68115   2.062   2.312  10.422 -3.5209  2.1780  0.0861
  505MOL0     H68116   2.042   2.105  10.645 -4.1585 -0.9652 -0.8046
  505MOL0     H68117   1.974   2.097  10.493  0.1992 -2.8268  2.6206
  505MOL0     H68118   2.255   2.149  10.439  3.4080 -1.5095  0.8321
  505MOL0     H68119   2.255   2.055  10.586  0.8048 -1.1154 -0.2298
  505MOL0     H68120   2.108   1.868  10.472 -1.1873  0.1153 -0.6334
  505MOL0     H68121   2.090   1.974  10.336  1.9221 -0.3874 -1.2714
  505MOL0     H68122   2.366   1.927  10.452  0.2627  2.9115 -0.1100
  505MOL0     H68123   2.332   1.980  10.286  1.4500  1.1984  0.6255
  505MOL0     H68124   2.306   1.710  10.430  1.2858 -0.0392 -0.0463
  505MOL0     H68125   2.210   1.720  10.289  2.7665 -4.9662  0.2024
  505MOL0     H68126   2.336   1.719  10.055 -0.9380 -3.2248  0.3813
  505MOL0     H68127   2.617   1.536   9.936 -0.1618 -0.8673 -1.4526
  505MOL0     H68128   2.526   1.677   9.885 -0.7379 -1.4030  0.6610
  505MOL0     H68129   2.787   1.722  10.023  1.8286 -0.2179 -1.1285
  505MOL0     H68130   2.784   1.654   9.867  1.7448  0.6165  0.6355
  505MOL0     H68131   2.685   1.928   9.941  0.8657 -0.9077  0.5456
  505MOL0     H68132   2.613   1.871   9.799  1.9999 -2.4249 -3.5234
  505MOL0     H68133   2.918   1.933   9.840 -0.8748  1.4547  0.6911
  505MOL0     H68134   2.806   2.003   9.726 -2.3839  1.0846  1.7126
  505MOL0     H68135   2.971   1.604   9.613 -1.5054  1.2731  0.6904
  505MOL0     H68136   3.188   1.580   9.514 -1.4060  0.3778 -0.4661
  505MOL0     H68137   3.577   2.055   9.390 -0.6883 -0.4826  0.6918
  505MOL0     H68138   3.803   2.076   9.309 -0.5182  0.4044 -0.1924
  505MOL0     H68139   3.839   1.809   8.969 -0.5206  0.6760  0.6430
  505MOL0     H68140   3.985   1.899   8.948 -0.3199 -0.4891 -0.3444
  505MOL0     H68141   4.121   1.724   9.065  1.3877 -2.4011  0.5827
  505MOL0     H68142   3.982   1.654   9.143 -0.1326 -0.6908 -0.8115
  505MOL0     H68143   3.903   1.567   8.910  0.6882 -0.4154 -3.4392
  505MOL0     H68144   4.031   1.665   8.834  1.5388 -0.3242 -0.2956
  505MOL0     H68145   4.086   1.427   9.002 -2.3804  0.0762  0.2228
  505MOL0     H68146   4.205   1.551   8.924 -2.1195  2.9230  1.1855
  505MOL0     H68147   4.145   1.509   8.711 -0.6998  0.3379  0.3454
  505MOL0     H68148   4.026   1.386   8.741 -0.1800  0.1987 -1.8743
  505MOL0     H68149   4.329   1.360   8.795 -1.6413  2.6156  4.8695
  505MOL0     H68150   4.203   1.249   8.860 -1.1977 -0.2937 -0.1371
  505MOL0     H68151   4.253   1.288   8.552  3.1987 -1.1517 -0.4271
  505MOL0     H68152   4.124   1.187   8.638  0.6216 -0.0340 -0.8584
  505MOL0     H68153   4.288   1.042   8.578 -1.8673 -0.8711  1.6254
  505MOL0     H68154   4.423   1.136   8.645  0.2872 -1.7526 -0.7232
  505MOL0     H68155   3.761   1.692   9.118  0.5096  2.3284 -2.2457
  505MOL0     H68156   3.515   1.677   9.211 -1.2770  0.9790 -2.9845
  505MOL0     H68157   3.256   1.997   9.543  1.7780 -0.3825 -0.8727
  505MOL0     H68158   3.046   2.017   9.663  1.8825 -1.1789  3.5383
  505MOL0     H68159   1.779   2.316  10.939  2.1569 -0.8823 -0.8873
  505MOL0     H68160   1.699   2.398  11.151  2.0008  1.0619  3.8132
  505MOL0     H68161   1.804   2.607  11.532  1.4164  2.2721  2.8231
  505MOL0     H68162   1.739   2.627  11.750 -1.3051  1.6320  2.5192
  505MOL0     H68163   1.372   2.865  11.799 -0.4150  3.1948  2.0760
  505MOL0     H68164   1.433   2.855  11.966  1.1531 -4.0955  2.7947
  505MOL0     H68165   1.199   2.690  11.846  0.4397  1.1869 -1.9792
  505MOL0     H68166   1.207   2.790  11.993 -0.8703  0.2199 -2.2440
  505MOL0     H68167   1.254   2.600  12.100 -2.5938 -0.2219 -0.8242
  505MOL0     H68168   1.408   2.592  12.017  1.1090 -1.2296 -0.6030
  505MOL0     H68169   1.149   2.487  11.884  0.6062  1.3938 -1.9027
  505MOL0     H68170   1.323   2.472  11.835 -2.6596  1.7893 -2.1215
  505MOL0     H68171   1.333   2.168  12.113 -0.3892  1.1196  1.8367
  505MOL0     H68172   1.362   2.807  11.610 -0.6538 -0.5472  0.4262
  505MOL0     H68173   1.427   2.926  11.357  0.2662 -0.5037  1.0874
  505MOL0     H68174   1.433   2.779  11.259  1.9422  0.5003 -0.6390
  505MOL0     H68175   1.311   2.782  11.375  1.0383 -1.9811 -0.6597
  506MOL0     O68176   5.869  10.423   7.033 -0.1273 -1.3374  0.4139
  506MOL0     C68177   5.802  10.466   7.133 -0.8755 -0.0101 -0.9703
  506MOL0     O68178   5.701  10.568   7.134 -0.7983 -0.1825 -0.0215
  506MOL0     C68179   5.669  10.627   7.015  0.4707 -0.4450  0.3362
  506MOL0     C68180   5.750  10.729   6.969  0.3585  0.8082  0.4421
  506MOL0     C68181   5.714  10.796   6.853  0.2386  0.1191  0.2465
  506MOL0     C68182   5.595  10.778   6.790  0.4148  0.8629  0.2568
  506MOL0     O68183   5.563  10.854   6.681  0.5581 -0.2629 -0.6513
  506MOL0     C68184   5.439  10.856   6.613 -0.1059  0.3750  0.0158
  506MOL0     C68185   5.453  10.919   6.472  0.2875  1.1982 -0.2113
  506MOL0     C68186   5.538  10.826   6.383 -0.0144 -0.0811 -1.3362
  506MOL0     C68187   5.454  10.749   6.271 -0.1136 -0.4640 -0.0577
  506MOL0     C68188   5.351  10.651   6.329 -0.7194  0.6054 -0.2413
  506MOL0     C68189   5.434  10.527   6.378 -0.0574  0.9329  0.4115
  506MOL0     C68190   5.335  10.414   6.439 -0.3473  0.3026 -0.3699
  506MOL0     C68191   5.214  10.384   6.340 -0.1444  0.7252  0.7030
  506MOL0     N68192   5.143  10.269   6.388 -1.0740 -1.4252 -0.6631
  506MOL0     C68193   5.177  10.137   6.404  0.6022 -0.7071  1.1071
  506MOL0     C68194   5.062  10.081   6.445  0.4715 -0.6654 -0.2738
  506MOL0     C68195   5.036   9.938   6.485  0.3413  0.2075  0.2145
  506MOL0     C68196   4.975   9.858   6.377 -0.6758 -0.2068 -0.0793
  506MOL0     C68197   4.971   9.711   6.416 -0.0196  0.4781 -0.5370
  506MOL0     C68198   4.895   9.691   6.542  0.2418  0.0462  0.1427
  506MOL0     O68199   4.835   9.555   6.543  0.0704  0.4455  0.3550
  506MOL0     C68200   4.713   9.548   6.474  0.9711  0.3194 -1.0915
  506MOL0     C68201   4.604   9.645   6.457  0.0232  1.1721 -0.2016
  506MOL0     C68202   4.492   9.622   6.381 -0.8014 -0.4876 -0.6245
  506MOL0     C68203   4.481   9.505   6.316  0.4427  0.3545 -0.2425
  506MOL0     C68204   4.348   9.478   6.257 -0.6443  0.5174  0.3208
  506MOL0     O68205   4.324   9.359   6.186 -0.5636  0.2762  0.6340
  506MOL0     C68206   4.203   9.340   6.127 -0.0003  0.1543  0.4866
  506MOL0     C68207   4.090   9.328   6.202 -0.3400 -0.1290 -0.6328
  506MOL0     C68208   3.966   9.299   6.136  0.6274  0.9197 -0.4410
  506MOL0     C68209   3.960   9.286   5.993  0.2116 -0.5185 -0.5564
  506MOL0     O68210   3.838   9.267   5.925 -0.1760 -0.3464  0.1892
  506MOL0     C68211   3.832   9.192   5.802  0.5594 -0.0254 -0.7376
  506MOL0     C68212   3.750   9.295   5.710 -0.5191  0.1599  0.2994
  506MOL0     C68213   3.611   9.272   5.717  0.4011  0.6476  0.5130
  506MOL0     C68214   3.516   9.357   5.630 -0.2077  0.3787  0.0759
  506MOL0     C68215   3.556   9.371   5.481  0.3808  0.3808  0.9209
  506MOL0     C68216   3.551   9.249   5.399 -0.8499  0.2974  0.8821
  506MOL0     C68217   3.414   9.169   5.420 -1.1955 -0.1162 -0.7553
  506MOL0     C68218   3.408   9.035   5.352  0.1301 -0.9525  0.0338
  506MOL0    Cl68219   3.562   8.946   5.336 -0.0616 -0.5747 -0.2797
  506MOL0     C68220   4.080   9.286   5.926  0.2378 -0.4952 -0.0132
  506MOL0     C68221   4.195   9.319   5.988 -0.1007 -0.2663 -0.1532
  506MOL0     O68222   4.266   9.570   6.263 -0.3056 -0.3866  0.6460
  506MOL0     C68223   4.575   9.402   6.342 -0.4643 -0.6661  0.0075
  506MOL0     C68224   4.688   9.421   6.422  0.8591 -0.1838  0.0391
  506MOL0     N68225   4.959  10.172   6.467  0.7160 -0.2100 -0.5022
  506MOL0     N68226   5.017  10.286   6.433  0.8584  0.1080  0.9604
  506MOL0     C68227   5.515  10.679   6.834 -0.0529  0.5931 -0.6589
  506MOL0     C68228   5.549  10.601   6.945 -0.5355  0.3996 -0.4372
  506MOL0     C68229   5.837  10.406   7.262 -0.0131 -0.4934 -0.1181
  506MOL0     C68230   5.741  10.384   7.360  0.3636  0.1431 -0.0956
  506MOL0     C68231   5.774  10.297   7.474  0.2594  0.1058  0.6710
  506MOL0     C68232   5.908  10.267   7.499 -0.7393  0.3553  0.1363
  506MOL0     O68233   5.958  10.198   7.616 -0.1986  0.5758  0.1112
  506MOL0     C68234   5.874  10.158   7.718 -0.5774 -0.0900 -1.0882
  506MOL0     C68235   5.935  10.092   7.847 -0.6680  0.4198  0.5196
  506MOL0     C68236   6.013   9.963   7.813  0.9368 -0.5882 -0.0449
  506MOL0     C68237   5.924   9.842   7.816 -0.0923 -0.0757  0.6182
  506MOL0     C68238   5.875   9.807   7.676 -0.6299 -0.2571  0.0075
  506MOL0     C68239   5.837   9.760   7.575  0.2379 -0.1802 -0.0608
  506MOL0     C68240   6.007  10.308   7.412  0.0787 -0.5380  0.4727
  506MOL0     C68241   5.974  10.366   7.288 -0.1985 -0.3690 -0.6734
  506MOL0     C68242   6.088  10.406   7.202  0.4953  0.0004 -0.3498
  506MOL0     H68243   5.845  10.754   7.017 -0.2827  2.8372  0.7574
  506MOL0     H68244   5.775  10.878   6.818  0.1896  0.5910  1.2375
  506MOL0     H68245   5.391  10.758   6.599 -2.3937  1.4053  0.1311
  506MOL0     H68246   5.365  10.919   6.664 -0.6037  1.1511 -1.5982
  506MOL0     H68247   5.497  11.018   6.483  2.2969  0.2161  1.3082
  506MOL0     H68248   5.351  10.938   6.436  0.4980  0.9588 -0.9624
  506MOL0     H68249   5.598  10.754   6.440  0.7575 -0.1551 -2.2218
  506MOL0     H68250   5.611  10.895   6.340 -0.4688  0.9080 -0.5636
  506MOL0     H68251   5.386  10.822   6.226  1.2483 -0.4491 -2.2361
  506MOL0     H68252   5.505  10.704   6.185 -0.9762 -0.1616 -0.7513
  506MOL0     H68253   5.296  10.696   6.412 -1.4772  2.7495 -1.8080
  506MOL0     H68254   5.296  10.610   6.244  1.7718  2.2277 -2.7782
  506MOL0     H68255   5.495  10.487   6.297  1.7922 -1.6198  2.8800
  506MOL0     H68256   5.502  10.561   6.457 -1.4078  2.2177  1.0857
  506MOL0     H68257   5.297  10.450   6.535  0.2906  0.0749 -0.0189
  506MOL0     H68258   5.391  10.324   6.467 -5.7020 -2.2910  3.9501
  506MOL0     H68259   5.142  10.463   6.315  2.5929  2.7943 -1.3332
  506MOL0     H68260   5.256  10.344   6.247 -0.3270 -0.6016  1.1643
  506MOL0     H68261   5.274  10.095   6.381 -0.0923 -1.4053 -0.7929
  506MOL0     H68262   5.131   9.886   6.496 -0.9170 -3.3292 -3.1819
  506MOL0     H68263   4.969   9.933   6.572 -1.6073  1.2138 -1.1583
  506MOL0     H68264   4.878   9.893   6.341 -0.4814  1.4419  0.8855
  506MOL0     H68265   5.045   9.868   6.294 -0.5543  1.5187  0.1920
  506MOL0     H68266   5.070   9.665   6.415 -1.9850 -4.2783  0.2553
  506MOL0     H68267   4.923   9.654   6.337  2.8536 -1.2690 -1.1492
  506MOL0     H68268   4.818   9.769   6.551  0.6289  0.6648 -1.4850
  506MOL0     H68269   4.977   9.700   6.613 -0.1700 -0.3370  0.6710
  506MOL0     H68270   4.611   9.738   6.513  1.3008  3.2558 -3.4678
  506MOL0     H68271   4.421   9.704   6.374  0.0270  0.2598 -0.4985
  506MOL0     H68272   4.092   9.324   6.310 -2.8518 -0.4025 -0.5405
  506MOL0     H68273   3.879   9.294   6.200  1.7639 -1.5318  1.0700
  506MOL0     H68274   3.918   9.140   5.760 -1.2788 -2.8770 -1.2150
  506MOL0     H68275   3.765   9.109   5.825  1.3038 -0.5669 -0.4997
  506MOL0     H68276   3.780   9.397   5.736 -0.1244 -0.2721  1.6209
  506MOL0     H68277   3.782   9.258   5.612 -1.3085  0.0033  0.0924
  506MOL0     H68278   3.594   9.169   5.684  2.0848 -0.3291  2.4560
  506MOL0     H68279   3.569   9.284   5.818 -0.4464  0.8791  0.1460
  506MOL0     H68280   3.530   9.456   5.673  0.5905 -0.1750  1.1503
  506MOL0     H68281   3.413   9.324   5.647  0.1119  0.1589  1.7611
  506MOL0     H68282   3.660   9.396   5.459  0.1428 -0.4185 -1.2950
  506MOL0     H68283   3.489   9.448   5.441  1.8370  1.3303  0.2179
  506MOL0     H68284   3.561   9.286   5.297  3.4818 -1.2521  0.5381
  506MOL0     H68285   3.632   9.178   5.421  0.7679  1.4521 -1.0032
  506MOL0     H68286   3.329   9.229   5.386 -1.3528  1.4119  1.9831
  506MOL0     H68287   3.394   9.154   5.527  1.2835 -2.6309 -0.5393
  506MOL0     H68288   3.330   8.985   5.409 -0.2438 -2.7029 -1.8820
  506MOL0     H68289   3.360   9.049   5.255 -0.5006 -2.6336  0.0610
  506MOL0     H68290   4.083   9.267   5.819 -2.1352 -4.5690  0.4209
  506MOL0     H68291   4.291   9.310   5.938 -0.1817 -4.2324  0.0752
  506MOL0     H68292   4.554   9.303   6.304  0.0987 -0.5172 -0.7222
  506MOL0     H68293   4.752   9.334   6.431  1.8716  0.5889  0.6614
  506MOL0     H68294   5.417  10.659   6.790 -0.4987 -2.8752  1.5258
  506MOL0     H68295   5.490  10.515   6.974  0.2379  0.1517  0.4263
  506MOL0     H68296   5.641  10.424   7.349  0.0532 -0.4406  0.5254
  506MOL0     H68297   5.692  10.257   7.532 -0.2921 -1.1066 -0.8599
  506MOL0     H68298   5.800  10.098   7.664  0.5437 -1.2436 -1.3912
  506MOL0     H68299   5.824  10.248   7.755 -0.0458  0.0065 -0.5809
  506MOL0     H68300   5.852  10.070   7.914 -0.2982 -2.3790  0.1797
  506MOL0     H68301   5.995  10.169   7.897  2.4163 -2.1271  1.0499
  506MOL0     H68302   6.082   9.954   7.897  1.8218 -3.6462 -0.9438
  506MOL0     H68303   6.057   9.965   7.712  0.4170 -0.8690 -0.2799
  506MOL0     H68304   5.973   9.748   7.845  2.7896  1.4545  1.0192
  506MOL0     H68305   5.839   9.850   7.884 -0.5613 -0.5852  0.1124
  506MOL0     H68306   5.800   9.699   7.496 -1.0822 -1.9382  1.8309
  506MOL0     H68307   6.111  10.285   7.431  0.2711 -2.0575 -1.9176
  506MOL0     H68308   6.173  10.415   7.270  0.5898  0.0802 -0.4788
  506MOL0     H68309   6.120  10.327   7.133  2.6541  0.9976 -0.5484
  506MOL0     H68310   6.069  10.502   7.154  1.0387  0.5241  0.4432
  507MOL0     O68311   8.892   5.535   6.004 -0.3269  0.1919 -0.0543
  507MOL0     C68312   8.941   5.593   6.097 -0.3914  0.3322  0.3196
  507MOL0     O68313   9.043   5.684   6.073  0.0713  0.4063 -0.1103
  507MOL0     C68314   9.076   5.711   5.948 -1.0461 -0.0638  0.8045
  507MOL0     C68315   9.168   5.630   5.877 -1.0664  0.9560 -0.4884
  507MOL0     C68316   9.212   5.666   5.747  0.9773 -0.6610 -0.6507
  507MOL0     C68317   9.168   5.790   5.693  0.2771  0.8936 -0.2110
  507MOL0     O68318   9.211   5.821   5.573 -0.1128 -0.1047  0.4605
  507MOL0     C68319   9.127   5.887   5.474  0.3922 -0.2026  0.4958
  507MOL0     C68320   9.211   5.893   5.341  0.6748  0.1585  0.1529
  507MOL0     C68321   9.258   6.038   5.310  0.7083  0.4113  0.1032
  507MOL0     C68322   9.344   6.097   5.418 -0.1910  0.0595 -0.4627
  507MOL0     C68323   9.368   6.243   5.385 -0.8823 -1.6030 -0.5532
  507MOL0     C68324   9.451   6.318   5.502 -0.9129 -0.8285  0.7695
  507MOL0     C68325   9.554   6.414   5.452  0.9726  0.7433  0.1560
  507MOL0     C68326   9.638   6.487   5.562  0.3144 -0.0951 -1.1565
  507MOL0     N68327   9.732   6.579   5.505 -0.4414  0.2916 -0.0599
  507MOL0     C68328   9.712   6.683   5.419 -0.3399  0.1325 -0.0478
  507MOL0     C68329   9.813   6.769   5.444 -0.3414 -0.6541  0.6549
  507MOL0     C68330   9.816   6.909   5.378 -0.6366  1.0151 -0.6943
  507MOL0     C68331   9.964   6.955   5.346  0.3051  0.3451 -0.7772
  507MOL0     C68332   9.988   7.090   5.271 -0.4735  0.5162 -0.4434
  507MOL0     C68333   9.892   7.098   5.152  0.0429 -0.0308  0.5564
  507MOL0     O68334   9.939   7.194   5.058  0.4345  0.8008  1.1953
  507MOL0     C68335   9.839   7.223   4.978  0.1863 -0.8012 -0.8769
  507MOL0     C68336   9.756   7.337   5.001  0.2548 -0.1121  0.1917
  507MOL0     C68337   9.668   7.369   4.897 -0.0062  0.9924 -0.0066
  507MOL0     C68338   9.635   7.279   4.787 -1.3101  0.4922  0.8812
  507MOL0     C68339   9.536   7.303   4.682  0.3634 -0.2185  0.2042
  507MOL0     O68340   9.450   7.410   4.694 -0.1466  0.4616 -0.2674
  507MOL0     C68341   9.339   7.433   4.606  0.2730 -0.2666 -0.6316
  507MOL0     C68342   9.232   7.503   4.661 -0.7454 -0.8607  0.2056
  507MOL0     C68343   9.133   7.560   4.578 -0.3649 -0.0634 -0.4056
  507MOL0     C68344   9.134   7.543   4.439  0.2996  0.5350  0.7950
  507MOL0     O68345   9.034   7.603   4.365 -0.6629 -0.1226 -0.8485
  507MOL0     C68346   9.040   7.586   4.223  0.3502 -0.5633 -0.7977
  507MOL0     C68347   8.897   7.593   4.172  0.0737 -0.1085  0.0058
  507MOL0     C68348   8.814   7.467   4.208 -0.8285  0.3166 -0.2658
  507MOL0     C68349   8.707   7.499   4.314 -0.1217  0.4975 -0.1818
  507MOL0     C68350   8.636   7.380   4.383  0.6279  0.1025  0.9685
  507MOL0     C68351   8.713   7.260   4.442 -0.3064  0.1691 -0.4907
  507MOL0     C68352   8.644   7.167   4.538 -0.1749 -0.3762  0.2137
  507MOL0     C68353   8.728   7.043   4.571  0.0050  0.3891  1.4041
  507MOL0    Cl68354   8.638   6.913   4.663 -0.8277 -0.5284  0.0871
  507MOL0     C68355   9.243   7.474   4.386  1.1640 -0.2812  0.3444
  507MOL0     C68356   9.343   7.420   4.469 -0.3823 -0.6834  0.9604
  507MOL0     O68357   9.529   7.215   4.599  0.1087 -0.0804  0.7993
  507MOL0     C68358   9.725   7.170   4.779 -0.0135  1.1565  0.2835
  507MOL0     C68359   9.821   7.143   4.866 -0.8631 -0.3516 -0.4812
  507MOL0     N68360   9.894   6.731   5.541  0.1657  0.9244  0.2302
  507MOL0     N68361   9.839   6.616   5.577  0.4707  0.0441  0.9982
  507MOL0     C68362   9.099   5.875   5.771 -0.9977  0.3308 -0.2478
  507MOL0     C68363   9.047   5.831   5.890 -0.0816 -0.1213 -0.8994
  507MOL0     C68364   8.881   5.584   6.228 -0.2821 -0.2973  0.0314
  507MOL0     C68365   8.789   5.481   6.247  0.1809 -0.1097 -0.3700
  507MOL0     C68366   8.696   5.477   6.357  0.2220 -1.6481  0.5229
  507MOL0     C68367   8.721   5.565   6.468  0.3087  0.0033 -0.3517
  507MOL0     O68368   8.665   5.569   6.594 -0.0089  0.6346 -0.3840
  507MOL0     C68369   8.579   5.446   6.613 -0.7602  0.2260 -0.8720
  507MOL0     C68370   8.542   5.438   6.767  0.3798  0.0820  0.6684
  507MOL0     C68371   8.643   5.337   6.832  0.1743 -0.4041 -0.5983
  507MOL0     C68372   8.660   5.372   6.979 -0.6934  1.1589  0.0085
  507MOL0     C68373   8.674   5.250   7.063  0.5539 -0.2565  0.6560
  507MOL0     C68374   8.662   5.164   7.146  0.4364  0.4077  0.1910
  507MOL0     C68375   8.819   5.663   6.458  0.0501  0.0017  0.4438
  507MOL0     C68376   8.893   5.679   6.339 -1.0131 -0.7190  0.7136
  507MOL0     C68377   8.983   5.799   6.337 -0.8643  0.8299 -0.2913
  507MOL0     H68378   9.183   5.526   5.907 -2.2977  1.3169  1.6249
  507MOL0     H68379   9.254   5.601   5.671  2.4286 -1.0591  0.4568
  507MOL0     H68380   9.046   5.820   5.444  1.3575 -0.0744 -2.7942
  507MOL0     H68381   9.102   5.990   5.499  1.7292  0.4807 -0.8065
  507MOL0     H68382   9.141   5.869   5.260  1.3661  0.9443 -0.7037
  507MOL0     H68383   9.287   5.815   5.348 -2.3938 -3.4023 -2.1617
  507MOL0     H68384   9.168   6.096   5.287 -1.4249 -2.0377  1.8049
  507MOL0     H68385   9.326   6.024   5.225 -0.2943  1.6363 -0.9630
  507MOL0     H68386   9.281   6.089   5.507  0.2814  0.4760 -0.0854
  507MOL0     H68387   9.433   6.037   5.439 -1.3758 -2.2326 -1.6483
  507MOL0     H68388   9.428   6.232   5.294  0.8677 -1.5641  0.5510
  507MOL0     H68389   9.273   6.293   5.367 -0.6094 -0.7745  0.2208
  507MOL0     H68390   9.380   6.365   5.570 -0.1902  0.2867  0.7643
  507MOL0     H68391   9.495   6.238   5.563  0.4007 -0.8767 -0.1931
  507MOL0     H68392   9.505   6.488   5.389  2.2506 -0.6200 -2.6213
  507MOL0     H68393   9.618   6.350   5.390 -1.4498  0.8573 -2.6931
  507MOL0     H68394   9.562   6.550   5.609 -1.6543 -1.5835 -2.2026
  507MOL0     H68395   9.673   6.425   5.644 -1.4069  1.9493  1.2782
  507MOL0     H68396   9.644   6.690   5.335 -1.5386  0.9448  0.9591
  507MOL0     H68397   9.751   6.905   5.290 -2.4576 -4.0336  0.4928
  507MOL0     H68398   9.784   6.977   5.458  0.3003 -0.3843  0.9469
  507MOL0     H68399  10.020   6.942   5.438 -3.4649  0.4879  1.7744
  507MOL0     H68400   9.999   6.873   5.282  0.7323  0.9445 -1.3247
  507MOL0     H68401  10.088   7.086   5.226  0.3631  3.0536  0.9894
  507MOL0     H68402   9.974   7.178   5.334 -2.7790  0.2131 -0.4639
  507MOL0     H68403   9.798   7.132   5.195  0.4507 -1.0158  2.3577
  507MOL0     H68404   9.892   7.004   5.098  0.6549  0.8065 -0.9515
  507MOL0     H68405   9.782   7.407   5.080 -0.1138 -1.6854  1.7535
  507MOL0     H68406   9.630   7.471   4.900  0.6535  1.3161 -1.6313
  507MOL0     H68407   9.221   7.520   4.767  2.7324 -2.3207  0.9305
  507MOL0     H68408   9.043   7.582   4.634  1.2189 -0.8787  2.6745
  507MOL0     H68409   9.092   7.676   4.187 -0.7517  1.0499  1.3938
  507MOL0     H68410   9.096   7.500   4.184 -1.6914 -1.8955 -0.9318
  507MOL0     H68411   8.846   7.680   4.213  0.1063 -0.5628  1.0544
  507MOL0     H68412   8.901   7.604   4.063 -0.9340 -1.7153 -0.2299
  507MOL0     H68413   8.772   7.437   4.112 -0.5076 -0.5140 -0.1545
  507MOL0     H68414   8.879   7.391   4.252 -0.2032  2.2063  2.3622
  507MOL0     H68415   8.628   7.567   4.280  0.4321  1.7588  0.9662
  507MOL0     H68416   8.764   7.555   4.388 -0.5515  1.9574 -0.9145
  507MOL0     H68417   8.565   7.348   4.307 -0.8685  3.1355  0.9409
  507MOL0     H68418   8.573   7.421   4.462 -0.9045 -1.0599  0.3847
  507MOL0     H68419   8.741   7.196   4.358  3.0398  1.9599 -0.9082
  507MOL0     H68420   8.808   7.293   4.486  1.4922  0.6069 -4.2875
  507MOL0     H68421   8.549   7.138   4.491  0.2186 -0.9151 -0.2718
  507MOL0     H68422   8.620   7.213   4.634  0.6348  3.8691 -1.4003
  507MOL0     H68423   8.778   6.991   4.489  2.7384  0.0210  3.1895
  507MOL0     H68424   8.816   7.083   4.622  2.2413 -1.5600 -0.6609
  507MOL0     H68425   9.263   7.458   4.280 -1.5792  0.4336 -0.3640
  507MOL0     H68426   9.427   7.376   4.415  0.4564  0.9238  0.8899
  507MOL0     H68427   9.722   7.095   4.700 -1.3392 -0.5706  1.8848
  507MOL0     H68428   9.881   7.053   4.857 -0.5351  0.0439 -2.7190
  507MOL0     H68429   9.071   5.976   5.742 -2.4643  1.3515  3.9655
  507MOL0     H68430   8.984   5.896   5.950 -1.5096 -1.1201 -1.2813
  507MOL0     H68431   8.765   5.412   6.166  0.9236 -1.0946  0.2295
  507MOL0     H68432   8.634   5.388   6.364 -2.0142 -0.1987  0.1311
  507MOL0     H68433   8.644   5.359   6.600  5.3019  4.2380 -1.5423
  507MOL0     H68434   8.485   5.445   6.557 -1.4779 -2.3174  0.2271
  507MOL0     H68435   8.442   5.399   6.789  0.4784 -0.2971  0.4571
  507MOL0     H68436   8.561   5.538   6.808  5.7675  0.6044 -2.2043
  507MOL0     H68437   8.735   5.351   6.774 -0.1642  0.8608 -0.8829
  507MOL0     H68438   8.612   5.234   6.813 -1.5896 -0.4519  2.0908
  507MOL0     H68439   8.752   5.431   6.977 -0.3694  0.6577 -0.1024
  507MOL0     H68440   8.574   5.427   7.018 -1.4894 -1.6168  2.5832
  507MOL0     H68441   8.647   5.086   7.219  1.3246 -0.1737 -0.2391
  507MOL0     H68442   8.848   5.733   6.536  2.0032 -0.2486 -0.0026
  507MOL0     H68443   9.034   5.823   6.243  0.2619 -0.2641  0.0067
  507MOL0     H68444   8.924   5.886   6.366 -0.8186  0.5019  0.8240
  507MOL0     H68445   9.063   5.798   6.412  1.0154  6.3176 -1.7711
  508MOL0     O68446   7.569   3.515   3.741 -0.9100 -0.7742  0.0027
  508MOL0     C68447   7.564   3.544   3.619  0.3694 -0.6044  0.0118
  508MOL0     O68448   7.633   3.480   3.517  0.3854  0.7404 -0.1755
  508MOL0     C68449   7.699   3.359   3.526  0.0657  1.1806  1.8229
  508MOL0     C68450   7.741   3.300   3.403 -0.0700 -0.4890  1.2500
  508MOL0     C68451   7.810   3.181   3.390 -0.2604  0.4210  0.5895
  508MOL0     C68452   7.858   3.118   3.499 -0.1190 -0.1217  0.0587
  508MOL0     O68453   7.948   3.015   3.477 -0.4652  0.0316  0.1171
  508MOL0     C68454   8.060   2.993   3.563  0.1250  0.2639 -0.4134
  508MOL0     C68455   8.144   3.114   3.585  0.0659  0.0105  0.4812
  508MOL0     C68456   8.220   3.109   3.714  0.0748 -0.2870  0.8848
  508MOL0     C68457   8.154   3.176   3.834  0.2498 -1.6126  0.1551
  508MOL0     C68458   8.257   3.206   3.942 -0.3754 -0.0654 -0.5633
  508MOL0     C68459   8.311   3.077   4.004  0.5216  0.6705 -0.7088
  508MOL0     C68460   8.399   3.099   4.125  0.2116  0.7366 -0.9847
  508MOL0     C68461   8.521   3.171   4.098  0.2694  1.7479  0.1031
  508MOL0     N68462   8.621   3.191   4.201 -0.0152 -0.4382 -0.3503
  508MOL0     C68463   8.604   3.250   4.323 -0.5627  0.5600 -1.1536
  508MOL0     C68464   8.714   3.251   4.391 -0.6135  0.6513 -0.2615
  508MOL0     C68465   8.742   3.301   4.531  0.0719 -0.2233 -0.3977
  508MOL0     C68466   8.897   3.322   4.565 -0.4443  1.0453 -0.2029
  508MOL0     C68467   8.927   3.366   4.706  0.9409 -0.9458 -0.7334
  508MOL0     C68468   8.908   3.515   4.729 -0.1511  0.4391 -0.6525
  508MOL0     O68469   8.986   3.595   4.631 -0.1129  0.3097 -0.2877
  508MOL0     C68470   8.983   3.730   4.641  0.5202 -0.1200 -0.5838
  508MOL0     C68471   9.076   3.803   4.564  0.5917 -0.1545  0.7735
  508MOL0     C68472   9.071   3.937   4.570 -0.8463 -0.2616 -0.4406
  508MOL0     C68473   8.988   4.016   4.657  1.1367 -0.0177 -0.0544
  508MOL0     C68474   8.998   4.163   4.657 -0.4643  0.2240 -0.1417
  508MOL0     O68475   9.091   4.222   4.585 -0.2288  0.8007 -0.0105
  508MOL0     C68476   9.104   4.353   4.606 -0.9620  0.2964 -0.4205
  508MOL0     C68477   9.075   4.446   4.507 -0.0944  0.0923 -0.2275
  508MOL0     C68478   9.080   4.581   4.535  0.0196  1.2069 -0.2006
  508MOL0     C68479   9.123   4.633   4.659  0.2168 -0.3183 -0.5352
  508MOL0     O68480   9.119   4.769   4.688  0.1325 -0.1740  0.2708
  508MOL0     C68481   9.061   4.851   4.593 -0.1256 -0.5536  0.0194
  508MOL0     C68482   9.027   4.984   4.665 -0.2144 -1.1975  0.2608
  508MOL0     C68483   9.144   5.058   4.730  0.3928 -0.4709  0.2268
  508MOL0     C68484   9.163   5.020   4.878 -0.7164  0.1791 -0.0707
  508MOL0     C68485   9.101   5.127   4.978 -0.1634 -0.3285  0.4646
  508MOL0     C68486   9.066   5.083   5.121 -0.9144  0.0300  0.2644
  508MOL0     C68487   9.168   4.991   5.186  0.2188  1.2797  0.0402
  508MOL0     C68488   9.117   4.922   5.321 -0.0670 -0.7314 -0.6209
  508MOL0    Cl68489   9.034   5.039   5.430  0.4999  0.3649 -0.1112
  508MOL0     C68490   9.163   4.544   4.755 -0.7254  0.0283  0.1556
  508MOL0     C68491   9.158   4.408   4.727 -0.0466 -0.0975  0.3295
  508MOL0     O68492   8.921   4.219   4.738 -0.9342  0.7104 -0.0046
  508MOL0     C68493   8.903   3.942   4.741 -0.3409 -0.9766  0.9883
  508MOL0     C68494   8.900   3.801   4.731 -0.1278 -0.1516 -0.8729
  508MOL0     N68495   8.806   3.184   4.310 -0.0270  0.7947  0.3502
  508MOL0     N68496   8.755   3.159   4.194  0.0201 -0.2181  0.0700
  508MOL0     C68497   7.823   3.165   3.630 -0.2625 -0.1735  0.2675
  508MOL0     C68498   7.743   3.286   3.643 -0.9530 -0.3948  0.7842
  508MOL0     C68499   7.491   3.666   3.573 -0.9752  0.1935  0.4529
  508MOL0     C68500   7.542   3.723   3.454  0.8169 -0.4155 -0.0854
  508MOL0     C68501   7.478   3.842   3.402 -0.2519  0.0767  0.2468
  508MOL0     C68502   7.380   3.901   3.467 -1.1418  0.0385 -0.5630
  508MOL0     O68503   7.335   4.024   3.422 -0.5096 -0.2752  0.1315
  508MOL0     C68504   7.375   4.134   3.496 -0.4348 -0.1273 -0.3259
  508MOL0     C68505   7.269   4.236   3.464  1.0807 -0.2682  0.5921
  508MOL0     C68506   7.324   4.373   3.511  0.3596 -0.1715 -0.4516
  508MOL0     C68507   7.259   4.499   3.445 -0.3448 -0.0355  0.4360
  508MOL0     C68508   7.130   4.516   3.503  0.7562 -0.8935  1.3135
  508MOL0     C68509   7.012   4.521   3.530  0.1503  0.7146 -0.9006
  508MOL0     C68510   7.331   3.848   3.584 -1.3751  0.0572  0.3983
  508MOL0     C68511   7.390   3.726   3.641 -0.1695 -0.4817  0.8937
  508MOL0     C68512   7.329   3.665   3.754 -0.2634 -0.8367  0.4792
  508MOL0     H68513   7.700   3.341   3.311  0.3001  1.5062  1.9274
  508MOL0     H68514   7.835   3.126   3.300 -1.9211  1.1956 -0.3963
  508MOL0     H68515   8.036   2.954   3.663 -0.5730  0.7952 -0.3627
  508MOL0     H68516   8.132   2.926   3.516 -0.3263 -0.8152  0.3748
  508MOL0     H68517   8.093   3.210   3.592  0.8212  0.3267  1.8541
  508MOL0     H68518   8.221   3.112   3.507 -0.1675 -0.7113  0.2584
  508MOL0     H68519   8.314   3.160   3.692 -0.3862 -0.0976 -0.7507
  508MOL0     H68520   8.247   3.006   3.739  5.3066  0.4345 -0.6186
  508MOL0     H68521   8.116   3.276   3.811 -1.0603 -2.2886 -0.7550
  508MOL0     H68522   8.076   3.105   3.864  1.2511 -3.0270 -0.4648
  508MOL0     H68523   8.328   3.277   3.899 -1.5787  0.3683 -1.8876
  508MOL0     H68524   8.202   3.259   4.021 -2.6395  0.9140 -2.6564
  508MOL0     H68525   8.221   3.022   4.035  1.5853 -1.3720 -1.0883
  508MOL0     H68526   8.372   3.012   3.942  2.8764  1.4333  0.6741
  508MOL0     H68527   8.413   2.994   4.151 -1.9940  0.3356 -1.1805
  508MOL0     H68528   8.349   3.135   4.215  1.6752 -0.1126  0.1951
  508MOL0     H68529   8.575   3.110   4.025  0.0328 -1.3185  2.3180
  508MOL0     H68530   8.503   3.267   4.049 -1.6492  1.1124 -0.5143
  508MOL0     H68531   8.510   3.300   4.343 -2.8184 -3.2974 -1.0819
  508MOL0     H68532   8.681   3.391   4.543 -1.3129 -1.0900 -0.6895
  508MOL0     H68533   8.710   3.223   4.601 -3.0623 -1.9399 -3.4316
  508MOL0     H68534   8.954   3.229   4.550  1.1189  2.1343 -1.3718
  508MOL0     H68535   8.947   3.390   4.495  2.0943 -1.8081 -1.3939
  508MOL0     H68536   9.034   3.346   4.721  2.3840  5.2856  0.0898
  508MOL0     H68537   8.863   3.312   4.776 -2.1867  3.2062  0.0644
  508MOL0     H68538   8.932   3.542   4.832  2.8179  0.5016 -1.2517
  508MOL0     H68539   8.803   3.539   4.708 -0.1370 -1.2973 -3.1570
  508MOL0     H68540   9.126   3.747   4.486 -0.9205  2.6161 -2.4580
  508MOL0     H68541   9.140   3.990   4.505  0.7196  0.2049  1.5040
  508MOL0     H68542   9.025   4.411   4.416 -1.8553  0.0232  0.7239
  508MOL0     H68543   9.064   4.649   4.452  0.2934  0.1005 -1.1758
  508MOL0     H68544   9.125   4.869   4.507 -1.5999  4.2169 -0.3736
  508MOL0     H68545   8.967   4.806   4.559  0.4344 -1.9190  0.2385
  508MOL0     H68546   8.999   5.056   4.588 -0.6498 -3.2013 -1.5511
  508MOL0     H68547   8.943   4.978   4.734  0.3251  4.5263  1.9293
  508MOL0     H68548   9.237   5.032   4.679 -0.8677 -2.6001 -1.1609
  508MOL0     H68549   9.142   5.163   4.702  0.4229 -0.1176  1.5009
  508MOL0     H68550   9.270   5.000   4.889  0.0580  2.4286 -2.4272
  508MOL0     H68551   9.113   4.926   4.903  0.1124 -0.2510  0.0074
  508MOL0     H68552   9.019   5.171   4.921 -1.1029 -0.5881  1.5872
  508MOL0     H68553   9.180   5.204   4.982 -0.6485  0.2691 -0.7368
  508MOL0     H68554   9.062   5.169   5.188 -0.2382  0.0864  0.2389
  508MOL0     H68555   8.962   5.048   5.126 -0.7377 -0.3910  3.7170
  508MOL0     H68556   9.264   5.042   5.197  1.1847  0.6988 -4.0465
  508MOL0     H68557   9.197   4.910   5.119 -0.7320  2.5988 -2.1082
  508MOL0     H68558   9.047   4.841   5.297 -1.2526 -0.2109  0.9052
  508MOL0     H68559   9.205   4.878   5.369  2.3089  3.4791 -0.7085
  508MOL0     H68560   9.191   4.594   4.848 -0.1728  1.3035 -0.6705
  508MOL0     H68561   9.192   4.336   4.800  0.9334 -4.2765 -3.7724
  508MOL0     H68562   8.817   3.979   4.796 -2.3268  0.9085 -2.9264
  508MOL0     H68563   8.837   3.743   4.798  2.0449 -1.8430 -0.1998
  508MOL0     H68564   7.859   3.108   3.714  2.6066  0.4760 -0.3978
  508MOL0     H68565   7.719   3.328   3.739  0.3745 -1.9306  1.8499
  508MOL0     H68566   7.633   3.692   3.403  1.2657  1.2601 -0.3651
  508MOL0     H68567   7.518   3.888   3.311 -0.6950  0.3383  0.1833
  508MOL0     H68568   7.470   4.164   3.449 -0.3440  0.9645  0.5157
  508MOL0     H68569   7.390   4.134   3.604  0.6690  3.2144 -0.3672
  508MOL0     H68570   7.178   4.210   3.519 -0.5423  3.8750  0.2267
  508MOL0     H68571   7.241   4.245   3.359 -0.9279  0.2529  1.1321
  508MOL0     H68572   7.431   4.393   3.508  0.3625  1.6315  4.1077
  508MOL0     H68573   7.295   4.374   3.616  0.7230 -2.7209 -0.2641
  508MOL0     H68574   7.329   4.581   3.460  0.9858 -0.5486 -2.3046
  508MOL0     H68575   7.253   4.487   3.336 -1.0235  1.3420  0.3064
  508MOL0     H68576   6.916   4.543   3.572  0.5956 -0.0671  0.5750
  508MOL0     H68577   7.243   3.892   3.629 -1.6847 -0.0750 -0.0751
  508MOL0     H68578   7.399   3.676   3.837  0.1187 -4.6168  0.8185
  508MOL0     H68579   7.229   3.705   3.775 -1.2363 -0.9551 -3.2768
  508MOL0     H68580   7.322   3.557   3.739 -2.4607 -0.9376  1.7152
  509MOL0     O68581   4.852   6.742   6.814  0.2671 -0.1377 -0.5490
  509MOL0     C68582   4.909   6.849   6.804  0.8828 -0.2207 -0.1011
  509MOL0     O68583   4.953   6.918   6.690  0.1785  0.8490 -0.0155
  509MOL0     C68584   4.972   6.860   6.572 -0.2113  0.8019  0.4773
  509MOL0     C68585   4.971   6.945   6.458  0.4935 -0.8878 -0.1144
  509MOL0     C68586   4.983   6.900   6.326 -0.4130 -0.1894 -0.1978
  509MOL0     C68587   4.994   6.763   6.304  0.1849  0.8966  0.0448
  509MOL0     O68588   5.001   6.700   6.182 -0.3456  0.1095  1.1051
  509MOL0     C68589   4.958   6.757   6.062  0.3314 -0.0475  0.0436
  509MOL0     C68590   4.980   6.646   5.955  0.5994 -0.7802  0.5194
  509MOL0     C68591   4.950   6.689   5.808  0.0268 -0.4420 -0.3282
  509MOL0     C68592   5.021   6.589   5.708 -0.2592 -0.7432 -0.7395
  509MOL0     C68593   5.012   6.641   5.561 -0.5996 -0.8861 -0.3924
  509MOL0     C68594   5.102   6.539   5.486  0.0121 -0.0325  0.6302
  509MOL0     C68595   5.088   6.540   5.327 -0.6635 -0.9767 -0.5512
  509MOL0     C68596   5.102   6.677   5.270  1.3346  0.5423 -0.5361
  509MOL0     N68597   5.085   6.685   5.131 -0.0605 -0.8684 -0.5231
  509MOL0     C68598   5.143   6.598   5.039 -0.6265  0.7104 -0.7844
  509MOL0     C68599   5.112   6.647   4.920  0.2962 -0.8001 -0.4971
  509MOL0     C68600   5.188   6.610   4.798 -0.1422  0.3703  0.9738
  509MOL0     C68601   5.286   6.723   4.766  0.1465  0.5050  0.4196
  509MOL0     C68602   5.224   6.821   4.667  0.4756  0.7231 -0.0318
  509MOL0     C68603   5.319   6.926   4.605  0.4395  0.2998  0.4814
  509MOL0     O68604   5.234   7.025   4.536  0.1026 -0.1544  0.4010
  509MOL0     C68605   5.321   7.105   4.467 -0.4828  1.2232  0.6840
  509MOL0     C68606   5.360   7.230   4.515 -0.2313  0.2510  0.2463
  509MOL0     C68607   5.433   7.313   4.434 -1.0169 -0.1048 -0.0878
  509MOL0     C68608   5.494   7.270   4.316  0.3342 -0.1791  1.0236
  509MOL0     C68609   5.593   7.356   4.249 -0.7718 -0.2184  1.2328
  509MOL0     O68610   5.633   7.306   4.127  0.4129  0.0042  0.5888
  509MOL0     C68611   5.726   7.359   4.038  0.8548  0.2189  0.5127
  509MOL0     C68612   5.700   7.350   3.903  0.5082  0.3106 -0.2681
  509MOL0     C68613   5.786   7.388   3.810  0.7744  0.1839  0.2557
  509MOL0     C68614   5.913   7.448   3.850 -0.3006  0.4947  0.3414
  509MOL0     O68615   6.007   7.471   3.751 -0.6423 -0.1144 -0.0309
  509MOL0     C68616   6.095   7.589   3.766  0.2138  0.1843  0.1454
  509MOL0     C68617   6.237   7.547   3.705  0.2055  0.1023  0.4155
  509MOL0     C68618   6.327   7.456   3.792 -0.3390  0.0940  0.2493
  509MOL0     C68619   6.363   7.507   3.936  0.5978  0.3322 -0.1792
  509MOL0     C68620   6.453   7.403   4.015  0.9125  0.0639 -0.3161
  509MOL0     C68621   6.355   7.297   4.079 -0.4299 -0.9460 -0.6635
  509MOL0     C68622   6.433   7.215   4.183  0.4612 -0.1851  0.2362
  509MOL0     C68623   6.333   7.115   4.239  0.4041 -0.7227  0.6354
  509MOL0    Cl68624   6.307   6.987   4.109  0.0002 -0.0745 -0.0790
  509MOL0     C68625   5.940   7.448   3.987 -0.4133 -0.7337  0.2160
  509MOL0     C68626   5.850   7.399   4.081 -0.6139 -0.0217 -0.6587
  509MOL0     O68627   5.641   7.458   4.293 -1.0337  0.0515  0.0081
  509MOL0     C68628   5.453   7.141   4.263 -0.0920  0.2209  0.2027
  509MOL0     C68629   5.360   7.066   4.340 -0.8495  0.6407  0.3436
  509MOL0     N68630   5.024   6.751   4.936 -0.6921 -0.8669 -0.1524
  509MOL0     N68631   5.006   6.779   5.064 -0.0490 -0.3523  0.3058
  509MOL0     C68632   5.006   6.673   6.420  0.0912  0.0249  0.4558
  509MOL0     C68633   4.984   6.719   6.552 -0.0632 -0.7973  0.5627
  509MOL0     C68634   4.924   6.932   6.922 -0.5540 -0.4502  0.6860
  509MOL0     C68635   4.917   7.070   6.910 -0.2768 -0.8023  0.2852
  509MOL0     C68636   4.938   7.150   7.033 -0.0007 -0.0485  0.3648
  509MOL0     C68637   4.965   7.088   7.157 -0.7266 -0.6457 -0.2467
  509MOL0     O68638   4.993   7.159   7.272 -0.0536  0.0268  0.7961
  509MOL0     C68639   4.993   7.304   7.276  0.0586  0.5662  0.9327
  509MOL0     C68640   5.130   7.362   7.253  0.2383  1.4732 -0.2299
  509MOL0     C68641   5.133   7.513   7.295 -0.6397 -0.4615 -0.1609
  509MOL0     C68642   5.246   7.590   7.241 -0.2056  0.0346  0.0953
  509MOL0     C68643   5.377   7.538   7.294  0.4108 -0.1669  0.3716
  509MOL0     C68644   5.478   7.487   7.321 -0.6843 -0.1897  0.6931
  509MOL0     C68645   4.971   6.946   7.166 -0.0034  0.0466  0.8829
  509MOL0     C68646   4.956   6.871   7.047  0.7950  0.1900  0.2585
  509MOL0     C68647   4.964   6.727   7.078  0.5321  1.5555  0.3151
  509MOL0     H68648   4.965   7.051   6.482 -2.2852 -1.6536  3.4366
  509MOL0     H68649   4.974   6.959   6.236  0.6908 -1.5894 -1.2646
  509MOL0     H68650   4.851   6.776   6.059  0.4472  0.4881 -0.7158
  509MOL0     H68651   5.019   6.843   6.033 -1.5727  0.9133 -1.3140
  509MOL0     H68652   4.921   6.556   5.972 -0.4777 -0.2139 -0.0567
  509MOL0     H68653   5.085   6.618   5.963  0.2757 -2.6898 -1.1654
  509MOL0     H68654   4.997   6.785   5.787 -1.5018  0.3350 -0.2955
  509MOL0     H68655   4.847   6.703   5.776 -0.0502 -0.6759 -0.1856
  509MOL0     H68656   5.122   6.572   5.747 -0.7083 -2.1337 -0.1208
  509MOL0     H68657   4.962   6.498   5.720 -2.1280  0.3501 -1.2408
  509MOL0     H68658   4.910   6.655   5.523 -0.2957  2.6445 -0.2129
  509MOL0     H68659   5.054   6.742   5.563 -0.4389 -0.7514 -4.0165
  509MOL0     H68660   5.206   6.554   5.516 -0.0541  1.1689  0.2919
  509MOL0     H68661   5.058   6.444   5.517 -1.5106 -0.7631 -3.1515
  509MOL0     H68662   4.982   6.526   5.304 -1.8364  2.8459  1.5561
  509MOL0     H68663   5.157   6.471   5.279  1.3055  0.4412  0.1251
  509MOL0     H68664   5.019   6.734   5.313  0.1833 -1.7986  0.5345
  509MOL0     H68665   5.198   6.720   5.300  0.3206  2.6979 -0.1864
  509MOL0     H68666   5.213   6.516   5.051 -0.4455  0.9421 -0.2097
  509MOL0     H68667   5.237   6.512   4.805  0.2206  0.4537 -0.1092
  509MOL0     H68668   5.119   6.605   4.714 -1.5087  2.2314  1.9242
  509MOL0     H68669   5.336   6.776   4.848 -0.1497 -1.9541  2.2927
  509MOL0     H68670   5.367   6.683   4.704 -0.7306 -2.6483  1.1703
  509MOL0     H68671   5.129   6.854   4.711 -0.4795 -0.7690 -0.8995
  509MOL0     H68672   5.192   6.766   4.579  0.3018  1.4348 -0.4199
  509MOL0     H68673   5.400   6.888   4.543  0.8620  2.2937 -0.2518
  509MOL0     H68674   5.358   6.990   4.685  0.4870 -1.6299  2.0791
  509MOL0     H68675   5.318   7.254   4.613 -0.8072 -2.9870  0.9123
  509MOL0     H68676   5.449   7.415   4.468 -0.5225 -0.0482 -0.4707
  509MOL0     H68677   5.612   7.296   3.871 -0.8032  0.0349  3.3031
  509MOL0     H68678   5.765   7.353   3.709 -1.5920  2.8914 -0.3286
  509MOL0     H68679   6.052   7.670   3.705  1.9489  2.3173  1.5896
  509MOL0     H68680   6.117   7.634   3.864  0.9715  0.0595  0.0400
  509MOL0     H68681   6.214   7.493   3.613  1.6906  0.1517 -0.0018
  509MOL0     H68682   6.293   7.634   3.670 -0.2884  0.6056  0.8661
  509MOL0     H68683   6.284   7.356   3.798 -1.4933  0.5886  0.5466
  509MOL0     H68684   6.417   7.454   3.730 -1.3587  3.4383 -1.5793
  509MOL0     H68685   6.268   7.527   3.986  0.0123 -2.8653  0.2044
  509MOL0     H68686   6.427   7.595   3.929  2.0454 -0.5130  1.7410
  509MOL0     H68687   6.504   7.453   4.098  3.5648 -3.2880  0.3409
  509MOL0     H68688   6.520   7.363   3.938 -0.6134 -2.3356 -0.5303
  509MOL0     H68689   6.271   7.354   4.120  1.0557  2.4798 -2.0581
  509MOL0     H68690   6.314   7.222   4.011 -2.4857 -2.0244  1.6145
  509MOL0     H68691   6.476   7.276   4.264 -2.7227  0.5292  1.5735
  509MOL0     H68692   6.508   7.152   4.135  0.3423  0.1007 -0.3341
  509MOL0     H68693   6.376   7.069   4.328  0.4794 -1.1439  0.3834
  509MOL0     H68694   6.236   7.159   4.266  2.5668  3.3016  2.6895
  509MOL0     H68695   6.030   7.496   4.025 -1.3832  1.9565 -0.6176
  509MOL0     H68696   5.865   7.405   4.188 -1.9078 -0.2967 -0.4416
  509MOL0     H68697   5.492   7.091   4.175 -0.7917  0.7713 -0.4266
  509MOL0     H68698   5.324   6.969   4.307 -0.3202  0.6353 -0.2315
  509MOL0     H68699   5.046   6.573   6.411  1.1640  0.4670  0.1006
  509MOL0     H68700   5.000   6.651   6.636  0.3236 -1.0372  0.2986
  509MOL0     H68701   4.875   7.121   6.824 -0.8286  1.3467  1.7277
  509MOL0     H68702   4.920   7.257   7.029 -2.1598 -0.4205 -1.2049
  509MOL0     H68703   4.953   7.330   7.374 -1.8101  1.7716 -0.0784
  509MOL0     H68704   4.922   7.350   7.206  0.3998 -0.9938 -0.4822
  509MOL0     H68705   5.143   7.348   7.146 -0.1178 -2.6688  0.0960
  509MOL0     H68706   5.201   7.299   7.307  1.2996  0.6485 -2.4721
  509MOL0     H68707   5.138   7.531   7.402 -0.0659  0.8460 -0.3969
  509MOL0     H68708   5.040   7.566   7.271 -0.6519  0.2102  1.3204
  509MOL0     H68709   5.253   7.560   7.136  0.8299  1.1289 -0.1738
  509MOL0     H68710   5.220   7.695   7.252 -0.5486  0.0967 -1.2100
  509MOL0     H68711   5.562   7.424   7.345 -1.0135 -1.4303 -1.1906
  509MOL0     H68712   4.998   6.902   7.261  2.3420  0.0467  0.2916
  509MOL0     H68713   4.962   6.708   7.185  0.9057 -1.1176 -0.0913
  509MOL0     H68714   4.890   6.657   7.036  2.1923  0.6331 -1.2437
  509MOL0     H68715   5.058   6.686   7.040  0.6390 -0.0745  2.2252
  510MOL0     O68716   2.308   7.837  10.093  0.4955 -0.6224 -0.6381
  510MOL0     C68717   2.260   7.735  10.040 -0.3416 -0.1058  0.0338
  510MOL0     O68718   2.336   7.649   9.957  0.1482 -0.5842 -0.2348
  510MOL0     C68719   2.474   7.647   9.979 -0.0492  0.5074  0.3652
  510MOL0     C68720   2.529   7.559  10.073 -0.1115  0.2403  0.0629
  510MOL0     C68721   2.672   7.561  10.089  0.2632 -0.7807 -0.5351
  510MOL0     C68722   2.753   7.645  10.014  0.2461  1.1470  0.3652
  510MOL0     O68723   2.890   7.647  10.033 -0.5350  0.3344  0.6800
  510MOL0     C68724   2.978   7.721   9.944 -0.1230 -0.4746 -0.0587
  510MOL0     C68725   3.122   7.691   9.978 -0.9961  0.4693  0.2248
  510MOL0     C68726   3.178   7.788  10.085  0.2151 -0.0750  0.0054
  510MOL0     C68727   3.202   7.718  10.219 -0.5054 -0.9575 -0.2741
  510MOL0     C68728   3.246   7.812  10.331  0.2785 -0.2484  0.1241
  510MOL0     C68729   3.241   7.737  10.463 -1.0557  0.2398  0.2639
  510MOL0     C68730   3.339   7.812  10.564  0.3697 -0.2580  0.1646
  510MOL0     C68731   3.321   7.782  10.704  0.0418 -0.4951 -0.4249
  510MOL0     N68732   3.368   7.644  10.735  0.7478 -0.9874  1.3826
  510MOL0     C68733   3.477   7.616  10.810 -1.1861 -0.5014  0.7148
  510MOL0     C68734   3.499   7.474  10.807  0.6234  0.2834 -0.9767
  510MOL0     C68735   3.602   7.387  10.870 -0.0935  0.2555  1.0493
  510MOL0     C68736   3.578   7.373  11.021  0.1846  1.2326 -0.1868
  510MOL0     C68737   3.691   7.287  11.098  0.2335  0.0806  0.1096
  510MOL0     C68738   3.701   7.141  11.050  0.4981  0.3420  0.3236
  510MOL0     O68739   3.568   7.077  11.071 -0.2490  0.6990  0.0967
  510MOL0     C68740   3.559   6.941  11.077 -0.4813 -0.9755 -0.6932
  510MOL0     C68741   3.433   6.886  11.109  0.2813  0.1727 -0.4843
  510MOL0     C68742   3.413   6.744  11.125 -0.7167  0.5570 -0.2534
  510MOL0     C68743   3.523   6.662  11.107  0.3490  0.6649  0.0640
  510MOL0     C68744   3.517   6.527  11.141 -0.7466  1.4968  0.4767
  510MOL0     O68745   3.583   6.443  11.056 -0.5137 -0.6757 -0.8289
  510MOL0     C68746   3.673   6.341  11.095  0.1737 -0.3358  0.0093
  510MOL0     C68747   3.706   6.306  11.233 -0.7944  0.5765  0.1865
  510MOL0     C68748   3.802   6.214  11.257  0.2329  0.1813 -0.1767
  510MOL0     C68749   3.869   6.148  11.151 -0.4357 -0.0521 -0.4280
  510MOL0     O68750   3.962   6.046  11.171 -0.3084  0.0682 -0.0133
  510MOL0     C68751   3.891   5.923  11.203  0.0078 -0.4593  0.2345
  510MOL0     C68752   3.969   5.801  11.154  0.0613 -0.3892  0.6073
  510MOL0     C68753   4.020   5.804  11.015  0.2418  0.4422 -0.6980
  510MOL0     C68754   4.162   5.754  10.984 -0.6885 -0.3267  0.0469
  510MOL0     C68755   4.189   5.794  10.839  0.0743  0.5250  0.5902
  510MOL0     C68756   4.333   5.830  10.819 -0.2233  0.6401  0.3255
  510MOL0     C68757   4.362   5.978  10.851  0.0132  0.0873  0.6775
  510MOL0     C68758   4.499   6.016  10.832 -0.7486 -0.0659  0.1987
  510MOL0    Cl68759   4.556   6.014  10.672 -0.6059 -0.2384 -0.1410
  510MOL0     C68760   3.846   6.193  11.025  0.7778 -0.5205  0.5207
  510MOL0     C68761   3.745   6.282  10.994 -0.2976 -0.9993  0.3292
  510MOL0     O68762   3.447   6.476  11.234  0.3434  0.2751 -0.6157
  510MOL0     C68763   3.642   6.717  11.064 -0.0878 -0.9564  0.6601
  510MOL0     C68764   3.659   6.853  11.045 -0.2513  0.3202  0.1038
  510MOL0     N68765   3.383   7.426  10.748 -0.1204  0.4614 -0.1189
  510MOL0     N68766   3.312   7.526  10.694 -0.4166 -0.6761  0.1903
  510MOL0     C68767   2.692   7.737   9.929 -0.3287  0.8481 -0.3736
  510MOL0     C68768   2.551   7.752   9.925  0.8679  0.1416  0.7851
  510MOL0     C68769   2.123   7.691  10.076  0.0091  0.5917 -0.5107
  510MOL0     C68770   2.060   7.601   9.988 -0.4535 -0.0059 -0.6406
  510MOL0     C68771   1.919   7.578  10.006 -0.3763  0.5372 -0.6738
  510MOL0     C68772   1.848   7.630  10.112 -0.5732  0.1199  0.0127
  510MOL0     O68773   1.721   7.593  10.127  0.3476 -0.0304 -0.2662
  510MOL0     C68774   1.696   7.481  10.215 -0.0215  0.4033 -0.0127
  510MOL0     C68775   1.562   7.483  10.281  0.2647  0.3718  0.3442
  510MOL0     C68776   1.450   7.435  10.183 -0.3999  0.2506  0.0190
  510MOL0     C68777   1.304   7.447  10.244  0.1141 -1.2230  0.1082
  510MOL0     C68778   1.198   7.363  10.188  0.1553 -1.0984  0.1300
  510MOL0     C68779   1.122   7.284  10.135 -0.1853  0.2959 -0.8974
  510MOL0     C68780   1.910   7.716  10.202 -0.7635  0.3521  0.1396
  510MOL0     C68781   2.042   7.748  10.184  0.4510  1.4440  0.2363
  510MOL0     C68782   2.104   7.830  10.292 -0.0224 -0.4540 -0.5079
  510MOL0     H68783   2.475   7.479  10.122  0.1296  0.0006 -0.0557
  510MOL0     H68784   2.705   7.489  10.164  1.3172  0.3399  0.1203
  510MOL0     H68785   2.954   7.694   9.841 -0.8881 -2.4362  0.5803
  510MOL0     H68786   2.947   7.825   9.945  0.0263 -0.3722 -2.0711
  510MOL0     H68787   3.183   7.712   9.889 -1.4879 -2.0679 -0.7914
  510MOL0     H68788   3.139   7.585  10.000  1.5244  0.5638 -0.9213
  510MOL0     H68789   3.117   7.875  10.108 -0.4417 -0.6724  0.5558
  510MOL0     H68790   3.271   7.827  10.043  0.2377 -0.4938 -0.3351
  510MOL0     H68791   3.109   7.666  10.243 -0.9345 -1.1894 -2.2396
  510MOL0     H68792   3.285   7.647  10.209  0.2437 -0.2562  0.7519
  510MOL0     H68793   3.347   7.848  10.309  0.3282  1.6322  2.9108
  510MOL0     H68794   3.181   7.900  10.337 -1.4135 -1.4471  0.2027
  510MOL0     H68795   3.143   7.738  10.510 -0.4091 -3.0355  1.9999
  510MOL0     H68796   3.274   7.634  10.445  2.4820  1.4723 -1.2338
  510MOL0     H68797   3.318   7.919  10.557  1.0797 -0.1657 -0.7091
  510MOL0     H68798   3.438   7.785  10.526 -0.0125 -1.2242 -0.1628
  510MOL0     H68799   3.377   7.854  10.766 -0.6030 -0.6436  0.3546
  510MOL0     H68800   3.215   7.792  10.729  0.1453  0.5981 -0.3706
  510MOL0     H68801   3.557   7.683  10.839 -1.8133  1.4146 -1.5977
  510MOL0     H68802   3.615   7.288  10.826 -3.2644  0.0696  0.2801
  510MOL0     H68803   3.691   7.447  10.851  0.6788 -1.0904  0.3203
  510MOL0     H68804   3.564   7.474  11.060 -1.3084  1.1612 -0.4935
  510MOL0     H68805   3.488   7.314  11.040  1.2193 -0.4773 -0.3697
  510MOL0     H68806   3.680   7.277  11.206  2.3866 -4.6265  0.1351
  510MOL0     H68807   3.783   7.342  11.081  1.2714 -1.6238  0.0103
  510MOL0     H68808   3.769   7.092  11.120 -0.7196  1.0441  2.0968
  510MOL0     H68809   3.726   7.115  10.947  1.1741 -0.7936  0.7599
  510MOL0     H68810   3.353   6.954  11.136 -2.3611 -1.6159 -3.1840
  510MOL0     H68811   3.326   6.712  11.181 -0.3888  2.2416  1.3249
  510MOL0     H68812   3.652   6.353  11.314  0.6867  1.4997  0.6742
  510MOL0     H68813   3.820   6.174  11.356 -1.8083 -0.1769  0.0924
  510MOL0     H68814   3.885   5.907  11.311 -0.8239  1.1435  0.4478
  510MOL0     H68815   3.792   5.921  11.157 -0.2029 -1.0755  0.6972
  510MOL0     H68816   4.060   5.789  11.213  0.7522  1.3229 -0.0545
  510MOL0     H68817   3.906   5.714  11.172 -0.7493 -0.7888 -3.2057
  510MOL0     H68818   3.950   5.733  10.969 -0.6658 -1.7557  3.6090
  510MOL0     H68819   4.018   5.904  10.970  2.7889 -0.4007 -2.9452
  510MOL0     H68820   4.164   5.649  11.014  0.8317  0.4972  3.2771
  510MOL0     H68821   4.233   5.812  11.044 -0.5499  1.1662 -1.4994
  510MOL0     H68822   4.125   5.879  10.813 -2.5414 -1.2079  0.9222
  510MOL0     H68823   4.159   5.703  10.786 -1.3856  0.1006  2.0504
  510MOL0     H68824   4.395   5.760  10.875 -0.7237  0.3476  0.5250
  510MOL0     H68825   4.356   5.835  10.713  2.9892 -2.9664  0.6378
  510MOL0     H68826   4.331   6.000  10.954 -1.6492  3.7524 -0.4321
  510MOL0     H68827   4.301   6.038  10.782  0.3568 -0.4100 -0.0666
  510MOL0     H68828   4.506   6.121  10.862  0.4789  0.0249 -0.3283
  510MOL0     H68829   4.564   5.959  10.899  2.4293  1.5441 -1.2710
  510MOL0     H68830   3.908   6.142  10.952  2.6127 -2.9992  3.5462
  510MOL0     H68831   3.731   6.322  10.895  0.3552 -1.0346  0.2167
  510MOL0     H68832   3.729   6.652  11.062 -1.3549 -2.8032  2.3475
  510MOL0     H68833   3.751   6.889  11.002 -0.8690  1.6460 -0.1465
  510MOL0     H68834   2.744   7.794   9.852  1.2388 -2.6571 -2.1576
  510MOL0     H68835   2.489   7.814   9.861 -1.2585 -2.7620 -0.1866
  510MOL0     H68836   2.105   7.543   9.908  1.7264  0.7427 -0.0124
  510MOL0     H68837   1.869   7.504   9.944 -2.8218  0.2932  1.4254
  510MOL0     H68838   1.775   7.472  10.290 -0.8907 -0.3577  0.8442
  510MOL0     H68839   1.707   7.395  10.148 -4.4101 -1.3421  1.1683
  510MOL0     H68840   1.541   7.586  10.310 -2.3180  1.1872 -3.6200
  510MOL0     H68841   1.569   7.416  10.367 -3.3049 -1.4986 -0.6705
  510MOL0     H68842   1.471   7.334  10.148 -2.0033  0.2474 -1.0397
  510MOL0     H68843   1.465   7.507  10.102 -0.5915 -0.2856 -0.4955
  510MOL0     H68844   1.317   7.420  10.349  0.6044  4.2590  1.7476
  510MOL0     H68845   1.269   7.550  10.252 -0.0298 -1.1941 -0.8050
  510MOL0     H68846   1.046   7.215  10.106 -1.1436  1.2322 -0.6674
  510MOL0     H68847   1.843   7.767  10.270  2.2868  3.5393  1.0363
  510MOL0     H68848   2.047   7.838  10.385 -0.6672  1.3363 -1.0160
  510MOL0     H68849   2.209   7.803  10.307  0.3959 -0.0263 -2.4284
  510MOL0     H68850   2.107   7.934  10.257 -0.0532  0.0950  1.0216
  511MOL0     O68851   3.688   0.714   8.368 -0.3638  0.3649  0.8784
  511MOL0     C68852   3.717   0.597   8.329  0.3682 -0.1126 -0.9096
  511MOL0     O68853   3.629   0.514   8.268 -0.3079 -0.1893  0.1454
  511MOL0     C68854   3.498   0.551   8.283  0.0344 -0.0853 -0.3228
  511MOL0     C68855   3.432   0.624   8.182 -0.6710  0.9909 -0.4894
  511MOL0     C68856   3.297   0.661   8.199 -0.1620  0.0037  0.4654
  511MOL0     C68857   3.229   0.642   8.309 -0.4552 -0.7398  0.3291
  511MOL0     O68858   3.097   0.672   8.341  0.0590 -0.6486 -0.5734
  511MOL0     C68859   3.030   0.766   8.255  0.3218 -1.4345 -0.0518
  511MOL0     C68860   2.900   0.797   8.324 -0.3982  0.2179  0.4277
  511MOL0     C68861   2.790   0.699   8.286 -0.2033  0.1978 -0.5318
  511MOL0     C68862   2.659   0.741   8.350  0.6850 -0.4150 -0.1522
  511MOL0     C68863   2.541   0.662   8.292  0.0474  0.7698  0.0099
  511MOL0     C68864   2.561   0.507   8.300 -1.0228 -0.3780  0.3898
  511MOL0     C68865   2.449   0.427   8.232  0.6306  0.1369 -0.2194
  511MOL0     C68866   2.448   0.267   8.259 -0.2694  0.2184 -0.6996
  511MOL0     N68867   2.325   0.197   8.218 -0.2469  0.6002 -0.1535
  511MOL0     C68868   2.316   0.061   8.225  0.7242 -0.1986  0.6069
  511MOL0     C68869   2.198   0.032   8.174  0.2227  0.3957 -0.1611
  511MOL0     C68870   2.170  -0.112   8.155  0.1525  0.2600 -1.0926
  511MOL0     C68871   2.055  -0.150   8.257  0.6875 -0.8337  0.8347
  511MOL0     C68872   2.014  -0.299   8.229  0.5768 -0.1946  0.9523
  511MOL0     C68873   1.906  -0.344   8.329  0.0134 -0.2173  0.5079
  511MOL0     O68874   1.850  -0.467   8.300  0.0747  0.6744  0.6281
  511MOL0     C68875   1.908  -0.601   8.314  0.2551 -0.1472 -1.2419
  511MOL0     C68876   2.040  -0.618   8.364  0.2146 -0.0869 -0.0185
  511MOL0     C68877   2.099  -0.739   8.386 -0.3015  0.0453 -0.2656
  511MOL0     C68878   2.031  -0.860   8.356  0.1590 -0.0350  0.4800
  511MOL0     C68879   2.087  -0.986   8.387 -0.5904 -0.0675  0.0986
  511MOL0     O68880   1.996  -1.086   8.418  0.2250  0.0153  0.4373
  511MOL0     C68881   2.037  -1.221   8.440 -0.2488 -0.5528  0.6733
  511MOL0     C68882   1.965  -1.303   8.526  0.7527  0.0141  0.2959
  511MOL0     C68883   2.011  -1.431   8.558 -0.4920 -0.2858 -0.7864
  511MOL0     C68884   2.138  -1.477   8.516 -0.2392 -0.3448  0.0024
  511MOL0     O68885   2.163  -1.609   8.553 -0.1909  0.9891  0.0968
  511MOL0     C68886   2.303  -1.635   8.591 -0.3019 -0.3439 -0.0792
  511MOL0     C68887   2.308  -1.778   8.644  0.1703  0.5729 -0.3059
  511MOL0     C68888   2.278  -1.781   8.793  0.3544 -0.0072 -0.6507
  511MOL0     C68889   2.346  -1.902   8.864  0.0841  0.2473  0.0711
  511MOL0     C68890   2.318  -1.907   9.014 -0.0749  0.3109 -0.0824
  511MOL0     C68891   2.400  -2.033   9.050  0.4932 -0.7201 -0.4070
  511MOL0     C68892   2.435  -2.052   9.204 -0.3501  0.2588 -0.5578
  511MOL0     C68893   2.324  -2.093   9.295 -0.2014  0.6925 -0.1637
  511MOL0    Cl68894   2.197  -1.961   9.321  0.6148 -0.1865 -0.3234
  511MOL0     C68895   2.209  -1.401   8.418  0.2683  0.5003  0.4944
  511MOL0     C68896   2.150  -1.280   8.369  0.8779 -0.3561 -0.4252
  511MOL0     O68897   2.212  -0.996   8.378 -0.0048 -0.3666 -0.6791
  511MOL0     C68898   1.896  -0.852   8.304 -0.3188  0.4754  0.5513
  511MOL0     C68899   1.846  -0.721   8.283  0.5611  0.2608 -0.6295
  511MOL0     N68900   2.121   0.140   8.170  0.4417  0.3640  1.2601
  511MOL0     N68901   2.194   0.239   8.206 -0.0428  0.7155  0.3847
  511MOL0     C68902   3.295   0.577   8.416  0.2607 -0.9152  0.1956
  511MOL0     C68903   3.427   0.534   8.404  0.7580  0.2424  0.6284
  511MOL0     C68904   3.855   0.561   8.366 -0.0868 -0.1438 -0.0316
  511MOL0     C68905   3.876   0.494   8.484 -0.5948  0.0129  0.0036
  511MOL0     C68906   4.009   0.452   8.519 -0.3059 -0.7103  0.4182
  511MOL0     C68907   4.117   0.474   8.426  0.0325 -0.3240  0.6286
  511MOL0     O68908   4.239   0.437   8.468  0.0149 -0.1517 -0.7061
  511MOL0     C68909   4.343   0.529   8.449  0.1445 -0.0677  1.1195
  511MOL0     C68910   4.468   0.495   8.524 -0.5713  0.0068  0.0108
  511MOL0     C68911   4.456   0.518   8.671 -0.6858 -0.0433  0.5312
  511MOL0     C68912   4.546   0.455   8.771  0.2651  0.2983 -0.3388
  511MOL0     C68913   4.677   0.417   8.722 -0.7230  0.2184  0.7740
  511MOL0     C68914   4.788   0.397   8.683 -0.1732  0.4678  0.0360
  511MOL0     C68915   4.090   0.539   8.313  0.5081  0.1185  0.2601
  511MOL0     C68916   3.957   0.586   8.279  0.5083  1.1729 -0.4506
  511MOL0     C68917   3.938   0.648   8.143 -0.4959 -0.6847 -0.1212
  511MOL0     H68918   3.479   0.663   8.092  1.2584  1.3898  0.6344
  511MOL0     H68919   3.274   0.713   8.106 -3.9933 -1.1619  0.5619
  511MOL0     H68920   3.093   0.856   8.256 -1.0523 -0.3146  3.8331
  511MOL0     H68921   3.008   0.729   8.154 -2.0163  0.4422 -0.3211
  511MOL0     H68922   2.866   0.894   8.287 -0.0261 -0.0198 -0.5819
  511MOL0     H68923   2.926   0.797   8.430  1.7608 -2.5078  0.0275
  511MOL0     H68924   2.820   0.598   8.315  0.6270  0.1136 -1.6468
  511MOL0     H68925   2.764   0.694   8.180  1.9261  1.2949 -1.1681
  511MOL0     H68926   2.649   0.721   8.457 -0.1327  0.1543 -0.1066
  511MOL0     H68927   2.642   0.848   8.335 -0.6618 -0.7237 -1.0389
  511MOL0     H68928   2.451   0.685   8.350  3.3689  3.3761  4.8391
  511MOL0     H68929   2.517   0.689   8.189 -1.5034  2.7116  0.8176
  511MOL0     H68930   2.650   0.495   8.237 -0.4515 -0.7987  1.2644
  511MOL0     H68931   2.578   0.462   8.398  2.8769 -0.2197 -0.0634
  511MOL0     H68932   2.447   0.452   8.126  1.7557  1.5782  0.0750
  511MOL0     H68933   2.352   0.456   8.274  0.5820  1.3303 -1.1000
  511MOL0     H68934   2.529   0.215   8.206 -0.3979 -1.2566  0.4766
  511MOL0     H68935   2.456   0.253   8.367 -1.5968  1.9975 -0.3167
  511MOL0     H68936   2.397  -0.007   8.249  1.2138 -1.0737 -2.9844
  511MOL0     H68937   2.129  -0.137   8.057  0.2892 -0.7951 -0.8893
  511MOL0     H68938   2.258  -0.172   8.181 -0.9659  0.4899  4.5883
  511MOL0     H68939   2.094  -0.152   8.360  1.7826  2.3431  0.5800
  511MOL0     H68940   1.962  -0.094   8.249 -1.3688 -4.1925 -1.0277
  511MOL0     H68941   2.101  -0.365   8.234  0.4884 -0.3238  0.7791
  511MOL0     H68942   1.976  -0.304   8.127 -0.1059  2.7328  0.9856
  511MOL0     H68943   1.819  -0.278   8.326 -0.0535 -0.3384 -0.8184
  511MOL0     H68944   1.952  -0.345   8.428 -0.1843 -0.7317  0.5980
  511MOL0     H68945   2.099  -0.527   8.375  1.1430 -0.7048  0.2279
  511MOL0     H68946   2.205  -0.732   8.407  0.1073  0.6288 -2.2937
  511MOL0     H68947   1.877  -1.269   8.581 -0.5221 -0.5049 -1.3463
  511MOL0     H68948   1.934  -1.475   8.620 -1.9048  1.9181 -0.8619
  511MOL0     H68949   2.371  -1.615   8.508 -0.0908  0.2019  0.2178
  511MOL0     H68950   2.323  -1.568   8.676  1.3116 -3.1409  1.9221
  511MOL0     H68951   2.232  -1.836   8.591  1.9716 -3.9282  1.5794
  511MOL0     H68952   2.397  -1.838   8.621  1.0258  1.0150  1.6988
  511MOL0     H68953   2.323  -1.699   8.849  2.0742 -0.4070 -1.3609
  511MOL0     H68954   2.169  -1.781   8.803  0.3996  2.9255  0.7719
  511MOL0     H68955   2.454  -1.891   8.845  0.7084 -0.3212  2.7686
  511MOL0     H68956   2.305  -1.999   8.836  1.2649 -0.0375 -0.7582
  511MOL0     H68957   2.211  -1.927   9.027  0.1026 -0.3371  0.4222
  511MOL0     H68958   2.356  -1.818   9.065 -1.2333  0.5525  0.3897
  511MOL0     H68959   2.361  -2.124   9.004  0.2344  0.4247 -2.6104
  511MOL0     H68960   2.500  -2.014   9.009  0.9062  0.8709  1.2036
  511MOL0     H68961   2.481  -1.969   9.257  0.1174 -0.7310  0.6498
  511MOL0     H68962   2.508  -2.131   9.225 -0.6914 -0.3911 -1.7163
  511MOL0     H68963   2.271  -2.178   9.250  0.5148  0.2818 -0.2456
  511MOL0     H68964   2.367  -2.123   9.391  0.4837 -1.5886 -1.1076
  511MOL0     H68965   2.298  -1.443   8.374  1.2673  0.4886  2.4248
  511MOL0     H68966   2.205  -1.235   8.287  2.5488 -0.3037  0.6889
  511MOL0     H68967   1.827  -0.932   8.280 -0.8452  1.0256  0.1920
  511MOL0     H68968   1.743  -0.719   8.249  0.3256  1.7019  0.0585
  511MOL0     H68969   3.234   0.560   8.504 -0.0580 -0.1967  0.1243
  511MOL0     H68970   3.488   0.491   8.483  2.5026  1.1565 -0.1635
  511MOL0     H68971   3.786   0.482   8.544 -1.7409  0.5287 -1.5552
  511MOL0     H68972   4.027   0.392   8.607 -2.6226  0.3956  1.7465
  511MOL0     H68973   4.315   0.631   8.478 -1.0591 -0.7435  2.4879
  511MOL0     H68974   4.369   0.534   8.343  1.8733  1.0291  1.5567
  511MOL0     H68975   4.554   0.547   8.480 -0.9115 -0.2505 -0.9958
  511MOL0     H68976   4.475   0.387   8.503 -2.4803  0.1043 -1.4577
  511MOL0     H68977   4.350   0.506   8.696 -1.7796  1.6882 -2.7289
  511MOL0     H68978   4.468   0.626   8.687  0.4472  0.0069 -0.5158
  511MOL0     H68979   4.567   0.527   8.851 -2.4551  2.0692 -1.0697
  511MOL0     H68980   4.502   0.367   8.819  0.6881 -1.3267 -2.7737
  511MOL0     H68981   4.879   0.383   8.627 -0.0209  4.4411 -1.0207
  511MOL0     H68982   4.165   0.559   8.237  0.1055  3.4840  0.6090
  511MOL0     H68983   4.017   0.618   8.074  0.9824  2.7046 -0.1304
  511MOL0     H68984   3.840   0.628   8.099  0.2331  1.1720 -2.8689
  511MOL0     H68985   3.964   0.754   8.151  5.6281 -1.9373  1.3537
  512MOL0     O68986   5.494   8.867   2.440 -0.4229  0.2050 -0.1037
  512MOL0     C68987   5.509   8.762   2.375  0.2397 -0.3282  0.1279
  512MOL0     O68988   5.627   8.717   2.320  0.3156  0.0042 -0.4550
  512MOL0     C68989   5.743   8.788   2.357 -1.2100 -0.2381 -0.5301
  512MOL0     C68990   5.804   8.858   2.251 -0.2361 -0.0040 -0.3982
  512MOL0     C68991   5.933   8.901   2.252 -0.2091  0.6162  0.4287
  512MOL0     C68992   6.011   8.875   2.361 -0.3536  0.1461 -0.3838
  512MOL0     O68993   6.138   8.929   2.391  0.0491 -0.0695 -0.7512
  512MOL0     C68994   6.215   8.964   2.287 -0.1058  0.3870 -0.4395
  512MOL0     C68995   6.344   8.987   2.352 -0.3843 -0.9671 -1.0291
  512MOL0     C68996   6.452   9.016   2.246 -0.9234  0.7633  0.4421
  512MOL0     C68997   6.582   9.055   2.312 -0.5784 -0.8067  0.9149
  512MOL0     C68998   6.677   9.119   2.205  0.0442  1.1625 -0.5578
  512MOL0     C68999   6.788   9.200   2.269 -0.0731  1.5656 -0.1528
  512MOL0     C69000   6.922   9.120   2.286  0.1149 -0.2312  0.8156
  512MOL0     C69001   7.040   9.202   2.337 -0.2514  1.1301 -0.0231
  512MOL0     N69002   7.078   9.304   2.243 -0.9049  0.4133  0.2073
  512MOL0     C69003   7.170   9.404   2.271  0.2329  0.3735 -0.5322
  512MOL0     C69004   7.202   9.462   2.151  0.2795  0.5225  0.0142
  512MOL0     C69005   7.297   9.567   2.132  0.5528 -0.4786 -0.3364
  512MOL0     C69006   7.439   9.527   2.183 -0.6840 -0.0801  0.8724
  512MOL0     C69007   7.533   9.656   2.179 -0.0572 -0.5581  0.6249
  512MOL0     C69008   7.497   9.763   2.285  0.5453  0.1271  0.0390
  512MOL0     O69009   7.464   9.704   2.414  0.8453 -1.2201 -0.5825
  512MOL0     C69010   7.570   9.662   2.486  0.8855  0.1303 -0.6012
  512MOL0     C69011   7.539   9.560   2.578  0.0619 -0.6610 -0.5429
  512MOL0     C69012   7.639   9.512   2.659 -0.4253  1.1642  0.2026
  512MOL0     C69013   7.772   9.555   2.638 -0.5990  0.2615  0.2065
  512MOL0     C69014   7.880   9.498   2.716 -0.0897  0.3919  0.0969
  512MOL0     O69015   8.009   9.511   2.678  0.0949  1.0087 -0.3088
  512MOL0     C69016   8.098   9.438   2.756  0.0642 -0.4387 -0.3462
  512MOL0     C69017   8.177   9.334   2.689 -0.3645 -0.0009 -0.4583
  512MOL0     C69018   8.293   9.287   2.758 -0.4021 -0.0190  0.5981
  512MOL0     C69019   8.327   9.336   2.886  1.1188  0.0699  0.4609
  512MOL0     O69020   8.442   9.296   2.950  0.3071  0.4924 -0.1753
  512MOL0     C69021   8.461   9.151   2.940 -0.7018 -1.0822 -0.0362
  512MOL0     C69022   8.356   9.060   3.001 -1.0872 -0.2276  0.8914
  512MOL0     C69023   8.346   9.043   3.157 -0.1746 -0.8064 -0.2765
  512MOL0     C69024   8.284   9.178   3.202  1.1778  0.3883  0.8752
  512MOL0     C69025   8.248   9.192   3.353 -0.4040 -0.8915  0.8945
  512MOL0     C69026   8.145   9.094   3.408  0.5817  0.1318  0.4931
  512MOL0     C69027   8.174   9.058   3.554  0.0204  0.2635 -0.5411
  512MOL0     C69028   8.075   8.952   3.595  1.0140  0.2840 -0.7757
  512MOL0    Cl69029   8.103   8.782   3.533 -0.4232 -0.1221 -0.0603
  512MOL0     C69030   8.244   9.432   2.943 -0.0361  0.2690  0.2661
  512MOL0     C69031   8.141   9.497   2.876  0.4249 -0.1257 -0.8387
  512MOL0     O69032   7.844   9.444   2.817  0.7134 -0.3689  0.2089
  512MOL0     C69033   7.802   9.644   2.548 -0.5182  0.1488  1.4216
  512MOL0     C69034   7.707   9.700   2.471  0.4260 -0.8532  0.4420
  512MOL0     N69035   7.159   9.382   2.052  0.9435 -0.4793 -0.3040
  512MOL0     N69036   7.083   9.284   2.109 -1.2887  0.6895  0.4273
  512MOL0     C69037   5.960   8.811   2.477 -0.2891  0.2484 -0.2643
  512MOL0     C69038   5.825   8.768   2.472 -0.2058 -0.3238  0.0999
  512MOL0     C69039   5.385   8.718   2.310 -0.3825 -0.5953  0.5433
  512MOL0     C69040   5.385   8.716   2.170 -0.3876 -0.1504  0.5990
  512MOL0     C69041   5.268   8.681   2.097 -1.2578  0.2712  0.2094
  512MOL0     C69042   5.150   8.656   2.163 -1.1844 -1.5264 -0.8718
  512MOL0     O69043   5.046   8.637   2.079 -0.3317  0.0628 -0.3705
  512MOL0     C69044   4.939   8.550   2.128  0.4968 -0.3481 -0.0286
  512MOL0     C69045   4.960   8.398   2.142 -0.0414 -0.1506 -0.3181
  512MOL0     C69046   4.958   8.328   2.004  0.2590 -0.8293  0.7556
  512MOL0     C69047   5.069   8.220   1.992  0.4115 -1.2146 -0.5822
  512MOL0     C69048   5.075   8.150   2.118 -0.8731  0.4865  0.0017
  512MOL0     C69049   5.078   8.079   2.212 -0.2422 -0.0289  0.0417
  512MOL0     C69050   5.146   8.670   2.302  0.5120  0.4293 -0.7088
  512MOL0     C69051   5.264   8.699   2.381  0.4310  0.2488  0.2897
  512MOL0     C69052   5.250   8.711   2.524 -0.1400 -0.4049 -0.7409
  512MOL0     H69053   5.736   8.869   2.167  1.1663  1.3460 -1.4181
  512MOL0     H69054   5.978   8.959   2.172  0.7470 -0.8658 -0.1451
  512MOL0     H69055   6.221   8.891   2.206  1.3754  0.5295 -0.4987
  512MOL0     H69056   6.174   9.055   2.243  0.4309 -0.3211 -2.5063
  512MOL0     H69057   6.368   8.905   2.420 -4.8412 -1.2674  0.5287
  512MOL0     H69058   6.326   9.080   2.406 -0.5108 -0.8847 -1.2122
  512MOL0     H69059   6.404   9.094   2.186 -2.6999 -0.5174  0.1307
  512MOL0     H69060   6.471   8.929   2.183  0.7653  1.0671  0.4782
  512MOL0     H69061   6.568   9.127   2.393  0.5254 -0.5825  0.9206
  512MOL0     H69062   6.633   8.963   2.343 -0.4535 -1.4479 -1.0505
  512MOL0     H69063   6.712   9.041   2.135  2.1335 -1.7205  3.2964
  512MOL0     H69064   6.620   9.187   2.141  1.4632 -0.7109 -4.1369
  512MOL0     H69065   6.811   9.272   2.190 -3.0886 -0.8127 -3.5335
  512MOL0     H69066   6.756   9.257   2.357 -3.0175  0.4754 -0.3778
  512MOL0     H69067   6.958   9.077   2.192  1.6154 -0.8161  1.6213
  512MOL0     H69068   6.906   9.038   2.357 -1.6261 -0.6880 -0.0622
  512MOL0     H69069   7.006   9.235   2.436 -0.2583 -0.3502  0.4918
  512MOL0     H69070   7.123   9.133   2.353 -2.1587 -1.4943 -0.8156
  512MOL0     H69071   7.206   9.432   2.369 -0.5351 -1.0513  0.1791
  512MOL0     H69072   7.296   9.581   2.023 -0.3962 -0.3581 -0.3176
  512MOL0     H69073   7.244   9.650   2.180 -1.2105 -1.0629 -1.1876
  512MOL0     H69074   7.436   9.501   2.290 -5.0671  3.5945  1.9743
  512MOL0     H69075   7.467   9.444   2.118 -0.8128  0.3360  0.2764
  512MOL0     H69076   7.536   9.693   2.076 -2.1885 -0.6895  0.4689
  512MOL0     H69077   7.636   9.629   2.207  0.0846 -2.0992 -1.1510
  512MOL0     H69078   7.408   9.813   2.245  0.4722  0.3850  0.5100
  512MOL0     H69079   7.575   9.840   2.289  2.1507 -0.9764 -4.4353
  512MOL0     H69080   7.436   9.530   2.596  0.0627 -1.8138 -2.1930
  512MOL0     H69081   7.616   9.442   2.738 -0.7442 -0.3381 -1.1760
  512MOL0     H69082   8.159   9.306   2.586  0.4554 -3.8010  0.2920
  512MOL0     H69083   8.358   9.220   2.703  0.9745  1.6173  0.1311
  512MOL0     H69084   8.481   9.136   2.833 -2.3404  1.3828 -0.7715
  512MOL0     H69085   8.557   9.128   2.988  2.3532  2.4114 -3.6818
  512MOL0     H69086   8.260   9.099   2.965 -0.9152  0.6908  1.4054
  512MOL0     H69087   8.358   8.958   2.962  0.4070  0.5269 -1.1717
  512MOL0     H69088   8.302   8.947   3.184 -0.2268 -0.1166  2.3548
  512MOL0     H69089   8.448   9.029   3.195 -1.3212 -2.0699  2.6213
  512MOL0     H69090   8.187   9.205   3.159  2.0417  2.4804  0.0547
  512MOL0     H69091   8.351   9.261   3.177 -0.8153  1.3616 -1.6556
  512MOL0     H69092   8.239   9.300   3.372 -1.5596 -0.9250  0.6266
  512MOL0     H69093   8.343   9.164   3.399  1.3693 -1.5217 -2.7660
  512MOL0     H69094   8.051   9.146   3.388  0.9400  1.8048  2.8271
  512MOL0     H69095   8.148   9.016   3.330 -0.2860  1.8332 -1.3319
  512MOL0     H69096   8.151   9.151   3.607 -0.0536  0.7901 -1.4754
  512MOL0     H69097   8.281   9.039   3.563 -0.3454 -1.1638  1.5853
  512MOL0     H69098   8.075   8.935   3.703  0.0926  1.9501 -0.4843
  512MOL0     H69099   7.979   8.992   3.560  0.4110 -0.6136 -0.1985
  512MOL0     H69100   8.289   9.465   3.036 -0.8583  0.0723  0.7499
  512MOL0     H69101   8.089   9.581   2.921 -0.1219 -0.3566 -1.0381
  512MOL0     H69102   7.904   9.681   2.537 -0.8246  1.9033  3.7253
  512MOL0     H69103   7.732   9.776   2.398 -2.5761  1.4156  1.5431
  512MOL0     H69104   6.031   8.815   2.560 -2.8112 -1.4139  2.1428
  512MOL0     H69105   5.783   8.716   2.557  0.0226 -1.7928 -0.6430
  512MOL0     H69106   5.475   8.737   2.113 -0.1537  0.3025  1.1275
  512MOL0     H69107   5.256   8.661   1.991 -2.8317 -1.1061  0.6025
  512MOL0     H69108   4.869   8.558   2.044 -0.9246 -0.5050  1.0910
  512MOL0     H69109   4.894   8.577   2.224  1.0036 -1.8327  0.6464
  512MOL0     H69110   4.887   8.346   2.205 -0.6808  3.1756  1.9417
  512MOL0     H69111   5.064   8.387   2.177 -0.5355  4.3909  3.7145
  512MOL0     H69112   4.984   8.401   1.927  0.6354 -1.4945  0.2340
  512MOL0     H69113   4.858   8.290   1.980  1.7883 -5.5447  0.7137
  512MOL0     H69114   5.057   8.145   1.912  4.4419 -0.7586 -1.8582
  512MOL0     H69115   5.171   8.257   1.984  0.5617 -1.5236 -0.1519
  512MOL0     H69116   5.070   8.011   2.295 -0.5718  1.5717  1.3645
  512MOL0     H69117   5.054   8.648   2.355  0.6087 -1.6872 -1.3551
  512MOL0     H69118   5.210   8.617   2.564 -2.3321  1.7983  2.7767
  512MOL0     H69119   5.345   8.720   2.578 -0.1829  0.0874 -0.7453
  512MOL0     H69120   5.179   8.788   2.556  1.2567  0.6858 -0.1613
  513MOL0     O69121   0.477   4.893   0.168  0.5929  0.4467 -0.7192
  513MOL0     C69122   0.516   4.783   0.181 -0.0049  0.1418  0.4956
  513MOL0     O69123   0.646   4.745   0.188 -0.3688  0.0580  0.2669
  513MOL0     C69124   0.755   4.825   0.174 -0.6337 -0.5013 -0.4668
  513MOL0     C69125   0.855   4.778   0.093 -0.3849 -0.1999  0.4860
  513MOL0     C69126   0.958   4.869   0.063 -0.3830  0.4501 -0.5493
  513MOL0     C69127   0.965   5.001   0.111  0.2428  0.5713 -1.8785
  513MOL0     O69128   1.066   5.083   0.075 -0.1395 -0.5324  0.6575
  513MOL0     C69129   1.085   5.207   0.151  0.3377  0.1817 -0.8491
  513MOL0     C69130   1.185   5.302   0.097  0.1021  0.9211 -0.9149
  513MOL0     C69131   1.325   5.247   0.080 -1.0159 -0.3160  0.1739
  513MOL0     C69132   1.349   5.192  -0.068 -0.6364  0.2268 -0.1444
  513MOL0     C69133   1.488   5.141  -0.102 -0.4834  0.7489  0.2164
  513MOL0     C69134   1.593   5.249  -0.133 -0.0396 -0.0612  0.2950
  513MOL0     C69135   1.577   5.334  -0.264  0.0239 -0.4627 -0.3626
  513MOL0     C69136   1.684   5.440  -0.270  0.4521 -0.1830 -0.0708
  513MOL0     N69137   1.814   5.406  -0.328  0.0511 -0.1254  0.7544
  513MOL0     C69138   1.925   5.453  -0.271 -1.2357  1.1918 -0.4594
  513MOL0     C69139   2.029   5.421  -0.350 -0.1957 -0.2593 -0.1945
  513MOL0     C69140   2.169   5.445  -0.327 -0.3057  0.3419 -0.4383
  513MOL0     C69141   2.256   5.329  -0.278  0.6437  0.1136 -0.5719
  513MOL0     C69142   2.398   5.359  -0.237  0.1391 -0.2009 -0.2854
  513MOL0     C69143   2.431   5.417  -0.093  0.2774  0.4770  0.3231
  513MOL0     O69144   2.399   5.555  -0.094 -0.0567  0.6984  0.4675
  513MOL0     C69145   2.418   5.637   0.013 -0.8793 -0.0698  0.2803
  513MOL0     C69146   2.458   5.580   0.135 -0.4358 -0.6726 -0.2484
  513MOL0     C69147   2.464   5.655   0.256  0.9485  0.3861 -0.8078
  513MOL0     C69148   2.430   5.789   0.243 -0.6462  0.2860  0.3382
  513MOL0     C69149   2.424   5.875   0.355  0.6178  0.5247 -0.4082
  513MOL0     O69150   2.369   6.000   0.335 -0.4100 -0.2094  0.3120
  513MOL0     C69151   2.306   6.063   0.442 -0.1936  0.9916  1.2449
  513MOL0     C69152   2.308   6.198   0.458 -0.2810 -0.8327 -0.7702
  513MOL0     C69153   2.254   6.258   0.568 -0.1073  0.0111  0.4929
  513MOL0     C69154   2.174   6.180   0.661 -0.3175 -0.2382  0.2933
  513MOL0     O69155   2.115   6.225   0.777 -0.2616  0.3080 -0.3640
  513MOL0     C69156   2.190   6.334   0.846 -0.1229  0.3831  0.0566
  513MOL0     C69157   2.290   6.250   0.925  0.0131 -0.1328 -0.5317
  513MOL0     C69158   2.396   6.336   0.986 -0.7322  0.3389 -0.0010
  513MOL0     C69159   2.338   6.456   1.066 -0.1461  0.1692 -0.9626
  513MOL0     C69160   2.455   6.539   1.135 -0.4199 -1.1807 -0.8805
  513MOL0     C69161   2.417   6.644   1.237  0.1297  0.8786  0.4190
  513MOL0     C69162   2.535   6.717   1.313 -0.5141 -0.3724  0.1764
  513MOL0     C69163   2.560   6.673   1.457  0.5036 -0.4543  0.3042
  513MOL0    Cl69164   2.653   6.794   1.552 -0.3399  0.5509  0.0930
  513MOL0     C69165   2.171   6.044   0.638 -0.1580  0.5887 -0.1946
  513MOL0     C69166   2.240   5.985   0.534  0.2066  0.5324  0.3954
  513MOL0     O69167   2.479   5.839   0.464 -0.2159  0.6272 -0.2867
  513MOL0     C69168   2.404   5.844   0.113 -0.2181 -0.5759 -0.0222
  513MOL0     C69169   2.397   5.774   0.004 -0.1385  0.2394  0.9080
  513MOL0     N69170   1.970   5.340  -0.451 -0.2092 -0.2548  0.3365
  513MOL0     N69171   1.845   5.333  -0.440 -0.0027 -0.2490  0.3652
  513MOL0     C69172   0.857   5.041   0.191 -1.2153  0.4597  0.5476
  513MOL0     C69173   0.755   4.958   0.226 -0.7282  0.5173  0.9319
  513MOL0     C69174   0.426   4.667   0.202  1.1792 -0.2082  0.5724
  513MOL0     C69175   0.295   4.689   0.256  0.5421  0.0140 -0.2929
  513MOL0     C69176   0.209   4.584   0.286  0.7373  0.6356 -1.0385
  513MOL0     C69177   0.250   4.449   0.270 -0.4574 -0.3180  0.1425
  513MOL0     O69178   0.158   4.354   0.317 -0.9391  0.6672 -0.4050
  513MOL0     C69179   0.163   4.219   0.270 -0.4043  0.1594  0.2580
  513MOL0     C69180   0.027   4.149   0.276 -0.1052  0.0186  0.7447
  513MOL0     C69181  -0.008   4.139   0.418  0.7800  0.3009  0.4044
  513MOL0     C69182  -0.136   4.061   0.439  0.9828  0.8211 -0.3602
  513MOL0     C69183  -0.182   4.098   0.578  0.0695  0.8864 -0.4688
  513MOL0     C69184  -0.228   4.130   0.682 -0.0210  0.7031  0.5401
  513MOL0     C69185   0.373   4.427   0.221 -0.5066 -0.0000 -0.5537
  513MOL0     C69186   0.462   4.532   0.189 -0.4069 -0.8392 -0.0873
  513MOL0     C69187   0.599   4.488   0.130  0.1170 -0.9956  0.2649
  513MOL0     H69188   0.846   4.684   0.039 -3.5273  1.7633 -2.8619
  513MOL0     H69189   1.047   4.858   0.002  0.3958  2.4652  0.1272
  513MOL0     H69190   0.987   5.254   0.138 -0.4799 -1.5541 -1.3027
  513MOL0     H69191   1.100   5.184   0.257 -1.1475  0.8635 -0.4547
  513MOL0     H69192   1.179   5.389   0.162  0.7258  1.3277 -1.3890
  513MOL0     H69193   1.146   5.333  -0.000  1.5265 -0.0047 -1.8182
  513MOL0     H69194   1.332   5.164   0.151  2.3808 -0.9930 -0.7686
  513MOL0     H69195   1.406   5.315   0.108 -3.1556  2.5236 -0.0769
  513MOL0     H69196   1.285   5.105  -0.087 -2.7837  1.7377 -0.0730
  513MOL0     H69197   1.318   5.266  -0.143  1.9427 -2.7968 -4.7397
  513MOL0     H69198   1.515   5.081  -0.014 -2.1958  1.6325  1.4215
  513MOL0     H69199   1.478   5.071  -0.185 -0.1736 -0.7961  1.4369
  513MOL0     H69200   1.597   5.313  -0.044  0.3415 -1.4931  1.3452
  513MOL0     H69201   1.689   5.198  -0.145 -0.1263 -0.2727  0.4827
  513MOL0     H69202   1.484   5.389  -0.278  0.8332  0.9592 -0.3194
  513MOL0     H69203   1.589   5.280  -0.359  1.1347  0.1177 -0.5631
  513MOL0     H69204   1.641   5.512  -0.340 -1.0453 -0.3798  0.6202
  513MOL0     H69205   1.694   5.476  -0.167  2.8994 -0.4431 -0.1586
  513MOL0     H69206   1.939   5.505  -0.176  0.4653 -0.5761  0.3223
  513MOL0     H69207   2.215   5.473  -0.423  1.2043  2.0946  0.7157
  513MOL0     H69208   2.194   5.524  -0.256  0.5634  0.3852 -0.7721
  513MOL0     H69209   2.217   5.273  -0.191 -2.5981  1.7721 -0.7947
  513MOL0     H69210   2.257   5.256  -0.360  0.9738 -0.6686  0.1099
  513MOL0     H69211   2.454   5.431  -0.297  0.7188  1.1052  1.7268
  513MOL0     H69212   2.455   5.266  -0.250 -1.8363 -1.5777  0.4992
  513MOL0     H69213   2.538   5.416  -0.069 -0.0961 -1.1545  2.2715
  513MOL0     H69214   2.376   5.363  -0.015 -1.7395  0.0611 -1.3135
  513MOL0     H69215   2.461   5.472   0.144 -0.6579 -0.6970 -0.4420
  513MOL0     H69216   2.491   5.604   0.348  1.9808 -2.0503 -2.3540
  513MOL0     H69217   2.370   6.261   0.395  1.5882 -1.2424  0.5715
  513MOL0     H69218   2.278   6.363   0.582 -1.5408  0.4142  0.1574
  513MOL0     H69219   2.222   6.417   0.783 -0.0523  0.8072  0.6434
  513MOL0     H69220   2.129   6.383   0.923  1.9257  1.4126  1.0953
  513MOL0     H69221   2.233   6.200   1.003 -1.1106  1.7295 -0.0807
  513MOL0     H69222   2.337   6.172   0.866 -1.8535 -2.6018  1.0386
  513MOL0     H69223   2.462   6.282   1.053  1.6976  0.3080 -2.2489
  513MOL0     H69224   2.451   6.376   0.900 -1.3208  0.4521 -0.3290
  513MOL0     H69225   2.273   6.420   1.146  1.6401 -4.2541 -1.2304
  513MOL0     H69226   2.278   6.533   1.017  0.0492  1.5937  0.9411
  513MOL0     H69227   2.526   6.573   1.059  0.8515 -0.5050  0.5839
  513MOL0     H69228   2.521   6.471   1.190  1.9646  1.4063 -0.3443
  513MOL0     H69229   2.360   6.723   1.187 -1.6534 -0.5296  0.1483
  513MOL0     H69230   2.354   6.582   1.301 -2.2692  1.7445 -0.9716
  513MOL0     H69231   2.511   6.823   1.305  0.4909  0.1122  2.7373
  513MOL0     H69232   2.628   6.703   1.258 -1.3960  0.6082 -1.6535
  513MOL0     H69233   2.455   6.671   1.488 -0.1271  1.8729 -1.4288
  513MOL0     H69234   2.614   6.578   1.461 -1.1483 -1.6528 -2.8272
  513MOL0     H69235   2.121   5.979   0.710 -0.0099  1.0545  0.3406
  513MOL0     H69236   2.266   5.880   0.538  1.7980  0.7866 -1.6016
  513MOL0     H69237   2.380   5.950   0.105 -4.6139 -1.2124  2.1630
  513MOL0     H69238   2.365   5.828  -0.085 -2.0712 -1.2465  0.6305
  513MOL0     H69239   0.852   5.144   0.224 -0.0301  0.9365 -0.6915
  513MOL0     H69240   0.666   4.995   0.277 -4.3855 -0.1059 -4.2302
  513MOL0     H69241   0.277   4.794   0.278  2.7406  0.7392 -1.5973
  513MOL0     H69242   0.105   4.597   0.313  1.3023 -0.7205  2.3298
  513MOL0     H69243   0.239   4.167   0.329 -1.4727 -4.1878 -1.8261
  513MOL0     H69244   0.192   4.233   0.165  4.6371  0.4300  1.4430
  513MOL0     H69245   0.041   4.052   0.229  0.0426  0.7291 -0.7460
  513MOL0     H69246  -0.046   4.210   0.222 -0.9540 -0.6145  1.1732
  513MOL0     H69247  -0.016   4.243   0.452  1.1612  0.7385 -0.8115
  513MOL0     H69248   0.079   4.105   0.475  1.7316  0.6524 -0.7999
  513MOL0     H69249  -0.217   4.080   0.368  2.5866 -0.1467 -2.5722
  513MOL0     H69250  -0.116   3.953   0.448 -1.4564  0.3186 -0.3300
  513MOL0     H69251  -0.260   4.157   0.780 -3.0472 -1.2434  0.2173
  513MOL0     H69252   0.401   4.324   0.205 -2.1517 -0.6525  0.5146
  513MOL0     H69253   0.681   4.489   0.202  1.0098 -0.2672 -0.7157
  513MOL0     H69254   0.589   4.388   0.087  2.4400 -1.0109 -0.3747
  513MOL0     H69255   0.644   4.546   0.049  1.7171 -2.4016  0.0895
  514MOL0     O69256   4.513   2.995   1.795  0.1611 -0.4145  0.5192
  514MOL0     C69257   4.460   2.933   1.703 -0.7738  0.0217 -1.1942
  514MOL0     O69258   4.456   2.978   1.576 -0.3470 -0.6139  0.8101
  514MOL0     C69259   4.475   3.106   1.535  0.1602 -0.6006  0.3279
  514MOL0     C69260   4.495   3.218   1.615  0.4470  0.3991  0.1245
  514MOL0     C69261   4.489   3.352   1.568 -0.2280  1.4002 -0.2274
  514MOL0     C69262   4.468   3.373   1.429 -0.0183  0.5156  0.2851
  514MOL0     O69263   4.451   3.494   1.368  0.9444  0.2914  0.6745
  514MOL0     C69264   4.498   3.616   1.418  0.2189  0.3551 -0.7393
  514MOL0     C69265   4.533   3.719   1.308  0.2155 -0.6773 -0.5140
  514MOL0     C69266   4.581   3.854   1.368  0.0691 -0.1213  0.5344
  514MOL0     C69267   4.471   3.938   1.425 -0.2178 -1.1884 -0.6937
  514MOL0     C69268   4.514   4.081   1.437  0.3004 -0.5267  0.7843
  514MOL0     C69269   4.647   4.100   1.508 -0.0786 -0.0217 -0.5641
  514MOL0     C69270   4.696   4.244   1.519 -0.5632 -0.2095 -0.2076
  514MOL0     C69271   4.584   4.325   1.591  0.6870  1.4885  0.1053
  514MOL0     N69272   4.619   4.445   1.670 -0.1509 -0.8168 -0.0330
  514MOL0     C69273   4.693   4.436   1.781 -0.3966  0.1927  0.4736
  514MOL0     C69274   4.657   4.544   1.857  0.9764  0.2389  0.8320
  514MOL0     C69275   4.699   4.579   2.000 -1.1216  0.1500 -0.2409
  514MOL0     C69276   4.849   4.545   2.036 -0.0649 -0.0431 -0.6439
  514MOL0     C69277   4.857   4.457   2.161 -1.3775  0.3156 -0.6088
  514MOL0     C69278   4.808   4.313   2.138 -0.0467  0.2052 -0.2967
  514MOL0     O69279   4.873   4.270   2.022  0.1972  0.6462  0.2917
  514MOL0     C69280   4.836   4.141   1.967 -0.1279 -0.1886 -0.6375
  514MOL0     C69281   4.903   4.091   1.860 -0.5225 -0.5473  0.2225
  514MOL0     C69282   4.856   3.969   1.794 -0.9747 -0.0694  0.1345
  514MOL0     C69283   4.764   3.887   1.853  0.8170 -1.0782  0.1134
  514MOL0     C69284   4.722   3.754   1.815 -0.7335  0.6807  0.1130
  514MOL0     O69285   4.810   3.704   1.719 -0.2255  0.4676  0.2904
  514MOL0     C69286   4.815   3.569   1.687 -0.7335  1.0009 -0.6670
  514MOL0     C69287   4.837   3.534   1.558 -1.0691 -0.2818  0.0929
  514MOL0     C69288   4.863   3.405   1.513 -0.2416 -0.3042  0.3289
  514MOL0     C69289   4.837   3.298   1.603  0.0290 -1.0336 -0.1926
  514MOL0     O69290   4.848   3.179   1.549  0.6200 -0.0231  0.1827
  514MOL0     C69291   4.832   3.068   1.642 -0.1396 -0.6395 -0.3029
  514MOL0     C69292   4.817   2.937   1.555  0.9093  0.3319  0.7510
  514MOL0     C69293   4.820   2.808   1.643 -0.5211  1.0763 -0.1899
  514MOL0     C69294   4.727   2.696   1.591 -0.2068 -0.1592 -0.3367
  514MOL0     C69295   4.771   2.551   1.615 -0.4040 -0.4508  0.6891
  514MOL0     C69296   4.765   2.535   1.767 -0.3053  0.3681  0.9564
  514MOL0     C69297   4.804   2.391   1.804 -0.5454  0.9295  0.4235
  514MOL0     C69298   4.813   2.373   1.958 -0.2522  0.3048 -1.6607
  514MOL0    Cl69299   4.654   2.419   2.045  0.3701 -0.4660  0.1733
  514MOL0     C69300   4.815   3.327   1.739 -0.3298 -0.1169  0.5733
  514MOL0     C69301   4.802   3.466   1.768  0.0668  1.1860 -0.3156
  514MOL0     O69302   4.617   3.703   1.847  0.0183 -0.1695 -0.1280
  514MOL0     C69303   4.701   3.935   1.970 -0.1173  0.4513  1.0208
  514MOL0     C69304   4.727   4.062   2.021  0.8063  0.5147 -0.0747
  514MOL0     N69305   4.560   4.615   1.787 -0.8639  0.2388  0.6544
  514MOL0     N69306   4.538   4.557   1.672 -0.4369  0.5588 -0.6692
  514MOL0     C69307   4.469   3.263   1.343 -0.5313 -0.2687 -1.1699
  514MOL0     C69308   4.473   3.134   1.397 -0.9354 -0.2299  0.4020
  514MOL0     C69309   4.411   2.800   1.746 -0.0635  0.0550 -0.1648
  514MOL0     C69310   4.343   2.721   1.647  0.7165  0.0779 -1.0708
  514MOL0     C69311   4.292   2.592   1.660 -0.1604  0.7070 -0.5685
  514MOL0     C69312   4.289   2.545   1.787  0.3849 -0.9207  0.1093
  514MOL0     O69313   4.219   2.436   1.826 -0.0100  1.0205  0.1227
  514MOL0     C69314   4.087   2.424   1.769 -0.2484 -0.3812  0.0131
  514MOL0     C69315   4.000   2.334   1.855  0.3443  0.2065  0.1500
  514MOL0     C69316   4.005   2.378   1.995  0.0774  0.2120  0.3142
  514MOL0     C69317   3.899   2.326   2.084 -0.3109  0.9537  0.2511
  514MOL0     C69318   3.915   2.191   2.136 -0.7646  0.0172 -0.4367
  514MOL0     C69319   3.905   2.089   2.195  0.2121 -0.1672 -0.2019
  514MOL0     C69320   4.364   2.605   1.892  0.1982 -0.7925  0.1200
  514MOL0     C69321   4.418   2.733   1.872  0.1250  0.0415  0.2503
  514MOL0     C69322   4.512   2.791   1.977 -0.0633  0.2842  0.7951
  514MOL0     H69323   4.495   3.216   1.723  1.1169  0.6747  0.1350
  514MOL0     H69324   4.469   3.436   1.633 -0.8908  4.1071 -3.6587
  514MOL0     H69325   4.421   3.673   1.470 -0.4494 -1.7731  0.7286
  514MOL0     H69326   4.579   3.589   1.486 -3.3628 -3.4877  2.5873
  514MOL0     H69327   4.448   3.732   1.240 -0.4227 -0.8352  0.2516
  514MOL0     H69328   4.609   3.678   1.240  1.6471  1.6297 -0.4075
  514MOL0     H69329   4.633   3.919   1.297  2.8907 -0.0578  2.5055
  514MOL0     H69330   4.655   3.832   1.445  1.2449  0.7907 -0.2965
  514MOL0     H69331   4.376   3.938   1.371 -0.3918  2.0722 -0.6132
  514MOL0     H69332   4.450   3.902   1.526  1.7519  2.7267  1.3573
  514MOL0     H69333   4.527   4.122   1.336  2.7120 -0.0643  1.2431
  514MOL0     H69334   4.432   4.141   1.478 -0.3521  0.3619 -1.6320
  514MOL0     H69335   4.631   4.063   1.610 -0.1169 -0.9363 -0.8926
  514MOL0     H69336   4.731   4.045   1.463 -0.7740  0.3915 -2.4499
  514MOL0     H69337   4.723   4.291   1.425  1.7040 -4.0587 -1.7175
  514MOL0     H69338   4.789   4.239   1.576 -1.9504  0.2165  2.2929
  514MOL0     H69339   4.527   4.353   1.502  0.8259 -1.0026 -0.8250
  514MOL0     H69340   4.516   4.259   1.646 -0.0256  2.0451 -0.0857
  514MOL0     H69341   4.768   4.358   1.792 -2.3141 -2.5504 -3.1906
  514MOL0     H69342   4.671   4.683   2.018 -1.8802  0.0666 -0.8746
  514MOL0     H69343   4.638   4.529   2.076 -2.6949  1.4742 -0.5879
  514MOL0     H69344   4.912   4.508   1.955  2.7856  0.5546  1.1851
  514MOL0     H69345   4.896   4.641   2.056 -1.8151  0.8326 -0.5582
  514MOL0     H69346   4.804   4.490   2.250 -1.7415 -0.0549 -0.6885
  514MOL0     H69347   4.962   4.434   2.185 -1.3148 -1.0435 -1.9978
  514MOL0     H69348   4.699   4.310   2.126 -0.3416 -1.4746  2.0305
  514MOL0     H69349   4.828   4.253   2.227  0.2844  0.7998  0.0346
  514MOL0     H69350   4.983   4.147   1.813 -1.2208 -0.0106 -0.3537
  514MOL0     H69351   4.878   3.931   1.694 -1.5438  0.5091 -0.2209
  514MOL0     H69352   4.841   3.608   1.479  1.5226  0.1464  0.5325
  514MOL0     H69353   4.878   3.387   1.407  0.0750  3.2958 -0.3664
  514MOL0     H69354   4.916   3.070   1.712 -1.8637  1.3578  1.8643
  514MOL0     H69355   4.742   3.082   1.703 -2.1250  2.6404 -3.5400
  514MOL0     H69356   4.718   2.942   1.510  1.3826 -0.1449 -0.3885
  514MOL0     H69357   4.897   2.934   1.479  1.9858  7.0921  0.9572
  514MOL0     H69358   4.926   2.783   1.640  0.2095  3.6707  0.6933
  514MOL0     H69359   4.800   2.836   1.747  0.2002  2.5665 -0.4170
  514MOL0     H69360   4.729   2.716   1.483  4.1336  0.1360 -0.4059
  514MOL0     H69361   4.627   2.696   1.635  0.4403 -2.5252  1.2952
  514MOL0     H69362   4.879   2.540   1.598  0.1094 -0.8146  3.6217
  514MOL0     H69363   4.715   2.472   1.564  1.8188 -2.3439  0.9981
  514MOL0     H69364   4.837   2.599   1.818  1.4307 -0.7053 -0.0334
  514MOL0     H69365   4.665   2.550   1.809 -0.9804  2.0663 -1.0819
  514MOL0     H69366   4.895   2.356   1.756  1.8049  2.9018  3.0554
  514MOL0     H69367   4.723   2.325   1.772  0.0162 -1.3663  3.2840
  514MOL0     H69368   4.825   2.274   2.003 -1.4598  2.3716  4.0176
  514MOL0     H69369   4.897   2.430   2.001  1.7072 -3.2685 -0.3699
  514MOL0     H69370   4.805   3.247   1.811  0.2928  1.5683  2.6578
  514MOL0     H69371   4.779   3.483   1.873 -0.5301 -0.9857 -0.0505
  514MOL0     H69372   4.624   3.881   2.023 -1.4001  0.5903 -0.6309
  514MOL0     H69373   4.663   4.104   2.098 -1.0440 -2.0110 -0.1191
  514MOL0     H69374   4.452   3.280   1.237  1.5707  0.1451 -1.4842
  514MOL0     H69375   4.450   3.050   1.332 -0.7946  0.9398 -1.2256
  514MOL0     H69376   4.337   2.761   1.546 -1.1418  0.2432 -0.9343
  514MOL0     H69377   4.228   2.553   1.582  1.8276  1.2862 -2.5985
  514MOL0     H69378   4.078   2.405   1.661  0.3948 -0.6509  0.0022
  514MOL0     H69379   4.042   2.522   1.785  3.3084  1.5588 -0.6186
  514MOL0     H69380   4.044   2.234   1.858  2.1296  0.9309  4.1468
  514MOL0     H69381   3.895   2.333   1.822  0.6727  1.1118 -0.9964
  514MOL0     H69382   3.979   2.485   1.994  1.3673  0.6330  3.2897
  514MOL0     H69383   4.105   2.365   2.035  0.5576  0.1566 -0.8540
  514MOL0     H69384   3.880   2.390   2.170  0.5152 -1.8338  2.6376
  514MOL0     H69385   3.810   2.332   2.021 -1.6094  1.9634  2.0941
  514MOL0     H69386   3.883   2.000   2.249  0.7894 -1.0699 -1.3936
  514MOL0     H69387   4.371   2.562   1.992 -1.2080  1.8216  1.4392
  514MOL0     H69388   4.531   2.718   2.057  1.2059 -0.2312  0.0364
  514MOL0     H69389   4.598   2.835   1.926 -2.7862  2.7365 -2.0988
  514MOL0     H69390   4.469   2.885   2.013  0.2921  0.7373  0.0622
  515MOL0     O69391   0.925   7.443   5.883 -0.6701  0.3805 -0.4296
  515MOL0     C69392   0.875   7.335   5.923  1.3515 -0.4231 -0.6023
  515MOL0     O69393   0.741   7.297   5.923  0.7997 -0.6231 -0.2795
  515MOL0     C69394   0.638   7.388   5.912  1.2149 -0.7085  0.3945
  515MOL0     C69395   0.514   7.329   5.904  0.9554 -0.2395  0.5190
  515MOL0     C69396   0.390   7.403   5.878  0.0725  0.0946  0.6876
  515MOL0     C69397   0.390   7.540   5.878 -0.3281  0.6285 -0.7520
  515MOL0     O69398   0.283   7.628   5.862  0.8961 -0.2743 -0.8777
  515MOL0     C69399   0.151   7.601   5.900  0.0401 -0.2506  0.6165
  515MOL0     C69400   0.047   7.706   5.870 -0.3964 -0.9020 -0.3703
  515MOL0     C69401   0.063   7.831   5.964 -0.0554  0.6479 -0.0283
  515MOL0     C69402  -0.011   7.809   6.091 -0.7438  0.2377 -0.0491
  515MOL0     C69403  -0.007   7.937   6.182  0.2120  0.1513  0.3221
  515MOL0     C69404  -0.095   7.910   6.303  0.1006 -0.0241 -0.2835
  515MOL0     C69405  -0.242   7.890   6.282 -0.1264  0.0859 -0.2302
  515MOL0     C69406  -0.335   7.921   6.390  0.0474  0.6355  0.3828
  515MOL0     N69407  -0.294   7.863   6.516 -0.5079  0.2129 -0.3799
  515MOL0     C69408  -0.291   7.942   6.635  0.3553  0.2700  0.4695
  515MOL0     C69409  -0.264   7.857   6.731  0.7138  0.7173  0.3593
  515MOL0     C69410  -0.244   7.863   6.880 -0.2466  0.5577  1.3493
  515MOL0     C69411  -0.368   7.885   6.963 -0.3244 -0.1936  0.5560
  515MOL0     C69412  -0.480   7.784   6.934 -0.5834  0.1953  0.6703
  515MOL0     C69413  -0.440   7.633   6.926 -0.2795  0.6121 -0.2311
  515MOL0     O69414  -0.362   7.587   7.040  0.3616 -0.4850  0.0031
  515MOL0     C69415  -0.270   7.485   7.021 -0.1942  0.6594 -0.2856
  515MOL0     C69416  -0.172   7.471   7.125  0.7369 -0.3102 -1.6211
  515MOL0     C69417  -0.091   7.359   7.119  0.0672  0.4503  0.1772
  515MOL0     C69418  -0.086   7.271   7.012  0.3015 -0.6872 -0.7441
  515MOL0     C69419   0.003   7.144   6.999 -1.3405  0.1230 -0.0403
  515MOL0     O69420   0.071   7.106   7.115 -0.6916 -0.3732 -0.3261
  515MOL0     C69421   0.170   7.015   7.110 -0.4028  0.1707 -0.6276
  515MOL0     C69422   0.299   7.060   7.125 -0.5899 -0.1451  1.3084
  515MOL0     C69423   0.406   6.964   7.134  0.2713 -0.6642  0.9841
  515MOL0     C69424   0.383   6.829   7.107  0.4633 -0.7784  1.3279
  515MOL0     O69425   0.497   6.766   7.078 -0.1829  0.2164 -0.7750
  515MOL0     C69426   0.480   6.637   7.015  0.5844 -0.1383  0.3931
  515MOL0     C69427   0.612   6.562   6.990 -0.0100  0.2197 -0.3840
  515MOL0     C69428   0.695   6.635   6.895 -0.4880 -0.2766  0.2054
  515MOL0     C69429   0.679   6.580   6.750  0.7166 -1.1345  0.1276
  515MOL0     C69430   0.796   6.635   6.660  0.0976  0.3799  0.1190
  515MOL0     C69431   0.794   6.569   6.526  0.0517 -0.5190 -0.1024
  515MOL0     C69432   0.924   6.595   6.446  0.1892  0.5274  1.0500
  515MOL0     C69433   0.945   6.482   6.338  0.5901  0.4247  0.7121
  515MOL0    Cl69434   1.113   6.466   6.288  0.3129  0.2054 -0.1345
  515MOL0     C69435   0.253   6.791   7.076  0.8488  0.1258 -0.1790
  515MOL0     C69436   0.145   6.883   7.080 -0.0275  0.0211 -0.4629
  515MOL0     O69437   0.018   7.088   6.889 -0.0859  0.0322 -0.1920
  515MOL0     C69438  -0.176   7.294   6.907 -0.4921 -0.1836 -0.4895
  515MOL0     C69439  -0.266   7.402   6.910 -0.7025  0.4945 -0.1166
  515MOL0     N69440  -0.258   7.729   6.671 -0.0449  0.7474  0.2571
  515MOL0     N69441  -0.258   7.735   6.543  0.2437  0.2558  0.0718
  515MOL0     C69442   0.515   7.599   5.885 -0.6192  0.0689  0.0492
  515MOL0     C69443   0.635   7.525   5.908 -0.4957  0.4787 -0.3878
  515MOL0     C69444   0.966   7.217   5.958  0.2803 -0.7497  0.5955
  515MOL0     C69445   0.909   7.091   5.958 -0.6016 -0.0251  0.2020
  515MOL0     C69446   0.993   6.972   5.982 -0.1956  0.0972 -0.8514
  515MOL0     C69447   1.131   6.988   6.005  0.6239  0.8236  0.3194
  515MOL0     O69448   1.210   6.873   6.003  0.0373  0.7495 -0.2412
  515MOL0     C69449   1.350   6.890   5.997  0.0890 -0.6169 -0.6619
  515MOL0     C69450   1.406   6.753   6.014 -0.4091 -1.0697 -0.1166
  515MOL0     C69451   1.375   6.693   6.165 -0.3602  0.1281  0.2884
  515MOL0     C69452   1.477   6.734   6.273  0.5008  0.0328 -0.0243
  515MOL0     C69453   1.516   6.875   6.277 -1.0371  1.1012 -0.5242
  515MOL0     C69454   1.555   6.984   6.298 -0.0704 -0.1862  0.6490
  515MOL0     C69455   1.180   7.106   6.022  0.4579 -0.0211  0.0677
  515MOL0     C69456   1.100   7.225   5.996  0.8897  0.3392  0.3785
  515MOL0     C69457   1.167   7.357   6.010  0.4107 -0.3058 -0.5101
  515MOL0     H69458   0.497   7.223   5.920 -2.4410  0.3087  1.2961
  515MOL0     H69459   0.298   7.350   5.855 -0.1429  0.4174  0.7958
  515MOL0     H69460   0.128   7.506   5.850  0.6063  0.1545 -0.4552
  515MOL0     H69461   0.140   7.569   6.004 -1.2057 -3.0026 -0.2429
  515MOL0     H69462  -0.047   7.651   5.879 -0.8614  0.1771  1.9908
  515MOL0     H69463   0.048   7.744   5.767  0.1839 -3.0604 -1.2276
  515MOL0     H69464   0.015   7.921   5.925 -1.1048  0.4567  0.7706
  515MOL0     H69465   0.168   7.845   5.995 -0.1653 -0.6774  1.0241
  515MOL0     H69466  -0.116   7.812   6.061 -0.4375  0.7937 -1.1597
  515MOL0     H69467   0.025   7.718   6.138  0.7068  0.6431 -0.3179
  515MOL0     H69468   0.094   7.970   6.209  0.2693 -0.2579  0.6331
  515MOL0     H69469  -0.052   8.018   6.124 -4.9486 -1.1212  2.0354
  515MOL0     H69470  -0.054   7.821   6.351  0.1180 -1.9319 -3.5329
  515MOL0     H69471  -0.082   7.993   6.374 -1.0688  1.6432 -1.9184
  515MOL0     H69472  -0.262   7.790   6.242 -2.2260  0.3226  0.0965
  515MOL0     H69473  -0.278   7.952   6.200  0.7384  2.3888  1.0499
  515MOL0     H69474  -0.327   8.028   6.408  1.4526  0.6357 -0.1415
  515MOL0     H69475  -0.440   7.896   6.370  1.0607 -2.6217 -1.7712
  515MOL0     H69476  -0.317   8.047   6.643 -1.6995 -0.1387 -0.3033
  515MOL0     H69477  -0.189   7.779   6.924 -1.5563  0.4883  2.9439
  515MOL0     H69478  -0.175   7.944   6.905  2.5821 -0.8274 -1.2144
  515MOL0     H69479  -0.326   7.892   7.063  1.7730 -0.9626 -0.2200
  515MOL0     H69480  -0.396   7.990   6.949 -2.4073  0.1637  5.4447
  515MOL0     H69481  -0.541   7.807   6.846 -1.6048  0.3868  1.4052
  515MOL0     H69482  -0.548   7.799   7.019  1.0121  0.1483  2.0245
  515MOL0     H69483  -0.374   7.613   6.840  1.5256  1.6115  0.8532
  515MOL0     H69484  -0.528   7.568   6.921  0.7783 -0.9925  1.0065
  515MOL0     H69485  -0.186   7.535   7.212 -2.2264  0.2098 -2.3591
  515MOL0     H69486  -0.024   7.360   7.205 -1.5166 -1.6942  1.5493
  515MOL0     H69487   0.336   7.161   7.135  3.4975 -1.2939 -0.2084
  515MOL0     H69488   0.507   7.005   7.139 -0.1532  0.6381 -0.3703
  515MOL0     H69489   0.420   6.574   7.082  0.5014 -1.8189 -1.1853
  515MOL0     H69490   0.423   6.641   6.922  1.2593 -1.2766 -0.0923
  515MOL0     H69491   0.673   6.540   7.078  1.3446  1.8819 -0.8576
  515MOL0     H69492   0.574   6.467   6.950 -5.2890  0.3679  3.2890
  515MOL0     H69493   0.681   6.744   6.890  0.8153 -0.1227 -0.7614
  515MOL0     H69494   0.800   6.617   6.920  0.1749  2.3117 -0.3611
  515MOL0     H69495   0.574   6.590   6.719  1.1719  0.1389 -1.1143
  515MOL0     H69496   0.694   6.472   6.747 -3.3847 -1.8463 -2.2325
  515MOL0     H69497   0.887   6.600   6.710  0.4798 -0.0847 -0.8891
  515MOL0     H69498   0.796   6.745   6.654 -1.0597  0.5583  2.2049
  515MOL0     H69499   0.775   6.462   6.539  1.3572 -0.7581 -0.0236
  515MOL0     H69500   0.722   6.618   6.460  0.2245 -1.4726 -1.0153
  515MOL0     H69501   1.016   6.600   6.503  1.1653  0.5450 -0.4577
  515MOL0     H69502   0.919   6.689   6.389  0.9167 -0.7824 -1.3361
  515MOL0     H69503   0.905   6.387   6.373  1.1208 -0.1579 -0.2403
  515MOL0     H69504   0.885   6.509   6.251 -0.0774  0.7711  1.2607
  515MOL0     H69505   0.220   6.692   7.049 -1.0588  0.2129  1.6078
  515MOL0     H69506   0.044   6.850   7.056 -0.5423  0.1009  1.4598
  515MOL0     H69507  -0.174   7.243   6.811 -2.1128  0.1504 -0.7432
  515MOL0     H69508  -0.339   7.411   6.830 -0.2320  3.7947 -0.3075
  515MOL0     H69509   0.517   7.708   5.876 -0.6832 -0.0841 -2.5493
  515MOL0     H69510   0.724   7.587   5.915  0.4157 -0.7491 -0.7663
  515MOL0     H69511   0.802   7.074   5.954 -0.4678 -1.3338  1.2262
  515MOL0     H69512   0.953   6.871   5.977 -2.6306  0.8824  0.8262
  515MOL0     H69513   1.393   6.969   6.060 -2.0438  0.7150 -0.7838
  515MOL0     H69514   1.368   6.928   5.896 -1.2492 -0.0815 -0.7191
  515MOL0     H69515   1.513   6.740   5.995  0.3369  1.6370  1.8219
  515MOL0     H69516   1.356   6.697   5.934 -0.5430  1.0210 -1.5854
  515MOL0     H69517   1.369   6.585   6.155 -1.5844  0.3136 -1.7853
  515MOL0     H69518   1.277   6.723   6.203 -0.4977 -1.1668  0.9767
  515MOL0     H69519   1.439   6.700   6.370 -0.9425 -0.3786 -0.7021
  515MOL0     H69520   1.566   6.675   6.250  0.0103 -0.0784 -1.8066
  515MOL0     H69521   1.583   7.087   6.287 -0.0332 -0.3894 -1.5886
  515MOL0     H69522   1.273   7.133   6.071  0.3037  4.7192 -1.7195
  515MOL0     H69523   1.113   7.414   6.086  1.0443 -0.9168  0.4196
  515MOL0     H69524   1.273   7.350   6.035  0.0552  0.5434  1.4534
  515MOL0     H69525   1.167   7.418   5.919 -0.5104 -0.9153 -0.9379
  516MOL0     O69526   3.832   5.645   4.681  0.3454 -0.0017  0.7169
  516MOL0     C69527   3.740   5.628   4.753  1.0029  1.2421 -0.6851
  516MOL0     O69528   3.713   5.690   4.869 -0.9467 -0.2325  0.4322
  516MOL0     C69529   3.781   5.809   4.901  0.1975  0.6219 -0.2571
  516MOL0     C69530   3.884   5.808   4.997 -0.5765  1.2551  0.2486
  516MOL0     C69531   3.943   5.924   5.046 -0.9046  0.8088 -0.5380
  516MOL0     C69532   3.893   6.045   5.000  0.2639  0.0964 -0.3928
  516MOL0     O69533   3.947   6.165   5.048  0.9350 -0.6184 -0.7429
  516MOL0     C69534   3.883   6.289   5.037 -0.6048 -0.7666 -0.2243
  516MOL0     C69535   3.761   6.301   5.126  0.1347 -0.7890  1.0213
  516MOL0     C69536   3.689   6.436   5.081  0.4952  0.2031 -0.1931
  516MOL0     C69537   3.776   6.568   5.087  0.2108 -0.7783 -0.5120
  516MOL0     C69538   3.821   6.613   5.222 -0.4623  0.1701 -0.6653
  516MOL0     C69539   3.718   6.637   5.334 -0.4949 -0.8580 -0.8180
  516MOL0     C69540   3.645   6.762   5.297 -0.2715  0.5239  0.2192
  516MOL0     C69541   3.551   6.791   5.411  0.1543  0.1794 -0.0251
  516MOL0     N69542   3.603   6.911   5.487 -1.4572 -0.2445 -0.1660
  516MOL0     C69543   3.687   6.907   5.590  0.3218  0.0050  1.2571
  516MOL0     C69544   3.715   7.036   5.618  1.2380 -0.2714  0.1930
  516MOL0     C69545   3.821   7.089   5.715  0.5063  0.2305 -0.4933
  516MOL0     C69546   3.949   7.117   5.650  0.3448  0.3395  0.4094
  516MOL0     C69547   4.054   7.185   5.744  0.2251  0.2765 -0.1715
  516MOL0     C69548   4.172   7.239   5.667 -0.0032  0.6701 -0.3033
  516MOL0     O69549   4.281   7.254   5.768 -0.2346  0.5826 -0.4628
  516MOL0     C69550   4.295   7.368   5.840 -0.3442 -0.9280 -0.3307
  516MOL0     C69551   4.415   7.370   5.915  0.1749  0.1511 -0.5894
  516MOL0     C69552   4.461   7.482   5.982 -0.3444  0.1395 -0.2721
  516MOL0     C69553   4.379   7.600   5.992 -0.1325 -0.0912 -0.7501
  516MOL0     C69554   4.423   7.711   6.083 -0.1951 -0.4096  0.2778
  516MOL0     O69555   4.555   7.714   6.126  0.0658 -0.5301  0.9626
  516MOL0     C69556   4.612   7.826   6.177  0.5322 -1.3049  0.2902
  516MOL0     C69557   4.556   7.958   6.151 -0.5031 -0.1428  0.2045
  516MOL0     C69558   4.627   8.065   6.193 -0.2555  0.3619  0.5160
  516MOL0     C69559   4.740   8.057   6.261  0.0308  0.1225  0.1879
  516MOL0     O69560   4.792   8.176   6.307  0.3003  0.4324 -0.1890
  516MOL0     C69561   4.922   8.186   6.357  0.0682 -0.1264 -0.7219
  516MOL0     C69562   4.962   8.321   6.410 -0.7935 -0.5868  0.3468
  516MOL0     C69563   4.954   8.430   6.307 -0.3865 -1.1556 -0.1976
  516MOL0     C69564   4.995   8.560   6.367  0.9823 -0.2272 -0.6468
  516MOL0     C69565   4.926   8.682   6.301 -0.3032 -0.5696  0.3575
  516MOL0     C69566   4.942   8.797   6.385  0.8582  0.0514 -0.8320
  516MOL0     C69567   4.901   8.937   6.330  0.5652  0.0120 -0.1294
  516MOL0     C69568   4.943   9.034   6.431 -0.3377 -1.3156  0.0205
  516MOL0    Cl69569   4.973   9.187   6.355  0.4085 -0.2240  0.1610
  516MOL0     C69570   4.797   7.931   6.288  0.0182 -0.3135 -0.7410
  516MOL0     C69571   4.732   7.819   6.238  0.4904  1.0334 -0.2512
  516MOL0     O69572   4.334   7.797   6.108  0.0385  0.3129 -0.3625
  516MOL0     C69573   4.256   7.601   5.924  0.0342  0.2316  0.2962
  516MOL0     C69574   4.217   7.487   5.843 -0.5670 -0.2237 -0.1841
  516MOL0     N69575   3.656   7.119   5.532  0.5675  0.4834  0.2302
  516MOL0     N69576   3.590   7.041   5.451  1.0944  0.0657 -0.2753
  516MOL0     C69577   3.791   6.051   4.897 -0.2278  0.8915 -0.7898
  516MOL0     C69578   3.744   5.929   4.838  0.5673  0.5534 -0.5350
  516MOL0     C69579   3.640   5.524   4.703  0.1477 -1.2201  0.3498
  516MOL0     C69580   3.544   5.494   4.797 -0.5345 -1.4755  0.5155
  516MOL0     C69581   3.452   5.391   4.778  0.1260 -1.0426  0.7100
  516MOL0     C69582   3.467   5.313   4.664 -0.0209  0.2033  0.2894
  516MOL0     O69583   3.379   5.212   4.631  0.2535 -0.8792 -0.5256
  516MOL0     C69584   3.253   5.199   4.707 -0.9565  1.5997 -0.6891
  516MOL0     C69585   3.282   5.098   4.818 -0.0784 -0.5729  0.3701
  516MOL0     C69586   3.169   5.018   4.872 -0.0697  0.9760 -0.3076
  516MOL0     C69587   3.209   4.952   5.008  0.2153  0.5331 -0.9470
  516MOL0     C69588   3.189   5.052   5.113  0.4630 -0.1186  1.3137
  516MOL0     C69589   3.165   5.143   5.187  0.6064  0.0597 -0.1370
  516MOL0     C69590   3.561   5.336   4.568  0.7025 -0.5731 -0.3708
  516MOL0     C69591   3.652   5.437   4.588 -0.3279 -0.1607  0.5092
  516MOL0     C69592   3.767   5.438   4.486  0.3564 -0.3502 -0.0491
  516MOL0     H69593   3.898   5.716   5.052 -1.3564 -0.1313 -1.7453
  516MOL0     H69594   4.030   5.912   5.109  1.1476 -1.1734 -3.4366
  516MOL0     H69595   3.961   6.363   5.060 -0.1190 -0.3979 -2.6930
  516MOL0     H69596   3.859   6.327   4.937  3.7135 -2.6921 -2.2910
  516MOL0     H69597   3.775   6.302   5.234  1.8107 -0.6150  0.8268
  516MOL0     H69598   3.679   6.232   5.104  0.8374 -2.3860  3.0860
  516MOL0     H69599   3.598   6.452   5.140  0.4181  1.2046 -0.5703
  516MOL0     H69600   3.664   6.434   4.975 -1.9526  0.3867  0.3223
  516MOL0     H69601   3.865   6.554   5.025 -0.3338 -4.0517 -0.7485
  516MOL0     H69602   3.725   6.650   5.037  2.8815  0.0373 -2.1265
  516MOL0     H69603   3.888   6.532   5.251  1.1903  1.4215 -0.7886
  516MOL0     H69604   3.887   6.698   5.200 -1.5348  0.0469 -5.5629
  516MOL0     H69605   3.646   6.554   5.335 -1.0083 -0.4899  2.1578
  516MOL0     H69606   3.769   6.650   5.429  1.6314  2.1999 -2.2050
  516MOL0     H69607   3.577   6.748   5.212 -2.0372  1.8390  1.3566
  516MOL0     H69608   3.713   6.846   5.281  3.9503 -2.1560  2.4644
  516MOL0     H69609   3.451   6.817   5.376 -0.9377 -0.3521  2.4550
  516MOL0     H69610   3.545   6.710   5.484  0.3661 -1.0763 -1.3603
  516MOL0     H69611   3.733   6.823   5.641  1.1984 -0.4674 -0.2477
  516MOL0     H69612   3.779   7.172   5.771  2.0703  2.4841 -2.4646
  516MOL0     H69613   3.835   7.007   5.786  2.5417 -1.4722 -2.6748
  516MOL0     H69614   4.005   7.036   5.602  1.0174  2.2989 -2.3941
  516MOL0     H69615   3.922   7.182   5.566 -2.4569 -0.2793  0.7412
  516MOL0     H69616   4.101   7.114   5.813  0.0489 -1.3308 -1.6452
  516MOL0     H69617   4.018   7.268   5.806  2.9035 -0.7112  2.9889
  516MOL0     H69618   4.147   7.337   5.626  0.2192  1.5745  1.6015
  516MOL0     H69619   4.197   7.178   5.579 -1.9678 -0.9471  0.1877
  516MOL0     H69620   4.482   7.286   5.909  1.5896  1.2446 -0.6032
  516MOL0     H69621   4.562   7.471   6.020 -0.1343 -0.7117 -1.0440
  516MOL0     H69622   4.467   7.983   6.094  0.4274  3.3628  0.0379
  516MOL0     H69623   4.593   8.162   6.160  0.0143  1.1065  2.2804
  516MOL0     H69624   4.927   8.125   6.447  0.1084  3.5297  2.0132
  516MOL0     H69625   4.997   8.153   6.284  0.9691  2.1927 -0.9482
  516MOL0     H69626   4.901   8.355   6.494  0.7094 -0.8882  1.5973
  516MOL0     H69627   5.065   8.313   6.445 -0.0701 -3.6021 -2.0227
  516MOL0     H69628   5.013   8.396   6.221  0.8532 -2.4876  1.1146
  516MOL0     H69629   4.848   8.435   6.281 -0.9411 -1.2799  1.8858
  516MOL0     H69630   5.105   8.556   6.372  0.9584 -1.0702 -0.6867
  516MOL0     H69631   4.974   8.561   6.474  0.4758  1.4196 -0.7304
  516MOL0     H69632   4.821   8.653   6.307  0.2694 -3.7911 -2.4522
  516MOL0     H69633   4.966   8.703   6.202  4.8049 -1.3446  1.9816
  516MOL0     H69634   4.886   8.792   6.479  1.6984  0.8539 -0.2667
  516MOL0     H69635   5.049   8.791   6.408  1.0291 -0.3599 -1.7063
  516MOL0     H69636   4.792   8.931   6.321  0.2568  0.3887  2.4921
  516MOL0     H69637   4.956   8.965   6.240 -0.9795 -0.6083 -1.2927
  516MOL0     H69638   4.879   9.036   6.519  1.5474  0.6673  1.4672
  516MOL0     H69639   5.038   9.006   6.478  0.3216  0.1202 -0.3950
  516MOL0     H69640   4.897   7.922   6.332  0.9804  0.9705 -2.5388
  516MOL0     H69641   4.778   7.721   6.243 -2.1856 -0.3781 -1.2774
  516MOL0     H69642   4.187   7.684   5.933  1.3164  1.1943  1.7379
  516MOL0     H69643   4.130   7.500   5.780 -0.6434  0.4981  0.0678
  516MOL0     H69644   3.731   6.141   4.884  0.7323  1.5964 -0.4856
  516MOL0     H69645   3.663   5.929   4.766  1.1054  5.0391 -1.4482
  516MOL0     H69646   3.555   5.540   4.895  1.0705 -0.0058 -0.2958
  516MOL0     H69647   3.375   5.384   4.854  0.4055  1.6925  1.3420
  516MOL0     H69648   3.179   5.170   4.632  0.3049 -0.3948 -1.2511
  516MOL0     H69649   3.207   5.283   4.760 -0.5740  0.6557  1.2248
  516MOL0     H69650   3.312   5.165   4.899 -1.0674  0.3064  0.0283
  516MOL0     H69651   3.359   5.034   4.773 -0.1363  0.5639 -1.4490
  516MOL0     H69652   3.146   4.952   4.787 -1.9440  0.3677  0.6115
  516MOL0     H69653   3.072   5.067   4.885 -1.1927 -1.0401 -0.6283
  516MOL0     H69654   3.150   4.864   5.035  1.1473 -0.0640 -0.7973
  516MOL0     H69655   3.316   4.931   5.011  0.1993  0.5676  0.0286
  516MOL0     H69656   3.154   5.240   5.231 -1.1814  1.0068 -2.4570
  516MOL0     H69657   3.581   5.276   4.480  0.1697  1.1730 -1.7382
  516MOL0     H69658   3.860   5.492   4.506  1.4952 -2.5794  0.9877
  516MOL0     H69659   3.800   5.336   4.463 -0.4319 -0.4629 -0.7659
  516MOL0     H69660   3.720   5.489   4.401  3.4123  2.1988 -0.3908
  517MOL0     O69661   4.319   3.901   3.428  0.2549 -0.0596 -0.7233
  517MOL0     C69662   4.336   3.814   3.516  0.3361 -0.8703  1.1408
  517MOL0     O69663   4.424   3.823   3.621  0.3041 -0.3132 -0.5824
  517MOL0     C69664   4.497   3.927   3.664  0.5510 -0.8010 -0.5875
  517MOL0     C69665   4.448   4.057   3.651 -0.0202 -0.2854 -0.2096
  517MOL0     C69666   4.520   4.163   3.712  0.1702  0.2967  0.3272
  517MOL0     C69667   4.648   4.133   3.779 -0.0036 -0.0767 -0.1336
  517MOL0     O69668   4.707   4.231   3.856  0.8663  0.8357  0.2219
  517MOL0     C69669   4.746   4.201   3.994  0.8832 -0.2943  1.1558
  517MOL0     C69670   4.630   4.209   4.105 -0.0997 -0.3482 -0.1037
  517MOL0     C69671   4.677   4.194   4.256  0.4282 -0.6458  0.2316
  517MOL0     C69672   4.782   4.298   4.291 -0.9932 -0.2466 -0.0207
  517MOL0     C69673   4.795   4.308   4.438 -1.0329 -0.2683 -1.0763
  517MOL0     C69674   4.856   4.435   4.469  0.1112  0.8534  0.1788
  517MOL0     C69675   4.908   4.434   4.621 -0.0895  0.3574  0.0628
  517MOL0     C69676   4.985   4.556   4.644  0.3144 -0.0784 -0.0455
  517MOL0     N69677   5.053   4.558   4.773  0.0382  0.4545  0.4141
  517MOL0     C69678   5.147   4.645   4.804  0.1272 -0.6394 -0.2319
  517MOL0     C69679   5.177   4.612   4.940  0.3469  1.1039 -0.3774
  517MOL0     C69680   5.275   4.694   5.022 -0.4847  0.2773  0.7157
  517MOL0     C69681   5.221   4.727   5.171 -0.4215  0.0985  0.2636
  517MOL0     C69682   5.110   4.828   5.147  1.0538  0.4726 -0.3005
  517MOL0     C69683   5.155   4.971   5.113 -0.3827  0.0523  0.7399
  517MOL0     O69684   5.242   5.025   5.215  0.4288 -0.2667 -0.0216
  517MOL0     C69685   5.182   5.049   5.336  0.4074 -0.1790  0.0682
  517MOL0     C69686   5.243   5.014   5.447  0.1664  0.2606 -1.8743
  517MOL0     C69687   5.183   5.039   5.573 -0.6619 -0.1440 -0.3678
  517MOL0     C69688   5.049   5.081   5.583  0.0057  0.5674 -0.6451
  517MOL0     C69689   4.984   5.104   5.713  0.4770  0.1417  0.2656
  517MOL0     O69690   4.854   5.120   5.726  0.4656 -0.6407  0.0122
  517MOL0     C69691   4.806   5.170   5.842  0.0535 -0.6793 -1.3434
  517MOL0     C69692   4.863   5.245   5.947  0.1301  0.1137  0.2723
  517MOL0     C69693   4.794   5.285   6.063  0.5390  0.0783  0.2169
  517MOL0     C69694   4.654   5.246   6.065 -0.1053  0.7188 -0.7438
  517MOL0     O69695   4.565   5.290   6.162  0.5097  0.7009 -0.0262
  517MOL0     C69696   4.556   5.421   6.205  0.3680  0.3019  0.2549
  517MOL0     C69697   4.514   5.443   6.353 -0.8291  0.8082 -1.1495
  517MOL0     C69698   4.624   5.389   6.447  1.3313 -0.1242  0.6853
  517MOL0     C69699   4.602   5.462   6.585  0.5714  0.6299  0.4828
  517MOL0     C69700   4.696   5.416   6.703  0.3232 -0.4934 -0.8727
  517MOL0     C69701   4.835   5.467   6.688 -0.7559 -0.5584  0.1654
  517MOL0     C69702   4.918   5.422   6.809 -0.6024 -0.6765 -0.6352
  517MOL0     C69703   5.040   5.519   6.835  0.0849  0.0175  0.3266
  517MOL0    Cl69704   5.139   5.554   6.688 -0.0317  0.1102  0.5801
  517MOL0     C69705   4.596   5.167   5.980  0.7083 -0.3122 -0.6441
  517MOL0     C69706   4.669   5.139   5.869  0.1073  0.7530 -0.2331
  517MOL0     O69707   5.060   5.101   5.803 -0.1218 -0.4764 -0.1670
  517MOL0     C69708   4.987   5.122   5.460  0.0424  0.1975 -0.2252
  517MOL0     C69709   5.062   5.118   5.344  0.5438 -0.9111 -0.4526
  517MOL0     N69710   5.098   4.492   4.972 -0.5706  1.0287  0.0609
  517MOL0     N69711   5.033   4.465   4.865 -0.2471  0.2706  0.3783
  517MOL0     C69712   4.687   3.994   3.788  0.2592  0.9392  0.2107
  517MOL0     C69713   4.610   3.900   3.733  0.1661  0.2093  0.5122
  517MOL0     C69714   4.246   3.707   3.481  0.0075  0.4109 -0.1009
  517MOL0     C69715   4.296   3.580   3.463  0.5718 -0.9093  0.4406
  517MOL0     C69716   4.213   3.484   3.427 -0.4606  0.5445  0.5475
  517MOL0     C69717   4.082   3.496   3.401 -0.2531  1.2610 -0.3122
  517MOL0     O69718   3.999   3.394   3.361 -0.4186  1.0829  0.2703
  517MOL0     C69719   3.952   3.334   3.486  0.3780  0.3809 -0.2608
  517MOL0     C69720   3.801   3.304   3.463 -0.1919  0.6060 -0.4505
  517MOL0     C69721   3.758   3.232   3.334 -0.4349  0.1941 -0.1873
  517MOL0     C69722   3.604   3.255   3.296  0.2008  0.4105  0.1027
  517MOL0     C69723   3.508   3.191   3.399  1.1656 -0.4956 -0.8130
  517MOL0     C69724   3.430   3.158   3.488  0.1890 -0.0128  0.0104
  517MOL0     C69725   4.015   3.616   3.426 -0.1105  0.1038  0.1418
  517MOL0     C69726   4.097   3.725   3.463  0.1848 -0.4807 -0.2234
  517MOL0     C69727   4.027   3.846   3.492  0.5946 -0.2452 -0.3219
  517MOL0     H69728   4.357   4.086   3.598  1.2930  1.2143 -1.7439
  517MOL0     H69729   4.483   4.263   3.697  0.7056  1.0849  3.4209
  517MOL0     H69730   4.805   4.109   3.998  2.6428  0.7055 -0.2409
  517MOL0     H69731   4.828   4.271   4.014 -1.3196  2.8998 -0.2990
  517MOL0     H69732   4.557   4.130   4.084  1.5029 -2.2207  1.0826
  517MOL0     H69733   4.573   4.303   4.096  1.0441  0.1892 -2.5711
  517MOL0     H69734   4.703   4.091   4.282  0.6437 -1.8055 -3.8884
  517MOL0     H69735   4.590   4.223   4.316 -0.0346  2.7402 -1.7689
  517MOL0     H69736   4.879   4.278   4.245 -1.7915 -0.1613 -1.8148
  517MOL0     H69737   4.734   4.387   4.249 -0.4174  0.2825  0.4274
  517MOL0     H69738   4.702   4.305   4.496  0.9494 -0.2134  2.4294
  517MOL0     H69739   4.853   4.220   4.469 -0.2972  0.9608  1.3114
  517MOL0     H69740   4.932   4.467   4.397  1.9600  1.4512  2.2949
  517MOL0     H69741   4.788   4.520   4.459  0.9667  1.3364 -2.0952
  517MOL0     H69742   4.960   4.340   4.640 -2.5127 -1.0168  0.3499
  517MOL0     H69743   4.816   4.441   4.680  2.0740  0.7463  3.6409
  517MOL0     H69744   5.061   4.573   4.567  0.9443 -0.1052  0.5595
  517MOL0     H69745   4.928   4.648   4.637  1.7819  1.1456  2.6667
  517MOL0     H69746   5.187   4.728   4.747 -4.1111  2.2214  0.5591
  517MOL0     H69747   5.369   4.638   5.023 -0.8320 -0.3157  0.5968
  517MOL0     H69748   5.302   4.787   4.971 -1.0403  0.2417  0.3521
  517MOL0     H69749   5.195   4.630   5.216  3.1751 -0.5443  1.2371
  517MOL0     H69750   5.298   4.764   5.239 -1.3102  1.2451  0.6714
  517MOL0     H69751   5.041   4.812   5.230  1.3257  0.0370 -0.1569
  517MOL0     H69752   5.052   4.805   5.057 -0.8828  0.2592  0.9408
  517MOL0     H69753   5.059   5.024   5.114 -0.5265 -0.2106  0.9582
  517MOL0     H69754   5.196   4.975   5.012  0.1048  2.7719  0.9636
  517MOL0     H69755   5.344   4.972   5.449  1.0588  2.3177 -1.0624
  517MOL0     H69756   5.242   5.026   5.663  0.9572 -0.7327 -1.4848
  517MOL0     H69757   4.968   5.274   5.940  1.0391 -2.9741 -0.6405
  517MOL0     H69758   4.841   5.345   6.140 -3.6659  3.1842  0.7226
  517MOL0     H69759   4.650   5.465   6.168  0.2229  0.1772 -0.2663
  517MOL0     H69760   4.476   5.467   6.146  0.4495  0.2025  0.0655
  517MOL0     H69761   4.509   5.551   6.370  2.0006  1.1694 -2.1067
  517MOL0     H69762   4.416   5.396   6.363 -1.6472  2.3066 -1.7960
  517MOL0     H69763   4.607   5.281   6.453 -0.4372  0.0399 -0.4010
  517MOL0     H69764   4.719   5.415   6.400 -0.4921  1.5516 -2.4005
  517MOL0     H69765   4.500   5.435   6.614  0.8835 -0.4146  0.6458
  517MOL0     H69766   4.630   5.566   6.567  0.7775  0.3494 -0.9931
  517MOL0     H69767   4.703   5.310   6.727 -2.3607 -0.3957  0.7396
  517MOL0     H69768   4.651   5.460   6.792 -0.7395 -0.1830 -1.5292
  517MOL0     H69769   4.878   5.433   6.593 -1.6875 -0.0027 -0.4716
  517MOL0     H69770   4.838   5.577   6.688  4.2724 -0.4587 -0.9945
  517MOL0     H69771   4.947   5.318   6.794  3.1863  0.2990 -1.4432
  517MOL0     H69772   4.860   5.436   6.900 -0.4123  2.1918 -0.8524
  517MOL0     H69773   5.000   5.616   6.865 -0.2566 -0.9827  3.5346
  517MOL0     H69774   5.096   5.480   6.921  0.1484 -0.6479 -0.0023
  517MOL0     H69775   4.490   5.148   5.986  0.5945 -0.2098 -1.9624
  517MOL0     H69776   4.615   5.078   5.797 -2.2764 -2.5289  3.8687
  517MOL0     H69777   4.887   5.165   5.451  0.4485  1.1267 -0.3584
  517MOL0     H69778   5.022   5.168   5.256  0.7726  2.0394  1.0199
  517MOL0     H69779   4.776   3.962   3.842 -0.3561 -2.3075 -0.5309
  517MOL0     H69780   4.642   3.796   3.730 -0.1580  0.1320 -1.1491
  517MOL0     H69781   4.402   3.561   3.477  1.8165  3.7852 -0.6445
  517MOL0     H69782   4.261   3.388   3.407 -2.5654 -0.6693  0.9962
  517MOL0     H69783   3.961   3.397   3.575 -3.4935  4.4632 -2.3180
  517MOL0     H69784   4.006   3.240   3.495  1.4481  1.0612  0.5343
  517MOL0     H69785   3.763   3.406   3.473  1.5159  1.1498  0.7986
  517MOL0     H69786   3.753   3.247   3.544 -2.7383  1.4615 -1.2512
  517MOL0     H69787   3.775   3.124   3.340 -2.1863 -0.2634 -2.1194
  517MOL0     H69788   3.817   3.268   3.249 -0.5438 -4.2947 -2.4355
  517MOL0     H69789   3.581   3.361   3.307  2.5499  0.7988  2.2468
  517MOL0     H69790   3.575   3.219   3.197  0.6846  0.3746 -0.0312
  517MOL0     H69791   3.350   3.128   3.551 -2.4357  0.4055 -2.8785
  517MOL0     H69792   3.908   3.634   3.421 -0.7440 -2.4081  2.2540
  517MOL0     H69793   4.093   3.932   3.509  0.6811  0.0364 -1.9188
  517MOL0     H69794   3.981   3.876   3.398  0.9102  2.4909  0.3109
  517MOL0     H69795   3.960   3.832   3.577  1.8233  2.2178  1.1846
  518MOL0     O69796   9.345   2.908   1.033  0.2744 -0.5921 -0.0565
  518MOL0     C69797   9.374   2.794   1.063 -0.9299  0.7661 -0.5518
  518MOL0     O69798   9.325   2.714   1.159  0.2929 -0.2946 -0.2462
  518MOL0     C69799   9.254   2.781   1.249 -0.1034  0.0621 -0.7684
  518MOL0     C69800   9.118   2.789   1.240  0.3144  0.0695 -0.5524
  518MOL0     C69801   9.042   2.882   1.313  0.5280  0.0096  0.5129
  518MOL0     C69802   9.097   2.949   1.427  0.6670 -0.0690 -0.7545
  518MOL0     O69803   9.028   3.053   1.480  0.0527  0.0424 -0.0317
  518MOL0     C69804   8.892   3.037   1.511  0.2330 -0.3206  0.0318
  518MOL0     C69805   8.889   2.957   1.642 -0.2479 -0.4691  0.8102
  518MOL0     C69806   8.748   2.915   1.697 -0.8544  1.0999  0.8437
  518MOL0     C69807   8.642   3.021   1.705  1.3764  0.7048  0.1157
  518MOL0     C69808   8.516   2.970   1.784  0.4543  0.4650 -0.6385
  518MOL0     C69809   8.419   2.869   1.717 -0.4200  0.9293  0.7932
  518MOL0     C69810   8.285   2.938   1.692  0.3335  0.1976  0.0867
  518MOL0     C69811   8.198   2.848   1.600 -0.1610  0.9425 -0.5137
  518MOL0     N69812   8.056   2.893   1.595  0.4177  0.2608 -0.0235
  518MOL0     C69813   8.002   3.006   1.522 -0.5866  0.3490  0.1191
  518MOL0     C69814   7.866   3.004   1.544  0.3055  0.0695  0.6202
  518MOL0     C69815   7.760   3.093   1.474 -0.7900 -0.1515  0.1856
  518MOL0     C69816   7.680   3.183   1.566  0.9486 -0.8940  1.1534
  518MOL0     C69817   7.553   3.236   1.497  0.7553  0.1857 -0.7881
  518MOL0     C69818   7.600   3.358   1.423  0.1340  0.0671  0.3134
  518MOL0     O69819   7.691   3.318   1.313  0.0778 -0.3443 -0.2613
  518MOL0     C69820   7.811   3.384   1.295 -0.3471  0.2001 -0.2478
  518MOL0     C69821   7.865   3.388   1.160  0.1207 -0.1396 -0.3600
  518MOL0     C69822   7.993   3.434   1.132 -0.5068  0.4286 -0.3268
  518MOL0     C69823   8.078   3.459   1.232 -0.4441  0.6073  0.0255
  518MOL0     C69824   8.211   3.500   1.196  1.4762  0.8062 -0.1488
  518MOL0     O69825   8.238   3.503   1.062 -0.6675  0.4627 -0.1658
  518MOL0     C69826   8.360   3.529   1.015  0.1735  0.2328 -0.0765
  518MOL0     C69827   8.478   3.457   1.055  0.1768  0.0860  0.3420
  518MOL0     C69828   8.598   3.487   1.001  1.0156 -0.8548  0.1202
  518MOL0     C69829   8.611   3.572   0.895  0.1026 -0.1366  0.0869
  518MOL0     O69830   8.740   3.606   0.843  0.2627  0.0042  0.4149
  518MOL0     C69831   8.769   3.745   0.825 -0.0514 -1.7456  0.0706
  518MOL0     C69832   8.767   3.814   0.962 -0.2140  1.1314  0.2771
  518MOL0     C69833   8.803   3.959   0.944  0.0110  0.5351  0.5483
  518MOL0     C69834   8.819   4.028   1.081  0.0069  0.1150  0.1359
  518MOL0     C69835   8.961   4.001   1.136 -0.7239  0.4531  0.2257
  518MOL0     C69836   9.075   4.086   1.072  0.0039  0.1970 -0.0865
  518MOL0     C69837   9.180   4.091   1.181 -1.0649  0.1832  0.6883
  518MOL0     C69838   9.320   4.138   1.118 -0.6717 -0.3362 -0.8431
  518MOL0    Cl69839   9.446   4.201   1.240  0.5003 -0.6515  0.3714
  518MOL0     C69840   8.497   3.621   0.837 -0.1744 -0.4548 -0.4501
  518MOL0     C69841   8.372   3.603   0.906  0.5590 -0.5305 -0.0008
  518MOL0     O69842   8.288   3.528   1.285 -0.0411  0.3329  0.4654
  518MOL0     C69843   8.026   3.473   1.364  0.5386  0.9876  0.2421
  518MOL0     C69844   7.889   3.436   1.392 -0.4177 -0.0392  0.2301
  518MOL0     N69845   7.842   2.889   1.629  0.3130  0.3005 -0.1414
  518MOL0     N69846   7.955   2.828   1.652 -0.3372  1.2964  0.5578
  518MOL0     C69847   9.231   2.929   1.444 -0.0789  0.2558 -0.4713
  518MOL0     C69848   9.308   2.852   1.354 -0.2829 -0.0593  1.0389
  518MOL0     C69849   9.486   2.744   0.981  0.4861 -0.0418 -0.1913
  518MOL0     C69850   9.542   2.621   1.029  0.1650 -0.1615  0.1497
  518MOL0     C69851   9.669   2.577   0.990 -0.5637  0.4442 -0.1652
  518MOL0     C69852   9.736   2.647   0.895 -0.3522  0.0499  0.8094
  518MOL0     O69853   9.860   2.596   0.866 -0.3229 -0.1065  0.2640
  518MOL0     C69854   9.936   2.641   0.749 -0.8147  0.0844 -0.9252
  518MOL0     C69855  10.016   2.523   0.693  0.0946  0.4231  0.2432
  518MOL0     C69856   9.924   2.439   0.601 -0.7186  0.1133 -0.2849
  518MOL0     C69857   9.923   2.494   0.464  0.9134  0.7766 -0.5678
  518MOL0     C69858   9.825   2.422   0.393  0.0267 -0.0761 -0.2125
  518MOL0     C69859   9.734   2.361   0.341  0.1042  0.4318 -0.1928
  518MOL0     C69860   9.693   2.775   0.840 -1.0350 -0.2452 -1.2903
  518MOL0     C69861   9.562   2.819   0.881  0.6269 -0.3340  0.0792
  518MOL0     C69862   9.500   2.937   0.802  0.2241 -0.5788  0.6466
  518MOL0     H69863   9.096   2.737   1.147  1.2468  1.3166 -1.5043
  518MOL0     H69864   8.941   2.908   1.285  0.1244 -0.9848  1.0244
  518MOL0     H69865   8.849   3.138   1.520  3.5233  1.2068  0.0467
  518MOL0     H69866   8.823   2.984   1.444  1.3694 -0.9867 -0.6309
  518MOL0     H69867   8.957   3.005   1.712  0.8644 -0.3547 -0.3114
  518MOL0     H69868   8.937   2.861   1.622  1.3552 -0.5326  4.2717
  518MOL0     H69869   8.766   2.867   1.793  1.7984 -0.2988 -0.2316
  518MOL0     H69870   8.705   2.834   1.638 -1.9128  0.1628  2.8118
  518MOL0     H69871   8.685   3.115   1.739  1.0173  1.7082 -2.0202
  518MOL0     H69872   8.612   3.047   1.603  0.4718 -1.4201 -0.2239
  518MOL0     H69873   8.555   2.912   1.867  0.6815  0.6662 -0.6060
  518MOL0     H69874   8.449   3.055   1.801  0.5113  0.8607 -2.1696
  518MOL0     H69875   8.466   2.843   1.621  1.3993  0.5909  1.7305
  518MOL0     H69876   8.400   2.776   1.771 -2.5272  1.9830  1.9995
  518MOL0     H69877   8.298   3.036   1.645  0.2219 -0.1585 -0.7021
  518MOL0     H69878   8.236   2.958   1.788  0.8473  1.3394  0.1241
  518MOL0     H69879   8.236   2.840   1.498  1.3391  2.1342 -0.0915
  518MOL0     H69880   8.201   2.754   1.655  0.4740  1.3300  0.1527
  518MOL0     H69881   8.068   3.068   1.462  3.0482 -0.1949  3.1679
  518MOL0     H69882   7.820   3.151   1.403 -2.6615 -1.5227 -2.7413
  518MOL0     H69883   7.699   3.023   1.415 -0.5889 -1.1897  1.1619
  518MOL0     H69884   7.661   3.126   1.657  1.5032 -2.1368  0.5111
  518MOL0     H69885   7.751   3.264   1.590  2.7489 -1.2701 -2.2478
  518MOL0     H69886   7.487   3.271   1.577  0.5172  0.8451 -1.2636
  518MOL0     H69887   7.511   3.160   1.430 -0.1600  0.7351 -0.8518
  518MOL0     H69888   7.642   3.436   1.488  0.1834  2.0772 -2.0170
  518MOL0     H69889   7.511   3.403   1.377  0.2194  1.5286  1.4880
  518MOL0     H69890   7.793   3.368   1.082 -0.6034  0.4995  0.1338
  518MOL0     H69891   8.005   3.439   1.024 -2.9856 -0.9380 -0.7446
  518MOL0     H69892   8.453   3.377   1.124 -4.2153  1.3896  0.6051
  518MOL0     H69893   8.688   3.432   1.025  0.7491 -1.7597 -0.8971
  518MOL0     H69894   8.868   3.752   0.780  0.9116 -1.7235  2.0877
  518MOL0     H69895   8.698   3.793   0.757 -1.8572 -1.0390  2.3356
  518MOL0     H69896   8.667   3.801   1.004 -0.6366  3.3114  0.0308
  518MOL0     H69897   8.845   3.764   1.021  0.8333  0.6218 -1.4568
  518MOL0     H69898   8.895   3.981   0.889  1.4489 -1.2800  2.0668
  518MOL0     H69899   8.708   3.991   0.902  0.0708 -1.7302 -1.4917
  518MOL0     H69900   8.739   3.997   1.149  1.3666 -0.6148  1.4763
  518MOL0     H69901   8.799   4.135   1.072 -1.0745 -0.1875 -1.3918
  518MOL0     H69902   8.995   3.897   1.134  0.9275  0.9605  0.7007
  518MOL0     H69903   8.943   4.025   1.242 -2.7715 -3.2827  0.8896
  518MOL0     H69904   9.111   4.029   0.986  0.6718 -1.2305  1.0902
  518MOL0     H69905   9.043   4.189   1.054 -4.1682 -0.4155  2.4923
  518MOL0     H69906   9.194   3.988   1.218  1.4762  0.6418  1.1423
  518MOL0     H69907   9.145   4.149   1.267  3.5026 -0.7151  3.5159
  518MOL0     H69908   9.362   4.053   1.062 -0.4486 -0.8862  0.1419
  518MOL0     H69909   9.304   4.222   1.050  0.6599 -0.5525 -1.4670
  518MOL0     H69910   8.517   3.677   0.747  1.5340  3.1968  1.9584
  518MOL0     H69911   8.282   3.651   0.870  0.6360  0.4733  1.0984
  518MOL0     H69912   8.094   3.494   1.446  0.2997 -5.6198  2.6559
  518MOL0     H69913   7.859   3.435   1.496 -0.7039  0.9679  0.1613
  518MOL0     H69914   9.280   2.999   1.512  1.0470  0.1905 -1.1905
  518MOL0     H69915   9.414   2.848   1.376 -0.6792  1.3387  3.6342
  518MOL0     H69916   9.507   2.575   1.121  0.3780  1.4214  1.0658
  518MOL0     H69917   9.720   2.495   1.039 -0.1574  0.3040 -0.8132
  518MOL0     H69918  10.002   2.722   0.779 -2.4693  1.7302 -1.5441
  518MOL0     H69919   9.883   2.694   0.669  1.0903  1.9626 -1.0236
  518MOL0     H69920  10.048   2.456   0.773  2.6678 -2.4714 -2.9114
  518MOL0     H69921  10.104   2.569   0.646  0.1116 -0.4157 -0.5831
  518MOL0     H69922   9.833   2.420   0.658  0.6544 -3.4594  0.9595
  518MOL0     H69923   9.967   2.339   0.610 -3.2150 -0.8364  3.4270
  518MOL0     H69924   9.901   2.601   0.458  2.3038  1.4442  3.3670
  518MOL0     H69925  10.017   2.481   0.409 -1.0309 -0.6774 -3.8449
  518MOL0     H69926   9.677   2.299   0.274  0.5080  0.1576 -0.2887
  518MOL0     H69927   9.748   2.837   0.770 -0.2579  1.4578  0.7246
  518MOL0     H69928   9.518   3.026   0.863  1.8452  0.7896 -1.6266
  518MOL0     H69929   9.528   2.944   0.696 -0.3269  0.7436  0.5648
  518MOL0     H69930   9.392   2.944   0.790  0.5399  5.3319 -2.5322
  519MOL0     O69931   5.968   7.961   4.147 -0.1793 -0.6009 -0.1843
  519MOL0     C69932   5.924   7.849   4.132  0.5339  1.0716  0.9510
  519MOL0     O69933   5.992   7.735   4.174  0.0982  0.2153  1.2101
  519MOL0     C69934   6.133   7.748   4.162 -0.3349 -0.0248  0.1819
  519MOL0     C69935   6.209   7.848   4.088  0.1998  1.3179 -0.2619
  519MOL0     C69936   6.345   7.852   4.093 -0.4754 -0.7253 -0.7626
  519MOL0     C69937   6.425   7.766   4.186 -0.3356  0.5543 -0.0509
  519MOL0     O69938   6.558   7.765   4.207 -0.2796  0.0374 -0.0352
  519MOL0     C69939   6.640   7.871   4.146 -0.9722 -0.3969 -0.5865
  519MOL0     C69940   6.689   7.812   4.012 -0.9722  0.2660 -0.1091
  519MOL0     C69941   6.734   7.915   3.914 -0.0885 -1.3187  0.2908
  519MOL0     C69942   6.633   8.013   3.855 -1.2847  0.2509  0.4680
  519MOL0     C69943   6.685   8.106   3.748  0.4099  0.2736 -0.4018
  519MOL0     C69944   6.661   8.055   3.605  0.2743 -0.4544  0.4924
  519MOL0     C69945   6.749   8.138   3.510  0.2381  0.4130 -0.6425
  519MOL0     C69946   6.737   8.076   3.368  0.6677 -0.1855 -0.9569
  519MOL0     N69947   6.846   8.124   3.277  0.1073 -0.2641 -0.3153
  519MOL0     C69948   6.863   8.254   3.246  0.2140 -0.0030 -0.3391
  519MOL0     C69949   6.950   8.260   3.149 -0.3628 -1.2587  0.2222
  519MOL0     C69950   7.029   8.380   3.088 -0.2680  1.0903  0.4638
  519MOL0     C69951   6.936   8.509   3.077 -0.8909  0.0190 -0.2705
  519MOL0     C69952   7.000   8.636   3.017 -0.3492 -0.6731 -0.7839
  519MOL0     C69953   6.901   8.766   3.004 -0.0014  0.3501 -0.4884
  519MOL0     O69954   6.972   8.873   2.938  0.6790 -0.6746  0.6645
  519MOL0     C69955   7.023   8.965   3.029 -0.0220  0.6293  0.1380
  519MOL0     C69956   6.944   9.083   3.047 -0.7664 -0.8211  0.1301
  519MOL0     C69957   6.996   9.185   3.131  0.4855  0.6973  0.0167
  519MOL0     C69958   7.124   9.176   3.189 -0.1956 -0.2331 -0.0049
  519MOL0     C69959   7.163   9.277   3.289 -0.6420  0.5365 -0.1791
  519MOL0     O69960   7.076   9.375   3.324 -0.4409 -0.4026 -0.5322
  519MOL0     C69961   7.085   9.482   3.406 -0.6185  0.5046 -0.8332
  519MOL0     C69962   6.977   9.554   3.445  0.1609 -0.4586  0.7698
  519MOL0     C69963   6.976   9.663   3.534  0.0047  0.3376  1.6358
  519MOL0     C69964   7.093   9.699   3.593 -0.0514  0.7984 -0.2653
  519MOL0     O69965   7.084   9.794   3.691  0.5197  0.4151 -0.5604
  519MOL0     C69966   7.205   9.808   3.766  0.2115 -0.1310  0.9113
  519MOL0     C69967   7.202   9.899   3.886 -0.0027 -0.1921 -0.7577
  519MOL0     C69968   7.158  10.043   3.847 -0.8634  0.1073  0.3219
  519MOL0     C69969   7.196  10.142   3.959  1.1092  0.4504 -0.1117
  519MOL0     C69970   7.336  10.202   3.964  0.1384  0.2488 -0.7523
  519MOL0     C69971   7.356  10.310   3.865  0.0055  0.9374  0.4216
  519MOL0     C69972   7.459  10.407   3.908 -0.3941 -0.8933 -0.3617
  519MOL0     C69973   7.591  10.381   3.829  0.0084 -0.5146 -0.2565
  519MOL0    Cl69974   7.718  10.465   3.916  0.4027 -0.1666 -0.3165
  519MOL0     C69975   7.215   9.631   3.555 -0.1657  0.2065  0.6301
  519MOL0     C69976   7.210   9.537   3.450  0.1057 -1.2191 -0.4368
  519MOL0     O69977   7.278   9.262   3.333  0.7882 -0.1359 -1.0127
  519MOL0     C69978   7.203   9.063   3.160  0.7474 -0.6241  0.3454
  519MOL0     C69979   7.164   8.965   3.069 -0.1202 -0.0660 -0.5187
  519MOL0     N69980   6.978   8.129   3.106  0.1623  0.6107  0.2468
  519MOL0     N69981   6.925   8.053   3.192 -0.5425 -0.1578  0.0979
  519MOL0     C69982   6.353   7.671   4.252  0.1859 -0.3767  0.1216
  519MOL0     C69983   6.208   7.659   4.248 -0.7471 -0.3553 -0.5156
  519MOL0     C69984   5.792   7.834   4.060  1.0491 -0.3193 -0.3149
  519MOL0     C69985   5.715   7.718   4.104  0.4635 -0.9800  0.8540
  519MOL0     C69986   5.590   7.696   4.050 -0.5219 -0.0357  0.8768
  519MOL0     C69987   5.529   7.782   3.947 -0.6022 -0.1784 -0.0285
  519MOL0     O69988   5.414   7.745   3.883  0.7347 -0.3196 -0.7981
  519MOL0     C69989   5.399   7.605   3.861 -0.7097  0.4628 -0.4518
  519MOL0     C69990   5.291   7.570   3.756 -0.1047 -0.0805 -0.8123
  519MOL0     C69991   5.155   7.608   3.813  0.3139 -0.2527  0.0951
  519MOL0     C69992   5.062   7.570   3.702 -0.0986  0.2339 -0.4065
  519MOL0     C69993   4.930   7.613   3.726  0.3500 -0.2710 -0.6070
  519MOL0     C69994   4.819   7.650   3.732 -0.5958  1.0624  0.2687
  519MOL0     C69995   5.598   7.900   3.927 -0.0473 -0.3720 -0.6823
  519MOL0     C69996   5.728   7.930   3.982 -1.1738  0.4895 -0.2736
  519MOL0     C69997   5.779   8.066   3.947  0.5374 -0.1325 -0.6777
  519MOL0     H69998   6.163   7.915   4.015  1.0652 -0.4712 -2.5819
  519MOL0     H69999   6.403   7.917   4.028  3.5351 -0.0880  2.9590
  519MOL0     H70000   6.582   7.963   4.134 -0.3946  0.1403  0.5710
  519MOL0     H70001   6.716   7.911   4.214 -2.2961  2.0182 -0.4205
  519MOL0     H70002   6.617   7.755   3.953  1.1325 -2.3145 -0.3725
  519MOL0     H70003   6.770   7.743   4.037 -2.4361 -1.6137 -0.3581
  519MOL0     H70004   6.782   7.870   3.826  1.0763  3.2733 -1.7351
  519MOL0     H70005   6.824   7.964   3.952  0.7943 -3.0616  0.5200
  519MOL0     H70006   6.545   7.956   3.824  1.1739 -4.2016  0.6998
  519MOL0     H70007   6.605   8.085   3.933  1.4629  0.7879  1.0880
  519MOL0     H70008   6.651   8.208   3.767  3.8271  1.3786  0.5542
  519MOL0     H70009   6.794   8.112   3.757  0.5315 -1.6020 -0.2470
  519MOL0     H70010   6.669   7.949   3.581 -0.3630  0.0094 -2.0744
  519MOL0     H70011   6.561   8.092   3.582 -0.2543 -3.1093 -2.0206
  519MOL0     H70012   6.850   8.139   3.552 -0.9904  1.6674  2.6176
  519MOL0     H70013   6.702   8.236   3.522  2.9630  1.5871  1.4710
  519MOL0     H70014   6.759   7.969   3.380 -2.0457 -0.7072  0.0931
  519MOL0     H70015   6.631   8.088   3.342  0.2074 -2.3823 -0.3160
  519MOL0     H70016   6.818   8.338   3.297 -0.4684  0.6682 -1.9733
  519MOL0     H70017   7.114   8.404   3.153  0.2968  2.8963 -0.8760
  519MOL0     H70018   7.077   8.358   2.993  1.6294 -2.4566  2.0404
  519MOL0     H70019   6.840   8.499   3.026  0.4422  1.5627 -3.3539
  519MOL0     H70020   6.912   8.535   3.181  5.4372  0.4476  1.5633
  519MOL0     H70021   7.017   8.611   2.911  0.3525 -3.5237 -0.0776
  519MOL0     H70022   7.096   8.663   3.063 -1.4153  0.4620  0.8355
  519MOL0     H70023   6.869   8.812   3.099 -0.2474  1.7869 -1.2423
  519MOL0     H70024   6.807   8.750   2.950 -2.2662  4.2885  1.7371
  519MOL0     H70025   6.844   9.097   3.008 -1.3832 -2.9552  0.7995
  519MOL0     H70026   6.932   9.269   3.156  0.5236 -0.3604  4.3844
  519MOL0     H70027   6.879   9.532   3.405  0.5180  0.6370 -0.7963
  519MOL0     H70028   6.888   9.711   3.575 -2.4452 -2.6132  0.2605
  519MOL0     H70029   7.227   9.709   3.807 -1.6121 -1.5960 -1.4045
  519MOL0     H70030   7.275   9.850   3.693  1.6164 -1.9922  1.1115
  519MOL0     H70031   7.124   9.850   3.945 -0.1300 -0.3891 -1.0891
  519MOL0     H70032   7.305   9.897   3.924 -1.0298 -1.9808  2.2504
  519MOL0     H70033   7.217  10.082   3.764  1.2643  2.4019  2.7147
  519MOL0     H70034   7.050  10.045   3.828 -0.7300 -0.4417 -0.5257
  519MOL0     H70035   7.187  10.085   4.053  1.6241 -0.7680 -0.7804
  519MOL0     H70036   7.123  10.224   3.962  1.1249  0.4523  0.2873
  519MOL0     H70037   7.406  10.119   3.949  1.6184  0.9303  1.8623
  519MOL0     H70038   7.326  10.237   4.067 -2.1352 -0.7345 -0.5758
  519MOL0     H70039   7.386  10.263   3.771  1.5371  3.6809 -0.5580
  519MOL0     H70040   7.259  10.356   3.841  2.4045  4.7789 -3.1742
  519MOL0     H70041   7.483  10.401   4.014 -0.7427 -1.6258 -0.3233
  519MOL0     H70042   7.424  10.509   3.887  0.4022 -0.8380 -1.5616
  519MOL0     H70043   7.611  10.274   3.842 -0.5219 -0.6767 -0.7348
  519MOL0     H70044   7.587  10.418   3.726 -0.3466 -0.7908 -0.3465
  519MOL0     H70045   7.310   9.657   3.603 -0.5897 -1.3904  2.4610
  519MOL0     H70046   7.294   9.492   3.398  0.4409  1.6349 -2.6447
  519MOL0     H70047   7.303   9.065   3.202  1.2290  1.4690 -0.7590
  519MOL0     H70048   7.232   8.889   3.032 -0.5339 -1.1403  0.8337
  519MOL0     H70049   6.400   7.593   4.311  2.0344  0.2142 -0.4959
  519MOL0     H70050   6.167   7.582   4.311  2.9060 -2.4189 -0.3492
  519MOL0     H70051   5.747   7.649   4.182  1.4305  1.5974  2.8592
  519MOL0     H70052   5.541   7.603   4.077 -1.4591  0.3610  0.5919
  519MOL0     H70053   5.366   7.565   3.957 -2.9866  1.6060 -0.6691
  519MOL0     H70054   5.493   7.555   3.837 -0.2304  1.8007 -1.4621
  519MOL0     H70055   5.294   7.461   3.741 -1.6882  0.0281 -2.1838
  519MOL0     H70056   5.312   7.626   3.664  0.7346  2.5231  0.8518
  519MOL0     H70057   5.152   7.717   3.828  0.9366 -0.2392  0.1521
  519MOL0     H70058   5.134   7.555   3.906  1.2961  2.7681  2.2101
  519MOL0     H70059   5.108   7.600   3.608  2.2054 -1.7856 -0.0400
  519MOL0     H70060   5.044   7.462   3.703  0.6589  0.0328  2.8175
  519MOL0     H70061   4.719   7.688   3.725 -1.3906  0.7078  5.4458
  519MOL0     H70062   5.552   7.961   3.850  2.5623 -1.9923 -3.7858
  519MOL0     H70063   5.701   8.107   3.882 -1.6944 -4.5056 -1.1646
  519MOL0     H70064   5.787   8.132   4.033  0.6860  0.2755 -1.0043
  519MOL0     H70065   5.881   8.079   3.910  0.6218  3.0378  0.4469
  520MOL0     O70066   8.930   8.012   9.307 -0.1780  0.3673  0.0823
  520MOL0     C70067   9.032   7.938   9.320  0.2711  0.0109 -0.3720
  520MOL0     O70068   9.049   7.830   9.407 -0.3631  0.0140 -0.2270
  520MOL0     C70069   8.941   7.780   9.474 -0.6298  0.1499 -0.8978
  520MOL0     C70070   8.909   7.648   9.444 -0.4037  0.4958  0.6847
  520MOL0     C70071   8.820   7.570   9.521  0.5354 -0.8700  0.9584
  520MOL0     C70072   8.741   7.640   9.620 -0.3489 -0.4066  1.2326
  520MOL0     O70073   8.638   7.571   9.677 -0.0449 -1.0409 -0.3829
  520MOL0     C70074   8.526   7.645   9.722  0.3860 -0.0183  0.3075
  520MOL0     C70075   8.412   7.563   9.788 -0.8267 -0.5894  0.2302
  520MOL0     C70076   8.351   7.459   9.698  1.0341  1.1714  0.0544
  520MOL0     C70077   8.250   7.374   9.776  0.3398 -0.4910  0.8148
  520MOL0     C70078   8.159   7.297   9.676 -0.4482  0.4340 -0.5763
  520MOL0     C70079   8.053   7.216   9.749 -0.0733 -0.0435  0.6221
  520MOL0     C70080   7.983   7.126   9.653 -0.4943  0.0599  0.5644
  520MOL0     C70081   7.882   7.212   9.570  0.9193 -0.0821 -0.1105
  520MOL0     N70082   7.835   7.130   9.458 -0.5148 -0.0462 -0.2692
  520MOL0     C70083   7.837   6.990   9.437  0.2858  0.3621 -0.1191
  520MOL0     C70084   7.734   6.965   9.357 -0.3232  0.1995  0.5897
  520MOL0     C70085   7.684   6.824   9.340 -0.4710  0.9017 -0.2369
  520MOL0     C70086   7.778   6.756   9.228 -0.1720 -0.1060  0.5110
  520MOL0     C70087   7.697   6.625   9.182 -0.0921  1.1786  0.2961
  520MOL0     C70088   7.778   6.565   9.073  0.6648 -0.0161 -0.3595
  520MOL0     O70089   7.752   6.420   9.047 -0.0214 -0.1282 -0.1553
  520MOL0     C70090   7.631   6.390   8.985  0.3697 -0.3470  0.0768
  520MOL0     C70091   7.531   6.486   8.937 -0.2890 -0.0595 -0.0119
  520MOL0     C70092   7.402   6.448   8.888 -0.6861 -0.8860 -0.3698
  520MOL0     C70093   7.378   6.314   8.857  0.5087 -0.2074 -0.8803
  520MOL0     C70094   7.244   6.277   8.803  0.0513 -0.1129  1.5090
  520MOL0     O70095   7.158   6.383   8.793  0.0909  0.6211 -0.7515
  520MOL0     C70096   7.023   6.375   8.755  0.5317  0.0266  1.3901
  520MOL0     C70097   6.943   6.276   8.813  0.1651 -0.8859 -0.3694
  520MOL0     C70098   6.810   6.259   8.768  0.0344  0.8715  0.8420
  520MOL0     C70099   6.757   6.344   8.668  0.2618 -0.1246  0.8269
  520MOL0     O70100   6.622   6.331   8.621 -0.1735  0.5626 -0.8646
  520MOL0     C70101   6.525   6.248   8.681 -0.8191  0.2923 -1.5003
  520MOL0     C70102   6.402   6.264   8.604  0.4206  0.0112  0.4669
  520MOL0     C70103   6.286   6.183   8.678 -0.2690 -0.9238 -0.1970
  520MOL0     C70104   6.165   6.202   8.586  1.0233 -0.2699 -0.8296
  520MOL0     C70105   6.037   6.181   8.677 -0.2202 -0.2598  0.2702
  520MOL0     C70106   5.910   6.220   8.610  1.2361 -0.0704  0.7498
  520MOL0     C70107   5.781   6.169   8.685 -1.2565  0.0429  0.1538
  520MOL0     C70108   5.757   6.013   8.659  0.1319  0.3598  0.3919
  520MOL0    Cl70109   5.624   5.961   8.763 -0.4363 -0.2393  0.1349
  520MOL0     C70110   6.839   6.448   8.613 -0.2693  0.4336 -0.6394
  520MOL0     C70111   6.975   6.458   8.658 -0.0363 -0.6280 -0.1118
  520MOL0     O70112   7.230   6.164   8.770 -0.1872 -0.2170  0.1621
  520MOL0     C70113   7.475   6.221   8.896 -0.1666  0.4470  0.2705
  520MOL0     C70114   7.598   6.255   8.958  0.7915 -0.1007  0.8844
  520MOL0     N70115   7.669   7.089   9.326  0.6945 -0.6865 -0.1802
  520MOL0     N70116   7.729   7.187   9.394 -0.7762  0.9392  0.4095
  520MOL0     C70117   8.763   7.774   9.635  0.5394 -0.4228 -0.6042
  520MOL0     C70118   8.872   7.844   9.574  0.0914  0.3652  0.0706
  520MOL0     C70119   9.158   7.957   9.234 -0.0600  0.7256  1.0812
  520MOL0     C70120   9.271   7.874   9.267  0.5042 -0.2293  1.0260
  520MOL0     C70121   9.386   7.888   9.183  1.2046 -0.1721 -0.8378
  520MOL0     C70122   9.387   7.961   9.076  0.2908  0.0060 -0.2721
  520MOL0     O70123   9.512   7.946   9.016  0.9272  0.3014 -0.3449
  520MOL0     C70124   9.538   8.037   8.912  0.2201  1.4947 -0.2754
  520MOL0     C70125   9.688   8.039   8.888 -0.4062 -0.3280 -0.0130
  520MOL0     C70126   9.711   8.130   8.775  0.7664  0.0617 -0.3221
  520MOL0     C70127   9.856   8.116   8.732 -0.2168 -0.2681  0.6125
  520MOL0     C70128   9.861   8.176   8.598  0.3333 -1.0385  0.5160
  520MOL0     C70129   9.870   8.246   8.493 -1.4301  1.5502  0.4232
  520MOL0     C70130   9.280   8.045   9.051  0.5004 -0.7702 -0.0659
  520MOL0     C70131   9.168   8.043   9.125  1.3423 -0.5191 -0.6408
  520MOL0     C70132   9.055   8.134   9.073 -0.8506  0.5633  0.8474
  520MOL0     H70133   8.972   7.601   9.369  1.6977 -4.6199  4.9722
  520MOL0     H70134   8.811   7.463   9.511  0.2481 -0.9671  2.1239
  520MOL0     H70135   8.544   7.732   9.786  1.5865  0.1988 -0.2984
  520MOL0     H70136   8.471   7.673   9.633  2.6497 -3.3058 -2.3898
  520MOL0     H70137   8.331   7.631   9.818 -0.5076 -0.1222  0.0313
  520MOL0     H70138   8.454   7.508   9.873 -0.9608 -5.2027 -2.3549
  520MOL0     H70139   8.433   7.408   9.647  1.2060  0.9259  0.5637
  520MOL0     H70140   8.299   7.501   9.611 -1.5013 -3.8554 -1.2549
  520MOL0     H70141   8.305   7.311   9.846  3.0924  1.5873  0.7019
  520MOL0     H70142   8.192   7.445   9.835  1.3320  0.1777  1.0254
  520MOL0     H70143   8.100   7.355   9.604 -1.7423 -0.6367 -0.4317
  520MOL0     H70144   8.238   7.238   9.629  0.9974  0.5334  1.5938
  520MOL0     H70145   8.110   7.159   9.823 -1.3753 -0.6502  1.1850
  520MOL0     H70146   7.981   7.280   9.799 -0.6071 -2.0267  2.5286
  520MOL0     H70147   7.927   7.049   9.707  1.5204 -0.5421  1.8919
  520MOL0     H70148   8.059   7.077   9.591 -1.1803 -0.5919  0.2105
  520MOL0     H70149   7.794   7.234   9.631 -0.3791 -1.1028 -1.5485
  520MOL0     H70150   7.923   7.303   9.524 -0.8798 -0.7045 -3.2009
  520MOL0     H70151   7.900   6.911   9.477 -1.1830 -1.8140 -1.8984
  520MOL0     H70152   7.691   6.764   9.431  0.2611 -0.7254 -1.3053
  520MOL0     H70153   7.583   6.820   9.299 -0.1947  0.9843 -0.9499
  520MOL0     H70154   7.786   6.827   9.146  0.7381  3.4509  3.3866
  520MOL0     H70155   7.885   6.744   9.249  0.7166  1.3656 -2.5956
  520MOL0     H70156   7.604   6.658   9.133  0.5901 -1.8255 -3.5422
  520MOL0     H70157   7.682   6.559   9.268  4.9488  2.5427  2.5969
  520MOL0     H70158   7.881   6.563   9.110  0.1649 -1.9706  1.1526
  520MOL0     H70159   7.761   6.626   8.984  1.6028  0.0193 -0.5204
  520MOL0     H70160   7.552   6.593   8.934  0.6792 -0.2442 -0.1737
  520MOL0     H70161   7.323   6.519   8.866 -3.0305 -3.3599 -0.4308
  520MOL0     H70162   7.001   6.213   8.880 -1.2690 -2.5872 -0.6361
  520MOL0     H70163   6.754   6.183   8.821 -1.1278 -0.5477 -2.1351
  520MOL0     H70164   6.551   6.142   8.683  2.1217  0.9431  0.1321
  520MOL0     H70165   6.501   6.281   8.782 -0.0958  2.3285 -1.9505
  520MOL0     H70166   6.365   6.367   8.595 -3.6093 -1.3223 -0.3327
  520MOL0     H70167   6.438   6.227   8.507  5.6688  4.7344  0.0768
  520MOL0     H70168   6.298   6.075   8.694  1.2735 -0.3607  3.3484
  520MOL0     H70169   6.269   6.227   8.776 -2.9198 -0.3443 -0.8462
  520MOL0     H70170   6.168   6.143   8.494  1.3740  0.0118 -1.0031
  520MOL0     H70171   6.168   6.309   8.563  0.1563  0.1600  0.9210
  520MOL0     H70172   6.044   6.238   8.771  0.3129 -1.1367  0.7755
  520MOL0     H70173   6.032   6.080   8.717 -0.8620 -0.4693 -0.3330
  520MOL0     H70174   5.892   6.325   8.589  0.8160 -0.5818 -1.7416
  520MOL0     H70175   5.915   6.168   8.514 -2.1554 -2.5135  1.6720
  520MOL0     H70176   5.698   6.224   8.639 -2.5362 -1.0439  1.0508
  520MOL0     H70177   5.799   6.194   8.790  0.7165 -0.6284  0.0129
  520MOL0     H70178   5.745   5.988   8.554  1.5230 -1.6734  0.6552
  520MOL0     H70179   5.848   5.956   8.679  0.6957 -0.6563 -4.0266
  520MOL0     H70180   6.797   6.519   8.543 -0.2371  2.5753  1.3809
  520MOL0     H70181   7.033   6.537   8.611 -3.3175  0.9074 -1.9468
  520MOL0     H70182   7.451   6.115   8.887 -0.4391  0.6431 -1.7900
  520MOL0     H70183   7.653   6.177   9.009  1.1191 -0.0280  0.6456
  520MOL0     H70184   8.699   7.844   9.688  3.2517  1.6371  0.2550
  520MOL0     H70185   8.901   7.947   9.592  0.6209  0.5011 -1.3791
  520MOL0     H70186   9.272   7.806   9.352  3.0444  0.6958  1.8220
  520MOL0     H70187   9.474   7.824   9.191  0.7007 -0.8679 -0.7861
  520MOL0     H70188   9.498   8.138   8.926 -1.7475  0.7785 -0.3415
  520MOL0     H70189   9.493   7.993   8.822 -1.6655 -1.4429  1.9245
  520MOL0     H70190   9.719   7.936   8.869  1.2614 -0.2512  1.9603
  520MOL0     H70191   9.738   8.075   8.978  1.3236 -1.2266 -0.5764
  520MOL0     H70192   9.684   8.234   8.794  0.7648 -0.1016  0.6135
  520MOL0     H70193   9.644   8.097   8.695  2.2938 -2.5457 -0.6634
  520MOL0     H70194   9.929   8.163   8.799  0.7004  0.2207 -0.7086
  520MOL0     H70195   9.867   8.011   8.705 -1.4721 -0.1488 -0.4237
  520MOL0     H70196   9.873   8.292   8.396  0.0272 -2.1374 -1.5008
  520MOL0     H70197   9.286   8.109   8.964  0.5049  1.3002  1.4076
  520MOL0     H70198   9.049   8.222   9.137  1.7952  0.5058  1.2804
  520MOL0     H70199   9.069   8.174   8.973 -0.6842 -1.5889 -0.0537
  520MOL0     H70200   8.974   8.062   9.091 -0.4444 -0.7700 -2.0292
  521MOL0     O70201   3.885   5.016   6.640 -0.2185  0.3456  1.0627
  521MOL0     C70202   4.003   4.976   6.632  0.3349 -0.2213  0.0583
  521MOL0     O70203   4.106   5.004   6.717  0.1627 -0.8654  0.2756
  521MOL0     C70204   4.088   5.073   6.832  0.7082  0.5773 -0.7983
  521MOL0     C70205   4.062   5.206   6.848 -0.3192 -0.0202  0.0255
  521MOL0     C70206   4.080   5.274   6.972 -0.2207 -0.1704 -0.9153
  521MOL0     C70207   4.114   5.199   7.087 -0.1507 -0.0429 -0.2908
  521MOL0     O70208   4.127   5.249   7.216 -0.2655  0.6469  0.1502
  521MOL0     C70209   4.121   5.392   7.233 -0.6449 -0.5399  0.1640
  521MOL0     C70210   4.129   5.436   7.378  1.1794 -0.4073  1.1372
  521MOL0     C70211   4.262   5.416   7.434 -1.1788  0.8735 -1.0921
  521MOL0     C70212   4.273   5.477   7.573  0.7328 -0.4834 -0.3975
  521MOL0     C70213   4.320   5.629   7.574 -0.5371 -0.1085  0.3157
  521MOL0     C70214   4.344   5.675   7.721  0.2472  0.5579 -0.9061
  521MOL0     C70215   4.476   5.617   7.790  0.2050 -0.9355 -1.0151
  521MOL0     C70216   4.493   5.652   7.945 -0.0379  0.7933  0.0821
  521MOL0     N70217   4.467   5.788   7.971 -0.3242  0.4596  0.9752
  521MOL0     C70218   4.364   5.845   8.045 -0.4134 -0.6754 -0.6411
  521MOL0     C70219   4.405   5.964   8.082 -0.1399 -0.5158  0.9113
  521MOL0     C70220   4.334   6.082   8.149 -0.1630 -0.4030 -1.2994
  521MOL0     C70221   4.278   6.178   8.045  1.2071 -0.0928 -0.5262
  521MOL0     C70222   4.144   6.243   8.086  0.3484  0.7141  0.4050
  521MOL0     C70223   4.156   6.333   8.213 -0.2785 -0.9103  0.6548
  521MOL0     O70224   4.042   6.409   8.231  0.4306  0.0203 -0.3270
  521MOL0     C70225   3.943   6.356   8.311 -0.5152  0.7458  0.8184
  521MOL0     C70226   3.935   6.227   8.370  0.8065  0.2573  0.0338
  521MOL0     C70227   3.822   6.187   8.430 -0.4133 -1.1703 -0.7006
  521MOL0     C70228   3.713   6.281   8.453  0.0621  0.6858  0.9817
  521MOL0     C70229   3.592   6.243   8.524  0.1822  0.8489  0.2889
  521MOL0     O70230   3.615   6.125   8.596 -0.1171  0.0700  0.1523
  521MOL0     C70231   3.510   6.096   8.680 -0.8169  0.3438  0.6814
  521MOL0     C70232   3.476   5.964   8.688 -0.4196  0.0647  0.0022
  521MOL0     C70233   3.377   5.909   8.771  0.0348 -0.2260 -1.0394
  521MOL0     C70234   3.320   5.994   8.857 -0.6671 -0.4254 -0.3220
  521MOL0     O70235   3.215   5.959   8.936  0.4272  0.1877 -0.1143
  521MOL0     C70236   3.122   5.860   8.881  0.9760 -0.4680 -0.2071
  521MOL0     C70237   3.000   5.843   8.978  0.6446  0.0194  0.8249
  521MOL0     C70238   2.907   5.955   8.942  0.1225 -0.2853  0.7328
  521MOL0     C70239   2.786   5.975   9.035 -0.0188  0.6590  0.4249
  521MOL0     C70240   2.683   6.078   8.971 -0.0233 -0.4061  0.0616
  521MOL0     C70241   2.570   6.079   9.075 -0.1512 -0.2545  0.4446
  521MOL0     C70242   2.435   6.147   9.027  0.4551  1.0323 -0.0556
  521MOL0     C70243   2.314   6.152   9.118 -0.0895  0.2095  0.6321
  521MOL0    Cl70244   2.267   5.987   9.157  0.2228  0.4218 -0.5208
  521MOL0     C70245   3.359   6.132   8.856  0.3955 -0.8029 -0.2891
  521MOL0     C70246   3.456   6.186   8.764  0.7738 -0.5826  0.9930
  521MOL0     O70247   3.485   6.299   8.502 -0.5046 -0.1726 -0.3656
  521MOL0     C70248   3.721   6.402   8.384 -0.0356  0.5067 -0.6341
  521MOL0     C70249   3.834   6.441   8.323 -0.3098  0.0971  0.0550
  521MOL0     N70250   4.537   5.986   8.034 -1.0108 -0.5923  0.2364
  521MOL0     N70251   4.572   5.873   7.974 -0.2819  0.5506  0.6679
  521MOL0     C70252   4.144   5.055   7.070 -0.3102 -0.2860 -0.0178
  521MOL0     C70253   4.126   4.994   6.942 -0.0148 -0.0433  0.3026
  521MOL0     C70254   4.037   4.875   6.535  0.2718  0.0624  0.2124
  521MOL0     C70255   4.161   4.814   6.539 -0.1490 -0.6814  1.9171
  521MOL0     C70256   4.221   4.732   6.441 -0.1075 -0.8919  1.2057
  521MOL0     C70257   4.143   4.704   6.320 -0.1780  0.3422 -1.3306
  521MOL0     O70258   4.201   4.612   6.226 -0.1899  0.4488 -0.3217
  521MOL0     C70259   4.343   4.616   6.218 -0.0991  0.6877  0.0781
  521MOL0     C70260   4.360   4.707   6.098 -0.0461  0.6617 -0.4777
  521MOL0     C70261   4.509   4.727   6.044  0.0639  0.4473 -0.4540
  521MOL0     C70262   4.612   4.771   6.150 -0.2422  0.5002 -0.3771
  521MOL0     C70263   4.563   4.870   6.246 -0.5582  0.8304 -1.6255
  521MOL0     C70264   4.501   4.940   6.323 -0.7624 -0.1246 -0.9397
  521MOL0     C70265   4.015   4.752   6.315  0.2737  0.3632 -0.2529
  521MOL0     C70266   3.969   4.843   6.410  0.3620  0.2853 -0.1605
  521MOL0     C70267   3.849   4.924   6.377 -0.4470 -0.1386 -0.7718
  521MOL0     H70268   4.034   5.262   6.760  0.5394  0.0601 -0.2109
  521MOL0     H70269   4.065   5.381   6.974  0.2784  0.0193 -3.4161
  521MOL0     H70270   4.208   5.429   7.178  0.7047 -4.5087 -0.6848
  521MOL0     H70271   4.029   5.433   7.192 -0.4258  0.4704  0.6536
  521MOL0     H70272   4.057   5.385   7.443 -0.2840  0.9425  0.6397
  521MOL0     H70273   4.105   5.543   7.375  2.6538  0.0430 -3.6449
  521MOL0     H70274   4.335   5.462   7.367  0.8269  1.7950  1.5668
  521MOL0     H70275   4.284   5.309   7.447 -1.3529  0.6805 -2.2982
  521MOL0     H70276   4.181   5.461   7.630  0.5165 -1.5905 -1.0276
  521MOL0     H70277   4.358   5.428   7.622 -1.2556 -1.7273  2.0832
  521MOL0     H70278   4.406   5.645   7.508  0.6504  0.5738  1.9478
  521MOL0     H70279   4.238   5.688   7.533 -0.2219 -0.4873 -0.9046
  521MOL0     H70280   4.335   5.784   7.728  0.7787  0.5275  0.4871
  521MOL0     H70281   4.258   5.632   7.772  0.9771 -0.9795 -0.9317
  521MOL0     H70282   4.564   5.661   7.743  2.6401 -0.6150  3.3451
  521MOL0     H70283   4.481   5.508   7.790  4.7717 -0.9618  1.9990
  521MOL0     H70284   4.425   5.593   8.008 -0.6947 -1.1608 -2.3162
  521MOL0     H70285   4.596   5.624   7.969 -0.0507  0.5370 -0.1608
  521MOL0     H70286   4.266   5.810   8.077  0.2563 -0.7014  1.5614
  521MOL0     H70287   4.259   6.044   8.219  1.7763  0.2061  1.2573
  521MOL0     H70288   4.408   6.138   8.207 -2.0781 -1.3649  2.4667
  521MOL0     H70289   4.355   6.254   8.027  1.3356  0.5715  2.2812
  521MOL0     H70290   4.251   6.130   7.951 -4.0531  0.7379  0.2750
  521MOL0     H70291   4.066   6.168   8.102  0.5330  0.4100 -0.0830
  521MOL0     H70292   4.109   6.313   8.010 -1.0167  0.7741  1.0620
  521MOL0     H70293   4.229   6.413   8.194 -0.4043 -1.4055 -2.2994
  521MOL0     H70294   4.177   6.273   8.302 -0.4398 -0.6265  0.8853
  521MOL0     H70295   4.019   6.158   8.370  0.4005 -0.2493 -1.1113
  521MOL0     H70296   3.815   6.085   8.467 -1.4943 -0.9133 -0.1479
  521MOL0     H70297   3.543   5.906   8.624  0.8588  2.3458 -0.8444
  521MOL0     H70298   3.350   5.805   8.760  1.3182 -1.0672  2.5133
  521MOL0     H70299   3.087   5.901   8.786  2.3913  1.8409  0.1736
  521MOL0     H70300   3.173   5.764   8.873  2.9836  0.6387 -1.3916
  521MOL0     H70301   2.944   5.750   8.969 -1.1090  1.2257 -2.4788
  521MOL0     H70302   3.049   5.848   9.076  1.1091 -0.0956  0.5971
  521MOL0     H70303   2.972   6.041   8.924 -2.1680  0.8617 -3.1935
  521MOL0     H70304   2.872   5.943   8.839  1.1151  1.3735  0.1531
  521MOL0     H70305   2.817   6.008   9.135  0.5218 -1.1023  0.8838
  521MOL0     H70306   2.738   5.877   9.044  1.5889 -0.2362 -0.3863
  521MOL0     H70307   2.645   6.052   8.871  0.3135  0.9956 -0.4627
  521MOL0     H70308   2.739   6.172   8.963  4.3946 -2.8550 -1.1865
  521MOL0     H70309   2.547   5.978   9.111 -1.8146 -0.1611 -0.2551
  521MOL0     H70310   2.599   6.145   9.157 -2.1269  1.1612  0.0625
  521MOL0     H70311   2.397   6.087   8.944 -0.2907 -1.9531  2.2663
  521MOL0     H70312   2.446   6.250   8.992 -3.4452  1.2124 -1.2091
  521MOL0     H70313   2.343   6.217   9.201 -0.9184  0.4591  0.7411
  521MOL0     H70314   2.224   6.196   9.074 -2.4022 -2.6156  2.1872
  521MOL0     H70315   3.334   6.202   8.935  3.0136  1.6055 -1.4058
  521MOL0     H70316   3.488   6.290   8.770 -1.9674  0.5107 -1.3737
  521MOL0     H70317   3.636   6.467   8.398  0.7876  0.9550  3.8854
  521MOL0     H70318   3.819   6.528   8.260 -0.4834  1.0920  1.4253
  521MOL0     H70319   4.185   4.993   7.149 -1.9463 -0.8757  0.4052
  521MOL0     H70320   4.150   4.889   6.927 -0.2435  0.1896 -2.0414
  521MOL0     H70321   4.231   4.831   6.620  1.2408  0.5007  0.5527
  521MOL0     H70322   4.321   4.692   6.456 -0.0979 -1.7335 -0.8108
  521MOL0     H70323   4.387   4.517   6.199  0.1247  1.0788 -1.6864
  521MOL0     H70324   4.407   4.647   6.301  0.8300 -1.3411  0.1911
  521MOL0     H70325   4.316   4.807   6.100 -1.3262  0.1545 -1.5508
  521MOL0     H70326   4.312   4.650   6.018  0.4079  1.6868 -1.5180
  521MOL0     H70327   4.514   4.811   5.974  0.4640  0.8009 -0.0060
  521MOL0     H70328   4.558   4.636   6.006 -2.2754 -0.0293 -2.6362
  521MOL0     H70329   4.653   4.678   6.191  0.9087  1.5944  1.0589
  521MOL0     H70330   4.707   4.806   6.110 -0.4782  2.4287  0.6223
  521MOL0     H70331   4.457   5.002   6.398  0.6828  0.9752 -0.9525
  521MOL0     H70332   3.948   4.716   6.238  0.9259 -0.5327 -0.4149
  521MOL0     H70333   3.880   5.029   6.380  0.6881 -0.3913 -2.3281
  521MOL0     H70334   3.818   4.918   6.273 -4.0711 -2.0651  0.2501
  521MOL0     H70335   3.764   4.899   6.441  0.1005  0.6620  0.3068
  522MOL0     O70336   2.992   4.857   5.899 -0.4768 -0.4045 -0.0080
  522MOL0     C70337   2.998   4.979   5.925  0.2734 -1.2562  0.8224
  522MOL0     O70338   3.011   5.073   5.820  0.5750 -0.3575 -0.4807
  522MOL0     C70339   2.976   5.027   5.695 -0.7482 -0.6883  0.2680
  522MOL0     C70340   2.842   5.047   5.662  0.3754 -0.3530  0.5836
  522MOL0     C70341   2.793   5.020   5.528 -0.0675  0.4378 -0.4393
  522MOL0     C70342   2.875   4.945   5.442 -0.8965 -0.2863  0.4545
  522MOL0     O70343   2.815   4.933   5.321  0.1932 -0.4229 -0.3783
  522MOL0     C70344   2.883   4.857   5.218  0.5497 -0.2235  0.3375
  522MOL0     C70345   2.812   4.855   5.080 -0.5563 -0.0431 -0.1327
  522MOL0     C70346   2.826   4.982   5.002 -0.0534  1.2741 -0.1244
  522MOL0     C70347   2.697   5.066   4.973 -0.6726  0.6696 -0.7658
  522MOL0     C70348   2.713   5.200   4.902  0.2250  0.3058 -0.4959
  522MOL0     C70349   2.798   5.296   4.980  0.3057  0.5043 -0.5820
  522MOL0     C70350   2.752   5.317   5.125  0.0755  0.7483 -0.3381
  522MOL0     C70351   2.874   5.376   5.205  0.4787  0.5822 -0.1871
  522MOL0     N70352   2.944   5.491   5.146  0.6787 -0.3629  0.1185
  522MOL0     C70353   2.883   5.615   5.136 -0.2847 -0.8431  0.2032
  522MOL0     C70354   2.980   5.687   5.063  0.3514  0.6447  0.0714
  522MOL0     C70355   2.958   5.824   5.023  0.1884 -0.0513 -0.4861
  522MOL0     C70356   3.034   5.919   5.105  0.1574 -1.7614 -0.3778
  522MOL0     C70357   2.931   5.980   5.198  0.3325 -0.2233  0.2475
  522MOL0     C70358   2.995   6.058   5.310 -0.2777 -0.4090  0.2622
  522MOL0     O70359   2.886   6.095   5.402 -0.6419  0.0860  0.5677
  522MOL0     C70360   2.801   6.204   5.389  0.2960  0.3312 -0.0017
  522MOL0     C70361   2.808   6.304   5.296  0.8539  1.0541 -0.3918
  522MOL0     C70362   2.713   6.410   5.293 -0.2394 -0.3253 -0.2908
  522MOL0     C70363   2.599   6.401   5.376  0.3695 -0.5650 -1.3502
  522MOL0     C70364   2.496   6.507   5.367 -0.5296  0.6539  0.2655
  522MOL0     O70365   2.379   6.493   5.438  0.2179  0.5970  0.5366
  522MOL0     C70366   2.310   6.599   5.465  0.4578 -0.2467 -0.4881
  522MOL0     C70367   2.198   6.614   5.376  0.2745 -0.0127 -0.0580
  522MOL0     C70368   2.131   6.732   5.397  0.4253 -0.4119  0.2263
  522MOL0     C70369   2.152   6.826   5.494  0.1481 -0.3234 -0.9527
  522MOL0     O70370   2.080   6.948   5.512 -0.1992 -0.1310  0.3114
  522MOL0     C70371   2.045   7.020   5.398 -0.0740  1.0360 -0.0765
  522MOL0     C70372   2.086   7.170   5.422 -1.0738 -0.2330  0.0624
  522MOL0     C70373   1.985   7.250   5.486 -0.4360 -0.1911 -0.5229
  522MOL0     C70374   1.956   7.212   5.628  0.5867  0.4490 -0.4411
  522MOL0     C70375   1.832   7.308   5.665 -1.4213  1.1889 -0.2699
  522MOL0     C70376   1.783   7.299   5.810  0.1395  0.4523  0.1489
  522MOL0     C70377   1.719   7.425   5.860 -0.3357  0.7153  0.0822
  522MOL0     C70378   1.680   7.416   6.013  0.0683 -0.4506 -1.0428
  522MOL0    Cl70379   1.769   7.288   6.107 -0.0527 -0.1667 -0.1857
  522MOL0     C70380   2.259   6.796   5.588  0.6453 -0.6014  0.4505
  522MOL0     C70381   2.341   6.686   5.568  0.7221 -0.3155 -0.6446
  522MOL0     O70382   2.525   6.600   5.292  0.5540  0.7302 -0.5637
  522MOL0     C70383   2.592   6.298   5.474 -0.2965 -0.6024 -0.1885
  522MOL0     C70384   2.700   6.202   5.477  0.3118 -0.0857  0.3597
  522MOL0     N70385   3.096   5.619   5.054  0.7934  0.3655 -0.3667
  522MOL0     N70386   3.076   5.511   5.115 -0.3465 -1.0668  0.1670
  522MOL0     C70387   3.012   4.914   5.480  0.3617  0.3610 -0.2275
  522MOL0     C70388   3.058   4.958   5.606 -0.6948 -0.6023  0.6783
  522MOL0     C70389   3.005   5.035   6.061  0.6329 -0.3896  0.3650
  522MOL0     C70390   2.969   5.169   6.078  0.1077  0.6389 -0.2512
  522MOL0     C70391   2.961   5.241   6.196 -0.0720 -1.3000  0.3783
  522MOL0     C70392   2.986   5.171   6.312 -0.3484 -0.9213  0.2521
  522MOL0     O70393   2.977   5.213   6.446 -0.0768 -0.4723 -0.0903
  522MOL0     C70394   2.972   5.348   6.493  0.6527  0.3919 -0.2382
  522MOL0     C70395   3.083   5.442   6.468  0.1393  0.4339  0.0381
  522MOL0     C70396   3.218   5.422   6.531  0.2132 -0.0673 -0.0965
  522MOL0     C70397   3.244   5.508   6.661 -0.4076 -0.5076  0.1816
  522MOL0     C70398   3.152   5.469   6.767  0.2236  0.8454  1.2288
  522MOL0     C70399   3.084   5.405   6.847 -0.7026  0.6063 -0.6278
  522MOL0     C70400   3.019   5.032   6.301 -0.0277 -0.7305  0.0967
  522MOL0     C70401   3.025   4.963   6.178  0.7929  0.1716 -0.5006
  522MOL0     C70402   3.068   4.814   6.180  0.7989 -0.4629  0.3440
  522MOL0     H70403   2.775   5.092   5.736  0.1772  1.6412 -0.7481
  522MOL0     H70404   2.688   5.041   5.509  0.6332  4.1995 -0.9220
  522MOL0     H70405   2.985   4.894   5.212  0.0075  1.3156  0.0775
  522MOL0     H70406   2.891   4.756   5.259  5.0957 -0.5311 -0.7878
  522MOL0     H70407   2.709   4.820   5.091  0.3760 -3.5622 -1.2865
  522MOL0     H70408   2.863   4.774   5.027 -0.7018  0.7850 -1.5730
  522MOL0     H70409   2.869   4.952   4.905 -3.3485  0.1235 -1.3636
  522MOL0     H70410   2.893   5.046   5.060 -0.9489  1.2259  0.9779
  522MOL0     H70411   2.628   4.999   4.922  0.2605 -0.5824 -0.4336
  522MOL0     H70412   2.643   5.076   5.068 -0.1243  1.5154 -0.5211
  522MOL0     H70413   2.768   5.161   4.816 -1.0278 -1.2610 -0.6102
  522MOL0     H70414   2.615   5.237   4.870 -0.2337  0.8450  1.4223
  522MOL0     H70415   2.907   5.284   4.978  0.9306  4.8044 -0.1366
  522MOL0     H70416   2.779   5.384   4.919 -2.2568  1.9121  1.9778
  522MOL0     H70417   2.723   5.224   5.175 -1.5064  0.9647 -0.7964
  522MOL0     H70418   2.667   5.386   5.128  0.1536  1.4653 -5.6104
  522MOL0     H70419   2.842   5.400   5.306 -0.0102  0.1314 -0.2327
  522MOL0     H70420   2.945   5.293   5.210  0.0784  0.2184 -0.4745
  522MOL0     H70421   2.783   5.649   5.164  0.3063  0.3658  0.9141
  522MOL0     H70422   3.001   5.825   4.922 -2.0903  0.8570 -1.5166
  522MOL0     H70423   2.851   5.844   5.017 -0.1362 -1.0613  1.2654
  522MOL0     H70424   3.120   5.868   5.149  0.6551 -1.7976 -1.3692
  522MOL0     H70425   3.083   5.982   5.030  1.5281 -2.9956 -0.5527
  522MOL0     H70426   2.876   5.898   5.244 -0.4307 -0.3712 -0.9081
  522MOL0     H70427   2.855   6.043   5.151 -1.5944 -1.6412  1.3582
  522MOL0     H70428   3.057   6.142   5.275  2.2687 -2.5069 -0.6030
  522MOL0     H70429   3.067   5.989   5.357  0.6657 -0.2605 -0.9161
  522MOL0     H70430   2.899   6.321   5.239  0.9388 -2.0468 -1.3639
  522MOL0     H70431   2.721   6.493   5.223 -0.8818  1.7440  1.9318
  522MOL0     H70432   2.177   6.543   5.296  0.5486 -1.3682  1.0385
  522MOL0     H70433   2.047   6.765   5.336  0.0144 -1.1432  0.3892
  522MOL0     H70434   2.099   6.982   5.310  1.5712  2.2695  0.3350
  522MOL0     H70435   1.938   7.014   5.380 -0.4752  0.4368  2.1814
  522MOL0     H70436   2.181   7.175   5.477 -1.0964 -0.2581  0.1036
  522MOL0     H70437   2.097   7.213   5.322 -1.0990 -0.6451 -0.1195
  522MOL0     H70438   2.007   7.358   5.489 -2.5311  0.2660  2.0882
  522MOL0     H70439   1.890   7.237   5.434 -1.1323  3.7841 -0.5962
  522MOL0     H70440   2.037   7.244   5.695  1.1310  2.0382 -1.7849
  522MOL0     H70441   1.938   7.107   5.652  1.0215  0.7207  1.2261
  522MOL0     H70442   1.758   7.298   5.585 -1.5877 -1.0671  0.1027
  522MOL0     H70443   1.872   7.409   5.656  2.9523 -0.3358 -0.2784
  522MOL0     H70444   1.720   7.214   5.836 -1.5926  1.5979 -0.0961
  522MOL0     H70445   1.875   7.281   5.866 -0.0017  0.3921  0.3642
  522MOL0     H70446   1.636   7.463   5.799  0.6044 -0.3314 -1.9460
  522MOL0     H70447   1.788   7.510   5.873  0.1904  0.3390 -0.2188
  522MOL0     H70448   1.701   7.513   6.059 -3.4476 -1.2764  2.9390
  522MOL0     H70449   1.574   7.405   6.038  0.6305 -0.8867  1.3832
  522MOL0     H70450   2.274   6.873   5.663 -2.3581  3.2338 -2.5186
  522MOL0     H70451   2.434   6.671   5.621 -0.3950 -0.7630  1.2659
  522MOL0     H70452   2.505   6.288   5.539  0.3888  1.6333  1.1996
  522MOL0     H70453   2.691   6.117   5.544 -1.5937 -0.5830 -0.4627
  522MOL0     H70454   3.075   4.871   5.403 -1.0504 -1.5394 -0.3912
  522MOL0     H70455   3.154   4.928   5.647  0.6765 -2.2679 -3.2405
  522MOL0     H70456   2.964   5.238   5.994 -4.3353  3.3790  1.8680
  522MOL0     H70457   2.945   5.348   6.184  1.8408 -1.2208 -2.8841
  522MOL0     H70458   2.942   5.336   6.598  1.2797 -0.5133 -0.1453
  522MOL0     H70459   2.886   5.394   6.444 -0.8933 -1.0479  1.0056
  522MOL0     H70460   3.037   5.535   6.504 -2.2222 -1.5230  2.4705
  522MOL0     H70461   3.099   5.456   6.360 -0.2743  0.3501 -0.0347
  522MOL0     H70462   3.296   5.440   6.456 -0.6630  0.4869 -0.9009
  522MOL0     H70463   3.220   5.316   6.558 -0.4461  0.0140  0.2962
  522MOL0     H70464   3.347   5.504   6.698  0.1727  3.6857 -0.5668
  522MOL0     H70465   3.234   5.616   6.648  4.0675  0.4865  2.8468
  522MOL0     H70466   3.038   5.348   6.925 -0.6434  3.4568  1.6575
  522MOL0     H70467   3.041   4.986   6.396 -4.3703 -2.4130  0.5292
  522MOL0     H70468   3.115   4.779   6.273  0.7488  3.3263  1.9881
  522MOL0     H70469   2.978   4.762   6.148  0.3353  1.8977 -2.6949
  522MOL0     H70470   3.141   4.793   6.101  0.3467 -0.7948  0.0068
  523MOL0     O70471   5.584   4.567   2.511  0.1668 -0.2557  0.5363
  523MOL0     C70472   5.504   4.573   2.602  0.4405  0.8510  0.8086
  523MOL0     O70473   5.477   4.460   2.688  0.2799 -0.4272 -0.0194
  523MOL0     C70474   5.517   4.340   2.630 -0.1487  0.3870 -0.0286
  523MOL0     C70475   5.415   4.248   2.617  0.5640 -0.4758  0.1491
  523MOL0     C70476   5.444   4.119   2.565 -0.0103 -0.0269  0.7046
  523MOL0     C70477   5.570   4.077   2.540 -0.7107  0.6021  0.6487
  523MOL0     O70478   5.584   3.940   2.493  0.0030  0.1163  0.7844
  523MOL0     C70479   5.715   3.881   2.472 -0.4550 -0.0041  0.7788
  523MOL0     C70480   5.685   3.733   2.422 -0.3912  0.0292 -0.2608
  523MOL0     C70481   5.643   3.740   2.273  0.2229 -0.3284  0.3181
  523MOL0     C70482   5.643   3.614   2.193 -0.6044 -1.3078  0.0790
  523MOL0     C70483   5.571   3.499   2.264  0.9700 -0.1541 -0.2334
  523MOL0     C70484   5.574   3.380   2.170  0.1750 -0.3839  0.3960
  523MOL0     C70485   5.553   3.254   2.231 -1.3760  0.6621  0.0079
  523MOL0     C70486   5.533   3.141   2.118 -0.1758 -0.5726 -0.8789
  523MOL0     N70487   5.515   3.012   2.177  0.2089  0.5141 -0.3081
  523MOL0     C70488   5.612   2.944   2.239 -0.8427 -1.1504  0.5459
  523MOL0     C70489   5.554   2.841   2.302 -0.1239 -0.8412  1.1879
  523MOL0     C70490   5.621   2.744   2.396  0.2225  0.4831  0.0158
  523MOL0     C70491   5.606   2.791   2.536 -0.1179 -0.3325  0.1790
  523MOL0     C70492   5.729   2.783   2.632 -0.3134 -0.2802  0.3097
  523MOL0     C70493   5.714   2.863   2.755  0.1599 -0.0975 -0.3810
  523MOL0     O70494   5.649   2.793   2.864  0.8504 -0.0308 -0.0717
  523MOL0     C70495   5.716   2.698   2.936 -0.5836  0.9073  0.0310
  523MOL0     C70496   5.862   2.688   2.940  0.0941  0.0042 -0.5905
  523MOL0     C70497   5.916   2.599   3.033 -0.6717  0.7998  0.0646
  523MOL0     C70498   5.825   2.523   3.112 -0.7261  0.3718 -0.4544
  523MOL0     C70499   5.884   2.439   3.216  0.1607  0.4976 -0.0525
  523MOL0     O70500   5.802   2.390   3.315 -0.1382  0.0883 -0.6531
  523MOL0     C70501   5.872   2.395   3.432  0.1608  0.0872  1.1447
  523MOL0     C70502   5.911   2.519   3.493 -0.1884  1.1123  0.3180
  523MOL0     C70503   5.975   2.516   3.615  1.7845 -0.1841 -0.6331
  523MOL0     C70504   6.000   2.391   3.684 -0.6746  0.3854  0.1448
  523MOL0     O70505   6.068   2.404   3.803  0.1716 -0.0656  0.4199
  523MOL0     C70506   6.132   2.282   3.845  0.2214  0.2464  0.2235
  523MOL0     C70507   6.247   2.303   3.949 -0.1014  0.2754  0.7006
  523MOL0     C70508   6.380   2.354   3.888 -0.1975 -0.1661  0.6834
  523MOL0     C70509   6.378   2.503   3.886 -0.1302  0.1225 -0.5359
  523MOL0     C70510   6.494   2.560   3.810 -0.2995 -0.5289  0.0522
  523MOL0     C70511   6.492   2.717   3.811 -0.0990  0.7309  0.8512
  523MOL0     C70512   6.615   2.784   3.752 -0.0844  0.8615  0.2552
  523MOL0     C70513   6.607   2.795   3.599 -0.3081  0.2847 -0.2476
  523MOL0    Cl70514   6.464   2.896   3.562  0.5821 -0.0563  0.3961
  523MOL0     C70515   5.960   2.268   3.627  0.4609 -0.3005 -0.1589
  523MOL0     C70516   5.900   2.272   3.500  0.2010 -0.6022 -1.1861
  523MOL0     O70517   6.010   2.443   3.221  0.0479  0.4511 -0.5884
  523MOL0     C70518   5.689   2.516   3.086 -0.1505  0.9649  0.2081
  523MOL0     C70519   5.639   2.607   2.997  0.3579  0.2933 -0.1867
  523MOL0     N70520   5.426   2.832   2.276  0.6028  0.6503 -0.8874
  523MOL0     N70521   5.394   2.937   2.198  0.0374 -0.8360  0.3525
  523MOL0     C70522   5.678   4.168   2.549  1.1004 -0.3604  0.5415
  523MOL0     C70523   5.648   4.300   2.590 -0.5679  0.1920 -0.4302
  523MOL0     C70524   5.447   4.698   2.644  0.0717 -0.7850 -0.1224
  523MOL0     C70525   5.514   4.823   2.634  1.1266 -0.7914 -0.5271
  523MOL0     C70526   5.457   4.944   2.683  0.0654 -0.8030 -0.5325
  523MOL0     C70527   5.332   4.949   2.738  0.1935  0.4034  0.0952
  523MOL0     O70528   5.285   5.081   2.765  0.6900  1.3784 -0.4884
  523MOL0     C70529   5.136   5.095   2.742  0.6164  0.5876  1.0266
  523MOL0     C70530   5.090   5.234   2.771  0.9512 -0.0123 -0.3111
  523MOL0     C70531   5.180   5.346   2.712 -0.0593 -0.3943  0.2164
  523MOL0     C70532   5.106   5.480   2.736 -0.2162  0.6101 -0.1816
  523MOL0     C70533   5.009   5.503   2.623  0.1067  0.7801 -0.7098
  523MOL0     C70534   4.937   5.531   2.535  0.2250 -0.1897 -0.0099
  523MOL0     C70535   5.262   4.831   2.753 -0.4109  1.1022  0.0230
  523MOL0     C70536   5.318   4.707   2.703 -0.4570 -1.4425 -0.4332
  523MOL0     C70537   5.217   4.592   2.707  0.0553  0.0218 -0.1494
  523MOL0     H70538   5.315   4.280   2.641  0.5159 -0.4120 -0.1324
  523MOL0     H70539   5.360   4.051   2.565 -0.2430  0.2005 -1.4243
  523MOL0     H70540   5.773   3.926   2.391 -0.5596  0.8349  1.1609
  523MOL0     H70541   5.777   3.898   2.560 -1.5314  2.5628  1.1163
  523MOL0     H70542   5.602   3.694   2.481 -0.3236 -0.3504 -0.4181
  523MOL0     H70543   5.771   3.665   2.423  0.1516  0.5582  3.2011
  523MOL0     H70544   5.709   3.806   2.217  2.4655 -1.2806  1.7216
  523MOL0     H70545   5.544   3.783   2.293  0.9129  1.0285  0.8834
  523MOL0     H70546   5.601   3.637   2.094 -2.0308  2.1158  1.3376
  523MOL0     H70547   5.751   3.598   2.183  0.2338  3.0435  0.4975
  523MOL0     H70548   5.613   3.480   2.363 -0.8080 -3.0716  0.0839
  523MOL0     H70549   5.467   3.531   2.275  2.0742  3.4873  1.1481
  523MOL0     H70550   5.493   3.405   2.100  0.8762 -1.2735 -0.7736
  523MOL0     H70551   5.663   3.387   2.107  1.5381  1.9836  2.4080
  523MOL0     H70552   5.464   3.266   2.294 -0.9488  0.9939  0.5584
  523MOL0     H70553   5.639   3.236   2.296 -0.8182 -0.1717 -0.9299
  523MOL0     H70554   5.444   3.165   2.059 -0.9125  2.3814  1.2173
  523MOL0     H70555   5.614   3.144   2.045  0.5332 -0.4765 -0.1061
  523MOL0     H70556   5.713   2.983   2.231 -1.9266  2.2331  1.8456
  523MOL0     H70557   5.570   2.648   2.386 -0.9580  1.1921 -0.9719
  523MOL0     H70558   5.727   2.731   2.370  1.2841  1.2831  3.3584
  523MOL0     H70559   5.576   2.896   2.535  2.6440  0.5456 -1.4999
  523MOL0     H70560   5.524   2.729   2.573 -0.5837 -0.2330 -0.6764
  523MOL0     H70561   5.816   2.817   2.576 -1.2066  1.4585 -0.0911
  523MOL0     H70562   5.747   2.680   2.664 -2.8022 -1.0901 -0.6436
  523MOL0     H70563   5.634   2.937   2.740 -0.7640 -1.0270 -0.2153
  523MOL0     H70564   5.806   2.912   2.786 -0.4184 -0.3749  1.9187
  523MOL0     H70565   5.921   2.763   2.888 -0.5469 -0.0641 -1.4473
  523MOL0     H70566   6.024   2.591   3.044 -0.5700 -1.2611 -1.8073
  523MOL0     H70567   5.884   2.618   3.456  1.9251  2.7314  2.7566
  523MOL0     H70568   5.997   2.611   3.664 -0.4584  1.3559 -2.3911
  523MOL0     H70569   6.057   2.214   3.887  1.3629 -1.1683  0.0940
  523MOL0     H70570   6.174   2.229   3.759  0.4115 -0.4621  0.7424
  523MOL0     H70571   6.215   2.365   4.034 -1.5876 -0.1949  0.5110
  523MOL0     H70572   6.256   2.201   3.988 -3.3034  0.1677  1.4008
  523MOL0     H70573   6.462   2.321   3.952 -1.4847  2.1892  3.8351
  523MOL0     H70574   6.394   2.311   3.788  0.5544 -0.3195  0.8467
  523MOL0     H70575   6.381   2.545   3.987  1.6714  1.4789 -1.0899
  523MOL0     H70576   6.287   2.539   3.838 -3.2215 -1.8324  3.3479
  523MOL0     H70577   6.495   2.524   3.706 -0.1116  2.3244 -1.0138
  523MOL0     H70578   6.586   2.525   3.858  2.2422  2.8223 -1.9379
  523MOL0     H70579   6.408   2.743   3.746  0.1757 -0.5030 -0.0358
  523MOL0     H70580   6.477   2.763   3.909 -2.9601 -1.1461  1.4278
  523MOL0     H70581   6.703   2.733   3.791  1.2649  0.0040 -3.4274
  523MOL0     H70582   6.625   2.886   3.791  1.3757  1.0578 -0.5560
  523MOL0     H70583   6.700   2.841   3.565 -0.6979 -1.0101 -3.4170
  523MOL0     H70584   6.599   2.708   3.534 -1.3501  1.3109 -1.5550
  523MOL0     H70585   5.967   2.171   3.676  0.7380 -1.7909 -2.9773
  523MOL0     H70586   5.847   2.186   3.461 -2.5381  1.2373 -1.8517
  523MOL0     H70587   5.625   2.447   3.141  1.7200  1.0463  2.6766
  523MOL0     H70588   5.531   2.602   2.986  0.4680 -1.6080 -0.7406
  523MOL0     H70589   5.777   4.138   2.515  0.5171  2.2762 -4.5704
  523MOL0     H70590   5.731   4.370   2.594  0.3953 -0.8226 -1.7044
  523MOL0     H70591   5.611   4.816   2.586  0.5727 -1.0824 -1.6275
  523MOL0     H70592   5.507   5.036   2.654 -2.5645 -0.4154 -4.4853
  523MOL0     H70593   5.083   5.025   2.807  3.1863 -0.0188  2.6674
  523MOL0     H70594   5.120   5.070   2.637 -0.1588  1.6577  0.8726
  523MOL0     H70595   5.068   5.242   2.878 -0.7837 -0.6762 -0.5832
  523MOL0     H70596   4.995   5.238   2.716  1.4475 -1.9666 -1.3744
  523MOL0     H70597   5.194   5.339   2.603  0.3217  0.1211  0.2264
  523MOL0     H70598   5.283   5.355   2.749  0.0497  0.0985 -0.1811
  523MOL0     H70599   5.051   5.481   2.830 -0.2408 -1.4353 -0.1148
  523MOL0     H70600   5.181   5.560   2.742 -0.6395  0.9000  2.1841
  523MOL0     H70601   4.867   5.570   2.465  1.3368 -0.7936 -1.5139
  523MOL0     H70602   5.169   4.822   2.808  0.7479 -0.8464  1.8318
  523MOL0     H70603   5.114   4.620   2.684 -1.3211 -4.4445 -0.4215
  523MOL0     H70604   5.241   4.522   2.626 -0.9927  0.6022 -0.9865
  523MOL0     H70605   5.198   4.546   2.805  2.6727  1.4173  1.1250
  524MOL0     O70606  10.657  11.130   3.567 -0.0239  0.1494  0.7430
  524MOL0     C70607  10.623  11.183   3.674 -1.0437 -0.5034  0.0661
  524MOL0     O70608  10.588  11.112   3.783 -0.4750 -0.3642 -0.2645
  524MOL0     C70609  10.624  10.983   3.786 -0.9807 -0.0672  0.0608
  524MOL0     C70610  10.528  10.892   3.769  0.3447 -0.5887 -0.5066
  524MOL0     C70611  10.552  10.755   3.793  0.2364 -0.2104  0.7291
  524MOL0     C70612  10.679  10.699   3.834 -0.0715  0.0235  0.4856
  524MOL0     O70613  10.711  10.562   3.857 -0.4333  0.4132 -0.6200
  524MOL0     C70614  10.610  10.471   3.820 -0.3398  0.0581  0.4150
  524MOL0     C70615  10.667  10.330   3.790 -0.0686 -0.2358 -1.6232
  524MOL0     C70616  10.561  10.214   3.783 -0.1697 -0.5666 -0.1104
  524MOL0     C70617  10.439  10.236   3.697  0.4432 -0.2752 -0.6275
  524MOL0     C70618  10.461  10.237   3.539 -0.9627 -0.0364 -0.9148
  524MOL0     C70619  10.457  10.103   3.467  0.2108 -0.4276  0.1519
  524MOL0     C70620  10.470  10.133   3.316  0.0011 -1.0127  0.3165
  524MOL0     C70621  10.457   9.996   3.235  0.0623  0.1276 -0.7857
  524MOL0     N70622  10.442  10.021   3.094  0.6575  0.1924 -0.3586
  524MOL0     C70623  10.388  10.133   3.032 -0.2659 -0.1890 -0.2759
  524MOL0     C70624  10.436  10.128   2.908 -0.8845 -0.0209 -0.7932
  524MOL0     C70625  10.427  10.239   2.807  0.1836 -0.5208  0.8177
  524MOL0     C70626  10.562  10.313   2.796 -0.3964 -0.1019 -0.5407
  524MOL0     C70627  10.633  10.378   2.916 -0.1514  0.4506  0.1527
  524MOL0     C70628  10.562  10.495   2.980 -0.3702 -1.0665  0.0975
  524MOL0     O70629  10.577  10.617   2.896  0.2530 -0.5199  0.4145
  524MOL0     C70630  10.696  10.672   2.865 -0.2381 -0.5132 -0.4329
  524MOL0     C70631  10.715  10.750   2.757  0.3732  0.5861  0.4557
  524MOL0     C70632  10.826  10.831   2.735  0.1320 -0.1791 -0.7454
  524MOL0     C70633  10.923  10.837   2.831 -0.2428  0.6298 -0.8990
  524MOL0     C70634  11.048  10.917   2.819 -0.0125 -0.7487 -0.3922
  524MOL0     O70635  11.132  10.932   2.924  0.5448  0.6372 -0.1645
  524MOL0     C70636  11.250  10.996   2.907  0.8938  0.8068 -0.5537
  524MOL0     C70637  11.346  10.944   2.818  0.3496  0.3533 -0.1551
  524MOL0     C70638  11.473  11.004   2.808 -0.0934  1.1769  0.3174
  524MOL0     C70639  11.510  11.116   2.877 -1.1254 -0.4439  0.1253
  524MOL0     O70640  11.644  11.150   2.877  0.0126 -0.3193 -0.1810
  524MOL0     C70641  11.686  11.284   2.906  0.1031  0.3108 -0.1555
  524MOL0     C70642  11.826  11.285   2.970 -0.6383  1.2770 -0.0320
  524MOL0     C70643  11.813  11.224   3.115  0.5934  0.7464  0.7736
  524MOL0     C70644  11.882  11.092   3.135 -0.9895 -0.3045 -0.0245
  524MOL0     C70645  11.886  11.037   3.276  0.4935 -0.6946 -0.6040
  524MOL0     C70646  11.915  10.887   3.284  0.3090 -0.0715  0.1434
  524MOL0     C70647  11.857  10.843   3.420  0.4897  0.2140 -0.3332
  524MOL0     C70648  11.886  10.703   3.460  0.1396 -0.2015  0.1327
  524MOL0    Cl70649  11.786  10.624   3.590  0.6008 -0.4946 -0.1587
  524MOL0     C70650  11.411  11.170   2.960  0.6519  0.1874  0.1457
  524MOL0     C70651  11.286  11.104   2.990  0.5096  0.1696  0.2219
  524MOL0     O70652  11.037  10.992   2.715 -0.8063  0.4793  0.0986
  524MOL0     C70653  10.911  10.740   2.932 -1.1313  1.0743  1.1517
  524MOL0     C70654  10.799  10.666   2.949 -0.4602  0.6961 -0.0369
  524MOL0     N70655  10.514  10.019   2.893  0.1000  0.6609 -0.1146
  524MOL0     N70656  10.502   9.942   2.998  0.8123 -0.1668  0.2683
  524MOL0     C70657  10.776  10.800   3.865  0.2805  0.6467 -0.6407
  524MOL0     C70658  10.750  10.940   3.841 -0.1420 -1.0627 -0.1589
  524MOL0     C70659  10.625  11.334   3.680 -0.6141  0.4283 -0.0845
  524MOL0     C70660  10.671  11.384   3.796 -0.1060  0.0666  0.3763
  524MOL0     C70661  10.664  11.524   3.820 -0.2165  0.3096  0.6425
  524MOL0     C70662  10.601  11.605   3.725 -0.6081 -0.6808  0.4219
  524MOL0     O70663  10.599  11.742   3.748  0.5495  0.3930 -0.3662
  524MOL0     C70664  10.480  11.825   3.724 -0.3101  0.0287 -0.2093
  524MOL0     C70665  10.499  11.909   3.592 -0.0948  0.3019 -0.0260
  524MOL0     C70666  10.617  11.996   3.588  0.5221 -0.8669  0.4935
  524MOL0     C70667  10.622  12.117   3.690 -0.1903 -0.8247  0.2602
  524MOL0     C70668  10.715  12.219   3.637 -0.4444 -0.1342  0.3107
  524MOL0     C70669  10.788  12.304   3.580  1.0198 -0.1849 -0.3069
  524MOL0     C70670  10.555  11.550   3.602  0.7156  0.1481 -0.0826
  524MOL0     C70671  10.556  11.410   3.580  0.5781  0.0916 -0.1570
  524MOL0     C70672  10.501  11.352   3.451 -0.3418 -0.4275  0.4166
  524MOL0     H70673  10.429  10.931   3.747  1.7688  3.7459 -0.2191
  524MOL0     H70674  10.466  10.694   3.768 -0.3987  0.5287  1.1040
  524MOL0     H70675  10.537  10.462   3.901 -1.6969 -1.5154 -0.8948
  524MOL0     H70676  10.567  10.510   3.728  0.2048 -0.3470 -0.0171
  524MOL0     H70677  10.742  10.298   3.862 -2.5612 -0.0570  1.2489
  524MOL0     H70678  10.713  10.339   3.691 -0.2531  0.3596 -1.6602
  524MOL0     H70679  10.536  10.182   3.884  0.5671  0.2702  0.3484
  524MOL0     H70680  10.616  10.128   3.740  0.4489  1.0444 -2.8076
  524MOL0     H70681  10.361  10.162   3.718 -0.5336  0.8455 -0.2533
  524MOL0     H70682  10.395  10.328   3.736  2.0613 -1.1501  3.7628
  524MOL0     H70683  10.383  10.300   3.494  0.9270  1.8054 -1.7749
  524MOL0     H70684  10.555  10.291   3.525 -1.2973  1.2339  1.2550
  524MOL0     H70685  10.528  10.032   3.510  0.0421  0.7090  2.4905
  524MOL0     H70686  10.357  10.064   3.491  0.1151 -0.9750 -1.0579
  524MOL0     H70687  10.566  10.172   3.281  0.2326 -2.3265 -0.5639
  524MOL0     H70688  10.388  10.198   3.284 -0.3800 -2.6102 -2.2324
  524MOL0     H70689  10.546   9.935   3.248 -0.8299 -1.2973 -1.0805
  524MOL0     H70690  10.374   9.935   3.273 -1.3036  1.8528 -0.8606
  524MOL0     H70691  10.318  10.206   3.070  0.6071 -0.0954  1.2162
  524MOL0     H70692  10.401  10.207   2.706  1.5641  1.8229 -0.3372
  524MOL0     H70693  10.349  10.306   2.844  1.1623  0.0602  1.8794
  524MOL0     H70694  10.628  10.234   2.759 -3.6992 -2.7747 -1.2294
  524MOL0     H70695  10.551  10.389   2.717  0.9704  0.0609 -0.5991
  524MOL0     H70696  10.731  10.408   2.879 -0.4985  0.0403 -1.1556
  524MOL0     H70697  10.655  10.296   2.985  1.3826 -0.9671 -1.8858
  524MOL0     H70698  10.602  10.532   3.075 -0.3698  1.4463 -0.8193
  524MOL0     H70699  10.455  10.472   2.989 -0.7507  0.4140 -0.4341
  524MOL0     H70700  10.626  10.759   2.695 -0.7661 -0.1475  1.9274
  524MOL0     H70701  10.830  10.892   2.645  1.5039 -0.9083 -1.2011
  524MOL0     H70702  11.324  10.851   2.766  1.0051  1.1008 -1.8295
  524MOL0     H70703  11.546  10.955   2.745  1.8116  0.9388  2.5962
  524MOL0     H70704  11.685  11.351   2.819  0.3152  2.9693  1.7821
  524MOL0     H70705  11.614  11.335   2.970 -0.0472  0.9628 -0.8249
  524MOL0     H70706  11.889  11.216   2.912 -0.9968  0.7607  0.1824
  524MOL0     H70707  11.873  11.384   2.974 -0.6906  1.2535  2.7286
  524MOL0     H70708  11.849  11.305   3.179  2.4016 -0.9927  2.1044
  524MOL0     H70709  11.711  11.205   3.152 -0.5154 -0.3609 -2.5202
  524MOL0     H70710  11.985  11.112   3.103 -1.7469  4.1018 -0.3144
  524MOL0     H70711  11.831  11.017   3.073  0.2632 -1.9139  0.8322
  524MOL0     H70712  11.792  11.070   3.320  0.1650  3.3423 -3.7771
  524MOL0     H70713  11.968  11.089   3.327 -3.0169  3.0491  1.8157
  524MOL0     H70714  11.873  10.822   3.207  2.8586  0.3091 -1.7090
  524MOL0     H70715  12.024  10.877   3.279  0.7200  0.4876  4.3306
  524MOL0     H70716  11.748  10.853   3.416  0.2541 -2.0289 -1.8661
  524MOL0     H70717  11.901  10.913   3.491  1.7128 -2.4204  1.6928
  524MOL0     H70718  11.875  10.667   3.357 -0.3629  2.3185 -0.7719
  524MOL0     H70719  11.989  10.706   3.498  0.3516  1.5361 -0.5088
  524MOL0     H70720  11.418  11.257   3.023 -2.7997  0.2544  0.5716
  524MOL0     H70721  11.215  11.145   3.060  0.4188  0.8790 -0.2714
  524MOL0     H70722  10.997  10.715   2.993 -0.2772 -2.5738 -1.2303
  524MOL0     H70723  10.789  10.608   3.040 -1.2805 -0.3999 -0.7971
  524MOL0     H70724  10.869  10.765   3.908  0.5426  3.0895  0.9733
  524MOL0     H70725  10.815  11.016   3.883  1.2603 -0.8407 -2.5636
  524MOL0     H70726  10.730  11.325   3.867  0.4614 -0.0300 -0.1664
  524MOL0     H70727  10.691  11.565   3.916  0.3015  1.0591  0.1861
  524MOL0     H70728  10.477  11.895   3.808  0.8442  2.3216 -1.9272
  524MOL0     H70729  10.390  11.765   3.716 -0.5529 -0.0280  2.1805
  524MOL0     H70730  10.405  11.963   3.580 -1.2150  0.0420  5.2536
  524MOL0     H70731  10.516  11.844   3.506  1.0137  2.4284 -1.4989
  524MOL0     H70732  10.614  12.045   3.490 -1.0231  1.6139  1.6808
  524MOL0     H70733  10.710  11.939   3.594 -0.1503 -2.3999 -1.8709
  524MOL0     H70734  10.517  12.147   3.698  0.7475  3.0664 -0.2395
  524MOL0     H70735  10.660  12.074   3.783 -0.2292 -1.8920 -0.1986
  524MOL0     H70736  10.859  12.367   3.531  1.7873 -0.0669  0.8942
  524MOL0     H70737  10.505  11.618   3.534  2.8681  0.5213 -1.3904
  524MOL0     H70738  10.443  11.431   3.401 -0.0539 -1.1805 -1.1703
  524MOL0     H70739  10.578  11.321   3.380  1.6969 -0.6000  2.5587
  524MOL0     H70740  10.447  11.258   3.463 -0.5999 -0.1915  1.1467
  525MOL0     O70741   3.377   6.929  10.273  0.0428  0.5912  0.2600
  525MOL0     C70742   3.335   7.040  10.254 -0.4472  1.2208  0.4557
  525MOL0     O70743   3.407   7.156  10.268 -0.4408 -0.7748 -1.0977
  525MOL0     C70744   3.531   7.139  10.331  0.3765  0.2065  0.4439
  525MOL0     C70745   3.553   7.185  10.458 -0.2983  0.2863 -0.4695
  525MOL0     C70746   3.680   7.197  10.512 -0.1322 -0.7189  0.1781
  525MOL0     C70747   3.788   7.156  10.433 -0.5337  0.8094 -0.4423
  525MOL0     O70748   3.906   7.190  10.488  0.3533  0.3854  0.1136
  525MOL0     C70749   4.025   7.164  10.416 -0.0417 -0.5357  0.6913
  525MOL0     C70750   4.153   7.207  10.506 -0.3166  0.2028 -0.6177
  525MOL0     C70751   4.283   7.180  10.433 -0.3258  0.8228  0.6842
  525MOL0     C70752   4.311   7.249  10.301 -1.1427 -0.5274 -0.2002
  525MOL0     C70753   4.437   7.189  10.226 -0.1298 -0.5640 -0.2119
  525MOL0     C70754   4.561   7.162  10.320  0.3918 -0.1340  1.1480
  525MOL0     C70755   4.670   7.071  10.268  0.0489 -0.0135  0.3980
  525MOL0     C70756   4.625   6.942  10.205  0.3614 -0.4111 -0.3221
  525MOL0     N70757   4.572   6.858  10.311  0.2932  0.5212  0.2199
  525MOL0     C70758   4.639   6.741  10.351  0.4041 -0.4962  0.2156
  525MOL0     C70759   4.552   6.683  10.435 -0.4144 -0.6045 -0.0043
  525MOL0     C70760   4.572   6.553  10.518  0.2665 -0.1945 -0.7325
  525MOL0     C70761   4.641   6.586  10.650  0.4413  0.1118  0.2659
  525MOL0     C70762   4.636   6.481  10.757 -1.3245  0.0298 -0.6848
  525MOL0     C70763   4.701   6.349  10.730 -0.1028  0.2301  0.9558
  525MOL0     O70764   4.839   6.365  10.705  0.3326 -0.7940 -0.1015
  525MOL0     C70765   4.929   6.395  10.807 -0.4741 -0.1766 -0.2022
  525MOL0     C70766   5.020   6.488  10.784  0.1248 -0.2667 -0.4870
  525MOL0     C70767   5.125   6.507  10.870  0.9619  0.2327 -0.4968
  525MOL0     C70768   5.131   6.445  10.997 -0.8408 -0.9039 -0.4786
  525MOL0     C70769   5.249   6.456  11.082 -0.0020  0.3752 -0.1694
  525MOL0     O70770   5.339   6.554  11.050 -0.2989 -0.1532 -0.4400
  525MOL0     C70771   5.424   6.593  11.156  0.5628  0.6552  0.7120
  525MOL0     C70772   5.385   6.630  11.289 -0.8732  0.0229  0.3976
  525MOL0     C70773   5.479   6.673  11.379 -0.3624 -0.4342  0.0151
  525MOL0     C70774   5.612   6.698  11.341 -0.3035  0.2568  1.0590
  525MOL0     O70775   5.707   6.732  11.434  0.2981 -0.5267 -0.7256
  525MOL0     C70776   5.725   6.631  11.536 -0.3008 -0.2191  0.6683
  525MOL0     C70777   5.860   6.664  11.604  0.6142 -0.8822 -0.9767
  525MOL0     C70778   5.887   6.567  11.721  0.1423  0.2494 -0.7593
  525MOL0     C70779   5.983   6.629  11.829  0.6976  0.2790 -0.3810
  525MOL0     C70780   6.122   6.677  11.769  0.3311  0.7329 -0.5331
  525MOL0     C70781   6.212   6.727  11.881 -0.0997  0.1510  0.5683
  525MOL0     C70782   6.359   6.734  11.837  0.1624  0.0164  0.4095
  525MOL0     C70783   6.390   6.818  11.713 -0.3055 -0.4612 -0.6619
  525MOL0    Cl70784   6.353   6.985  11.754 -0.6921 -0.3433 -0.7337
  525MOL0     C70785   5.650   6.677  11.203  0.5835 -0.0333 -0.1985
  525MOL0     C70786   5.555   6.625  11.120 -0.3163 -0.2891 -0.0903
  525MOL0     O70787   5.251   6.381  11.179 -0.0087  0.8016 -0.1529
  525MOL0     C70788   5.031   6.348  11.023 -0.0198 -0.5162  0.1029
  525MOL0     C70789   4.927   6.325  10.928  0.5850  0.0606 -0.7913
  525MOL0     N70790   4.443   6.761  10.444  1.0406 -0.5371  0.5118
  525MOL0     N70791   4.444   6.863  10.365 -0.1179  0.4202  0.3380
  525MOL0     C70792   3.762   7.092  10.305  0.2200  0.4545 -0.3284
  525MOL0     C70793   3.636   7.092  10.253 -0.1276  0.2514  0.3288
  525MOL0     C70794   3.211   7.060  10.192  0.4694 -0.0399  0.2490
  525MOL0     C70795   3.111   6.977  10.236 -0.5968 -0.4225  0.3251
  525MOL0     C70796   2.985   6.973  10.187 -0.3833 -0.1280  0.8138
  525MOL0     C70797   2.955   7.067  10.094  0.5759  0.3188 -0.2829
  525MOL0     O70798   2.830   7.072  10.033  0.3802 -0.4444  0.2889
  525MOL0     C70799   2.719   7.101  10.118  0.4615  0.6082 -0.0132
  525MOL0     C70800   2.632   7.228  10.071 -0.1570 -0.6549  0.2485
  525MOL0     C70801   2.580   7.217   9.926  0.9488  0.3822 -0.3364
  525MOL0     C70802   2.452   7.136   9.916  0.1092  0.2179  0.9733
  525MOL0     C70803   2.341   7.221   9.955  0.0917 -0.4556 -0.2263
  525MOL0     C70804   2.232   7.266  10.005 -0.2568 -0.6100 -0.7771
  525MOL0     C70805   3.046   7.156  10.048 -0.0723  0.0818  0.8398
  525MOL0     C70806   3.176   7.159  10.093  0.1459 -0.2035 -0.1434
  525MOL0     C70807   3.273   7.238  10.019  0.2739 -0.6426  0.5878
  525MOL0     H70808   3.466   7.219  10.514 -0.0494  1.3405 -0.7214
  525MOL0     H70809   3.706   7.238  10.609  2.9751  1.6853 -1.4965
  525MOL0     H70810   4.038   7.055  10.411  2.1128 -0.5892  4.0627
  525MOL0     H70811   4.029   7.206  10.316 -1.7955 -0.1761  0.7392
  525MOL0     H70812   4.137   7.162  10.605 -0.1715  0.0521 -0.6643
  525MOL0     H70813   4.164   7.315  10.518  2.0651 -0.1631  1.3741
  525MOL0     H70814   4.282   7.073  10.414 -3.5001  0.0318  4.1969
  525MOL0     H70815   4.368   7.186  10.502 -1.0593  0.5538  1.6231
  525MOL0     H70816   4.216   7.238  10.248 -2.6624 -2.5467  2.6703
  525MOL0     H70817   4.334   7.355  10.316  1.9124 -1.0832 -0.4075
  525MOL0     H70818   4.404   7.093  10.185 -1.6382  0.5092 -1.6058
  525MOL0     H70819   4.459   7.245  10.135  1.6214  0.2105  0.6468
  525MOL0     H70820   4.603   7.259  10.348 -1.1467  1.2907 -1.1289
  525MOL0     H70821   4.532   7.110  10.412  1.7592 -0.1423  1.5980
  525MOL0     H70822   4.747   7.054  10.343 -1.0798 -2.6368  1.0661
  525MOL0     H70823   4.731   7.139  10.207  2.9046 -2.1035  0.7455
  525MOL0     H70824   4.558   6.960  10.121  1.2511  4.8295 -0.1999
  525MOL0     H70825   4.720   6.905  10.166  1.7331  1.9898  0.5679
  525MOL0     H70826   4.737   6.709  10.317  0.3222  0.5665 -1.0919
  525MOL0     H70827   4.472   6.512  10.536 -0.2684  0.9714 -1.0052
  525MOL0     H70828   4.642   6.487  10.465  0.6914 -0.0892 -0.3176
  525MOL0     H70829   4.746   6.608  10.630 -0.4861  3.4184 -1.6442
  525MOL0     H70830   4.600   6.679  10.691  1.3769 -0.3631  2.4170
  525MOL0     H70831   4.534   6.470  10.794 -0.7935  2.4814  1.9860
  525MOL0     H70832   4.676   6.542  10.840 -2.6033  1.5373 -1.1211
  525MOL0     H70833   4.648   6.316  10.640 -0.2602  0.2957  1.0241
  525MOL0     H70834   4.687   6.274  10.808  1.0694  1.4519  2.4010
  525MOL0     H70835   5.009   6.546  10.693  1.3827  0.1844 -0.3790
  525MOL0     H70836   5.194   6.586  10.841 -1.1771  2.2980 -0.2705
  525MOL0     H70837   5.287   6.623  11.333 -1.2753  0.5638 -0.3916
  525MOL0     H70838   5.449   6.672  11.484  1.2842  1.3874  0.5608
  525MOL0     H70839   5.651   6.627  11.616  0.4443  1.0002  1.4464
  525MOL0     H70840   5.735   6.530  11.495  0.0281 -2.3091  5.2863
  525MOL0     H70841   5.937   6.661  11.526  0.8683 -0.4511 -0.7433
  525MOL0     H70842   5.847   6.765  11.643 -2.0976 -1.6557  0.3815
  525MOL0     H70843   5.793   6.546  11.772  0.0724  0.6381 -0.7293
  525MOL0     H70844   5.914   6.470  11.678  0.8421  0.8483 -1.7061
  525MOL0     H70845   6.002   6.551  11.904 -0.0523  2.4129  2.2157
  525MOL0     H70846   5.934   6.716  11.876  0.6123 -1.0788  2.2286
  525MOL0     H70847   6.103   6.759  11.699 -0.2447 -0.5174 -1.9062
  525MOL0     H70848   6.167   6.594  11.713 -0.9006  1.3519 -2.5287
  525MOL0     H70849   6.190   6.829  11.911  0.5136  0.2551  0.6810
  525MOL0     H70850   6.208   6.676  11.978 -2.7228 -2.7949 -0.9048
  525MOL0     H70851   6.414   6.640  11.822  1.4597  0.5787  1.4402
  525MOL0     H70852   6.415   6.793  11.910  0.8768 -1.0430  0.7451
  525MOL0     H70853   6.495   6.804  11.684 -0.2811 -2.3228  0.2103
  525MOL0     H70854   6.320   6.800  11.631  0.1741 -0.8573 -0.9860
  525MOL0     H70855   5.754   6.684  11.173  1.2815  4.1938  2.2960
  525MOL0     H70856   5.569   6.618  11.012 -1.3444  3.1034 -0.5708
  525MOL0     H70857   5.034   6.296  11.118 -2.6811 -1.6898 -0.3760
  525MOL0     H70858   4.868   6.241  10.964  1.4774  0.3417  1.5362
  525MOL0     H70859   3.848   7.061  10.246  0.2666 -1.8906  0.8826
  525MOL0     H70860   3.623   7.071  10.147 -2.1596 -2.8611  1.0690
  525MOL0     H70861   3.130   6.896  10.305 -2.0020 -0.3071  0.8714
  525MOL0     H70862   2.919   6.892  10.216 -0.2942 -0.2561  0.6629
  525MOL0     H70863   2.754   7.118  10.220  1.4157 -0.2256 -0.1898
  525MOL0     H70864   2.653   7.014  10.123  0.9143  0.2498  4.8292
  525MOL0     H70865   2.698   7.315  10.078 -1.0402 -0.1106  3.3380
  525MOL0     H70866   2.551   7.241  10.143  0.6840  2.2024  0.7941
  525MOL0     H70867   2.663   7.185   9.863  0.8210  0.7873 -0.7098
  525MOL0     H70868   2.551   7.316   9.890 -2.1836 -0.6575 -0.9937
  525MOL0     H70869   2.452   7.102   9.812 -2.3617 -1.0618  1.3257
  525MOL0     H70870   2.461   7.042   9.972  1.4272 -0.9261 -1.0225
  525MOL0     H70871   2.139   7.292  10.051 -0.0968  3.4746 -2.3357
  525MOL0     H70872   3.011   7.225   9.971  2.4251  2.6969  1.8486
  525MOL0     H70873   3.267   7.341  10.056 -0.0216  0.1843 -1.5859
  525MOL0     H70874   3.371   7.190  10.021  1.0111  0.8166  2.2017
  525MOL0     H70875   3.231   7.249   9.918  0.8344 -1.2474  0.2824
  526MOL0     O70876   1.202   4.875   5.645 -0.9343  0.1600 -0.6901
  526MOL0     C70877   1.255   4.848   5.537  0.5062 -0.5454 -0.3482
  526MOL0     O70878   1.380   4.803   5.520  0.6592  0.5232  0.4090
  526MOL0     C70879   1.472   4.778   5.618  0.1082 -0.2192 -0.1242
  526MOL0     C70880   1.611   4.811   5.607 -0.1505 -0.5159  0.7471
  526MOL0     C70881   1.699   4.755   5.700 -0.0801 -0.0089 -0.2140
  526MOL0     C70882   1.665   4.677   5.803 -1.1753 -0.1498  0.2815
  526MOL0     O70883   1.750   4.617   5.901  0.1490 -0.7308 -0.9601
  526MOL0     C70884   1.870   4.701   5.939  0.4810  0.1089  0.8360
  526MOL0     C70885   1.957   4.631   6.038  0.2763  0.9589  1.1341
  526MOL0     C70886   2.077   4.712   6.084  0.3564  0.2474 -0.2435
  526MOL0     C70887   2.155   4.629   6.172 -1.1977  0.3536  0.1204
  526MOL0     C70888   2.241   4.706   6.270  0.4978 -0.2560  1.1623
  526MOL0     C70889   2.312   4.628   6.383  0.5810  0.4922 -0.6216
  526MOL0     C70890   2.431   4.554   6.326 -0.8803  0.9631  0.0494
  526MOL0     C70891   2.509   4.486   6.445  0.5588 -0.9010 -0.7145
  526MOL0     N70892   2.577   4.586   6.536 -0.7126 -0.3656  0.8437
  526MOL0     C70893   2.565   4.597   6.679  0.7508  0.1197  0.2137
  526MOL0     C70894   2.655   4.692   6.710 -0.3307 -0.3280 -0.1295
  526MOL0     C70895   2.704   4.730   6.848  0.8765  0.1035 -0.7409
  526MOL0     C70896   2.599   4.830   6.912  0.6805 -0.3097 -0.1373
  526MOL0     C70897   2.456   4.857   6.848 -0.3560 -0.4443  0.6842
  526MOL0     C70898   2.455   4.919   6.708  1.5296  0.5368 -0.6763
  526MOL0     O70899   2.333   5.003   6.694 -0.1355  0.3396  0.4816
  526MOL0     C70900   2.296   5.043   6.573  0.2621 -0.3555 -0.2175
  526MOL0     C70901   2.371   5.029   6.451  0.0777  0.4480  0.3150
  526MOL0     C70902   2.313   5.066   6.337 -0.5955  0.0571 -1.6554
  526MOL0     C70903   2.188   5.130   6.333  0.3251  0.0529 -0.3655
  526MOL0     C70904   2.130   5.149   6.194  1.0273 -0.3163 -0.0993
  526MOL0     O70905   2.139   5.048   6.090  0.3613 -0.0536 -0.2883
  526MOL0     C70906   2.084   5.065   5.969 -0.0209  0.3109 -0.6789
  526MOL0     C70907   2.157   5.006   5.862  0.4282 -0.5640  0.1260
  526MOL0     C70908   2.120   5.036   5.724 -0.5459  0.8589 -1.2962
  526MOL0     C70909   2.004   5.104   5.699  0.5091  0.1169 -0.3803
  526MOL0     O70910   1.961   5.117   5.570  0.2057 -0.0588 -0.1975
  526MOL0     C70911   1.970   5.001   5.494  0.6707  0.1664  0.8102
  526MOL0     C70912   1.908   5.037   5.363  0.8084 -0.1923 -0.0993
  526MOL0     C70913   1.998   5.029   5.243  0.5879  0.4637  0.9714
  526MOL0     C70914   2.105   5.136   5.245  0.5729  0.1303 -0.0835
  526MOL0     C70915   2.224   5.093   5.151  0.4468 -0.6688  0.1714
  526MOL0     C70916   2.308   4.978   5.209 -0.0482  0.1202  0.5303
  526MOL0     C70917   2.378   4.997   5.344 -0.3326 -1.2599  0.0676
  526MOL0     C70918   2.442   4.868   5.402 -0.3399  0.5627  0.6196
  526MOL0    Cl70919   2.536   4.758   5.283  0.3455  0.2361  0.1414
  526MOL0     C70920   1.934   5.161   5.806 -0.1847  0.1988  0.3833
  526MOL0     C70921   1.975   5.145   5.937  0.1658 -0.4818  0.0736
  526MOL0     O70922   2.076   5.260   6.178 -0.1596  0.7689 -0.0281
  526MOL0     C70923   2.111   5.154   6.453  0.5996  0.8728 -0.3872
  526MOL0     C70924   2.172   5.124   6.579  0.7359  0.4305  1.0184
  526MOL0     N70925   2.714   4.740   6.598  1.3635  0.0864 -0.1165
  526MOL0     N70926   2.672   4.676   6.501  0.2906  1.3486 -0.4080
  526MOL0     C70927   1.533   4.641   5.814 -0.7592 -0.1802 -1.4130
  526MOL0     C70928   1.442   4.686   5.722 -0.8103 -0.8778 -0.6683
  526MOL0     C70929   1.176   4.890   5.415 -0.3187  0.5910 -0.1915
  526MOL0     C70930   1.072   4.977   5.437 -0.9544  1.1917 -1.6518
  526MOL0     C70931   0.981   5.015   5.340  0.4080  0.8255  0.3089
  526MOL0     C70932   0.998   4.968   5.212 -0.1253  0.2803 -0.6812
  526MOL0     O70933   0.904   5.002   5.116  0.7936 -0.3201 -0.8554
  526MOL0     C70934   0.882   4.925   5.007  0.4766  0.2832  0.7409
  526MOL0     C70935   0.731   4.941   4.980  0.9746  0.5292 -0.3357
  526MOL0     C70936   0.639   4.849   5.074 -0.4497 -0.5185  0.4448
  526MOL0     C70937   0.490   4.888   5.090 -1.2382 -0.9218  0.5507
  526MOL0     C70938   0.420   4.784   5.169 -0.3834  0.4852 -0.7428
  526MOL0     C70939   0.373   4.707   5.254  0.3249  0.7907  0.3805
  526MOL0     C70940   1.096   4.873   5.198 -0.3228  0.0189  0.4753
  526MOL0     C70941   1.192   4.839   5.289 -0.2725 -0.8536  0.5289
  526MOL0     C70942   1.295   4.745   5.246  0.0932  0.4282 -0.5987
  526MOL0     H70943   1.629   4.882   5.528 -2.5259 -1.0631 -0.3904
  526MOL0     H70944   1.800   4.794   5.695 -0.6941  1.6232 -0.6968
  526MOL0     H70945   1.928   4.713   5.847 -3.3664 -1.4380 -2.0741
  526MOL0     H70946   1.834   4.798   5.974 -3.2608 -0.0519 -1.8335
  526MOL0     H70947   1.998   4.538   5.997  1.6391  1.3158  1.6548
  526MOL0     H70948   1.899   4.601   6.126  2.3128 -0.1635  2.1798
  526MOL0     H70949   2.051   4.794   6.151  1.0187 -1.3373  2.0865
  526MOL0     H70950   2.136   4.751   6.000  0.1148  2.0819  0.3989
  526MOL0     H70951   2.096   4.555   6.227 -0.4848  0.1341  0.6099
  526MOL0     H70952   2.218   4.576   6.099  0.7310  3.2812 -0.5011
  526MOL0     H70953   2.312   4.773   6.222 -0.3347 -0.9522 -1.1537
  526MOL0     H70954   2.179   4.785   6.316  1.3621  1.4476 -0.4797
  526MOL0     H70955   2.346   4.691   6.466 -2.7858  0.7612  0.7210
  526MOL0     H70956   2.245   4.565   6.443  3.0153  1.1867  3.1515
  526MOL0     H70957   2.496   4.623   6.272  0.8919 -0.6302  0.0562
  526MOL0     H70958   2.394   4.470   6.266  0.9397  1.1949 -1.5033
  526MOL0     H70959   2.450   4.431   6.518  1.2600  1.9729  2.2256
  526MOL0     H70960   2.573   4.408   6.403 -0.2323 -2.2052  0.4212
  526MOL0     H70961   2.505   4.526   6.735 -2.0315  2.1859  0.0143
  526MOL0     H70962   2.712   4.637   6.905 -1.2616 -1.2502 -2.4660
  526MOL0     H70963   2.801   4.781   6.854  0.9154 -0.1281  3.6829
  526MOL0     H70964   2.583   4.808   7.017 -0.3597  3.3606  0.6193
  526MOL0     H70965   2.655   4.924   6.919  1.1856 -0.1054 -4.2260
  526MOL0     H70966   2.393   4.911   6.920 -3.5946  0.0779 -2.2630
  526MOL0     H70967   2.409   4.758   6.844 -0.7261 -0.2474 -0.1420
  526MOL0     H70968   2.432   4.843   6.633 -3.6017  1.9788 -0.9752
  526MOL0     H70969   2.550   4.969   6.689  1.1455  1.3944 -0.4135
  526MOL0     H70970   2.455   4.961   6.455 -0.1795  0.1130  0.0593
  526MOL0     H70971   2.356   5.036   6.242  0.7120 -1.1917 -0.6918
  526MOL0     H70972   2.243   4.951   5.899 -1.2500 -0.5702  4.6571
  526MOL0     H70973   2.179   4.994   5.643 -3.2054 -1.0072 -2.4128
  526MOL0     H70974   2.077   4.977   5.482  0.3538 -0.3962 -1.4045
  526MOL0     H70975   1.936   4.908   5.539 -0.9013 -0.2524 -1.1443
  526MOL0     H70976   1.821   4.976   5.339  2.8126 -2.6199 -1.6843
  526MOL0     H70977   1.867   5.138   5.366  0.6780 -0.2664  1.0036
  526MOL0     H70978   2.045   4.931   5.251  2.2191  1.3171  2.2808
  526MOL0     H70979   1.938   5.022   5.152  0.4972 -3.7278  1.1409
  526MOL0     H70980   2.139   5.175   5.341  1.5258  0.5712 -0.5880
  526MOL0     H70981   2.061   5.225   5.199  1.2810 -0.1977 -1.4467
  526MOL0     H70982   2.293   5.177   5.139  0.1529 -0.6074 -1.1988
  526MOL0     H70983   2.187   5.056   5.055  1.9525 -0.4750 -0.5147
  526MOL0     H70984   2.244   4.890   5.196  1.0010 -0.9850  2.4569
  526MOL0     H70985   2.396   4.954   5.149  1.6294  2.1919  1.9944
  526MOL0     H70986   2.306   5.022   5.422 -0.3833 -0.7145 -0.1497
  526MOL0     H70987   2.449   5.080   5.341 -2.5314  0.7057 -2.0597
  526MOL0     H70988   2.508   4.889   5.486  1.4301 -2.7051  0.2363
  526MOL0     H70989   2.359   4.809   5.443 -0.0639 -1.8553 -1.9500
  526MOL0     H70990   1.847   5.224   5.790 -0.0801  0.1306 -0.4660
  526MOL0     H70991   1.920   5.193   6.017 -1.6815 -0.1405 -1.3568
  526MOL0     H70992   2.007   5.184   6.463 -0.1310 -1.2497 -0.9614
  526MOL0     H70993   2.140   5.144   6.681  1.0157  0.3394  1.1266
  526MOL0     H70994   1.505   4.583   5.901 -0.8869  2.8005  0.6664
  526MOL0     H70995   1.339   4.654   5.733 -0.9962  0.3866  2.3651
  526MOL0     H70996   1.054   5.023   5.534 -0.5275 -0.1251 -0.9263
  526MOL0     H70997   0.907   5.092   5.359 -0.3250 -0.4986  3.5999
  526MOL0     H70998   0.905   4.822   5.034  1.7419  0.3679  0.0910
  526MOL0     H70999   0.944   4.958   4.923 -1.3845 -1.6588 -1.5053
  526MOL0     H71000   0.715   4.913   4.875  0.7675  0.1343 -0.2035
  526MOL0     H71001   0.695   5.044   4.987 -2.3326 -0.6087  2.2150
  526MOL0     H71002   0.679   4.861   5.175 -3.6579  0.1940  1.7245
  526MOL0     H71003   0.653   4.746   5.040  2.9353  0.6130 -2.3029
  526MOL0     H71004   0.501   4.987   5.134  0.9357 -0.9255  0.1280
  526MOL0     H71005   0.452   4.898   4.988 -0.9562 -0.6707  0.4688
  526MOL0     H71006   0.319   4.633   5.309  1.7577 -2.2857 -1.9770
  526MOL0     H71007   1.102   4.826   5.101 -3.3016 -0.8507  0.6010
  526MOL0     H71008   1.290   4.708   5.143 -2.9493  0.4718 -0.5503
  526MOL0     H71009   1.399   4.776   5.263  0.2371  0.6828 -1.7933
  526MOL0     H71010   1.291   4.651   5.301  1.1119  0.5403 -0.3049
  527MOL0     O71011   3.822   1.848   4.076  0.3444  0.4176 -0.1839
  527MOL0     C71012   3.940   1.830   4.046  0.2396 -0.2533 -0.3936
  527MOL0     O71013   4.059   1.896   4.083 -0.8489 -0.5246  0.0412
  527MOL0     C71014   4.065   2.032   4.116  0.1299  0.4981  0.6144
  527MOL0     C71015   3.984   2.125   4.049 -1.0321  0.9042  0.4289
  527MOL0     C71016   3.991   2.259   4.077 -0.0514  0.8915 -0.3337
  527MOL0     C71017   4.083   2.307   4.171  0.0746 -0.5589  0.0349
  527MOL0     O71018   4.072   2.439   4.195 -0.3017  0.5997 -0.2303
  527MOL0     C71019   4.101   2.483   4.326  0.0586 -0.9876  0.2847
  527MOL0     C71020   4.189   2.609   4.301  0.4884 -0.6938 -0.3115
  527MOL0     C71021   4.127   2.736   4.227 -0.0055  0.0620  0.0703
  527MOL0     C71022   4.189   2.870   4.263 -0.3442 -0.2217  1.2391
  527MOL0     C71023   4.156   2.931   4.395  0.1676 -0.2012 -0.0139
  527MOL0     C71024   4.182   3.086   4.409 -1.3911 -0.7054  1.2034
  527MOL0     C71025   4.312   3.127   4.353  0.4949  0.1742 -0.8535
  527MOL0     C71026   4.341   3.278   4.375 -1.0057  0.5736 -0.3524
  527MOL0     N71027   4.491   3.303   4.338  0.7960 -0.4576  0.3770
  527MOL0     C71028   4.603   3.307   4.417 -0.5118 -0.3283 -0.4058
  527MOL0     C71029   4.698   3.354   4.334 -1.2275  0.0485 -1.2937
  527MOL0     C71030   4.848   3.359   4.389 -0.1759 -1.0543 -0.2632
  527MOL0     C71031   4.922   3.228   4.443  0.0018 -1.0709 -0.2256
  527MOL0     C71032   5.000   3.158   4.337  0.1759 -1.0103 -0.2030
  527MOL0     C71033   5.091   3.041   4.381  0.2382  0.0580  1.2490
  527MOL0     O71034   5.032   2.921   4.333 -0.2712  0.6499 -0.6570
  527MOL0     C71035   5.058   2.795   4.392  0.6843 -0.3848 -1.1467
  527MOL0     C71036   5.171   2.776   4.464  0.1990 -0.2867 -0.2453
  527MOL0     C71037   5.195   2.644   4.513  0.3668  0.4229 -0.1039
  527MOL0     C71038   5.102   2.537   4.490  0.3661  0.4341 -0.5050
  527MOL0     C71039   5.137   2.405   4.541 -0.1292 -0.9118 -0.1263
  527MOL0     O71040   5.040   2.320   4.580  0.9273 -0.1031  0.2268
  527MOL0     C71041   5.077   2.200   4.624  0.2712 -0.3255  0.2099
  527MOL0     C71042   5.119   2.109   4.528 -0.8893  0.7860 -0.3936
  527MOL0     C71043   5.169   1.990   4.567  0.1171 -0.1571 -0.0552
  527MOL0     C71044   5.198   1.962   4.707 -1.1645 -0.6211  0.0277
  527MOL0     O71045   5.264   1.840   4.745  0.1994  0.2743 -0.1477
  527MOL0     C71046   5.347   1.840   4.867  0.1999 -0.3107  0.8894
  527MOL0     C71047   5.425   1.720   4.876  1.0576  0.6321  0.0154
  527MOL0     C71048   5.349   1.595   4.914  0.6570 -0.5856  0.0451
  527MOL0     C71049   5.347   1.575   5.073  0.2049  0.7124 -0.4056
  527MOL0     C71050   5.236   1.460   5.097 -1.5855 -0.4232 -0.4588
  527MOL0     C71051   5.107   1.521   5.145 -0.0008  0.7235  0.3318
  527MOL0     C71052   5.025   1.399   5.188  1.6539 -0.3325  0.1842
  527MOL0     C71053   4.891   1.463   5.235  0.0809  0.4027 -0.0820
  527MOL0    Cl71054   4.913   1.569   5.380  0.2936 -0.2787  0.4353
  527MOL0     C71055   5.150   2.051   4.800  0.8669  0.0956 -1.0934
  527MOL0     C71056   5.077   2.172   4.763 -0.6498 -0.3012  1.0546
  527MOL0     O71057   5.255   2.377   4.528  0.1015 -0.2769  0.1779
  527MOL0     C71058   4.987   2.563   4.426 -0.3662  0.2289 -0.1280
  527MOL0     C71059   4.962   2.691   4.373 -0.7336  0.4140  0.1094
  527MOL0     N71060   4.655   3.357   4.207 -1.0693 -0.0055 -0.1441
  527MOL0     N71061   4.533   3.318   4.205 -0.5550  0.0325 -0.0735
  527MOL0     C71062   4.180   2.223   4.224  1.1276 -0.0445  0.2483
  527MOL0     C71063   4.161   2.081   4.206  0.7439 -0.0787 -0.8267
  527MOL0     C71064   3.979   1.719   3.956  0.3391  1.1891 -0.0113
  527MOL0     C71065   4.040   1.754   3.834 -0.4827  0.0531  0.5892
  527MOL0     C71066   4.074   1.654   3.744  0.9194  0.5526  0.1003
  527MOL0     C71067   4.045   1.521   3.771 -0.3588  0.3019  0.1362
  527MOL0     O71068   4.083   1.416   3.687 -0.2610 -0.4553  0.0874
  527MOL0     C71069   4.190   1.445   3.590 -0.5055  0.0086 -0.2052
  527MOL0     C71070   4.243   1.309   3.541 -0.6967  0.7859  0.4814
  527MOL0     C71071   4.348   1.306   3.422  0.2252  0.7420 -0.7969
  527MOL0     C71072   4.399   1.163   3.408 -0.9750  0.2588 -0.5343
  527MOL0     C71073   4.320   1.083   3.325 -0.4310 -0.4335  0.4716
  527MOL0     C71074   4.235   1.024   3.257  0.0617  0.3148 -0.7499
  527MOL0     C71075   3.982   1.483   3.889  0.5963 -0.2770  0.8681
  527MOL0     C71076   3.944   1.583   3.984  1.0271 -0.3273  0.7062
  527MOL0     C71077   3.860   1.552   4.108 -0.3168  0.2728  0.0636
  527MOL0     H71078   3.923   2.103   3.961  1.5674 -1.7392 -0.9314
  527MOL0     H71079   3.921   2.326   4.028 -0.0390 -0.4511 -2.2957
  527MOL0     H71080   4.005   2.519   4.363  0.8781  1.3359  0.2577
  527MOL0     H71081   4.138   2.411   4.400  0.4914 -0.2723  0.7811
  527MOL0     H71082   4.274   2.564   4.249 -0.0815 -0.8772 -1.0972
  527MOL0     H71083   4.218   2.635   4.404 -2.8271  1.4397  0.2206
  527MOL0     H71084   4.018   2.744   4.239  0.1159  1.2589  0.4214
  527MOL0     H71085   4.149   2.706   4.124 -1.7294 -2.7899  0.4194
  527MOL0     H71086   4.297   2.867   4.247 -0.2833  1.4124  1.2256
  527MOL0     H71087   4.137   2.925   4.183 -0.0560 -1.8618 -0.1370
  527MOL0     H71088   4.052   2.902   4.412 -0.4616  1.0792 -1.4774
  527MOL0     H71089   4.210   2.870   4.469  0.8586  3.2323  2.5319
  527MOL0     H71090   4.111   3.150   4.356 -0.1057 -1.4737 -1.6245
  527MOL0     H71091   4.191   3.111   4.516  4.5166  1.5314  0.5575
  527MOL0     H71092   4.322   3.096   4.249 -1.1847  3.6405 -2.1870
  527MOL0     H71093   4.391   3.067   4.400 -3.2587 -4.0766  0.7690
  527MOL0     H71094   4.277   3.338   4.311 -0.5523 -0.3613 -1.7314
  527MOL0     H71095   4.335   3.307   4.481  0.5221  0.7333 -0.2898
  527MOL0     H71096   4.622   3.281   4.521  0.0448 -1.9580 -0.8762
  527MOL0     H71097   4.916   3.409   4.319  1.5862  0.4617  2.3710
  527MOL0     H71098   4.849   3.432   4.470  3.3075  2.1422 -2.8318
  527MOL0     H71099   4.986   3.254   4.528 -1.5713  0.9530  0.4308
  527MOL0     H71100   4.849   3.161   4.490  0.2493 -1.5087 -0.4636
  527MOL0     H71101   5.060   3.235   4.288 -0.5792  1.4484  2.4560
  527MOL0     H71102   4.933   3.122   4.258 -0.5459  1.7498 -0.9701
  527MOL0     H71103   5.102   3.041   4.490  2.0744 -0.1271  1.0881
  527MOL0     H71104   5.189   3.055   4.335  2.0273  0.8293  4.9628
  527MOL0     H71105   5.245   2.853   4.479  0.1693 -0.7531  3.1230
  527MOL0     H71106   5.290   2.632   4.565  1.1148  2.9250 -0.7444
  527MOL0     H71107   5.109   2.124   4.421  0.6363  0.4149 -0.6054
  527MOL0     H71108   5.193   1.913   4.494  1.4150  0.4937 -0.3631
  527MOL0     H71109   5.416   1.924   4.878  0.4014 -0.3745  0.1524
  527MOL0     H71110   5.282   1.854   4.955  1.5911 -2.6095  2.3853
  527MOL0     H71111   5.469   1.712   4.776  1.1008 -1.4063  0.1601
  527MOL0     H71112   5.504   1.732   4.951  2.3019 -1.1770 -0.9217
  527MOL0     H71113   5.249   1.603   4.871  1.4396  0.6345 -1.6970
  527MOL0     H71114   5.404   1.522   4.855 -0.4321 -1.0120 -0.4699
  527MOL0     H71115   5.311   1.670   5.113 -1.9228  0.6014 -1.8805
  527MOL0     H71116   5.446   1.547   5.110 -1.1146 -1.6954  1.5914
  527MOL0     H71117   5.274   1.395   5.177 -4.4293  0.1852  1.5349
  527MOL0     H71118   5.229   1.398   5.007  1.3921 -0.3436 -0.8284
  527MOL0     H71119   5.133   1.584   5.231  1.9337 -0.6133  0.7703
  527MOL0     H71120   5.050   1.577   5.070 -1.1054 -1.0004 -0.1656
  527MOL0     H71121   5.078   1.347   5.268  1.3027 -0.8850  0.0606
  527MOL0     H71122   5.018   1.340   5.096  4.3952  0.1411 -0.4067
  527MOL0     H71123   4.866   1.535   5.156  1.1358  2.3044  1.2154
  527MOL0     H71124   4.808   1.400   5.268 -2.5262  2.7558 -1.5950
  527MOL0     H71125   5.147   2.023   4.905  0.6783  4.0000  0.1150
  527MOL0     H71126   5.019   2.236   4.828  1.4432  0.2821  2.4672
  527MOL0     H71127   4.922   2.478   4.410 -0.4613 -0.0022  1.4157
  527MOL0     H71128   4.869   2.716   4.322 -0.2708  1.2182 -0.3640
  527MOL0     H71129   4.261   2.258   4.287  0.2339  0.5923  1.0603
  527MOL0     H71130   4.231   2.017   4.260  3.8965  2.0136 -2.1860
  527MOL0     H71131   4.059   1.859   3.815  1.1595 -0.1445  1.0049
  527MOL0     H71132   4.113   1.693   3.650 -2.1328  0.0329 -1.5374
  527MOL0     H71133   4.269   1.505   3.637  0.8583 -2.5905  1.0516
  527MOL0     H71134   4.151   1.499   3.504 -0.7415 -0.3325 -0.3109
  527MOL0     H71135   4.155   1.250   3.514 -0.4371  0.5779  0.0760
  527MOL0     H71136   4.290   1.267   3.630  0.4675  0.4669 -0.2578
  527MOL0     H71137   4.420   1.383   3.451  1.4684  0.4699 -2.9630
  527MOL0     H71138   4.296   1.334   3.330 -0.5261 -1.0873 -0.9743
  527MOL0     H71139   4.499   1.166   3.364 -1.2903  0.2836 -1.2667
  527MOL0     H71140   4.405   1.115   3.506 -3.4941  2.7250  0.9654
  527MOL0     H71141   4.169   0.970   3.192 -0.6587  0.8116 -0.4348
  527MOL0     H71142   3.968   1.378   3.914  2.5521 -0.5058  1.1415
  527MOL0     H71143   3.868   1.444   4.124  0.4670 -0.2255 -3.0645
  527MOL0     H71144   3.889   1.604   4.200  1.2696 -0.3089 -0.0690
  527MOL0     H71145   3.756   1.569   4.081 -0.4062  0.8952  0.7787
  528MOL0     O71146   3.080   7.652   6.392 -0.2516 -0.6762 -0.2103
  528MOL0     C71147   3.186   7.688   6.452 -1.2072  0.6846  0.4898
  528MOL0     O71148   3.311   7.645   6.415  0.0087  0.1346 -0.9447
  528MOL0     C71149   3.321   7.549   6.315 -0.2991  0.1927  0.3508
  528MOL0     C71150   3.382   7.420   6.338  0.1066 -0.6096 -0.2448
  528MOL0     C71151   3.400   7.334   6.222  0.0735 -0.0532  0.3165
  528MOL0     C71152   3.364   7.378   6.097 -0.8884 -0.4572  0.3163
  528MOL0     O71153   3.388   7.304   5.980  0.2028  0.0237 -0.0798
  528MOL0     C71154   3.446   7.170   5.999  0.7829 -0.3737  0.6757
  528MOL0     C71155   3.398   7.104   5.865  0.2794 -0.3930  0.0418
  528MOL0     C71156   3.449   6.956   5.857 -0.1159  0.0746 -0.9951
  528MOL0     C71157   3.388   6.885   5.739 -0.7839 -0.1692  0.8769
  528MOL0     C71158   3.243   6.835   5.769  0.0944 -0.1303  0.2789
  528MOL0     C71159   3.179   6.802   5.643  0.4947 -0.4287 -0.4754
  528MOL0     C71160   3.058   6.706   5.669  0.1638  0.3376 -0.4226
  528MOL0     C71161   2.983   6.669   5.535  0.5671  0.1161 -0.2355
  528MOL0     N71162   3.049   6.556   5.476  0.2718  0.5395 -0.2447
  528MOL0     C71163   3.118   6.577   5.364  0.0545  0.6115 -0.3943
  528MOL0     C71164   3.188   6.456   5.343  0.6670 -0.2704  0.5580
  528MOL0     C71165   3.299   6.416   5.239 -0.1907  0.5315 -0.5256
  528MOL0     C71166   3.310   6.519   5.116  0.6014  0.1892  0.1237
  528MOL0     C71167   3.183   6.508   5.026 -0.4989 -0.3522  1.0878
  528MOL0     C71168   3.163   6.366   4.968  0.1853  0.6562 -0.4843
  528MOL0     O71169   3.052   6.372   4.877  0.3455  0.2037 -0.3841
  528MOL0     C71170   3.020   6.262   4.802  0.3950 -0.3918  0.0176
  528MOL0     C71171   2.912   6.183   4.838 -0.5569  0.2639 -0.1617
  528MOL0     C71172   2.875   6.069   4.756  0.6152 -0.0525 -0.1104
  528MOL0     C71173   2.954   6.031   4.645  0.7098 -0.8635 -0.0187
  528MOL0     C71174   2.918   5.904   4.576 -0.9555 -0.4496 -1.2748
  528MOL0     O71175   2.857   5.815   4.658  0.0700  0.6703  0.8655
  528MOL0     C71176   2.797   5.697   4.605 -0.2103 -0.7989  0.1239
  528MOL0     C71177   2.742   5.702   4.474 -0.1031 -0.7435 -0.1719
  528MOL0     C71178   2.692   5.585   4.419  1.2001 -0.9145 -0.2096
  528MOL0     C71179   2.686   5.468   4.490 -0.5123  0.1870 -0.3456
  528MOL0     O71180   2.652   5.358   4.423  0.0920 -0.2497 -0.2188
  528MOL0     C71181   2.644   5.225   4.488  0.2756  0.8257  1.0274
  528MOL0     C71182   2.564   5.138   4.387  1.2407  0.1749  0.6143
  528MOL0     C71183   2.542   4.993   4.416  0.3115  0.7150 -0.6278
  528MOL0     C71184   2.505   4.947   4.561 -0.1126  0.2782  0.2190
  528MOL0     C71185   2.367   4.989   4.591  0.8100  0.4363  0.6131
  528MOL0     C71186   2.320   4.928   4.724 -0.4777  0.9178  0.2913
  528MOL0     C71187   2.180   4.981   4.758 -0.3052 -0.5510 -0.5739
  528MOL0     C71188   2.092   4.870   4.828 -0.0255 -0.0114 -0.0547
  528MOL0    Cl71189   2.173   4.778   4.959  0.2819  0.6327 -0.1658
  528MOL0     C71190   2.748   5.468   4.627 -0.0545  0.5230  0.0811
  528MOL0     C71191   2.796   5.590   4.680 -0.4504 -0.2405 -0.6165
  528MOL0     O71192   2.963   5.888   4.462 -0.0076 -0.3569 -0.3545
  528MOL0     C71193   3.069   6.114   4.608  0.5013 -0.1697  0.4958
  528MOL0     C71194   3.091   6.229   4.680  0.1623 -0.1553 -0.1450
  528MOL0     N71195   3.150   6.362   5.436 -0.2040 -0.5829 -0.2165
  528MOL0     N71196   3.044   6.418   5.500 -0.5955  0.0750  0.9843
  528MOL0     C71197   3.303   7.500   6.078  0.0409  0.5502 -0.2885
  528MOL0     C71198   3.281   7.595   6.188  0.0603  0.3957  0.1950
  528MOL0     C71199   3.181   7.794   6.570  0.5046  0.8136  0.2344
  528MOL0     C71200   3.063   7.797   6.637  0.3436 -0.8465  0.5823
  528MOL0     C71201   3.051   7.891   6.737  0.0586  0.2543  0.3549
  528MOL0     C71202   3.147   7.984   6.777 -0.6327  0.4973 -1.1554
  528MOL0     O71203   3.147   8.071   6.879 -0.2747  0.2300  0.3248
  528MOL0     C71204   3.062   8.018   6.987  0.2991  0.6738  0.7927
  528MOL0     C71205   3.085   8.091   7.121 -1.3793  0.1293 -0.6363
  528MOL0     C71206   3.220   8.042   7.193 -0.4677 -0.0381 -0.3255
  528MOL0     C71207   3.263   8.137   7.310  0.7041  0.0098  0.1822
  528MOL0     C71208   3.377   8.083   7.376 -0.1916 -0.7052  0.3283
  528MOL0     C71209   3.484   8.045   7.415 -0.0353 -0.1202  0.3689
  528MOL0     C71210   3.267   7.973   6.709  0.1097  0.4649  0.5689
  528MOL0     C71211   3.283   7.878   6.609 -0.0829 -0.5220  0.6677
  528MOL0     C71212   3.411   7.885   6.519 -0.9055 -0.2112  0.6865
  528MOL0     H71213   3.408   7.402   6.442 -3.9855  0.0186  1.0808
  528MOL0     H71214   3.442   7.238   6.250  0.2892  0.1065  0.5412
  528MOL0     H71215   3.553   7.188   6.007  0.8440 -0.7937  0.7979
  528MOL0     H71216   3.414   7.111   6.085  0.6621 -1.9802 -0.4222
  528MOL0     H71217   3.441   7.161   5.782  2.9908 -5.3188 -2.3873
  528MOL0     H71218   3.290   7.113   5.869  0.4556  1.9518  2.9563
  528MOL0     H71219   3.434   6.910   5.955  3.6137 -2.0879 -1.2544
  528MOL0     H71220   3.558   6.951   5.846  0.2829 -3.2020  2.4125
  528MOL0     H71221   3.387   6.958   5.658  0.1770  0.5183  1.4582
  528MOL0     H71222   3.462   6.810   5.710 -1.0262  0.5967 -1.9725
  528MOL0     H71223   3.259   6.749   5.835  1.9507 -2.2203 -2.6664
  528MOL0     H71224   3.184   6.917   5.811 -2.2888 -1.8424  0.4985
  528MOL0     H71225   3.144   6.896   5.599 -1.1752  1.1088  3.6271
  528MOL0     H71226   3.245   6.744   5.579 -0.6684 -0.5094 -1.6516
  528MOL0     H71227   2.980   6.750   5.732 -1.0330  1.3339 -2.4875
  528MOL0     H71228   3.086   6.618   5.727 -0.1882  0.8131  0.4856
  528MOL0     H71229   2.876   6.659   5.553  0.2409  3.6703  0.4478
  528MOL0     H71230   2.998   6.759   5.476 -1.8526  0.9706  0.3547
  528MOL0     H71231   3.141   6.658   5.295  0.6340 -0.6612 -1.7370
  528MOL0     H71232   3.394   6.440   5.287  0.3082  0.6034 -1.5339
  528MOL0     H71233   3.294   6.310   5.211  0.6645  0.3868 -0.1778
  528MOL0     H71234   3.316   6.623   5.149  3.4861 -0.1956  1.0371
  528MOL0     H71235   3.400   6.492   5.061 -1.1177 -0.8514 -2.3326
  528MOL0     H71236   3.197   6.584   4.949 -3.0981  0.0418  0.8977
  528MOL0     H71237   3.106   6.536   5.099 -2.1798 -1.0888 -0.3282
  528MOL0     H71238   3.138   6.299   5.051  1.0670  0.7670 -0.1196
  528MOL0     H71239   3.250   6.332   4.912  1.6478  0.6103  1.6608
  528MOL0     H71240   2.844   6.204   4.919 -0.3556 -3.9738  1.3628
  528MOL0     H71241   2.787   6.020   4.797  0.8983 -2.6913 -2.3857
  528MOL0     H71242   2.742   5.788   4.407 -1.4243 -1.9572 -1.8268
  528MOL0     H71243   2.642   5.594   4.323 -3.6020 -0.2419  2.0501
  528MOL0     H71244   2.744   5.182   4.501  0.6619  1.8427  1.5151
  528MOL0     H71245   2.604   5.245   4.589 -0.6820  1.6818  0.5008
  528MOL0     H71246   2.470   5.192   4.372  2.1313  1.3335 -1.2960
  528MOL0     H71247   2.611   5.149   4.289 -1.6410 -1.6517 -1.1075
  528MOL0     H71248   2.473   4.950   4.343  0.4341 -0.4917 -0.0609
  528MOL0     H71249   2.636   4.948   4.384  0.6119  0.4617  0.5562
  528MOL0     H71250   2.574   5.003   4.624  0.1438  0.4881 -0.2491
  528MOL0     H71251   2.517   4.839   4.576  2.4943  0.9073  3.7682
  528MOL0     H71252   2.304   4.957   4.507  2.1747 -0.2370 -0.1847
  528MOL0     H71253   2.372   5.098   4.600 -0.0577  0.7145 -1.6871
  528MOL0     H71254   2.319   4.819   4.715  2.8437  0.8223 -0.0918
  528MOL0     H71255   2.390   4.956   4.803  0.7926 -1.2308 -0.0018
  528MOL0     H71256   2.122   5.007   4.670 -2.2968 -1.0599  0.5277
  528MOL0     H71257   2.189   5.072   4.818  1.3653  0.6898 -2.5698
  528MOL0     H71258   2.003   4.921   4.867 -1.0873 -0.1020 -2.2117
  528MOL0     H71259   2.060   4.802   4.749  0.8127  0.5567 -0.9121
  528MOL0     H71260   2.747   5.386   4.698 -0.9619  0.9775  0.6108
  528MOL0     H71261   2.830   5.586   4.783  0.8521 -2.4193 -1.0537
  528MOL0     H71262   3.143   6.077   4.538  0.8307 -3.5885  2.4580
  528MOL0     H71263   3.181   6.286   4.661  0.0684  0.8849  2.2166
  528MOL0     H71264   3.287   7.534   5.976  0.2495 -0.4924 -0.6777
  528MOL0     H71265   3.245   7.696   6.170  0.5397  0.1736 -2.3883
  528MOL0     H71266   2.982   7.732   6.605  0.6140 -1.2082  0.6219
  528MOL0     H71267   2.954   7.882   6.784  0.3792  0.8773  1.1581
  528MOL0     H71268   3.078   7.910   6.997  0.3141  0.5689 -0.2343
  528MOL0     H71269   2.958   8.024   6.956  1.5211  0.5524 -4.1648
  528MOL0     H71270   3.003   8.068   7.191  0.6321  0.5514  2.0290
  528MOL0     H71271   3.094   8.197   7.100 -0.5768  0.8417  2.6822
  528MOL0     H71272   3.297   8.018   7.120  0.4213 -2.2878  1.2508
  528MOL0     H71273   3.185   7.947   7.236  2.4787 -1.6231 -1.1965
  528MOL0     H71274   3.287   8.235   7.268  1.6028 -0.4551 -0.4091
  528MOL0     H71275   3.178   8.148   7.378 -0.0303  3.3573 -1.0584
  528MOL0     H71276   3.583   8.024   7.453  0.3301  1.9664  0.6858
  528MOL0     H71277   3.355   8.028   6.739  0.1914  0.1549  0.9082
  528MOL0     H71278   3.449   7.987   6.534 -0.3003 -0.4203  0.5952
  528MOL0     H71279   3.488   7.813   6.548  1.8915  2.6699  1.0376
  528MOL0     H71280   3.381   7.885   6.414  0.1485  0.2883  0.3697
  529MOL0     O71281   8.471   6.500   4.261  0.6611  0.1651 -0.7309
  529MOL0     C71282   8.562   6.557   4.321  0.4312 -0.0713  0.2264
  529MOL0     O71283   8.575   6.693   4.328 -0.1517 -0.1618 -0.4223
  529MOL0     C71284   8.483   6.788   4.287  0.5121 -0.6360 -0.6303
  529MOL0     C71285   8.345   6.768   4.260 -0.2883  0.5835  0.2288
  529MOL0     C71286   8.262   6.865   4.200 -0.4585 -0.6688  0.6832
  529MOL0     C71287   8.310   6.993   4.194 -0.0629  1.2243 -0.1104
  529MOL0     O71288   8.243   7.103   4.133 -0.5838 -0.8448 -0.2123
  529MOL0     C71289   8.118   7.136   4.193 -1.2806  0.6652  0.7910
  529MOL0     C71290   8.121   7.277   4.246 -0.0317  0.4824  0.2576
  529MOL0     C71291   7.976   7.328   4.260 -0.4748 -0.3646 -0.5916
  529MOL0     C71292   7.979   7.444   4.366  0.9578  0.4155  1.1371
  529MOL0     C71293   7.848   7.471   4.433  0.1297  1.1367  0.8221
  529MOL0     C71294   7.758   7.559   4.344 -0.0362 -0.2624 -0.2380
  529MOL0     C71295   7.645   7.619   4.425  0.7572 -0.1527  0.1227
  529MOL0     C71296   7.533   7.665   4.333  1.0201  1.1959 -0.8398
  529MOL0     N71297   7.415   7.704   4.419  0.4401  0.1169 -0.1452
  529MOL0     C71298   7.378   7.836   4.434  0.1314  0.3107 -0.3812
  529MOL0     C71299   7.252   7.833   4.480 -0.5859  0.3685 -1.5433
  529MOL0     C71300   7.175   7.958   4.502  0.8962  0.6215  0.0915
  529MOL0     C71301   7.043   7.940   4.585 -0.7414  0.4139 -0.1512
  529MOL0     C71302   6.978   8.067   4.619  0.3825 -0.2358  0.3118
  529MOL0     C71303   6.854   8.050   4.700  0.2621 -0.5149 -0.4377
  529MOL0     O71304   6.757   8.003   4.600  0.5711  1.0335 -0.6682
  529MOL0     C71305   6.628   7.969   4.663 -0.3899  0.5319  1.3518
  529MOL0     C71306   6.588   7.961   4.802  0.2834  0.2898  0.2471
  529MOL0     C71307   6.461   7.917   4.839  0.8033 -0.5907  0.1678
  529MOL0     C71308   6.367   7.884   4.744  0.6913 -0.3094 -0.7652
  529MOL0     C71309   6.231   7.842   4.777  0.1689  1.1616 -0.9491
  529MOL0     O71310   6.194   7.864   4.906 -0.9537  0.1229 -0.0740
  529MOL0     C71311   6.067   7.833   4.945 -0.0451 -0.1432  0.1758
  529MOL0     C71312   6.029   7.719   4.998  0.7378  0.7882 -0.3661
  529MOL0     C71313   5.904   7.696   5.054  0.5205 -0.4989  0.4511
  529MOL0     C71314   5.804   7.796   5.037  0.9046  0.1833 -0.4355
  529MOL0     O71315   5.675   7.782   5.085  0.1542 -0.5232 -1.0453
  529MOL0     C71316   5.630   7.645   5.116  0.0663  0.1664 -0.0382
  529MOL0     C71317   5.476   7.644   5.124 -0.0000 -0.0875  0.0227
  529MOL0     C71318   5.413   7.504   5.133 -1.2286  0.0180 -0.1893
  529MOL0     C71319   5.279   7.472   5.057 -1.0397 -0.4216 -1.4329
  529MOL0     C71320   5.207   7.333   5.111  1.0308 -0.2764  0.1685
  529MOL0     C71321   5.306   7.219   5.118  0.6659 -0.5575  1.1391
  529MOL0     C71322   5.234   7.082   5.120 -0.7955 -0.0270  0.2732
  529MOL0     C71323   5.341   6.976   5.078  0.1279 -0.3870  0.5156
  529MOL0    Cl71324   5.441   6.955   5.218 -0.3959 -0.7820 -0.1945
  529MOL0     C71325   5.832   7.919   4.970 -1.3100  0.0462  0.1993
  529MOL0     C71326   5.966   7.935   4.932  0.2952 -0.1470  1.7799
  529MOL0     O71327   6.164   7.799   4.689  0.2468 -0.4238 -0.1383
  529MOL0     C71328   6.414   7.877   4.613 -0.7146 -0.5297  1.3562
  529MOL0     C71329   6.545   7.919   4.577 -0.1064  0.1353  0.4941
  529MOL0     N71330   7.218   7.697   4.510 -0.6467 -1.0789 -1.1945
  529MOL0     N71331   7.318   7.624   4.468 -0.0223  1.2363  0.6327
  529MOL0     C71332   8.442   7.022   4.234  0.7385  0.2077 -0.2005
  529MOL0     C71333   8.528   6.923   4.280  0.7194 -0.9193 -0.4772
  529MOL0     C71334   8.667   6.468   4.386 -0.6155  0.8260  0.6562
  529MOL0     C71335   8.655   6.322   4.380 -0.0331 -0.0802  0.5032
  529MOL0     C71336   8.755   6.235   4.426  1.3086 -0.1487  0.4510
  529MOL0     C71337   8.861   6.284   4.488  0.1491  0.4987 -0.1828
  529MOL0     O71338   8.946   6.183   4.524 -0.4189  0.0538  0.7511
  529MOL0     C71339   9.086   6.208   4.565 -0.3690  0.9111 -0.4619
  529MOL0     C71340   9.159   6.074   4.587  0.0214 -0.1296 -0.5625
  529MOL0     C71341   9.153   5.960   4.479 -0.8536  0.1816  0.4245
  529MOL0     C71342   9.160   6.014   4.335 -0.8886  0.0764  0.2610
  529MOL0     C71343   9.295   6.066   4.303 -0.3924  0.0840  0.9490
  529MOL0     C71344   9.405   6.101   4.277 -0.7792  0.1306  0.6092
  529MOL0     C71345   8.895   6.421   4.493  0.3157 -0.3192  0.1748
  529MOL0     C71346   8.791   6.514   4.443 -0.2507 -0.3928 -0.9032
  529MOL0     C71347   8.810   6.662   4.468  1.5800  0.1446  0.6719
  529MOL0     H71348   8.311   6.665   4.258  1.2018  0.0800 -1.0653
  529MOL0     H71349   8.164   6.834   4.165 -0.1736  0.2895 -1.0511
  529MOL0     H71350   8.037   7.129   4.120 -3.6595  2.8988  3.0629
  529MOL0     H71351   8.096   7.067   4.275  2.8264  0.6273  2.1011
  529MOL0     H71352   8.184   7.346   4.189  0.5862 -0.7983 -0.6524
  529MOL0     H71353   8.177   7.283   4.340 -1.7732 -0.1437  1.3848
  529MOL0     H71354   7.919   7.243   4.296 -0.3982 -0.4622 -0.7005
  529MOL0     H71355   7.921   7.369   4.175 -1.8105 -2.9145 -1.0404
  529MOL0     H71356   8.044   7.407   4.445  2.7902 -0.2883 -0.5965
  529MOL0     H71357   8.023   7.530   4.314  1.2191 -1.0679 -1.2792
  529MOL0     H71358   7.792   7.383   4.466 -0.8277  1.1231 -0.7677
  529MOL0     H71359   7.879   7.530   4.521 -0.3798  2.3598  0.2085
  529MOL0     H71360   7.818   7.642   4.305  0.7812 -0.8961 -0.3675
  529MOL0     H71361   7.716   7.497   4.264  2.7373 -2.7840  0.0878
  529MOL0     H71362   7.687   7.703   4.481  1.9376 -2.0048  2.1845
  529MOL0     H71363   7.614   7.541   4.495  1.5200 -0.1845  0.4373
  529MOL0     H71364   7.556   7.745   4.262  2.3792  0.9818 -0.6595
  529MOL0     H71365   7.510   7.580   4.269  1.7116  2.0039 -2.1974
  529MOL0     H71366   7.432   7.928   4.414  1.1777  0.3955  2.3802
  529MOL0     H71367   7.236   8.038   4.546 -0.7570  1.3602  1.1438
  529MOL0     H71368   7.144   7.987   4.401  4.4115 -2.1132 -1.9733
  529MOL0     H71369   6.969   7.880   4.531 -3.5109  2.9389  0.5068
  529MOL0     H71370   7.070   7.884   4.675 -1.4885 -0.7134 -0.6111
  529MOL0     H71371   6.962   8.128   4.530  0.2617 -0.3862  0.2302
  529MOL0     H71372   7.047   8.119   4.686 -0.8787  1.3105  0.4671
  529MOL0     H71373   6.824   8.151   4.728 -0.2462  0.2432 -3.3655
  529MOL0     H71374   6.874   7.990   4.789 -0.2989  1.1405  0.8643
  529MOL0     H71375   6.657   7.992   4.880  0.1860  0.8651  0.1079
  529MOL0     H71376   6.433   7.915   4.944 -1.1382 -0.4870 -0.3014
  529MOL0     H71377   6.115   7.653   5.008 -0.6554 -0.7824  2.3173
  529MOL0     H71378   5.890   7.603   5.107  0.5901 -0.1635  1.0681
  529MOL0     H71379   5.664   7.570   5.044  1.3006  0.7129 -0.0496
  529MOL0     H71380   5.670   7.615   5.213  0.4858  2.3720  0.5125
  529MOL0     H71381   5.440   7.698   5.212  1.8422  2.0512 -0.4397
  529MOL0     H71382   5.429   7.685   5.033  0.6584 -0.4494 -0.4848
  529MOL0     H71383   5.485   7.434   5.089 -1.2962 -0.2997  0.2061
  529MOL0     H71384   5.412   7.479   5.239  0.2209 -0.9481 -0.3713
  529MOL0     H71385   5.312   7.450   4.955 -2.0967 -5.0256 -1.0074
  529MOL0     H71386   5.206   7.553   5.062  1.4018  1.8839  2.4225
  529MOL0     H71387   5.115   7.313   5.055 -1.1277  3.2027  2.1270
  529MOL0     H71388   5.174   7.347   5.214 -1.7000  1.3494 -0.8345
  529MOL0     H71389   5.374   7.219   5.032 -0.8559  0.9456 -0.1160
  529MOL0     H71390   5.359   7.231   5.214 -1.5564  0.1661  2.3482
  529MOL0     H71391   5.144   7.084   5.058 -0.7292  1.6956  0.1843
  529MOL0     H71392   5.206   7.060   5.223  0.2334  0.6651  0.7102
  529MOL0     H71393   5.281   6.885   5.067 -2.2356  1.2907 -1.5845
  529MOL0     H71394   5.398   6.990   4.986  2.7655 -2.5562  1.6855
  529MOL0     H71395   5.764   8.002   4.954  0.1005  0.8328 -2.3399
  529MOL0     H71396   5.999   8.017   4.870 -3.2237 -0.1926 -0.3870
  529MOL0     H71397   6.349   7.834   4.538  2.4504 -4.2247  0.3687
  529MOL0     H71398   6.575   7.903   4.474 -3.7338  2.8045 -1.1595
  529MOL0     H71399   8.461   7.129   4.238 -1.5069  0.6591  3.2789
  529MOL0     H71400   8.625   6.949   4.321 -0.6999 -0.0864  2.7037
  529MOL0     H71401   8.565   6.283   4.335  1.0506 -1.8585 -0.2177
  529MOL0     H71402   8.733   6.129   4.434 -0.4146  0.2027  0.7646
  529MOL0     H71403   9.058   6.268   4.653 -1.7788 -1.8054  1.0980
  529MOL0     H71404   9.136   6.282   4.502  0.2000  0.5866 -0.3959
  529MOL0     H71405   9.121   6.040   4.684  0.6200  1.2531  0.1917
  529MOL0     H71406   9.258   6.108   4.620  0.1207 -0.7719 -0.1640
  529MOL0     H71407   9.057   5.911   4.498 -2.1133  1.7252 -1.5593
  529MOL0     H71408   9.232   5.890   4.507 -0.7947 -0.4500 -1.2445
  529MOL0     H71409   9.134   5.931   4.269 -1.2568  1.9773 -2.0941
  529MOL0     H71410   9.091   6.093   4.303  0.0053  0.7053 -0.1283
  529MOL0     H71411   9.495   6.131   4.229  0.0522 -0.6291  1.6558
  529MOL0     H71412   8.984   6.467   4.536 -0.9271  0.2517  2.2718
  529MOL0     H71413   8.896   6.683   4.533  1.8444  3.9835 -0.6691
  529MOL0     H71414   8.835   6.696   4.367 -2.4794  1.2386 -0.1197
  529MOL0     H71415   8.718   6.705   4.509  0.3270  0.4627 -2.2477
  530MOL0     O71416   5.796   0.907   6.592  0.3196  0.1438  0.3486
  530MOL0     C71417   5.684   0.865   6.553 -0.5921  0.0596 -0.4341
  530MOL0     O71418   5.666   0.738   6.521  0.0301 -0.3789  0.0253
  530MOL0     C71419   5.726   0.655   6.614 -0.0370  0.5473  0.9019
  530MOL0     C71420   5.665   0.639   6.743  0.3957  0.5320  0.2639
  530MOL0     C71421   5.729   0.546   6.837 -0.4137 -0.2374  0.1926
  530MOL0     C71422   5.848   0.481   6.795 -0.2049 -0.0351 -1.6804
  530MOL0     O71423   5.900   0.390   6.882  0.8001 -1.5254  0.1477
  530MOL0     C71424   6.026   0.328   6.861  0.4548  0.9320  0.2869
  530MOL0     C71425   6.051   0.216   6.959 -0.4902 -0.2729 -0.0056
  530MOL0     C71426   6.197   0.168   6.954 -0.1862 -0.1452  0.2361
  530MOL0     C71427   6.225   0.051   7.053 -0.4349 -0.2256  0.5827
  530MOL0     C71428   6.373   0.004   7.051 -0.8056 -0.2664 -0.2935
  530MOL0     C71429   6.418  -0.068   6.928  0.2151  0.6259 -0.6248
  530MOL0     C71430   6.568  -0.082   6.932  0.1877  0.7696  0.6705
  530MOL0     C71431   6.619  -0.222   6.983  0.2510  0.1179 -0.6972
  530MOL0     N71432   6.593  -0.252   7.122 -0.9262  0.3450 -0.4092
  530MOL0     C71433   6.476  -0.306   7.170 -0.6478 -1.0830 -0.4332
  530MOL0     C71434   6.506  -0.351   7.297 -0.2334  1.7041  0.7111
  530MOL0     C71435   6.416  -0.433   7.395  0.2715 -0.8448  0.0237
  530MOL0     C71436   6.349  -0.351   7.502  1.1250 -0.6150 -0.2974
  530MOL0     C71437   6.289  -0.439   7.610 -0.5615 -0.4281 -0.2802
  530MOL0     C71438   6.274  -0.357   7.740 -0.4626 -0.8540 -1.0044
  530MOL0     O71439   6.240  -0.434   7.859  0.1402 -0.6820 -0.1783
  530MOL0     C71440   6.331  -0.518   7.913  0.7860  0.2994  0.0299
  530MOL0     C71441   6.467  -0.536   7.872 -0.0389  0.1510  0.4616
  530MOL0     C71442   6.547  -0.630   7.929 -0.5410  0.9327 -0.2617
  530MOL0     C71443   6.501  -0.721   8.030  0.1828 -0.1041 -0.5281
  530MOL0     C71444   6.588  -0.830   8.075 -1.1497  0.4303  0.2847
  530MOL0     O71445   6.537  -0.921   8.162  0.2167 -0.4350 -0.2576
  530MOL0     C71446   6.602  -1.014   8.229 -0.9431  0.2121 -0.3457
  530MOL0     C71447   6.716  -1.075   8.189 -0.1419 -0.5266  0.8847
  530MOL0     C71448   6.780  -1.165   8.261  0.1143  0.8773  0.0509
  530MOL0     C71449   6.736  -1.193   8.389 -0.4702  0.3712  0.2950
  530MOL0     O71450   6.799  -1.287   8.469 -0.2934  0.9077  0.4023
  530MOL0     C71451   6.936  -1.322   8.449  0.4680 -0.0451 -0.4211
  530MOL0     C71452   6.984  -1.401   8.563 -0.2743  0.0570  0.6606
  530MOL0     C71453   7.130  -1.420   8.550 -0.8097  0.2737  0.2633
  530MOL0     C71454   7.190  -1.495   8.669  0.2092  1.1895 -0.4156
  530MOL0     C71455   7.345  -1.503   8.672  0.2708 -0.3362 -0.7305
  530MOL0     C71456   7.412  -1.604   8.567 -0.0547  0.9519  0.1156
  530MOL0     C71457   7.569  -1.607   8.567 -0.0254 -0.0815 -0.7410
  530MOL0     C71458   7.621  -1.672   8.435  0.0188 -1.0286  0.3821
  530MOL0    Cl71459   7.760  -1.772   8.464 -0.1580  0.2903 -0.3121
  530MOL0     C71460   6.639  -1.124   8.442 -0.1687  0.4733  0.9238
  530MOL0     C71461   6.566  -1.036   8.366 -0.0747  0.0200 -0.1210
  530MOL0     O71462   6.699  -0.844   8.017  0.4354  0.0933  0.4427
  530MOL0     C71463   6.361  -0.708   8.063 -0.1954 -0.3121 -0.1818
  530MOL0     C71464   6.283  -0.604   8.009  0.9989 -0.4750  0.6666
  530MOL0     N71465   6.637  -0.316   7.320  0.0827  0.1094  0.4514
  530MOL0     N71466   6.693  -0.256   7.214  1.0696 -0.0616 -0.1906
  530MOL0     C71467   5.907   0.518   6.677  0.3235 -0.7161  0.4409
  530MOL0     C71468   5.848   0.596   6.580  0.0971  0.6683  0.4341
  530MOL0     C71469   5.569   0.958   6.540 -0.2290  0.1007 -0.3942
  530MOL0     C71470   5.592   1.096   6.540  0.3174  0.1757  0.6950
  530MOL0     C71471   5.501   1.190   6.503  0.8744  0.2394  0.3622
  530MOL0     C71472   5.375   1.151   6.448  0.4629 -0.1400 -0.2794
  530MOL0     O71473   5.288   1.246   6.396 -0.3161 -1.0593  0.7970
  530MOL0     C71474   5.175   1.212   6.314 -0.6361 -0.4655 -0.0511
  530MOL0     C71475   5.046   1.214   6.389 -0.3757  0.0479 -0.0105
  530MOL0     C71476   4.925   1.231   6.291  0.1760 -0.3839 -0.0781
  530MOL0     C71477   4.809   1.134   6.324 -0.3715 -0.9615  0.0991
  530MOL0     C71478   4.730   1.171   6.450 -0.3410 -0.1231  0.8905
  530MOL0     C71479   4.661   1.181   6.545  0.3803  0.3852  0.2230
  530MOL0     C71480   5.343   1.015   6.463  0.2793  0.3916  0.3726
  530MOL0     C71481   5.435   0.922   6.507  0.4901  0.0594 -0.2888
  530MOL0     C71482   5.390   0.779   6.495  0.7585  0.0165 -0.6685
  530MOL0     H71483   5.570   0.687   6.765  0.6182  1.0945  0.0182
  530MOL0     H71484   5.681   0.519   6.930 -1.5617 -3.4507 -1.1810
  530MOL0     H71485   6.020   0.282   6.763  1.0487 -0.2535  0.7918
  530MOL0     H71486   6.100   0.409   6.866 -0.8925  2.2503 -0.2649
  530MOL0     H71487   5.984   0.133   6.935 -0.6340 -0.4458  0.9555
  530MOL0     H71488   6.015   0.249   7.057 -2.6782 -0.3313 -0.7316
  530MOL0     H71489   6.260   0.256   6.972 -0.5408 -0.4640  3.5610
  530MOL0     H71490   6.220   0.129   6.855  0.2363 -1.2709  0.7608
  530MOL0     H71491   6.208   0.086   7.155  2.3307 -1.1333  1.4468
  530MOL0     H71492   6.162  -0.034   7.024 -1.4408  0.0577  1.8576
  530MOL0     H71493   6.442   0.089   7.064 -0.8571 -0.6420  3.8376
  530MOL0     H71494   6.392  -0.060   7.138 -0.5880  0.9843  0.6103
  530MOL0     H71495   6.362  -0.161   6.917  0.6599  0.1347  1.0081
  530MOL0     H71496   6.383  -0.010   6.842 -3.1376  0.6677  0.5817
  530MOL0     H71497   6.612  -0.000   6.990 -1.0670  1.6393  0.4431
  530MOL0     H71498   6.608  -0.060   6.833  2.5877  1.0465  1.6287
  530MOL0     H71499   6.546  -0.282   6.927 -1.7630  2.8701 -1.2351
  530MOL0     H71500   6.723  -0.247   6.958  0.0511 -0.8556 -0.5803
  530MOL0     H71501   6.383  -0.293   7.115  0.5208 -1.0269 -2.4958
  530MOL0     H71502   6.352  -0.502   7.339  3.5808 -3.0438 -1.3412
  530MOL0     H71503   6.485  -0.498   7.449  2.0803 -0.0395 -1.1942
  530MOL0     H71504   6.404  -0.267   7.545 -2.5174  1.2650  1.1519
  530MOL0     H71505   6.262  -0.298   7.463  0.4073 -0.7271  1.0816
  530MOL0     H71506   6.337  -0.532   7.639 -0.1616  0.4996  2.3461
  530MOL0     H71507   6.184  -0.457   7.586 -0.4525 -0.2021 -0.9428
  530MOL0     H71508   6.184  -0.294   7.730  0.8693  1.5394  1.0255
  530MOL0     H71509   6.358  -0.289   7.757 -1.3587 -0.1511  0.8013
  530MOL0     H71510   6.511  -0.465   7.803 -0.7208 -1.5154 -1.7968
  530MOL0     H71511   6.643  -0.633   7.879 -0.3199 -0.6243  0.2107
  530MOL0     H71512   6.752  -1.059   8.088 -1.5052  2.6377  0.7700
  530MOL0     H71513   6.866  -1.220   8.224 -2.0116 -1.8360 -1.2005
  530MOL0     H71514   6.956  -1.381   8.359  2.0921  0.9253 -0.7503
  530MOL0     H71515   6.987  -1.226   8.437  1.6629 -0.7713 -1.3714
  530MOL0     H71516   6.972  -1.346   8.657  0.7297 -1.0223  1.4297
  530MOL0     H71517   6.930  -1.496   8.571  0.2334 -0.1096  2.7573
  530MOL0     H71518   7.152  -1.472   8.456 -2.7228  2.5641 -1.5824
  530MOL0     H71519   7.174  -1.320   8.547  0.4877 -0.2789 -3.1701
  530MOL0     H71520   7.159  -1.599   8.651  2.3473  0.7459 -1.8882
  530MOL0     H71521   7.152  -1.457   8.764  1.3047  3.8349 -0.9586
  530MOL0     H71522   7.383  -1.520   8.773  0.0440  3.4424  0.1161
  530MOL0     H71523   7.381  -1.403   8.645  0.6464 -0.3592 -0.3335
  530MOL0     H71524   7.384  -1.705   8.597  0.9908  0.8444  0.7853
  530MOL0     H71525   7.368  -1.578   8.470 -2.4865  0.8948  1.1083
  530MOL0     H71526   7.614  -1.647   8.659 -4.7484 -3.3543  0.5369
  530MOL0     H71527   7.601  -1.503   8.552  1.9352 -0.7948 -1.7930
  530MOL0     H71528   7.541  -1.727   8.384 -1.7034  1.2870  0.4537
  530MOL0     H71529   7.651  -1.592   8.367 -2.1221  0.0904  0.6707
  530MOL0     H71530   6.629  -1.135   8.549 -0.1306 -1.1077  0.7806
  530MOL0     H71531   6.488  -0.975   8.411 -1.7321 -1.4319 -0.9210
  530MOL0     H71532   6.307  -0.765   8.138 -1.1501  0.7786 -0.0072
  530MOL0     H71533   6.180  -0.581   8.038  0.9269 -1.0020  0.8279
  530MOL0     H71534   6.007   0.483   6.656  1.2868  2.3639 -0.6720
  530MOL0     H71535   5.892   0.609   6.482 -2.2779  1.0607 -0.6340
  530MOL0     H71536   5.691   1.136   6.558  0.5591  0.1929 -0.5873
  530MOL0     H71537   5.528   1.295   6.498 -1.4619  0.8468 -0.8772
  530MOL0     H71538   5.189   1.117   6.262  1.5325 -1.8999  2.8495
  530MOL0     H71539   5.172   1.292   6.239  1.5516  2.1550  2.4073
  530MOL0     H71540   5.040   1.308   6.445 -0.1595  2.5274 -3.7747
  530MOL0     H71541   5.034   1.122   6.447  0.6188  0.2640  0.5623
  530MOL0     H71542   4.967   1.196   6.196 -1.3540 -1.6447 -0.3304
  530MOL0     H71543   4.885   1.332   6.294  0.5281 -0.2621  1.7839
  530MOL0     H71544   4.749   1.143   6.233 -0.5961 -1.5769  0.1838
  530MOL0     H71545   4.859   1.036   6.329  2.1236  0.2364 -0.0024
  530MOL0     H71546   4.605   1.184   6.637  1.2532 -0.3918  0.8035
  530MOL0     H71547   5.250   0.971   6.427  0.0763  1.1483 -0.0471
  530MOL0     H71548   5.282   0.767   6.486  0.6671  1.3683 -1.8037
  530MOL0     H71549   5.433   0.727   6.408 -0.7074  1.2777 -2.2351
  530MOL0     H71550   5.405   0.733   6.593 -1.1741  2.0095  0.6552
  531MOL0     O71551   6.957   2.786   5.330 -0.0386  0.5456 -0.0578
  531MOL0     C71552   6.934   2.692   5.257 -1.1117  0.7930 -0.9790
  531MOL0     O71553   6.819   2.667   5.188 -0.3987  0.2181  0.1330
  531MOL0     C71554   6.714   2.748   5.210 -0.1223  0.1080  0.2686
  531MOL0     C71555   6.642   2.749   5.332  0.2384  0.4964 -0.7650
  531MOL0     C71556   6.522   2.809   5.353 -0.5504  0.4465  0.6733
  531MOL0     C71557   6.472   2.886   5.247  0.2482 -0.5143 -0.3137
  531MOL0     O71558   6.357   2.973   5.262  0.2674  0.3200 -1.0698
  531MOL0     C71559   6.281   2.981   5.385 -0.6070  0.0717 -1.0297
  531MOL0     C71560   6.134   3.042   5.347 -0.1668  0.1309  0.5982
  531MOL0     C71561   6.125   3.200   5.347  1.1801  0.7115  0.1866
  531MOL0     C71562   6.004   3.245   5.261  0.9234  0.5528 -0.0980
  531MOL0     C71563   5.878   3.275   5.348  0.1035  0.4775  1.0094
  531MOL0     C71564   5.797   3.400   5.298 -0.4016  0.3933 -0.4846
  531MOL0     C71565   5.700   3.445   5.404 -0.1299  0.5411  0.5903
  531MOL0     C71566   5.660   3.592   5.362  0.6369  0.1425  0.1525
  531MOL0     N71567   5.518   3.624   5.401  0.6803 -0.0772  0.7785
  531MOL0     C71568   5.438   3.707   5.325 -0.3484  0.0700 -0.4054
  531MOL0     C71569   5.329   3.724   5.399 -0.8909 -1.6648 -0.3474
  531MOL0     C71570   5.195   3.775   5.352  0.3545  0.0770 -0.0567
  531MOL0     C71571   5.085   3.677   5.366 -1.3033 -0.2957  0.0023
  531MOL0     C71572   4.954   3.730   5.318 -0.0896 -0.5523  0.0945
  531MOL0     C71573   4.862   3.606   5.301 -0.7686  0.4632  0.3554
  531MOL0     O71574   4.834   3.534   5.419 -0.6063  0.4411 -0.4177
  531MOL0     C71575   4.765   3.410   5.416 -0.2330  0.1014  0.9034
  531MOL0     C71576   4.728   3.347   5.536 -0.8031  0.6711  1.1160
  531MOL0     C71577   4.682   3.213   5.534  0.2170  0.4965 -0.1464
  531MOL0     C71578   4.671   3.149   5.424 -0.0595  0.3674  0.3713
  531MOL0     C71579   4.654   3.003   5.428  0.7825 -0.3848 -0.2743
  531MOL0     O71580   4.586   2.953   5.535 -0.2523  0.0182  0.3400
  531MOL0     C71581   4.582   2.808   5.552 -0.7458 -0.1623  0.4345
  531MOL0     C71582   4.484   2.738   5.493  0.4915  0.3744  0.1436
  531MOL0     C71583   4.469   2.604   5.511 -0.0656  0.6191  0.6055
  531MOL0     C71584   4.564   2.528   5.575  0.2580  0.2321  0.0840
  531MOL0     O71585   4.545   2.391   5.592  0.6105  0.2120 -0.3450
  531MOL0     C71586   4.572   2.324   5.723 -0.0653 -0.1269 -0.4099
  531MOL0     C71587   4.517   2.179   5.724  0.2240  0.8953 -0.5727
  531MOL0     C71588   4.533   2.107   5.861  0.6062  0.5269 -0.1204
  531MOL0     C71589   4.445   1.980   5.853  1.0459 -0.2042  0.0673
  531MOL0     C71590   4.453   1.906   5.990 -0.6805  0.2269  0.6166
  531MOL0     C71591   4.353   1.786   5.992 -0.2722 -0.4735  0.3351
  531MOL0     C71592   4.233   1.826   6.080  0.2922 -0.4333  0.1894
  531MOL0     C71593   4.155   1.696   6.125  0.5176 -0.3318  0.4593
  531MOL0    Cl71594   4.090   1.602   5.990 -0.6727 -0.1436  0.3981
  531MOL0     C71595   4.662   2.600   5.645 -0.0278  0.5711 -0.2353
  531MOL0     C71596   4.678   2.740   5.628 -0.5079  0.9744 -0.9171
  531MOL0     O71597   4.713   2.934   5.343  0.7671  1.0476 -0.4691
  531MOL0     C71598   4.702   3.213   5.302  0.2754  0.0822 -0.3738
  531MOL0     C71599   4.738   3.350   5.299  0.7320  0.1698  0.5770
  531MOL0     N71600   5.342   3.650   5.516  0.5260 -0.7219 -0.7459
  531MOL0     N71601   5.454   3.597   5.519  0.5791 -0.0436  0.6825
  531MOL0     C71602   6.528   2.880   5.124  0.3575  0.0549  0.3917
  531MOL0     C71603   6.655   2.821   5.100  0.1024 -0.2161 -0.5754
  531MOL0     C71604   7.041   2.593   5.246  0.1256 -0.0610  0.2621
  531MOL0     C71605   7.174   2.643   5.233  0.5716 -0.1365  0.5773
  531MOL0     C71606   7.280   2.564   5.193 -0.5509  0.7396 -0.2003
  531MOL0     C71607   7.263   2.428   5.177 -0.0270 -0.2264 -0.6136
  531MOL0     O71608   7.365   2.343   5.157 -0.5032  0.3883  0.1938
  531MOL0     C71609   7.345   2.224   5.065 -0.1070 -0.1984 -0.4672
  531MOL0     C71610   7.483   2.167   5.022  0.5480 -1.4074  0.7159
  531MOL0     C71611   7.462   2.023   4.965  0.4456  0.4386  0.1863
  531MOL0     C71612   7.597   1.953   4.931 -0.1409 -0.2955 -1.0503
  531MOL0     C71613   7.665   2.022   4.820  0.3374 -0.4918  0.2281
  531MOL0     C71614   7.720   2.093   4.738 -1.4390 -0.4631 -0.3864
  531MOL0     C71615   7.129   2.378   5.196 -1.0015 -0.1399  0.5320
  531MOL0     C71616   7.021   2.455   5.230 -0.3060 -0.5184 -0.2822
  531MOL0     C71617   6.892   2.388   5.243 -1.2221 -0.3764  0.3604
  531MOL0     H71618   6.684   2.692   5.414  0.9544  1.6590 -0.2936
  531MOL0     H71619   6.474   2.789   5.447  0.3604 -4.0478  0.3873
  531MOL0     H71620   6.275   2.875   5.413 -0.4997  0.3962  0.2772
  531MOL0     H71621   6.335   3.034   5.463  0.0172  2.0360 -2.7067
  531MOL0     H71622   6.060   2.999   5.414  0.7108  0.2750  1.6803
  531MOL0     H71623   6.110   3.007   5.246  0.2609 -2.1082  1.2098
  531MOL0     H71624   6.208   3.247   5.294  0.2593  3.1982  0.8202
  531MOL0     H71625   6.128   3.216   5.455  4.7880  1.3336  0.1232
  531MOL0     H71626   6.034   3.324   5.191  0.2697  2.8544  2.0812
  531MOL0     H71627   5.973   3.180   5.179  4.2754  3.6960 -4.3638
  531MOL0     H71628   5.822   3.181   5.351  1.8701 -1.1266 -4.4994
  531MOL0     H71629   5.908   3.313   5.446 -1.8016 -1.2001  2.3158
  531MOL0     H71630   5.868   3.481   5.282  0.8638 -0.1599  1.9466
  531MOL0     H71631   5.752   3.377   5.201 -0.0556 -0.8953 -0.3529
  531MOL0     H71632   5.743   3.459   5.504  3.7580  0.1004 -0.8709
  531MOL0     H71633   5.612   3.381   5.390  1.7747 -2.5500  1.7733
  531MOL0     H71634   5.727   3.662   5.413  1.1648  1.3978 -2.1186
  531MOL0     H71635   5.673   3.592   5.254 -1.4002 -0.8547 -0.1447
  531MOL0     H71636   5.463   3.743   5.226 -1.0800 -0.9391 -0.9843
  531MOL0     H71637   5.174   3.866   5.410 -1.3570 -0.1825 -0.2274
  531MOL0     H71638   5.203   3.813   5.250  1.2034 -0.8184 -0.3376
  531MOL0     H71639   5.116   3.601   5.294  2.3016  1.4437 -0.4908
  531MOL0     H71640   5.086   3.626   5.463  4.0710  0.5237  0.7141
  531MOL0     H71641   4.968   3.785   5.225  2.2940  0.2948  0.8820
  531MOL0     H71642   4.915   3.794   5.398  2.4170 -2.4193  3.0186
  531MOL0     H71643   4.913   3.539   5.231 -1.4590 -1.1374  1.3258
  531MOL0     H71644   4.771   3.646   5.255 -0.5732  2.3175  1.4681
  531MOL0     H71645   4.751   3.407   5.624  0.7768  2.0034 -0.1242
  531MOL0     H71646   4.659   3.169   5.630 -3.0469  0.3495 -0.8942
  531MOL0     H71647   4.408   2.787   5.434 -0.5721 -0.5606  0.6916
  531MOL0     H71648   4.387   2.549   5.466 -0.2261 -1.8355  3.5389
  531MOL0     H71649   4.676   2.315   5.754 -1.0491  0.0272  3.3572
  531MOL0     H71650   4.519   2.379   5.801 -1.2006  0.7354 -1.7319
  531MOL0     H71651   4.409   2.185   5.707 -0.7042 -4.2417  1.7311
  531MOL0     H71652   4.560   2.113   5.649 -0.4558 -1.2128  0.8158
  531MOL0     H71653   4.635   2.078   5.885  0.5918  1.0408  0.5922
  531MOL0     H71654   4.497   2.174   5.940  0.6445 -1.0172  1.2644
  531MOL0     H71655   4.462   1.914   5.768 -0.6570 -0.7767  0.1365
  531MOL0     H71656   4.341   2.012   5.843  0.6284 -2.0752 -2.2775
  531MOL0     H71657   4.439   1.971   6.077 -3.2124  2.7019 -1.4335
  531MOL0     H71658   4.553   1.863   5.980 -1.0394 -0.4258 -0.4135
  531MOL0     H71659   4.315   1.748   5.897 -0.6808  0.7263 -0.0002
  531MOL0     H71660   4.410   1.699   6.026  1.0671 -0.5305 -1.8450
  531MOL0     H71661   4.165   1.901   6.038  1.8354  1.5373  1.0197
  531MOL0     H71662   4.276   1.874   6.169 -1.6595  0.5208  0.6795
  531MOL0     H71663   4.209   1.621   6.182 -0.9313 -2.5862 -0.9655
  531MOL0     H71664   4.071   1.730   6.187 -1.3450 -1.9351 -1.0382
  531MOL0     H71665   4.722   2.552   5.723  0.6389  1.6962 -0.0359
  531MOL0     H71666   4.754   2.793   5.684 -1.1158 -0.6829  1.6151
  531MOL0     H71667   4.688   3.148   5.216 -2.1856 -0.0659  0.0606
  531MOL0     H71668   4.753   3.399   5.203 -0.2280 -2.0946 -0.8323
  531MOL0     H71669   6.479   2.943   5.050  2.4399  2.5220  0.9752
  531MOL0     H71670   6.704   2.828   5.003  1.7887 -0.7946  0.2001
  531MOL0     H71671   7.191   2.749   5.249 -4.1807  1.0506 -0.5655
  531MOL0     H71672   7.382   2.601   5.201 -1.0491  1.7227  4.2021
  531MOL0     H71673   7.275   2.261   4.990 -0.1864  0.5390 -0.0395
  531MOL0     H71674   7.299   2.150   5.132  0.0168  1.0035  0.9894
  531MOL0     H71675   7.559   2.162   5.101  1.9396 -1.1457 -0.5725
  531MOL0     H71676   7.526   2.231   4.944  1.9545 -3.1502  0.0188
  531MOL0     H71677   7.387   2.023   4.886  1.2645  0.3295 -0.6018
  531MOL0     H71678   7.413   1.975   5.051  2.6897 -0.8145  0.8665
  531MOL0     H71679   7.655   1.954   5.023 -2.3949 -1.1622  0.4654
  531MOL0     H71680   7.583   1.849   4.899  1.1826 -1.1053  0.8290
  531MOL0     H71681   7.759   2.148   4.655 -1.3486  1.1511  0.6720
  531MOL0     H71682   7.114   2.270   5.197 -0.6468 -0.1923  1.7551
  531MOL0     H71683   6.817   2.399   5.163  0.5044  0.7741 -1.1718
  531MOL0     H71684   6.902   2.280   5.258  2.0089 -0.0119  1.4861
  531MOL0     H71685   6.849   2.421   5.338  0.9854 -0.1909  1.3486
  532MOL0     O71686   4.965   9.101   1.004 -0.1821  0.5727  0.2782
  532MOL0     C71687   4.886   9.017   0.956  0.4105 -1.1898  0.3141
  532MOL0     O71688   4.903   8.943   0.845 -0.5223  0.0943  0.2210
  532MOL0     C71689   5.037   8.927   0.801  0.7052 -0.7857 -0.2649
  532MOL0     C71690   5.103   8.805   0.824 -0.1183 -0.3036  0.6346
  532MOL0     C71691   5.229   8.796   0.767 -0.3895 -0.1654  0.6607
  532MOL0     C71692   5.298   8.900   0.711 -0.1645 -0.6235  1.0616
  532MOL0     O71693   5.415   8.875   0.647  0.0581 -0.6137 -0.6558
  532MOL0     C71694   5.468   8.744   0.617  1.5422  0.2612 -0.5410
  532MOL0     C71695   5.565   8.721   0.729  0.0763  0.0553 -0.1345
  532MOL0     C71696   5.649   8.592   0.710 -1.0480  0.0416 -0.5428
  532MOL0     C71697   5.565   8.464   0.746  0.1787  0.2494 -1.0817
  532MOL0     C71698   5.653   8.350   0.794  0.0754 -0.2060  0.9417
  532MOL0     C71699   5.702   8.377   0.934  1.1554 -1.1634  1.1757
  532MOL0     C71700   5.772   8.251   0.996  0.3460 -0.5407  0.9106
  532MOL0     C71701   5.832   8.280   1.135 -0.2286 -1.6369  0.1982
  532MOL0     N71702   5.876   8.160   1.208  0.2967  0.0962 -0.6563
  532MOL0     C71703   5.958   8.057   1.157  1.2247  0.2317 -0.4317
  532MOL0     C71704   5.963   7.971   1.263 -0.1421 -0.2485 -0.4913
  532MOL0     C71705   6.052   7.844   1.285  0.7339  0.0841 -0.2854
  532MOL0     C71706   6.199   7.869   1.289  0.3805 -0.3276  0.4389
  532MOL0     C71707   6.236   7.927   1.432 -0.1571  0.3672 -0.0345
  532MOL0     C71708   6.240   7.825   1.541 -1.4260  0.7697 -0.4757
  532MOL0     O71709   6.315   7.866   1.664 -0.0350 -0.8972  0.4760
  532MOL0     C71710   6.449   7.876   1.653 -0.7577  0.0679  0.3925
  532MOL0     C71711   6.522   7.813   1.554  0.8119  0.0637 -1.3967
  532MOL0     C71712   6.664   7.803   1.562 -0.2420  0.2196 -0.8665
  532MOL0     C71713   6.737   7.857   1.667  1.3181  0.6044  0.6597
  532MOL0     C71714   6.884   7.850   1.656 -0.2838 -0.7222 -0.6064
  532MOL0     O71715   6.936   7.785   1.543  0.2645  0.3030 -0.1733
  532MOL0     C71716   7.071   7.801   1.519 -0.1980 -0.1417  0.7293
  532MOL0     C71717   7.158   7.691   1.545 -0.1758 -0.4351  0.8349
  532MOL0     C71718   7.297   7.697   1.508  0.7071  0.3109 -0.4697
  532MOL0     C71719   7.346   7.815   1.438 -0.7477  0.1156 -0.5904
  532MOL0     O71720   7.481   7.827   1.398  0.6708 -0.2188  0.2384
  532MOL0     C71721   7.573   7.711   1.417 -0.4234 -0.2059  0.1768
  532MOL0     C71722   7.709   7.741   1.348 -0.0891  0.7567  0.8266
  532MOL0     C71723   7.719   7.792   1.203 -0.1282  0.4682  0.5424
  532MOL0     C71724   7.648   7.693   1.112  0.7178 -0.3503 -0.0887
  532MOL0     C71725   7.709   7.710   0.977  0.0360  1.3025  0.2152
  532MOL0     C71726   7.654   7.596   0.892 -0.2930 -0.0672 -0.0944
  532MOL0     C71727   7.680   7.623   0.738  0.6088  0.3757 -0.3697
  532MOL0     C71728   7.593   7.546   0.648 -0.0323  0.2896 -0.4171
  532MOL0    Cl71729   7.629   7.381   0.693 -0.0094 -0.3642  0.9074
  532MOL0     C71730   7.260   7.917   1.410  0.2638 -0.8141  0.0974
  532MOL0     C71731   7.126   7.911   1.451 -0.0600  0.2350  0.3650
  532MOL0     O71732   6.956   7.892   1.748 -0.1689 -0.7808  0.1167
  532MOL0     C71733   6.662   7.916   1.770 -0.5448 -0.1312  0.0297
  532MOL0     C71734   6.521   7.922   1.764 -0.6771  0.2654 -0.7318
  532MOL0     N71735   5.909   8.029   1.377  0.0590  0.9035  0.4777
  532MOL0     N71736   5.854   8.145   1.341  0.0923  0.8390 -0.6369
  532MOL0     C71737   5.231   9.021   0.698 -0.0696 -0.7390  0.4923
  532MOL0     C71738   5.106   9.037   0.749  0.8093 -0.4446  0.6028
  532MOL0     C71739   4.775   8.990   1.043  0.2395  0.0977 -0.3672
  532MOL0     C71740   4.654   9.036   1.001 -0.2269 -0.9354 -0.2177
  532MOL0     C71741   4.548   9.041   1.093  0.1406  0.5009 -0.2579
  532MOL0     C71742   4.557   8.977   1.221  0.0851  0.2517  0.4461
  532MOL0     O71743   4.446   8.975   1.297  0.6493 -0.1072 -0.6871
  532MOL0     C71744   4.447   8.973   1.439 -0.3600  0.5016  0.2288
  532MOL0     C71745   4.371   8.859   1.499 -0.1280  0.3356  0.1073
  532MOL0     C71746   4.411   8.719   1.440 -0.0674 -0.2510 -0.1144
  532MOL0     C71747   4.303   8.616   1.427  0.6102  0.6872 -0.0008
  532MOL0     C71748   4.284   8.531   1.551 -0.3471 -1.1709  0.5569
  532MOL0     C71749   4.291   8.451   1.646  0.7728 -0.1759  0.5372
  532MOL0     C71750   4.684   8.939   1.269 -0.8404  0.2247  0.1541
  532MOL0     C71751   4.792   8.940   1.177  0.7485  0.1988 -0.0105
  532MOL0     C71752   4.927   8.893   1.230  1.5411 -0.2968  0.9953
  532MOL0     H71753   5.061   8.712   0.862  3.1327 -2.0240  0.3498
  532MOL0     H71754   5.274   8.702   0.796  0.3830 -0.6197 -1.7865
  532MOL0     H71755   5.391   8.666   0.622 -1.0096  2.6530  3.2877
  532MOL0     H71756   5.522   8.750   0.522  0.4406 -0.2259 -1.2156
  532MOL0     H71757   5.509   8.709   0.822  1.2328  0.0170  0.5789
  532MOL0     H71758   5.623   8.813   0.740  2.2578 -1.4026  1.3131
  532MOL0     H71759   5.745   8.595   0.763 -0.7393  0.3715 -1.1151
  532MOL0     H71760   5.684   8.574   0.608  0.7291 -1.6435  0.3040
  532MOL0     H71761   5.488   8.494   0.818  0.7823  0.9709 -0.7228
  532MOL0     H71762   5.508   8.429   0.660 -0.4903 -0.6116 -0.3135
  532MOL0     H71763   5.606   8.252   0.803  1.6666 -0.9790  1.1766
  532MOL0     H71764   5.730   8.333   0.719 -0.4995  0.8735  0.0646
  532MOL0     H71765   5.764   8.466   0.937 -0.3868  0.1201 -1.3870
  532MOL0     H71766   5.621   8.408   1.001  0.1408  0.8471 -0.8557
  532MOL0     H71767   5.851   8.213   0.930 -0.6729  0.4472 -0.9694
  532MOL0     H71768   5.693   8.177   1.006  0.4642 -1.0550 -1.4386
  532MOL0     H71769   5.918   8.347   1.132 -1.7138  0.3736  0.2132
  532MOL0     H71770   5.750   8.322   1.195  0.1655  0.4047 -0.6109
  532MOL0     H71771   6.020   8.050   1.069  0.1732 -1.0215 -1.1134
  532MOL0     H71772   6.020   7.812   1.384  0.3430  0.3555 -0.3221
  532MOL0     H71773   6.028   7.769   1.210 -1.6680 -1.7929  2.1680
  532MOL0     H71774   6.253   7.776   1.272  2.3421  0.5750  1.3716
  532MOL0     H71775   6.234   7.930   1.205 -3.1187 -1.0381 -1.7128
  532MOL0     H71776   6.180   8.012   1.472  2.6913  1.4497  2.0177
  532MOL0     H71777   6.334   7.974   1.418 -1.0653  2.4335  0.2418
  532MOL0     H71778   6.286   7.730   1.512 -1.2584 -0.0313  2.1548
  532MOL0     H71779   6.137   7.803   1.572 -0.6826 -0.9790  0.8928
  532MOL0     H71780   6.474   7.772   1.465  1.6455 -1.1285 -1.3209
  532MOL0     H71781   6.719   7.779   1.471  1.4068 -1.0151  0.3818
  532MOL0     H71782   7.124   7.600   1.593 -0.5055  0.6715  2.7967
  532MOL0     H71783   7.358   7.613   1.538  1.0159  1.0923  1.1812
  532MOL0     H71784   7.585   7.698   1.525 -3.8090  1.9818  0.9614
  532MOL0     H71785   7.538   7.618   1.370 -1.5401  1.7821 -3.3343
  532MOL0     H71786   7.751   7.813   1.419  1.7036 -0.4654  1.0728
  532MOL0     H71787   7.770   7.652   1.365  1.9161  1.6165 -1.2714
  532MOL0     H71788   7.678   7.893   1.194 -0.8941  0.0050 -2.0954
  532MOL0     H71789   7.821   7.803   1.164 -1.1940  1.9309 -2.1369
  532MOL0     H71790   7.539   7.701   1.106  0.8786  1.2137 -1.7206
  532MOL0     H71791   7.668   7.590   1.142  2.2070  0.1675  0.7996
  532MOL0     H71792   7.818   7.715   0.977 -0.0038  4.3313 -0.3690
  532MOL0     H71793   7.672   7.807   0.943 -1.4192  0.3026 -1.2058
  532MOL0     H71794   7.719   7.513   0.919 -1.2230 -0.2412  1.7194
  532MOL0     H71795   7.548   7.577   0.913 -0.6045 -0.1321 -1.6018
  532MOL0     H71796   7.784   7.600   0.715  0.6766 -0.0431  0.3120
  532MOL0     H71797   7.650   7.723   0.707 -2.9762 -1.0037 -1.9330
  532MOL0     H71798   7.486   7.560   0.665 -0.0318 -1.0688  0.9193
  532MOL0     H71799   7.604   7.581   0.545  1.7536  4.1436  0.9095
  532MOL0     H71800   7.301   7.998   1.349 -1.2239  0.6590  0.9712
  532MOL0     H71801   7.049   7.985   1.433 -0.1083  0.3139  0.8857
  532MOL0     H71802   6.714   7.962   1.854 -2.0589  1.7050  0.0083
  532MOL0     H71803   6.486   7.974   1.854  3.3124 -2.0295  2.4887
  532MOL0     H71804   5.282   9.099   0.643 -1.4030 -2.0013 -2.7787
  532MOL0     H71805   5.058   9.134   0.745  2.6121  0.4520 -2.2037
  532MOL0     H71806   4.641   9.052   0.895  0.5517  0.4584 -0.1318
  532MOL0     H71807   4.454   9.083   1.056  0.6484  1.2094 -0.7619
  532MOL0     H71808   4.400   9.065   1.475 -1.5088 -0.5519  1.5965
  532MOL0     H71809   4.545   8.975   1.488 -2.2433  1.6016  4.4140
  532MOL0     H71810   4.264   8.867   1.475 -0.2250 -0.3144  0.2914
  532MOL0     H71811   4.378   8.861   1.609 -1.0084  0.9997  0.1709
  532MOL0     H71812   4.502   8.685   1.490  1.7081  1.7142 -1.8231
  532MOL0     H71813   4.433   8.731   1.334  1.9520  0.4537  0.3448
  532MOL0     H71814   4.209   8.664   1.395 -1.2186 -2.0499  0.9161
  532MOL0     H71815   4.319   8.551   1.341 -4.2240 -2.3219  1.0006
  532MOL0     H71816   4.307   8.395   1.736 -1.3833 -1.1820  0.3420
  532MOL0     H71817   4.708   8.915   1.372 -0.3809  1.1361  0.2702
  532MOL0     H71818   4.914   8.835   1.322 -1.1985  1.3714  1.7799
  532MOL0     H71819   4.951   8.827   1.146 -1.0051 -1.2651  0.9536
  532MOL0     H71820   5.004   8.971   1.233  2.3724 -0.8460 -2.3516
  533MOL0     O71821   7.920   3.965  10.059 -0.2779 -0.5937  0.5760
  533MOL0     C71822   8.037   3.930  10.084 -0.0174 -0.1953  0.6929
  533MOL0     O71823   8.138   3.958  10.003 -1.1337  0.3246  0.2588
  533MOL0     C71824   8.121   4.017   9.882 -0.0667  0.4569  0.8767
  533MOL0     C71825   8.107   4.156   9.885  0.4235 -0.8538 -0.3724
  533MOL0     C71826   8.088   4.227   9.767  0.2012  1.1034 -0.2371
  533MOL0     C71827   8.115   4.169   9.640 -0.3843  0.5178  1.3864
  533MOL0     O71828   8.111   4.234   9.517 -0.1809 -0.1686 -0.0861
  533MOL0     C71829   8.107   4.382   9.526 -0.1902  0.8713 -0.8323
  533MOL0     C71830   8.136   4.453   9.400 -0.6829  0.1047  0.5762
  533MOL0     C71831   8.287   4.488   9.364 -0.2438  0.0217  0.0210
  533MOL0     C71832   8.294   4.569   9.231  0.1582 -0.0802  0.1899
  533MOL0     C71833   8.432   4.633   9.214  0.5531  0.5020  0.3818
  533MOL0     C71834   8.438   4.690   9.074 -0.6848 -0.4935  0.5673
  533MOL0     C71835   8.577   4.752   9.028 -0.0454  0.4068 -0.2192
  533MOL0     C71836   8.711   4.671   9.061  0.7932  0.3219 -0.0725
  533MOL0     N71837   8.823   4.729   8.990 -1.2173 -0.1227 -0.3357
  533MOL0     C71838   8.870   4.691   8.860 -0.6672 -0.2746 -0.0633
  533MOL0     C71839   8.980   4.762   8.830 -0.4636 -0.5655 -0.0813
  533MOL0     C71840   9.035   4.763   8.695 -0.2772  0.8926  0.6152
  533MOL0     C71841   9.163   4.680   8.708 -0.2322 -0.6226 -0.1076
  533MOL0     C71842   9.132   4.535   8.685  0.4270  0.4506 -1.1008
  533MOL0     C71843   9.252   4.444   8.689  0.4420  0.6687 -0.4100
  533MOL0     O71844   9.218   4.315   8.663 -0.1462  0.7453  0.0546
  533MOL0     C71845   9.283   4.212   8.727 -0.1634 -0.4644 -0.2763
  533MOL0     C71846   9.222   4.090   8.734 -0.8424  0.5511  0.7072
  533MOL0     C71847   9.269   3.975   8.805  0.6421 -0.2408  0.4991
  533MOL0     C71848   9.383   3.985   8.879 -0.5668  0.6293 -1.1081
  533MOL0     C71849   9.440   3.877   8.958 -1.0286  0.4171 -0.6683
  533MOL0     O71850   9.369   3.760   8.945 -0.3197 -0.5728  0.1043
  533MOL0     C71851   9.419   3.644   9.000  0.4268 -0.0887  0.0600
  533MOL0     C71852   9.380   3.585   9.116  0.2644  0.1867  0.5628
  533MOL0     C71853   9.445   3.475   9.166 -0.1771  0.9905  0.9292
  533MOL0     C71854   9.560   3.419   9.107 -0.1265 -0.6061  0.1405
  533MOL0     O71855   9.628   3.313   9.166 -0.3860 -0.1319 -0.2363
  533MOL0     C71856   9.709   3.234   9.077 -0.2142 -0.2472 -0.4022
  533MOL0     C71857   9.735   3.095   9.143  0.5286  0.3796 -0.1928
  533MOL0     C71858   9.598   3.033   9.193 -0.2193 -0.2305 -0.9134
  533MOL0     C71859   9.627   2.898   9.247 -1.1784  0.2043  0.0042
  533MOL0     C71860   9.505   2.843   9.308  0.0181  0.6793  0.1019
  533MOL0     C71861   9.468   2.700   9.279  0.1549 -0.1397  0.3893
  533MOL0     C71862   9.445   2.669   9.129 -0.2483  0.3586 -0.3876
  533MOL0     C71863   9.308   2.587   9.125 -0.3467 -0.6105 -0.5241
  533MOL0    Cl71864   9.288   2.543   8.958  0.0026  0.2225  0.1277
  533MOL0     C71865   9.594   3.470   8.977  0.2355 -0.5202 -0.7660
  533MOL0     C71866   9.530   3.589   8.936  0.0676  0.3782 -0.5783
  533MOL0     O71867   9.538   3.900   9.030  0.5179 -0.2894 -0.0659
  533MOL0     C71868   9.447   4.105   8.870 -0.9663 -0.5443  0.2335
  533MOL0     C71869   9.408   4.219   8.783 -0.3513  0.7529  0.1967
  533MOL0     N71870   8.983   4.873   8.933  1.0720  0.1616  1.0733
  533MOL0     N71871   8.891   4.846   9.021 -0.3969  0.1717  0.0624
  533MOL0     C71872   8.147   4.031   9.634  0.1522 -0.4472 -0.9423
  533MOL0     C71873   8.159   3.953   9.755 -0.0093 -0.0414 -0.1182
  533MOL0     C71874   8.063   3.858  10.207  1.0217  1.1427  0.0149
  533MOL0     C71875   7.969   3.863  10.315  0.3095  1.0295  0.2033
  533MOL0     C71876   7.996   3.795  10.436  0.5636  0.1664 -0.8309
  533MOL0     C71877   8.114   3.726  10.459  0.3497 -0.0826 -0.0328
  533MOL0     O71878   8.131   3.650  10.582  0.3740 -0.1225 -0.2617
  533MOL0     C71879   8.237   3.557  10.603  0.0234 -0.6032  0.3441
  533MOL0     C71880   8.193   3.461  10.708  0.1354  0.0919  0.3189
  533MOL0     C71881   8.105   3.337  10.664 -0.5638  0.3552 -0.6993
  533MOL0     C71882   8.005   3.285  10.773  0.4385  0.7898 -0.3957
  533MOL0     C71883   8.073   3.261  10.904  0.8427 -0.1891  0.5078
  533MOL0     C71884   8.132   3.256  11.009 -0.9188  0.2458 -0.3156
  533MOL0     C71885   8.217   3.726  10.363 -0.2503 -0.0599 -0.0424
  533MOL0     C71886   8.196   3.791  10.236  0.8767  0.7320  0.1527
  533MOL0     C71887   8.320   3.811  10.153  0.6438  0.3185  0.3382
  533MOL0     H71888   8.087   4.192   9.986 -2.9119 -1.0776 -0.8342
  533MOL0     H71889   8.048   4.328   9.767  0.4568  1.2047 -0.3705
  533MOL0     H71890   8.006   4.409   9.560  0.3471  2.9834 -0.7599
  533MOL0     H71891   8.188   4.412   9.593 -0.4999 -0.7237  0.3261
  533MOL0     H71892   8.081   4.547   9.396 -2.3513 -0.8558 -1.5354
  533MOL0     H71893   8.111   4.400   9.307  4.6076 -0.6959 -0.7014
  533MOL0     H71894   8.351   4.401   9.350  1.0769  0.6372  1.8485
  533MOL0     H71895   8.332   4.538   9.450  0.9383 -0.5237 -0.2711
  533MOL0     H71896   8.265   4.512   9.142 -0.0296  0.3999 -0.0636
  533MOL0     H71897   8.230   4.658   9.235  0.8216  0.7749 -3.9163
  533MOL0     H71898   8.470   4.700   9.291  2.1508 -0.2110  0.2570
  533MOL0     H71899   8.503   4.550   9.208  0.9034  0.7969  0.4788
  533MOL0     H71900   8.418   4.600   9.015  4.1194 -1.6426  0.2553
  533MOL0     H71901   8.365   4.769   9.061 -0.5803 -0.5596 -0.5516
  533MOL0     H71902   8.578   4.848   9.079 -1.0541 -0.1966  0.9953
  533MOL0     H71903   8.562   4.771   8.921 -1.9414  1.5605  0.2037
  533MOL0     H71904   8.741   4.673   9.166  0.3809  0.4185  0.0453
  533MOL0     H71905   8.682   4.572   9.025 -1.4936 -0.0605  2.4526
  533MOL0     H71906   8.820   4.625   8.789  0.3648 -1.2186  0.0650
  533MOL0     H71907   8.977   4.720   8.613 -0.0915  2.6674 -0.5080
  533MOL0     H71908   9.050   4.868   8.668  3.0195  1.8193  4.8477
  533MOL0     H71909   9.235   4.697   8.627  1.3957 -2.9392  0.7403
  533MOL0     H71910   9.222   4.680   8.801  1.3803 -0.7700 -1.0938
  533MOL0     H71911   9.075   4.505   8.597  0.4296 -0.1260 -0.9106
  533MOL0     H71912   9.069   4.505   8.770 -0.1198 -1.3567 -2.0983
  533MOL0     H71913   9.296   4.454   8.788 -1.9046  1.0594  0.6491
  533MOL0     H71914   9.328   4.480   8.618  0.2801 -1.1160 -1.5692
  533MOL0     H71915   9.127   4.086   8.681  0.2707 -2.4430 -1.2926
  533MOL0     H71916   9.206   3.887   8.796  0.3393  0.0377 -0.1462
  533MOL0     H71917   9.294   3.628   9.167  2.1560  6.0159 -0.4932
  533MOL0     H71918   9.421   3.429   9.262 -0.2290 -2.3523 -0.5502
  533MOL0     H71919   9.659   3.222   8.980 -1.3099 -1.6012  0.2861
  533MOL0     H71920   9.809   3.278   9.070 -1.1247  2.3355  1.3550
  533MOL0     H71921   9.772   3.018   9.074  2.6445  0.0721  1.1812
  533MOL0     H71922   9.811   3.102   9.222  0.3671 -1.2966  0.1597
  533MOL0     H71923   9.575   3.105   9.272  0.4282 -1.5103  0.4741
  533MOL0     H71924   9.524   3.021   9.113  0.4178 -1.7979 -1.2949
  533MOL0     H71925   9.706   2.898   9.322 -1.4849  0.5403  0.3302
  533MOL0     H71926   9.655   2.833   9.163 -0.2581 -0.2666  0.6577
  533MOL0     H71927   9.421   2.912   9.293 -0.2158  1.3119  3.4894
  533MOL0     H71928   9.518   2.840   9.417  4.6668 -2.0228 -0.2875
  533MOL0     H71929   9.531   2.626   9.329 -2.3273 -0.3061  3.5664
  533MOL0     H71930   9.383   2.686   9.346  0.2191 -0.3120  0.4358
  533MOL0     H71931   9.528   2.622   9.076 -0.4616  0.5066 -0.8628
  533MOL0     H71932   9.431   2.761   9.071 -0.6207 -0.7721 -2.1693
  533MOL0     H71933   9.316   2.502   9.193 -0.4073  1.9857  3.0165
  533MOL0     H71934   9.226   2.644   9.169 -0.3685 -2.2434  1.6992
  533MOL0     H71935   9.688   3.430   8.941  0.9955  1.4051 -1.0905
  533MOL0     H71936   9.558   3.638   8.843 -2.6253  0.3148 -1.5053
  533MOL0     H71937   9.543   4.127   8.916 -1.3734  3.6627 -0.5749
  533MOL0     H71938   9.464   4.311   8.798  3.1418 -1.2813  0.6803
  533MOL0     H71939   8.167   4.000   9.532  0.2947 -0.3401 -0.9461
  533MOL0     H71940   8.190   3.849   9.755 -0.5356 -0.2161 -1.1762
  533MOL0     H71941   7.868   3.900  10.301  0.2567  0.1397 -2.1933
  533MOL0     H71942   7.922   3.771  10.513  3.4990 -1.3622  1.7408
  533MOL0     H71943   8.325   3.614  10.632  1.3033 -2.1351 -0.3433
  533MOL0     H71944   8.268   3.505  10.512  4.0315 -0.4693  1.4214
  533MOL0     H71945   8.142   3.502  10.796  2.4467  1.8464  0.9347
  533MOL0     H71946   8.297   3.439  10.733  1.5152  3.6315 -1.6754
  533MOL0     H71947   8.166   3.257  10.620 -0.4785 -0.2079  0.4072
  533MOL0     H71948   8.045   3.376  10.582  0.4723  1.1564 -1.0955
  533MOL0     H71949   7.930   3.363  10.791  0.3029  0.2412  1.6291
  533MOL0     H71950   7.964   3.193  10.731  1.3745 -0.7369  1.8335
  533MOL0     H71951   8.166   3.263  11.111 -1.8655  0.8648 -0.0367
  533MOL0     H71952   8.310   3.676  10.391  0.2865  0.7048 -0.4453
  533MOL0     H71953   8.405   3.764  10.203 -0.5324 -4.1319 -1.3724
  533MOL0     H71954   8.300   3.753  10.062  1.1938  0.8417 -0.1222
  533MOL0     H71955   8.339   3.917  10.131 -2.5208  0.7525 -0.8220
  534MOL0     O71956   1.520   3.543   4.583 -0.1906 -0.0147  0.0592
  534MOL0     C71957   1.569   3.446   4.524  0.3733 -0.2950 -1.0027
  534MOL0     O71958   1.614   3.338   4.581  0.0328 -0.2995  0.1617
  534MOL0     C71959   1.679   3.340   4.698  0.5667  0.1578 -0.4843
  534MOL0     C71960   1.686   3.215   4.760 -1.2222 -0.2395 -0.3016
  534MOL0     C71961   1.715   3.210   4.897 -0.1608 -0.3843 -0.1004
  534MOL0     C71962   1.743   3.327   4.971 -0.5778  0.5920 -0.3904
  534MOL0     O71963   1.776   3.312   5.106  1.0584 -0.8613 -0.0705
  534MOL0     C71964   1.763   3.423   5.195  0.3947 -0.2317  0.7956
  534MOL0     C71965   1.783   3.358   5.327  0.1135  0.8015 -0.9847
  534MOL0     C71966   1.933   3.315   5.341 -0.0026 -0.3531 -0.0340
  534MOL0     C71967   1.956   3.289   5.493 -0.2252  0.5579 -0.4104
  534MOL0     C71968   2.101   3.277   5.528 -0.8581  0.4621 -0.0300
  534MOL0     C71969   2.131   3.248   5.673  0.2807  0.2832  0.6247
  534MOL0     C71970   2.287   3.250   5.713  1.4761 -0.1809 -0.7838
  534MOL0     C71971   2.325   3.139   5.819 -0.8053 -0.5811 -0.2147
  534MOL0     N71972   2.317   3.001   5.798  0.1245 -0.0715 -0.1925
  534MOL0     C71973   2.320   2.944   5.680  0.6492 -0.4344  0.2755
  534MOL0     C71974   2.299   2.813   5.708  0.4094  0.8716 -0.1813
  534MOL0     C71975   2.285   2.706   5.598  0.4103 -0.3287  0.9800
  534MOL0     C71976   2.141   2.700   5.530 -0.2887 -0.7178  0.0572
  534MOL0     C71977   2.144   2.603   5.412  0.2615  0.3198  0.3363
  534MOL0     C71978   1.999   2.591   5.345 -0.6012 -0.5440  0.3187
  534MOL0     O71979   1.964   2.720   5.280  1.3136  0.5658 -0.5853
  534MOL0     C71980   1.827   2.738   5.243 -1.0576 -0.7307  0.6006
  534MOL0     C71981   1.788   2.861   5.201 -0.0428 -0.5506 -0.3197
  534MOL0     C71982   1.653   2.883   5.151 -0.2892  0.1708 -0.0277
  534MOL0     C71983   1.567   2.770   5.137 -0.2503 -1.4739 -0.1526
  534MOL0     C71984   1.439   2.786   5.065 -0.1411  0.1071  0.0176
  534MOL0     O71985   1.427   2.882   4.977  0.2845 -0.6528 -1.1679
  534MOL0     C71986   1.297   2.913   4.964  0.3821 -0.9126 -0.3186
  534MOL0     C71987   1.208   2.856   4.866 -0.3440  1.3662 -0.8934
  534MOL0     C71988   1.080   2.911   4.846 -0.1579 -0.2942  0.9039
  534MOL0     C71989   1.045   3.026   4.906 -0.8377  0.1206  0.9633
  534MOL0     O71990   0.929   3.089   4.880 -0.4953  0.5582 -0.0977
  534MOL0     C71991   0.861   3.071   4.750  0.4943 -0.1266 -0.4286
  534MOL0     C71992   0.760   3.174   4.733 -0.0956  0.0893 -0.4909
  534MOL0     C71993   0.657   3.172   4.847  0.7710  0.0462  0.1473
  534MOL0     C71994   0.535   3.265   4.833  0.2155 -0.2788  0.5171
  534MOL0     C71995   0.424   3.243   4.948 -0.3837 -0.2039 -0.4395
  534MOL0     C71996   0.352   3.110   4.937 -0.4385 -0.7295 -0.3497
  534MOL0     C71997   0.280   3.076   5.074 -0.0050 -0.2626 -0.8529
  534MOL0     C71998   0.271   2.927   5.118  0.3787  0.2428 -0.6493
  534MOL0    Cl71999   0.141   2.849   5.026  0.2927  0.3367  0.2565
  534MOL0     C72000   1.140   3.092   4.987  0.2651  0.2631 -1.8215
  534MOL0     C72001   1.266   3.031   5.017  0.8499  0.0980 -0.0272
  534MOL0     O72002   1.354   2.701   5.096  0.7394  0.3049  0.3482
  534MOL0     C72003   1.612   2.645   5.177 -0.2200  0.0265 -0.0873
  534MOL0     C72004   1.743   2.628   5.222 -0.0408  0.0912 -0.6129
  534MOL0     N72005   2.297   2.797   5.848 -0.9174  0.0666 -0.7565
  534MOL0     N72006   2.305   2.907   5.895 -0.6109  0.1500 -0.4708
  534MOL0     C72007   1.752   3.446   4.906  0.1010  0.0133  0.0802
  534MOL0     C72008   1.726   3.455   4.769  0.7916  0.1722 -0.9142
  534MOL0     C72009   1.547   3.444   4.381 -0.5976  0.3049 -0.0711
  534MOL0     C72010   1.539   3.314   4.319 -0.3553  0.3929 -1.0000
  534MOL0     C72011   1.539   3.295   4.181  0.3989  0.4542 -0.2985
  534MOL0     C72012   1.535   3.404   4.099  0.8668  0.8439 -0.2436
  534MOL0     O72013   1.515   3.379   3.962  0.0839 -1.0087 -0.4894
  534MOL0     C72014   1.377   3.333   3.929 -1.3219 -0.1726 -0.0582
  534MOL0     C72015   1.381   3.240   3.804  0.5656  0.0417 -0.8233
  534MOL0     C72016   1.269   3.131   3.803 -0.3567 -0.3712  1.4277
  534MOL0     C72017   1.138   3.190   3.842  0.2614 -0.7556  0.6298
  534MOL0     C72018   1.037   3.086   3.848 -0.0526  0.4813 -0.0148
  534MOL0     C72019   0.966   2.984   3.845  0.3220 -0.1132  0.7664
  534MOL0     C72020   1.540   3.534   4.152 -0.4445 -0.0010  1.1844
  534MOL0     C72021   1.544   3.560   4.296 -0.9040 -0.2384 -0.3278
  534MOL0     C72022   1.560   3.701   4.343 -0.1727 -0.1318 -0.8233
  534MOL0     H72023   1.666   3.119   4.714  0.6734 -1.6727  1.6518
  534MOL0     H72024   1.717   3.112   4.943 -1.8050  0.5164  2.1140
  534MOL0     H72025   1.829   3.509   5.182  0.6951  0.0492  3.6156
  534MOL0     H72026   1.662   3.464   5.190  0.9456  1.0268 -1.8206
  534MOL0     H72027   1.723   3.269   5.344  0.9271  0.9208  3.6181
  534MOL0     H72028   1.764   3.441   5.396  2.6635 -0.1638  1.0516
  534MOL0     H72029   1.989   3.406   5.314 -0.7214 -0.0574 -0.5471
  534MOL0     H72030   1.960   3.228   5.281 -2.9151  0.7095 -3.2027
  534MOL0     H72031   1.917   3.374   5.551 -0.8596 -0.2983  0.4584
  534MOL0     H72032   1.899   3.200   5.522  2.9254 -2.2515 -2.1971
  534MOL0     H72033   2.147   3.195   5.471 -0.0777  0.3594  0.7253
  534MOL0     H72034   2.152   3.366   5.491  1.2491 -0.0810  1.3907
  534MOL0     H72035   2.084   3.326   5.733  3.4671  0.9519  2.4352
  534MOL0     H72036   2.094   3.147   5.695  1.6456 -0.5079 -0.5593
  534MOL0     H72037   2.307   3.349   5.754 -1.8052 -0.8559  3.1824
  534MOL0     H72038   2.337   3.244   5.616 -0.9328 -1.0859 -2.0704
  534MOL0     H72039   2.428   3.155   5.851  1.0944 -4.4123 -3.5600
  534MOL0     H72040   2.265   3.172   5.905 -1.3876 -0.5109 -0.6377
  534MOL0     H72041   2.326   3.001   5.588 -1.8228 -0.1802  0.1800
  534MOL0     H72042   2.353   2.736   5.517 -2.4321  1.2296 -1.0187
  534MOL0     H72043   2.318   2.614   5.647 -2.6445 -0.8928  2.1837
  534MOL0     H72044   2.069   2.674   5.608 -2.8224  3.1722 -0.7100
  534MOL0     H72045   2.116   2.802   5.501 -0.5664 -1.1494 -1.2980
  534MOL0     H72046   2.180   2.507   5.449 -1.6999 -0.6823 -0.2622
  534MOL0     H72047   2.209   2.643   5.333 -1.8191 -0.3835 -1.8395
  534MOL0     H72048   1.924   2.556   5.418 -0.0083  1.9327  2.2405
  534MOL0     H72049   1.996   2.513   5.268 -0.0616 -0.9040  0.6489
  534MOL0     H72050   1.855   2.947   5.204 -1.8130  0.9736  4.4215
  534MOL0     H72051   1.624   2.979   5.111  0.3502 -0.3805 -1.8864
  534MOL0     H72052   1.233   2.759   4.824 -4.3406  0.8240 -2.4875
  534MOL0     H72053   1.000   2.868   4.786 -1.4768  2.5756  0.4527
  534MOL0     H72054   0.935   3.066   4.670  0.1276 -3.1582 -0.6845
  534MOL0     H72055   0.803   2.979   4.758 -0.2721  0.4508  1.3342
  534MOL0     H72056   0.812   3.270   4.723  1.9426 -1.1450 -2.4282
  534MOL0     H72057   0.709   3.158   4.638  1.5667 -3.7852 -0.9312
  534MOL0     H72058   0.610   3.074   4.841 -1.5799  1.1475 -1.0890
  534MOL0     H72059   0.710   3.178   4.943  0.9153 -0.6305  0.1140
  534MOL0     H72060   0.484   3.252   4.737  0.7513 -0.1273  0.2050
  534MOL0     H72061   0.578   3.365   4.818 -0.5975 -0.2219 -1.8261
  534MOL0     H72062   0.353   3.323   4.926  3.8603  3.7704 -1.1832
  534MOL0     H72063   0.460   3.269   5.048 -1.3474  3.1432 -0.8436
  534MOL0     H72064   0.273   3.106   4.861 -0.5154  0.0169 -0.3164
  534MOL0     H72065   0.423   3.032   4.908 -1.1083 -0.7310 -2.1658
  534MOL0     H72066   0.182   3.123   5.062  0.6570  1.0396 -1.3357
  534MOL0     H72067   0.340   3.124   5.152 -2.3249 -1.4119  1.8143
  534MOL0     H72068   0.369   2.883   5.096 -0.6900 -1.1048 -3.1239
  534MOL0     H72069   0.244   2.914   5.223 -2.4199 -2.7714 -1.5746
  534MOL0     H72070   1.109   3.184   5.036 -1.9035 -0.7084 -1.2138
  534MOL0     H72071   1.330   3.066   5.097  2.7663  2.7368 -2.4918
  534MOL0     H72072   1.535   2.569   5.172 -1.0485  0.6744  1.8503
  534MOL0     H72073   1.758   2.527   5.258  0.8543  1.2630  2.7065
  534MOL0     H72074   1.758   3.550   4.939 -3.1239 -0.2990  2.0328
  534MOL0     H72075   1.724   3.556   4.730  0.7940  1.3834  1.9307
  534MOL0     H72076   1.544   3.224   4.379  1.1673 -0.3047 -2.1008
  534MOL0     H72077   1.547   3.190   4.158 -0.7943  0.1501  0.6139
  534MOL0     H72078   1.309   3.412   3.896 -3.6989 -1.4606  1.4385
  534MOL0     H72079   1.336   3.289   4.020  1.3765  0.7691  1.7180
  534MOL0     H72080   1.480   3.195   3.795  1.4085  1.2302  1.5989
  534MOL0     H72081   1.361   3.309   3.721 -3.0492  1.9190  1.3487
  534MOL0     H72082   1.295   3.055   3.877  0.1016 -0.8359  0.8011
  534MOL0     H72083   1.253   3.073   3.711 -1.9035 -3.1854  3.3096
  534MOL0     H72084   1.132   3.232   3.943 -1.0993 -1.3316  0.8027
  534MOL0     H72085   1.119   3.269   3.769  0.1315 -2.8896 -1.7821
  534MOL0     H72086   0.925   2.885   3.837  2.8976 -1.2211  0.2365
  534MOL0     H72087   1.562   3.618   4.086  0.6798 -1.4488 -0.3912
  534MOL0     H72088   1.492   3.721   4.426 -0.7919  1.8381 -1.7372
  534MOL0     H72089   1.664   3.700   4.377 -0.8807 -1.0286  1.4610
  534MOL0     H72090   1.541   3.790   4.282 -0.3297  1.8138  1.8888
  535MOL0     O72091   9.932   9.082  10.673  0.0991 -0.4108  0.2320
  535MOL0     C72092   9.933   9.090  10.798  0.5787  0.6358  0.2157
  535MOL0     O72093  10.049   9.076  10.871 -0.2722 -0.3585 -0.5029
  535MOL0     C72094  10.165   9.047  10.806  0.7076 -0.4029  0.3960
  535MOL0     C72095  10.192   8.910  10.777  0.3146  0.2044  0.0111
  535MOL0     C72096  10.298   8.864  10.710 -1.2167 -0.1733  0.4023
  535MOL0     C72097  10.393   8.963  10.672  0.2674 -0.8141 -0.1386
  535MOL0     O72098  10.512   8.916  10.620 -0.6051 -0.5963  0.7578
  535MOL0     C72099  10.630   9.000  10.625 -0.3758 -0.1178  0.6519
  535MOL0     C72100  10.747   8.950  10.542  0.5180  0.7351 -1.6250
  535MOL0     C72101  10.883   9.010  10.582 -0.2389  0.4953  0.1015
  535MOL0     C72102  10.948   8.938  10.710  0.1740 -0.8265 -0.2428
  535MOL0     C72103  11.047   8.816  10.666 -0.0285 -0.4794  0.7830
  535MOL0     C72104  11.183   8.884  10.622 -0.7935  0.2147 -0.2035
  535MOL0     C72105  11.290   8.788  10.566 -0.4616  1.1895 -0.6235
  535MOL0     C72106  11.348   8.689  10.673 -0.2145 -0.7397  0.0239
  535MOL0     N72107  11.457   8.607  10.613  0.1005  0.1917  0.1891
  535MOL0     C72108  11.430   8.505  10.524  0.0310 -1.0696  0.3498
  535MOL0     C72109  11.549   8.443  10.518 -0.0508 -0.5401  0.3596
  535MOL0     C72110  11.574   8.320  10.437 -0.3500  0.5360 -1.0403
  535MOL0     C72111  11.473   8.207  10.488 -0.0222  0.3482  0.4317
  535MOL0     C72112  11.479   8.079  10.406  0.2309  0.0241 -0.0143
  535MOL0     C72113  11.351   7.997  10.428  0.4539  0.2189  0.2796
  535MOL0     O72114  11.326   7.982  10.571  0.1804  0.2248  0.8436
  535MOL0     C72115  11.357   7.872  10.639 -0.8612 -0.3285  0.1709
  535MOL0     C72116  11.492   7.846  10.675  0.8489  0.9034 -0.2818
  535MOL0     C72117  11.524   7.734  10.744  0.0679 -0.0730  0.4973
  535MOL0     C72118  11.425   7.634  10.777 -0.1895  0.3828 -0.2625
  535MOL0     C72119  11.456   7.498  10.841 -0.2366 -0.9608 -0.1492
  535MOL0     O72120  11.567   7.479  10.918 -0.0413 -0.2443 -0.2509
  535MOL0     C72121  11.614   7.351  10.950  0.3886  0.6835  0.3790
  535MOL0     C72122  11.720   7.348  11.041 -0.4910  0.8204  0.1383
  535MOL0     C72123  11.789   7.235  11.082  0.2089  0.2266  0.6138
  535MOL0     C72124  11.766   7.119  11.007 -0.1903 -0.2853 -0.0832
  535MOL0     O72125  11.846   7.009  11.044  0.0513  0.0161  0.0122
  535MOL0     C72126  11.825   6.885  10.974 -0.0817 -0.9011  0.2630
  535MOL0     C72127  11.904   6.769  11.024 -0.9163  0.2884  0.0652
  535MOL0     C72128  11.868   6.742  11.168 -0.0770 -0.0785  0.3394
  535MOL0     C72129  11.919   6.614  11.226 -0.3391  0.6415 -0.1851
  535MOL0     C72130  12.074   6.625  11.266 -0.2637  0.3083  0.8654
  535MOL0     C72131  12.111   6.746  11.367  0.3806 -0.4276  0.1089
  535MOL0     C72132  12.035   6.750  11.504 -0.8867  0.3540  0.9402
  535MOL0     C72133  12.086   6.675  11.628 -0.2326  0.9531  1.0066
  535MOL0    Cl72134  12.128   6.504  11.589 -0.6037 -0.1390  0.4931
  535MOL0     C72135  11.670   7.118  10.901  0.3345  0.1346  0.2560
  535MOL0     C72136  11.597   7.233  10.875  0.5564  0.0845 -0.3134
  535MOL0     O72137  11.385   7.409  10.808  0.9315  0.5185  0.6679
  535MOL0     C72138  11.294   7.657  10.739 -0.0311 -0.2997  0.4222
  535MOL0     C72139  11.262   7.771  10.667  0.5924 -0.2776  0.5199
  535MOL0     N72140  11.639   8.497  10.592  0.9060 -0.7816 -0.2929
  535MOL0     N72141  11.588   8.596  10.653  0.0777 -0.0138 -0.0182
  535MOL0     C72142  10.368   9.098  10.688  0.1651 -0.6145 -0.0318
  535MOL0     C72143  10.259   9.139  10.762  0.6276 -0.4996  0.4928
  535MOL0     C72144   9.803   9.122  10.873 -0.4627 -0.5696 -0.4857
  535MOL0     C72145   9.816   9.133  11.011 -0.6963  0.1715  0.6542
  535MOL0     C72146   9.702   9.120  11.100 -2.0264  1.0478  0.2318
  535MOL0     C72147   9.576   9.114  11.049  0.3616  0.0855  0.1527
  535MOL0     O72148   9.476   9.091  11.140  0.6416  0.4746  0.2336
  535MOL0     C72149   9.345   9.065  11.083  0.1040 -0.5619  0.2916
  535MOL0     C72150   9.235   9.010  11.183  1.0873 -0.0421  0.1953
  535MOL0     C72151   9.193   9.102  11.300 -0.1689 -0.1744 -0.9787
  535MOL0     C72152   9.118   9.025  11.410 -0.1040 -0.3941 -0.1596
  535MOL0     C72153   9.070   9.110  11.530 -0.3084 -0.0622  0.3865
  535MOL0     C72154   9.031   9.160  11.635 -0.2181  0.3208 -0.7893
  535MOL0     C72155   9.553   9.150  10.912  0.5349 -0.5862  1.3740
  535MOL0     C72156   9.666   9.143  10.821  0.1035 -0.4829 -0.3287
  535MOL0     C72157   9.642   9.136  10.676  0.2431 -0.2997  0.2774
  535MOL0     H72158  10.109   8.847  10.809  0.5211  0.5488  1.2669
  535MOL0     H72159  10.325   8.760  10.696  0.6252  0.0735  1.8690
  535MOL0     H72160  10.620   9.099  10.579 -0.1871 -1.1242 -1.7129
  535MOL0     H72161  10.653   9.016  10.730  0.1028 -1.7089  0.8102
  535MOL0     H72162  10.733   8.974  10.437 -1.0617 -0.6673 -1.7653
  535MOL0     H72163  10.743   8.841  10.552 -0.1646  0.9043  0.5246
  535MOL0     H72164  10.861   9.114  10.605 -2.4161  0.4719 -1.5288
  535MOL0     H72165  10.946   9.013  10.492  1.1553 -1.8020  0.8983
  535MOL0     H72166  10.991   9.010  10.781  0.9406  1.1517 -2.5548
  535MOL0     H72167  10.862   8.900  10.766  0.2101  0.7946  0.9917
  535MOL0     H72168  11.071   8.753  10.753  0.0983  1.5211  2.2598
  535MOL0     H72169  10.998   8.755  10.590  1.1888 -1.9721  1.1397
  535MOL0     H72170  11.163   8.963  10.549 -1.7902 -0.9590 -1.2613
  535MOL0     H72171  11.230   8.932  10.708 -1.7263  0.5644  0.1249
  535MOL0     H72172  11.372   8.847  10.525  0.5556  0.4664  0.3200
  535MOL0     H72173  11.246   8.738  10.479 -3.3718 -0.7435  1.7306
  535MOL0     H72174  11.400   8.745  10.751 -0.2984  0.0382 -0.4723
  535MOL0     H72175  11.271   8.622  10.711 -2.2475  1.2636 -0.3653
  535MOL0     H72176  11.341   8.464  10.478  0.5431 -4.1817  1.8539
  535MOL0     H72177  11.563   8.331  10.329  0.8504  1.8089 -1.0558
  535MOL0     H72178  11.677   8.287  10.455 -0.7108  0.9628  2.6354
  535MOL0     H72179  11.480   8.186  10.595 -0.3567  0.0431  0.3970
  535MOL0     H72180  11.370   8.235  10.462 -1.3533 -2.5331  2.1133
  535MOL0     H72181  11.568   8.022  10.435 -0.2432 -0.7412 -0.0627
  535MOL0     H72182  11.495   8.101  10.300  1.3095  2.6401  0.5846
  535MOL0     H72183  11.345   7.904  10.370 -3.7735  0.7924 -0.5313
  535MOL0     H72184  11.258   8.045  10.398  0.4518  2.5119  3.4650
  535MOL0     H72185  11.570   7.919  10.659  2.0056  0.5185  2.8165
  535MOL0     H72186  11.625   7.718  10.780 -0.1066 -1.2227  0.5160
  535MOL0     H72187  11.756   7.440  11.086  3.5770 -0.4890 -0.0553
  535MOL0     H72188  11.865   7.235  11.160 -1.0483 -1.1801  1.9159
  535MOL0     H72189  11.719   6.868  10.998  0.0311 -2.1445 -0.0866
  535MOL0     H72190  11.845   6.904  10.868  0.1415  2.1443  0.7576
  535MOL0     H72191  11.892   6.678  10.965  2.0851 -0.8875  1.0181
  535MOL0     H72192  12.013   6.783  11.023 -0.4493 -2.4348  1.6350
  535MOL0     H72193  11.894   6.829  11.228  0.3978 -0.1410  0.2279
  535MOL0     H72194  11.759   6.739  11.161 -0.1129  0.0820  0.8175
  535MOL0     H72195  11.915   6.538  11.147 -1.3314 -1.6036  1.9175
  535MOL0     H72196  11.845   6.585  11.301  0.7589  3.4269  2.1314
  535MOL0     H72197  12.137   6.642  11.179 -1.7950  1.7552 -0.0318
  535MOL0     H72198  12.112   6.538  11.320 -0.7367  2.3732  5.0039
  535MOL0     H72199  12.219   6.740  11.377  0.4474  1.1635  0.6301
  535MOL0     H72200  12.092   6.844  11.321  0.4614 -0.0957  0.7745
  535MOL0     H72201  11.934   6.709  11.496 -0.6317 -0.0678 -0.2778
  535MOL0     H72202  12.026   6.854  11.537 -0.1113  0.9987 -0.7833
  535MOL0     H72203  12.179   6.725  11.659  1.9302  0.2860 -3.6389
  535MOL0     H72204  12.021   6.680  11.716  0.9032 -0.6468  2.0206
  535MOL0     H72205  11.659   7.036  10.831 -1.2456 -0.5734  1.2771
  535MOL0     H72206  11.525   7.237  10.794 -2.5413 -2.8735  1.9994
  535MOL0     H72207  11.215   7.583  10.748 -0.6451  0.1128 -1.1778
  535MOL0     H72208  11.160   7.790  10.634  1.1465  0.5670 -0.7765
  535MOL0     H72209  10.445   9.167  10.656  1.2295 -2.1015 -0.7768
  535MOL0     H72210  10.244   9.243  10.789  0.3827 -0.3875 -0.0553
  535MOL0     H72211   9.915   9.117  11.052 -0.5767 -1.1963 -0.0823
  535MOL0     H72212   9.714   9.108  11.207 -1.4221 -1.1988 -0.0429
  535MOL0     H72213   9.352   8.998  10.997  2.3366 -0.3023  0.2180
  535MOL0     H72214   9.309   9.159  11.041  1.8649 -0.2588 -0.6406
  535MOL0     H72215   9.272   8.919  11.230  2.0815  1.2496  2.0443
  535MOL0     H72216   9.139   8.991  11.135  0.5122 -1.3320  1.7754
  535MOL0     H72217   9.132   9.188  11.271  1.5871  2.5188  2.4858
  535MOL0     H72218   9.281   9.138  11.353 -1.1613 -1.5025  1.8017
  535MOL0     H72219   9.038   8.969  11.361  0.8853  0.1669 -2.5436
  535MOL0     H72220   9.183   8.940  11.434 -0.7884 -1.0082 -0.4400
  535MOL0     H72221   9.001   9.211  11.725 -0.9227  0.6296 -1.1905
  535MOL0     H72222   9.457   9.154  10.860  0.3826 -2.0684  1.4959
  535MOL0     H72223   9.708   9.210  10.629  1.1028 -0.6140  0.9674
  535MOL0     H72224   9.657   9.038  10.630 -0.0893 -0.8917  1.3850
  535MOL0     H72225   9.540   9.162  10.646  1.0364  1.9840 -0.6557
  536MOL0     O72226   3.605   3.307  10.160 -0.5714  0.2161  0.2577
  536MOL0     C72227   3.514   3.388  10.141  0.4739 -0.5530 -0.6395
  536MOL0     O72228   3.402   3.373  10.068 -0.2581  0.3659 -0.0551
  536MOL0     C72229   3.372   3.254  10.011  0.6634  0.7026 -0.5595
  536MOL0     C72230   3.289   3.255   9.897 -0.3779  0.4048  0.1032
  536MOL0     C72231   3.246   3.137   9.840 -0.0401 -0.1710 -0.5157
  536MOL0     C72232   3.287   3.005   9.889  0.5194 -0.6928  0.7786
  536MOL0     O72233   3.261   2.883   9.826  0.3355 -0.6032  0.3132
  536MOL0     C72234   3.232   2.881   9.690  0.7273 -1.0789  0.3336
  536MOL0     C72235   3.347   2.923   9.600 -0.9418 -0.5725 -0.6734
  536MOL0     C72236   3.326   2.895   9.453  0.4850 -0.0511  0.0850
  536MOL0     C72237   3.449   2.921   9.357  0.9883 -0.9847  0.1110
  536MOL0     C72238   3.424   2.940   9.206 -0.8286  0.1491 -0.1083
  536MOL0     C72239   3.538   2.989   9.123  0.1542 -0.6541  0.2314
  536MOL0     C72240   3.682   2.926   9.141  0.8976  0.3046  0.1420
  536MOL0     C72241   3.690   2.777   9.127  0.6202 -0.6317  0.1799
  536MOL0     N72242   3.824   2.729   9.161 -1.4006  0.3298 -0.1553
  536MOL0     C72243   3.945   2.797   9.158 -0.6868  0.1730 -0.4480
  536MOL0     C72244   4.032   2.727   9.240  0.2673 -0.0332 -0.5708
  536MOL0     C72245   4.165   2.769   9.268 -0.2603  0.3596  0.8517
  536MOL0     C72246   4.266   2.662   9.317  0.4297 -0.0401  0.3368
  536MOL0     C72247   4.399   2.719   9.365 -1.0156  0.6823  0.1901
  536MOL0     C72248   4.486   2.609   9.439  0.0706 -0.4760 -0.0818
  536MOL0     O72249   4.514   2.516   9.330  0.5869 -0.1445 -1.2415
  536MOL0     C72250   4.584   2.397   9.351  0.2447 -0.8710  0.2925
  536MOL0     C72251   4.634   2.355   9.480  0.2787 -0.8685 -0.7099
  536MOL0     C72252   4.725   2.246   9.490  0.0593  0.0034 -0.6915
  536MOL0     C72253   4.760   2.171   9.385  0.5366 -0.7481  0.3401
  536MOL0     C72254   4.847   2.052   9.409  0.5460 -0.0747  0.1080
  536MOL0     O72255   4.902   1.984   9.304  0.0847  0.0200 -0.0850
  536MOL0     C72256   4.943   1.852   9.323 -0.1652 -0.7092  0.4136
  536MOL0     C72257   4.860   1.757   9.393 -0.2356  0.3681  0.2052
  536MOL0     C72258   4.892   1.628   9.409  0.0390  1.2815 -0.0355
  536MOL0     C72259   5.013   1.570   9.355  1.1340 -0.3182  0.3050
  536MOL0     O72260   5.046   1.443   9.392 -0.2918 -0.0142  0.1941
  536MOL0     C72261   5.161   1.368   9.348  0.1610  0.8622 -0.2611
  536MOL0     C72262   5.123   1.248   9.243 -0.8525 -0.4700  0.7095
  536MOL0     C72263   5.107   1.311   9.104  0.1210 -0.1737 -0.0288
  536MOL0     C72264   5.006   1.238   9.027  0.2721 -0.4742 -0.6334
  536MOL0     C72265   5.046   1.096   8.998 -1.0763 -0.0498  0.1096
  536MOL0     C72266   4.947   1.034   8.896 -0.2928 -0.5401  0.4687
  536MOL0     C72267   4.820   0.992   8.959 -0.8561  0.0427 -0.1558
  536MOL0     C72268   4.744   0.903   8.860 -0.2592 -1.2362 -0.0269
  536MOL0    Cl72269   4.641   1.006   8.741 -0.0025  0.2540  0.4324
  536MOL0     C72270   5.091   1.659   9.275 -0.6104 -0.1111 -0.5537
  536MOL0     C72271   5.059   1.798   9.259  0.6579 -0.4133  0.6709
  536MOL0     O72272   4.865   2.030   9.525  0.0719  0.0101 -0.7394
  536MOL0     C72273   4.705   2.213   9.255 -0.3811 -0.1706 -0.0012
  536MOL0     C72274   4.626   2.331   9.242 -0.0375 -0.4628  0.2128
  536MOL0     N72275   3.972   2.617   9.284  0.9071  0.7429  0.5292
  536MOL0     N72276   3.848   2.621   9.237 -0.0510 -0.4378  0.1746
  536MOL0     C72277   3.354   3.010  10.012  0.5828 -0.5852 -0.3132
  536MOL0     C72278   3.393   3.127  10.064 -0.5962 -0.6877  0.3648
  536MOL0     C72279   3.523   3.514  10.210  1.0948  0.0594 -0.2028
  536MOL0     C72280   3.536   3.632  10.136 -0.7866 -0.2473 -0.6056
  536MOL0     C72281   3.572   3.755  10.201  0.5143  0.3264  1.3198
  536MOL0     C72282   3.573   3.765  10.336 -0.0653 -0.0630  1.0942
  536MOL0     O72283   3.606   3.883  10.381  0.1901  0.0105 -0.2037
  536MOL0     C72284   3.636   3.905  10.523 -0.3623  0.1343  0.0434
  536MOL0     C72285   3.787   3.913  10.554  0.4020  0.3736  0.1748
  536MOL0     C72286   3.856   4.015  10.457  0.2278 -0.1805 -0.1193
  536MOL0     C72287   3.997   4.050  10.502 -0.1287 -0.5789  0.4399
  536MOL0     C72288   4.058   4.150  10.411  0.8583 -0.3949 -0.1979
  536MOL0     C72289   4.101   4.236  10.339 -0.2756  0.1968 -0.5773
  536MOL0     C72290   3.553   3.647  10.409  0.0448  1.0876 -1.5060
  536MOL0     C72291   3.533   3.523  10.354  0.0076  1.1163  0.9620
  536MOL0     C72292   3.516   3.408  10.444  0.5757  0.1165 -0.4388
  536MOL0     H72293   3.265   3.350   9.851  0.1932 -1.0083 -3.4369
  536MOL0     H72294   3.196   3.150   9.745 -1.0851  1.8615  0.2599
  536MOL0     H72295   3.194   2.784   9.657  1.5491 -0.2870 -3.3470
  536MOL0     H72296   3.142   2.943   9.687  0.7333 -1.0856 -1.7964
  536MOL0     H72297   3.430   2.868   9.646 -2.8620 -2.1255  1.1571
  536MOL0     H72298   3.365   3.030   9.608 -2.7062 -0.2959 -0.0364
  536MOL0     H72299   3.236   2.945   9.415  0.4869 -0.1483 -0.0457
  536MOL0     H72300   3.304   2.789   9.441 -2.4798  0.0145  3.2403
  536MOL0     H72301   3.499   3.014   9.388 -3.0831  1.9276 -1.1822
  536MOL0     H72302   3.525   2.844   9.370  1.5765 -0.1306  2.0827
  536MOL0     H72303   3.386   2.845   9.170  0.8581 -0.5618 -0.1163
  536MOL0     H72304   3.344   3.013   9.193 -1.0069  0.2788  1.4958
  536MOL0     H72305   3.523   2.968   9.017 -2.7068 -2.3551  0.8756
  536MOL0     H72306   3.553   3.094   9.149  1.4813 -1.4846  3.3214
  536MOL0     H72307   3.699   2.953   9.246  0.7164 -0.0064  0.2533
  536MOL0     H72308   3.762   2.977   9.087  1.8481 -1.3447 -0.1038
  536MOL0     H72309   3.616   2.727   9.190  0.8199 -1.6174 -0.3485
  536MOL0     H72310   3.654   2.751   9.027 -0.8454  1.6691  0.0488
  536MOL0     H72311   3.958   2.893   9.109 -0.6265 -0.0065 -0.7876
  536MOL0     H72312   4.210   2.804   9.174 -0.6693  0.7481  0.7974
  536MOL0     H72313   4.156   2.850   9.341  0.2252  0.7879  0.4393
  536MOL0     H72314   4.221   2.617   9.406  0.9484  2.3961  1.9237
  536MOL0     H72315   4.285   2.585   9.241  0.5289  0.6072 -0.3110
  536MOL0     H72316   4.371   2.792   9.441 -0.8657 -1.2338  2.1889
  536MOL0     H72317   4.454   2.762   9.281 -1.0431  1.9758  0.8188
  536MOL0     H72318   4.420   2.572   9.518 -0.2283 -0.3173 -0.2581
  536MOL0     H72319   4.587   2.640   9.469  1.0472 -2.5315 -0.9840
  536MOL0     H72320   4.594   2.411   9.563  0.4385 -0.3723 -0.9666
  536MOL0     H72321   4.759   2.229   9.591  1.9253  3.4708 -0.5960
  536MOL0     H72322   4.765   1.790   9.434 -1.9299 -0.6022 -2.5959
  536MOL0     H72323   4.830   1.557   9.463  1.1557 -1.3516 -1.9780
  536MOL0     H72324   5.237   1.424   9.293 -0.4999  0.5660 -1.5383
  536MOL0     H72325   5.215   1.327   9.433  0.9257 -0.5021 -1.3652
  536MOL0     H72326   5.213   1.186   9.239 -0.5055 -0.0673  1.8912
  536MOL0     H72327   5.034   1.190   9.267 -2.5920  2.9744  3.4293
  536MOL0     H72328   5.069   1.413   9.105 -2.1965 -0.8790 -2.8625
  536MOL0     H72329   5.202   1.296   9.053 -0.3351 -3.4857 -0.1462
  536MOL0     H72330   4.983   1.291   8.934 -1.3393 -0.3837 -0.2189
  536MOL0     H72331   4.913   1.231   9.084  0.6220  0.1647  0.0354
  536MOL0     H72332   5.045   1.038   9.091 -0.6904 -1.9988 -1.0491
  536MOL0     H72333   5.143   1.097   8.947 -2.4246 -0.1905 -2.6149
  536MOL0     H72334   4.931   1.097   8.808  1.3934 -1.7962 -0.8009
  536MOL0     H72335   4.994   0.940   8.865 -3.7973 -2.4591  0.3681
  536MOL0     H72336   4.763   1.073   9.006  2.1553  2.6609 -0.6597
  536MOL0     H72337   4.858   0.930   9.040  1.2744  0.3765 -0.8453
  536MOL0     H72338   4.812   0.832   8.810  1.8892  2.2131 -2.4229
  536MOL0     H72339   4.679   0.841   8.923 -0.8090 -1.3903 -0.7373
  536MOL0     H72340   5.180   1.613   9.234  1.6875  1.6101  2.0869
  536MOL0     H72341   5.112   1.871   9.197 -0.4364  0.2569  0.4888
  536MOL0     H72342   4.721   2.161   9.161  0.6827  0.6474 -0.2935
  536MOL0     H72343   4.593   2.374   9.147  2.2777  1.6569  0.2474
  536MOL0     H72344   3.371   2.922  10.074 -1.3218 -1.1324 -0.4987
  536MOL0     H72345   3.451   3.120  10.155  2.1808  2.2266 -0.9997
  536MOL0     H72346   3.536   3.620  10.028 -1.7308 -2.0008 -0.4615
  536MOL0     H72347   3.581   3.840  10.135 -0.2356  0.4551  1.3679
  536MOL0     H72348   3.586   3.834  10.589 -0.2598  1.0022  1.1043
  536MOL0     H72349   3.595   3.997  10.567  0.0496 -0.3670  1.5242
  536MOL0     H72350   3.838   3.817  10.546  0.1057  0.3026 -1.1122
  536MOL0     H72351   3.788   3.954  10.655 -2.8906  1.6673 -0.1806
  536MOL0     H72352   3.806   4.112  10.465  2.3869  1.1713 -2.0357
  536MOL0     H72353   3.846   3.968  10.359 -0.1836 -2.7330  1.0472
  536MOL0     H72354   3.993   4.098  10.600 -1.6818 -0.9072  0.5637
  536MOL0     H72355   4.063   3.963  10.507 -1.3764 -1.5639  0.1016
  536MOL0     H72356   4.104   4.319  10.271 -3.5967  1.2379  0.3374
  536MOL0     H72357   3.544   3.655  10.517 -0.8171 -0.5864 -1.4308
  536MOL0     H72358   3.612   3.355  10.453  1.5002  1.9500  1.0938
  536MOL0     H72359   3.483   3.447  10.540  1.0144  0.4712 -0.4259
  536MOL0     H72360   3.450   3.326  10.416  3.4937 -1.7879 -2.3448
  537MOL0     O72361   1.858   9.741   7.678 -0.1656 -0.7245 -0.2367
  537MOL0     C72362   1.810   9.770   7.784 -0.0419 -0.0057  0.5180
  537MOL0     O72363   1.773   9.903   7.816  0.1713  0.2180  0.1798
  537MOL0     C72364   1.734   9.994   7.713  0.4620  0.5924  0.6221
  537MOL0     C72365   1.713   9.960   7.576  0.1192  0.2239  0.2768
  537MOL0     C72366   1.667  10.055   7.480 -0.4110  0.7654  0.0512
  537MOL0     C72367   1.632  10.184   7.532 -0.5042  0.0251  0.9521
  537MOL0     O72368   1.597  10.298   7.465  0.7013 -0.8856  0.2154
  537MOL0     C72369   1.605  10.289   7.319 -0.0468  0.6194  0.1703
  537MOL0     C72370   1.553  10.417   7.273  0.5622 -0.0377  0.4970
  537MOL0     C72371   1.553  10.441   7.123  1.0089  0.6721 -0.1531
  537MOL0     C72372   1.440  10.361   7.052 -0.6792 -0.1390  0.9489
  537MOL0     C72373   1.414  10.422   6.914  0.8041  0.3458 -0.3850
  537MOL0     C72374   1.304  10.344   6.847 -0.4726 -0.2646  0.3467
  537MOL0     C72375   1.327  10.195   6.818 -0.2190 -0.4099 -0.1529
  537MOL0     C72376   1.201  10.111   6.774  0.6188  0.1105 -0.0625
  537MOL0     N72377   1.137  10.151   6.643 -0.0909  0.1056  1.4805
  537MOL0     C72378   1.165  10.114   6.515 -0.2029 -0.3795 -0.3679
  537MOL0     C72379   1.066  10.164   6.432 -0.5867 -0.9728 -0.9798
  537MOL0     C72380   1.073  10.140   6.285 -0.0536 -0.5430  0.1638
  537MOL0     C72381   1.001  10.256   6.202  0.9637 -0.4712 -0.1502
  537MOL0     C72382   1.007  10.239   6.048 -0.7615 -0.3886 -0.0479
  537MOL0     C72383   1.151  10.249   5.999  0.4473 -0.1443 -0.1438
  537MOL0     O72384   1.155  10.236   5.855  0.1693 -0.3811  0.1242
  537MOL0     C72385   1.149  10.352   5.772 -0.8357 -0.1823 -0.4950
  537MOL0     C72386   1.094  10.478   5.807 -0.4129 -0.0169 -0.0820
  537MOL0     C72387   1.090  10.581   5.719  0.9715  0.6735  0.0322
  537MOL0     C72388   1.127  10.561   5.582  0.8865 -0.6844 -0.0883
  537MOL0     C72389   1.102  10.673   5.483  0.6699  1.8703  0.6289
  537MOL0     O72390   1.121  10.643   5.344 -0.0637 -0.5103 -0.4072
  537MOL0     C72391   1.093  10.758   5.276 -0.5546 -0.1163 -0.0642
  537MOL0     C72392   1.187  10.868   5.282  0.5822 -0.0689  0.0129
  537MOL0     C72393   1.166  10.979   5.197 -0.4138 -0.4479  1.0288
  537MOL0     C72394   1.065  10.980   5.101  0.3024  0.0446 -0.8874
  537MOL0     O72395   1.065  11.100   5.024  0.0694  0.6568  0.1650
  537MOL0     C72396   0.974  11.107   4.909 -0.7446  1.2754 -0.1007
  537MOL0     C72397   0.944  11.254   4.868  0.7943  0.0851 -0.9404
  537MOL0     C72398   0.892  11.265   4.726  0.5942 -0.1460  0.3997
  537MOL0     C72399   1.006  11.292   4.630  0.8511  0.2807  0.3633
  537MOL0     C72400   0.969  11.326   4.484 -0.2231 -0.4856  0.2968
  537MOL0     C72401   1.094  11.341   4.397 -0.7152  0.4155  0.1170
  537MOL0     C72402   1.048  11.373   4.253 -0.0466  0.2040 -0.0163
  537MOL0     C72403   1.171  11.359   4.155  0.1023  0.6627 -0.3888
  537MOL0    Cl72404   1.301  11.467   4.198 -0.1939 -0.1104  0.0919
  537MOL0     C72405   0.985  10.869   5.100  0.6895  0.8162  0.3583
  537MOL0     C72406   1.000  10.752   5.175 -0.1350 -0.2049  0.6882
  537MOL0     O72407   1.060  10.775   5.529  0.4515  0.3655 -1.2543
  537MOL0     C72408   1.203  10.448   5.550 -0.5521  0.6749  0.6256
  537MOL0     C72409   1.211  10.349   5.646 -0.1073 -0.0336 -0.1280
  537MOL0     N72410   0.999  10.254   6.509  0.1963 -0.0363  0.2628
  537MOL0     N72411   1.036  10.247   6.626  0.0330  0.7215  0.3270
  537MOL0     C72412   1.643  10.212   7.669  0.0442 -0.6228  0.9860
  537MOL0     C72413   1.699  10.126   7.756  0.4056  0.5065 -0.2543
  537MOL0     C72414   1.828   9.681   7.896 -0.3123 -0.3281 -0.4516
  537MOL0     C72415   1.816   9.739   8.030 -0.9379  0.8730 -0.0995
  537MOL0     C72416   1.816   9.652   8.139 -1.0721  0.4776  0.7465
  537MOL0     C72417   1.830   9.518   8.120  1.0806  0.3043 -0.6545
  537MOL0     O72418   1.838   9.429   8.224 -0.3392  0.0789 -0.2431
  537MOL0     C72419   1.721   9.429   8.302  0.7985 -0.7061 -0.0789
  537MOL0     C72420   1.721   9.320   8.417  0.5066 -0.5158 -0.4096
  537MOL0     C72421   1.629   9.345   8.540  0.7355 -0.8274 -0.3635
  537MOL0     C72422   1.484   9.345   8.486 -0.3589  0.6027 -0.7386
  537MOL0     C72423   1.374   9.363   8.576  0.7160 -0.1986 -0.0898
  537MOL0     C72424   1.302   9.413   8.652  0.3228  0.4275  1.4601
  537MOL0     C72425   1.853   9.455   7.996  1.4504 -1.0007 -0.1747
  537MOL0     C72426   1.840   9.533   7.883  0.0618  0.7276 -0.3946
  537MOL0     C72427   1.856   9.457   7.752 -0.4578  0.1247  0.3442
  537MOL0     H72428   1.719   9.859   7.536  0.5241 -0.7742  2.7091
  537MOL0     H72429   1.662  10.041   7.372  1.6907  1.7591 -0.2223
  537MOL0     H72430   1.710  10.268   7.297  0.1835  2.5741 -0.8038
  537MOL0     H72431   1.537  10.209   7.288 -0.5852  2.1942 -3.2158
  537MOL0     H72432   1.618  10.489   7.323  1.4385 -0.1464 -0.4294
  537MOL0     H72433   1.453  10.432   7.313  0.0754  1.3981 -1.1015
  537MOL0     H72434   1.655  10.417   7.090  0.3986 -2.3637 -0.1001
  537MOL0     H72435   1.547  10.550   7.112  0.8859  1.1064  3.1441
  537MOL0     H72436   1.473  10.257   7.041 -1.5938 -0.3057 -0.4460
  537MOL0     H72437   1.351  10.358   7.116  1.2051  0.3288  3.7757
  537MOL0     H72438   1.370  10.517   6.947 -0.0684 -1.8310  6.0365
  537MOL0     H72439   1.507  10.426   6.856  0.8608 -0.1257 -0.3290
  537MOL0     H72440   1.211  10.342   6.905 -0.4739 -2.5248  0.3485
  537MOL0     H72441   1.281  10.385   6.748 -0.1397 -1.7903 -0.3969
  537MOL0     H72442   1.360  10.145   6.909 -1.9190 -0.7823  0.2893
  537MOL0     H72443   1.397  10.167   6.738 -1.6375 -1.2622 -1.1593
  537MOL0     H72444   1.222  10.004   6.769 -0.0741 -0.1007  1.1398
  537MOL0     H72445   1.123  10.126   6.850 -0.0939  1.7129 -1.0593
  537MOL0     H72446   1.256  10.058   6.496 -0.8102 -1.4524 -0.2105
  537MOL0     H72447   1.180  10.140   6.262  0.2640 -2.2660  1.3539
  537MOL0     H72448   1.030  10.044   6.253 -1.0619 -0.4374  1.1417
  537MOL0     H72449   0.895  10.258   6.230  0.9971 -0.2869 -0.0353
  537MOL0     H72450   1.046  10.354   6.221 -1.5290  1.6308 -3.9249
  537MOL0     H72451   0.944  10.314   5.999 -0.5052 -0.9514 -1.2801
  537MOL0     H72452   0.967  10.142   6.018 -1.1274 -0.0157 -0.7999
  537MOL0     H72453   1.218  10.172   6.041  1.4967  0.8797  0.1220
  537MOL0     H72454   1.196  10.341   6.039  0.0907  0.2190 -0.5719
  537MOL0     H72455   1.055  10.499   5.907 -0.5677 -0.3044 -0.0821
  537MOL0     H72456   1.042  10.673   5.753  0.6346  0.9329 -1.1022
  537MOL0     H72457   1.268  10.873   5.355 -1.3313  2.0116  2.1685
  537MOL0     H72458   1.233  11.065   5.199 -1.7335  0.7118 -0.6625
  537MOL0     H72459   1.035  11.058   4.834 -1.2852  0.6211 -0.1169
  537MOL0     H72460   0.880  11.053   4.927  0.2950 -0.8879 -0.9433
  537MOL0     H72461   0.872  11.300   4.937 -2.5754 -0.4581 -3.7977
  537MOL0     H72462   1.031  11.313   4.898 -1.4147  2.1617  2.0770
  537MOL0     H72463   0.836  11.176   4.696 -2.4317  1.9909 -0.7773
  537MOL0     H72464   0.815  11.343   4.724  0.9062  0.1554 -0.4929
  537MOL0     H72465   1.068  11.202   4.624  1.1601  0.4482  0.9415
  537MOL0     H72466   1.080  11.360   4.673  0.7477  1.0229 -0.6029
  537MOL0     H72467   0.913  11.419   4.492  0.0104 -0.3270  0.0899
  537MOL0     H72468   0.909  11.246   4.439 -1.8557  1.2283 -0.6662
  537MOL0     H72469   1.152  11.420   4.446 -1.2721  2.1381 -1.8751
  537MOL0     H72470   1.146  11.245   4.404  0.3150  1.0279  1.5506
  537MOL0     H72471   1.015  11.476   4.264 -1.1561 -0.0543 -0.7656
  537MOL0     H72472   0.966  11.308   4.221  0.1553 -0.1719  0.2244
  537MOL0     H72473   1.202  11.254   4.148  1.4432  0.9296  0.9681
  537MOL0     H72474   1.135  11.400   4.060  0.5208 -1.2552 -1.4319
  537MOL0     H72475   0.903  10.863   5.030  1.2804 -0.0237 -0.2738
  537MOL0     H72476   0.940  10.664   5.156 -1.3340 -0.1437  3.7038
  537MOL0     H72477   1.238  10.435   5.448 -0.1144  4.1018  0.2174
  537MOL0     H72478   1.254  10.252   5.618 -1.2022 -0.0681 -1.8447
  537MOL0     H72479   1.624  10.312   7.709  1.2830  0.0439 -0.0289
  537MOL0     H72480   1.722  10.145   7.860 -0.2852 -1.5408  0.3096
  537MOL0     H72481   1.796   9.846   8.036  0.8801  1.2848 -0.6888
  537MOL0     H72482   1.784   9.687   8.237 -0.7446 -0.3642  1.1655
  537MOL0     H72483   1.639   9.435   8.230 -1.3758  2.6830  2.3233
  537MOL0     H72484   1.724   9.518   8.366  1.0108 -0.4590 -0.4361
  537MOL0     H72485   1.822   9.316   8.458 -0.4096  0.5769  2.1274
  537MOL0     H72486   1.700   9.219   8.379  3.4681 -1.4764  0.2096
  537MOL0     H72487   1.651   9.448   8.570  4.2557 -0.6569 -2.8965
  537MOL0     H72488   1.644   9.282   8.628 -1.4026 -1.9729 -0.7429
  537MOL0     H72489   1.481   9.425   8.411 -1.0206  1.5896  0.3057
  537MOL0     H72490   1.466   9.261   8.418 -2.0930  1.8072 -1.8607
  537MOL0     H72491   1.244   9.463   8.727 -4.4567 -0.8906 -0.9244
  537MOL0     H72492   1.877   9.349   8.000  1.0813 -1.2626 -2.9650
  537MOL0     H72493   1.922   9.506   7.679  3.2339  1.2346  4.0429
  537MOL0     H72494   1.912   9.367   7.776  3.9721  3.1309  2.8389
  537MOL0     H72495   1.758   9.430   7.711  0.5088 -1.8009 -0.8187
  538MOL0     O72496   2.442   5.517   8.583 -0.0182 -0.8678 -0.3487
  538MOL0     C72497   2.484   5.432   8.660 -0.0071  0.4675 -0.0856
  538MOL0     O72498   2.471   5.298   8.644  0.0750 -0.5916 -0.5116
  538MOL0     C72499   2.379   5.237   8.561 -0.1580 -0.0823  0.1399
  538MOL0     C72500   2.389   5.098   8.553  0.3029  0.9345 -0.1132
  538MOL0     C72501   2.294   5.024   8.484 -0.0285  0.0807  0.7128
  538MOL0     C72502   2.199   5.087   8.406 -0.2723  0.0605  0.7175
  538MOL0     O72503   2.093   5.024   8.346  0.3532 -0.0795 -0.2393
  538MOL0     C72504   2.117   4.885   8.317  0.4512  0.7986 -0.1056
  538MOL0     C72505   2.045   4.850   8.193  0.6322 -0.4889  0.0419
  538MOL0     C72506   1.894   4.878   8.211  0.0176 -0.2489 -0.6563
  538MOL0     C72507   1.815   4.795   8.100  0.0024  0.6275 -0.7738
  538MOL0     C72508   1.657   4.784   8.146 -0.3348  0.6372 -0.0054
  538MOL0     C72509   1.583   4.691   8.048 -0.1764 -0.4076  1.3203
  538MOL0     C72510   1.465   4.761   7.993  0.9120 -0.2058 -0.4957
  538MOL0     C72511   1.340   4.744   8.074  0.1978  0.5512  0.8074
  538MOL0     N72512   1.354   4.827   8.188  0.4336 -0.4413 -0.2357
  538MOL0     C72513   1.362   4.786   8.328  0.3715  0.1014 -0.1293
  538MOL0     C72514   1.334   4.907   8.393 -0.1864  0.3116 -0.3681
  538MOL0     C72515   1.321   4.930   8.545 -0.6234  0.1033 -0.6107
  538MOL0     C72516   1.196   4.835   8.594 -0.6555 -0.0178  0.0805
  538MOL0     C72517   1.212   4.688   8.624 -0.4610  0.4155 -0.3351
  538MOL0     C72518   1.300   4.672   8.753  0.6012  0.1895  0.2608
  538MOL0     O72519   1.239   4.724   8.870 -0.3019 -0.0409 -0.0111
  538MOL0     C72520   1.329   4.744   8.967 -0.0660 -0.2369 -0.4091
  538MOL0     C72521   1.433   4.657   9.000  0.1977 -0.1912  0.1437
  538MOL0     C72522   1.525   4.697   9.094  0.8033 -0.6481 -0.5997
  538MOL0     C72523   1.509   4.823   9.160 -0.1641  0.4777 -0.7931
  538MOL0     C72524   1.605   4.848   9.266 -0.6753 -0.3764 -0.4261
  538MOL0     O72525   1.609   4.977   9.307 -0.2762  0.3563 -0.1966
  538MOL0     C72526   1.692   4.996   9.411  1.0963 -0.6045 -0.0467
  538MOL0     C72527   1.669   4.946   9.543 -0.6518  0.4976  0.5485
  538MOL0     C72528   1.758   4.975   9.651 -0.4566 -0.4994  0.9685
  538MOL0     C72529   1.860   5.073   9.633  1.3261  0.8174  0.0485
  538MOL0     O72530   1.943   5.098   9.740  0.4328 -0.2793 -0.5249
  538MOL0     C72531   2.075   5.158   9.722 -0.2500  0.1336  0.0273
  538MOL0     C72532   2.077   5.301   9.766 -0.0843 -0.0536 -0.5327
  538MOL0     C72533   2.223   5.366   9.757  0.2109 -0.1451  0.5827
  538MOL0     C72534   2.301   5.353   9.624  0.3081  0.4047  1.3886
  538MOL0     C72535   2.290   5.475   9.524 -0.6467  0.2458  1.4305
  538MOL0     C72536   2.377   5.594   9.578  0.2771 -0.8087 -0.2125
  538MOL0     C72537   2.352   5.732   9.504  0.0889 -0.2543  0.1121
  538MOL0     C72538   2.464   5.832   9.532 -0.0314 -0.2798  0.3493
  538MOL0    Cl72539   2.428   5.998   9.488 -0.1181 -0.2739 -0.2419
  538MOL0     C72540   1.870   5.135   9.508 -0.3589  0.5379 -0.3558
  538MOL0     C72541   1.794   5.093   9.403 -0.4002 -0.3470  0.0589
  538MOL0     O72542   1.681   4.759   9.316 -0.1994  0.1373  0.3240
  538MOL0     C72543   1.416   4.915   9.114  1.0554  0.3693  0.2263
  538MOL0     C72544   1.319   4.874   9.026 -0.9147  0.0416 -0.1124
  538MOL0     N72545   1.301   5.000   8.300 -0.1693 -1.2424  0.0763
  538MOL0     N72546   1.319   4.958   8.181  1.1288  0.5903 -0.3237
  538MOL0     C72547   2.189   5.221   8.419  0.1048 -0.9145  0.0987
  538MOL0     C72548   2.279   5.304   8.493 -0.3130  0.3559  0.2040
  538MOL0     C72549   2.564   5.482   8.775  0.4332  0.0981 -0.4621
  538MOL0     C72550   2.520   5.604   8.830 -0.0133  0.0137  0.3328
  538MOL0     C72551   2.573   5.635   8.949 -0.4912 -0.2666  0.3845
  538MOL0     C72552   2.683   5.565   9.019  0.4288 -0.7034 -0.2285
  538MOL0     O72553   2.720   5.606   9.144  0.3170  0.3719  0.6145
  538MOL0     C72554   2.748   5.499   9.233  0.1632  1.1350 -0.0131
  538MOL0     C72555   2.722   5.537   9.375 -0.2337 -0.4040 -0.0532
  538MOL0     C72556   2.801   5.661   9.418 -0.6217 -0.2812  0.4118
  538MOL0     C72557   2.948   5.617   9.433 -0.1958  0.6912  0.2289
  538MOL0     C72558   3.024   5.716   9.515 -0.3409  0.6259 -0.3574
  538MOL0     C72559   3.092   5.795   9.576  0.0951  0.2553  0.1237
  538MOL0     C72560   2.742   5.462   8.941  0.7866  0.2338  1.0348
  538MOL0     C72561   2.678   5.412   8.821 -1.1930  0.1091  1.0969
  538MOL0     C72562   2.744   5.298   8.737 -0.3420 -0.4539 -0.4987
  538MOL0     H72563   2.468   5.049   8.608  2.4186  0.0133 -3.6364
  538MOL0     H72564   2.298   4.916   8.491 -1.4909  0.0613  1.6728
  538MOL0     H72565   2.222   4.858   8.298  0.2209 -1.3122  1.3294
  538MOL0     H72566   2.091   4.820   8.401  0.1900  0.3488 -0.5227
  538MOL0     H72567   2.058   4.744   8.169  0.7587 -0.1063 -1.7075
  538MOL0     H72568   2.089   4.900   8.106  1.7542 -0.2807  0.7087
  538MOL0     H72569   1.872   4.984   8.197  0.4942 -0.1631 -0.7640
  538MOL0     H72570   1.855   4.843   8.308 -1.2382  2.2284 -0.2000
  538MOL0     H72571   1.819   4.856   8.010  2.0911 -2.1079 -2.6888
  538MOL0     H72572   1.860   4.699   8.074 -0.1339 -0.3643  2.2149
  538MOL0     H72573   1.649   4.739   8.246 -0.1124  0.7678  0.0706
  538MOL0     H72574   1.619   4.886   8.158  0.2616  0.7649  0.8855
  538MOL0     H72575   1.650   4.656   7.969  0.2539  0.4995  1.2692
  538MOL0     H72576   1.550   4.601   8.101 -3.7176  1.2923  2.2960
  538MOL0     H72577   1.449   4.713   7.896 -1.4716  2.6530 -1.6737
  538MOL0     H72578   1.488   4.867   7.973 -0.4388  0.8391  2.8002
  538MOL0     H72579   1.250   4.772   8.018  0.9331 -2.1509 -2.0560
  538MOL0     H72580   1.321   4.640   8.101 -1.2734  0.8966  1.1601
  538MOL0     H72581   1.376   4.681   8.351 -1.6367  0.1236  1.5436
  538MOL0     H72582   1.416   4.906   8.592 -0.5030  0.7646 -0.5058
  538MOL0     H72583   1.295   5.031   8.576 -1.5450 -1.0275  2.7437
  538MOL0     H72584   1.159   4.894   8.678 -0.6204  0.2384 -0.0843
  538MOL0     H72585   1.107   4.838   8.530  0.7337 -0.7449 -1.9842
  538MOL0     H72586   1.247   4.635   8.536 -1.4370  1.5154 -1.4265
  538MOL0     H72587   1.120   4.633   8.645 -0.0930 -2.0022 -4.1371
  538MOL0     H72588   1.400   4.712   8.735  1.0590 -1.1165 -0.2161
  538MOL0     H72589   1.318   4.565   8.769 -1.3114 -0.4992 -1.7761
  538MOL0     H72590   1.446   4.555   8.965 -1.6842 -0.0050 -1.2268
  538MOL0     H72591   1.598   4.619   9.116  0.0379 -1.3469 -0.4739
  538MOL0     H72592   1.577   4.889   9.553 -0.4127 -0.6934 -2.6505
  538MOL0     H72593   1.749   4.944   9.754  2.1569 -0.0635  1.3954
  538MOL0     H72594   2.153   5.092   9.762  0.5599  1.1864  0.2050
  538MOL0     H72595   2.090   5.167   9.615  2.1111 -1.0039  0.2038
  538MOL0     H72596   2.009   5.374   9.722  1.4097  0.6884 -1.7084
  538MOL0     H72597   2.043   5.290   9.869 -0.7180 -1.2129 -0.8562
  538MOL0     H72598   2.215   5.473   9.781 -0.4173  0.2059 -1.1194
  538MOL0     H72599   2.288   5.315   9.830  1.7278 -0.7634 -1.1261
  538MOL0     H72600   2.262   5.263   9.577 -1.4477  1.1564  1.2931
  538MOL0     H72601   2.407   5.342   9.645  1.3525  1.2485 -2.6525
  538MOL0     H72602   2.187   5.510   9.512  0.4484  2.8811 -1.7763
  538MOL0     H72603   2.334   5.444   9.428  1.2267  1.4389  1.8424
  538MOL0     H72604   2.349   5.615   9.681 -1.5491  0.1840 -0.8523
  538MOL0     H72605   2.483   5.571   9.587  1.1960  3.4897  3.7924
  538MOL0     H72606   2.255   5.776   9.530  1.0744  1.3325  1.2571
  538MOL0     H72607   2.344   5.721   9.396 -0.9113  1.8430 -0.0875
  538MOL0     H72608   2.479   5.838   9.640 -0.6617  0.3379  0.4123
  538MOL0     H72609   2.554   5.800   9.479 -0.3324 -0.4433 -0.0749
  538MOL0     H72610   1.931   5.222   9.490  0.3333  0.4937  1.5813
  538MOL0     H72611   1.810   5.147   9.310 -0.3391  0.2675  0.4256
  538MOL0     H72612   1.397   5.015   9.152 -2.0096  1.3621 -3.3114
  538MOL0     H72613   1.239   4.943   9.002  0.3880  1.8284  0.3537
  538MOL0     H72614   2.103   5.261   8.366  1.4675  1.7515 -0.2546
  538MOL0     H72615   2.244   5.406   8.484 -2.7148 -0.3719  0.4053
  538MOL0     H72616   2.436   5.654   8.783  1.2496  0.7555 -1.2355
  538MOL0     H72617   2.541   5.729   8.992  0.3526  1.2043 -1.9696
  538MOL0     H72618   2.851   5.462   9.231  0.3389  1.5033  1.4199
  538MOL0     H72619   2.683   5.417   9.200 -1.0125  1.9372  0.2539
  538MOL0     H72620   2.745   5.450   9.437  2.6263  0.1524 -0.1980
  538MOL0     H72621   2.615   5.558   9.376 -0.2611  0.0295  3.4994
  538MOL0     H72622   2.769   5.687   9.520 -2.1362 -0.6062  0.0374
  538MOL0     H72623   2.798   5.740   9.343  1.7089  0.9260  1.4751
  538MOL0     H72624   2.945   5.515   9.473 -1.3026  0.3472 -0.6557
  538MOL0     H72625   2.993   5.632   9.334 -1.8192 -1.4135 -0.9310
  538MOL0     H72626   3.152   5.864   9.632 -0.2425 -1.7760  3.2172
  538MOL0     H72627   2.821   5.397   8.978  1.4228 -0.0306 -0.7231
  538MOL0     H72628   2.777   5.329   8.638 -0.0095 -1.6685 -0.7888
  538MOL0     H72629   2.828   5.245   8.783 -0.8616 -1.9674 -1.2390
  538MOL0     H72630   2.673   5.216   8.721  0.0229 -1.0791  0.9422
  539MOL0     O72631   5.159   8.157   2.655 -0.8443 -0.1169  0.2336
  539MOL0     C72632   5.242   8.245   2.654 -0.1866 -0.1502 -0.3344
  539MOL0     O72633   5.210   8.370   2.640 -0.0371 -0.2983  0.3304
  539MOL0     C72634   5.076   8.389   2.650  1.1487  0.1840 -0.4056
  539MOL0     C72635   5.019   8.454   2.761  0.0644  0.2471  0.2418
  539MOL0     C72636   4.881   8.479   2.758  0.2767  0.3485 -0.1126
  539MOL0     C72637   4.798   8.440   2.654 -0.4231  0.5465  0.5796
  539MOL0     O72638   4.673   8.483   2.654 -0.8346  0.0671  0.2190
  539MOL0     C72639   4.571   8.382   2.660  0.8938  0.0697 -0.9296
  539MOL0     C72640   4.433   8.448   2.667 -0.1223 -0.9656  0.2602
  539MOL0     C72641   4.320   8.344   2.691  0.3232 -0.0848  0.3671
  539MOL0     C72642   4.207   8.343   2.580  0.2198 -0.1624  0.1059
  539MOL0     C72643   4.115   8.468   2.593  0.4069  0.5797 -0.0892
  539MOL0     C72644   4.001   8.455   2.501 -0.7496 -0.0033  0.3337
  539MOL0     C72645   3.933   8.582   2.440 -0.2038  0.9582 -0.2840
  539MOL0     C72646   3.996   8.639   2.312  0.2124  0.3078  0.6513
  539MOL0     N72647   4.117   8.715   2.355  0.8058 -0.4574 -0.0413
  539MOL0     C72648   4.248   8.675   2.368 -0.8597  0.9537  1.8627
  539MOL0     C72649   4.317   8.782   2.391  0.3902 -1.2512 -0.5716
  539MOL0     C72650   4.467   8.797   2.413  1.2558 -0.5150  0.9563
  539MOL0     C72651   4.531   8.785   2.273  0.8026 -0.1163 -0.5461
  539MOL0     C72652   4.681   8.803   2.279  0.3422  0.1906 -0.3465
  539MOL0     C72653   4.711   8.945   2.306  0.4248  0.3721 -0.3483
  539MOL0     O72654   4.854   8.963   2.308 -0.1969 -0.1506  0.9282
  539MOL0     C72655   4.918   9.077   2.350  0.1675  1.0338  0.4476
  539MOL0     C72656   4.852   9.191   2.390  0.0288  0.1521 -0.5847
  539MOL0     C72657   4.935   9.298   2.449 -0.1007 -0.4157  0.8427
  539MOL0     C72658   5.073   9.284   2.457 -0.1206 -0.5400 -0.6255
  539MOL0     C72659   5.150   9.394   2.520 -0.1704  0.1411  1.0302
  539MOL0     O72660   5.289   9.368   2.544  0.1543  0.8932  0.2858
  539MOL0     C72661   5.373   9.470   2.576  0.0924  0.1910  0.1597
  539MOL0     C72662   5.410   9.496   2.707  0.1758  0.2060 -1.2667
  539MOL0     C72663   5.492   9.604   2.740  0.4433 -0.4711 -0.5240
  539MOL0     C72664   5.555   9.680   2.640  0.0035  0.1675  0.3738
  539MOL0     O72665   5.622   9.793   2.671  0.2098 -0.0412 -0.1223
  539MOL0     C72666   5.605   9.902   2.578  0.5614  0.4991  0.0365
  539MOL0     C72667   5.739   9.926   2.509 -0.0847  0.4312 -0.4965
  539MOL0     C72668   5.865   9.925   2.597  0.1327 -0.7706  0.0709
  539MOL0     C72669   5.996   9.920   2.528 -0.5832 -0.3497 -0.3708
  539MOL0     C72670   6.108   9.867   2.631  0.0822 -0.8694  0.5884
  539MOL0     C72671   6.257   9.892   2.579 -0.6601  0.0257  0.6518
  539MOL0     C72672   6.285  10.037   2.548 -0.3488 -0.3692 -0.3357
  539MOL0     C72673   6.431  10.073   2.546  0.0588  0.1194  0.6922
  539MOL0    Cl72674   6.505   9.971   2.417 -0.4704 -0.2181  0.0872
  539MOL0     C72675   5.543   9.634   2.504 -0.2066  0.8783 -0.1397
  539MOL0     C72676   5.446   9.537   2.475 -0.4588 -0.0187  0.4397
  539MOL0     O72677   5.091   9.493   2.561 -0.8761 -0.7156  0.6563
  539MOL0     C72678   5.137   9.170   2.407 -0.2338 -0.0679  0.2491
  539MOL0     C72679   5.060   9.065   2.354  0.1154 -0.4344  0.4215
  539MOL0     N72680   4.228   8.887   2.400  0.1174  0.0199 -0.3180
  539MOL0     N72681   4.110   8.842   2.378 -0.0842 -0.2559  0.3493
  539MOL0     C72682   4.850   8.372   2.543 -0.0961 -0.7396 -0.1045
  539MOL0     C72683   4.990   8.358   2.540  0.5926  0.7279  1.0460
  539MOL0     C72684   5.385   8.214   2.681 -0.7300  0.8577 -0.0558
  539MOL0     C72685   5.433   8.083   2.664  0.5718 -0.1481 -0.3836
  539MOL0     C72686   5.573   8.065   2.680 -0.1282  0.1375  0.1042
  539MOL0     C72687   5.663   8.163   2.691 -0.3613  0.3573  0.5654
  539MOL0     O72688   5.803   8.143   2.683  0.5395 -0.9766  0.1901
  539MOL0     C72689   5.846   8.010   2.660  0.3813  1.5018 -0.7215
  539MOL0     C72690   5.991   7.999   2.659 -0.3538  0.3092  0.1511
  539MOL0     C72691   6.059   8.082   2.547  0.0083 -1.4708  0.1715
  539MOL0     C72692   6.211   8.101   2.558  0.3243  0.4526  0.0305
  539MOL0     C72693   6.277   7.970   2.563  0.4033 -0.2062  0.0781
  539MOL0     C72694   6.345   7.867   2.578  0.2501  0.8988  1.3107
  539MOL0     C72695   5.611   8.284   2.743  0.0622  0.4817 -0.1555
  539MOL0     C72696   5.476   8.310   2.741  0.2016 -0.4552 -0.4057
  539MOL0     C72697   5.434   8.428   2.829  0.7811 -0.6943  0.3667
  539MOL0     H72698   5.088   8.470   2.843  0.9682 -1.8922 -0.0272
  539MOL0     H72699   4.833   8.543   2.831 -2.1502 -1.2656 -0.1875
  539MOL0     H72700   4.579   8.311   2.577  0.2192 -0.9736 -0.1261
  539MOL0     H72701   4.592   8.337   2.757  1.7067  0.0613 -1.1053
  539MOL0     H72702   4.414   8.496   2.571  2.1194 -1.5259 -0.5193
  539MOL0     H72703   4.443   8.522   2.746  0.1755  0.0008 -0.6600
  539MOL0     H72704   4.265   8.378   2.779 -2.4040 -0.5057 -1.0841
  539MOL0     H72705   4.351   8.243   2.721 -1.1435 -0.0402  2.2059
  539MOL0     H72706   4.255   8.344   2.482 -2.5371 -0.4781 -1.3648
  539MOL0     H72707   4.157   8.246   2.574  3.0713 -1.7482  0.5346
  539MOL0     H72708   4.083   8.476   2.698  1.3708 -0.4978  0.3024
  539MOL0     H72709   4.164   8.560   2.559 -1.9154  1.9038 -0.0320
  539MOL0     H72710   4.040   8.403   2.412 -2.1718  2.5809 -1.9720
  539MOL0     H72711   3.926   8.390   2.546 -0.2229 -2.0347 -1.5074
  539MOL0     H72712   3.933   8.659   2.517 -1.7124  1.3189 -0.6151
  539MOL0     H72713   3.827   8.556   2.428  0.0493 -1.6396  2.0840
  539MOL0     H72714   4.010   8.558   2.240  0.8593 -0.7781  1.9496
  539MOL0     H72715   3.922   8.705   2.266  1.1574 -0.3262 -1.9559
  539MOL0     H72716   4.290   8.576   2.347 -2.4205  0.7999 -1.1476
  539MOL0     H72717   4.475   8.901   2.447 -2.1988  0.2636 -0.1694
  539MOL0     H72718   4.498   8.729   2.493  0.1691 -1.2213  0.7958
  539MOL0     H72719   4.514   8.683   2.237 -0.5487 -0.4566  0.9268
  539MOL0     H72720   4.500   8.859   2.199  1.4533  0.6681 -0.0421
  539MOL0     H72721   4.719   8.776   2.180 -0.5466 -0.2377 -0.5840
  539MOL0     H72722   4.716   8.737   2.358 -2.2779 -1.7834 -0.6810
  539MOL0     H72723   4.666   8.965   2.403  1.2065 -0.8970  0.2992
  539MOL0     H72724   4.659   8.998   2.225 -1.4514  1.0920  1.2548
  539MOL0     H72725   4.746   9.214   2.383 -0.0623 -0.5530 -1.9796
  539MOL0     H72726   4.892   9.394   2.474 -2.1189 -1.3451  1.1367
  539MOL0     H72727   5.352   9.440   2.780  2.2541 -0.1856  0.1356
  539MOL0     H72728   5.494   9.636   2.843 -0.0503 -3.0722  0.3497
  539MOL0     H72729   5.521   9.879   2.513 -1.1545  1.7215  1.7033
  539MOL0     H72730   5.577   9.994   2.630  2.7550  3.1351 -3.0262
  539MOL0     H72731   5.764   9.861   2.425  2.9252 -0.0959  0.6705
  539MOL0     H72732   5.722  10.021   2.457 -0.1743  2.1976  2.5337
  539MOL0     H72733   5.860  10.015   2.659 -1.2982 -1.7266  1.4327
  539MOL0     H72734   5.869   9.835   2.659  1.7403 -1.2131 -0.6263
  539MOL0     H72735   6.013  10.020   2.489 -2.3314 -0.4305 -1.4606
  539MOL0     H72736   5.976   9.849   2.447 -2.1157 -1.0237  0.5530
  539MOL0     H72737   6.083   9.762   2.651  0.4516 -1.2730 -0.9471
  539MOL0     H72738   6.087   9.929   2.719  0.3781 -2.0778  1.5314
  539MOL0     H72739   6.326   9.855   2.656  1.2123  1.4890 -0.2348
  539MOL0     H72740   6.281   9.847   2.482  0.9487  0.9685  0.5709
  539MOL0     H72741   6.221  10.095   2.615 -0.0893  0.5801 -0.8874
  539MOL0     H72742   6.250  10.064   2.448 -0.1663 -0.2622 -0.3710
  539MOL0     H72743   6.436  10.179   2.519  1.8213 -0.2159 -0.4790
  539MOL0     H72744   6.474  10.051   2.644 -0.8305 -0.1335  1.0263
  539MOL0     H72745   5.591   9.681   2.419 -1.5179  2.2143 -0.1835
  539MOL0     H72746   5.436   9.493   2.377 -1.8107 -2.8796  1.7600
  539MOL0     H72747   5.245   9.172   2.415 -0.0620  4.4262 -0.3716
  539MOL0     H72748   5.112   8.973   2.331 -1.3771 -1.1422 -0.2958
  539MOL0     H72749   4.793   8.355   2.452 -1.3825  1.3071  0.2671
  539MOL0     H72750   5.023   8.306   2.451 -1.0388  1.2885  0.0813
  539MOL0     H72751   5.363   8.007   2.633  0.0187  0.1520  0.1063
  539MOL0     H72752   5.609   7.966   2.652  3.5610  1.7815 -1.5940
  539MOL0     H72753   5.805   7.958   2.573  1.0502 -1.0002  0.3482
  539MOL0     H72754   5.822   7.947   2.747  0.2688 -0.4194 -2.0754
  539MOL0     H72755   6.022   7.898   2.631 -0.8073  0.5663 -1.4105
  539MOL0     H72756   6.030   8.027   2.757 -0.5084 -0.9325  0.5818
  539MOL0     H72757   6.028   8.185   2.527 -0.5146 -1.5667  0.4766
  539MOL0     H72758   6.035   8.034   2.451 -4.6022 -2.1708  1.4041
  539MOL0     H72759   6.250   8.158   2.473  2.3728 -3.3384 -1.8333
  539MOL0     H72760   6.243   8.151   2.649 -0.7547  0.9135  0.1644
  539MOL0     H72761   6.407   7.785   2.606 -2.8965 -1.5641  1.6635
  539MOL0     H72762   5.671   8.368   2.776 -0.7520  0.0257  2.7126
  539MOL0     H72763   5.516   8.469   2.889  0.9854 -0.3458 -0.1409
  539MOL0     H72764   5.388   8.506   2.767  0.0743 -0.6437  0.9383
  539MOL0     H72765   5.361   8.399   2.905  1.7664  0.4034  1.7916
  540MOL0     O72766   6.179   0.305   4.122 -0.7097 -0.3322 -0.6278
  540MOL0     C72767   6.217   0.204   4.184  1.3397  0.2558 -1.0864
  540MOL0     O72768   6.272   0.084   4.135 -0.3332  0.1130  0.0891
  540MOL0     C72769   6.319   0.102   4.009 -0.4972 -0.3846 -0.8759
  540MOL0     C72770   6.261   0.025   3.904 -0.8120 -0.1611 -0.4650
  540MOL0     C72771   6.317   0.032   3.779  0.1847  0.9524 -0.8976
  540MOL0     C72772   6.425   0.115   3.746  0.3905 -0.1907  0.0395
  540MOL0     O72773   6.490   0.125   3.621 -0.1823 -0.1499  0.7185
  540MOL0     C72774   6.432   0.077   3.503  0.0329  0.1522  0.6173
  540MOL0     C72775   6.350   0.188   3.442  0.7401 -0.0696 -0.3897
  540MOL0     C72776   6.401   0.334   3.448  0.2598  0.0182 -1.0996
  540MOL0     C72777   6.314   0.437   3.383  0.1637 -0.3150  0.1231
  540MOL0     C72778   6.360   0.470   3.238  0.1609 -0.0919 -0.4062
  540MOL0     C72779   6.250   0.560   3.181  0.8239 -0.9042 -0.1210
  540MOL0     C72780   6.120   0.474   3.155 -0.1196 -0.3822 -0.7759
  540MOL0     C72781   6.026   0.550   3.059  0.5305  0.1058 -0.3899
  540MOL0     N72782   5.894   0.495   3.042 -0.0118 -0.4257 -0.1927
  540MOL0     C72783   5.856   0.364   3.062 -1.4231 -0.1478  0.4838
  540MOL0     C72784   5.722   0.368   3.068  0.7960  0.0707  0.4787
  540MOL0     C72785   5.643   0.240   3.076  0.8472 -1.1682 -0.2944
  540MOL0     C72786   5.545   0.252   3.191  0.4936  0.2962  0.0931
  540MOL0     C72787   5.482   0.121   3.222 -0.7806  0.4590 -0.1034
  540MOL0     C72788   5.403   0.120   3.356  0.4350 -0.3621  0.3481
  540MOL0     O72789   5.371  -0.012   3.405  0.1131  0.3331  0.2282
  540MOL0     C72790   5.294  -0.092   3.334  0.8472  0.3745  0.5209
  540MOL0     C72791   5.198  -0.058   3.233 -0.0363 -0.8606 -0.5156
  540MOL0     C72792   5.124  -0.153   3.172  0.0489  0.0607  0.2695
  540MOL0     C72793   5.158  -0.291   3.190  0.1653 -0.2487 -0.6029
  540MOL0     C72794   5.081  -0.399   3.122  1.1029  0.8224  0.0963
  540MOL0     O72795   5.109  -0.529   3.168 -0.6431 -0.5855 -0.3814
  540MOL0     C72796   4.999  -0.604   3.159 -0.1061  0.0528  0.6407
  540MOL0     C72797   4.995  -0.703   3.062  0.6151  0.8158  0.1658
  540MOL0     C72798   4.869  -0.760   3.033  0.3905 -0.7866 -0.0576
  540MOL0     C72799   4.755  -0.740   3.113 -0.0215 -0.1954 -0.7049
  540MOL0     O72800   4.639  -0.807   3.099  0.0875  0.5189 -0.0536
  540MOL0     C72801   4.616  -0.887   2.978  0.1519 -0.6072 -0.4428
  540MOL0     C72802   4.482  -0.955   2.980  0.3713  0.0372 -0.1069
  540MOL0     C72803   4.467  -1.045   2.861  0.1457 -0.8100 -1.3687
  540MOL0     C72804   4.431  -0.950   2.746  0.1893  0.1173  0.4508
  540MOL0     C72805   4.309  -0.848   2.758 -0.5470  0.6040  0.0173
  540MOL0     C72806   4.174  -0.923   2.784  0.0022  0.4644  0.2507
  540MOL0     C72807   4.054  -0.835   2.821 -0.8087  0.0651  0.1820
  540MOL0     C72808   4.013  -0.748   2.708  0.4555 -0.0439  0.4454
  540MOL0    Cl72809   3.872  -0.643   2.767 -0.0719 -0.2183 -0.0089
  540MOL0     C72810   4.765  -0.645   3.219 -0.2562  1.1453  0.2218
  540MOL0     C72811   4.884  -0.589   3.241 -0.9338  0.4266 -0.6926
  540MOL0     O72812   4.995  -0.377   3.036  0.2167 -0.3556  0.4705
  540MOL0     C72813   5.267  -0.328   3.279  0.4879  1.3584  0.8389
  540MOL0     C72814   5.329  -0.227   3.344  0.1241 -0.1382  0.6727
  540MOL0     N72815   5.675   0.499   3.043 -0.3215  0.0640 -0.3291
  540MOL0     N72816   5.781   0.575   3.032  0.5023  0.1145  0.5919
  540MOL0     C72817   6.483   0.193   3.848 -0.5664  0.8654  0.0959
  540MOL0     C72818   6.429   0.186   3.979  0.1370  0.5258  0.2818
  540MOL0     C72819   6.185   0.211   4.332 -0.2648 -0.0526  0.3788
  540MOL0     C72820   6.294   0.179   4.422 -0.3724  0.0096  0.7074
  540MOL0     C72821   6.283   0.203   4.554  0.8312 -0.2722  0.1449
  540MOL0     C72822   6.164   0.249   4.605 -0.1686 -1.0213  0.0809
  540MOL0     O72823   6.164   0.263   4.738  0.6987  0.3207 -0.1423
  540MOL0     C72824   6.046   0.213   4.800 -0.2741  0.5576  0.2300
  540MOL0     C72825   6.063   0.178   4.937  0.3241 -0.6474 -0.2383
  540MOL0     C72826   6.093   0.305   5.025  0.4668 -0.1695  0.5836
  540MOL0     C72827   6.140   0.271   5.175  0.5099 -1.2070 -0.2072
  540MOL0     C72828   6.021   0.199   5.234 -0.9944 -0.9893  0.7495
  540MOL0     C72829   5.936   0.130   5.285  0.7450 -0.1832  0.1857
  540MOL0     C72830   6.054   0.272   4.524 -0.3832 -0.4389  0.6431
  540MOL0     C72831   6.061   0.251   4.386 -0.9559 -1.1817 -0.6558
  540MOL0     C72832   5.932   0.252   4.312  0.3449 -0.3367 -0.7358
  540MOL0     H72833   6.170  -0.034   3.916 -0.6304 -0.1505  1.3406
  540MOL0     H72834   6.270  -0.022   3.698  2.5624 -2.2186 -0.3408
  540MOL0     H72835   6.511   0.063   3.428 -2.3561 -0.5679 -1.9099
  540MOL0     H72836   6.376  -0.017   3.507  0.7695 -0.3201  0.2838
  540MOL0     H72837   6.256   0.193   3.498  0.0198 -1.5418 -1.4084
  540MOL0     H72838   6.334   0.160   3.338 -1.1881  0.1908 -0.2112
  540MOL0     H72839   6.499   0.341   3.401  0.3349  2.6754 -0.7049
  540MOL0     H72840   6.427   0.361   3.551  0.8293 -0.0985 -1.2122
  540MOL0     H72841   6.209   0.408   3.393  0.7817 -3.0327 -0.4804
  540MOL0     H72842   6.318   0.533   3.436  0.3139 -0.8261  1.0589
  540MOL0     H72843   6.458   0.519   3.235  1.6591 -2.9026 -1.0745
  540MOL0     H72844   6.369   0.380   3.176  3.1134  1.0833 -1.9375
  540MOL0     H72845   6.232   0.647   3.244 -1.3749 -0.9110 -0.6435
  540MOL0     H72846   6.291   0.597   3.086 -0.2589 -2.6891 -1.3446
  540MOL0     H72847   6.073   0.458   3.253 -0.5549  1.5128 -0.6411
  540MOL0     H72848   6.134   0.378   3.105 -1.5639 -0.8110 -0.4090
  540MOL0     H72849   6.026   0.650   3.103 -0.2263  0.1841 -0.5460
  540MOL0     H72850   6.077   0.562   2.963 -0.1292 -1.9489 -1.0500
  540MOL0     H72851   5.915   0.273   3.068 -0.2738  0.5798  0.4513
  540MOL0     H72852   5.590   0.236   2.980  3.6295  0.6253 -2.0637
  540MOL0     H72853   5.707   0.153   3.094 -1.2117 -2.3312  1.9945
  540MOL0     H72854   5.594   0.288   3.282 -0.0077  1.0390  0.0806
  540MOL0     H72855   5.464   0.321   3.167 -3.0490 -3.5955 -0.3920
  540MOL0     H72856   5.555   0.039   3.230 -4.8094 -3.6849 -1.3372
  540MOL0     H72857   5.409   0.096   3.145  1.1866 -0.1810 -1.8665
  540MOL0     H72858   5.309   0.176   3.354 -0.8726 -2.1984  3.3987
  540MOL0     H72859   5.460   0.164   3.439 -1.6428 -1.8027  2.6737
  540MOL0     H72860   5.175   0.046   3.216 -0.1634 -0.4970  1.5877
  540MOL0     H72861   5.039  -0.119   3.115  1.1985 -2.0781 -3.0033
  540MOL0     H72862   5.078  -0.732   2.997  1.1377  1.3968  0.5679
  540MOL0     H72863   4.870  -0.833   2.953 -3.3598 -0.3402 -0.6950
  540MOL0     H72864   4.623  -0.804   2.907  3.5910  4.6090  4.9770
  540MOL0     H72865   4.693  -0.960   2.952 -1.4399 -1.6945 -2.3704
  540MOL0     H72866   4.462  -1.004   3.076  1.4619 -1.9449 -0.8522
  540MOL0     H72867   4.397  -0.886   2.971 -0.0255 -0.7538 -4.6436
  540MOL0     H72868   4.567  -1.083   2.839  0.2671 -1.3639  0.0446
  540MOL0     H72869   4.392  -1.125   2.868 -3.0196  1.9827 -0.8128
  540MOL0     H72870   4.404  -1.016   2.662 -0.9516  1.8424 -0.6234
  540MOL0     H72871   4.522  -0.909   2.702 -0.0859 -1.1618 -1.4806
  540MOL0     H72872   4.303  -0.792   2.664  5.2939  1.7470 -0.0523
  540MOL0     H72873   4.327  -0.766   2.828  3.2929  1.4761 -1.6810
  540MOL0     H72874   4.158  -0.979   2.691  3.2692 -0.3316  0.0649
  540MOL0     H72875   4.181  -0.997   2.865 -1.5042 -0.1221 -0.1222
  540MOL0     H72876   4.093  -0.766   2.896  2.8942 -0.3267 -1.1669
  540MOL0     H72877   3.978  -0.896   2.870 -0.1840  2.3647  4.4311
  540MOL0     H72878   4.103  -0.689   2.688  0.1082  0.3347 -0.0350
  540MOL0     H72879   3.980  -0.807   2.623  2.1785 -0.3073 -0.0840
  540MOL0     H72880   4.680  -0.640   3.286  0.5428  1.3736  1.2420
  540MOL0     H72881   4.876  -0.521   3.326 -4.4688 -3.1173  2.1781
  540MOL0     H72882   5.293  -0.432   3.296 -5.3463 -0.6301  0.0844
  540MOL0     H72883   5.415  -0.250   3.407  1.5678  2.4473 -0.1946
  540MOL0     H72884   6.566   0.255   3.816 -0.0014 -0.6587 -1.6300
  540MOL0     H72885   6.465   0.249   4.060  3.2132 -0.6925 -0.0214
  540MOL0     H72886   6.383   0.133   4.378 -2.1807  0.3951 -3.8904
  540MOL0     H72887   6.369   0.184   4.617  1.0935 -1.1485 -0.4579
  540MOL0     H72888   6.018   0.118   4.755  0.9980 -0.2555  1.0864
  540MOL0     H72889   5.962   0.282   4.789 -1.2874 -0.4744  1.2714
  540MOL0     H72890   6.146   0.106   4.938  1.7835  0.8851  2.4160
  540MOL0     H72891   5.967   0.132   4.961 -0.9833  1.8242 -0.3739
  540MOL0     H72892   6.001   0.363   5.037  0.0083 -0.7607  0.0214
  540MOL0     H72893   6.155   0.372   4.965  1.1843 -0.6993  0.7056
  540MOL0     H72894   6.234   0.216   5.184  0.6261 -1.1224 -0.8626
  540MOL0     H72895   6.159   0.366   5.225 -2.5852  1.8582 -4.2731
  540MOL0     H72896   5.857   0.077   5.334  0.3587  1.0412  0.9248
  540MOL0     H72897   5.963   0.301   4.576 -0.1645  0.0193  0.7809
  540MOL0     H72898   5.884   0.153   4.321 -0.4510  0.0923 -0.0566
  540MOL0     H72899   5.861   0.327   4.347  1.5678  1.2660 -1.5974
  540MOL0     H72900   5.939   0.272   4.204 -3.6354 -2.0164 -1.4983
  541MOL0     O72901  10.951   4.663   9.398  0.5864  0.3403  0.4153
  541MOL0     C72902  10.910   4.601   9.493  0.9796 -0.7099  0.3955
  541MOL0     O72903  10.912   4.461   9.510 -0.2708 -0.5324  0.4358
  541MOL0     C72904  10.906   4.366   9.408  0.5244 -0.5194  0.7075
  541MOL0     C72905  10.823   4.392   9.297 -0.2455 -0.1182 -0.0833
  541MOL0     C72906  10.794   4.290   9.207 -1.2841 -0.4708  0.2371
  541MOL0     C72907  10.833   4.158   9.232 -0.0808 -0.0919  0.1631
  541MOL0     O72908  10.788   4.056   9.149 -1.2284  0.0305  0.3974
  541MOL0     C72909  10.891   3.962   9.117 -0.0131 -0.7611  0.0401
  541MOL0     C72910  10.842   3.893   8.990  0.0978 -0.0332  0.5503
  541MOL0     C72911  10.944   3.782   8.947 -0.4705 -0.3745  0.4354
  541MOL0     C72912  10.867   3.689   8.854  0.3452  0.0179  0.1784
  541MOL0     C72913  10.916   3.548   8.859  0.2016 -0.1034 -0.8392
  541MOL0     C72914  10.842   3.464   8.755 -0.5375 -0.5300  0.1496
  541MOL0     C72915  10.919   3.332   8.734  0.3190  0.4561  1.2946
  541MOL0     C72916  10.917   3.224   8.841  0.1848 -0.3124 -0.5874
  541MOL0     N72917  10.796   3.196   8.906  0.8013 -0.2643  0.2923
  541MOL0     C72918  10.788   3.152   9.034  0.4456  0.8742 -0.1104
  541MOL0     C72919  10.650   3.138   9.050  0.0084 -0.5673  1.2089
  541MOL0     C72920  10.604   3.092   9.181  0.3913  0.3423 -0.5350
  541MOL0     C72921  10.628   2.947   9.216  0.1951 -0.2972  0.0618
  541MOL0     C72922  10.642   2.901   9.356  0.4800  0.2936  0.2706
  541MOL0     C72923  10.755   2.959   9.444  0.4844  0.2221 -0.3543
  541MOL0     O72924  10.864   2.868   9.460  0.1089  0.1820 -0.0936
  541MOL0     C72925  10.977   2.895   9.541  0.1091 -0.0180  0.8716
  541MOL0     C72926  10.998   3.004   9.615 -1.0663  0.0996 -0.2191
  541MOL0     C72927  11.106   3.015   9.698  0.8109  0.4504  0.1953
  541MOL0     C72928  11.208   2.917   9.693  0.2390  0.8756  0.2307
  541MOL0     C72929  11.318   2.925   9.791 -0.0195  0.4959 -0.0894
  541MOL0     O72930  11.315   3.034   9.873 -0.0853 -0.1390 -0.2727
  541MOL0     C72931  11.428   3.068   9.946 -0.5561  0.8128  0.2388
  541MOL0     C72932  11.532   3.128   9.880 -0.3289  0.0243  0.0657
  541MOL0     C72933  11.639   3.172   9.962  0.0239  0.2306  0.0945
  541MOL0     C72934  11.638   3.143  10.102  0.0529 -0.8410  0.7174
  541MOL0     O72935  11.726   3.189  10.197 -0.3679  0.1599  0.1979
  541MOL0     C72936  11.743   3.332  10.209  0.2106 -0.0681 -0.5306
  541MOL0     C72937  11.880   3.384  10.160  0.7790 -0.1910 -0.4437
  541MOL0     C72938  11.991   3.295  10.213  0.3394  0.3104  0.5629
  541MOL0     C72939  12.127   3.352  10.171 -0.0395 -0.7384 -0.2960
  541MOL0     C72940  12.160   3.311  10.034 -0.4840  0.0842  0.3033
  541MOL0     C72941  12.301   3.368  10.006 -0.1534 -0.5558  0.1819
  541MOL0     C72942  12.353   3.305   9.874  0.3782 -0.5712  0.1035
  541MOL0     C72943  12.501   3.309   9.875  0.0312  1.0452 -0.0960
  541MOL0    Cl72944  12.553   3.178   9.981 -0.0211  0.1103  0.2885
  541MOL0     C72945  11.530   3.075  10.156 -0.3213  0.4124 -1.7986
  541MOL0     C72946  11.417   3.034  10.080 -0.1615  0.4724 -1.5932
  541MOL0     O72947  11.413   2.847   9.780 -0.1675 -0.0012  0.5855
  541MOL0     C72948  11.190   2.801   9.609 -0.0330  0.5317 -0.8506
  541MOL0     C72949  11.074   2.795   9.537  1.2783 -0.4014  1.0231
  541MOL0     N72950  10.587   3.170   8.929  0.3991  0.0273 -0.2776
  541MOL0     N72951  10.668   3.226   8.849 -0.9370  0.5732  0.2872
  541MOL0     C72952  10.911   4.137   9.345  0.2266 -0.6633 -0.6095
  541MOL0     C72953  10.954   4.242   9.424  0.1669 -0.7035 -1.1327
  541MOL0     C72954  10.876   4.679   9.623 -0.9069  0.9368  1.2005
  541MOL0     C72955  10.880   4.612   9.744  0.0821 -0.1572  0.2401
  541MOL0     C72956  10.860   4.678   9.864  1.2979 -0.3599 -0.5771
  541MOL0     C72957  10.832   4.806   9.869  0.0360  0.2378  1.0656
  541MOL0     O72958  10.790   4.872   9.977 -0.0359 -0.5532 -0.5123
  541MOL0     C72959  10.857   4.862  10.107  0.1098  0.3106  1.6960
  541MOL0     C72960  10.790   4.927  10.223 -0.0159  0.2206 -0.7701
  541MOL0     C72961  10.897   4.999  10.309 -0.1305  0.6613 -0.1534
  541MOL0     C72962  10.908   5.147  10.277  0.5374  0.1327 -0.5448
  541MOL0     C72963  11.032   5.187  10.343 -0.9659 -0.2195 -0.5197
  541MOL0     C72964  11.122   5.243  10.405  1.1250 -0.9308  0.3756
  541MOL0     C72965  10.827   4.878   9.749 -0.6016 -1.0209 -0.6525
  541MOL0     C72966  10.857   4.817   9.626  0.4385 -0.2235 -0.5747
  541MOL0     C72967  10.859   4.911   9.503  0.4642 -0.3863  0.2553
  541MOL0     H72968  10.772   4.487   9.283  1.5151  1.1723  1.7143
  541MOL0     H72969  10.720   4.318   9.133 -0.0095  3.2109  0.1473
  541MOL0     H72970  10.980   4.014   9.079  1.0486 -1.9248  0.8421
  541MOL0     H72971  10.922   3.902   9.202 -2.3306  0.9605  2.2498
  541MOL0     H72972  10.839   3.964   8.907  1.0531 -0.3284  0.2478
  541MOL0     H72973  10.739   3.858   9.000 -0.2300 -0.1612 -2.2548
  541MOL0     H72974  10.968   3.730   9.040 -2.7888  1.0094  1.9106
  541MOL0     H72975  11.028   3.820   8.887 -2.8629  2.0119 -1.6268
  541MOL0     H72976  10.764   3.678   8.889 -0.9363  0.3442 -3.0852
  541MOL0     H72977  10.872   3.715   8.748  0.6556  1.5770  0.5487
  541MOL0     H72978  11.026   3.548   8.862  0.2875  2.9753  0.1374
  541MOL0     H72979  10.895   3.506   8.958  1.2027  0.4145 -0.3829
  541MOL0     H72980  10.736   3.451   8.781 -0.9735  1.5340 -0.3185
  541MOL0     H72981  10.855   3.528   8.667 -0.3751  1.2978  1.4461
  541MOL0     H72982  11.022   3.329   8.696 -0.4845 -0.2108 -0.9750
  541MOL0     H72983  10.859   3.305   8.646 -0.4016  1.5399  1.4237
  541MOL0     H72984  10.952   3.126   8.805 -1.1934 -0.6875 -0.9668
  541MOL0     H72985  10.991   3.256   8.916  0.8138  1.4079 -1.8881
  541MOL0     H72986  10.856   3.123   9.113 -2.9485 -3.6177  1.5716
  541MOL0     H72987  10.664   3.139   9.259  1.8898 -0.0471 -1.4136
  541MOL0     H72988  10.498   3.117   9.190  0.3131  0.7739 -2.3358
  541MOL0     H72989  10.553   2.885   9.167  0.7594 -1.3107  0.4300
  541MOL0     H72990  10.726   2.930   9.169  1.5472  0.3128  2.4942
  541MOL0     H72991  10.661   2.793   9.351  2.2979  0.6355 -1.1411
  541MOL0     H72992  10.545   2.929   9.399  0.4087 -0.9207  0.9662
  541MOL0     H72993  10.720   2.996   9.541  1.7908  0.8055 -0.0727
  541MOL0     H72994  10.799   3.053   9.408 -2.5708  2.9001  2.1934
  541MOL0     H72995  10.928   3.087   9.622 -2.3140 -0.3947 -4.3784
  541MOL0     H72996  11.119   3.102   9.762 -2.1815  1.5802 -0.5731
  541MOL0     H72997  11.534   3.158   9.776  3.6297  0.1573  0.0198
  541MOL0     H72998  11.722   3.233   9.929  0.7795  0.7455  2.6702
  541MOL0     H72999  11.658   3.381  10.160  1.2814  2.3848 -0.1027
  541MOL0     H73000  11.738   3.362  10.314  1.1644  2.1955 -1.0626
  541MOL0     H73001  11.885   3.389  10.051 -1.5477  0.9580 -0.5616
  541MOL0     H73002  11.890   3.487  10.194  0.9803 -0.4313  0.2397
  541MOL0     H73003  11.983   3.300  10.322  3.5747 -1.7572  1.0087
  541MOL0     H73004  11.986   3.192  10.177 -6.1394  0.1601  0.5665
  541MOL0     H73005  12.205   3.328  10.244  0.3899  0.3462 -0.3885
  541MOL0     H73006  12.124   3.461  10.176  0.7492 -0.7740  2.2640
  541MOL0     H73007  12.092   3.352   9.959  0.4084 -0.5221 -0.8555
  541MOL0     H73008  12.159   3.202  10.026 -3.4669 -0.0117  0.5748
  541MOL0     H73009  12.297   3.476   9.991  3.5516 -0.3261 -0.0683
  541MOL0     H73010  12.372   3.339  10.084 -0.0036 -0.3507  0.1228
  541MOL0     H73011  12.319   3.374   9.797 -0.0448  1.1683  1.7739
  541MOL0     H73012  12.321   3.201   9.863 -2.0168 -0.1746  2.2058
  541MOL0     H73013  12.545   3.301   9.775 -0.4968 -2.2205 -0.1984
  541MOL0     H73014  12.519   3.409   9.915 -1.6775  0.9407  1.0569
  541MOL0     H73015  11.554   3.045  10.258 -2.1339  1.9016 -0.8633
  541MOL0     H73016  11.325   2.985  10.110  0.4044  0.4065  0.1284
  541MOL0     H73017  11.266   2.725   9.603  0.8362  1.4590 -2.1891
  541MOL0     H73018  11.067   2.716   9.463  0.7204 -0.0374  0.6734
  541MOL0     H73019  10.931   4.040   9.389  1.8387  0.1510  0.5517
  541MOL0     H73020  10.997   4.209   9.519 -2.8952 -0.2557  0.5542
  541MOL0     H73021  10.889   4.504   9.741  2.3851  0.0040 -1.5332
  541MOL0     H73022  10.865   4.625   9.959 -3.8806 -1.0395 -0.3724
  541MOL0     H73023  10.952   4.911  10.084  1.0475 -2.3248 -0.6232
  541MOL0     H73024  10.881   4.759  10.135 -1.1863 -0.2113  0.9688
  541MOL0     H73025  10.737   4.848  10.277  1.8790 -0.9154 -0.4709
  541MOL0     H73026  10.707   4.994  10.198 -1.6250 -2.2215 -2.3931
  541MOL0     H73027  10.993   4.947  10.305  0.7564  2.1856  0.2253
  541MOL0     H73028  10.860   5.010  10.411  1.4640 -0.8278  0.6118
  541MOL0     H73029  10.924   5.158  10.169  0.2413 -0.1384 -0.6175
  541MOL0     H73030  10.827   5.212  10.311  2.1872  2.0783 -0.1306
  541MOL0     H73031  11.188   5.279  10.482 -0.5521 -0.6834  1.7779
  541MOL0     H73032  10.807   4.984   9.763  2.4072  0.1853 -3.9954
  541MOL0     H73033  10.834   5.013   9.532 -0.1607 -1.3659  3.6584
  541MOL0     H73034  10.962   4.897   9.468 -0.0674  0.3307 -1.7106
  541MOL0     H73035  10.789   4.876   9.427  1.7029 -3.8867  0.4972
  542MOL0     O73036   4.421   8.008   8.980  0.3441 -0.4294 -0.6851
  542MOL0     C73037   4.516   7.992   8.904 -1.6286 -0.2824  0.4867
  542MOL0     O73038   4.601   7.886   8.915 -0.1790  1.2411  0.1395
  542MOL0     C73039   4.578   7.792   9.021 -0.8773  0.7372 -0.7111
  542MOL0     C73040   4.673   7.791   9.131 -1.5945  0.1841 -1.2177
  542MOL0     C73041   4.671   7.698   9.227 -0.4424  0.7328  0.2476
  542MOL0     C73042   4.558   7.611   9.233 -0.1653  0.0678  0.8521
  542MOL0     O73043   4.539   7.536   9.340 -0.1183 -0.8867 -0.3986
  542MOL0     C73044   4.511   7.395   9.325  0.8199 -1.3367 -0.4732
  542MOL0     C73045   4.482   7.318   9.458 -0.3405  0.0261  0.7962
  542MOL0     C73046   4.486   7.168   9.439 -0.6513  0.4998 -0.1672
  542MOL0     C73047   4.369   7.115   9.354  0.5952 -0.2566 -0.5434
  542MOL0     C73048   4.262   7.061   9.448  0.2572 -0.6817  0.4888
  542MOL0     C73049   4.131   7.068   9.377  1.8854 -0.3077  0.1920
  542MOL0     C73050   4.008   7.037   9.454  0.5948  0.0997 -0.0956
  542MOL0     C73051   3.893   7.057   9.354 -1.4189 -0.2513 -0.7421
  542MOL0     N73052   3.890   6.982   9.231 -0.0063  0.1461  0.0992
  542MOL0     C73053   3.844   6.857   9.203  0.8258 -0.6248  0.5195
  542MOL0     C73054   3.835   6.843   9.071 -0.2794 -0.4012  0.0880
  542MOL0     C73055   3.789   6.720   8.991 -0.8851 -0.0213  0.4293
  542MOL0     C73056   3.646   6.678   9.015 -0.6845 -0.2320 -0.2634
  542MOL0     C73057   3.598   6.589   8.897 -0.3416  0.0770 -0.1492
  542MOL0     C73058   3.547   6.662   8.773  0.8965  0.4362 -0.4245
  542MOL0     O73059   3.650   6.669   8.673  0.7294 -0.4099 -0.1624
  542MOL0     C73060   3.630   6.771   8.585  0.5031  0.1449  0.3235
  542MOL0     C73061   3.505   6.786   8.510 -0.1755  0.5314  0.3893
  542MOL0     C73062   3.501   6.890   8.410 -0.3508  0.0905  0.3084
  542MOL0     C73063   3.617   6.973   8.386 -0.0329  1.1196  1.0241
  542MOL0     C73064   3.614   7.074   8.276 -0.3878  0.1225 -0.5482
  542MOL0     O73065   3.494   7.081   8.214  0.8170  0.4144 -0.4624
  542MOL0     C73066   3.467   7.189   8.135 -0.8146  0.6246 -0.4438
  542MOL0     C73067   3.409   7.305   8.188  0.3376 -1.1725  0.0888
  542MOL0     C73068   3.373   7.417   8.106 -0.7153  0.8856 -0.1974
  542MOL0     C73069   3.416   7.420   7.972  0.1963  0.2337 -0.2116
  542MOL0     O73070   3.385   7.537   7.907 -0.4907  1.1802 -0.1635
  542MOL0     C73071   3.329   7.504   7.782 -0.4039 -1.4092  0.0052
  542MOL0     C73072   3.246   7.620   7.728 -0.3978  0.5480 -0.0348
  542MOL0     C73073   3.325   7.752   7.686 -0.1494  0.6707 -0.1331
  542MOL0     C73074   3.365   7.846   7.804  0.4022 -0.1851 -0.2986
  542MOL0     C73075   3.405   7.984   7.743 -0.0952  0.1591 -0.9150
  542MOL0     C73076   3.426   8.086   7.865 -0.5248 -0.0047  0.2138
  542MOL0     C73077   3.455   8.236   7.819  0.3959 -0.5487  1.0962
  542MOL0     C73078   3.460   8.339   7.928 -0.1198 -0.3095 -0.5633
  542MOL0    Cl73079   3.613   8.314   8.012  0.5074  0.8074 -0.2066
  542MOL0     C73080   3.468   7.301   7.910 -1.0350 -0.8643  0.4243
  542MOL0     C73081   3.484   7.187   7.997  0.1464 -0.2545  0.1251
  542MOL0     O73082   3.714   7.145   8.253  0.7109 -0.0985  0.1164
  542MOL0     C73083   3.734   6.943   8.452 -1.1261 -0.6527 -0.7228
  542MOL0     C73084   3.745   6.845   8.556  0.5162 -0.0704 -0.0148
  542MOL0     N73085   3.864   6.963   9.019  0.3049 -0.6730  0.9991
  542MOL0     N73086   3.917   7.024   9.109  0.3473 -0.0684  0.8681
  542MOL0     C73087   4.459   7.614   9.128  0.1955  0.5805  0.1510
  542MOL0     C73088   4.480   7.701   9.016  0.3651  0.7777 -0.7225
  542MOL0     C73089   4.555   8.098   8.809  0.0811 -0.9330 -1.4205
  542MOL0     C73090   4.691   8.071   8.750  0.2656 -0.3749 -1.3530
  542MOL0     C73091   4.726   8.127   8.631  0.9420 -0.5267  0.8357
  542MOL0     C73092   4.635   8.228   8.587  0.0582 -0.0232  0.3325
  542MOL0     O73093   4.661   8.301   8.468 -0.6529 -0.2094  0.0142
  542MOL0     C73094   4.790   8.290   8.405  0.4466  0.1646  0.1728
  542MOL0     C73095   4.778   8.371   8.274  0.3509  0.2896  0.5451
  542MOL0     C73096   4.908   8.365   8.201 -0.0359  0.7392  0.7133
  542MOL0     C73097   4.926   8.476   8.094  0.2644  0.8115  0.2681
  542MOL0     C73098   4.941   8.608   8.146  0.9705  0.1466  0.1609
  542MOL0     C73099   4.960   8.722   8.192 -0.5229 -0.7049 -0.6404
  542MOL0     C73100   4.519   8.257   8.653 -0.4207 -0.0652 -0.6097
  542MOL0     C73101   4.464   8.198   8.765  0.1351  0.4529 -0.0982
  542MOL0     C73102   4.328   8.228   8.817 -0.0418  0.6135  0.3989
  542MOL0     H73103   4.753   7.864   9.134 -0.3067 -1.1634  1.6643
  542MOL0     H73104   4.739   7.714   9.310 -0.8856 -0.2979  0.8340
  542MOL0     H73105   4.429   7.383   9.253  1.1877  0.9651 -1.3930
  542MOL0     H73106   4.603   7.357   9.279 -0.4029 -2.0234 -2.5002
  542MOL0     H73107   4.386   7.344   9.504  1.6003  1.5860  4.4352
  542MOL0     H73108   4.563   7.347   9.526  0.5449  0.2343 -0.3182
  542MOL0     H73109   4.487   7.118   9.536 -1.4214  1.5221  0.3726
  542MOL0     H73110   4.579   7.143   9.387  0.7001  0.7796  1.9878
  542MOL0     H73111   4.328   7.193   9.290  0.4274 -0.9802 -1.3332
  542MOL0     H73112   4.415   7.044   9.284  0.5758  1.3929 -2.3068
  542MOL0     H73113   4.277   6.957   9.480 -2.5966 -0.9288  1.3280
  542MOL0     H73114   4.258   7.122   9.538 -1.9359  0.9106 -0.6010
  542MOL0     H73115   4.124   7.169   9.335  0.7682 -0.6149 -0.3928
  542MOL0     H73116   4.133   6.995   9.295  0.3727  0.4952 -0.5911
  542MOL0     H73117   3.996   7.095   9.546 -0.5674 -0.5015  0.1530
  542MOL0     H73118   4.016   6.932   9.482  0.7132 -0.3352 -1.6682
  542MOL0     H73119   3.806   7.031   9.416 -0.3093 -0.9140  0.5962
  542MOL0     H73120   3.897   7.165   9.339  2.1967 -0.0079  0.7789
  542MOL0     H73121   3.824   6.777   9.273 -0.0181  0.2046  1.2507
  542MOL0     H73122   3.801   6.746   8.886  3.8651 -2.5437  0.0698
  542MOL0     H73123   3.867   6.647   9.015  1.1417  2.2952  1.2690
  542MOL0     H73124   3.636   6.624   9.110 -2.8445  0.2489 -0.1611
  542MOL0     H73125   3.581   6.766   9.029  0.5623  0.7598 -0.5641
  542MOL0     H73126   3.518   6.539   8.952  1.9214  1.2941  4.7587
  542MOL0     H73127   3.677   6.519   8.868 -0.6693 -0.1162 -0.5872
  542MOL0     H73128   3.499   6.757   8.799  1.0990  0.5349 -0.4071
  542MOL0     H73129   3.466   6.603   8.728  2.0837 -1.3561 -0.3184
  542MOL0     H73130   3.419   6.723   8.531 -0.4554  0.9278  0.4252
  542MOL0     H73131   3.410   6.904   8.353 -0.4296 -3.3911 -0.6155
  542MOL0     H73132   3.382   7.321   8.291  2.3873  0.8569  0.4137
  542MOL0     H73133   3.327   7.512   8.130 -2.3919 -0.0306  0.3991
  542MOL0     H73134   3.416   7.486   7.718 -1.3668  2.6201 -2.7842
  542MOL0     H73135   3.256   7.426   7.805 -1.3457  0.1731  2.7835
  542MOL0     H73136   3.201   7.567   7.643  2.0385 -0.1466 -0.9495
  542MOL0     H73137   3.164   7.651   7.794  0.0225  1.3120  0.1372
  542MOL0     H73138   3.413   7.706   7.640 -0.8433 -2.0830  1.0459
  542MOL0     H73139   3.273   7.800   7.604  0.3543 -1.8387 -2.0564
  542MOL0     H73140   3.439   7.803   7.872 -1.1569 -2.1859  0.2555
  542MOL0     H73141   3.270   7.856   7.857  1.2314 -1.0247  1.4254
  542MOL0     H73142   3.334   8.006   7.663 -0.4224 -2.9282 -1.6226
  542MOL0     H73143   3.501   7.989   7.691 -0.4676  1.6962 -1.5080
  542MOL0     H73144   3.336   8.075   7.926 -2.3358  0.9805 -2.1019
  542MOL0     H73145   3.514   8.048   7.916  0.9097  0.8921 -1.4666
  542MOL0     H73146   3.378   8.272   7.749  0.9543  2.7554  2.0169
  542MOL0     H73147   3.548   8.246   7.762 -0.6395 -3.4813 -1.3965
  542MOL0     H73148   3.462   8.446   7.907  1.7993  0.3599  2.4075
  542MOL0     H73149   3.376   8.336   7.998 -0.9604 -0.2929 -1.5397
  542MOL0     H73150   3.483   7.289   7.803 -0.4935  1.0810  0.2375
  542MOL0     H73151   3.517   7.089   7.962 -0.9862 -1.9030  3.3024
  542MOL0     H73152   3.826   6.996   8.430 -0.6424 -1.9157 -1.8558
  542MOL0     H73153   3.841   6.837   8.605  0.6655 -2.2199 -0.5430
  542MOL0     H73154   4.372   7.549   9.129 -0.5066  1.5065  0.2088
  542MOL0     H73155   4.414   7.697   8.930 -0.4929  0.3426 -0.0633
  542MOL0     H73156   4.764   8.000   8.787  1.7857  1.6910 -0.2191
  542MOL0     H73157   4.819   8.090   8.587 -0.2845 -1.1318 -1.3869
  542MOL0     H73158   4.810   8.191   8.363  1.5496  1.5671 -2.9311
  542MOL0     H73159   4.877   8.322   8.463 -1.3546  1.4048  2.3358
  542MOL0     H73160   4.757   8.476   8.299 -1.4009  0.1085 -0.0794
  542MOL0     H73161   4.695   8.336   8.212 -0.9097  1.0690  1.7336
  542MOL0     H73162   4.904   8.269   8.148 -4.9229  0.6739  0.6985
  542MOL0     H73163   4.991   8.364   8.272 -0.4785 -3.3758  1.4210
  542MOL0     H73164   5.000   8.455   8.016 -0.1206 -0.3745  0.2168
  542MOL0     H73165   4.839   8.473   8.028  0.4819  2.4097 -0.1387
  542MOL0     H73166   4.999   8.817   8.222 -1.7266 -0.8384  1.5962
  542MOL0     H73167   4.461   8.333   8.600 -1.4731 -0.9788 -0.8002
  542MOL0     H73168   4.345   8.266   8.919 -0.5027  3.0953 -0.3843
  542MOL0     H73169   4.282   8.312   8.764  0.0528  1.0833  1.0450
  542MOL0     H73170   4.263   8.144   8.792  0.8148  0.4227 -1.3176
  543MOL0     O73171   8.009   5.521   7.589 -0.0336  0.6390 -0.2908
  543MOL0     C73172   7.961   5.449   7.497 -1.1368 -0.6048  0.7249
  543MOL0     O73173   7.921   5.321   7.509 -0.2354  0.6388 -0.1628
  543MOL0     C73174   7.993   5.226   7.584  0.0928  0.0819  0.8849
  543MOL0     C73175   8.111   5.242   7.662 -0.2382 -0.3672 -0.0048
  543MOL0     C73176   8.184   5.137   7.720  0.5003  0.2766  0.1313
  543MOL0     C73177   8.117   5.007   7.716 -0.3901 -0.1099 -0.6716
  543MOL0     O73178   8.179   4.910   7.794  0.7889 -0.0025  0.5182
  543MOL0     C73179   8.101   4.806   7.858  0.7013  0.8646 -0.3889
  543MOL0     C73180   8.162   4.676   7.835  0.2562  0.5262  0.6622
  543MOL0     C73181   8.277   4.648   7.926 -0.3825  0.0399  0.6660
  543MOL0     C73182   8.256   4.667   8.071  0.3532 -0.3871  0.0525
  543MOL0     C73183   8.374   4.609   8.158  0.1833  0.3603 -0.3485
  543MOL0     C73184   8.482   4.713   8.185  0.1103  0.2095  0.5915
  543MOL0     C73185   8.618   4.636   8.176 -0.0903  0.1721 -0.1997
  543MOL0     C73186   8.735   4.717   8.224  0.0964 -0.7260 -0.1479
  543MOL0     N73187   8.729   4.744   8.363 -0.6834 -0.2707  0.1913
  543MOL0     C73188   8.719   4.865   8.426 -1.2071 -0.0651  0.3858
  543MOL0     C73189   8.673   4.838   8.552  0.1437 -0.3634 -0.0227
  543MOL0     C73190   8.632   4.935   8.655  0.4916  0.2408  1.0931
  543MOL0     C73191   8.516   5.023   8.610 -0.3254 -0.4151  0.2783
  543MOL0     C73192   8.458   5.112   8.726 -0.0216  0.3537  0.2429
  543MOL0     C73193   8.556   5.220   8.783  0.1511  0.7912  0.1469
  543MOL0     O73194   8.491   5.307   8.876 -0.5893 -0.5859 -0.5100
  543MOL0     C73195   8.507   5.303   9.011  0.6757  0.6782 -0.7895
  543MOL0     C73196   8.547   5.182   9.065 -0.6972  0.4493 -0.9466
  543MOL0     C73197   8.566   5.181   9.204  0.5157  0.9016  0.4623
  543MOL0     C73198   8.545   5.291   9.285  0.4198 -0.1098 -0.2942
  543MOL0     C73199   8.570   5.290   9.429  0.1484 -0.0170 -0.5786
  543MOL0     O73200   8.533   5.402   9.507  0.0834 -0.5379  0.0894
  543MOL0     C73201   8.535   5.388   9.646 -0.6755  0.0034 -0.0277
  543MOL0     C73202   8.579   5.491   9.729 -0.5987  0.3067  0.3468
  543MOL0     C73203   8.592   5.470   9.865  0.4692 -1.0945  0.2048
  543MOL0     C73204   8.553   5.346   9.920  0.4430  0.3635  1.1160
  543MOL0     O73205   8.567   5.351  10.055  0.6743  0.0354  0.1617
  543MOL0     C73206   8.559   5.239  10.140 -0.6106 -0.0487  0.0400
  543MOL0     C73207   8.577   5.275  10.284  1.3924 -0.1459  0.2989
  543MOL0     C73208   8.726   5.307  10.306  0.0662  1.0986 -1.1413
  543MOL0     C73209   8.757   5.364  10.445  0.0528  0.1810 -0.6974
  543MOL0     C73210   8.894   5.329  10.493 -0.1481  0.0479  0.4177
  543MOL0     C73211   8.933   5.412  10.616  0.0964 -0.3428 -0.0122
  543MOL0     C73212   9.065   5.373  10.674 -0.8035 -0.3304 -0.7182
  543MOL0     C73213   9.123   5.452  10.788  0.2135 -0.6269  0.5605
  543MOL0    Cl73214   9.296   5.407  10.817 -0.7968 -0.1085  0.2154
  543MOL0     C73215   8.508   5.237   9.840  0.3897 -0.0398 -0.5638
  543MOL0     C73216   8.499   5.266   9.711  0.1145 -1.2806  0.1667
  543MOL0     O73217   8.635   5.193   9.468 -0.4661 -0.1866 -0.2288
  543MOL0     C73218   8.492   5.404   9.226 -0.2907 -0.3907  0.1886
  543MOL0     C73219   8.479   5.409   9.089  0.1102  0.2295  0.0382
  543MOL0     N73220   8.688   4.712   8.580  0.4388 -0.3109  1.2353
  543MOL0     N73221   8.719   4.657   8.465  0.3405  0.1751 -0.3774
  543MOL0     C73222   8.007   4.988   7.627 -0.3038 -0.1866  0.2805
  543MOL0     C73223   7.936   5.098   7.570  0.0755 -0.4220  0.1371
  543MOL0     C73224   7.938   5.519   7.370  0.3269 -0.5307  0.2490
  543MOL0     C73225   7.846   5.458   7.273 -1.0831  0.1671 -0.6993
  543MOL0     C73226   7.823   5.512   7.149  0.6188 -0.8212  0.4570
  543MOL0     C73227   7.871   5.640   7.123 -0.0552  0.4390 -0.6108
  543MOL0     O73228   7.820   5.716   7.016 -0.2676  0.3873 -0.1116
  543MOL0     C73229   7.715   5.652   6.943 -0.4422 -0.2740  0.7127
  543MOL0     C73230   7.686   5.753   6.822  0.3391  0.3766 -0.5073
  543MOL0     C73231   7.636   5.887   6.859 -0.6382  0.3968 -0.4136
  543MOL0     C73232   7.662   5.995   6.757 -0.0971  0.3911  0.1569
  543MOL0     C73233   7.550   5.993   6.658 -0.3799  0.4808  1.1309
  543MOL0     C73234   7.464   5.964   6.579  1.1749  0.6093  0.4729
  543MOL0     C73235   7.943   5.705   7.214  0.2477  0.6941 -0.4127
  543MOL0     C73236   7.986   5.644   7.333 -0.6575  0.0102 -0.1812
  543MOL0     C73237   8.073   5.740   7.420 -0.0460  0.2681  0.4517
  543MOL0     H73238   8.171   5.332   7.669  1.4336 -1.4055 -0.2011
  543MOL0     H73239   8.271   5.143   7.785 -1.3600 -4.6269  3.6284
  543MOL0     H73240   8.086   4.825   7.964  0.1889  1.3465 -0.5460
  543MOL0     H73241   8.003   4.804   7.808  2.0620 -0.9374 -3.2596
  543MOL0     H73242   8.202   4.661   7.735  2.8563 -0.6007  1.7903
  543MOL0     H73243   8.083   4.602   7.853  1.4719 -0.6795  1.1507
  543MOL0     H73244   8.365   4.709   7.903 -0.8394  0.9573  1.2851
  543MOL0     H73245   8.314   4.546   7.919  1.7493  0.7806  0.3720
  543MOL0     H73246   8.240   4.769   8.108 -2.3999 -1.4629  2.2646
  543MOL0     H73247   8.166   4.616   8.107  1.3426 -2.5103 -0.3396
  543MOL0     H73248   8.340   4.597   8.261 -0.5197 -0.1624 -0.6330
  543MOL0     H73249   8.407   4.515   8.111 -3.4425 -0.6223 -1.2327
  543MOL0     H73250   8.476   4.796   8.114  0.3025 -1.5284 -1.5872
  543MOL0     H73251   8.468   4.758   8.284  0.4694 -1.6891  1.5589
  543MOL0     H73252   8.641   4.611   8.072 -1.3272 -0.5813 -0.3170
  543MOL0     H73253   8.606   4.545   8.236  6.9051 -0.2557  1.3679
  543MOL0     H73254   8.818   4.646   8.221  0.5247 -0.3145  1.2996
  543MOL0     H73255   8.751   4.809   8.166  4.5820 -0.5687  0.9868
  543MOL0     H73256   8.738   4.959   8.376  1.8509  0.0726  1.6021
  543MOL0     H73257   8.613   4.882   8.749  0.7735  0.8512  1.5070
  543MOL0     H73258   8.722   4.997   8.661 -0.1598  1.1024  3.4738
  543MOL0     H73259   8.545   5.090   8.529 -3.0010 -1.7544 -1.9839
  543MOL0     H73260   8.434   4.962   8.569  1.9531 -2.2960 -1.7501
  543MOL0     H73261   8.426   5.047   8.808  0.0835 -1.0487 -0.7949
  543MOL0     H73262   8.378   5.175   8.688 -0.3828  0.4830  1.1881
  543MOL0     H73263   8.603   5.284   8.708  3.0927  1.0187  2.0186
  543MOL0     H73264   8.639   5.157   8.816 -1.7812 -3.7059 -2.6300
  543MOL0     H73265   8.566   5.086   9.017 -0.2803 -0.3997  0.8434
  543MOL0     H73266   8.615   5.096   9.251 -0.4962 -1.2736 -2.1321
  543MOL0     H73267   8.611   5.586   9.687  1.8371 -1.9110 -3.3738
  543MOL0     H73268   8.616   5.556   9.926 -1.8669  0.4122 -0.8835
  543MOL0     H73269   8.464   5.186  10.128 -0.7075  0.3270 -1.0139
  543MOL0     H73270   8.637   5.165  10.123 -1.0499 -0.4864 -0.0980
  543MOL0     H73271   8.517   5.363  10.309  0.9888  0.0590 -1.3129
  543MOL0     H73272   8.561   5.186  10.345  1.9886 -0.8297 -0.5249
  543MOL0     H73273   8.775   5.209  10.306 -1.6658  0.1109  1.8875
  543MOL0     H73274   8.761   5.366  10.220 -2.3112  2.3330 -1.3680
  543MOL0     H73275   8.690   5.311  10.512 -0.2692  1.8319  0.3186
  543MOL0     H73276   8.739   5.472  10.447  1.1454  0.5231 -3.6594
  543MOL0     H73277   8.962   5.353  10.411  1.3130  1.3157  1.9085
  543MOL0     H73278   8.890   5.225  10.526 -2.6066 -0.4322 -1.1291
  543MOL0     H73279   8.922   5.516  10.585 -0.4282 -0.2496  0.4578
  543MOL0     H73280   8.865   5.395  10.700  2.8115  3.2534  3.2169
  543MOL0     H73281   9.132   5.390  10.590 -2.7064  0.9534 -2.0623
  543MOL0     H73282   9.063   5.273  10.719 -2.4358  0.6521  1.6260
  543MOL0     H73283   9.133   5.560  10.771  2.3269 -0.4463  2.3995
  543MOL0     H73284   9.068   5.440  10.882  0.8810  0.3931  1.1098
  543MOL0     H73285   8.463   5.146   9.878 -0.3245  2.1782  4.6711
  543MOL0     H73286   8.459   5.185   9.651  1.4204 -1.7153 -0.1397
  543MOL0     H73287   8.464   5.487   9.290 -0.9948 -1.6424  1.5783
  543MOL0     H73288   8.448   5.503   9.046  2.4488  1.1324  0.1933
  543MOL0     H73289   7.967   4.888   7.617  1.7055 -0.8834 -1.6569
  543MOL0     H73290   7.847   5.086   7.508 -0.2475  2.2810 -0.0571
  543MOL0     H73291   7.805   5.361   7.299 -1.4378  0.1428 -1.3379
  543MOL0     H73292   7.760   5.447   7.089  0.3511 -0.3609  0.2362
  543MOL0     H73293   7.622   5.647   7.001  0.5272 -1.1021  2.2762
  543MOL0     H73294   7.737   5.552   6.905 -2.4604 -1.9086  3.4435
  543MOL0     H73295   7.610   5.696   6.769 -0.0904  0.1756  0.3075
  543MOL0     H73296   7.771   5.768   6.755 -0.5583  0.7317 -1.5783
  543MOL0     H73297   7.682   5.921   6.953  0.4763 -2.0386 -0.0025
  543MOL0     H73298   7.528   5.884   6.876 -1.0785  1.3147 -2.7023
  543MOL0     H73299   7.670   6.081   6.823  2.2371 -1.6868  2.8057
  543MOL0     H73300   7.764   5.983   6.720  1.5605  1.3208  4.0023
  543MOL0     H73301   7.390   5.936   6.507  0.0816 -0.0595  1.8167
  543MOL0     H73302   7.970   5.803   7.177  0.4324  0.5086 -0.7697
  543MOL0     H73303   8.171   5.701   7.449 -1.2722 -0.7891  3.6451
  543MOL0     H73304   8.100   5.831   7.365  0.2104 -0.4646 -0.6507
  543MOL0     H73305   8.017   5.775   7.507 -0.8976  3.6805 -1.3000
  544MOL0     O73306   6.479   6.871   3.070  0.0228 -1.3658 -0.1452
  544MOL0     C73307   6.400   6.783   3.072  0.7134 -0.5949 -0.6497
  544MOL0     O73308   6.340   6.728   3.181 -0.4919 -0.1503 -0.2260
  544MOL0     C73309   6.354   6.786   3.298  0.5084 -0.4231  0.4112
  544MOL0     C73310   6.233   6.781   3.371 -1.2254 -0.0646 -0.3518
  544MOL0     C73311   6.244   6.815   3.511  1.3529 -0.3259 -0.0545
  544MOL0     C73312   6.362   6.842   3.574 -0.2078  0.3506 -0.1078
  544MOL0     O73313   6.356   6.865   3.705  0.2001 -0.1384 -0.4868
  544MOL0     C73314   6.478   6.912   3.770  0.4722  0.5394 -0.4402
  544MOL0     C73315   6.472   7.061   3.742 -0.4310  0.1466 -1.1799
  544MOL0     C73316   6.622   7.110   3.745 -0.2095  0.4221 -0.3810
  544MOL0     C73317   6.674   7.101   3.890 -0.1815 -0.6466 -0.9786
  544MOL0     C73318   6.808   7.171   3.896  1.0714  0.5694  0.1854
  544MOL0     C73319   6.857   7.177   4.040 -0.0408  0.3279  1.3037
  544MOL0     C73320   6.998   7.235   4.048 -0.2909 -0.3662  0.4879
  544MOL0     C73321   7.059   7.207   4.186 -0.4380 -0.4617 -0.6025
  544MOL0     N73322   7.069   7.067   4.211  0.1211 -0.4580  0.4913
  544MOL0     C73323   6.999   6.999   4.305  0.1319 -0.7806  0.0013
  544MOL0     C73324   7.037   6.866   4.295  0.0865 -0.8136 -0.0301
  544MOL0     C73325   7.000   6.762   4.393 -0.1249 -0.0966 -0.4087
  544MOL0     C73326   6.894   6.657   4.336 -1.1651  0.1063 -1.3539
  544MOL0     C73327   6.738   6.710   4.328 -0.2004 -0.6181 -0.5933
  544MOL0     C73328   6.682   6.737   4.470  0.0161  0.7267 -0.2478
  544MOL0     O73329   6.675   6.616   4.548  0.4957  0.0864 -0.1643
  544MOL0     C73330   6.568   6.618   4.632  0.2612  0.5960  0.1913
  544MOL0     C73331   6.494   6.494   4.647  0.5945 -0.3077 -0.0185
  544MOL0     C73332   6.392   6.486   4.735 -0.5483  0.1026  0.3028
  544MOL0     C73333   6.341   6.603   4.801  0.4817  0.4533 -0.0678
  544MOL0     C73334   6.222   6.600   4.896  1.1309  0.3934  0.0707
  544MOL0     O73335   6.175   6.719   4.930 -0.3018 -0.4185  0.1946
  544MOL0     C73336   6.101   6.754   5.042  0.5389  0.1369  1.1427
  544MOL0     C73337   6.036   6.874   5.036  0.7502  0.2355 -0.4970
  544MOL0     C73338   5.978   6.931   5.153 -0.3446  0.7724 -0.3007
  544MOL0     C73339   5.966   6.864   5.276 -0.8524  0.3957  0.3652
  544MOL0     O73340   5.913   6.927   5.376  0.1078 -0.1116 -0.4628
  544MOL0     C73341   5.788   6.880   5.412  0.2379  0.2358  0.7543
  544MOL0     C73342   5.711   6.970   5.507 -0.7135 -0.2069  0.2112
  544MOL0     C73343   5.769   6.998   5.639  0.0889  0.1328  0.1397
  544MOL0     C73344   5.673   7.086   5.726 -0.1274  0.2166  0.1429
  544MOL0     C73345   5.690   7.231   5.674 -0.4600 -0.0090 -0.6063
  544MOL0     C73346   5.615   7.315   5.760  0.6140 -0.2265  0.2260
  544MOL0     C73347   5.639   7.458   5.703 -0.2001 -0.6510  0.5749
  544MOL0     C73348   5.556   7.565   5.766  0.2071  0.3883  0.5762
  544MOL0    Cl73349   5.627   7.596   5.919  0.1118 -0.0527 -0.2628
  544MOL0     C73350   6.019   6.734   5.275  0.2398 -0.0844 -0.7229
  544MOL0     C73351   6.072   6.682   5.164  0.0939 -0.1746  0.7931
  544MOL0     O73352   6.181   6.488   4.935  0.3412 -0.1330 -0.0508
  544MOL0     C73353   6.421   6.718   4.800 -0.6790  0.3457  0.0239
  544MOL0     C73354   6.529   6.728   4.708 -0.5251 -0.0837  0.0764
  544MOL0     N73355   7.150   6.874   4.209 -0.2250 -0.1802 -0.7378
  544MOL0     N73356   7.176   6.987   4.164 -0.1861 -0.3510 -0.0274
  544MOL0     C73357   6.477   6.854   3.492  0.5098 -0.2977 -0.2510
  544MOL0     C73358   6.472   6.819   3.356  0.2494  0.1675  0.0590
  544MOL0     C73359   6.361   6.725   2.942 -0.2528  0.5277  0.1633
  544MOL0     C73360   6.321   6.592   2.949  0.0475 -1.0397 -0.5185
  544MOL0     C73361   6.276   6.513   2.838 -0.7796 -1.0254 -0.2169
  544MOL0     C73362   6.292   6.576   2.717  0.4998  0.8404 -0.5153
  544MOL0     O73363   6.253   6.527   2.594  0.0040 -0.4065  0.0452
  544MOL0     C73364   6.225   6.390   2.586 -0.2374 -0.2187  0.3400
  544MOL0     C73365   6.190   6.356   2.442 -0.7048  0.6685  0.2003
  544MOL0     C73366   6.049   6.397   2.403  0.2172  0.9928  0.4914
  544MOL0     C73367   6.008   6.345   2.258  0.4295  0.5125  0.3314
  544MOL0     C73368   5.988   6.201   2.250  0.2061  0.3247  0.0159
  544MOL0     C73369   5.972   6.083   2.274  0.0928  0.8945  0.7354
  544MOL0     C73370   6.331   6.709   2.709 -0.2442  0.6761 -0.3074
  544MOL0     C73371   6.365   6.785   2.815 -0.2400 -0.0289 -0.6785
  544MOL0     C73372   6.423   6.928   2.794  0.1594 -0.1453 -0.3193
  544MOL0     H73373   6.141   6.755   3.319 -1.3759 -1.5934  0.6067
  544MOL0     H73374   6.157   6.811   3.576 -0.5128 -1.9714 -2.4347
  544MOL0     H73375   6.468   6.896   3.878 -0.2527  1.9322 -0.2837
  544MOL0     H73376   6.569   6.862   3.735  1.2329  0.8817  0.9962
  544MOL0     H73377   6.422   7.125   3.815 -0.3219 -1.1018  0.0256
  544MOL0     H73378   6.428   7.071   3.643 -1.3207 -0.6614 -0.8800
  544MOL0     H73379   6.626   7.211   3.702  1.9505 -0.0302 -1.3676
  544MOL0     H73380   6.684   7.052   3.676  1.6432  2.1059 -0.2369
  544MOL0     H73381   6.600   7.140   3.960  0.2637 -2.6397  0.7154
  544MOL0     H73382   6.676   6.994   3.916 -3.8973 -0.4938  0.4897
  544MOL0     H73383   6.875   7.128   3.821 -1.8799  0.5513 -2.6442
  544MOL0     H73384   6.796   7.273   3.858  2.6020  0.7180  0.0391
  544MOL0     H73385   6.781   7.229   4.099 -1.0747  2.3317 -1.5401
  544MOL0     H73386   6.862   7.070   4.061  1.3263  0.3587  1.1903
  544MOL0     H73387   6.996   7.345   4.045  3.8855 -0.0611  2.4186
  544MOL0     H73388   7.069   7.205   3.970  0.0579 -2.1996  1.4725
  544MOL0     H73389   7.160   7.248   4.198 -0.6363 -0.5722  2.2029
  544MOL0     H73390   6.995   7.258   4.259  1.0629 -1.2764  1.3902
  544MOL0     H73391   6.919   7.049   4.358  1.2904  1.2129 -0.0187
  544MOL0     H73392   7.092   6.708   4.418 -0.4522 -0.4124  0.1449
  544MOL0     H73393   6.952   6.806   4.481  2.3915 -0.2750  1.1547
  544MOL0     H73394   6.915   6.619   4.236 -1.4999 -1.6536 -0.7778
  544MOL0     H73395   6.884   6.572   4.404 -2.4601  1.6815  0.5554
  544MOL0     H73396   6.679   6.630   4.284 -4.9931  1.1159  1.9747
  544MOL0     H73397   6.741   6.798   4.263 -0.8756 -1.0557 -1.2249
  544MOL0     H73398   6.583   6.783   4.464  0.9588  3.3770  2.1937
  544MOL0     H73399   6.744   6.813   4.519  0.5388  0.5267 -0.5947
  544MOL0     H73400   6.535   6.405   4.600  0.0498 -0.2106 -0.6996
  544MOL0     H73401   6.346   6.387   4.739  3.4553 -2.1833 -2.8773
  544MOL0     H73402   6.037   6.936   4.947 -0.1954  1.1234  0.0867
  544MOL0     H73403   5.942   7.033   5.162 -1.9200  0.1109  1.6646
  544MOL0     H73404   5.727   6.884   5.321  1.7503  1.7919 -0.2410
  544MOL0     H73405   5.800   6.782   5.460  0.2280 -0.4465 -0.5734
  544MOL0     H73406   5.686   7.067   5.464 -0.8429 -1.0147 -1.6318
  544MOL0     H73407   5.615   6.920   5.522  0.3600 -2.0249  1.4982
  544MOL0     H73408   5.796   6.910   5.697  3.5262  2.0931  1.8526
  544MOL0     H73409   5.862   7.055   5.629  0.5560 -0.5680  0.3896
  544MOL0     H73410   5.716   7.077   5.826  0.9642 -4.9404 -0.5225
  544MOL0     H73411   5.571   7.048   5.739 -1.0147  1.9749 -1.1006
  544MOL0     H73412   5.636   7.238   5.579 -2.7465 -1.2690  0.5039
  544MOL0     H73413   5.793   7.268   5.674 -0.6755  0.6433 -2.1396
  544MOL0     H73414   5.510   7.283   5.763  1.0181 -1.5910  0.1000
  544MOL0     H73415   5.670   7.300   5.854 -0.2883 -1.0737  0.6411
  544MOL0     H73416   5.622   7.462   5.595  1.7116 -3.0583  0.0897
  544MOL0     H73417   5.740   7.485   5.734 -0.1050  1.2888 -1.2125
  544MOL0     H73418   5.559   7.653   5.703  2.0348  0.6170  0.9456
  544MOL0     H73419   5.449   7.541   5.772 -0.4137  1.9726 -2.2820
  544MOL0     H73420   6.021   6.698   5.377 -0.3994  0.4473 -0.5169
  544MOL0     H73421   6.109   6.580   5.173 -1.0629 -0.9967 -2.3360
  544MOL0     H73422   6.402   6.804   4.864  2.3727  2.2180 -1.3162
  544MOL0     H73423   6.594   6.815   4.704  0.4712 -0.8524 -1.7368
  544MOL0     H73424   6.576   6.880   3.526  2.1834 -3.3554 -2.3545
  544MOL0     H73425   6.561   6.809   3.295 -1.3167  3.6092 -3.1332
  544MOL0     H73426   6.298   6.539   3.041 -0.7605  0.1509 -0.0012
  544MOL0     H73427   6.241   6.410   2.844 -2.8082 -0.5893 -2.8708
  544MOL0     H73428   6.153   6.350   2.658 -0.7212  1.7416  1.0209
  544MOL0     H73429   6.323   6.352   2.614 -0.3333  1.1625  2.8119
  544MOL0     H73430   6.219   6.251   2.430 -2.8890 -0.2314  1.9970
  544MOL0     H73431   6.247   6.412   2.368 -3.4925 -0.7945 -3.3644
  544MOL0     H73432   6.051   6.507   2.402 -1.1450  1.0860 -2.2474
  544MOL0     H73433   5.981   6.361   2.481  2.7103  2.2355  3.4400
  544MOL0     H73434   5.915   6.400   2.239  0.7772  0.6638 -1.0348
  544MOL0     H73435   6.097   6.359   2.196  2.6286 -2.3085  2.5729
  544MOL0     H73436   5.941   5.982   2.293  2.5072 -0.3389 -1.3283
  544MOL0     H73437   6.345   6.745   2.608 -0.2911 -0.7951 -0.8648
  544MOL0     H73438   6.409   6.957   2.689 -3.4857 -0.9979 -0.1816
  544MOL0     H73439   6.389   7.014   2.852  3.6896  1.1870  0.0440
  544MOL0     H73440   6.530   6.925   2.819  0.1676 -0.1377 -0.3536
  545MOL0     O73441   5.549   6.273   7.275  0.7324 -0.7072  0.8294
  545MOL0     C73442   5.666   6.222   7.296  1.0510 -0.6394  0.2869
  545MOL0     O73443   5.734   6.235   7.422 -0.2424 -0.2272  0.1765
  545MOL0     C73444   5.670   6.328   7.510  0.5992  0.1822  0.7315
  545MOL0     C73445   5.561   6.298   7.577  0.5724 -0.6667 -0.1854
  545MOL0     C73446   5.480   6.402   7.642  0.7330  0.3968  0.5742
  545MOL0     C73447   5.531   6.528   7.637 -0.4254 -0.4404 -1.0317
  545MOL0     O73448   5.462   6.626   7.702  0.5646 -0.1874 -0.4394
  545MOL0     C73449   5.515   6.622   7.835 -0.0125  0.3622  0.5309
  545MOL0     C73450   5.430   6.709   7.929  0.0069  0.1970 -0.3246
  545MOL0     C73451   5.499   6.719   8.066  0.6323  0.8103 -1.2574
  545MOL0     C73452   5.427   6.797   8.178 -0.7232  0.3438  1.1617
  545MOL0     C73453   5.524   6.868   8.273  0.0644  0.4915 -0.8252
  545MOL0     C73454   5.574   6.776   8.382  0.0573 -0.1770  0.5858
  545MOL0     C73455   5.703   6.704   8.351 -0.8597  0.0038 -0.7935
  545MOL0     C73456   5.828   6.788   8.360  0.2753 -0.1416  0.2930
  545MOL0     N73457   5.932   6.711   8.299 -0.1700 -0.2255 -0.5285
  545MOL0     C73458   6.054   6.689   8.365  1.3679  0.6401  0.7109
  545MOL0     C73459   6.129   6.630   8.267  0.1439 -1.2190  0.2140
  545MOL0     C73460   6.275   6.578   8.285 -0.5587 -0.4500  0.5890
  545MOL0     C73461   6.318   6.473   8.177  0.1380  0.0436  0.2597
  545MOL0     C73462   6.255   6.341   8.224  0.5435 -0.9414 -0.1809
  545MOL0     C73463   6.308   6.228   8.153  0.0803 -0.7324 -0.0469
  545MOL0     O73464   6.281   6.104   8.229  0.0662  0.1895 -0.0364
  545MOL0     C73465   6.187   6.017   8.183  0.3195  0.0881  0.2405
  545MOL0     C73466   6.165   5.912   8.264 -0.1306 -0.4178 -0.0561
  545MOL0     C73467   6.082   5.809   8.229  0.5523 -0.1330 -0.5314
  545MOL0     C73468   6.003   5.815   8.114 -0.3325 -0.0814 -0.1016
  545MOL0     C73469   5.899   5.711   8.086  0.0817  0.4390 -0.9455
  545MOL0     O73470   5.814   5.736   7.973  0.2398 -0.2098 -0.1059
  545MOL0     C73471   5.720   5.645   7.949  0.6991  0.0406  0.7796
  545MOL0     C73472   5.655   5.559   8.034  0.7951  1.0898 -0.5460
  545MOL0     C73473   5.559   5.472   7.987 -1.4722  1.0156 -0.3055
  545MOL0     C73474   5.509   5.477   7.857  1.7037  0.0659  0.0373
  545MOL0     O73475   5.413   5.376   7.824  0.1429  0.6291  0.1725
  545MOL0     C73476   5.307   5.423   7.731  0.1332 -0.1010  1.3502
  545MOL0     C73477   5.239   5.316   7.648 -0.8963  0.0694 -0.0364
  545MOL0     C73478   5.137   5.371   7.553  0.4570  0.0857 -0.2432
  545MOL0     C73479   5.087   5.258   7.461 -0.4577 -0.1776 -0.0350
  545MOL0     C73480   5.066   5.319   7.321  0.0500  0.1390  0.0662
  545MOL0     C73481   4.994   5.220   7.233 -0.3731 -0.8419  0.4758
  545MOL0     C73482   5.078   5.104   7.173 -0.3427 -0.1155  0.6021
  545MOL0     C73483   5.022   5.027   7.056 -0.3185 -0.3515  0.8005
  545MOL0    Cl73484   4.921   4.900   7.123  1.0884  0.2379  0.3457
  545MOL0     C73485   5.575   5.560   7.768  1.3684 -0.5328  0.3735
  545MOL0     C73486   5.676   5.639   7.813  0.3459 -0.2608 -0.4771
  545MOL0     O73487   5.910   5.606   8.153  0.6586  0.5169  0.6694
  545MOL0     C73488   6.016   5.931   8.037 -0.5888  0.3587 -0.0759
  545MOL0     C73489   6.101   6.040   8.078  0.0415  0.6271  0.3797
  545MOL0     N73490   6.060   6.644   8.146  0.5537 -0.0783 -1.0326
  545MOL0     N73491   5.940   6.694   8.167 -0.5857 -0.7914  0.3833
  545MOL0     C73492   5.653   6.553   7.575  0.9559 -0.6170  0.1411
  545MOL0     C73493   5.727   6.459   7.511  0.1489 -0.4275 -0.0330
  545MOL0     C73494   5.721   6.151   7.183  0.3989 -0.1669 -0.4864
  545MOL0     C73495   5.643   6.055   7.121 -0.5123  0.4679  0.0653
  545MOL0     C73496   5.701   5.973   7.021  0.0855  0.5500  0.1018
  545MOL0     C73497   5.829   5.988   6.974  0.4422 -0.6921 -1.1630
  545MOL0     O73498   5.869   5.917   6.867  0.0860 -0.2474  1.1011
  545MOL0     C73499   5.990   5.945   6.802 -0.9087 -0.9772  0.3675
  545MOL0     C73500   6.107   5.870   6.871 -0.9500 -0.6742 -0.9025
  545MOL0     C73501   6.144   5.722   6.835 -0.3408 -0.9597  0.2034
  545MOL0     C73502   6.038   5.627   6.885  0.6852  0.5981  0.5479
  545MOL0     C73503   5.984   5.535   6.778  0.3340 -0.1035 -0.0268
  545MOL0     C73504   5.909   5.473   6.695 -0.9573 -0.5223 -0.2059
  545MOL0     C73505   5.911   6.086   7.037  0.3024  0.0652 -0.8057
  545MOL0     C73506   5.860   6.163   7.145  0.4757 -0.2705 -0.0579
  545MOL0     C73507   5.954   6.267   7.216  0.3748  1.1278 -0.0121
  545MOL0     H73508   5.539   6.192   7.588  1.0174 -0.7652 -0.2447
  545MOL0     H73509   5.401   6.380   7.713 -0.2911 -0.7782 -0.8655
  545MOL0     H73510   5.531   6.525   7.883  4.1561  0.2140 -0.7167
  545MOL0     H73511   5.611   6.672   7.822 -0.8861  1.3416 -3.4666
  545MOL0     H73512   5.331   6.662   7.934  0.1444 -0.0222  0.8353
  545MOL0     H73513   5.399   6.806   7.889  0.8115  1.0288  0.9860
  545MOL0     H73514   5.590   6.771   8.037  0.7455  1.8495  0.7581
  545MOL0     H73515   5.522   6.618   8.103  3.0687  1.9796  0.7151
  545MOL0     H73516   5.367   6.878   8.136 -2.2986 -0.1714  2.3508
  545MOL0     H73517   5.357   6.724   8.219 -0.1296 -0.9695 -0.0681
  545MOL0     H73518   5.605   6.911   8.215  1.7605  2.7944  2.8750
  545MOL0     H73519   5.478   6.956   8.319 -1.3883  1.5212 -3.9523
  545MOL0     H73520   5.612   6.846   8.457  4.9787 -0.1287 -1.6035
  545MOL0     H73521   5.502   6.701   8.416  1.1646 -0.8538  1.5369
  545MOL0     H73522   5.711   6.657   8.252  3.7016  3.1324 -2.2196
  545MOL0     H73523   5.719   6.622   8.421  1.2470  1.8940  1.0815
  545MOL0     H73524   5.831   6.877   8.297  0.9158 -0.3653 -0.0047
  545MOL0     H73525   5.862   6.821   8.459  3.4558  1.2305 -1.1146
  545MOL0     H73526   6.093   6.694   8.466  5.2208 -1.0283 -0.4826
  545MOL0     H73527   6.338   6.667   8.277  0.3003 -1.0037  1.0271
  545MOL0     H73528   6.290   6.539   8.386 -1.5507  0.2681  1.0207
  545MOL0     H73529   6.281   6.501   8.078  0.6650  1.4374  0.4401
  545MOL0     H73530   6.427   6.477   8.176  0.1031  2.0141  0.6428
  545MOL0     H73531   6.146   6.346   8.209  0.6041 -0.9847 -0.6518
  545MOL0     H73532   6.269   6.332   8.332  0.3535  2.6713  0.2695
  545MOL0     H73533   6.416   6.243   8.163  0.4625 -2.4559 -1.0818
  545MOL0     H73534   6.278   6.222   8.048 -0.5654 -2.5577  0.2088
  545MOL0     H73535   6.211   5.906   8.363  0.6311 -2.3657 -0.4706
  545MOL0     H73536   6.054   5.739   8.306 -1.3234  3.7876  2.7088
  545MOL0     H73537   5.672   5.569   8.140 -1.6252 -1.6064  0.2201
  545MOL0     H73538   5.504   5.404   8.053 -2.0974  2.7841  1.0882
  545MOL0     H73539   5.238   5.480   7.794 -0.8889 -1.5563  1.5877
  545MOL0     H73540   5.355   5.493   7.661 -0.2079 -2.6722 -1.6590
  545MOL0     H73541   5.315   5.259   7.594 -0.8339 -1.3039  1.4628
  545MOL0     H73542   5.204   5.251   7.728  2.7972 -0.7284  1.0976
  545MOL0     H73543   5.061   5.420   7.615  0.1151 -0.5239 -0.1830
  545MOL0     H73544   5.174   5.456   7.493 -0.3519  2.3590  2.2610
  545MOL0     H73545   4.993   5.212   7.493 -0.8403 -0.6809 -1.7606
  545MOL0     H73546   5.160   5.177   7.450 -1.0073 -0.3880 -3.0148
  545MOL0     H73547   5.161   5.353   7.278 -0.3472  0.9891 -0.1658
  545MOL0     H73548   5.001   5.406   7.328 -0.7266 -0.2233 -1.8524
  545MOL0     H73549   4.901   5.187   7.280 -2.5723 -1.1958 -3.6677
  545MOL0     H73550   4.963   5.271   7.141  1.7717  2.5055  1.4049
  545MOL0     H73551   5.110   5.034   7.251 -0.1961 -0.2485  0.4221
  545MOL0     H73552   5.173   5.144   7.138 -0.0681  1.0853  2.5588
  545MOL0     H73553   4.969   5.087   6.982  0.7994 -2.6823 -2.1126
  545MOL0     H73554   5.109   4.981   7.007  1.4584  3.0759  0.3787
  545MOL0     H73555   5.536   5.559   7.667  0.0316  0.2034  0.8666
  545MOL0     H73556   5.732   5.697   7.740  1.1834 -0.1249  0.2530
  545MOL0     H73557   5.977   5.944   7.937 -0.3715 -0.6680 -0.3055
  545MOL0     H73558   6.117   6.120   8.006 -0.7099  0.8644  0.4709
  545MOL0     H73559   5.694   6.654   7.580  1.1584 -0.5231 -2.3106
  545MOL0     H73560   5.807   6.488   7.445 -2.1242  1.7921 -1.9949
  545MOL0     H73561   5.548   6.030   7.166 -0.3147 -0.2180  0.1075
  545MOL0     H73562   5.656   5.885   6.977 -0.1521  0.1802  1.0686
  545MOL0     H73563   5.999   6.051   6.778 -1.2537 -1.5451 -2.7966
  545MOL0     H73564   5.990   5.914   6.697 -1.9142  0.9635 -0.2436
  545MOL0     H73565   6.111   5.873   6.980  0.9947 -1.9443 -0.8760
  545MOL0     H73566   6.197   5.928   6.851 -0.7532 -0.5956  0.1517
  545MOL0     H73567   6.234   5.697   6.892  0.1083 -0.9842 -0.5015
  545MOL0     H73568   6.162   5.726   6.727 -2.3840 -2.3829 -0.2392
  545MOL0     H73569   6.091   5.560   6.954  3.0821 -2.5033 -3.8541
  545MOL0     H73570   5.957   5.671   6.945 -1.7919 -0.9831 -1.4472
  545MOL0     H73571   5.860   5.419   6.616 -2.6085 -1.7374  1.5676
  545MOL0     H73572   5.999   6.121   6.985  1.1038 -0.4462  0.1615
  545MOL0     H73573   5.911   6.367   7.208 -2.0457  0.0638 -1.1773
  545MOL0     H73574   5.944   6.228   7.318 -1.7400 -1.5556 -1.1322
  545MOL0     H73575   6.056   6.267   7.177  1.3768  1.9084  2.4084
  546MOL0     O73576   8.654   6.299   2.852  0.2709 -0.0634 -0.0679
  546MOL0     C73577   8.733   6.322   2.760  0.7081 -0.6431  0.5368
  546MOL0     O73578   8.753   6.444   2.701  0.4922 -0.6247  0.0054
  546MOL0     C73579   8.652   6.535   2.723 -0.5084 -0.2290 -0.5526
  546MOL0     C73580   8.543   6.550   2.635 -0.0573  0.6088 -0.6673
  546MOL0     C73581   8.440   6.633   2.671  0.6915  0.9369  0.1157
  546MOL0     C73582   8.443   6.696   2.800  0.9495 -0.2286 -0.5066
  546MOL0     O73583   8.335   6.768   2.858 -0.5034  0.2772 -0.4478
  546MOL0     C73584   8.351   6.908   2.911  0.3882  0.3085  0.5345
  546MOL0     C73585   8.216   6.953   2.956  0.3198 -0.4448 -1.3512
  546MOL0     C73586   8.119   6.866   3.041 -0.4341  0.6267  1.1050
  546MOL0     C73587   7.998   6.947   3.099 -0.3966  0.0086 -0.1208
  546MOL0     C73588   7.887   6.853   3.142  0.4201 -1.0501  0.2021
  546MOL0     C73589   7.789   6.915   3.249 -0.7352  0.9124  0.5547
  546MOL0     C73590   7.661   6.830   3.245  0.3512 -0.7590 -0.3690
  546MOL0     C73591   7.583   6.860   3.375 -0.2938  0.8280 -0.8478
  546MOL0     N73592   7.444   6.921   3.348  0.7380 -0.2052  0.2612
  546MOL0     C73593   7.412   7.056   3.334 -0.3579 -0.4313 -0.6327
  546MOL0     C73594   7.288   7.062   3.286  0.2220 -0.1508 -0.6302
  546MOL0     C73595   7.221   7.189   3.238  0.4300  0.0568 -0.5205
  546MOL0     C73596   7.195   7.175   3.091  0.2838 -1.0473  1.0419
  546MOL0     C73597   7.115   7.300   3.046  0.3837 -1.1159 -0.7046
  546MOL0     C73598   6.973   7.315   3.100  0.6302 -0.3993  0.2634
  546MOL0     O73599   6.926   7.188   3.137  0.6426  0.7991  0.3192
  546MOL0     C73600   6.896   7.094   3.039 -0.0631 -0.1745 -0.0948
  546MOL0     C73601   6.872   7.115   2.903  0.3138 -0.0515  0.2211
  546MOL0     C73602   6.848   7.004   2.814 -0.5492 -0.1938  0.4730
  546MOL0     C73603   6.853   6.872   2.857 -0.9058 -0.2534 -0.4756
  546MOL0     C73604   6.839   6.760   2.766 -0.1304 -0.1698 -0.9106
  546MOL0     O73605   6.837   6.782   2.634  0.2869 -0.3589 -0.5670
  546MOL0     C73606   6.819   6.671   2.554 -0.2328 -0.3856  0.2344
  546MOL0     C73607   6.932   6.607   2.490  0.0339  0.0556  0.4536
  546MOL0     C73608   6.909   6.500   2.406  0.2541 -0.0405  0.3030
  546MOL0     C73609   6.776   6.454   2.374  0.0678  0.6920  0.3218
  546MOL0     O73610   6.769   6.347   2.282  0.0366  0.5820  0.0836
  546MOL0     C73611   6.744   6.219   2.346 -0.1095  0.1694 -0.4728
  546MOL0     C73612   6.604   6.185   2.279  0.6052 -0.6493  0.4845
  546MOL0     C73613   6.608   6.164   2.121  0.4470 -0.0822 -0.9737
  546MOL0     C73614   6.460   6.133   2.079 -0.8583  0.8677  0.4048
  546MOL0     C73615   6.455   6.122   1.926 -0.5812 -0.8419 -0.2871
  546MOL0     C73616   6.547   6.007   1.864 -0.2279 -0.4023 -0.3245
  546MOL0     C73617   6.528   5.981   1.712 -0.2435  0.6415  0.1281
  546MOL0     C73618   6.637   5.883   1.660 -0.1707  0.0446  0.4063
  546MOL0    Cl73619   6.621   5.856   1.482 -0.0451  0.2565  0.5051
  546MOL0     C73620   6.670   6.513   2.445  0.5163 -0.0580 -0.0012
  546MOL0     C73621   6.693   6.616   2.537 -0.3223 -0.2673  0.3627
  546MOL0     O73622   6.819   6.655   2.826 -0.0874  0.3029  0.4005
  546MOL0     C73623   6.877   6.854   2.996  0.7302  0.0870  0.4435
  546MOL0     C73624   6.893   6.962   3.081  0.0581 -0.0280  0.4733
  546MOL0     N73625   7.238   6.934   3.284 -0.6626  0.3375 -0.0655
  546MOL0     N73626   7.331   6.846   3.329  0.4867 -0.5400 -0.1820
  546MOL0     C73627   8.554   6.689   2.884  1.3636 -0.2027 -0.7781
  546MOL0     C73628   8.656   6.608   2.847  0.1348  0.6646  0.3978
  546MOL0     C73629   8.799   6.202   2.698  0.0071 -0.6969  0.7731
  546MOL0     C73630   8.894   6.223   2.597  0.6548  0.0527  1.0179
  546MOL0     C73631   8.972   6.136   2.549 -0.3936  0.4564  0.0508
  546MOL0     C73632   8.969   6.005   2.588  0.0421 -0.1392  1.3487
  546MOL0     O73633   9.063   5.902   2.559 -0.5785 -0.1809 -0.1531
  546MOL0     C73634   9.193   5.940   2.518  0.6486  0.0960 -0.5081
  546MOL0     C73635   9.220   5.890   2.371 -0.8030 -0.2475  0.4499
  546MOL0     C73636   9.175   5.737   2.352 -0.0878 -0.3740  0.1337
  546MOL0     C73637   9.258   5.619   2.396 -0.3379 -0.1070  0.3776
  546MOL0     C73638   9.400   5.645   2.366 -0.8345  0.3405 -1.1260
  546MOL0     C73639   9.519   5.657   2.335  1.5058  0.2392  0.3743
  546MOL0     C73640   8.865   5.973   2.668  0.5380 -0.1348  0.0016
  546MOL0     C73641   8.776   6.063   2.724 -0.1048  0.7248 -0.9747
  546MOL0     C73642   8.664   6.011   2.801 -0.0879 -0.2118  0.1619
  546MOL0     H73643   8.541   6.508   2.535 -1.2683  2.4810 -1.4869
  546MOL0     H73644   8.356   6.645   2.603  0.5597 -1.9743 -0.3678
  546MOL0     H73645   8.420   6.902   2.995  1.7927 -0.8470 -0.6457
  546MOL0     H73646   8.385   6.985   2.841  1.8623 -1.7148 -1.0979
  546MOL0     H73647   8.145   6.971   2.874 -2.0867  2.4201  1.1341
  546MOL0     H73648   8.220   7.039   3.023 -4.5381 -1.7939  1.1656
  546MOL0     H73649   8.169   6.823   3.129 -0.6625 -1.1166  0.4336
  546MOL0     H73650   8.102   6.772   2.988  3.9848 -1.5893  3.0486
  546MOL0     H73651   8.031   7.012   3.181  0.5692  0.0299 -0.5164
  546MOL0     H73652   7.966   7.007   3.014 -0.9034  0.0658  0.1045
  546MOL0     H73653   7.824   6.839   3.054 -2.8340 -1.7717  2.4704
  546MOL0     H73654   7.930   6.759   3.178  2.9532  0.6279  1.8680
  546MOL0     H73655   7.837   6.906   3.347  1.3029  2.0406 -0.2845
  546MOL0     H73656   7.771   7.021   3.231  1.1081  1.2876  0.7867
  546MOL0     H73657   7.675   6.722   3.231  2.0777 -0.5430 -0.4828
  546MOL0     H73658   7.596   6.863   3.163 -1.1713 -3.0840 -0.1792
  546MOL0     H73659   7.559   6.766   3.427 -2.9174  1.7933 -0.1446
  546MOL0     H73660   7.635   6.919   3.450 -2.9317  0.5897  1.3279
  546MOL0     H73661   7.485   7.136   3.345 -0.1524 -0.1817 -3.1518
  546MOL0     H73662   7.127   7.195   3.294  1.2058  0.1321  0.8295
  546MOL0     H73663   7.291   7.271   3.256 -1.0917  1.2295  0.3493
  546MOL0     H73664   7.282   7.184   3.026  1.6932  2.0550  3.1166
  546MOL0     H73665   7.143   7.083   3.063 -1.6476 -0.1203  1.3931
  546MOL0     H73666   7.110   7.304   2.937 -0.0321 -1.0276 -0.6843
  546MOL0     H73667   7.161   7.392   3.085  1.2817 -1.9422  0.2767
  546MOL0     H73668   6.909   7.374   3.034 -1.1109 -2.1706  0.2762
  546MOL0     H73669   6.983   7.370   3.194 -1.6690  0.2523  0.1843
  546MOL0     H73670   6.874   7.211   2.851  2.4045  0.3937  1.0242
  546MOL0     H73671   6.838   7.025   2.709  0.5041  3.0228  0.9182
  546MOL0     H73672   7.033   6.646   2.499 -0.3816  1.0608  1.0097
  546MOL0     H73673   6.982   6.445   2.348 -2.2271 -0.8586 -2.2642
  546MOL0     H73674   6.814   6.149   2.300  0.2377  1.9627 -2.8996
  546MOL0     H73675   6.738   6.213   2.455  0.9455  1.1625 -0.3401
  546MOL0     H73676   6.566   6.094   2.327 -0.4166  0.4346  1.8190
  546MOL0     H73677   6.536   6.268   2.300  1.6449  0.0373  1.2163
  546MOL0     H73678   6.636   6.263   2.083  0.2799  0.0594 -0.7290
  546MOL0     H73679   6.690   6.094   2.101  2.2297  0.1290  4.1289
  546MOL0     H73680   6.387   6.210   2.104  0.7537  3.0984 -1.3129
  546MOL0     H73681   6.425   6.041   2.126  0.3990 -1.0755 -2.2125
  546MOL0     H73682   6.476   6.220   1.882 -2.7731  1.6961  3.6697
  546MOL0     H73683   6.352   6.098   1.897 -0.1606 -0.7038 -1.9622
  546MOL0     H73684   6.653   6.033   1.876  0.4925 -3.7074  1.9802
  546MOL0     H73685   6.555   5.911   1.916  1.6116  0.2420  0.6957
  546MOL0     H73686   6.537   6.081   1.669  2.8048  0.7660  0.8564
  546MOL0     H73687   6.428   5.941   1.693  0.2360 -1.0080  0.8963
  546MOL0     H73688   6.731   5.936   1.675 -0.4903  0.8447 -0.2889
  546MOL0     H73689   6.632   5.784   1.705  0.8133 -0.1624  0.0806
  546MOL0     H73690   6.569   6.488   2.416  0.7382  0.8526 -1.6613
  546MOL0     H73691   6.616   6.661   2.599  2.7359  4.1248  1.5013
  546MOL0     H73692   6.880   6.757   3.043 -1.0873 -0.1184  0.2034
  546MOL0     H73693   6.898   6.949   3.189 -1.8304 -0.8437  0.4829
  546MOL0     H73694   8.555   6.740   2.980  1.6983  0.5025 -1.1483
  546MOL0     H73695   8.732   6.576   2.917 -2.0836 -2.7538  1.5382
  546MOL0     H73696   8.916   6.325   2.566 -0.5900 -0.0841 -0.3916
  546MOL0     H73697   9.054   6.167   2.485  2.0917 -2.7377  1.3741
  546MOL0     H73698   9.264   5.889   2.585  1.3488  0.8153 -0.6908
  546MOL0     H73699   9.205   6.047   2.537  0.8948 -0.1420  0.7498
  546MOL0     H73700   9.325   5.896   2.340 -0.8310 -1.3128  0.0934
  546MOL0     H73701   9.151   5.957   2.319 -3.0795  0.6374  4.2848
  546MOL0     H73702   9.164   5.734   2.243 -1.8308 -1.7490  0.3017
  546MOL0     H73703   9.079   5.713   2.400  1.0589 -1.0157  2.2438
  546MOL0     H73704   9.237   5.600   2.502  1.4473  1.5637  1.1057
  546MOL0     H73705   9.220   5.534   2.339 -1.3861  2.2987 -2.8020
  546MOL0     H73706   9.621   5.672   2.307  0.8041  3.4117 -0.9593
  546MOL0     H73707   8.845   5.868   2.687 -1.3263 -0.0807 -1.3741
  546MOL0     H73708   8.683   6.025   2.908 -1.4088 -3.5605  0.9439
  546MOL0     H73709   8.567   6.053   2.771  0.3732  0.4085 -0.4789
  546MOL0     H73710   8.642   5.905   2.786 -2.9299  0.3014  0.1959
  547MOL0     O73711   8.201   0.321   0.445 -0.3851 -0.7399 -0.0496
  547MOL0     C73712   8.202   0.294   0.558  0.3686  0.7922 -0.2399
  547MOL0     O73713   8.143   0.177   0.607 -0.4182 -0.1802 -0.0233
  547MOL0     C73714   8.070   0.105   0.521 -0.1247 -0.6994  0.5538
  547MOL0     C73715   7.940   0.148   0.502 -0.4999  0.0706 -0.1676
  547MOL0     C73716   7.866   0.079   0.400  0.0121  0.1576  0.2011
  547MOL0     C73717   7.900  -0.044   0.348  0.0196 -0.1145 -0.2691
  547MOL0     O73718   7.814  -0.099   0.260 -0.8643  0.2161 -0.5789
  547MOL0     C73719   7.862  -0.090   0.128  0.6268  0.2970  0.7011
  547MOL0     C73720   7.918  -0.225   0.079  0.9392 -0.5164  0.1407
  547MOL0     C73721   7.989  -0.225  -0.053 -0.3816  0.2492 -0.6474
  547MOL0     C73722   8.017  -0.366  -0.091 -1.0754  0.5474  1.4447
  547MOL0     C73723   8.049  -0.382  -0.240  0.4213  0.2062  0.0650
  547MOL0     C73724   8.069  -0.532  -0.258  0.3954  0.9361 -0.2790
  547MOL0     C73725   8.111  -0.571  -0.396  0.1496 -0.0336  0.0631
  547MOL0     C73726   7.991  -0.573  -0.496 -0.2398 -0.3178 -0.6445
  547MOL0     N73727   8.027  -0.597  -0.635 -0.4684  0.2885  0.4103
  547MOL0     C73728   8.141  -0.648  -0.685 -0.5193  0.4613  0.9767
  547MOL0     C73729   8.112  -0.667  -0.808 -0.2831  0.5228  0.4569
  547MOL0     C73730   8.206  -0.721  -0.914  0.3445 -0.1677  0.1423
  547MOL0     C73731   8.286  -0.603  -0.975  0.9050  0.4400  0.5011
  547MOL0     C73732   8.415  -0.662  -1.037  0.6745 -0.0484 -0.6002
  547MOL0     C73733   8.396  -0.756  -1.157  0.0052  0.2766  0.3229
  547MOL0     O73734   8.509  -0.771  -1.235 -0.8258  0.0413 -0.2815
  547MOL0     C73735   8.531  -0.902  -1.265  0.1127 -0.4631  0.5049
  547MOL0     C73736   8.645  -0.969  -1.223  0.6400  0.8052 -0.0874
  547MOL0     C73737   8.660  -1.104  -1.258  0.6432 -0.9564  0.0397
  547MOL0     C73738   8.574  -1.173  -1.338 -0.0251  0.4160  0.1423
  547MOL0     C73739   8.583  -1.321  -1.363 -0.1167  0.1737  0.1105
  547MOL0     O73740   8.694  -1.387  -1.314 -0.0890  0.1819  0.4693
  547MOL0     C73741   8.705  -1.525  -1.315 -0.0745 -0.2269 -0.0390
  547MOL0     C73742   8.826  -1.577  -1.346 -0.7836  0.6787 -0.3521
  547MOL0     C73743   8.846  -1.713  -1.333  0.5928 -0.7356  0.0419
  547MOL0     C73744   8.748  -1.801  -1.293  0.6518  0.6744 -0.6816
  547MOL0     O73745   8.787  -1.932  -1.262 -0.3672  0.5731 -0.1838
  547MOL0     C73746   8.733  -1.998  -1.144 -0.8315  1.1293 -0.4814
  547MOL0     C73747   8.788  -1.951  -1.006 -0.2632 -0.8277 -0.0307
  547MOL0     C73748   8.936  -1.987  -0.980 -0.9228  0.6245  0.1333
  547MOL0     C73749   9.042  -1.879  -1.021 -0.2331 -0.3703  0.2851
  547MOL0     C73750   9.195  -1.899  -0.997  0.9029 -0.2095  0.2811
  547MOL0     C73751   9.228  -1.893  -0.849  0.0851 -1.6361 -0.8197
  547MOL0     C73752   9.372  -1.919  -0.815 -0.2128  0.4449  1.0812
  547MOL0     C73753   9.406  -1.974  -0.682  0.2616 -0.0214 -0.6834
  547MOL0    Cl73754   9.310  -2.121  -0.623  0.3568 -0.0923 -0.3290
  547MOL0     C73755   8.620  -1.745  -1.271 -0.3097 -0.4864 -0.1277
  547MOL0     C73756   8.603  -1.609  -1.279  0.1199  0.0025 -0.5771
  547MOL0     O73757   8.490  -1.371  -1.431 -0.2026  0.2295  0.7288
  547MOL0     C73758   8.459  -1.098  -1.379 -0.4192 -0.3748  0.3635
  547MOL0     C73759   8.439  -0.973  -1.341 -0.0464  0.0373  0.2916
  547MOL0     N73760   7.984  -0.624  -0.842  0.7304 -0.4494 -1.4214
  547MOL0     N73761   7.939  -0.578  -0.738  0.2591 -0.0572  1.6259
  547MOL0     C73762   8.034  -0.085   0.374 -0.2385  0.3083 -0.4616
  547MOL0     C73763   8.114  -0.008   0.460 -0.4999  1.0222  0.1631
  547MOL0     C73764   8.282   0.378   0.647  0.1028  0.3283  0.1689
  547MOL0     C73765   8.401   0.452   0.605  0.0734  0.2360 -0.2425
  547MOL0     C73766   8.472   0.534   0.693 -0.0284 -0.1694 -0.4573
  547MOL0     C73767   8.422   0.559   0.822  0.2145 -0.1372 -0.8602
  547MOL0     O73768   8.493   0.649   0.901  0.3288  0.2157  0.1726
  547MOL0     C73769   8.412   0.724   0.996  0.2228 -0.4703  0.3893
  547MOL0     C73770   8.283   0.797   0.948  0.1972 -0.9857  0.0151
  547MOL0     C73771   8.238   0.907   1.054  0.0324  0.5084 -0.2875
  547MOL0     C73772   8.097   0.961   1.024 -0.2521  0.5001 -0.1224
  547MOL0     C73773   8.032   1.038   1.132 -0.3618  0.1428  0.1248
  547MOL0     C73774   7.987   1.116   1.216 -0.0360  0.8056  0.5724
  547MOL0     C73775   8.309   0.480   0.863 -0.4833  0.2534  0.2532
  547MOL0     C73776   8.234   0.395   0.779 -0.1275 -0.8191 -0.2127
  547MOL0     C73777   8.090   0.355   0.816  0.0223 -0.3523 -0.4073
  547MOL0     H73778   7.898   0.240   0.541 -2.2134 -1.0938  0.8469
  547MOL0     H73779   7.769   0.121   0.377  1.1477  2.2260 -1.0779
  547MOL0     H73780   7.780  -0.062   0.060 -0.0432 -1.5220  0.7170
  547MOL0     H73781   7.941  -0.015   0.131  3.0182 -2.1240  3.2104
  547MOL0     H73782   7.826  -0.279   0.057 -0.4720  2.1585 -1.0198
  547MOL0     H73783   7.981  -0.270   0.157 -2.1930 -0.1927  3.0725
  547MOL0     H73784   8.086  -0.175  -0.056 -0.5988  0.6406 -2.0732
  547MOL0     H73785   7.932  -0.163  -0.123  0.6315  0.5167 -1.2579
  547MOL0     H73786   8.095  -0.405  -0.026 -0.3604 -0.8585 -0.1862
  547MOL0     H73787   7.934  -0.435  -0.072  0.9070 -1.5581  2.9100
  547MOL0     H73788   7.966  -0.344  -0.301  0.3869  0.3270  0.1864
  547MOL0     H73789   8.135  -0.318  -0.259  1.9967 -0.6762  3.4494
  547MOL0     H73790   8.154  -0.565  -0.197  0.5510  0.6056 -0.6677
  547MOL0     H73791   7.982  -0.594  -0.235 -0.4542  2.1071 -0.3017
  547MOL0     H73792   8.153  -0.670  -0.380  2.2626  0.9331  0.7920
  547MOL0     H73793   8.184  -0.505  -0.443 -0.4187 -0.2548 -1.1941
  547MOL0     H73794   7.913  -0.638  -0.458 -0.0263  0.5535  1.4053
  547MOL0     H73795   7.936  -0.478  -0.503 -1.2044 -0.8425 -0.3545
  547MOL0     H73796   8.229  -0.692  -0.637  1.0402  1.3518 -0.9505
  547MOL0     H73797   8.277  -0.787  -0.863  1.3624 -0.6873 -1.8689
  547MOL0     H73798   8.145  -0.777  -0.986 -3.2052  1.0729  1.9416
  547MOL0     H73799   8.224  -0.552  -1.049 -2.4087  0.0211  2.7511
  547MOL0     H73800   8.310  -0.527  -0.901 -0.1836 -1.0599  2.5079
  547MOL0     H73801   8.470  -0.708  -0.954  1.1126 -2.0904 -1.9476
  547MOL0     H73802   8.465  -0.577  -1.086  0.8920  0.2043  0.0538
  547MOL0     H73803   8.323  -0.700  -1.215  0.5929  1.3138  0.5682
  547MOL0     H73804   8.351  -0.853  -1.132  3.5032 -1.0425  2.2861
  547MOL0     H73805   8.714  -0.927  -1.150  0.4414  0.8863  0.0541
  547MOL0     H73806   8.751  -1.162  -1.248  0.9867 -0.3261  0.5637
  547MOL0     H73807   8.909  -1.509  -1.366 -0.4540  1.0138  1.9166
  547MOL0     H73808   8.948  -1.742  -1.357  1.0343  0.4374  0.3962
  547MOL0     H73809   8.624  -1.989  -1.139 -0.8643  0.7296 -0.4654
  547MOL0     H73810   8.758  -2.104  -1.154 -2.9706  0.4115  0.9667
  547MOL0     H73811   8.775  -1.842  -1.008  1.0196 -0.5841 -4.3344
  547MOL0     H73812   8.728  -2.003  -0.930 -1.3807 -1.0856 -1.0660
  547MOL0     H73813   8.952  -2.030  -0.881  0.6194 -0.4330 -0.5344
  547MOL0     H73814   8.966  -2.073  -1.041 -1.3123 -0.2773  1.1764
  547MOL0     H73815   9.021  -1.785  -0.969  0.0654 -1.4255  2.4437
  547MOL0     H73816   9.037  -1.867  -1.129  0.4524 -1.5438  0.1072
  547MOL0     H73817   9.248  -1.811  -1.032 -1.2237  0.6476 -0.9303
  547MOL0     H73818   9.232  -1.991  -1.043 -0.2754  0.5080 -2.2767
  547MOL0     H73819   9.197  -1.798  -0.804 -0.6532 -0.9886 -2.6288
  547MOL0     H73820   9.170  -1.967  -0.792  0.9275 -1.2551  0.5890
  547MOL0     H73821   9.430  -1.827  -0.820  0.8916 -0.2956 -0.0555
  547MOL0     H73822   9.415  -1.989  -0.887  1.6955  3.2956 -0.7009
  547MOL0     H73823   9.512  -2.000  -0.680  0.4822  0.8866  0.8365
  547MOL0     H73824   9.387  -1.900  -0.604 -0.8011 -1.1328  0.1521
  547MOL0     H73825   8.533  -1.806  -1.251 -1.3021  0.9355  0.1099
  547MOL0     H73826   8.501  -1.575  -1.260 -0.6105 -2.8316  1.2812
  547MOL0     H73827   8.375  -1.147  -1.426  0.8173 -1.0062 -1.2786
  547MOL0     H73828   8.348  -0.923  -1.373 -0.3117 -0.7696 -0.2559
  547MOL0     H73829   8.076  -0.184   0.356 -2.6539 -0.7676 -0.6421
  547MOL0     H73830   8.209  -0.058   0.475 -1.2427 -1.2169 -1.8483
  547MOL0     H73831   8.418   0.445   0.498  2.0369 -1.6040  0.1330
  547MOL0     H73832   8.557   0.573   0.639 -0.5300 -0.2389 -1.3126
  547MOL0     H73833   8.478   0.800   1.038  0.1283 -1.4873  2.5314
  547MOL0     H73834   8.371   0.666   1.080 -2.9934  3.2700  1.6840
  547MOL0     H73835   8.205   0.722   0.931 -0.2164 -0.8963  1.3464
  547MOL0     H73836   8.315   0.839   0.853 -0.1601 -2.5485 -0.8218
  547MOL0     H73837   8.308   0.991   1.055 -0.3315  0.9894  3.8269
  547MOL0     H73838   8.242   0.865   1.155 -1.4961 -0.8388 -0.7382
  547MOL0     H73839   8.092   0.999   0.921 -4.6677  1.0966  0.1155
  547MOL0     H73840   8.033   0.873   1.008 -1.9606  1.5609  0.6625
  547MOL0     H73841   7.934   1.180   1.284  0.5591 -0.0126  1.8462
  547MOL0     H73842   8.265   0.493   0.961  3.6040  2.0454  2.0786
  547MOL0     H73843   8.021   0.358   0.731 -0.2916  0.9713 -0.1277
  547MOL0     H73844   8.087   0.249   0.843 -4.0107  0.0477  1.4441
  547MOL0     H73845   8.033   0.395   0.901 -0.2813 -5.1729  2.0179
  548MOL0     O73846   8.639   2.046   5.295 -0.7114  0.2933  0.2921
  548MOL0     C73847   8.525   2.005   5.301 -0.4732  0.3019 -0.4788
  548MOL0     O73848   8.439   1.993   5.187 -0.5269  0.2152  0.3237
  548MOL0     C73849   8.500   2.013   5.069 -0.9084  0.8892 -0.4012
  548MOL0     C73850   8.547   1.902   4.995 -0.5130  0.0163  0.6256
  548MOL0     C73851   8.605   1.905   4.864 -0.6006  0.0874 -0.8974
  548MOL0     C73852   8.602   2.029   4.797  0.2725  0.5285 -0.1040
  548MOL0     O73853   8.638   2.031   4.670 -0.0813  0.5826  0.3446
  548MOL0     C73854   8.630   2.160   4.598  0.1087  0.4277 -0.0846
  548MOL0     C73855   8.673   2.130   4.451 -0.2249 -0.0812 -0.2622
  548MOL0     C73856   8.684   2.246   4.355 -0.0800 -0.6894  1.7709
  548MOL0     C73857   8.746   2.208   4.218 -0.7440 -0.0110 -0.2861
  548MOL0     C73858   8.671   2.092   4.143 -0.6501 -0.5891 -0.3614
  548MOL0     C73859   8.661   2.116   4.000  0.2284  0.3777  1.2360
  548MOL0     C73860   8.595   2.006   3.922  0.3325  0.3954  0.0410
  548MOL0     C73861   8.446   1.996   3.948  0.5146 -0.0245 -0.0836
  548MOL0     N73862   8.372   2.111   3.883  0.6078 -0.7869  0.6640
  548MOL0     C73863   8.410   2.194   3.775 -0.1849  0.1856 -0.6743
  548MOL0     C73864   8.309   2.287   3.755  0.0304 -0.8634  0.3032
  548MOL0     C73865   8.301   2.398   3.652 -0.0735 -1.0483 -0.1062
  548MOL0     C73866   8.170   2.473   3.667 -0.3473  0.1490 -0.0431
  548MOL0     C73867   8.141   2.575   3.551  0.6078 -0.4977  0.6691
  548MOL0     C73868   8.238   2.627   3.454  0.4350 -0.8590 -0.2237
  548MOL0     O73869   8.338   2.699   3.529  0.8539  0.0777 -0.7139
  548MOL0     C73870   8.437   2.779   3.473  0.3519 -0.3741 -0.7325
  548MOL0     C73871   8.512   2.855   3.563 -0.5198 -0.6728 -0.3978
  548MOL0     C73872   8.606   2.952   3.515 -0.0540 -0.0789  0.0819
  548MOL0     C73873   8.617   2.968   3.375 -1.0290  0.7159  0.4672
  548MOL0     C73874   8.723   3.065   3.316  0.3872  0.3850 -0.2364
  548MOL0     O73875   8.733   3.080   3.175 -0.0011  0.7716  0.3891
  548MOL0     C73876   8.773   3.205   3.130  0.0671 -0.3137  0.5466
  548MOL0     C73877   8.893   3.225   3.069 -0.1227  0.2359 -0.1307
  548MOL0     C73878   8.934   3.353   3.018  0.4878  0.5482  0.7927
  548MOL0     C73879   8.863   3.471   3.038  0.4212  1.2671  0.1121
  548MOL0     O73880   8.925   3.580   2.989  0.2583  0.1310  0.3201
  548MOL0     C73881   8.861   3.709   2.992  0.1174  0.7555  0.8486
  548MOL0     C73882   8.959   3.811   2.906  1.2522 -0.2881  0.4597
  548MOL0     C73883   9.041   3.732   2.802  0.3356  0.3695  0.2717
  548MOL0     C73884   9.132   3.831   2.726 -0.5196  0.9185  0.8655
  548MOL0     C73885   9.206   3.762   2.604  1.0485 -1.3055 -0.6110
  548MOL0     C73886   9.292   3.651   2.637  1.0181 -0.6094 -0.7025
  548MOL0     C73887   9.365   3.596   2.521  0.7751 -0.1540 -0.4137
  548MOL0     C73888   9.456   3.472   2.543  0.0556 -1.0065 -0.5944
  548MOL0    Cl73889   9.366   3.320   2.545  0.8605 -0.2218  0.4671
  548MOL0     C73890   8.732   3.457   3.108 -0.7034  0.1748  0.0954
  548MOL0     C73891   8.693   3.326   3.144 -0.5012 -0.0843  0.8952
  548MOL0     O73892   8.795   3.111   3.403 -0.0711  0.1833  0.1692
  548MOL0     C73893   8.537   2.888   3.290 -0.6526 -0.1120 -0.1920
  548MOL0     C73894   8.447   2.801   3.338 -0.3854 -0.0918 -0.0670
  548MOL0     N73895   8.218   2.262   3.865  0.3985  0.9093  1.0517
  548MOL0     N73896   8.257   2.155   3.934 -0.6426  0.2934 -0.6242
  548MOL0     C73897   8.549   2.143   4.872 -0.9240  0.1725  0.9396
  548MOL0     C73898   8.501   2.134   4.999  0.4093 -0.0272  0.0544
  548MOL0     C73899   8.473   1.997   5.438 -0.1122 -0.6215  0.1283
  548MOL0     C73900   8.519   2.086   5.536 -1.2798 -0.0021  0.2513
  548MOL0     C73901   8.475   2.086   5.672 -0.0284 -0.2249  0.5765
  548MOL0     C73902   8.411   1.973   5.719  1.5548  0.8609 -0.2403
  548MOL0     O73903   8.401   1.984   5.852  0.6161  0.0341 -0.7043
  548MOL0     C73904   8.297   1.911   5.916 -0.0812  0.3066 -1.5113
  548MOL0     C73905   8.331   1.909   6.067 -0.0329 -0.8157  0.3907
  548MOL0     C73906   8.455   1.846   6.109 -0.2866 -0.1944 -0.0823
  548MOL0     C73907   8.468   1.695   6.078  0.1510  0.2850  1.0252
  548MOL0     C73908   8.612   1.674   6.072  0.1063 -0.1204 -0.7055
  548MOL0     C73909   8.736   1.677   6.060 -0.2024 -0.0191 -0.5665
  548MOL0     C73910   8.375   1.870   5.629  0.6112 -0.4032 -0.0694
  548MOL0     C73911   8.403   1.884   5.493 -0.5854  0.0405 -0.8071
  548MOL0     C73912   8.367   1.763   5.402  0.9060 -0.8731 -0.0068
  548MOL0     H73913   8.538   1.811   5.054  1.2409 -0.9859 -0.5828
  548MOL0     H73914   8.655   1.827   4.808  1.4183  1.9899 -1.8777
  548MOL0     H73915   8.527   2.195   4.602  0.0954  0.6662 -2.0115
  548MOL0     H73916   8.702   2.228   4.645  0.3119 -0.8977  1.6823
  548MOL0     H73917   8.606   2.051   4.414  0.5756 -2.5013  2.9946
  548MOL0     H73918   8.768   2.076   4.455 -1.5893 -2.5991  0.3736
  548MOL0     H73919   8.746   2.328   4.391  1.5322 -1.8967  1.8342
  548MOL0     H73920   8.580   2.274   4.334 -0.0363 -0.6659  1.5897
  548MOL0     H73921   8.744   2.297   4.155  0.3535  0.5857  0.5000
  548MOL0     H73922   8.847   2.169   4.234 -0.4955  0.8863  0.4236
  548MOL0     H73923   8.716   1.994   4.160 -3.2209 -1.6643  0.8481
  548MOL0     H73924   8.570   2.079   4.183 -1.6195  1.1347 -2.0700
  548MOL0     H73925   8.621   2.215   3.978  1.6580  0.8642  0.7438
  548MOL0     H73926   8.767   2.116   3.972  0.4143  0.3982  1.9193
  548MOL0     H73927   8.644   1.911   3.948 -1.4093 -0.9627 -1.3220
  548MOL0     H73928   8.613   2.027   3.817 -0.5780 -1.1400 -0.4551
  548MOL0     H73929   8.410   1.900   3.908  2.1097 -1.0047  0.7159
  548MOL0     H73930   8.426   1.995   4.055 -3.1154 -1.3481 -0.6131
  548MOL0     H73931   8.506   2.201   3.726  1.0896  0.4145  1.7126
  548MOL0     H73932   8.382   2.472   3.655  0.7884 -1.9658  2.4611
  548MOL0     H73933   8.306   2.345   3.557 -0.9161 -0.9627 -0.2040
  548MOL0     H73934   8.097   2.394   3.684  1.5991 -1.1304  3.2359
  548MOL0     H73935   8.168   2.527   3.763  4.0349  0.9966 -0.1850
  548MOL0     H73936   8.082   2.659   3.589 -0.2753 -0.8140  0.0219
  548MOL0     H73937   8.074   2.514   3.489  1.2112 -0.2334 -0.2553
  548MOL0     H73938   8.189   2.702   3.391  0.7931  0.6002  1.1550
  548MOL0     H73939   8.285   2.551   3.391 -0.5185 -1.3018 -0.4275
  548MOL0     H73940   8.470   2.856   3.663  0.1652  2.3838 -0.0212
  548MOL0     H73941   8.661   3.013   3.586  0.3611  1.0367 -1.1533
  548MOL0     H73942   8.952   3.140   3.036 -1.1297 -0.2525 -0.7216
  548MOL0     H73943   9.019   3.361   2.951 -1.9044  0.2892 -2.4962
  548MOL0     H73944   8.768   3.701   2.935  1.3881 -1.6265 -1.1084
  548MOL0     H73945   8.853   3.756   3.090  1.0615  2.5096  0.1286
  548MOL0     H73946   8.889   3.884   2.865  0.3364 -0.2512  2.0284
  548MOL0     H73947   9.028   3.857   2.978  1.9488 -0.1617 -0.2780
  548MOL0     H73948   9.102   3.653   2.847 -1.8836 -0.0833  2.7517
  548MOL0     H73949   8.988   3.674   2.726  0.5377 -3.1097  2.5513
  548MOL0     H73950   9.199   3.861   2.807 -1.0639  0.8817  1.3420
  548MOL0     H73951   9.076   3.916   2.686  2.2757  1.5960 -1.9259
  548MOL0     H73952   9.263   3.844   2.560  0.5070 -0.9290 -0.6134
  548MOL0     H73953   9.137   3.720   2.531  1.0619 -3.0972  0.3440
  548MOL0     H73954   9.373   3.682   2.704  1.2214  0.9536 -1.6089
  548MOL0     H73955   9.220   3.582   2.681 -1.6391  0.6475 -2.7769
  548MOL0     H73956   9.424   3.682   2.489 -1.2650  0.7395 -1.9935
  548MOL0     H73957   9.286   3.586   2.446  0.7409  1.3413 -0.5904
  548MOL0     H73958   9.534   3.478   2.466 -0.8750 -0.7696 -1.5453
  548MOL0     H73959   9.509   3.479   2.639 -0.9577  0.8956 -0.1240
  548MOL0     H73960   8.664   3.540   3.124 -0.6226  0.7582 -2.2476
  548MOL0     H73961   8.590   3.318   3.176 -3.3288  2.9755 -5.6163
  548MOL0     H73962   8.552   2.900   3.183 -1.7349 -1.5762 -0.5383
  548MOL0     H73963   8.396   2.744   3.260 -0.9364  0.1394  0.1202
  548MOL0     H73964   8.548   2.245   4.835 -4.4609  0.3419  1.2140
  548MOL0     H73965   8.475   2.223   5.056  0.3160 -0.1951  0.2761
  548MOL0     H73966   8.576   2.173   5.505 -0.5126  1.0781  4.2076
  548MOL0     H73967   8.491   2.165   5.744 -0.8892 -0.8282  1.4489
  548MOL0     H73968   8.286   1.813   5.870 -3.3363  0.5567 -1.4556
  548MOL0     H73969   8.198   1.956   5.916 -1.2121 -1.8271  1.7119
  548MOL0     H73970   8.246   1.864   6.118  0.1290 -0.0122  1.4006
  548MOL0     H73971   8.331   2.013   6.101 -1.4742 -0.6221 -0.1349
  548MOL0     H73972   8.464   1.855   6.218 -1.3462  2.5945 -0.1674
  548MOL0     H73973   8.543   1.898   6.071 -0.4832  0.6272  0.5570
  548MOL0     H73974   8.432   1.624   6.154 -0.1659 -1.8575 -1.0325
  548MOL0     H73975   8.412   1.663   5.990  1.8403  0.1698 -0.0549
  548MOL0     H73976   8.841   1.697   6.055  0.0330 -0.4558  1.4822
  548MOL0     H73977   8.313   1.789   5.667  1.7626 -1.2888 -0.0348
  548MOL0     H73978   8.380   1.671   5.460 -1.3369 -0.0706  1.9171
  548MOL0     H73979   8.259   1.775   5.391  1.1928  2.1778 -0.2015
  548MOL0     H73980   8.413   1.755   5.303 -1.7033  1.1632 -1.5385
  549MOL0     O73981  11.278   9.601  10.784 -0.8017  0.8838 -0.0445
  549MOL0     C73982  11.167   9.648  10.800  0.4342 -0.0015  0.1594
  549MOL0     O73983  11.138   9.752  10.883 -0.0133  0.4900 -0.1827
  549MOL0     C73984  11.233   9.810  10.967 -0.5133 -0.5826  1.0874
  549MOL0     C73985  11.336   9.742  11.034  0.5519 -0.1883  0.4954
  549MOL0     C73986  11.419   9.816  11.114 -0.3003 -0.0877 -0.7006
  549MOL0     C73987  11.415   9.952  11.125 -0.5733 -0.4214 -0.3376
  549MOL0     O73988  11.523  10.015  11.200 -0.3303 -0.2126  0.0441
  549MOL0     C73989  11.561  10.145  11.154  0.4256  1.1265  0.2003
  549MOL0     C73990  11.701  10.182  11.214  0.0437 -0.3537  0.3836
  549MOL0     C73991  11.763  10.303  11.148 -0.3229  0.7556  0.0811
  549MOL0     C73992  11.908  10.316  11.200  0.2875 -0.4278 -0.0312
  549MOL0     C73993  11.981  10.437  11.127  0.6378  0.3533 -1.3178
  549MOL0     C73994  11.915  10.573  11.167 -0.1376 -0.6577 -0.2626
  549MOL0     C73995  12.024  10.685  11.212  0.4235 -0.4860  1.3114
  549MOL0     C73996  11.947  10.814  11.237  0.2159  0.4084  0.0213
  549MOL0     N73997  12.007  10.924  11.180 -0.2626  0.1975 -0.5337
  549MOL0     C73998  12.136  10.964  11.205  0.5623  0.6488 -0.2222
  549MOL0     C73999  12.137  11.077  11.137  0.4562  0.1718 -0.7325
  549MOL0     C74000  12.253  11.170  11.120  0.7432  0.5410 -0.1480
  549MOL0     C74001  12.274  11.263  11.241  0.2484 -0.9420 -0.7422
  549MOL0     C74002  12.332  11.181  11.357  0.8154 -0.3069  0.5486
  549MOL0     C74003  12.412  11.276  11.463  0.5650 -0.1326 -0.3065
  549MOL0     O74004  12.426  11.196  11.582  0.8395 -0.4832  0.2075
  549MOL0     C74005  12.386  11.251  11.708  0.3046 -0.0510 -0.1417
  549MOL0     C74006  12.429  11.378  11.744  0.4122  0.2225  0.4905
  549MOL0     C74007  12.381  11.434  11.861 -0.4327 -0.3632 -0.6386
  549MOL0     C74008  12.294  11.366  11.942  0.7405 -0.3423 -0.0566
  549MOL0     C74009  12.240  11.439  12.058 -0.3542  0.6704 -0.2789
  549MOL0     O74010  12.137  11.384  12.115  0.2659  0.2306 -0.3445
  549MOL0     C74011  12.083  11.436  12.225 -0.4611  0.2084 -0.6373
  549MOL0     C74012  12.064  11.568  12.261  1.0088  0.8792 -0.0859
  549MOL0     C74013  11.981  11.602  12.371 -0.0992 -0.5933  0.8300
  549MOL0     C74014  11.926  11.504  12.451 -0.1368  0.1142  0.8912
  549MOL0     O74015  11.861  11.557  12.561 -0.4245 -0.3587 -0.6931
  549MOL0     C74016  11.830  11.486  12.678  0.7806  0.4046  0.3559
  549MOL0     C74017  11.701  11.532  12.728  0.4079 -0.3939  0.3030
  549MOL0     C74018  11.671  11.493  12.874 -0.1219 -0.5507 -0.2446
  549MOL0     C74019  11.533  11.528  12.911 -0.3314  0.3851  0.1065
  549MOL0     C74020  11.505  11.559  13.066 -0.5175  1.0984  0.5620
  549MOL0     C74021  11.369  11.533  13.129 -0.3882  0.1459 -0.6886
  549MOL0     C74022  11.341  11.619  13.260 -0.0262  0.2765 -0.7306
  549MOL0     C74023  11.188  11.616  13.289 -0.5016  0.0969 -0.0139
  549MOL0    Cl74024  11.124  11.446  13.311 -0.0293 -0.0217  0.0879
  549MOL0     C74025  11.945  11.370  12.421 -0.1973 -0.5677 -0.3764
  549MOL0     C74026  12.022  11.336  12.309 -0.4718 -0.3465 -0.3750
  549MOL0     O74027  12.302  11.540  12.092  0.3428 -0.1596 -0.9720
  549MOL0     C74028  12.246  11.238  11.903  0.5852 -1.0689  0.3994
  549MOL0     C74029  12.284  11.181  11.784 -0.3846  0.6435 -0.0111
  549MOL0     N74030  12.013  11.108  11.085  0.3294 -0.3977 -0.7980
  549MOL0     N74031  11.942  11.004  11.097 -0.6913 -0.0498 -0.6325
  549MOL0     C74032  11.313  10.022  11.056 -0.7531  0.4514 -0.2633
  549MOL0     C74033  11.225   9.947  10.975  0.7299 -0.0388 -0.6059
  549MOL0     C74034  11.051   9.581  10.739 -0.1098  0.6490  0.8519
  549MOL0     C74035  10.919   9.615  10.782 -0.5809 -0.2543  0.3851
  549MOL0     C74036  10.808   9.546  10.737 -0.2691  0.1330 -0.5210
  549MOL0     C74037  10.826   9.471  10.624  0.2823  0.6292 -0.2694
  549MOL0     O74038  10.713   9.408  10.574 -0.1416 -0.7520 -0.2272
  549MOL0     C74039  10.656   9.459  10.449 -0.1341  0.4247  0.3264
  549MOL0     C74040  10.654   9.611  10.448 -0.3432  0.4398 -0.2158
  549MOL0     C74041  10.549   9.679  10.357 -0.3790 -0.5352 -0.3574
  549MOL0     C74042  10.581   9.681  10.210 -0.0854  0.3061 -0.5744
  549MOL0     C74043  10.691   9.774  10.173 -0.1928  0.2119  0.5040
  549MOL0     C74044  10.783   9.850  10.162 -0.1606  0.4085  0.1647
  549MOL0     C74045  10.946   9.434  10.574 -0.0487 -0.0487  0.1855
  549MOL0     C74046  11.062   9.482  10.634 -0.0818 -0.2662 -0.3337
  549MOL0     C74047  11.193   9.454  10.563  0.1310  0.8315 -0.2761
  549MOL0     H74048  11.347   9.634  11.029 -0.4431 -0.3225  1.0335
  549MOL0     H74049  11.494   9.764  11.173 -1.7566 -0.3922  0.9829
  549MOL0     H74050  11.563  10.143  11.044  1.3309  5.4851 -0.0597
  549MOL0     H74051  11.481  10.214  11.183  1.5827  0.7592  5.1907
  549MOL0     H74052  11.765  10.095  11.204 -1.6026 -1.4220 -1.5208
  549MOL0     H74053  11.675  10.209  11.317  1.0573  3.2104 -0.1575
  549MOL0     H74054  11.705  10.392  11.171  1.3144  1.8578  0.1147
  549MOL0     H74055  11.764  10.280  11.041 -2.4041  0.2480  0.1391
  549MOL0     H74056  11.913  10.319  11.309 -1.4572 -3.1487  0.2073
  549MOL0     H74057  11.961  10.226  11.169  2.7552 -0.2271  3.1576
  549MOL0     H74058  12.087  10.429  11.153  1.0022  4.5499 -0.9057
  549MOL0     H74059  11.989  10.436  11.018  1.9031  1.6240 -1.2591
  549MOL0     H74060  11.848  10.599  11.085  0.7857 -0.2371 -0.9046
  549MOL0     H74061  11.847  10.568  11.252  1.3123  0.3012  0.9938
  549MOL0     H74062  12.101  10.697  11.134  0.1445 -0.8390  0.9778
  549MOL0     H74063  12.084  10.656  11.299  0.1387  1.1312  2.0918
  549MOL0     H74064  11.843  10.812  11.202 -0.0301  4.7305 -0.0552
  549MOL0     H74065  11.924  10.833  11.343 -1.8614 -0.0079 -0.3030
  549MOL0     H74066  12.213  10.926  11.271 -2.6963  0.2552  3.8147
  549MOL0     H74067  12.345  11.112  11.112  0.3082 -0.1398 -0.2919
  549MOL0     H74068  12.242  11.236  11.034  3.0647  2.1388  0.7080
  549MOL0     H74069  12.347  11.341  11.219  0.2720  0.1851  2.7173
  549MOL0     H74070  12.191  11.328  11.269  0.3440  0.3581 -3.1662
  549MOL0     H74071  12.391  11.095  11.325  1.6319  0.1162  0.8695
  549MOL0     H74072  12.249  11.142  11.417 -0.3002  1.5123  0.2966
  549MOL0     H74073  12.353  11.367  11.479  0.2758 -0.7690  3.1271
  549MOL0     H74074  12.507  11.306  11.419  0.2879  3.7776  1.4060
  549MOL0     H74075  12.496  11.435  11.680  2.1880  0.0186  2.0751
  549MOL0     H74076  12.422  11.533  11.875  1.1657 -1.3022  1.9643
  549MOL0     H74077  12.115  11.643  12.201  0.5444  2.5860  1.5671
  549MOL0     H74078  11.965  11.706  12.399  0.7589 -0.8414  2.3493
  549MOL0     H74079  11.821  11.378  12.662  2.8203 -0.2180  2.7816
  549MOL0     H74080  11.905  11.501  12.756  2.5592 -5.1048  0.0985
  549MOL0     H74081  11.690  11.638  12.705 -0.8943 -0.4414  0.6096
  549MOL0     H74082  11.621  11.478  12.675  1.2179 -1.9414  0.5848
  549MOL0     H74083  11.694  11.388  12.895  0.8976 -0.1674  0.6272
  549MOL0     H74084  11.732  11.557  12.938 -0.6161  0.0783 -0.3870
  549MOL0     H74085  11.482  11.435  12.886  0.3846  0.5514 -2.1794
  549MOL0     H74086  11.496  11.601  12.839  1.3627  0.6353 -0.5537
  549MOL0     H74087  11.539  11.662  13.079 -0.1320  1.2062 -1.0799
  549MOL0     H74088  11.574  11.504  13.131 -1.0121  1.8922  1.8119
  549MOL0     H74089  11.284  11.534  13.060  1.4997 -2.0724 -3.2179
  549MOL0     H74090  11.376  11.427  13.151  0.0120  0.7649  2.6772
  549MOL0     H74091  11.375  11.720  13.237 -1.9001  1.0249 -0.4303
  549MOL0     H74092  11.405  11.592  13.345  1.1905 -0.0831 -1.7429
  549MOL0     H74093  11.151  11.676  13.373 -3.3441 -1.9776  0.3910
  549MOL0     H74094  11.151  11.647  13.191  0.2157  1.3554  0.0957
  549MOL0     H74095  11.904  11.299  12.492 -0.0474  2.9844  3.6501
  549MOL0     H74096  12.046  11.234  12.280  0.6598 -0.0810 -0.4251
  549MOL0     H74097  12.173  11.196  11.971  0.7174  0.4622  1.5419
  549MOL0     H74098  12.226  11.098  11.747 -2.1717  2.0105 -0.4371
  549MOL0     H74099  11.294  10.129  11.064 -1.4582  0.3727 -0.7733
  549MOL0     H74100  11.151   9.998  10.914 -0.2103 -0.7419 -0.0770
  549MOL0     H74101  10.900   9.698  10.849  0.3323  3.2605 -3.2613
  549MOL0     H74102  10.713   9.583  10.774 -2.0659 -1.8392 -2.7891
  549MOL0     H74103  10.559   9.409  10.449 -0.6441  1.2017 -2.6738
  549MOL0     H74104  10.719   9.420  10.368  0.9555  1.0433  0.8474
  549MOL0     H74105  10.753   9.634  10.410 -1.4744  1.3724 -2.7853
  549MOL0     H74106  10.642   9.656  10.547 -2.1676  0.6048 -0.4769
  549MOL0     H74107  10.542   9.781  10.396  0.8680  0.4334 -2.4847
  549MOL0     H74108  10.454   9.632  10.382  0.3888 -2.1774 -0.4394
  549MOL0     H74109  10.604   9.579  10.180 -0.5188 -1.1159  3.3949
  549MOL0     H74110  10.482   9.705  10.169 -0.0375 -1.3483 -1.7524
  549MOL0     H74111  10.853   9.931  10.149  0.6590  0.3158  3.1772
  549MOL0     H74112  10.946   9.367  10.489 -2.2979 -3.4059  2.5525
  549MOL0     H74113  11.193   9.387  10.477  0.9297 -0.8861  0.9968
  549MOL0     H74114  11.242   9.541  10.520 -1.5166  1.6615 -0.5429
  549MOL0     H74115  11.257   9.400  10.633 -0.8558 -0.3940 -0.2727
  550MOL0     O74116  11.187   7.011   5.660 -0.1053  0.3305 -0.2198
  550MOL0     C74117  11.172   6.991   5.540 -0.1427  0.1103 -0.5715
  550MOL0     O74118  11.092   7.062   5.462  0.4548  0.3189 -0.1674
  550MOL0     C74119  10.967   7.107   5.510  0.1181 -0.2926 -1.1917
  550MOL0     C74120  10.901   7.067   5.628  0.2464 -0.5153  0.5903
  550MOL0     C74121  10.768   7.112   5.652  0.6904 -0.6300  0.3281
  550MOL0     C74122  10.699   7.190   5.557 -0.0202  0.2125 -0.5731
  550MOL0     O74123  10.565   7.230   5.569 -0.5003  0.2036  0.0101
  550MOL0     C74124  10.477   7.122   5.549  0.7900 -1.5036  0.0036
  550MOL0     C74125  10.329   7.160   5.546  1.0274  0.1768 -0.1408
  550MOL0     C74126  10.309   7.304   5.478 -1.0812 -0.2829  0.2188
  550MOL0     C74127  10.367   7.320   5.339 -0.6895  0.6699  1.2585
  550MOL0     C74128  10.382   7.471   5.290 -0.8049  0.3172 -0.0366
  550MOL0     C74129  10.262   7.551   5.324 -0.6298 -0.8647  0.2189
  550MOL0     C74130  10.240   7.687   5.252  0.6062  0.6986  0.5098
  550MOL0     C74131  10.148   7.682   5.129  0.1801  0.6394  0.3158
  550MOL0     N74132  10.203   7.596   5.027  0.2279 -0.8796 -0.0335
  550MOL0     C74133  10.159   7.467   5.006  0.0174 -0.2417  0.5064
  550MOL0     C74134  10.251   7.420   4.917  0.1378  0.2093 -0.0733
  550MOL0     C74135  10.235   7.276   4.851 -1.1405  1.3600  0.4096
  550MOL0     C74136  10.184   7.291   4.705  0.3107 -0.0808 -0.7736
  550MOL0     C74137  10.042   7.356   4.706  0.2491  0.0609  0.4450
  550MOL0     C74138   9.987   7.380   4.559 -1.2162  0.3628 -0.2900
  550MOL0     O74139   9.851   7.361   4.559  0.6170  0.1610 -0.3418
  550MOL0     C74140   9.780   7.449   4.472  0.5812  0.8954 -0.0065
  550MOL0     C74141   9.740   7.385   4.358 -0.8019 -0.8343 -0.8224
  550MOL0     C74142   9.661   7.452   4.263  0.1804 -0.0159 -0.4544
  550MOL0     C74143   9.629   7.588   4.279  1.5056  0.0730 -0.2963
  550MOL0     C74144   9.569   7.663   4.171  0.4075 -0.0280 -0.2733
  550MOL0     O74145   9.528   7.589   4.067 -0.3767 -0.3134  0.1829
  550MOL0     C74146   9.449   7.635   3.963 -0.5980  0.2942  0.0736
  550MOL0     C74147   9.338   7.563   3.916  0.4986  0.6582 -0.0120
  550MOL0     C74148   9.267   7.603   3.801 -0.5139  0.4698  0.8484
  550MOL0     C74149   9.316   7.717   3.732 -0.3290 -0.1881 -0.0556
  550MOL0     O74150   9.268   7.780   3.618  0.0510 -0.8491  0.3174
  550MOL0     C74151   9.126   7.787   3.608 -0.2171 -0.3597 -0.4825
  550MOL0     C74152   9.078   7.892   3.513 -0.1074 -0.1435  0.6324
  550MOL0     C74153   8.930   7.880   3.470 -0.6819  1.4530 -0.5640
  550MOL0     C74154   8.909   7.776   3.363  0.7107 -0.4010  0.7324
  550MOL0     C74155   8.765   7.762   3.325 -0.5742 -0.2608 -0.6983
  550MOL0     C74156   8.755   7.678   3.205 -0.2167  0.4290  0.8911
  550MOL0     C74157   8.612   7.661   3.149  1.1505 -0.5845  0.5539
  550MOL0     C74158   8.596   7.563   3.037 -0.8936  0.1264  0.6720
  550MOL0    Cl74159   8.714   7.588   2.895  0.0199 -0.2745  0.1118
  550MOL0     C74160   9.421   7.796   3.783 -0.1053  0.6700 -0.7344
  550MOL0     C74161   9.490   7.757   3.894  1.1882  1.7521 -0.8803
  550MOL0     O74162   9.557   7.790   4.180  0.3537 -0.5974  0.7234
  550MOL0     C74163   9.671   7.645   4.399 -0.2346 -0.1426  0.2989
  550MOL0     C74164   9.750   7.580   4.491 -0.2370  0.1059  0.0559
  550MOL0     N74165  10.345   7.515   4.884 -0.7094  0.1051 -0.9694
  550MOL0     N74166  10.313   7.620   4.955 -0.1391 -0.2620 -0.0807
  550MOL0     C74167  10.773   7.243   5.453  0.6352 -0.1461 -0.9104
  550MOL0     C74168  10.898   7.199   5.427 -0.2070  0.0043  0.0927
  550MOL0     C74169  11.267   6.905   5.467  0.4592 -0.4236  0.6680
  550MOL0     C74170  11.297   6.922   5.327  0.7419  0.0344  0.1732
  550MOL0     C74171  11.401   6.853   5.254  0.9707  0.7211 -0.6723
  550MOL0     C74172  11.472   6.759   5.316  0.1907  0.3044  0.5436
  550MOL0     O74173  11.568   6.691   5.259  0.4530  0.2873  0.2764
  550MOL0     C74174  11.539   6.655   5.123 -0.7204  0.5189  1.1882
  550MOL0     C74175  11.635   6.548   5.076  0.2385 -0.0825 -0.0025
  550MOL0     C74176  11.633   6.415   5.161  0.1600  1.2008 -0.4128
  550MOL0     C74177  11.714   6.303   5.104 -1.6620  1.3920 -0.6510
  550MOL0     C74178  11.853   6.305   5.164 -0.4016  0.6586 -0.4207
  550MOL0     C74179  11.954   6.295   5.227 -0.1591  0.1167 -0.1192
  550MOL0     C74180  11.445   6.738   5.450 -0.0001 -0.5179  0.8242
  550MOL0     C74181  11.344   6.805   5.526 -0.1373  1.8375 -0.1672
  550MOL0     C74182  11.319   6.756   5.672  0.1071 -0.6843  0.0160
  550MOL0     H74183  10.958   7.022   5.709 -2.0403 -3.9160  0.5191
  550MOL0     H74184  10.706   7.087   5.738 -1.7396  2.6364 -0.2956
  550MOL0     H74185  10.489   7.068   5.454 -1.5097 -1.2760 -0.4880
  550MOL0     H74186  10.482   7.050   5.632  2.8363 -0.3005  1.0036
  550MOL0     H74187  10.295   7.158   5.650 -2.8108 -1.4494 -1.2519
  550MOL0     H74188  10.272   7.081   5.496  0.9321 -0.1398  0.4511
  550MOL0     H74189  10.366   7.373   5.540 -0.8405 -1.0870  0.8999
  550MOL0     H74190  10.203   7.331   5.482 -1.0097  0.2788 -1.0659
  550MOL0     H74191  10.466   7.273   5.338  0.1848  2.4243  1.0652
  550MOL0     H74192  10.305   7.261   5.271 -0.8105 -1.0138  2.7742
  550MOL0     H74193  10.464   7.528   5.335 -0.5522  0.0242 -0.1222
  550MOL0     H74194  10.401   7.460   5.183 -0.5123 -2.1867  0.1941
  550MOL0     H74195  10.171   7.491   5.313 -2.8288  1.9394  1.8491
  550MOL0     H74196  10.287   7.579   5.427 -2.1497 -3.2902  1.3332
  550MOL0     H74197  10.336   7.728   5.219  0.0039  0.1769 -2.1517
  550MOL0     H74198  10.198   7.767   5.314 -2.9009  1.6088 -2.6619
  550MOL0     H74199  10.054   7.632   5.152 -0.4391 -0.3838 -3.6647
  550MOL0     H74200  10.129   7.784   5.096  0.0110  0.8285  0.9901
  550MOL0     H74201  10.083   7.409   5.059  1.7992 -0.6243  2.7974
  550MOL0     H74202  10.332   7.227   4.854 -2.2125 -0.8451  2.1036
  550MOL0     H74203  10.168   7.220   4.917  0.0013 -1.2046 -0.4432
  550MOL0     H74204  10.247   7.353   4.641  0.1011 -0.5647 -1.4554
  550MOL0     H74205  10.177   7.198   4.649  2.6648 -0.9434  0.2737
  550MOL0     H74206  10.038   7.454   4.755 -0.3917  1.2046 -1.7549
  550MOL0     H74207   9.974   7.290   4.760  0.2901  1.2962  2.0870
  550MOL0     H74208  10.020   7.298   4.495 -3.2649 -1.1610  0.4906
  550MOL0     H74209  10.023   7.476   4.520  0.1540  0.2481  0.6155
  550MOL0     H74210   9.767   7.281   4.345 -0.7342 -0.6314 -2.5714
  550MOL0     H74211   9.651   7.404   4.166  2.7712 -2.4773  0.3603
  550MOL0     H74212   9.308   7.468   3.960 -0.6728  1.1195  0.2169
  550MOL0     H74213   9.177   7.554   3.766 -0.4673  2.5690 -2.6485
  550MOL0     H74214   9.091   7.692   3.567  0.8949 -0.0461 -2.2984
  550MOL0     H74215   9.079   7.807   3.704 -1.8833  0.4743 -1.4211
  550MOL0     H74216   9.089   7.988   3.563 -0.8990 -0.3325  1.1827
  550MOL0     H74217   9.142   7.893   3.424 -1.6488  0.6073 -0.5139
  550MOL0     H74218   8.875   7.853   3.561 -0.5242 -1.2545 -1.2053
  550MOL0     H74219   8.896   7.981   3.446 -0.4963  2.0802  1.5818
  550MOL0     H74220   8.950   7.681   3.400  0.4697 -1.1867 -0.9549
  550MOL0     H74221   8.971   7.805   3.278  0.4834 -0.9211  0.3795
  550MOL0     H74222   8.724   7.860   3.299  1.9495  1.2356  0.5790
  550MOL0     H74223   8.712   7.711   3.406  1.5374  0.6034  1.3471
  550MOL0     H74224   8.810   7.726   3.124 -1.1071  1.1612  0.7079
  550MOL0     H74225   8.788   7.576   3.229 -0.8566  0.0075  0.0196
  550MOL0     H74226   8.580   7.760   3.115 -0.8512 -1.4469 -0.2062
  550MOL0     H74227   8.546   7.619   3.226 -0.8348 -2.9802 -2.2350
  550MOL0     H74228   8.609   7.465   3.082 -0.2247  0.3735  1.0380
  550MOL0     H74229   8.494   7.571   2.999 -1.2016  2.1538  1.7628
  550MOL0     H74230   9.454   7.889   3.738  3.3660 -0.0618  0.0385
  550MOL0     H74231   9.582   7.806   3.923  0.4543  3.3502 -1.1358
  550MOL0     H74232   9.641   7.746   4.426 -0.0498 -0.5312  2.0965
  550MOL0     H74233   9.782   7.633   4.580 -0.5794 -0.3628  0.4610
  550MOL0     H74234  10.720   7.306   5.382 -2.4490  0.2953  1.5616
  550MOL0     H74235  10.956   7.243   5.346  0.4847 -0.1558  0.4990
  550MOL0     H74236  11.242   6.988   5.260  2.1078 -0.4648 -1.5198
  550MOL0     H74237  11.410   6.873   5.147  0.5630  1.9305 -0.4909
  550MOL0     H74238  11.566   6.746   5.068  2.9090  0.6180  2.8418
  550MOL0     H74239  11.436   6.627   5.099 -0.3188 -2.4258  2.4425
  550MOL0     H74240  11.733   6.594   5.088 -0.5288  2.1979 -1.7615
  550MOL0     H74241  11.622   6.525   4.970 -2.9730  1.0870  0.0309
  550MOL0     H74242  11.529   6.382   5.165  0.4060 -0.3699 -3.4504
  550MOL0     H74243  11.671   6.436   5.261  1.1840 -2.7872  0.2179
  550MOL0     H74244  11.671   6.209   5.140 -0.1383  0.8928 -0.0251
  550MOL0     H74245  11.708   6.306   4.994  0.8032 -0.6120 -0.9470
  550MOL0     H74246  12.037   6.283   5.294  1.3351  0.7948 -1.7998
  550MOL0     H74247  11.494   6.652   5.495 -1.7010 -2.8171 -1.4212
  550MOL0     H74248  11.219   6.712   5.686  0.2616 -0.5350  1.7758
  550MOL0     H74249  11.388   6.677   5.703 -1.0543 -0.9742  2.0343
  550MOL0     H74250  11.324   6.843   5.737 -4.0880 -1.1716  1.2905
  551MOL0     O74251   0.026   1.304   8.709 -0.2341 -0.4018  0.8356
  551MOL0     C74252   0.116   1.279   8.639  1.0203 -0.2253 -0.6324
  551MOL0     O74253   0.243   1.268   8.684 -0.6837  0.2413 -0.5098
  551MOL0     C74254   0.282   1.283   8.816 -0.6884  0.2199 -0.3406
  551MOL0     C74255   0.250   1.395   8.887  0.5535 -0.7683 -0.5941
  551MOL0     C74256   0.295   1.417   9.016 -2.4118 -0.8949  0.3504
  551MOL0     C74257   0.378   1.327   9.083  1.0248  0.2707  0.2026
  551MOL0     O74258   0.448   1.353   9.197  0.0632  1.0348  0.1647
  551MOL0     C74259   0.494   1.236   9.279 -0.4561 -0.6792  0.6833
  551MOL0     C74260   0.532   1.282   9.421 -0.0404 -0.1900  1.2996
  551MOL0     C74261   0.414   1.333   9.491  0.0945  0.6732 -0.1046
  551MOL0     C74262   0.464   1.387   9.631  0.9427  0.1421  0.8102
  551MOL0     C74263   0.591   1.476   9.638  0.3891  0.4808 -0.3581
  551MOL0     C74264   0.569   1.610   9.561 -0.5216  0.5048 -0.0534
  551MOL0     C74265   0.683   1.704   9.589 -0.3209  0.2354  0.2878
  551MOL0     C74266   0.776   1.744   9.472  0.3006 -0.4365 -0.4046
  551MOL0     N74267   0.699   1.831   9.378  0.5161  0.1584 -0.1244
  551MOL0     C74268   0.652   1.960   9.413 -0.5821 -0.9891  0.9814
  551MOL0     C74269   0.586   2.003   9.307  0.1464 -0.5407 -0.2715
  551MOL0     C74270   0.498   2.125   9.310  0.6937  0.6597  0.7836
  551MOL0     C74271   0.524   2.239   9.393 -0.5704 -1.6591 -0.9679
  551MOL0     C74272   0.667   2.289   9.381 -0.8619  0.1161  0.5391
  551MOL0     C74273   0.699   2.329   9.236 -0.3643  0.0405 -0.8033
  551MOL0     O74274   0.614   2.430   9.181  0.1541 -0.0392 -0.0131
  551MOL0     C74275   0.671   2.553   9.156  0.4813  0.5466 -0.2039
  551MOL0     C74276   0.767   2.615   9.235  0.1572 -0.4013  0.1434
  551MOL0     C74277   0.807   2.750   9.217 -0.1985 -0.8175  0.2243
  551MOL0     C74278   0.759   2.826   9.109  0.7157  0.0876  0.4172
  551MOL0     C74279   0.810   2.963   9.088 -0.1931  0.3164 -0.2755
  551MOL0     O74280   0.887   3.023   9.190  0.4573  0.3203 -0.4799
  551MOL0     C74281   0.917   3.155   9.197 -0.4638  0.1886 -1.1378
  551MOL0     C74282   0.952   3.193   9.332 -0.2067  0.2178  0.1898
  551MOL0     C74283   0.987   3.324   9.367  0.1405 -0.7371 -0.1048
  551MOL0     C74284   1.021   3.399   9.257 -0.0109  0.2871 -0.3751
  551MOL0     O74285   1.094   3.515   9.283  0.0692  0.2238  0.4616
  551MOL0     C74286   1.204   3.543   9.184  0.8954 -0.4314 -0.1974
  551MOL0     C74287   1.257   3.682   9.222  0.6882  0.8151  0.0868
  551MOL0     C74288   1.342   3.663   9.346  0.5214 -0.2962  0.0189
  551MOL0     C74289   1.438   3.785   9.379 -0.2458 -0.3410 -0.6989
  551MOL0     C74290   1.481   3.800   9.524  0.4475 -0.8984  0.0169
  551MOL0     C74291   1.573   3.928   9.541  0.8136  0.9093  0.9081
  551MOL0     C74292   1.626   3.927   9.680 -0.0802  0.1818  0.2492
  551MOL0     C74293   1.674   4.073   9.718  0.0678  0.1276  1.0358
  551MOL0    Cl74294   1.827   4.091   9.636  0.4336 -0.3476 -0.2568
  551MOL0     C74295   0.992   3.364   9.126 -0.3131 -0.3850  0.6423
  551MOL0     C74296   0.941   3.238   9.096  0.0455 -0.2788  0.0850
  551MOL0     O74297   0.765   3.026   8.986 -0.4117 -0.6039  0.0431
  551MOL0     C74298   0.679   2.756   9.018  0.5585 -0.5080 -1.2666
  551MOL0     C74299   0.646   2.623   9.036 -0.1152 -0.2255 -0.1499
  551MOL0     N74300   0.594   1.899   9.210  0.1716 -0.0051 -0.7091
  551MOL0     N74301   0.651   1.796   9.261 -0.7055 -0.1895  0.8206
  551MOL0     C74302   0.412   1.210   9.012  0.1955 -0.1984  0.5225
  551MOL0     C74303   0.364   1.188   8.882 -0.0033 -0.3153 -0.4628
  551MOL0     C74304   0.099   1.256   8.492 -0.1191  0.8447  1.5074
  551MOL0     C74305  -0.032   1.268   8.445 -0.1187 -0.3236  0.3595
  551MOL0     C74306  -0.053   1.280   8.302 -0.8817  1.0474 -0.2504
  551MOL0     C74307   0.057   1.258   8.219  0.6740 -1.2041  0.1084
  551MOL0     O74308   0.051   1.260   8.081 -0.4727  0.0917 -0.0091
  551MOL0     C74309  -0.057   1.320   8.010 -0.3126  0.1093  0.2646
  551MOL0     C74310   0.006   1.433   7.931  0.0232 -0.9391 -0.8408
  551MOL0     C74311   0.037   1.553   8.022  1.0064 -0.4147 -0.2384
  551MOL0     C74312  -0.084   1.644   8.059  1.1703 -1.1018  0.3185
  551MOL0     C74313  -0.153   1.714   7.944 -0.4461  0.3718 -0.9133
  551MOL0     C74314  -0.203   1.770   7.850 -0.0615  0.7681  1.3066
  551MOL0     C74315   0.186   1.226   8.275  0.2211 -1.0157  0.4203
  551MOL0     C74316   0.210   1.221   8.407  0.4976  0.4035 -0.0964
  551MOL0     C74317   0.356   1.209   8.449  0.7780 -0.5973  0.3166
  551MOL0     H74318   0.187   1.465   8.833  1.4177  0.4470 -0.0630
  551MOL0     H74319   0.278   1.513   9.063 -1.5739 -0.9874  0.8756
  551MOL0     H74320   0.422   1.155   9.268 -2.4098  1.0423  0.1971
  551MOL0     H74321   0.589   1.211   9.232 -0.4005 -0.2023  0.5410
  551MOL0     H74322   0.606   1.362   9.414  1.4307 -1.3147  2.8825
  551MOL0     H74323   0.584   1.203   9.477  2.0051 -1.1164 -1.6728
  551MOL0     H74324   0.341   1.253   9.508  2.1768 -1.7941 -2.0343
  551MOL0     H74325   0.358   1.416   9.447 -1.9146 -0.0359  0.9556
  551MOL0     H74326   0.377   1.438   9.673 -0.5209 -1.2643 -0.3938
  551MOL0     H74327   0.480   1.309   9.706 -0.7717  0.1539  1.2095
  551MOL0     H74328   0.601   1.498   9.745  1.3697 -1.5467  0.0024
  551MOL0     H74329   0.679   1.421   9.605 -0.5608 -3.3033  2.7423
  551MOL0     H74330   0.571   1.584   9.455  1.4327  1.0895 -0.1874
  551MOL0     H74331   0.472   1.655   9.584 -1.5250 -0.8044 -1.4869
  551MOL0     H74332   0.761   1.662   9.653 -0.5963  0.7118  0.9431
  551MOL0     H74333   0.639   1.790   9.640 -0.0373  0.3922  0.2678
  551MOL0     H74334   0.870   1.794   9.497 -0.4345 -0.4771  2.9086
  551MOL0     H74335   0.804   1.649   9.425  1.3834 -2.7043  4.1961
  551MOL0     H74336   0.657   2.004   9.511 -2.3150 -3.4192  2.2768
  551MOL0     H74337   0.485   2.154   9.205  0.8993  2.0158  1.1058
  551MOL0     H74338   0.398   2.092   9.340 -1.0457  3.0906 -1.7836
  551MOL0     H74339   0.463   2.326   9.367  1.7468  1.4292  2.7227
  551MOL0     H74340   0.521   2.219   9.501 -0.4951 -2.5584 -1.1249
  551MOL0     H74341   0.737   2.207   9.404 -4.2721 -3.1814  0.2382
  551MOL0     H74342   0.690   2.374   9.445  0.1430 -1.6495  2.6711
  551MOL0     H74343   0.715   2.244   9.168  3.0172  0.0736 -0.2454
  551MOL0     H74344   0.800   2.371   9.247 -0.6113 -0.0345  2.7130
  551MOL0     H74345   0.804   2.571   9.327  0.1770 -0.4152  0.1290
  551MOL0     H74346   0.874   2.792   9.292  0.6176 -1.5971 -0.0537
  551MOL0     H74347   0.934   3.121   9.411 -1.4399  2.8922  2.5177
  551MOL0     H74348   0.991   3.358   9.470 -4.6128  1.1105 -0.2555
  551MOL0     H74349   1.280   3.464   9.183  2.5743  1.1232 -0.4289
  551MOL0     H74350   1.168   3.559   9.082 -0.0752 -0.4937  0.1221
  551MOL0     H74351   1.322   3.724   9.144 -2.1047  0.6693 -2.5193
  551MOL0     H74352   1.165   3.740   9.228 -2.4700 -3.5475 -1.1807
  551MOL0     H74353   1.283   3.658   9.438  2.2930 -2.2576  1.1326
  551MOL0     H74354   1.413   3.582   9.326  0.0778 -0.6202 -0.2836
  551MOL0     H74355   1.387   3.872   9.339  2.7983  2.6479  1.3372
  551MOL0     H74356   1.528   3.784   9.316  0.4398  0.2317  0.2576
  551MOL0     H74357   1.515   3.709   9.574 -2.3682 -2.5363 -0.7841
  551MOL0     H74358   1.396   3.821   9.590  0.1018  0.8639 -0.9382
  551MOL0     H74359   1.659   3.918   9.475 -1.5369  1.8244 -2.5827
  551MOL0     H74360   1.521   4.021   9.517  1.4253  0.9643 -0.2569
  551MOL0     H74361   1.710   3.857   9.685  1.3687  1.9005  0.8478
  551MOL0     H74362   1.550   3.889   9.750 -0.8834  2.4829  0.6926
  551MOL0     H74363   1.607   4.147   9.676  0.6922 -1.1377 -2.5196
  551MOL0     H74364   1.674   4.081   9.827  2.8686  1.0579  1.0430
  551MOL0     H74365   1.018   3.432   9.045 -1.9047 -0.7413 -0.1970
  551MOL0     H74366   0.918   3.217   8.992 -2.6663  1.7729  0.1690
  551MOL0     H74367   0.652   2.809   8.927 -0.5902  3.3069  1.0746
  551MOL0     H74368   0.593   2.568   8.959  4.6010 -0.4397 -3.7066
  551MOL0     H74369   0.491   1.142   9.043  0.5715 -1.0438 -2.0276
  551MOL0     H74370   0.400   1.101   8.827  0.6154  0.1751 -0.8364
  551MOL0     H74371  -0.115   1.286   8.513 -0.6202 -3.3891  0.7268
  551MOL0     H74372  -0.157   1.300   8.278 -0.9998 -0.2439 -0.9104
  551MOL0     H74373  -0.136   1.351   8.079 -0.7461 -0.3839  0.0016
  551MOL0     H74374  -0.102   1.248   7.941  0.2329  0.6107 -0.6184
  551MOL0     H74375  -0.064   1.467   7.855 -4.7825 -4.5759  1.3701
  551MOL0     H74376   0.095   1.394   7.881  2.2753 -0.8515  2.7530
  551MOL0     H74377   0.101   1.620   7.964  0.8122 -1.2211 -1.4344
  551MOL0     H74378   0.080   1.515   8.115  0.3129  0.0879  0.2986
  551MOL0     H74379  -0.158   1.585   8.113 -1.0988 -0.0174 -1.4631
  551MOL0     H74380  -0.063   1.729   8.125 -1.8597  2.5164 -2.8823
  551MOL0     H74381  -0.242   1.832   7.772  0.1501 -0.4077  0.2192
  551MOL0     H74382   0.266   1.204   8.205 -0.3865 -0.8075 -0.3590
  551MOL0     H74383   0.353   1.127   8.522  0.3857 -1.6487 -0.8413
  551MOL0     H74384   0.418   1.177   8.365 -1.0220 -1.8590 -0.5905
  551MOL0     H74385   0.396   1.305   8.481 -0.2720  0.1319 -0.4972
  552MOL0     O74386   2.903   5.853  10.377  0.6408  1.0292  0.0638
  552MOL0     C74387   2.888   5.884  10.499  0.1016 -0.4232 -0.1301
  552MOL0     O74388   2.792   5.975  10.552  0.1354  0.0332 -0.0658
  552MOL0     C74389   2.722   6.047  10.461 -0.0509  0.4908  0.5462
  552MOL0     C74390   2.581   6.052  10.474 -0.3951 -0.8106 -0.0304
  552MOL0     C74391   2.507   6.124  10.377 -0.4305  0.2856 -0.5527
  552MOL0     C74392   2.570   6.187  10.265  0.8108 -0.1563  0.5351
  552MOL0     O74393   2.510   6.271  10.166  0.9224  0.1175 -0.3450
  552MOL0     C74394   2.379   6.334  10.201 -1.0348  1.6500  0.0822
  552MOL0     C74395   2.324   6.425  10.090 -0.7575  0.3383  0.4163
  552MOL0     C74396   2.428   6.539  10.056  1.0278 -0.1658 -0.8816
  552MOL0     C74397   2.384   6.642   9.960 -0.7537 -1.2405 -0.0813
  552MOL0     C74398   2.250   6.708   9.977  0.9101 -0.2729 -0.6370
  552MOL0     C74399   2.217   6.795   9.858 -0.1147 -0.2147  0.0960
  552MOL0     C74400   2.075   6.848   9.889 -0.3269  0.8161  0.6108
  552MOL0     C74401   2.036   6.950   9.784  0.4930 -0.4001  0.2948
  552MOL0     N74402   1.925   7.037   9.825  0.1128  0.5904 -0.4120
  552MOL0     C74403   1.813   7.068   9.742 -0.7289  0.9117  0.3627
  552MOL0     C74404   1.765   7.181   9.800  0.7304  0.5781  0.4942
  552MOL0     C74405   1.627   7.236   9.773  0.6145  0.3154  0.3689
  552MOL0     C74406   1.632   7.382   9.710  0.5173 -0.0479 -0.8008
  552MOL0     C74407   1.520   7.474   9.757  0.3039 -0.7711 -0.1308
  552MOL0     C74408   1.383   7.420   9.726  0.4324 -0.0363 -0.4807
  552MOL0     O74409   1.283   7.509   9.774 -0.1846 -0.7314 -0.1477
  552MOL0     C74410   1.152   7.452   9.780 -0.3310 -0.0360 -0.0653
  552MOL0     C74411   1.058   7.503   9.874 -0.1064 -0.0637 -0.9243
  552MOL0     C74412   0.927   7.465   9.876  0.1739 -0.7371 -0.2515
  552MOL0     C74413   0.887   7.373   9.787  0.5231  1.0153 -0.2625
  552MOL0     C74414   0.736   7.328   9.794 -0.9176 -0.6220  1.0297
  552MOL0     O74415   0.690   7.297   9.670  0.3338  0.1976  0.2349
  552MOL0     C74416   0.561   7.329   9.652 -0.4216  0.0099 -0.0684
  552MOL0     C74417   0.497   7.452   9.676 -0.2556 -0.9196 -0.3840
  552MOL0     C74418   0.361   7.469   9.634 -0.6375  0.5375 -0.3125
  552MOL0     C74419   0.285   7.365   9.583  0.1012  0.7605  0.2019
  552MOL0     O74420   0.157   7.394   9.562  0.1686 -0.1553  0.6040
  552MOL0     C74421   0.063   7.289   9.528  0.5601  0.4552  0.1741
  552MOL0     C74422   0.022   7.215   9.651  0.1733  0.6711  0.0742
  552MOL0     C74423  -0.085   7.111   9.605 -0.3143  0.2664 -0.0604
  552MOL0     C74424  -0.201   7.118   9.713  0.9285  0.5815  0.7040
  552MOL0     C74425  -0.311   7.014   9.701  0.6899  0.5262 -0.1312
  552MOL0     C74426  -0.404   7.044   9.581  0.4064 -0.1638 -0.0659
  552MOL0     C74427  -0.512   6.928   9.563  0.0563 -0.1076  0.3178
  552MOL0     C74428  -0.568   6.949   9.427  0.2585  1.0474  0.1158
  552MOL0    Cl74429  -0.725   6.875   9.435 -0.3109  0.2964  0.2014
  552MOL0     C74430   0.350   7.249   9.546 -0.0759  0.3896 -0.0467
  552MOL0     C74431   0.488   7.232   9.583 -0.1551  0.5482  0.1118
  552MOL0     O74432   0.666   7.340   9.897 -0.2570 -0.0057  0.1783
  552MOL0     C74433   0.975   7.312   9.702  0.4124  0.1695  1.0365
  552MOL0     C74434   1.098   7.364   9.681  0.0610  0.0525 -0.1733
  552MOL0     N74435   1.849   7.219   9.912 -0.7075 -0.1379  0.6225
  552MOL0     N74436   1.936   7.133   9.919 -0.0423 -0.0816 -0.5844
  552MOL0     C74437   2.705   6.175  10.259  0.2621 -0.3236 -0.6472
  552MOL0     C74438   2.782   6.109  10.347 -0.3112  0.9151  0.0291
  552MOL0     C74439   2.963   5.807  10.602  0.0359  0.2759  0.4559
  552MOL0     C74440   2.932   5.814  10.740 -0.0923 -0.0949 -0.0931
  552MOL0     C74441   3.007   5.748  10.842 -0.1498  0.1853  0.2067
  552MOL0     C74442   3.104   5.653  10.805  0.2606  0.0376 -0.0528
  552MOL0     O74443   3.193   5.588  10.890 -0.4202 -0.3599  0.2495
  552MOL0     C74444   3.134   5.535  11.013  0.2896 -0.4015  0.1221
  552MOL0     C74445   3.255   5.490  11.099  0.1885 -0.1767  0.2938
  552MOL0     C74446   3.229   5.368  11.205 -0.0181  0.4149  1.0177
  552MOL0     C74447   3.310   5.381  11.326  0.3692 -0.7733  0.1611
  552MOL0     C74448   3.248   5.311  11.433 -0.2312  0.3994 -0.9562
  552MOL0     C74449   3.221   5.235  11.520 -0.1177 -0.1599 -0.9782
  552MOL0     C74450   3.128   5.638  10.663 -0.6019 -0.1785  0.1093
  552MOL0     C74451   3.071   5.721  10.561 -0.4033  0.4683  0.1531
  552MOL0     C74452   3.135   5.719  10.428 -0.5763  0.2960 -0.0368
  552MOL0     H74453   2.530   5.998  10.555 -2.5183 -1.3102 -1.6103
  552MOL0     H74454   2.399   6.118  10.382 -0.4500 -1.6350 -2.2429
  552MOL0     H74455   2.301   6.263  10.228  0.0072 -0.2431 -1.6205
  552MOL0     H74456   2.403   6.401  10.283  3.4175  0.7939 -0.2642
  552MOL0     H74457   2.233   6.467  10.134 -0.2428  0.4366  1.4017
  552MOL0     H74458   2.290   6.369  10.002  3.4009  0.6164 -1.5800
  552MOL0     H74459   2.514   6.495  10.006  1.0168  0.6640 -1.6644
  552MOL0     H74460   2.452   6.588  10.151 -2.0213  0.8117 -0.5223
  552MOL0     H74461   2.459   6.721   9.962 -0.3425 -1.6153 -0.4538
  552MOL0     H74462   2.394   6.609   9.856 -0.9655  3.3611 -1.7732
  552MOL0     H74463   2.173   6.633   9.994  1.4983 -0.0488  4.2405
  552MOL0     H74464   2.258   6.772  10.065  0.6624  0.0838 -0.8696
  552MOL0     H74465   2.299   6.866   9.846  0.9939 -1.2100  1.4824
  552MOL0     H74466   2.209   6.740   9.763 -2.9481 -1.3248  0.8935
  552MOL0     H74467   2.070   6.891   9.989 -1.4590  3.0653 -0.3492
  552MOL0     H74468   1.994   6.775   9.881 -1.9865  2.3227  2.7085
  552MOL0     H74469   2.117   7.022   9.769  0.0992 -0.2580 -1.2655
  552MOL0     H74470   2.021   6.909   9.684 -0.2198  0.9976 -0.2028
  552MOL0     H74471   1.763   7.014   9.662 -2.6979  0.3471  1.8889
  552MOL0     H74472   1.582   7.163   9.706  1.7517  0.7179 -0.8721
  552MOL0     H74473   1.571   7.252   9.866 -2.1897  2.4983 -1.5703
  552MOL0     H74474   1.727   7.436   9.723  1.3761 -1.9322  1.3342
  552MOL0     H74475   1.610   7.368   9.604 -0.3350 -1.8654 -0.4264
  552MOL0     H74476   1.530   7.575   9.718 -0.3744 -0.9148 -0.6799
  552MOL0     H74477   1.519   7.487   9.866  1.0196  2.5409 -0.4243
  552MOL0     H74478   1.370   7.324   9.776 -1.1880 -1.7008 -3.8008
  552MOL0     H74479   1.381   7.402   9.618 -0.8857 -5.9636  0.1852
  552MOL0     H74480   1.093   7.578   9.944 -1.5790  0.4222 -0.6665
  552MOL0     H74481   0.866   7.505   9.957  0.2490  1.0073 -1.0114
  552MOL0     H74482   0.550   7.533   9.724 -0.5839  0.3256 -2.0233
  552MOL0     H74483   0.311   7.565   9.648 -1.6370 -0.0381  0.1314
  552MOL0     H74484  -0.026   7.343   9.496  0.9850  2.9313  2.6682
  552MOL0     H74485   0.098   7.226   9.446 -1.4268 -1.9391  1.0439
  552MOL0     H74486   0.099   7.156   9.701  0.1121  0.4234 -0.1228
  552MOL0     H74487  -0.014   7.276   9.735 -0.8149  2.4238 -1.5540
  552MOL0     H74488  -0.112   7.149   9.506  2.1052  2.5304  0.0477
  552MOL0     H74489  -0.056   7.005   9.598 -0.9163  0.2062 -2.1599
  552MOL0     H74490  -0.263   7.208   9.701 -1.0559 -0.5480  1.9825
  552MOL0     H74491  -0.163   7.128   9.815 -0.6569 -0.8827  1.4920
  552MOL0     H74492  -0.362   7.011   9.798  2.7267  1.0625  1.0002
  552MOL0     H74493  -0.255   6.921   9.692 -0.1901 -0.3634  2.6305
  552MOL0     H74494  -0.456   7.138   9.600 -0.7930 -0.7141 -0.5370
  552MOL0     H74495  -0.351   7.060   9.486  0.2002 -1.2432 -0.3751
  552MOL0     H74496  -0.591   6.935   9.638 -1.3606 -0.2969 -1.1065
  552MOL0     H74497  -0.466   6.829   9.565  1.9050  0.5888 -2.4911
  552MOL0     H74498  -0.591   7.053   9.403  0.4637  0.4575 -3.0962
  552MOL0     H74499  -0.497   6.907   9.356  1.5645 -0.5187  2.2488
  552MOL0     H74500   0.312   7.162   9.493  0.6096 -1.6857  2.7019
  552MOL0     H74501   0.542   7.142   9.555  1.6686  0.7843  2.5082
  552MOL0     H74502   0.945   7.230   9.638  3.5862  0.3094 -0.8208
  552MOL0     H74503   1.169   7.328   9.608  0.5841  1.6624 -0.5161
  552MOL0     H74504   2.747   6.223  10.171 -1.7137  2.8868  0.0200
  552MOL0     H74505   2.889   6.098  10.338 -0.3922 -0.5953  0.7040
  552MOL0     H74506   2.854   5.886  10.759  1.7486  2.1131 -0.5339
  552MOL0     H74507   2.995   5.776  10.946 -1.7618  2.4469 -0.5099
  552MOL0     H74508   3.067   5.451  10.996 -1.1803  1.0243 -1.3959
  552MOL0     H74509   3.083   5.607  11.077 -0.6527  0.3998 -1.4740
  552MOL0     H74510   3.292   5.582  11.145  1.0228  0.4954 -1.6425
  552MOL0     H74511   3.331   5.459  11.027 -2.8593  0.0263 -3.3173
  552MOL0     H74512   3.247   5.271  11.158  3.0434 -0.6702  4.0346
  552MOL0     H74513   3.122   5.381  11.223  0.0710  3.3429  0.0156
  552MOL0     H74514   3.412   5.343  11.311  0.7700 -1.4488  3.6834
  552MOL0     H74515   3.311   5.486  11.358 -2.8289 -0.0622 -1.6622
  552MOL0     H74516   3.213   5.158  11.595  3.2532 -0.1675 -0.4780
  552MOL0     H74517   3.198   5.561  10.631  0.3557  1.6586 -2.6295
  552MOL0     H74518   3.137   5.819  10.384  3.5417  1.7181  2.8095
  552MOL0     H74519   3.239   5.686  10.426 -0.7478 -0.3385  0.8080
  552MOL0     H74520   3.076   5.643  10.377  0.3051 -0.9757  0.7906
  553MOL0     O74521   5.971  10.502   3.306 -0.0217  0.8009  0.3916
  553MOL0     C74522   5.966  10.500   3.431  0.2154 -0.8891 -0.4574
  553MOL0     O74523   5.893  10.412   3.512 -0.0885 -1.0857  0.5738
  553MOL0     C74524   5.834  10.310   3.447  0.8089 -0.3253  0.1002
  553MOL0     C74525   5.906  10.203   3.392 -1.6050 -0.7587 -1.0304
  553MOL0     C74526   5.838  10.106   3.325  0.3208  0.2232 -0.0357
  553MOL0     C74527   5.694  10.106   3.320  0.5325  0.5755  0.4212
  553MOL0     O74528   5.643   9.998   3.252  0.5254 -0.0484  0.1237
  553MOL0     C74529   5.509   9.979   3.208  0.0682 -0.2737  0.1493
  553MOL0     C74530   5.531   9.882   3.092  0.0073  0.0274  0.1382
  553MOL0     C74531   5.401   9.884   3.001 -0.4017  0.0864  0.6726
  553MOL0     C74532   5.299   9.784   3.061  0.5041  0.2613  1.6235
  553MOL0     C74533   5.181   9.742   2.973 -0.4233 -0.5067  0.5434
  553MOL0     C74534   5.079   9.848   2.934 -0.1173  0.4941  0.3788
  553MOL0     C74535   4.959   9.785   2.852  0.3802  0.3603 -0.4672
  553MOL0     C74536   4.986   9.743   2.710  0.3150  0.5003 -0.2438
  553MOL0     N74537   5.024   9.848   2.617 -0.0812  0.5019  0.7105
  553MOL0     C74538   5.151   9.883   2.572 -0.3134  0.4342 -0.6407
  553MOL0     C74539   5.130   9.998   2.512  0.0984 -0.2504 -0.0755
  553MOL0     C74540   5.242  10.072   2.446 -0.1909 -0.0820  0.5186
  553MOL0     C74541   5.231  10.222   2.465  0.4963 -0.3159  0.3826
  553MOL0     C74542   5.262  10.256   2.608 -0.2641  0.7593 -0.7042
  553MOL0     C74543   5.338  10.386   2.637  0.1322  0.2462  0.8768
  553MOL0     O74544   5.482  10.362   2.619  1.3031 -0.5524  0.9223
  553MOL0     C74545   5.561  10.476   2.620  0.3484  0.0302  0.7230
  553MOL0     C74546   5.683  10.462   2.547 -0.8446 -1.0933 -0.4443
  553MOL0     C74547   5.780  10.563   2.556 -0.7701 -0.4809  0.6342
  553MOL0     C74548   5.764  10.681   2.633 -0.3195  0.0132  0.6345
  553MOL0     C74549   5.869  10.784   2.651  0.3017 -0.0924  1.3662
  553MOL0     O74550   5.840  10.879   2.739  0.3261  0.7942 -0.5855
  553MOL0     C74551   5.933  10.979   2.772  0.2376 -0.0386  0.2618
  553MOL0     C74552   6.070  10.950   2.775  0.0141 -0.6947  0.1447
  553MOL0     C74553   6.150  11.040   2.831  0.1182  0.0357  0.9808
  553MOL0     C74554   6.092  11.158   2.882 -0.8214 -0.1828 -0.4011
  553MOL0     O74555   6.164  11.263   2.941 -1.0315  0.0826  0.2994
  553MOL0     C74556   6.293  11.229   2.991  0.3122 -0.3420  0.3427
  553MOL0     C74557   6.344  11.334   3.082 -0.4244 -0.1896 -0.0649
  553MOL0     C74558   6.397  11.458   2.996  0.0979  0.0045 -0.3341
  553MOL0     C74559   6.277  11.566   2.976 -0.4821  0.4830 -0.6363
  553MOL0     C74560   6.311  11.705   2.914 -0.3093  0.3561 -0.1295
  553MOL0     C74561   6.191  11.763   2.825 -0.6003 -0.3008  0.4892
  553MOL0     C74562   6.228  11.895   2.766 -0.1124 -0.2401 -1.1458
  553MOL0     C74563   6.140  11.946   2.641 -0.6100  0.1022 -0.7135
  553MOL0    Cl74564   5.984  12.006   2.690 -0.1737  0.2425  0.3513
  553MOL0     C74565   5.959  11.194   2.878  0.3355  0.0683  0.4694
  553MOL0     C74566   5.879  11.093   2.840 -1.0056  0.2081 -0.7250
  553MOL0     O74567   5.970  10.773   2.580 -0.3463  0.5712 -0.4580
  553MOL0     C74568   5.646  10.686   2.710 -0.0006 -0.4214  0.6788
  553MOL0     C74569   5.539  10.593   2.696 -0.4234  0.9603  0.2492
  553MOL0     N74570   4.993  10.023   2.490 -0.0978 -0.2338 -0.3846
  553MOL0     N74571   4.932   9.934   2.554  0.5545  0.1337 -0.3101
  553MOL0     C74572   5.622  10.207   3.382  0.1637  1.4595  0.3490
  553MOL0     C74573   5.695  10.304   3.459 -0.3569  1.6704  0.1301
  553MOL0     C74574   6.038  10.612   3.503  0.1894 -0.2955 -0.1112
  553MOL0     C74575   6.036  10.611   3.643 -0.0575 -1.2512 -0.8007
  553MOL0     C74576   6.116  10.708   3.716  1.1066  1.5750 -1.0587
  553MOL0     C74577   6.176  10.813   3.653 -0.1052 -0.0303 -0.2803
  553MOL0     O74578   6.251  10.919   3.705  0.5934  0.7438 -0.3146
  553MOL0     C74579   6.252  10.925   3.842 -0.8579 -0.2246  0.0014
  553MOL0     C74580   6.339  11.021   3.909 -0.0231 -0.0392  0.3183
  553MOL0     C74581   6.486  10.975   3.900 -0.3048  0.0614 -1.0426
  553MOL0     C74582   6.576  11.069   3.982 -0.3049  0.7273  0.0988
  553MOL0     C74583   6.607  11.182   3.907  0.1445 -0.3966  0.0330
  553MOL0     C74584   6.614  11.289   3.854 -0.1912 -0.5770  0.9761
  553MOL0     C74585   6.172  10.817   3.510 -1.1847  0.3323 -0.3349
  553MOL0     C74586   6.123  10.708   3.439  0.1603 -1.1676  0.1207
  553MOL0     C74587   6.139  10.730   3.283  0.6041  0.0777 -0.3876
  553MOL0     H74588   6.014  10.208   3.406 -1.6841 -1.2041 -0.2080
  553MOL0     H74589   5.895  10.020   3.292  1.9018  0.9684  0.6434
  553MOL0     H74590   5.445   9.930   3.281  0.4410 -5.8238 -2.7225
  553MOL0     H74591   5.464  10.076   3.186  1.0595  0.1954  0.1152
  553MOL0     H74592   5.554   9.782   3.131 -0.6638  0.8294  2.7181
  553MOL0     H74593   5.621   9.904   3.033  0.0264  0.8380  0.4573
  553MOL0     H74594   5.424   9.860   2.897 -6.3054  1.1069 -1.2836
  553MOL0     H74595   5.352   9.982   3.008 -0.6299 -0.0084  0.3890
  553MOL0     H74596   5.345   9.691   3.094 -0.8126 -0.5492  1.2578
  553MOL0     H74597   5.261   9.826   3.155  1.6265  2.4968  1.1399
  553MOL0     H74598   5.226   9.716   2.877 -0.1941  2.3588 -0.2103
  553MOL0     H74599   5.123   9.658   3.013 -2.6351  1.2915  1.3025
  553MOL0     H74600   5.032   9.883   3.026 -0.8695 -1.7814  0.9200
  553MOL0     H74601   5.119   9.929   2.873 -2.8210  1.4781 -0.2001
  553MOL0     H74602   4.873   9.852   2.844  0.9504  1.0294 -1.1032
  553MOL0     H74603   4.935   9.697   2.911 -0.8793  1.5663  0.8957
  553MOL0     H74604   5.064   9.666   2.708 -0.8254 -0.6966 -1.3098
  553MOL0     H74605   4.901   9.688   2.667 -0.1682  0.7265  0.3986
  553MOL0     H74606   5.248   9.839   2.595 -1.0093 -0.6257  0.3395
  553MOL0     H74607   5.339  10.044   2.487  1.7969  2.7467 -1.7800
  553MOL0     H74608   5.243  10.053   2.338  2.2959  1.4445  0.2042
  553MOL0     H74609   5.309  10.267   2.403  1.3029 -2.0150  0.1100
  553MOL0     H74610   5.136  10.265   2.434  0.7647  0.6633  0.8932
  553MOL0     H74611   5.321  10.184   2.665 -2.2567  1.0584  1.9195
  553MOL0     H74612   5.174  10.250   2.673  1.4121 -4.4824  1.6223
  553MOL0     H74613   5.316  10.425   2.737  0.2878  0.0082  1.0047
  553MOL0     H74614   5.291  10.452   2.563 -4.1787 -4.0099 -0.6987
  553MOL0     H74615   5.694  10.374   2.484  0.1325 -0.6736 -0.8881
  553MOL0     H74616   5.877  10.544   2.510 -1.0708  0.2009 -0.3362
  553MOL0     H74617   6.122  10.862   2.737 -2.1648 -2.6716  1.4180
  553MOL0     H74618   6.256  11.014   2.836  0.0496  0.0081  3.0902
  553MOL0     H74619   6.286  11.133   3.043  1.4658 -0.1037  0.9747
  553MOL0     H74620   6.368  11.221   2.912  3.8199 -2.0848  3.4735
  553MOL0     H74621   6.266  11.362   3.154  0.8343  1.3246  0.7747
  553MOL0     H74622   6.427  11.286   3.134  0.5724  0.8535 -0.6619
  553MOL0     H74623   6.476  11.504   3.056  1.7754 -1.0498 -1.6379
  553MOL0     H74624   6.435  11.441   2.895 -2.3130 -1.9853 -0.9795
  553MOL0     H74625   6.238  11.595   3.074  1.4761  2.6925 -0.4221
  553MOL0     H74626   6.200  11.514   2.918 -0.6106 -1.9575  1.5506
  553MOL0     H74627   6.395  11.692   2.845  0.0934  0.0953  0.4087
  553MOL0     H74628   6.337  11.773   2.996 -3.0663  2.1603 -0.6234
  553MOL0     H74629   6.159  11.695   2.746  3.2171 -0.1600 -1.4036
  553MOL0     H74630   6.104  11.790   2.886 -0.0158  1.0687  0.7528
  553MOL0     H74631   6.331  11.887   2.730  0.5776  0.5168  0.5661
  553MOL0     H74632   6.233  11.976   2.839  2.5662 -2.1607  1.0394
  553MOL0     H74633   6.191  12.018   2.577  3.0769 -0.5974  1.1626
  553MOL0     H74634   6.125  11.856   2.581  1.4818 -0.4560 -0.4849
  553MOL0     H74635   5.923  11.282   2.932 -0.2008 -0.5700  1.1782
  553MOL0     H74636   5.771  11.100   2.844 -0.9722  0.2083  1.7518
  553MOL0     H74637   5.631  10.764   2.784  1.4633  0.5194  0.0207
  553MOL0     H74638   5.446  10.608   2.751  0.3778 -1.0667  2.3194
  553MOL0     H74639   5.517  10.207   3.356  0.3341 -0.3046 -0.4518
  553MOL0     H74640   5.638  10.389   3.495 -2.2483  0.3539  0.3645
  553MOL0     H74641   5.978  10.536   3.696  0.7976 -2.1353 -1.0970
  553MOL0     H74642   6.109  10.701   3.824  0.0159 -2.4520 -1.2178
  553MOL0     H74643   6.273  10.825   3.881  2.0909 -0.1856 -1.1738
  553MOL0     H74644   6.152  10.952   3.877 -0.0091 -0.9059  3.2303
  553MOL0     H74645   6.298  11.040   4.009 -2.5858 -0.9995 -0.4811
  553MOL0     H74646   6.318  11.114   3.855 -2.4963 -0.4863  0.3989
  553MOL0     H74647   6.518  10.963   3.797 -0.8171  1.3128 -1.3749
  553MOL0     H74648   6.504  10.883   3.956  1.9836  2.1364  1.9897
  553MOL0     H74649   6.527  11.100   4.075 -0.0350  0.7862  0.2219
  553MOL0     H74650   6.666  11.011   4.008  0.1058  0.9691 -0.7493
  553MOL0     H74651   6.640  11.381   3.807 -0.7159 -1.0383 -0.2592
  553MOL0     H74652   6.223  10.891   3.449 -1.0479  0.4602 -0.0716
  553MOL0     H74653   6.153  10.638   3.227  0.4324  1.2312 -2.4120
  553MOL0     H74654   6.045  10.770   3.245  0.4220  0.2698  0.2473
  553MOL0     H74655   6.216  10.804   3.257  1.2037 -0.6527 -0.7005
  554MOL0     O74656   3.295  10.054   0.433  0.0805  0.7500 -0.4719
  554MOL0     C74657   3.339   9.950   0.482  0.8503 -0.3925 -0.1763
  554MOL0     O74658   3.274   9.867   0.575  0.2080  0.3330  0.3607
  554MOL0     C74659   3.138   9.848   0.569  0.4946  0.6766 -0.2765
  554MOL0     C74660   3.089   9.774   0.677  0.5208  0.2134 -1.4577
  554MOL0     C74661   2.954   9.739   0.693 -0.4517  0.3302 -0.5713
  554MOL0     C74662   2.864   9.770   0.591  0.4318  0.7046 -0.3287
  554MOL0     O74663   2.739   9.728   0.616  0.0475  0.8702  0.0460
  554MOL0     C74664   2.647   9.772   0.513  0.0095 -0.5649 -0.1366
  554MOL0     C74665   2.507   9.721   0.542  0.1839 -0.8153 -0.1922
  554MOL0     C74666   2.413   9.827   0.597  0.3868 -0.2990 -0.8517
  554MOL0     C74667   2.263   9.811   0.560 -0.3439  0.1186 -0.3149
  554MOL0     C74668   2.179   9.909   0.642  0.2968  0.2428  0.5691
  554MOL0     C74669   2.035   9.884   0.618 -0.1095  0.3561 -0.3180
  554MOL0     C74670   1.958   9.977   0.711 -0.0023 -0.8770  0.8048
  554MOL0     C74671   1.813   9.962   0.659 -0.6588 -0.0889 -0.2085
  554MOL0     N74672   1.750   9.836   0.674 -0.2397  0.1524 -0.4656
  554MOL0     C74673   1.761   9.727   0.593 -0.1700  0.1948 -0.0696
  554MOL0     C74674   1.698   9.628   0.651 -0.5093  0.5715  0.2732
  554MOL0     C74675   1.692   9.477   0.607  0.7737 -0.1565 -1.3262
  554MOL0     C74676   1.825   9.408   0.572  0.0312  0.1756 -0.3452
  554MOL0     C74677   1.947   9.416   0.667  0.3709  0.9523  0.0792
  554MOL0     C74678   1.929   9.323   0.783  0.2367  0.2773 -0.0415
  554MOL0     O74679   1.958   9.183   0.735  0.4593 -0.1416 -0.3592
  554MOL0     C74680   2.093   9.165   0.726 -0.0445 -0.6221  0.8935
  554MOL0     C74681   2.185   9.163   0.835 -0.4744 -0.1595 -0.5340
  554MOL0     C74682   2.323   9.139   0.812 -0.4243  0.6019 -0.5305
  554MOL0     C74683   2.368   9.100   0.685  0.2222 -0.8923 -0.7461
  554MOL0     C74684   2.506   9.061   0.664 -0.2938 -0.2189 -0.1385
  554MOL0     O74685   2.587   9.077   0.769 -0.3952 -0.5910  0.1388
  554MOL0     C74686   2.720   9.036   0.762  0.4219 -0.1834 -0.1973
  554MOL0     C74687   2.760   8.947   0.857 -0.4732  0.2799 -0.6824
  554MOL0     C74688   2.895   8.916   0.875 -0.3965  0.4334 -0.0241
  554MOL0     C74689   2.993   8.975   0.800  1.1731 -0.5040  0.6771
  554MOL0     O74690   3.126   8.945   0.812  0.4919  0.1791  0.4113
  554MOL0     C74691   3.183   8.928   0.943  0.0366  0.1910 -1.4638
  554MOL0     C74692   3.332   8.911   0.910  0.3632 -0.1010 -0.1606
  554MOL0     C74693   3.404   9.046   0.888 -0.0361 -0.7111 -0.1870
  554MOL0     C74694   3.528   9.026   0.809 -0.8714  0.4126 -0.0067
  554MOL0     C74695   3.629   9.144   0.822 -0.0496  0.1469  0.2387
  554MOL0     C74696   3.774   9.084   0.788 -0.2475  0.7357 -0.0004
  554MOL0     C74697   3.879   9.191   0.794 -0.2920 -0.2359  0.0473
  554MOL0     C74698   3.927   9.211   0.935 -0.0225  0.1205 -0.3362
  554MOL0    Cl74699   4.034   9.076   0.983  0.2192 -0.4214 -0.1867
  554MOL0     C74700   2.956   9.059   0.689  0.2614 -0.8099 -0.8039
  554MOL0     C74701   2.817   9.089   0.672 -0.1022  0.3139 -0.4208
  554MOL0     O74702   2.543   9.023   0.551  0.0956  0.4564 -0.2903
  554MOL0     C74703   2.275   9.088   0.586 -0.0551  0.2672 -0.2430
  554MOL0     C74704   2.144   9.118   0.602 -0.0995 -0.2737 -0.2166
  554MOL0     N74705   1.639   9.677   0.764  0.0563  0.6085 -0.4713
  554MOL0     N74706   1.682   9.803   0.786  0.5266 -0.2044  0.1285
  554MOL0     C74707   2.921   9.825   0.467  0.4618 -0.3493 -0.0345
  554MOL0     C74708   3.052   9.866   0.460 -0.8063 -0.8193 -0.2219
  554MOL0     C74709   3.478   9.926   0.471 -1.4313 -0.9265  0.3307
  554MOL0     C74710   3.553   9.860   0.575  0.0399 -0.0750 -0.3265
  554MOL0     C74711   3.694   9.849   0.561  0.8429 -0.7263 -0.5083
  554MOL0     C74712   3.775   9.891   0.458  0.0422 -0.0171 -0.5281
  554MOL0     O74713   3.911   9.859   0.444 -0.1926 -0.2682 -0.1178
  554MOL0     C74714   3.980   9.913   0.337  0.2409 -0.4840  0.4972
  554MOL0     C74715   4.134   9.893   0.341 -1.2071 -0.3930  0.2684
  554MOL0     C74716   4.181   9.755   0.337 -1.0068 -0.2652 -0.3414
  554MOL0     C74717   4.113   9.659   0.228 -0.6874  0.5724  0.4623
  554MOL0     C74718   4.209   9.539   0.214  0.3320 -1.1809 -0.3420
  554MOL0     C74719   4.288   9.444   0.216  0.5726  0.8089 -0.2386
  554MOL0     C74720   3.695   9.971   0.367 -0.5161 -0.0269 -0.4372
  554MOL0     C74721   3.555   9.973   0.362 -0.0475  0.0134  0.0088
  554MOL0     C74722   3.496  10.037   0.240 -0.4043 -0.0483 -0.1583
  554MOL0     H74723   3.160   9.747   0.755 -1.1780 -0.1633  0.0581
  554MOL0     H74724   2.923   9.705   0.791 -1.3236  1.1270 -0.5611
  554MOL0     H74725   2.646   9.877   0.483 -2.1159 -0.2537  0.8524
  554MOL0     H74726   2.669   9.730   0.414  1.4175  1.9771 -0.9690
  554MOL0     H74727   2.509   9.642   0.617 -3.2736  1.3840  2.5546
  554MOL0     H74728   2.466   9.684   0.448 -0.5299 -0.7110  0.0754
  554MOL0     H74729   2.433   9.925   0.552 -0.7623  0.7597  0.8363
  554MOL0     H74730   2.424   9.829   0.706 -0.8302  0.5612 -0.7251
  554MOL0     H74731   2.246   9.828   0.453  3.2920 -0.1081 -1.0547
  554MOL0     H74732   2.228   9.713   0.594  0.4061  0.9291  3.1548
  554MOL0     H74733   2.203   9.880   0.745  0.7055 -1.3093  0.0609
  554MOL0     H74734   2.212  10.010   0.616  2.5521 -0.4691  0.4549
  554MOL0     H74735   2.022   9.897   0.510  1.4944 -2.1358 -0.8867
  554MOL0     H74736   2.015   9.780   0.645 -0.5967  0.7959  1.0782
  554MOL0     H74737   2.006  10.075   0.705 -2.2418  0.1963 -2.4105
  554MOL0     H74738   1.968   9.949   0.816  1.9422  0.6464  1.0873
  554MOL0     H74739   1.743  10.035   0.700  0.2758  0.7161  0.0057
  554MOL0     H74740   1.809   9.983   0.551 -1.5394 -1.1543 -0.3975
  554MOL0     H74741   1.802   9.722   0.492  0.3112 -2.1953  0.1978
  554MOL0     H74742   1.630   9.419   0.677 -0.2328 -3.1020 -4.3673
  554MOL0     H74743   1.630   9.481   0.517 -0.4995  0.3225 -0.4562
  554MOL0     H74744   1.807   9.305   0.542 -2.0725  0.3342  0.2439
  554MOL0     H74745   1.851   9.460   0.479  1.8330  2.1281  1.1271
  554MOL0     H74746   1.971   9.516   0.701 -0.0719  1.2821 -0.5505
  554MOL0     H74747   2.044   9.403   0.617  1.0371  2.0622  1.0419
  554MOL0     H74748   1.831   9.334   0.831  0.8064 -0.4526  1.3256
  554MOL0     H74749   2.008   9.340   0.856 -1.7644 -0.1655  2.3566
  554MOL0     H74750   2.155   9.195   0.934  2.7718 -1.8879  1.1620
  554MOL0     H74751   2.390   9.163   0.894  1.2676 -2.5408 -0.8219
  554MOL0     H74752   2.688   8.918   0.933  0.2125 -0.2242 -0.2173
  554MOL0     H74753   2.932   8.848   0.951  1.8304  3.5701  1.9435
  554MOL0     H74754   3.171   9.018   1.004 -2.2272 -1.4476  0.7330
  554MOL0     H74755   3.152   8.843   1.003  2.7343  0.2119  0.1002
  554MOL0     H74756   3.384   8.860   0.992 -0.6342 -0.2963  0.3680
  554MOL0     H74757   3.336   8.843   0.824 -0.2066 -1.6680  1.0071
  554MOL0     H74758   3.349   9.122   0.831  1.3377  0.9626  0.6325
  554MOL0     H74759   3.424   9.100   0.981  0.7318 -0.4432 -0.5037
  554MOL0     H74760   3.506   8.999   0.705  0.7101  0.1841 -0.3047
  554MOL0     H74761   3.581   8.940   0.851 -0.6088  1.1356  1.1904
  554MOL0     H74762   3.624   9.189   0.922  2.6931  0.7179  0.1935
  554MOL0     H74763   3.614   9.225   0.751  1.6506  0.0748 -0.2351
  554MOL0     H74764   3.794   9.007   0.863  0.6604  2.2933  1.4181
  554MOL0     H74765   3.766   9.028   0.694 -1.3097 -0.1846  0.6101
  554MOL0     H74766   3.836   9.284   0.755 -1.5478 -1.6473 -2.1754
  554MOL0     H74767   3.965   9.160   0.733  0.5906 -3.2086  2.5339
  554MOL0     H74768   3.982   9.305   0.948  0.1656 -0.0413  0.0537
  554MOL0     H74769   3.839   9.221   0.998 -1.8455 -1.3834 -2.4953
  554MOL0     H74770   3.019   9.099   0.610 -1.2506  1.6259 -0.8892
  554MOL0     H74771   2.778   9.152   0.594  0.5758  1.2358 -0.0327
  554MOL0     H74772   2.300   9.054   0.486 -1.1728 -4.0707  0.7504
  554MOL0     H74773   2.071   9.110   0.522  0.8533 -2.4734 -0.9545
  554MOL0     H74774   2.861   9.841   0.378  2.3818 -1.5983 -1.6316
  554MOL0     H74775   3.084   9.919   0.371 -2.2946  2.0903  0.8299
  554MOL0     H74776   3.496   9.811   0.654 -4.4263  3.0159 -1.2471
  554MOL0     H74777   3.735   9.785   0.639  1.0499 -1.6711 -1.3771
  554MOL0     H74778   3.973  10.021   0.321  2.6753 -0.1149  1.5283
  554MOL0     H74779   3.940   9.857   0.251 -2.0758  0.3793  0.9590
  554MOL0     H74780   4.172   9.949   0.427 -1.2507 -0.2742  0.2109
  554MOL0     H74781   4.188   9.944   0.261  0.5684 -1.3504  0.8000
  554MOL0     H74782   4.172   9.703   0.432  4.3090 -2.5517 -0.7372
  554MOL0     H74783   4.288   9.742   0.318 -1.1496  0.9755 -2.3566
  554MOL0     H74784   4.017   9.622   0.267 -1.0844 -2.7877 -3.0885
  554MOL0     H74785   4.098   9.712   0.134  2.0538  1.6697  0.5494
  554MOL0     H74786   4.358   9.363   0.214 -0.4782 -0.3440  3.1286
  554MOL0     H74787   3.737  10.011   0.276 -0.4469  4.4736  1.3323
  554MOL0     H74788   3.559  10.037   0.151 -1.3938 -0.5738 -0.8712
  554MOL0     H74789   3.402   9.990   0.208  0.1246 -0.8797 -0.5095
  554MOL0     H74790   3.482  10.142   0.267 -2.7379 -0.7165  1.6392
  555MOL0     O74791   7.630   7.120   1.841  0.4524  0.8854 -0.0711
  555MOL0     C74792   7.569   7.187   1.921  0.9039  0.8030 -1.0087
  555MOL0     O74793   7.594   7.200   2.056 -0.3927  0.0440 -0.3010
  555MOL0     C74794   7.697   7.140   2.118  0.3053 -0.3339  0.0368
  555MOL0     C74795   7.827   7.120   2.069  0.6571 -0.1558 -0.6807
  555MOL0     C74796   7.937   7.056   2.139 -0.7957 -0.2833 -0.1681
  555MOL0     C74797   7.914   7.015   2.272  0.3304 -0.9951 -0.8288
  555MOL0     O74798   8.002   6.951   2.354  0.7611 -0.5451  0.8092
  555MOL0     C74799   8.136   6.941   2.311  0.2619  0.3697 -1.1946
  555MOL0     C74800   8.213   6.924   2.442 -0.9589  0.6475 -0.7694
  555MOL0     C74801   8.360   6.885   2.410  1.1209  0.1530  0.5031
  555MOL0     C74802   8.387   6.768   2.323 -0.1690  0.8498 -1.1479
  555MOL0     C74803   8.545   6.753   2.303  0.1387  0.5187  0.5614
  555MOL0     C74804   8.631   6.862   2.253 -1.2591 -0.3914 -0.1905
  555MOL0     C74805   8.575   6.936   2.134  0.5783 -0.4266 -0.7948
  555MOL0     C74806   8.586   6.845   2.005 -0.0970 -0.7055  0.1332
  555MOL0     N74807   8.554   6.926   1.891 -0.0542 -0.3261  0.8752
  555MOL0     C74808   8.429   6.978   1.868  0.5219 -0.3548  0.2544
  555MOL0     C74809   8.450   7.087   1.794 -1.1600 -0.4450  0.5282
  555MOL0     C74810   8.351   7.167   1.725  0.7496 -0.5324 -0.7339
  555MOL0     C74811   8.259   7.253   1.829 -0.2530  0.2712  0.6404
  555MOL0     C74812   8.332   7.378   1.885 -0.5208  0.2222  0.2146
  555MOL0     C74813   8.405   7.347   2.019 -0.0325  0.4289  0.9370
  555MOL0     O74814   8.316   7.305   2.125  0.0172  0.4335 -0.0148
  555MOL0     C74815   8.366   7.306   2.256 -0.0373 -0.3810 -0.6700
  555MOL0     C74816   8.284   7.298   2.364 -0.1653 -0.2998  0.4338
  555MOL0     C74817   8.333   7.290   2.500  0.0629  0.3340 -0.4357
  555MOL0     C74818   8.467   7.297   2.525 -0.9723 -0.1758 -0.2751
  555MOL0     C74819   8.533   7.285   2.659 -0.7358 -0.6806 -0.1314
  555MOL0     O74820   8.666   7.298   2.666 -0.0099  0.4231 -0.6166
  555MOL0     C74821   8.741   7.213   2.734  0.6675  0.1197  0.9658
  555MOL0     C74822   8.872   7.256   2.773 -0.1826 -0.5380 -0.0090
  555MOL0     C74823   8.960   7.167   2.840  0.3079 -0.3714  1.0631
  555MOL0     C74824   8.931   7.028   2.843  0.3805  0.9596  0.0884
  555MOL0     O74825   9.021   6.929   2.891 -0.3455 -0.9913  0.6859
  555MOL0     C74826   9.021   6.933   3.027 -0.4431  0.6210 -0.3334
  555MOL0     C74827   8.889   6.879   3.082 -1.2230  0.7985  0.6061
  555MOL0     C74828   8.901   6.806   3.216 -0.2609  1.3875 -0.1984
  555MOL0     C74829   8.770   6.738   3.251 -0.3875  0.0733 -0.5773
  555MOL0     C74830   8.755   6.695   3.399 -0.8762 -0.2215  0.3803
  555MOL0     C74831   8.637   6.609   3.427  0.4084 -0.6608 -0.1003
  555MOL0     C74832   8.647   6.463   3.383 -0.0121 -0.8410  0.1087
  555MOL0     C74833   8.628   6.350   3.485  0.4480  0.4641  0.0639
  555MOL0    Cl74834   8.466   6.346   3.567  0.2738  0.6133  0.2222
  555MOL0     C74835   8.815   6.985   2.787  0.5095 -0.6953 -0.2229
  555MOL0     C74836   8.715   7.069   2.739  0.3369 -1.0338  0.6602
  555MOL0     O74837   8.461   7.251   2.747  0.5528 -0.4620 -0.0468
  555MOL0     C74838   8.555   7.299   2.415 -0.6580 -0.2815  0.2786
  555MOL0     C74839   8.503   7.310   2.286  0.1120 -0.4281  0.1654
  555MOL0     N74840   8.586   7.114   1.791 -0.1643 -0.8943 -0.0557
  555MOL0     N74841   8.649   7.012   1.843  0.1314  0.0207  0.2922
  555MOL0     C74842   7.783   7.046   2.331 -0.6248 -0.2185  0.1531
  555MOL0     C74843   7.678   7.100   2.249  0.3124  1.2562 -0.4055
  555MOL0     C74844   7.457   7.259   1.867 -0.2963  0.1565 -0.5292
  555MOL0     C74845   7.358   7.294   1.959  0.4146 -0.5133 -0.8734
  555MOL0     C74846   7.232   7.343   1.911 -0.6365  0.8094  0.0588
  555MOL0     C74847   7.214   7.365   1.772  0.3401 -0.3907 -0.0470
  555MOL0     O74848   7.097   7.385   1.699 -0.5441  0.1020 -0.8943
  555MOL0     C74849   6.980   7.397   1.777  1.1021 -0.1104 -0.9235
  555MOL0     C74850   6.975   7.531   1.852 -0.6995  0.4114  0.2579
  555MOL0     C74851   6.830   7.568   1.892  0.1547 -0.7092  0.5259
  555MOL0     C74852   6.752   7.453   1.959 -0.1400 -0.3399  1.0852
  555MOL0     C74853   6.649   7.515   2.044 -0.3201  0.9868  0.1616
  555MOL0     C74854   6.555   7.557   2.109 -0.4337  0.6414 -0.3159
  555MOL0     C74855   7.318   7.343   1.692 -0.1512 -0.7336  1.3363
  555MOL0     C74856   7.442   7.290   1.730 -0.2551 -0.3571 -0.4685
  555MOL0     C74857   7.546   7.271   1.620 -0.0999  0.5395 -0.1818
  555MOL0     H74858   7.845   7.152   1.967 -1.7960  0.4056 -0.9838
  555MOL0     H74859   8.030   7.021   2.096 -0.3972 -3.3671  2.7257
  555MOL0     H74860   8.145   6.850   2.251 -0.1228  0.4903 -1.4372
  555MOL0     H74861   8.158   7.037   2.264  0.8411  0.9009  0.1257
  555MOL0     H74862   8.184   6.857   2.524  0.8260  2.9077  1.9169
  555MOL0     H74863   8.210   7.017   2.501 -1.0598  0.1571  0.0158
  555MOL0     H74864   8.406   6.866   2.507  0.2403  0.8113  1.0578
  555MOL0     H74865   8.415   6.964   2.358  0.7041  0.1703  0.0842
  555MOL0     H74866   8.340   6.674   2.355 -0.4775  1.7000  1.1660
  555MOL0     H74867   8.350   6.784   2.222 -1.3903 -0.3703 -0.9256
  555MOL0     H74868   8.588   6.714   2.395 -2.0827 -1.5839  0.8150
  555MOL0     H74869   8.552   6.667   2.236  1.0911  0.2451  0.9962
  555MOL0     H74870   8.646   6.928   2.339 -1.8014 -0.2101 -0.2308
  555MOL0     H74871   8.722   6.809   2.228 -2.8056 -3.0392 -0.5854
  555MOL0     H74872   8.617   7.036   2.119  1.9074 -0.4236  2.2307
  555MOL0     H74873   8.466   6.947   2.144  0.9498  1.0829  2.9681
  555MOL0     H74874   8.693   6.823   1.995  0.3196  0.2241  1.9685
  555MOL0     H74875   8.520   6.758   2.008  0.1153 -0.8731  2.6764
  555MOL0     H74876   8.333   6.936   1.894  1.4365 -2.7659 -0.0232
  555MOL0     H74877   8.380   7.244   1.652 -1.0938 -0.3335 -1.3122
  555MOL0     H74878   8.292   7.093   1.670 -1.0190  1.2366 -1.3531
  555MOL0     H74879   8.173   7.288   1.773  0.3829 -0.2441 -0.7176
  555MOL0     H74880   8.226   7.188   1.911  1.1202 -0.0105  1.0019
  555MOL0     H74881   8.263   7.457   1.917  2.7730  2.3493  2.8547
  555MOL0     H74882   8.402   7.417   1.810 -0.5960  0.6034  0.3404
  555MOL0     H74883   8.455   7.441   2.043  2.5324  0.1118 -2.5137
  555MOL0     H74884   8.481   7.271   2.001  2.2731  2.5484  1.2507
  555MOL0     H74885   8.181   7.284   2.332 -1.3649  0.9199  3.4007
  555MOL0     H74886   8.260   7.266   2.577 -1.1418  0.4831 -1.5036
  555MOL0     H74887   8.916   7.355   2.774  0.9235 -0.9771  2.4612
  555MOL0     H74888   9.060   7.204   2.860 -0.1735  1.3603  0.4405
  555MOL0     H74889   9.101   6.865   3.057 -3.0237 -1.8731  1.4765
  555MOL0     H74890   9.052   7.031   3.064  1.0947 -0.3429  1.1084
  555MOL0     H74891   8.821   6.963   3.099  1.8898  3.5110  0.6559
  555MOL0     H74892   8.839   6.822   3.003  1.2365  2.0906 -2.0538
  555MOL0     H74893   8.967   6.720   3.199 -0.9674  0.5648  1.0520
  555MOL0     H74894   8.941   6.875   3.290 -2.1223  1.8146  0.4575
  555MOL0     H74895   8.742   6.654   3.186  0.8763 -0.5248 -0.3765
  555MOL0     H74896   8.702   6.823   3.239  1.1947  1.6674  1.1338
  555MOL0     H74897   8.746   6.780   3.467  2.7808 -0.3208  1.1990
  555MOL0     H74898   8.847   6.645   3.431 -1.4358 -0.3764  1.8128
  555MOL0     H74899   8.614   6.609   3.534 -1.8850  0.7977 -0.5380
  555MOL0     H74900   8.554   6.667   3.387  1.6770  2.2994  1.2361
  555MOL0     H74901   8.751   6.449   3.352  2.1213  1.1008  5.1419
  555MOL0     H74902   8.579   6.443   3.301  0.3109  0.7725 -0.5969
  555MOL0     H74903   8.635   6.261   3.421  1.5160  2.0766 -2.2051
  555MOL0     H74904   8.711   6.349   3.555 -0.1000  3.9407  0.9183
  555MOL0     H74905   8.806   6.878   2.772  0.4173 -0.9101  1.1718
  555MOL0     H74906   8.621   7.028   2.706  0.9807 -0.0868 -2.7244
  555MOL0     H74907   8.663   7.307   2.420 -0.7715  0.9768  1.3878
  555MOL0     H74908   8.581   7.311   2.210  0.7270  1.8085  0.7658
  555MOL0     H74909   7.775   7.020   2.436  0.3191 -2.6154 -0.2808
  555MOL0     H74910   7.581   7.112   2.297  0.2919 -0.5483  0.0766
  555MOL0     H74911   7.373   7.266   2.062  1.8313 -0.6989 -1.1135
  555MOL0     H74912   7.155   7.356   1.987  1.1978  1.8273  1.8312
  555MOL0     H74913   6.965   7.320   1.853  0.4922  0.4751 -0.4384
  555MOL0     H74914   6.888   7.384   1.718  0.6503 -3.8900  0.3206
  555MOL0     H74915   7.010   7.599   1.774 -3.3743 -1.6370 -3.0841
  555MOL0     H74916   7.027   7.531   1.948  0.0111 -1.4780 -0.0723
  555MOL0     H74917   6.770   7.625   1.820 -0.4051 -1.7276  0.1664
  555MOL0     H74918   6.840   7.638   1.976 -1.2617 -0.4580  0.5107
  555MOL0     H74919   6.719   7.398   1.870  0.0324  2.8538 -1.0903
  555MOL0     H74920   6.823   7.390   2.015 -0.2569 -0.4046  1.1599
  555MOL0     H74921   6.469   7.607   2.150 -1.5419 -0.9917 -0.5373
  555MOL0     H74922   7.299   7.349   1.586 -1.7721 -0.9457  1.5837
  555MOL0     H74923   7.648   7.290   1.655 -0.5245 -2.3117  3.0012
  555MOL0     H74924   7.547   7.171   1.577  1.3888  1.0496 -1.4437
  555MOL0     H74925   7.536   7.347   1.542  1.2449  1.6703  0.7001
  556MOL0     O74926   2.127   9.590   0.354 -0.6719  0.5260 -0.0415
  556MOL0     C74927   2.166   9.535   0.250  0.1306 -0.1550  0.9885
  556MOL0     O74928   2.101   9.543   0.132 -0.2230  0.2909  0.2839
  556MOL0     C74929   1.991   9.626   0.137 -0.3507  1.0516 -0.1843
  556MOL0     C74930   1.996   9.755   0.090 -0.0467  0.6678  0.3419
  556MOL0     C74931   1.894   9.848   0.114 -1.3321  0.5078 -0.3869
  556MOL0     C74932   1.786   9.811   0.189  0.0738  0.4917  0.2855
  556MOL0     O74933   1.678   9.900   0.208 -0.5827  0.1151  0.3860
  556MOL0     C74934   1.555   9.871   0.135  0.0219 -0.5382  0.1781
  556MOL0     C74935   1.445   9.973   0.164  0.1125 -1.0710 -0.2504
  556MOL0     C74936   1.485  10.120   0.155 -0.3943 -0.7874 -1.3066
  556MOL0     C74937   1.590  10.176   0.255 -0.4872  0.6033 -0.4643
  556MOL0     C74938   1.606  10.333   0.237  0.0417 -0.5842  0.2963
  556MOL0     C74939   1.730  10.404   0.299 -0.8414  0.3202 -0.0596
  556MOL0     C74940   1.716  10.548   0.250  0.0590 -0.2683 -0.2869
  556MOL0     C74941   1.840  10.611   0.198 -0.0069 -0.2249 -1.5602
  556MOL0     N74942   1.837  10.746   0.172 -0.6889 -0.7722  0.3523
  556MOL0     C74943   1.828  10.798   0.044  0.0848  0.4338  0.2206
  556MOL0     C74944   1.822  10.935   0.056  0.0989  1.0573 -0.6116
  556MOL0     C74945   1.825  11.039  -0.052 -0.1127  0.0680 -0.6373
  556MOL0     C74946   1.764  11.179  -0.016 -0.1402 -0.0127 -0.2945
  556MOL0     C74947   1.609  11.183   0.005 -0.3286 -0.3352  0.1068
  556MOL0     C74948   1.581  11.298   0.106  0.9033  0.1128 -0.7960
  556MOL0     O74949   1.441  11.312   0.146  0.1688 -0.5289  0.0614
  556MOL0     C74950   1.411  11.418   0.229  0.2041  0.3166  0.9369
  556MOL0     C74951   1.275  11.418   0.268 -0.3760  0.5927  0.1182
  556MOL0     C74952   1.226  11.503   0.366  0.2495  0.1634 -0.7204
  556MOL0     C74953   1.312  11.597   0.426 -0.3732 -0.0279  1.1258
  556MOL0     C74954   1.263  11.687   0.524  1.1055 -0.2782  0.1587
  556MOL0     O74955   1.183  11.615   0.615  0.2455 -0.6907  0.6838
  556MOL0     C74956   1.111  11.691   0.701  0.3897 -1.1259 -1.5632
  556MOL0     C74957   0.987  11.751   0.672  0.2298  0.0663  0.7681
  556MOL0     C74958   0.921  11.815   0.776 -0.4142  0.6914 -0.1052
  556MOL0     C74959   0.952  11.793   0.916 -0.4544  1.1600 -0.4892
  556MOL0     O74960   0.874  11.836   1.024 -0.2578 -0.2441  0.2523
  556MOL0     C74961   0.911  11.973   1.048 -0.9431  1.7989 -1.0482
  556MOL0     C74962   0.920  12.015   1.193  0.0245  0.3594 -0.6092
  556MOL0     C74963   1.030  11.964   1.283  0.0770  0.5484 -0.2114
  556MOL0     C74964   0.999  11.998   1.432  0.0014 -1.4859  0.3565
  556MOL0     C74965   0.883  11.918   1.489  0.7011 -0.1063  1.7034
  556MOL0     C74966   0.899  11.860   1.623 -0.7565  0.4616 -0.6695
  556MOL0     C74967   0.981  11.727   1.612  0.2172 -0.1893 -0.6345
  556MOL0     C74968   1.074  11.699   1.740  0.4539  0.2390 -0.1835
  556MOL0    Cl74969   0.969  11.626   1.879  0.0783 -0.0125 -0.1256
  556MOL0     C74970   1.074  11.726   0.936 -0.3349  0.4577  0.1122
  556MOL0     C74971   1.157  11.687   0.825  0.6049 -0.5636 -0.4857
  556MOL0     O74972   1.284  11.811   0.534  1.0385  0.6383  0.0579
  556MOL0     C74973   1.442  11.612   0.369 -0.3429  0.0514  0.2500
  556MOL0     C74974   1.494  11.519   0.269 -0.6999 -0.0937 -0.0409
  556MOL0     N74975   1.825  10.961   0.198  0.2125 -0.0466  0.0577
  556MOL0     N74976   1.836  10.848   0.260 -0.2714  0.0286 -0.4336
  556MOL0     C74977   1.774   9.674   0.228 -0.5868 -0.2890 -0.2106
  556MOL0     C74978   1.875   9.585   0.198 -0.2986  0.6817  0.6331
  556MOL0     C74979   2.295   9.464   0.249  0.4081 -0.5442 -0.7767
  556MOL0     C74980   2.361   9.445   0.133  0.0143  0.6150 -0.9848
  556MOL0     C74981   2.492   9.386   0.121 -0.0916  0.0518  0.3904
  556MOL0     C74982   2.554   9.339   0.234  0.3985 -0.3302  0.4796
  556MOL0     O74983   2.692   9.323   0.248  0.6084 -0.4219 -0.0244
  556MOL0     C74984   2.787   9.369   0.157  0.8282 -0.4039 -0.0460
  556MOL0     C74985   2.815   9.520   0.181  0.6734 -0.0316 -0.4154
  556MOL0     C74986   2.936   9.572   0.107  1.0452 -1.4647 -0.0902
  556MOL0     C74987   2.945   9.538  -0.038 -0.1781 -0.0435  0.2343
  556MOL0     C74988   2.827   9.602  -0.110  0.0705  0.4865 -0.0690
  556MOL0     C74989   2.729   9.657  -0.160 -0.4532  0.1243  0.8998
  556MOL0     C74990   2.484   9.353   0.353 -0.7403  0.1069  0.5456
  556MOL0     C74991   2.362   9.415   0.363  0.4054 -0.6163 -0.4194
  556MOL0     C74992   2.284   9.399   0.491 -0.8838  0.0538  0.3462
  556MOL0     H74993   2.091   9.787   0.049  0.9957 -1.1286  1.2684
  556MOL0     H74994   1.910   9.953   0.095  0.1663  0.4859  0.6552
  556MOL0     H74995   1.584   9.874   0.030  2.7701  0.4876  0.8822
  556MOL0     H74996   1.523   9.769   0.162 -2.2314 -0.6162 -2.3206
  556MOL0     H74997   1.406   9.953   0.264 -1.7125  0.8351 -0.5024
  556MOL0     H74998   1.353   9.952   0.107 -1.3050 -0.9338  1.8817
  556MOL0     H74999   1.392  10.177   0.166 -0.2603 -0.7237 -0.3820
  556MOL0     H75000   1.517  10.140   0.053 -2.3006 -0.3833 -1.8735
  556MOL0     H75001   1.553  10.170   0.358 -0.5927  3.8370 -0.2220
  556MOL0     H75002   1.690  10.131   0.248  0.9251  3.2307  1.1616
  556MOL0     H75003   1.609  10.349   0.129  2.3086  0.6799  0.4930
  556MOL0     H75004   1.515  10.377   0.281  1.7530  0.3085  3.2032
  556MOL0     H75005   1.723  10.390   0.408 -1.4257 -0.2641 -0.1612
  556MOL0     H75006   1.828  10.362   0.275 -1.5493 -1.7000  0.4079
  556MOL0     H75007   1.684  10.615   0.330  0.8782  0.7192 -0.7634
  556MOL0     H75008   1.641  10.562   0.172  0.4455 -0.0116 -0.6186
  556MOL0     H75009   1.905  10.583   0.282  1.1415  4.1946 -0.7272
  556MOL0     H75010   1.872  10.553   0.111  1.8323 -0.0817 -1.0219
  556MOL0     H75011   1.831  10.727  -0.038 -0.7043  1.0792 -0.3808
  556MOL0     H75012   1.931  11.055  -0.076  0.6735  0.5877  2.7332
  556MOL0     H75013   1.776  10.991  -0.138 -0.4059 -2.2769  0.7567
  556MOL0     H75014   1.814  11.213   0.075  0.4889 -2.5887  0.3965
  556MOL0     H75015   1.791  11.252  -0.093  3.4120  0.2177  0.9907
  556MOL0     H75016   1.586  11.089   0.056  1.1029  0.1684  1.7842
  556MOL0     H75017   1.556  11.188  -0.091 -2.0751 -0.3887  1.0422
  556MOL0     H75018   1.620  11.390   0.062 -0.3288  0.2162 -1.7156
  556MOL0     H75019   1.629  11.274   0.202 -2.6820 -2.6802  0.5226
  556MOL0     H75020   1.208  11.335   0.250  0.6901 -0.2751  0.0191
  556MOL0     H75021   1.124  11.497   0.402  0.6988  1.8211  0.9784
  556MOL0     H75022   0.946  11.751   0.572 -0.4995 -3.0277  0.9781
  556MOL0     H75023   0.829  11.868   0.754 -0.0240  1.9786  1.2453
  556MOL0     H75024   1.001  12.005   0.994 -1.0066 -0.2661 -2.5014
  556MOL0     H75025   0.826  12.028   1.007 -1.1521  1.3522 -1.2273
  556MOL0     H75026   0.936  12.123   1.191 -0.5594  0.5261  1.2149
  556MOL0     H75027   0.823  12.000   1.242  0.3139 -2.5031 -0.7368
  556MOL0     H75028   1.031  11.855   1.281  1.6526  0.5436 -0.6337
  556MOL0     H75029   1.131  11.999   1.257 -0.6299  1.5350 -1.7713
  556MOL0     H75030   0.973  12.104   1.438  2.8511 -0.7032  0.6318
  556MOL0     H75031   1.091  11.985   1.490  1.1484  3.1690 -0.0339
  556MOL0     H75032   0.858  11.835   1.422 -0.4487  0.6853  1.1255
  556MOL0     H75033   0.788  11.972   1.485  0.9292  0.4153 -3.4793
  556MOL0     H75034   0.952  11.938   1.678 -2.0848  0.1748  1.1230
  556MOL0     H75035   0.799  11.857   1.667 -1.3343  1.3699 -1.8428
  556MOL0     H75036   1.048  11.731   1.525 -0.2131  2.6834 -0.9306
  556MOL0     H75037   0.906  11.647   1.605 -0.6989  0.3575  1.9100
  556MOL0     H75038   1.150  11.623   1.719  0.7042  0.1022  1.1019
  556MOL0     H75039   1.139  11.782   1.767  0.1367 -0.3597  2.8897
  556MOL0     H75040   1.112  11.707   1.036 -1.5324  2.2928  0.9729
  556MOL0     H75041   1.253  11.641   0.846  0.6804 -0.0957  0.2355
  556MOL0     H75042   1.501  11.699   0.397  1.0114 -0.4367 -0.9890
  556MOL0     H75043   1.591  11.535   0.224 -1.6072  3.2833 -1.1438
  556MOL0     H75044   1.696   9.639   0.295 -2.0850 -0.5666 -2.0169
  556MOL0     H75045   1.870   9.478   0.214 -3.3594  0.9995  2.4504
  556MOL0     H75046   2.317   9.480   0.040 -1.6675 -0.2700 -0.5712
  556MOL0     H75047   2.538   9.382   0.022 -2.3978  1.6397 -0.8279
  556MOL0     H75048   2.750   9.343   0.057 -0.6034 -0.0731  0.3742
  556MOL0     H75049   2.887   9.327   0.167  0.8548 -0.1032  1.1624
  556MOL0     H75050   2.826   9.532   0.289 -0.4178 -1.0716 -0.1618
  556MOL0     H75051   2.724   9.572   0.148 -1.2396 -2.6510  0.3653
  556MOL0     H75052   3.026   9.540   0.159  3.7203  1.3122 -2.6167
  556MOL0     H75053   2.937   9.680   0.120  3.1119 -1.2770 -1.4149
  556MOL0     H75054   3.040   9.580  -0.071 -1.1048  0.1916 -2.4591
  556MOL0     H75055   2.943   9.431  -0.060  3.4817  0.2922 -2.6693
  556MOL0     H75056   2.635   9.699  -0.188  0.1065  0.5358 -0.4882
  556MOL0     H75057   2.532   9.329   0.448  0.8853 -0.9467 -0.4905
  556MOL0     H75058   2.187   9.351   0.473 -1.0863  0.2204  0.9615
  556MOL0     H75059   2.326   9.316   0.549  0.6940 -0.5127 -1.5018
  556MOL0     H75060   2.279   9.488   0.556  0.0536  0.2302  0.1854
  557MOL0     O75061   6.716   4.464   8.331 -0.2442 -0.6727 -0.0681
  557MOL0     C75062   6.761   4.391   8.421 -0.1229  0.3248  1.0850
  557MOL0     O75063   6.815   4.269   8.405 -0.2218  0.2030 -0.1135
  557MOL0     C75064   6.792   4.181   8.303  0.1701  0.1475  0.0038
  557MOL0     C75065   6.669   4.173   8.233  0.9496  0.0670 -0.7269
  557MOL0     C75066   6.651   4.086   8.128  0.7078 -0.2216  0.5022
  557MOL0     C75067   6.755   3.998   8.088 -0.9964 -0.0910 -0.6549
  557MOL0     O75068   6.757   3.914   7.983 -0.4819 -0.0454  0.6042
  557MOL0     C75069   6.638   3.894   7.919  0.2701  0.9010  0.4039
  557MOL0     C75070   6.639   3.760   7.845  0.2191 -0.0114  0.4063
  557MOL0     C75071   6.740   3.754   7.730 -0.2887 -0.2236  0.4762
  557MOL0     C75072   6.773   3.604   7.704  0.1225  0.1692 -0.8223
  557MOL0     C75073   6.872   3.595   7.581  1.0137 -1.0067 -0.5358
  557MOL0     C75074   6.878   3.444   7.527 -0.0703 -0.1442 -0.8376
  557MOL0     C75075   6.755   3.406   7.430  0.2546 -0.0933  0.4038
  557MOL0     C75076   6.801   3.278   7.364  0.1430  0.2731 -0.4767
  557MOL0     N75077   6.788   3.161   7.456  0.0546 -1.1459 -0.1699
  557MOL0     C75078   6.683   3.074   7.451 -0.3384  0.0162 -0.1320
  557MOL0     C75079   6.728   2.964   7.518 -0.4451  0.0904 -0.3664
  557MOL0     C75080   6.659   2.834   7.532 -0.4407 -0.0348  0.3995
  557MOL0     C75081   6.598   2.807   7.676  0.4473  0.4090  0.2350
  557MOL0     C75082   6.469   2.883   7.703  0.2481  0.4841  1.2700
  557MOL0     C75083   6.386   2.852   7.821 -0.3618  0.4409 -0.4414
  557MOL0     O75084   6.378   2.715   7.868 -0.5087 -0.0308  0.3532
  557MOL0     C75085   6.302   2.621   7.789 -0.8294  0.1499 -0.8652
  557MOL0     C75086   6.227   2.652   7.675  1.1401 -0.0911 -0.0988
  557MOL0     C75087   6.150   2.558   7.615  0.1997  0.1765  0.3906
  557MOL0     C75088   6.144   2.425   7.663  0.1948  0.2302 -0.6535
  557MOL0     C75089   6.049   2.328   7.617 -0.0034  0.2756 -0.0087
  557MOL0     O75090   5.962   2.366   7.513 -0.1593  0.6872 -0.3443
  557MOL0     C75091   5.857   2.274   7.481  0.2700  0.3249  0.1342
  557MOL0     C75092   5.887   2.180   7.391 -0.0298 -1.1243 -0.1383
  557MOL0     C75093   5.783   2.100   7.338  0.3595 -0.8202  0.0318
  557MOL0     C75094   5.650   2.115   7.371 -0.1610 -0.7266 -0.8896
  557MOL0     O75095   5.570   2.015   7.329 -0.0172  0.6280 -0.5006
  557MOL0     C75096   5.448   1.990   7.397  0.2012 -0.1299  0.3388
  557MOL0     C75097   5.338   2.092   7.348 -0.2223 -0.4563  0.7859
  557MOL0     C75098   5.266   2.052   7.213  0.3821  0.5896 -0.3116
  557MOL0     C75099   5.180   1.930   7.251 -0.0227  0.4620  0.8353
  557MOL0     C75100   5.104   1.882   7.122 -0.0995  0.7660  0.0656
  557MOL0     C75101   5.036   1.743   7.140 -0.0727  0.2725 -0.5025
  557MOL0     C75102   4.961   1.682   7.014  0.0268  0.1292 -0.3400
  557MOL0     C75103   5.044   1.692   6.883 -0.6805  0.7063  0.8119
  557MOL0    Cl75104   4.942   1.631   6.751 -0.4876  0.2137  0.2654
  557MOL0     C75105   5.629   2.209   7.473 -0.5344  0.0749  0.6687
  557MOL0     C75106   5.724   2.292   7.524 -0.1693 -0.7504 -1.2356
  557MOL0     O75107   6.055   2.217   7.666  0.1007  0.3036 -0.4746
  557MOL0     C75108   6.231   2.394   7.767 -0.3650  0.5129 -1.2106
  557MOL0     C75109   6.298   2.490   7.838  0.2760 -0.2885 -0.0648
  557MOL0     N75110   6.849   2.987   7.580 -0.1301 -0.2282 -0.0571
  557MOL0     N75111   6.883   3.106   7.536 -0.0882 -0.6690  0.2528
  557MOL0     C75112   6.877   4.005   8.162 -0.9342  0.4020  0.4971
  557MOL0     C75113   6.894   4.090   8.272  0.1323  0.7991  0.7921
  557MOL0     C75114   6.770   4.449   8.561  0.5760  0.0439  0.3537
  557MOL0     C75115   6.888   4.437   8.641  0.7380  0.4336  1.5181
  557MOL0     C75116   6.893   4.474   8.775 -0.1808  0.6497  0.3212
  557MOL0     C75117   6.789   4.537   8.839 -0.3527  0.1939  0.0199
  557MOL0     O75118   6.795   4.563   8.974 -0.0562 -0.1604 -0.1348
  557MOL0     C75119   6.902   4.660   9.009  0.1249  0.5039 -0.1849
  557MOL0     C75120   7.000   4.587   9.104 -0.3165  0.8310  0.7827
  557MOL0     C75121   6.948   4.530   9.231 -0.0395 -0.2033  0.7489
  557MOL0     C75122   7.026   4.578   9.362 -0.2842 -0.4520  0.3822
  557MOL0     C75123   7.172   4.536   9.338  0.4422 -0.1862  0.6453
  557MOL0     C75124   7.292   4.529   9.310 -0.5240  0.0133 -0.5431
  557MOL0     C75125   6.669   4.555   8.764  0.0800 -0.7578 -0.7599
  557MOL0     C75126   6.658   4.517   8.629 -0.9015  0.7605  0.3440
  557MOL0     C75127   6.529   4.534   8.565  0.1696 -0.2732  0.1462
  557MOL0     H75128   6.590   4.243   8.260  2.4439  0.7372  2.3196
  557MOL0     H75129   6.562   4.084   8.065  2.5979 -1.1003 -2.3481
  557MOL0     H75130   6.552   3.890   7.986  0.3959 -1.1537  0.4961
  557MOL0     H75131   6.637   3.976   7.846  0.5747 -0.3018 -0.9951
  557MOL0     H75132   6.544   3.754   7.791  0.1618 -1.6276  0.6556
  557MOL0     H75133   6.655   3.680   7.917 -1.7621 -0.0749  0.8490
  557MOL0     H75134   6.840   3.787   7.761  0.5513  0.8026 -2.9126
  557MOL0     H75135   6.704   3.812   7.645  0.9007  0.1096  0.1747
  557MOL0     H75136   6.818   3.560   7.794  0.9400 -0.9205 -1.7358
  557MOL0     H75137   6.674   3.561   7.683 -0.9964  0.9054  2.2973
  557MOL0     H75138   6.857   3.672   7.505 -3.3711 -1.8881 -0.8115
  557MOL0     H75139   6.968   3.600   7.635 -0.0136  0.9081  1.2606
  557MOL0     H75140   6.968   3.448   7.466 -1.6045  3.2896 -3.1782
  557MOL0     H75141   6.886   3.365   7.603  0.8623 -0.0108 -0.7858
  557MOL0     H75142   6.748   3.491   7.361  1.7286 -0.1707  0.1152
  557MOL0     H75143   6.659   3.385   7.476  0.0915  0.0761  0.1447
  557MOL0     H75144   6.727   3.258   7.287 -0.8433 -0.3576  0.6128
  557MOL0     H75145   6.902   3.292   7.322 -0.2733  0.5112 -1.4221
  557MOL0     H75146   6.591   3.089   7.395  0.5122  2.6808 -0.9659
  557MOL0     H75147   6.588   2.824   7.449 -1.1014  0.4665  0.9035
  557MOL0     H75148   6.736   2.757   7.519 -1.5585 -1.0753 -0.2206
  557MOL0     H75149   6.571   2.703   7.700  0.5980  0.7692  2.0940
  557MOL0     H75150   6.680   2.831   7.744 -0.5407 -1.6794  2.2973
  557MOL0     H75151   6.411   2.857   7.613  1.4639  0.1040  0.5739
  557MOL0     H75152   6.486   2.991   7.704  1.0675  0.3634  2.5344
  557MOL0     H75153   6.290   2.903   7.813 -0.0536  0.8458 -1.9309
  557MOL0     H75154   6.428   2.905   7.907 -1.7978  0.0965  0.5043
  557MOL0     H75155   6.228   2.752   7.632 -0.4827  0.0819  0.2228
  557MOL0     H75156   6.088   2.586   7.530  0.7378  2.3466  0.6496
  557MOL0     H75157   5.990   2.168   7.358 -0.6380 -0.7729 -2.3212
  557MOL0     H75158   5.819   2.033   7.260  2.9920  0.7633 -0.2496
  557MOL0     H75159   5.413   1.888   7.381 -3.0818  1.0988 -1.3285
  557MOL0     H75160   5.463   1.992   7.506  0.1765  1.9832  0.3463
  557MOL0     H75161   5.267   2.103   7.429 -1.0933  2.8695 -0.2936
  557MOL0     H75162   5.380   2.192   7.337 -0.2647 -0.5466 -0.3842
  557MOL0     H75163   5.201   2.130   7.174 -1.3443  0.7374  2.5490
  557MOL0     H75164   5.347   2.045   7.140 -0.0138 -3.5525 -0.5647
  557MOL0     H75165   5.114   1.970   7.328 -2.3088  0.2407 -0.9207
  557MOL0     H75166   5.243   1.850   7.293 -0.5000  0.3866  1.4158
  557MOL0     H75167   5.171   1.887   7.036  2.4980 -2.0214  1.7500
  557MOL0     H75168   5.021   1.950   7.101 -0.7856 -0.5427 -1.7243
  557MOL0     H75169   5.097   1.666   7.188 -0.6044  0.0795 -0.1230
  557MOL0     H75170   4.949   1.754   7.205 -0.6029  0.3293 -1.2126
  557MOL0     H75171   4.872   1.745   7.002 -1.1712 -1.0683  1.5781
  557MOL0     H75172   4.934   1.578   7.039  3.8667 -2.3801 -4.9638
  557MOL0     H75173   5.061   1.797   6.860  0.7692  0.3911  0.3378
  557MOL0     H75174   5.140   1.642   6.899  0.5960  2.8149  0.1573
  557MOL0     H75175   5.534   2.231   7.521 -0.7965  3.2183 -1.0344
  557MOL0     H75176   5.706   2.378   7.587  0.3836 -2.1546  0.9670
  557MOL0     H75177   6.230   2.295   7.813  0.0555  1.1588  0.2244
  557MOL0     H75178   6.372   2.455   7.909 -1.0380  0.9074  1.9571
  557MOL0     H75179   6.955   3.943   8.117 -3.4293 -2.2326 -0.5335
  557MOL0     H75180   6.996   4.100   8.308  1.2893 -0.3903 -1.9200
  557MOL0     H75181   6.971   4.384   8.596 -0.8752 -0.0620 -1.0510
  557MOL0     H75182   6.982   4.460   8.836 -0.5909  1.9739  1.2761
  557MOL0     H75183   6.855   4.746   9.057  0.5516 -0.2144  1.6296
  557MOL0     H75184   6.962   4.681   8.921  0.3716 -0.0280 -0.1492
  557MOL0     H75185   7.085   4.654   9.116  0.7411 -0.0287 -1.2978
  557MOL0     H75186   7.036   4.501   9.046 -0.1411  1.7286 -0.4971
  557MOL0     H75187   6.953   4.421   9.217 -0.9095  0.1279 -2.8826
  557MOL0     H75188   6.845   4.564   9.243  0.0297 -0.1220  1.1296
  557MOL0     H75189   7.004   4.685   9.368  1.5837  0.2359 -2.5447
  557MOL0     H75190   7.013   4.533   9.460 -0.5922 -1.7461 -0.2300
  557MOL0     H75191   7.392   4.518   9.274 -0.8807 -1.5822 -1.1247
  557MOL0     H75192   6.588   4.600   8.820  0.1752  1.7262 -2.4223
  557MOL0     H75193   6.500   4.433   8.534 -0.3643  1.0100 -4.3585
  557MOL0     H75194   6.460   4.577   8.638 -0.9860 -0.0866 -1.0204
  557MOL0     H75195   6.526   4.592   8.472  0.2457 -0.4531  0.0302
  558MOL0     O75196   0.982   4.862   7.641 -0.3258  0.2812 -0.3576
  558MOL0     C75197   0.988   4.771   7.725  1.0621 -0.1783  0.3767
  558MOL0     O75198   1.037   4.791   7.850 -0.3502  0.1775  0.3478
  558MOL0     C75199   1.076   4.916   7.895 -0.1253 -0.6058  0.1266
  558MOL0     C75200   1.017   4.975   8.009 -0.2491  0.4093  0.3784
  558MOL0     C75201   1.054   5.108   8.050  0.8030 -0.4852 -0.2460
  558MOL0     C75202   1.155   5.181   7.986 -0.1678 -0.2226  0.2435
  558MOL0     O75203   1.213   5.297   8.041  0.3110 -0.0009  0.0712
  558MOL0     C75204   1.202   5.329   8.183  0.7644  0.5497  0.6593
  558MOL0     C75205   1.247   5.465   8.188 -0.1633 -0.6626  0.3151
  558MOL0     C75206   1.217   5.534   8.318 -0.3133  0.5268  0.2684
  558MOL0     C75207   1.195   5.694   8.289  0.4154 -0.0804 -0.1599
  558MOL0     C75208   1.049   5.739   8.243 -0.2540  0.3616  0.4993
  558MOL0     C75209   0.926   5.708   8.341  0.3822  0.8295  0.3480
  558MOL0     C75210   0.934   5.787   8.483 -0.8623  0.4278  0.2936
  558MOL0     C75211   0.807   5.868   8.499 -0.0855  0.2299  0.1390
  558MOL0     N75212   0.689   5.779   8.536  0.3133  0.4542  0.5829
  558MOL0     C75213   0.678   5.708   8.648 -0.3352 -0.5423 -0.1846
  558MOL0     C75214   0.573   5.627   8.633 -0.1982  0.2594 -0.6780
  558MOL0     C75215   0.509   5.541   8.735 -0.7747  0.1901 -0.5224
  558MOL0     C75216   0.356   5.564   8.736  0.6301  0.1079  0.0125
  558MOL0     C75217   0.280   5.503   8.860 -1.0480 -0.4461  0.3386
  558MOL0     C75218   0.283   5.353   8.859  0.0833  0.6123 -0.5598
  558MOL0     O75219   0.188   5.284   8.948  0.9290 -0.6046  0.2978
  558MOL0     C75220   0.195   5.287   9.085 -0.3748 -0.0801 -0.1576
  558MOL0     C75221   0.311   5.269   9.163 -0.1744 -0.2430 -0.4697
  558MOL0     C75222   0.299   5.270   9.303 -0.9423  1.1734  0.7433
  558MOL0     C75223   0.173   5.267   9.362  0.3754 -0.2868 -0.0665
  558MOL0     C75224   0.161   5.271   9.504 -0.5873 -0.7024 -0.1059
  558MOL0     O75225   0.033   5.291   9.551  0.4172  0.2682 -1.6259
  558MOL0     C75226   0.014   5.300   9.688  0.1643 -1.1912 -1.0783
  558MOL0     C75227  -0.009   5.425   9.749 -0.0541 -0.3764  0.1288
  558MOL0     C75228  -0.043   5.441   9.882  0.7946 -0.3906 -0.4500
  558MOL0     C75229  -0.050   5.333   9.963 -0.5189  0.2925 -0.0808
  558MOL0     O75230  -0.075   5.321  10.098  0.1186  0.9529  0.3856
  558MOL0     C75231  -0.120   5.434  10.176  0.5430  0.2837  0.0328
  558MOL0     C75232  -0.257   5.497  10.138 -0.6075 -1.1411 -0.6806
  558MOL0     C75233  -0.270   5.642  10.192 -0.0735 -0.1948  0.5320
  558MOL0     C75234  -0.416   5.687  10.174 -0.4451 -0.5184  0.3466
  558MOL0     C75235  -0.439   5.820  10.239  0.1519 -0.3528 -0.3183
  558MOL0     C75236  -0.600   5.845  10.251  0.4604  0.0314 -0.0776
  558MOL0     C75237  -0.654   5.986  10.301 -0.4145  0.7030 -0.1873
  558MOL0     C75238  -0.661   6.003  10.452 -0.5937 -0.8882 -0.2156
  558MOL0    Cl75239  -0.510   5.961  10.527  0.5207 -0.0092  0.1062
  558MOL0     C75240  -0.034   5.207   9.902 -0.3030  0.8640 -0.5343
  558MOL0     C75241   0.005   5.189   9.773 -0.5438 -0.7184  0.6306
  558MOL0     O75242   0.256   5.226   9.568 -0.4059  0.2149 -0.1534
  558MOL0     C75243   0.057   5.265   9.280  0.8766 -0.1271 -0.4561
  558MOL0     C75244   0.071   5.282   9.143 -0.5274  0.6274 -0.0569
  558MOL0     N75245   0.534   5.633   8.502  0.0392 -0.5763  0.2409
  558MOL0     N75246   0.597   5.721   8.445  0.4845 -0.2256 -0.1037
  558MOL0     C75247   1.210   5.125   7.870  0.6193 -0.1720 -0.4112
  558MOL0     C75248   1.168   4.997   7.824  0.2881  0.5291  0.5418
  558MOL0     C75249   0.944   4.628   7.682 -0.7030 -0.1736  0.7531
  558MOL0     C75250   1.003   4.516   7.743  0.4306 -0.1527 -0.0805
  558MOL0     C75251   0.975   4.385   7.707 -0.6025  0.6379 -0.0786
  558MOL0     C75252   0.883   4.365   7.606  0.9605  0.1935 -1.0542
  558MOL0     O75253   0.852   4.233   7.581  0.0860  0.0338  0.1501
  558MOL0     C75254   0.835   4.183   7.454 -0.0026  0.6815 -0.0437
  558MOL0     C75255   0.848   4.033   7.449  0.3518 -0.1841 -0.0519
  558MOL0     C75256   0.793   3.953   7.575  0.0891 -0.8019  0.2790
  558MOL0     C75257   0.649   3.984   7.622 -0.4252 -0.0869  0.2936
  558MOL0     C75258   0.550   4.014   7.512 -0.5525 -0.0719  1.1951
  558MOL0     C75259   0.489   4.030   7.415  0.8749 -0.8613 -0.2635
  558MOL0     C75260   0.821   4.474   7.535  0.1849 -0.4982  0.0698
  558MOL0     C75261   0.851   4.602   7.580 -0.8136  0.4045  0.4722
  558MOL0     C75262   0.752   4.693   7.511 -0.0513 -0.5953 -0.1106
  558MOL0     H75263   0.943   4.908   8.052  0.1519  0.3274  0.9416
  558MOL0     H75264   0.996   5.143   8.135 -1.1714 -2.2669 -0.7631
  558MOL0     H75265   1.096   5.314   8.209  1.0349  0.6975  1.8984
  558MOL0     H75266   1.265   5.267   8.247  0.6829 -0.0035  0.2135
  558MOL0     H75267   1.184   5.526   8.122  2.1608  2.4032  0.7172
  558MOL0     H75268   1.352   5.481   8.162 -0.3431 -2.1545 -1.5511
  558MOL0     H75269   1.301   5.518   8.386 -0.4310  1.2635  0.6042
  558MOL0     H75270   1.137   5.478   8.368 -0.1383 -1.4411 -1.5777
  558MOL0     H75271   1.219   5.745   8.382 -3.4874 -1.6372  1.9178
  558MOL0     H75272   1.271   5.728   8.218  2.0013  1.6126  2.2185
  558MOL0     H75273   1.064   5.848   8.239 -1.4035  0.5013 -1.2987
  558MOL0     H75274   1.024   5.705   8.142 -2.3900 -0.3831  1.2333
  558MOL0     H75275   0.832   5.728   8.289 -1.0229  0.7044  2.6744
  558MOL0     H75276   0.917   5.609   8.388 -0.0170  1.8518  2.5559
  558MOL0     H75277   1.025   5.849   8.479  0.3459 -1.3226 -2.5613
  558MOL0     H75278   0.944   5.718   8.567 -3.8430 -1.1827 -0.5477
  558MOL0     H75279   0.830   5.945   8.573  0.1804  2.2109 -1.8791
  558MOL0     H75280   0.784   5.903   8.397 -0.8060 -0.7023 -0.0318
  558MOL0     H75281   0.737   5.720   8.739  0.8107 -0.4812 -0.9196
  558MOL0     H75282   0.537   5.442   8.696 -0.2904 -0.3792  1.1720
  558MOL0     H75283   0.556   5.552   8.833 -2.0966 -1.0446  0.2829
  558MOL0     H75284   0.347   5.673   8.737  3.8051  0.4652 -0.1663
  558MOL0     H75285   0.313   5.514   8.650 -1.8452  2.3434 -0.1761
  558MOL0     H75286   0.174   5.523   8.842 -0.4184  0.2464 -3.3827
  558MOL0     H75287   0.315   5.553   8.950  2.6691 -1.1333 -0.5689
  558MOL0     H75288   0.386   5.321   8.877 -0.7553 -1.9544  0.0386
  558MOL0     H75289   0.250   5.324   8.759 -1.1548  0.5804 -0.1609
  558MOL0     H75290   0.407   5.276   9.113 -1.4208  3.1085 -2.7951
  558MOL0     H75291   0.389   5.263   9.364  0.5569  0.4008 -1.4200
  558MOL0     H75292  -0.021   5.507   9.678  0.7170 -3.6713 -4.2177
  558MOL0     H75293  -0.071   5.544   9.903  2.1880  0.7897 -3.6648
  558MOL0     H75294  -0.110   5.417  10.283 -0.8443  1.1051  0.3179
  558MOL0     H75295  -0.051   5.519  10.165 -0.7186  1.2391 -0.7018
  558MOL0     H75296  -0.280   5.495  10.031 -0.8063 -1.5273 -0.6339
  558MOL0     H75297  -0.335   5.443  10.192 -0.7953  2.1047  2.6388
  558MOL0     H75298  -0.240   5.648  10.298 -0.6192  0.1270  0.6697
  558MOL0     H75299  -0.203   5.719  10.153  0.9422 -0.4385  1.6856
  558MOL0     H75300  -0.481   5.611  10.219  1.0821 -2.7719 -1.0423
  558MOL0     H75301  -0.431   5.699  10.066 -3.6632  1.6815  0.8793
  558MOL0     H75302  -0.395   5.894  10.170  1.8684 -2.7818 -1.9811
  558MOL0     H75303  -0.387   5.829  10.335 -2.6509  0.3854  1.2407
  558MOL0     H75304  -0.643   5.843  10.151  0.4495 -1.0158 -0.0676
  558MOL0     H75305  -0.655   5.762  10.298 -1.2403  1.3869  0.4245
  558MOL0     H75306  -0.760   5.990  10.275 -0.7263 -1.4680  0.5773
  558MOL0     H75307  -0.606   6.068  10.246 -3.7405  4.4225  1.9476
  558MOL0     H75308  -0.691   6.107  10.465  2.4506  0.4534 -2.8218
  558MOL0     H75309  -0.739   5.945  10.503 -1.3304 -0.5566 -0.9525
  558MOL0     H75310  -0.045   5.114   9.956 -0.5854 -1.3774 -4.0745
  558MOL0     H75311   0.001   5.092   9.724 -0.8457  0.7849 -2.6111
  558MOL0     H75312  -0.043   5.255   9.321  0.4172 -1.9087 -1.8821
  558MOL0     H75313  -0.018   5.277   9.081 -0.7498 -1.1021  0.3616
  558MOL0     H75314   1.286   5.177   7.813 -0.7687  0.4826 -1.7301
  558MOL0     H75315   1.210   4.949   7.736  2.0475  1.3483  0.8972
  558MOL0     H75316   1.078   4.540   7.818  1.2342  0.0978 -0.9458
  558MOL0     H75317   1.025   4.312   7.769 -1.5130  0.3967  0.3815
  558MOL0     H75318   0.908   4.219   7.381  0.5909  1.5472  0.9462
  558MOL0     H75319   0.737   4.203   7.411 -0.6741 -1.9334  0.0927
  558MOL0     H75320   0.956   4.018   7.438  0.8358  0.1516  3.1483
  558MOL0     H75321   0.800   3.990   7.361  1.2044 -1.5979  0.1419
  558MOL0     H75322   0.866   3.982   7.651  0.0680 -2.6422  1.0397
  558MOL0     H75323   0.813   3.847   7.557  0.0276 -0.7805  0.0768
  558MOL0     H75324   0.629   3.893   7.679  0.3443  1.5828  3.4613
  558MOL0     H75325   0.658   4.065   7.694  2.2486 -0.9824  1.0534
  558MOL0     H75326   0.448   4.030   7.316  1.7983  1.3787 -0.7055
  558MOL0     H75327   0.761   4.452   7.447  0.1874 -0.5968  0.0928
  558MOL0     H75328   0.744   4.794   7.553  0.0228 -1.6672  2.6621
  558MOL0     H75329   0.773   4.694   7.404 -0.1961 -1.4232 -0.1522
  558MOL0     H75330   0.650   4.659   7.532 -0.4079  1.2072  1.3555
  559MOL0     O75331   5.314   4.861   7.652 -0.1809  0.8881  0.3761
  559MOL0     C75332   5.387   4.952   7.685 -0.6578  0.0876 -0.3117
  559MOL0     O75333   5.400   5.004   7.814 -0.0724 -0.3342  0.0891
  559MOL0     C75334   5.334   4.932   7.914  0.6771  0.3036 -0.0613
  559MOL0     C75335   5.207   4.986   7.954 -0.1804 -0.1198  0.1153
  559MOL0     C75336   5.138   4.925   8.061  0.5125  0.7832  0.9728
  559MOL0     C75337   5.188   4.804   8.127 -0.1782 -0.4653 -0.2604
  559MOL0     O75338   5.114   4.743   8.223 -0.5940 -1.0678 -0.4779
  559MOL0     C75339   5.189   4.678   8.324 -0.1510  0.2320 -0.9489
  559MOL0     C75340   5.104   4.637   8.442 -0.6553 -0.0547 -0.5776
  559MOL0     C75341   5.187   4.535   8.529 -0.6469  0.1149  0.1594
  559MOL0     C75342   5.104   4.518   8.651 -0.9458  0.6566 -0.3121
  559MOL0     C75343   5.164   4.418   8.752  0.8558  0.0142  0.3097
  559MOL0     C75344   5.290   4.475   8.827 -1.0482  0.2215 -0.2397
  559MOL0     C75345   5.329   4.401   8.964 -0.5606 -1.0064 -0.1010
  559MOL0     C75346   5.478   4.415   8.997  0.0900  0.2280  0.4688
  559MOL0     N75347   5.521   4.332   9.110  0.1842 -0.6167 -0.1395
  559MOL0     C75348   5.483   4.356   9.244 -0.4548  0.1410  0.6152
  559MOL0     C75349   5.567   4.272   9.308 -1.0357  0.2888  0.7755
  559MOL0     C75350   5.577   4.263   9.457  0.3033  0.1615 -0.0406
  559MOL0     C75351   5.686   4.166   9.514 -0.6956  0.3225  1.2861
  559MOL0     C75352   5.725   4.204   9.659 -0.7919 -0.5527 -0.2328
  559MOL0     C75353   5.613   4.166   9.761  0.5173  0.4133  0.8061
  559MOL0     O75354   5.575   4.028   9.748  0.6551 -0.2890  0.3591
  559MOL0     C75355   5.515   3.960   9.857  0.6257  0.5423 -0.2472
  559MOL0     C75356   5.512   3.817   9.860 -0.2457 -1.0532 -0.0889
  559MOL0     C75357   5.459   3.753   9.967  0.5051 -0.4060 -0.0197
  559MOL0     C75358   5.397   3.821  10.076 -0.1097 -0.0323 -0.2652
  559MOL0     C75359   5.338   3.743  10.191  0.9482 -0.0829 -0.9628
  559MOL0     O75360   5.238   3.815  10.264  0.0859 -1.2210  0.3701
  559MOL0     C75361   5.188   3.762  10.379 -0.4125 -0.2496  0.2562
  559MOL0     C75362   5.260   3.708  10.492 -0.0585 -0.4362  0.5318
  559MOL0     C75363   5.187   3.682  10.603 -0.9795  0.1874 -0.3748
  559MOL0     C75364   5.047   3.678  10.601  0.6795  0.0250  0.3066
  559MOL0     O75365   4.976   3.620  10.703 -0.8382 -0.4312 -0.0455
  559MOL0     C75366   4.835   3.594  10.692  0.4678  0.1769  0.1873
  559MOL0     C75367   4.779   3.579  10.836  0.3010 -0.2620  0.1771
  559MOL0     C75368   4.633   3.599  10.828  0.2731 -0.5427  0.6226
  559MOL0     C75369   4.578   3.544  10.959 -0.2507 -1.1758  0.1060
  559MOL0     C75370   4.442   3.597  10.994  0.4682  0.0380  0.0034
  559MOL0     C75371   4.356   3.495  11.068  0.8088  0.3132 -0.2417
  559MOL0     C75372   4.409   3.446  11.198 -0.5198 -0.3039  0.2574
  559MOL0     C75373   4.351   3.523  11.311 -0.4514  0.1676 -0.8378
  559MOL0    Cl75374   4.479   3.638  11.373  0.0387 -0.1820  0.1177
  559MOL0     C75375   4.981   3.721  10.486 -0.5751  0.2431 -0.0843
  559MOL0     C75376   5.053   3.769  10.386  0.0650  0.7704  0.1047
  559MOL0     O75377   5.385   3.634  10.215 -0.1474  0.2874  0.0176
  559MOL0     C75378   5.388   3.961  10.067 -0.2296 -0.4225  0.0228
  559MOL0     C75379   5.451   4.027   9.957 -0.8649  0.4597  0.7759
  559MOL0     N75380   5.655   4.203   9.226 -1.1058 -0.8909  0.6801
  559MOL0     N75381   5.621   4.241   9.107  0.8274 -0.8068 -0.1744
  559MOL0     C75382   5.316   4.755   8.087  0.6987  0.2412  0.8197
  559MOL0     C75383   5.383   4.824   7.976 -0.7898  0.8735 -0.3763
  559MOL0     C75384   5.453   5.014   7.572  0.6574  0.3582  0.5341
  559MOL0     C75385   5.531   5.131   7.588  0.1138 -0.4605  0.1467
  559MOL0     C75386   5.603   5.194   7.490 -0.4211  0.0679  0.3265
  559MOL0     C75387   5.616   5.134   7.361 -0.4626  0.2718 -0.1274
  559MOL0     O75388   5.707   5.177   7.263  0.1992 -0.4821  0.0457
  559MOL0     C75389   5.747   5.315   7.260  1.2258 -0.8543  1.4363
  559MOL0     C75390   5.843   5.362   7.146 -0.1072  0.3810 -0.0112
  559MOL0     C75391   5.983   5.306   7.148 -0.9798 -0.2856 -0.5905
  559MOL0     C75392   6.079   5.395   7.232  0.7112  0.0110  0.0599
  559MOL0     C75393   6.219   5.380   7.206 -0.2859 -0.4419  0.0559
  559MOL0     C75394   6.341   5.368   7.184 -0.0243 -0.3018  0.6822
  559MOL0     C75395   5.530   5.029   7.337 -0.4186 -0.0057  0.3707
  559MOL0     C75396   5.446   4.967   7.436 -0.3333  0.1324  1.1079
  559MOL0     C75397   5.354   4.856   7.377 -0.3630  0.2827 -0.1785
  559MOL0     H75398   5.169   5.081   7.917 -0.0425 -0.2871 -0.4714
  559MOL0     H75399   5.042   4.958   8.099 -0.4729 -0.5967 -0.2156
  559MOL0     H75400   5.223   4.589   8.270 -0.0489 -1.0381  1.0928
  559MOL0     H75401   5.264   4.754   8.350 -1.8315  1.0667  1.8095
  559MOL0     H75402   5.019   4.590   8.392  0.5511  0.0565 -2.8741
  559MOL0     H75403   5.070   4.726   8.496  1.1792  0.7662 -0.6806
  559MOL0     H75404   5.283   4.580   8.554  1.7066 -4.8743  1.4458
  559MOL0     H75405   5.209   4.436   8.488 -1.6289 -0.9645  2.1116
  559MOL0     H75406   5.085   4.616   8.695 -0.7947 -0.1192  1.5496
  559MOL0     H75407   5.010   4.465   8.633 -1.2340  0.7341  0.9118
  559MOL0     H75408   5.106   4.405   8.844  0.6906 -3.5181 -0.1497
  559MOL0     H75409   5.203   4.327   8.706 -0.9374 -0.8790  0.4612
  559MOL0     H75410   5.379   4.474   8.763 -0.0494  1.0542  1.0886
  559MOL0     H75411   5.274   4.580   8.852 -1.6894 -0.0942  0.7424
  559MOL0     H75412   5.300   4.295   8.962  1.8239 -1.7181 -2.0956
  559MOL0     H75413   5.274   4.447   9.047  1.1654  0.9606  0.0355
  559MOL0     H75414   5.547   4.395   8.915  0.4821 -1.1609  1.1088
  559MOL0     H75415   5.493   4.519   9.029 -2.2439  1.5225 -2.1361
  559MOL0     H75416   5.411   4.421   9.291 -0.5808  0.1703  0.3846
  559MOL0     H75417   5.594   4.367   9.486  1.4968  1.5476 -4.7835
  559MOL0     H75418   5.481   4.223   9.490  0.1253 -0.7811 -1.5818
  559MOL0     H75419   5.660   4.060   9.506  0.1044  0.1859  0.2794
  559MOL0     H75420   5.780   4.190   9.465 -1.6047  4.1858  1.0956
  559MOL0     H75421   5.739   4.312   9.664 -2.4024 -0.3487  0.7145
  559MOL0     H75422   5.804   4.141   9.702  0.8408 -0.0085 -2.2597
  559MOL0     H75423   5.523   4.228   9.761  0.2353  0.0182  1.5124
  559MOL0     H75424   5.665   4.187   9.855  2.1641 -1.2562  0.3238
  559MOL0     H75425   5.558   3.765   9.778  2.0603  1.4612 -0.5323
  559MOL0     H75426   5.447   3.645   9.966  0.0371 -0.3793  1.3646
  559MOL0     H75427   5.365   3.693  10.471  0.0118  1.3166 -0.6031
  559MOL0     H75428   5.243   3.640  10.686  0.1335 -2.5196 -2.3532
  559MOL0     H75429   4.777   3.669  10.638 -1.0885 -1.8403 -1.0540
  559MOL0     H75430   4.821   3.497  10.644 -0.0445  1.6556 -2.8618
  559MOL0     H75431   4.795   3.481  10.883 -1.3956 -0.3643  0.6093
  559MOL0     H75432   4.822   3.659  10.898 -3.4968  2.4360 -0.3334
  559MOL0     H75433   4.601   3.703  10.820  2.1391 -0.0598 -1.8202
  559MOL0     H75434   4.583   3.536  10.753  3.6184 -2.0508 -0.5227
  559MOL0     H75435   4.644   3.570  11.042  1.0258 -1.4335 -0.7961
  559MOL0     H75436   4.565   3.435  10.953 -2.0698 -1.2066  2.7868
  559MOL0     H75437   4.398   3.615  10.895  0.1434  2.8236  0.5566
  559MOL0     H75438   4.436   3.695  11.043 -2.1997  1.4519 -2.7634
  559MOL0     H75439   4.257   3.541  11.072 -0.5746 -2.6073  1.4844
  559MOL0     H75440   4.348   3.406  11.005  2.3648 -1.7084  2.2497
  559MOL0     H75441   4.518   3.449  11.198 -0.4818 -0.2303  1.9636
  559MOL0     H75442   4.398   3.338  11.214  2.3758 -0.2740  3.7633
  559MOL0     H75443   4.255   3.572  11.290 -1.0047  0.7646  2.5041
  559MOL0     H75444   4.332   3.456  11.395 -2.1815  1.2139 -0.3265
  559MOL0     H75445   4.873   3.721  10.475 -0.7161 -1.7462  0.8318
  559MOL0     H75446   5.006   3.792  10.291  0.4492 -0.6762 -0.4627
  559MOL0     H75447   5.332   4.018  10.140 -0.9679 -2.5703  1.2051
  559MOL0     H75448   5.454   4.136   9.955 -2.9692  0.5435 -0.5971
  559MOL0     H75449   5.372   4.674   8.133  2.1053  1.8781  2.1759
  559MOL0     H75450   5.476   4.785   7.936  1.9079  4.6710  1.5473
  559MOL0     H75451   5.537   5.177   7.686  0.0190  1.5477 -0.7272
  559MOL0     H75452   5.664   5.278   7.524  1.4733 -0.0197 -2.5023
  559MOL0     H75453   5.799   5.330   7.355 -1.3731  1.2093  2.6771
  559MOL0     H75454   5.656   5.376   7.251  1.9123 -0.0051 -0.3545
  559MOL0     H75455   5.850   5.471   7.142 -1.7121  0.5298  0.1970
  559MOL0     H75456   5.788   5.345   7.052  1.1981  3.6768 -1.5491
  559MOL0     H75457   6.040   5.301   7.055 -0.6538  1.2285 -0.5033
  559MOL0     H75458   5.993   5.208   7.196  3.9486  0.8653  1.3896
  559MOL0     H75459   6.058   5.500   7.214  1.3877 -0.0149 -0.9038
  559MOL0     H75460   6.056   5.388   7.339 -1.1542 -3.5248 -0.4218
  559MOL0     H75461   6.448   5.365   7.192  0.0854  0.2825 -0.3635
  559MOL0     H75462   5.516   5.001   7.233  0.6646  0.8176 -0.0103
  559MOL0     H75463   5.330   4.780   7.453  2.6346  1.5464  2.2149
  559MOL0     H75464   5.252   4.893   7.361  0.2307  1.4444 -1.4610
  559MOL0     H75465   5.393   4.803   7.289 -1.6805 -1.7119  0.3553
  560MOL0     O75466  10.965   3.299   9.421 -0.1754 -0.1248 -0.1670
  560MOL0     C75467  10.924   3.355   9.527  0.1249 -0.7518 -0.2463
  560MOL0     O75468  10.805   3.417   9.535  0.1897  0.4922  0.7896
  560MOL0     C75469  10.720   3.430   9.422 -0.5203  0.1179  0.6744
  560MOL0     C75470  10.580   3.391   9.414  0.2086 -0.3071 -0.9818
  560MOL0     C75471  10.501   3.422   9.306  0.0826 -0.8543 -0.2706
  560MOL0     C75472  10.546   3.502   9.195  0.1322 -0.3354  0.2844
  560MOL0     O75473  10.478   3.552   9.086  0.4813 -0.3742 -0.3349
  560MOL0     C75474  10.375   3.480   9.026  0.3547  0.7319  1.3381
  560MOL0     C75475  10.338   3.542   8.890 -0.2071  0.5836 -0.2326
  560MOL0     C75476  10.464   3.538   8.802 -0.4658  0.0903 -0.9418
  560MOL0     C75477  10.439   3.592   8.664  0.2159 -0.2573  0.1801
  560MOL0     C75478  10.555   3.574   8.569  0.3156 -0.0287  0.5560
  560MOL0     C75479  10.521   3.614   8.421 -0.1799 -0.6905 -0.1541
  560MOL0     C75480  10.480   3.754   8.411 -1.1156 -0.1515 -0.5876
  560MOL0     C75481  10.483   3.806   8.268  0.2638 -0.2928  0.0938
  560MOL0     N75482  10.433   3.943   8.244 -0.2993  0.1042 -0.3290
  560MOL0     C75483  10.306   3.985   8.275  0.8508 -0.9038  0.5675
  560MOL0     C75484  10.314   4.124   8.281 -1.0440  0.1267 -0.1425
  560MOL0     C75485  10.222   4.229   8.325 -0.2950  0.6823  0.1288
  560MOL0     C75486  10.195   4.339   8.214 -0.8657  0.1896  0.4664
  560MOL0     C75487  10.076   4.296   8.124 -0.4228 -0.2833  0.2718
  560MOL0     C75488  10.049   4.370   7.986  0.7514  0.2082 -1.3342
  560MOL0     O75489  10.096   4.504   7.996 -0.3318 -0.2930  0.7602
  560MOL0     C75490  10.100   4.577   7.882 -0.8604  1.4296  0.5832
  560MOL0     C75491  10.132   4.712   7.887  0.4409  0.2739  0.0667
  560MOL0     C75492  10.127   4.793   7.767 -0.0964 -0.0047 -0.4518
  560MOL0     C75493  10.074   4.751   7.648 -0.2356  0.5941 -0.3259
  560MOL0     C75494  10.071   4.826   7.517 -0.6121 -0.9552 -0.7212
  560MOL0     O75495  10.013   4.766   7.411 -0.3874 -0.1843  0.2350
  560MOL0     C75496   9.963   4.850   7.308  1.0003  0.2000 -0.4918
  560MOL0     C75497  10.004   4.832   7.178  0.8251 -0.7230  0.8081
  560MOL0     C75498   9.945   4.901   7.073 -0.5479  0.1082  0.2202
  560MOL0     C75499   9.851   5.006   7.098 -1.2345  0.2517  0.8942
  560MOL0     O75500   9.804   5.080   6.988  0.2392  0.1142 -0.1747
  560MOL0     C75501   9.748   5.209   7.014  0.0142 -0.1952 -1.2805
  560MOL0     C75502   9.843   5.310   6.971 -1.0851 -0.2089  0.1319
  560MOL0     C75503   9.940   5.338   7.081 -0.5170  0.2625 -0.1480
  560MOL0     C75504  10.031   5.457   7.027 -0.2561  0.1127  0.0264
  560MOL0     C75505  10.153   5.483   7.113 -0.7692  0.6093 -0.4225
  560MOL0     C75506  10.256   5.572   7.038  0.2538  0.3536 -0.3542
  560MOL0     C75507  10.199   5.709   7.011  0.5419  0.0205 -0.3706
  560MOL0     C75508  10.302   5.807   6.937 -0.1636  1.0054  0.5628
  560MOL0    Cl75509  10.452   5.840   7.035 -0.4209 -0.2117  0.3471
  560MOL0     C75510   9.812   5.025   7.231 -0.7770  0.0668  0.3366
  560MOL0     C75511   9.872   4.948   7.333  1.1642  0.2259 -0.1714
  560MOL0     O75512  10.103   4.949   7.522 -0.0656 -0.7918  0.1156
  560MOL0     C75513  10.008   4.626   7.656 -0.0666 -0.2465 -0.2807
  560MOL0     C75514  10.025   4.541   7.767 -0.2215  0.9951  0.2046
  560MOL0     N75515  10.443   4.157   8.253  0.1183  0.1372 -0.3807
  560MOL0     N75516  10.510   4.050   8.226 -0.3432 -0.2478 -0.0858
  560MOL0     C75517  10.681   3.541   9.201 -0.1857  0.5617 -0.8489
  560MOL0     C75518  10.759   3.506   9.306 -0.7956 -0.0613 -0.7420
  560MOL0     C75519  11.008   3.356   9.651 -0.4507  0.8857  0.1568
  560MOL0     C75520  11.146   3.337   9.630  0.2310  0.3908  0.0009
  560MOL0     C75521  11.241   3.357   9.734  0.4138 -0.7180 -0.2742
  560MOL0     C75522  11.191   3.397   9.851  0.7267  0.6758 -0.9214
  560MOL0     O75523  11.287   3.407   9.942  0.8698  0.1667 -0.1725
  560MOL0     C75524  11.353   3.538   9.968 -0.7896  1.2810  0.0767
  560MOL0     C75525  11.447   3.589   9.860  0.6559 -0.5629 -0.4632
  560MOL0     C75526  11.567   3.497   9.854  0.6774  0.2471 -0.1162
  560MOL0     C75527  11.613   3.480   9.720  0.2201  0.4375  0.5068
  560MOL0     C75528  11.744   3.413   9.716  0.7904 -0.8394 -0.3940
  560MOL0     C75529  11.831   3.335   9.713  0.4101 -0.2508  0.8443
  560MOL0     C75530  11.056   3.412   9.887  0.4213  0.0727 -0.3469
  560MOL0     C75531  10.957   3.390   9.783  0.8954 -0.3540 -0.2099
  560MOL0     C75532  10.812   3.395   9.801 -0.1093 -0.1824 -0.9170
  560MOL0     H75533  10.533   3.353   9.504  1.0441  0.9304  0.0290
  560MOL0     H75534  10.396   3.392   9.311 -1.7268  4.3917 -0.3229
  560MOL0     H75535  10.408   3.378   9.006 -0.2249  1.1432 -2.4958
  560MOL0     H75536  10.280   3.479   9.081  1.0576  1.7550  2.6281
  560MOL0     H75537  10.302   3.644   8.907  1.2000  1.2325 -0.9684
  560MOL0     H75538  10.266   3.475   8.841  3.8055 -3.2708 -1.4287
  560MOL0     H75539  10.489   3.432   8.797 -3.1281 -0.5938 -1.4263
  560MOL0     H75540  10.548   3.592   8.846 -1.9240  0.8278  1.1045
  560MOL0     H75541  10.355   3.544   8.612 -1.4576  2.0184  0.5993
  560MOL0     H75542  10.411   3.697   8.677 -0.0516 -0.5441  2.4367
  560MOL0     H75543  10.638   3.640   8.596 -1.5675  2.4659  0.5630
  560MOL0     H75544  10.608   3.478   8.571 -0.1639 -0.5812 -3.6869
  560MOL0     H75545  10.609   3.595   8.359 -0.1020 -2.1583  0.3740
  560MOL0     H75546  10.446   3.551   8.372 -0.5003  0.3006 -1.0044
  560MOL0     H75547  10.554   3.806   8.472 -1.5211 -1.5153  1.1706
  560MOL0     H75548  10.378   3.763   8.449 -0.2816 -0.4025  1.9263
  560MOL0     H75549  10.587   3.815   8.235  0.4810  2.3530  1.2158
  560MOL0     H75550  10.430   3.726   8.215  0.9213 -0.2254 -0.6862
  560MOL0     H75551  10.219   3.924   8.300  0.1353  1.3026  4.2730
  560MOL0     H75552  10.124   4.184   8.346  0.0373  0.8089  2.1045
  560MOL0     H75553  10.260   4.276   8.416  3.0556 -0.5120 -0.4973
  560MOL0     H75554  10.195   4.440   8.257  2.5573 -0.0099  1.2616
  560MOL0     H75555  10.281   4.337   8.147 -1.3711 -3.0267 -0.2716
  560MOL0     H75556   9.985   4.317   8.180 -1.6323 -2.8361 -0.5953
  560MOL0     H75557  10.076   4.187   8.113  3.0614 -0.3626 -0.0197
  560MOL0     H75558   9.943   4.363   7.957  0.5268  1.9929 -1.0576
  560MOL0     H75559  10.113   4.325   7.910  0.8552 -2.8852  0.4584
  560MOL0     H75560  10.169   4.737   7.985 -0.3509 -0.8266  0.6740
  560MOL0     H75561  10.184   4.885   7.768  2.5301 -1.5064  1.5433
  560MOL0     H75562  10.082   4.760   7.157  3.6604  2.0522  1.0953
  560MOL0     H75563   9.986   4.873   6.976  1.3671 -0.3974  1.1274
  560MOL0     H75564   9.652   5.213   6.962 -2.2774  2.2414  2.5850
  560MOL0     H75565   9.710   5.234   7.114  0.3255  0.4266 -1.3126
  560MOL0     H75566   9.891   5.268   6.882 -0.8587  1.7306 -0.7107
  560MOL0     H75567   9.792   5.403   6.942  2.9909  1.4806 -2.7600
  560MOL0     H75568   9.883   5.375   7.167 -3.9250 -0.9058 -1.7172
  560MOL0     H75569   9.988   5.245   7.111 -0.4682  0.1690 -0.5143
  560MOL0     H75570   9.973   5.550   7.023 -2.5555 -1.1233  1.7445
  560MOL0     H75571  10.056   5.430   6.924 -2.1874  0.0620 -0.4745
  560MOL0     H75572  10.200   5.385   7.124 -0.2337  1.0957  2.9500
  560MOL0     H75573  10.113   5.509   7.212 -0.4735 -1.5454  0.3144
  560MOL0     H75574  10.344   5.586   7.101  0.4083  1.6281 -0.8320
  560MOL0     H75575  10.276   5.516   6.946 -0.0276  0.4374 -0.4678
  560MOL0     H75576  10.174   5.757   7.106 -0.3659  0.3055 -0.7403
  560MOL0     H75577  10.112   5.699   6.945  0.1136 -0.0103  0.1813
  560MOL0     H75578  10.335   5.752   6.848  0.8339  1.1036  0.8620
  560MOL0     H75579  10.263   5.907   6.917 -1.5370  0.2834 -0.5878
  560MOL0     H75580   9.742   5.103   7.260 -1.8374 -1.5232  2.2732
  560MOL0     H75581   9.836   4.967   7.434  0.1276 -0.1356 -0.4565
  560MOL0     H75582   9.950   4.604   7.566 -0.4844 -0.2881 -0.0052
  560MOL0     H75583   9.985   4.440   7.763  1.5726  0.1903  1.1555
  560MOL0     H75584  10.724   3.589   9.114 -0.6426 -0.4646 -1.6744
  560MOL0     H75585  10.865   3.531   9.308 -0.7205 -0.4207 -0.0733
  560MOL0     H75586  11.183   3.319   9.529 -1.8121  2.3569 -1.2230
  560MOL0     H75587  11.343   3.344   9.702  0.9127  1.2788  0.3886
  560MOL0     H75588  11.405   3.520  10.063  0.2478 -1.0280 -0.8638
  560MOL0     H75589  11.279   3.613   9.997 -1.8938  0.3619 -0.3093
  560MOL0     H75590  11.486   3.679   9.907  0.8379 -0.3315 -1.0506
  560MOL0     H75591  11.395   3.612   9.767 -2.6207 -0.5798  1.2398
  560MOL0     H75592  11.542   3.396   9.886  1.6937 -1.6855 -4.7496
  560MOL0     H75593  11.647   3.547   9.910  1.6011  1.2553 -2.2345
  560MOL0     H75594  11.553   3.411   9.660  1.9679  1.1457 -2.2285
  560MOL0     H75595  11.621   3.570   9.658 -0.6187  1.2909  1.5986
  560MOL0     H75596  11.898   3.251   9.703 -0.2603 -0.5436 -4.4743
  560MOL0     H75597  11.018   3.445   9.983 -0.8656 -2.0588 -0.0724
  560MOL0     H75598  10.771   3.315   9.739  1.5608 -1.2429 -0.7133
  560MOL0     H75599  10.788   3.380   9.907 -0.8018  2.9342 -0.5227
  560MOL0     H75600  10.776   3.493   9.766 -1.8000 -0.6906 -0.7219
  561MOL0     O75601   9.185   0.348   4.945 -0.0437 -0.9991  0.6684
  561MOL0     C75602   9.223   0.291   5.049 -0.9152  0.9194  0.9342
  561MOL0     O75603   9.142   0.185   5.101  0.1896 -0.2186 -0.1540
  561MOL0     C75604   9.064   0.113   5.010  0.1729 -0.3436 -0.3041
  561MOL0     C75605   9.105  -0.017   4.973  0.4187 -0.2508  0.1233
  561MOL0     C75606   9.020  -0.088   4.889  0.6975 -0.6988  0.6579
  561MOL0     C75607   8.896  -0.036   4.845 -0.1953  0.6925  0.2920
  561MOL0     O75608   8.816  -0.099   4.762 -0.5354  0.7296  0.4599
  561MOL0     C75609   8.864  -0.148   4.637 -0.3522 -0.5843  0.5192
  561MOL0     C75610   8.741  -0.166   4.541 -0.4898  0.6029 -0.4005
  561MOL0     C75611   8.669  -0.292   4.589 -0.2531  0.3494  0.8554
  561MOL0     C75612   8.540  -0.334   4.522  0.3125  0.0041  0.0262
  561MOL0     C75613   8.556  -0.415   4.399 -0.5861 -0.3097  0.3959
  561MOL0     C75614   8.418  -0.447   4.337 -0.3433  0.4357  0.3036
  561MOL0     C75615   8.449  -0.489   4.194 -0.1356  0.3034  0.7117
  561MOL0     C75616   8.322  -0.484   4.103 -0.3618  0.4165  0.3130
  561MOL0     N75617   8.212  -0.582   4.136  0.1345 -0.1628  0.3388
  561MOL0     C75618   8.178  -0.684   4.051 -0.8876 -0.4263  0.0461
  561MOL0     C75619   8.072  -0.747   4.112 -0.0763  0.1153  0.9230
  561MOL0     C75620   7.981  -0.862   4.068  0.6369  0.2861  0.5206
  561MOL0     C75621   8.037  -0.998   4.101 -0.7544  0.3990  0.2291
  561MOL0     C75622   8.110  -0.994   4.245 -0.1714 -0.0699 -0.2938
  561MOL0     C75623   8.010  -0.976   4.357  0.6520 -1.1163  0.5308
  561MOL0     O75624   7.907  -1.069   4.340 -0.3206 -0.2923 -1.0764
  561MOL0     C75625   7.785  -1.062   4.408 -0.2215 -0.6469 -1.0029
  561MOL0     C75626   7.674  -1.100   4.341  0.6980 -0.1212 -1.2569
  561MOL0     C75627   7.549  -1.098   4.418 -0.0523 -0.2558  0.5222
  561MOL0     C75628   7.543  -1.062   4.549 -0.8132 -0.3488 -0.4027
  561MOL0     C75629   7.428  -1.073   4.638  0.3136 -0.2153  0.0523
  561MOL0     O75630   7.421  -1.005   4.760  0.1214 -0.1493  0.0449
  561MOL0     C75631   7.324  -1.046   4.858 -0.4081 -0.5819  1.7593
  561MOL0     C75632   7.236  -1.161   4.864 -0.1033  0.0158 -0.0015
  561MOL0     C75633   7.149  -1.166   4.977 -0.1015 -0.2898 -0.4048
  561MOL0     C75634   7.145  -1.070   5.078  0.1040 -0.2294 -0.8308
  561MOL0     O75635   7.070  -1.103   5.189  0.3863 -0.1627  0.4365
  561MOL0     C75636   7.073  -1.008   5.294 -0.4392 -0.2575  0.3113
  561MOL0     C75637   6.949  -1.020   5.374  0.8709 -1.4456  0.0767
  561MOL0     C75638   6.821  -1.005   5.290 -0.2994  0.3911 -0.2658
  561MOL0     C75639   6.692  -1.025   5.368 -0.4487 -0.5447  0.3341
  561MOL0     C75640   6.568  -1.026   5.270 -0.5231  0.3199 -0.5591
  561MOL0     C75641   6.448  -1.085   5.346  0.2220  0.3966 -0.1579
  561MOL0     C75642   6.337  -1.113   5.241 -0.3957 -0.2187 -0.5532
  561MOL0     C75643   6.214  -1.181   5.302 -0.5627  1.3813 -0.7790
  561MOL0    Cl75644   6.097  -1.222   5.161 -0.0282 -0.0862 -0.2145
  561MOL0     C75645   7.228  -0.956   5.062 -0.1562  0.7175 -0.5459
  561MOL0     C75646   7.317  -0.943   4.955 -0.9663  0.2783 -0.4222
  561MOL0     O75647   7.335  -1.123   4.584  0.5588  0.4240  0.7249
  561MOL0     C75648   7.664  -1.011   4.607 -0.1757 -0.1485 -0.8631
  561MOL0     C75649   7.791  -1.022   4.543 -0.0009 -1.1786 -0.2369
  561MOL0     N75650   8.037  -0.676   4.218  0.1850  0.9773  0.1608
  561MOL0     N75651   8.119  -0.582   4.229  0.0197  0.8117  0.4862
  561MOL0     C75652   8.855   0.088   4.889 -0.2252  0.2548  0.1899
  561MOL0     C75653   8.932   0.158   4.975 -0.2120 -0.7022  1.1461
  561MOL0     C75654   9.343   0.333   5.131 -0.4483  1.3146 -0.3537
  561MOL0     C75655   9.341   0.292   5.272  0.0895 -0.0954  0.1409
  561MOL0     C75656   9.450   0.322   5.356 -0.0821  1.7282 -0.0152
  561MOL0     C75657   9.553   0.397   5.306 -0.2293  0.6404 -0.9933
  561MOL0     O75658   9.667   0.439   5.372  0.7607 -0.0773  0.0403
  561MOL0     C75659   9.685   0.384   5.501  0.1098 -0.2200  0.3410
  561MOL0     C75660   9.823   0.449   5.537  0.4543  1.0938 -0.0960
  561MOL0     C75661   9.880   0.396   5.672  0.7317  0.6601 -0.1527
  561MOL0     C75662   9.926   0.249   5.658  0.5932  0.1802  0.4622
  561MOL0     C75663  10.027   0.227   5.770  0.0145 -0.2541 -0.4569
  561MOL0     C75664  10.129   0.201   5.833  0.6939  0.5512  0.2072
  561MOL0     C75665   9.546   0.442   5.171 -0.4618 -0.3277  0.0297
  561MOL0     C75666   9.449   0.402   5.081  0.1177 -0.4834 -0.6295
  561MOL0     C75667   9.473   0.432   4.935 -1.4232 -0.2465 -0.0265
  561MOL0     H75668   9.195  -0.063   5.014  0.2148 -2.0275 -1.3111
  561MOL0     H75669   9.044  -0.187   4.853 -0.8130 -1.3921  1.4726
  561MOL0     H75670   8.925  -0.067   4.596 -2.2585  0.9411  0.5636
  561MOL0     H75671   8.929  -0.235   4.651 -3.1814 -3.0577 -0.7815
  561MOL0     H75672   8.781  -0.173   4.440  1.4601  2.7644  0.1309
  561MOL0     H75673   8.667  -0.086   4.545 -2.5336 -1.2332  2.0472
  561MOL0     H75674   8.642  -0.286   4.694 -1.6599  0.8054  0.4923
  561MOL0     H75675   8.746  -0.370   4.578  1.6206  2.1230  0.8783
  561MOL0     H75676   8.482  -0.403   4.584  0.6452 -0.9260 -0.6758
  561MOL0     H75677   8.486  -0.240   4.511  1.4435  1.4716  4.7708
  561MOL0     H75678   8.617  -0.358   4.329 -2.8724  0.0562 -1.4400
  561MOL0     H75679   8.613  -0.501   4.435  3.3816  1.1244 -1.8307
  561MOL0     H75680   8.367  -0.533   4.381  2.2071 -2.8826 -2.7621
  561MOL0     H75681   8.359  -0.354   4.336 -0.1292  0.5667 -0.0632
  561MOL0     H75682   8.498  -0.588   4.195 -1.1296 -0.2515 -1.1927
  561MOL0     H75683   8.527  -0.427   4.149 -0.5541  0.0312 -0.4329
  561MOL0     H75684   8.277  -0.385   4.117 -1.3700  0.2200 -1.2548
  561MOL0     H75685   8.351  -0.491   3.998 -0.4953  0.3551  0.2798
  561MOL0     H75686   8.221  -0.709   3.954 -1.6370 -3.5325  0.3816
  561MOL0     H75687   7.887  -0.861   4.124  0.4613  1.1866  0.2246
  561MOL0     H75688   7.958  -0.857   3.961  1.8053  1.3546  0.2956
  561MOL0     H75689   7.953  -1.066   4.087  0.2942 -1.2102  1.4096
  561MOL0     H75690   8.118  -1.032   4.035 -0.6157  0.7355  0.2233
  561MOL0     H75691   8.190  -0.920   4.255 -2.0815  1.9975  0.4717
  561MOL0     H75692   8.156  -1.091   4.267  3.1559  1.4004 -0.0926
  561MOL0     H75693   7.972  -0.874   4.343 -1.7683 -2.1111 -0.8571
  561MOL0     H75694   8.062  -0.989   4.452  2.1853  0.5195 -0.0169
  561MOL0     H75695   7.677  -1.128   4.236  0.8683 -2.2462 -0.7465
  561MOL0     H75696   7.454  -1.131   4.376  0.5430 -4.6249  2.0019
  561MOL0     H75697   7.234  -1.245   4.796 -2.0210 -2.1228  2.4603
  561MOL0     H75698   7.079  -1.249   4.986 -3.1760  2.3108  2.0103
  561MOL0     H75699   7.162  -1.020   5.357 -0.9619 -2.5656  0.7194
  561MOL0     H75700   7.070  -0.905   5.259 -0.1485 -0.3287  0.0670
  561MOL0     H75701   6.951  -1.112   5.434 -0.6176 -2.6408 -1.5968
  561MOL0     H75702   6.939  -0.937   5.445 -3.6580 -1.7726  0.0859
  561MOL0     H75703   6.837  -0.912   5.234  1.0985  0.2651 -0.1255
  561MOL0     H75704   6.827  -1.079   5.209 -1.0129  0.1433 -0.0923
  561MOL0     H75705   6.675  -0.949   5.445 -0.2591  1.7715 -1.8148
  561MOL0     H75706   6.682  -1.126   5.409 -0.9124 -0.5426  0.2272
  561MOL0     H75707   6.583  -1.098   5.189  0.0851  2.3524 -2.3229
  561MOL0     H75708   6.549  -0.931   5.219  2.6960  0.3960 -1.9156
  561MOL0     H75709   6.471  -1.181   5.393  2.9367  1.4478  0.8424
  561MOL0     H75710   6.413  -1.017   5.424  3.8400  1.9167  0.3574
  561MOL0     H75711   6.368  -1.181   5.162 -1.8914 -0.6939 -0.7655
  561MOL0     H75712   6.306  -1.019   5.193  0.2590  0.0076 -0.5426
  561MOL0     H75713   6.235  -1.281   5.342 -2.7067  1.1123 -0.1831
  561MOL0     H75714   6.163  -1.130   5.384 -0.5826  0.7626 -0.4015
  561MOL0     H75715   7.217  -0.865   5.120 -1.6425  0.8398 -0.9696
  561MOL0     H75716   7.381  -0.856   4.939 -1.3066  0.4947 -0.6222
  561MOL0     H75717   7.667  -0.990   4.713 -0.7532 -1.0079 -0.6669
  561MOL0     H75718   7.887  -0.994   4.585 -1.4718  2.8692  0.9836
  561MOL0     H75719   8.758   0.125   4.857 -2.1600 -4.0423  0.3593
  561MOL0     H75720   8.887   0.247   5.019 -0.9034 -1.5482  2.1984
  561MOL0     H75721   9.257   0.241   5.317 -0.5989  1.0987  0.2634
  561MOL0     H75722   9.450   0.284   5.457 -2.4972  1.1180 -0.1902
  561MOL0     H75723   9.688   0.275   5.512  3.0181 -0.3240 -0.5450
  561MOL0     H75724   9.605   0.431   5.558  0.7881  1.0215  0.3048
  561MOL0     H75725   9.808   0.557   5.545 -0.4408  0.8667  1.6916
  561MOL0     H75726   9.896   0.420   5.461  2.4152  1.0246  1.7160
  561MOL0     H75727   9.808   0.416   5.752 -0.9695  1.7016 -1.8505
  561MOL0     H75728   9.977   0.442   5.687  1.5241 -0.9673 -0.0336
  561MOL0     H75729   9.843   0.181   5.680  0.2278  0.6674  0.6357
  561MOL0     H75730   9.973   0.233   5.561 -0.6376 -0.6953 -0.0083
  561MOL0     H75731  10.204   0.180   5.906 -0.8053  0.4276  1.7813
  561MOL0     H75732   9.625   0.513   5.149 -0.7170 -0.1751 -0.4076
  561MOL0     H75733   9.444   0.342   4.881 -0.5089 -0.9967  0.6983
  561MOL0     H75734   9.413   0.513   4.891  1.9228  1.8225 -1.1035
  561MOL0     H75735   9.577   0.459   4.916 -0.7378 -1.3654  1.8041
  562MOL0     O75736   5.609   5.791   3.579 -0.1231 -0.2806  0.2087
  562MOL0     C75737   5.636   5.782   3.703  0.3252 -0.7989  0.5058
  562MOL0     O75738   5.726   5.696   3.758 -0.1054 -0.7346 -0.2490
  562MOL0     C75739   5.799   5.611   3.680  0.3858 -0.9793 -0.2820
  562MOL0     C75740   5.901   5.671   3.611 -0.2703 -0.4198  0.4270
  562MOL0     C75741   5.990   5.585   3.542  0.1934  0.1695  1.1810
  562MOL0     C75742   5.984   5.447   3.564 -1.1935 -0.5211 -0.0952
  562MOL0     O75743   6.089   5.369   3.503  0.4276 -0.7348 -0.4376
  562MOL0     C75744   6.110   5.232   3.555  0.0719  0.5699  1.1538
  562MOL0     C75745   6.164   5.223   3.697 -0.0477  0.5747 -0.1248
  562MOL0     C75746   6.152   5.085   3.767  0.8035 -0.0968 -0.3683
  562MOL0     C75747   6.279   4.995   3.742  1.3141  0.1134  0.3919
  562MOL0     C75748   6.265   4.848   3.793 -0.4002 -0.0119 -0.1826
  562MOL0     C75749   6.392   4.772   3.766  0.4792  0.4233  1.2697
  562MOL0     C75750   6.388   4.648   3.850  0.1567 -0.0907  0.1159
  562MOL0     C75751   6.516   4.564   3.833 -1.3126  0.2121  0.4739
  562MOL0     N75752   6.638   4.627   3.875 -0.5757 -0.2362 -0.3766
  562MOL0     C75753   6.668   4.652   4.007  0.4186  0.7616  0.4033
  562MOL0     C75754   6.790   4.700   4.016 -0.3875 -0.6617  0.4770
  562MOL0     C75755   6.844   4.755   4.143  0.1097 -0.2069 -0.7072
  562MOL0     C75756   6.837   4.661   4.259 -0.3048  0.3720 -0.0041
  562MOL0     C75757   6.854   4.753   4.379  0.5017  1.1739 -0.8485
  562MOL0     C75758   6.809   4.678   4.505 -0.3413  0.9227  0.0098
  562MOL0     O75759   6.854   4.769   4.610  0.1702 -1.3152  0.0168
  562MOL0     C75760   6.863   4.723   4.736 -0.2487  0.2022  0.3522
  562MOL0     C75761   6.766   4.633   4.796  0.7405 -0.0620 -0.0204
  562MOL0     C75762   6.766   4.619   4.938  0.5831  0.2855  0.2602
  562MOL0     C75763   6.849   4.701   5.013 -0.2851  0.0226  0.0890
  562MOL0     C75764   6.834   4.705   5.161 -1.1380 -0.1249  0.1335
  562MOL0     O75765   6.762   4.603   5.213  0.6946 -0.0233 -0.5353
  562MOL0     C75766   6.750   4.590   5.350  0.9701  0.2084 -0.7351
  562MOL0     C75767   6.620   4.591   5.406 -0.9187  0.6655  0.5146
  562MOL0     C75768   6.594   4.603   5.544 -0.4671 -0.0593 -0.2468
  562MOL0     C75769   6.697   4.611   5.635 -0.4113 -0.6029  0.3800
  562MOL0     O75770   6.684   4.613   5.768 -0.4744 -0.7090 -0.3274
  562MOL0     C75771   6.736   4.723   5.840 -0.3178 -0.1558  1.1192
  562MOL0     C75772   6.879   4.701   5.900  0.3105  0.6668  0.1388
  562MOL0     C75773   6.889   4.568   5.979 -0.3374 -0.1323  0.2159
  562MOL0     C75774   7.015   4.575   6.071 -0.6041  0.5064  0.6202
  562MOL0     C75775   7.044   4.458   6.153 -0.2664 -0.0413  0.8527
  562MOL0     C75776   7.194   4.430   6.200  0.3533  0.2516  0.4277
  562MOL0     C75777   7.211   4.287   6.261  0.9109 -0.2372 -0.1041
  562MOL0     C75778   7.161   4.166   6.178 -0.4341  1.3481 -0.1656
  562MOL0    Cl75779   7.191   4.035   6.287 -0.0562 -0.2819 -0.3130
  562MOL0     C75780   6.832   4.608   5.578  0.1084  0.6649  0.0049
  562MOL0     C75781   6.857   4.607   5.442  0.1472 -0.1578  0.3113
  562MOL0     O75782   6.893   4.793   5.223 -0.7198  0.2681 -0.5136
  562MOL0     C75783   6.947   4.781   4.956 -0.5009 -1.0886  0.1029
  562MOL0     C75784   6.957   4.783   4.817 -1.4014  0.3766 -0.1205
  562MOL0     N75785   6.828   4.729   3.882  0.6042 -0.4327  0.6289
  562MOL0     N75786   6.733   4.687   3.805 -0.2015 -0.1048 -0.5358
  562MOL0     C75787   5.885   5.392   3.646 -0.3783 -0.0705  0.4234
  562MOL0     C75788   5.797   5.473   3.714  0.4337 -0.4525  0.8078
  562MOL0     C75789   5.563   5.862   3.802 -0.0145  0.1854 -0.1120
  562MOL0     C75790   5.638   5.895   3.919  0.5974  0.2617 -0.5728
  562MOL0     C75791   5.578   5.973   4.016  0.4192  1.4490  0.0761
  562MOL0     C75792   5.446   6.025   4.008  0.3389 -0.0981  0.6962
  562MOL0     O75793   5.405   6.116   4.104  0.0731  0.8720 -0.7176
  562MOL0     C75794   5.289   6.192   4.088  0.8815  0.0103 -0.7102
  562MOL0     C75795   5.293   6.313   4.190  0.3808  0.0717 -0.5382
  562MOL0     C75796   5.308   6.260   4.332 -0.0578 -0.3243  0.1241
  562MOL0     C75797   5.318   6.374   4.433 -0.1680 -1.2367 -0.3653
  562MOL0     C75798   5.291   6.337   4.567  1.0552  0.9884  0.0172
  562MOL0     C75799   5.246   6.281   4.663 -0.4653  0.0249  0.6897
  562MOL0     C75800   5.371   5.979   3.898  0.1654 -0.5321  0.7223
  562MOL0     C75801   5.431   5.900   3.796  0.6235 -0.3164  0.0476
  562MOL0     C75802   5.348   5.855   3.683 -0.7852 -0.1280 -0.5267
  562MOL0     H75803   5.905   5.779   3.610  0.8009 -0.4045  2.2086
  562MOL0     H75804   6.053   5.624   3.462  0.9939 -1.4714  0.9776
  562MOL0     H75805   6.014   5.179   3.555  0.4879 -0.2095  0.9707
  562MOL0     H75806   6.180   5.172   3.495 -1.3379 -2.5953  2.4484
  562MOL0     H75807   6.109   5.290   3.764 -0.7045  0.5074 -0.5850
  562MOL0     H75808   6.265   5.261   3.680 -0.0888  0.6077 -0.2945
  562MOL0     H75809   6.067   5.031   3.725  0.0081  0.6644  0.2240
  562MOL0     H75810   6.133   5.093   3.875 -0.9261 -1.1741 -0.5530
  562MOL0     H75811   6.296   4.989   3.634  3.7798  1.2535  0.6470
  562MOL0     H75812   6.372   5.045   3.771  0.1991  3.9370 -1.9869
  562MOL0     H75813   6.241   4.848   3.900  2.0070 -2.9739  0.5261
  562MOL0     H75814   6.180   4.793   3.751 -2.1194  1.5598  1.0850
  562MOL0     H75815   6.409   4.729   3.667  4.3767 -1.0212  2.3804
  562MOL0     H75816   6.479   4.833   3.791  0.7625  0.9530 -0.7949
  562MOL0     H75817   6.316   4.579   3.805 -1.0732  1.2771 -0.0629
  562MOL0     H75818   6.372   4.663   3.957  0.1976  0.8927 -0.0130
  562MOL0     H75819   6.503   4.474   3.895  0.6179 -1.4970 -1.3994
  562MOL0     H75820   6.528   4.523   3.732  1.3621 -3.1754  1.9360
  562MOL0     H75821   6.598   4.623   4.085  0.7243  0.7606  0.6788
  562MOL0     H75822   6.945   4.797   4.134 -1.1231  2.7283 -2.0926
  562MOL0     H75823   6.778   4.839   4.165 -2.1794 -0.9037 -4.1264
  562MOL0     H75824   6.743   4.605   4.267  1.0028 -1.5923  2.9888
  562MOL0     H75825   6.915   4.585   4.263 -0.7989 -0.1273  0.2228
  562MOL0     H75826   6.813   4.854   4.369  1.1523  1.8768  2.3633
  562MOL0     H75827   6.960   4.763   4.404  0.7837  1.9230 -2.1869
  562MOL0     H75828   6.845   4.576   4.522  0.7045  1.1673 -0.6325
  562MOL0     H75829   6.700   4.675   4.515 -0.1476  1.0438  3.2450
  562MOL0     H75830   6.700   4.575   4.733 -2.8281  1.4335  2.0908
  562MOL0     H75831   6.687   4.566   4.989 -0.0800  0.0133 -1.0399
  562MOL0     H75832   6.539   4.594   5.333  1.0994 -2.2166 -2.0849
  562MOL0     H75833   6.493   4.618   5.580 -0.0595 -1.5167  1.6611
  562MOL0     H75834   6.734   4.813   5.777  2.7431 -1.3652 -0.9451
  562MOL0     H75835   6.660   4.734   5.917 -3.5560 -1.0184 -1.7114
  562MOL0     H75836   6.964   4.718   5.833  0.8025 -0.0450  0.5744
  562MOL0     H75837   6.886   4.776   5.979  2.0399  0.1042  0.5449
  562MOL0     H75838   6.803   4.560   6.046  0.7635 -0.1860  1.6734
  562MOL0     H75839   6.894   4.487   5.906 -0.8191 -2.2963  2.4758
  562MOL0     H75840   7.021   4.669   6.128  2.3550  1.4793 -1.0635
  562MOL0     H75841   7.101   4.596   6.007  0.3424  0.6527  1.8889
  562MOL0     H75842   7.002   4.374   6.097 -0.4268  1.0779 -0.7621
  562MOL0     H75843   6.981   4.473   6.241 -1.8732 -0.0777 -0.2481
  562MOL0     H75844   7.268   4.442   6.121  0.2230 -0.2987  0.2185
  562MOL0     H75845   7.206   4.506   6.278  2.6519  1.2789 -0.8407
  562MOL0     H75846   7.156   4.280   6.356 -4.0282 -3.9817 -2.7891
  562MOL0     H75847   7.314   4.266   6.295  0.1756 -2.3372  1.0383
  562MOL0     H75848   7.057   4.163   6.144 -0.7308 -2.9712  0.5687
  562MOL0     H75849   7.232   4.147   6.097  0.4119  0.6206  0.7222
  562MOL0     H75850   6.918   4.579   5.638  0.2307 -2.2165 -1.4238
  562MOL0     H75851   6.961   4.615   5.413  0.4939 -0.2228  1.4759
  562MOL0     H75852   7.019   4.845   5.006 -2.5010  0.6193  0.9247
  562MOL0     H75853   7.035   4.838   4.766  1.3849 -3.5041 -0.5197
  562MOL0     H75854   5.884   5.285   3.662 -1.4093 -0.5687 -2.4474
  562MOL0     H75855   5.725   5.433   3.785  0.2224  1.8762  2.0011
  562MOL0     H75856   5.739   5.856   3.928  1.0367  0.4500 -3.7169
  562MOL0     H75857   5.643   6.006   4.097  0.0419  1.4323  0.3911
  562MOL0     H75858   5.203   6.124   4.094  0.7070  0.0461 -2.3849
  562MOL0     H75859   5.271   6.230   3.987 -1.7036  0.9583  0.0370
  562MOL0     H75860   5.195   6.360   4.178 -0.8415 -2.8175 -3.7700
  562MOL0     H75861   5.381   6.375   4.170 -0.7564  1.4090 -1.6480
  562MOL0     H75862   5.404   6.208   4.322  0.3575  0.5160 -0.4061
  562MOL0     H75863   5.226   6.191   4.353  1.3705 -1.7352  1.3274
  562MOL0     H75864   5.423   6.401   4.427  0.2430 -2.0955  1.9352
  562MOL0     H75865   5.251   6.454   4.399  1.4548 -0.5690 -2.1633
  562MOL0     H75866   5.198   6.227   4.742 -1.4672  2.7596  2.0528
  562MOL0     H75867   5.266   6.004   3.895 -0.0068 -0.9550  2.3423
  562MOL0     H75868   5.378   5.904   3.589  0.3124  0.1119 -0.0623
  562MOL0     H75869   5.359   5.749   3.662  1.0658 -0.0430 -0.0873
  562MOL0     H75870   5.243   5.875   3.709 -1.5108 -1.1264 -2.4972
  563MOL0     O75871   7.788   7.158   3.505 -0.1193  0.0133  0.2412
  563MOL0     C75872   7.858   7.237   3.448 -0.0070 -0.0314  0.7324
  563MOL0     O75873   7.983   7.276   3.486  0.1486 -0.5988 -0.0135
  563MOL0     C75874   8.049   7.190   3.564 -0.1495 -0.1174  0.6011
  563MOL0     C75875   8.052   7.213   3.704  1.0433 -0.6600 -0.4151
  563MOL0     C75876   8.133   7.127   3.779  0.4563 -0.5449  0.4932
  563MOL0     C75877   8.208   7.026   3.714 -0.1530 -0.0037  0.7281
  563MOL0     O75878   8.308   6.969   3.785 -0.3028 -0.0892  0.2892
  563MOL0     C75879   8.365   6.842   3.753  0.7418  0.2388 -0.5017
  563MOL0     C75880   8.439   6.792   3.874 -0.4132 -0.1051 -0.2964
  563MOL0     C75881   8.547   6.687   3.841 -0.1642  0.5654 -0.1884
  563MOL0     C75882   8.585   6.613   3.963 -0.3604 -0.3615  0.6982
  563MOL0     C75883   8.709   6.532   3.945  0.0740 -0.8218 -0.3272
  563MOL0     C75884   8.841   6.595   3.974  0.0787  0.1056 -0.0960
  563MOL0     C75885   8.960   6.493   3.958  0.1023 -0.4196 -0.6474
  563MOL0     C75886   9.061   6.501   4.077 -0.4635 -0.1128  0.2370
  563MOL0     N75887   9.181   6.569   4.021  0.1686  0.0767 -0.4625
  563MOL0     C75888   9.311   6.554   4.064 -0.2422 -0.1069  0.2252
  563MOL0     C75889   9.383   6.646   3.994 -0.2142 -0.9857  0.1448
  563MOL0     C75890   9.531   6.645   4.007 -0.6322 -0.4350 -1.1484
  563MOL0     C75891   9.603   6.563   3.897 -0.4781 -0.0871  0.2373
  563MOL0     C75892   9.585   6.632   3.764 -0.2677 -1.5517  1.0044
  563MOL0     C75893   9.658   6.761   3.752 -0.1461  0.2236  0.2196
  563MOL0     O75894   9.655   6.789   3.611  0.4103 -0.0308 -0.2266
  563MOL0     C75895   9.732   6.891   3.562 -0.1015  0.3182 -0.5688
  563MOL0     C75896   9.812   6.973   3.644  0.8574  0.2113 -0.1407
  563MOL0     C75897   9.883   7.073   3.590 -0.8184 -0.2474 -0.0329
  563MOL0     C75898   9.891   7.099   3.452  0.7692 -1.0631 -0.3134
  563MOL0     C75899   9.973   7.205   3.391 -0.0340  0.2816 -0.4176
  563MOL0     O75900   9.952   7.216   3.261  0.0319  0.5475 -0.7870
  563MOL0     C75901  10.004   7.328   3.196 -0.3211  0.8476 -0.5583
  563MOL0     C75902  10.144   7.346   3.165  0.1473  0.2956 -0.1335
  563MOL0     C75903  10.180   7.446   3.080  0.3159  0.0663  1.3430
  563MOL0     C75904  10.081   7.541   3.025 -0.0972  0.1223 -0.3040
  563MOL0     O75905  10.103   7.646   2.932 -0.3678  0.5670 -1.0443
  563MOL0     C75906  10.241   7.686   2.914  0.0326  0.5085  1.3553
  563MOL0     C75907  10.282   7.791   3.010  0.1295  0.5169  0.9777
  563MOL0     C75908  10.387   7.878   2.950 -0.4317  0.1625  0.0132
  563MOL0     C75909  10.454   7.969   3.051  1.0178  0.3087 -0.0005
  563MOL0     C75910  10.371   8.091   3.093  0.5882  0.2952 -1.3135
  563MOL0     C75911  10.451   8.187   3.187 -0.2608 -0.3289  0.0521
  563MOL0     C75912  10.391   8.325   3.218  0.0785  0.1943  0.5176
  563MOL0     C75913  10.430   8.412   3.098 -0.2294  0.2425 -0.7030
  563MOL0    Cl75914  10.391   8.581   3.131  0.1307 -0.0296 -0.0297
  563MOL0     C75915   9.946   7.524   3.066  0.3546 -0.2744 -0.6232
  563MOL0     C75916   9.914   7.421   3.161  0.4202  0.7014  0.5716
  563MOL0     O75917  10.036   7.287   3.461 -0.0544 -0.0325 -0.4480
  563MOL0     C75918   9.791   7.039   3.376  1.6971 -0.4128  0.0153
  563MOL0     C75919   9.717   6.928   3.431 -0.8746 -0.2780 -0.2625
  563MOL0     N75920   9.291   6.726   3.925 -0.9320 -0.0964 -0.4365
  563MOL0     N75921   9.179   6.673   3.937 -0.2672 -0.2834  0.1229
  563MOL0     C75922   8.199   7.006   3.575 -0.8572  1.2346  0.3099
  563MOL0     C75923   8.128   7.090   3.503 -0.2617 -1.0074  0.2783
  563MOL0     C75924   7.798   7.311   3.329  0.4928  0.0688  1.1159
  563MOL0     C75925   7.869   7.347   3.209 -0.5268 -1.0664 -1.0482
  563MOL0     C75926   7.811   7.426   3.115 -0.4924  0.7832 -0.8454
  563MOL0     C75927   7.678   7.462   3.126 -0.1129 -0.7820  0.5200
  563MOL0     O75928   7.617   7.547   3.037  0.2913  0.0316  0.3807
  563MOL0     C75929   7.693   7.662   2.992 -0.9866  0.0785  0.5007
  563MOL0     C75930   7.602   7.774   2.960  0.0906 -0.1645 -0.4315
  563MOL0     C75931   7.665   7.908   2.915 -0.8522  0.1302 -0.0840
  563MOL0     C75932   7.729   7.900   2.772 -0.1119  0.5732 -0.2036
  563MOL0     C75933   7.622   7.887   2.672 -0.4175 -0.1131  0.2855
  563MOL0     C75934   7.544   7.901   2.574  0.0813 -0.1941 -0.3507
  563MOL0     C75935   7.608   7.431   3.233  0.4136  0.2407 -0.3892
  563MOL0     C75936   7.663   7.363   3.345  0.0497 -0.0124 -0.2468
  563MOL0     C75937   7.587   7.370   3.471  0.6179 -0.1903  0.0161
  563MOL0     H75938   7.994   7.295   3.743  2.1632  0.0065 -0.1011
  563MOL0     H75939   8.154   7.138   3.885  0.0048 -2.3452  0.8002
  563MOL0     H75940   8.280   6.776   3.737 -0.5610  1.5340  0.7365
  563MOL0     H75941   8.444   6.846   3.677  0.9237 -0.3688 -0.3530
  563MOL0     H75942   8.367   6.750   3.944 -0.1046 -0.6392 -0.2982
  563MOL0     H75943   8.482   6.883   3.918  0.5806 -1.1166  0.8947
  563MOL0     H75944   8.636   6.739   3.804  0.9171 -0.7441  0.4571
  563MOL0     H75945   8.515   6.616   3.763  3.4530 -1.2065 -0.2888
  563MOL0     H75946   8.599   6.688   4.041 -0.9314  1.3908 -0.8284
  563MOL0     H75947   8.515   6.537   3.998  0.6899 -1.6140  0.1930
  563MOL0     H75948   8.703   6.459   4.027 -0.0567 -0.1033  0.3108
  563MOL0     H75949   8.709   6.487   3.845 -0.3913 -1.9187  0.1544
  563MOL0     H75950   8.845   6.675   3.900  0.4274 -0.3233 -0.5506
  563MOL0     H75951   8.838   6.636   4.075 -0.0211 -1.0722  0.3976
  563MOL0     H75952   9.001   6.513   3.859 -0.8820  0.7433 -0.8476
  563MOL0     H75953   8.922   6.391   3.945  0.7555 -0.6803 -0.5718
  563MOL0     H75954   9.020   6.557   4.162  0.1217 -1.5299  1.5082
  563MOL0     H75955   9.095   6.403   4.112 -1.3425 -0.1468  1.0596
  563MOL0     H75956   9.336   6.471   4.130 -2.6828  0.9807  2.7127
  563MOL0     H75957   9.575   6.745   4.007  0.5788 -0.9240  0.6100
  563MOL0     H75958   9.545   6.601   4.106  1.3830 -1.3607 -1.7896
  563MOL0     H75959   9.708   6.548   3.923 -0.3621  1.9323  1.0676
  563MOL0     H75960   9.561   6.462   3.895  0.3140 -0.4237 -0.9475
  563MOL0     H75961   9.483   6.654   3.734  0.1443  1.3748  1.4707
  563MOL0     H75962   9.628   6.563   3.691  3.8182  3.2270 -1.7472
  563MOL0     H75963   9.762   6.757   3.788  0.0550 -1.2367 -0.4422
  563MOL0     H75964   9.596   6.837   3.800  0.5902  3.2627 -3.1649
  563MOL0     H75965   9.826   6.955   3.750 -2.2719 -2.6250 -0.0402
  563MOL0     H75966   9.958   7.129   3.647 -1.5850  0.0282  0.7238
  563MOL0     H75967  10.207   7.261   3.190 -1.3824 -0.4485  1.3399
  563MOL0     H75968  10.281   7.432   3.042  0.3644 -1.4386  1.9601
  563MOL0     H75969  10.313   7.604   2.909  3.0290  2.9574  1.7599
  563MOL0     H75970  10.247   7.728   2.813  3.5137 -1.2533  0.6860
  563MOL0     H75971  10.201   7.854   3.048  1.3053  1.5073  1.9016
  563MOL0     H75972  10.331   7.738   3.092  0.6204 -0.4181  0.1024
  563MOL0     H75973  10.469   7.818   2.910  0.8697 -1.8001  4.8115
  563MOL0     H75974  10.350   7.933   2.863 -0.8494  0.5409  0.4231
  563MOL0     H75975  10.544   8.004   2.999  2.4001 -2.6532  0.1432
  563MOL0     H75976  10.491   7.915   3.139 -0.0196 -0.1938  0.1359
  563MOL0     H75977  10.278   8.056   3.139  0.2954  0.9420 -1.4025
  563MOL0     H75978  10.345   8.149   3.004 -0.9142  2.8040  0.6276
  563MOL0     H75979  10.454   8.145   3.288 -0.1069  2.3384  1.2357
  563MOL0     H75980  10.551   8.197   3.143 -1.2524 -1.2793 -2.6393
  563MOL0     H75981  10.442   8.363   3.307  1.0069 -1.0483  0.5445
  563MOL0     H75982  10.282   8.322   3.229 -0.3212 -2.6836 -2.5225
  563MOL0     H75983  10.536   8.419   3.070 -0.3124  2.6518 -0.6150
  563MOL0     H75984  10.372   8.391   3.008 -1.7043  1.7633 -0.1716
  563MOL0     H75985   9.875   7.599   3.035 -0.7048 -0.2150  1.7042
  563MOL0     H75986   9.809   7.396   3.172  0.4741 -1.0377 -1.9796
  563MOL0     H75987   9.761   7.066   3.275  0.7051  1.0894  0.6672
  563MOL0     H75988   9.641   6.888   3.364 -0.0168  1.6952 -2.5610
  563MOL0     H75989   8.261   6.928   3.531  2.1389  2.6993  1.6527
  563MOL0     H75990   8.125   7.096   3.395 -1.8910  0.1736  0.3468
  563MOL0     H75991   7.974   7.320   3.202  0.1768  1.5396 -1.3503
  563MOL0     H75992   7.878   7.456   3.035  0.6219 -2.2192 -1.1784
  563MOL0     H75993   7.752   7.637   2.903 -0.4359  2.9697 -0.0553
  563MOL0     H75994   7.759   7.705   3.069 -0.9079 -1.9078  1.6122
  563MOL0     H75995   7.533   7.789   3.043  2.3182 -2.6646  2.0774
  563MOL0     H75996   7.538   7.733   2.881 -0.9745 -0.1606  0.4071
  563MOL0     H75997   7.740   7.937   2.989 -0.6104  1.5506 -0.8640
  563MOL0     H75998   7.598   7.994   2.907  0.1732  0.7915 -2.5832
  563MOL0     H75999   7.781   7.994   2.755  1.9896 -0.4315  0.3729
  563MOL0     H76000   7.771   7.800   2.757 -2.2378 -0.4887  0.3812
  563MOL0     H76001   7.470   7.905   2.496 -1.1783 -1.8383  0.6981
  563MOL0     H76002   7.504   7.462   3.233  0.5925  0.9485  1.1253
  563MOL0     H76003   7.647   7.397   3.558  1.5698  2.5933 -1.4055
  563MOL0     H76004   7.500   7.435   3.481 -0.1478 -1.2405  0.4500
  563MOL0     H76005   7.548   7.270   3.497  1.3606 -1.1644 -2.3556
  564MOL0     O76006   4.438  11.217   3.249 -0.4579  0.1704 -0.3690
  564MOL0     C76007   4.467  11.174   3.361 -0.0475  0.0302  0.0170
  564MOL0     O76008   4.378  11.104   3.441  0.7059  0.3679 -0.2568
  564MOL0     C76009   4.267  11.064   3.377 -0.0496  0.3265 -0.0097
  564MOL0     C76010   4.274  10.954   3.291  0.8504  0.9714 -0.4426
  564MOL0     C76011   4.150  10.918   3.235 -0.0938  0.1374  0.5355
  564MOL0     C76012   4.023  10.986   3.261  0.3728 -0.2479  0.2028
  564MOL0     O76013   3.891  10.956   3.214 -0.1694 -0.3934  1.0798
  564MOL0     C76014   3.861  10.857   3.109  1.0042 -0.3756  0.1517
  564MOL0     C76015   3.756  10.759   3.156  0.0881  0.1375 -0.6957
  564MOL0     C76016   3.607  10.816   3.162 -0.9124  0.1938 -0.4814
  564MOL0     C76017   3.573  10.895   3.292 -0.5738 -0.2737  0.0732
  564MOL0     C76018   3.431  10.962   3.284  0.0125 -0.0726  0.8288
  564MOL0     C76019   3.411  11.062   3.408 -0.3430 -0.3515 -0.5378
  564MOL0     C76020   3.283  11.151   3.377 -0.9616 -1.3864  0.2011
  564MOL0     C76021   3.143  11.106   3.413  0.4077  0.0066  0.4750
  564MOL0     N76022   3.099  10.983   3.343 -1.0641 -0.2546 -0.3014
  564MOL0     C76023   3.088  10.861   3.397 -0.4341 -1.3311 -1.3674
  564MOL0     C76024   3.043  10.785   3.304 -0.1825 -1.0196 -0.3588
  564MOL0     C76025   3.004  10.644   3.310 -0.2631  0.4148 -0.0266
  564MOL0     C76026   3.004  10.599   3.460  0.1996 -0.0393 -0.6384
  564MOL0     C76027   2.975  10.449   3.470  0.4761  0.8633  0.0327
  564MOL0     C76028   3.065  10.353   3.397 -0.1120  0.3896 -0.0960
  564MOL0     O76029   2.996  10.268   3.303  0.4492  0.2886 -0.0931
  564MOL0     C76030   2.906  10.171   3.357  0.3405  0.6620 -0.9769
  564MOL0     C76031   2.897  10.134   3.488 -0.2104 -0.5428  0.9569
  564MOL0     C76032   2.819  10.030   3.543 -0.2468  0.6169  0.2643
  564MOL0     C76033   2.726   9.971   3.457  0.2619 -0.5465 -0.4503
  564MOL0     C76034   2.619   9.890   3.522 -0.0310 -0.4614  0.1957
  564MOL0     O76035   2.656   9.813   3.630  0.9207 -0.3287  0.7252
  564MOL0     C76036   2.557   9.730   3.673  0.1280  0.4447  1.2316
  564MOL0     C76037   2.481   9.754   3.785  0.2779  0.4940  0.1388
  564MOL0     C76038   2.376   9.666   3.824  0.1534 -0.1327  0.9669
  564MOL0     C76039   2.358   9.537   3.754 -1.2025  0.1054 -0.5101
  564MOL0     O76040   2.251   9.453   3.772  0.3562  0.1832 -0.2161
  564MOL0     C76041   2.233   9.410   3.908  0.5707  0.4697  0.5070
  564MOL0     C76042   2.292   9.275   3.931 -0.1850  0.1298 -0.8423
  564MOL0     C76043   2.276   9.214   4.066  0.4742 -1.4245 -0.6168
  564MOL0     C76044   2.353   9.092   4.078  0.2134  0.7751 -0.9335
  564MOL0     C76045   2.370   9.045   4.221  0.3295  0.0448  0.0543
  564MOL0     C76046   2.434   8.907   4.241 -0.2777  0.5323  0.5072
  564MOL0     C76047   2.582   8.903   4.204  0.8418  0.6198  0.2716
  564MOL0     C76048   2.665   8.784   4.272 -0.3240 -0.1886 -0.3268
  564MOL0    Cl76049   2.592   8.634   4.217 -0.1097 -0.1253  0.3168
  564MOL0     C76050   2.430   9.519   3.636  0.0765 -0.0094 -0.6885
  564MOL0     C76051   2.531   9.610   3.602  0.2489  0.1656 -0.1308
  564MOL0     O76052   2.517   9.874   3.454  0.4508 -0.2103 -0.1195
  564MOL0     C76053   2.735  10.005   3.320 -0.2999  0.1950 -0.2093
  564MOL0     C76054   2.822  10.099   3.271 -0.9615  0.2629 -0.6632
  564MOL0     N76055   3.016  10.865   3.196  0.5784 -0.4722 -0.0337
  564MOL0     N76056   3.067  10.980   3.216  0.1162  0.0501  0.4045
  564MOL0     C76057   4.032  11.102   3.334  0.1674  0.8890  0.2233
  564MOL0     C76058   4.152  11.135   3.399 -0.5986 -0.7326  0.5422
  564MOL0     C76059   4.607  11.196   3.411  0.0280 -1.0316 -0.5873
  564MOL0     C76060   4.642  11.139   3.538 -0.9897 -0.1504  0.0056
  564MOL0     C76061   4.757  11.182   3.609  0.0911 -0.7066  1.0347
  564MOL0     C76062   4.861  11.257   3.533 -0.1430  0.2429 -0.8729
  564MOL0     O76063   4.982  11.274   3.601  0.0610  0.0573  0.7892
  564MOL0     C76064   5.088  11.178   3.576  0.9977 -0.3755  0.5053
  564MOL0     C76065   5.180  11.162   3.697 -0.6382 -0.8019 -0.3804
  564MOL0     C76066   5.110  11.115   3.829 -0.1349 -0.4494 -0.2200
  564MOL0     C76067   5.100  10.965   3.842  1.2180  0.0342  0.3802
  564MOL0     C76068   5.012  10.902   3.738  0.0360 -0.1485  0.6542
  564MOL0     C76069   4.939  10.846   3.667  0.7089  0.4675 -0.4512
  564MOL0     C76070   4.837  11.310   3.409  0.9882  0.2033  0.9866
  564MOL0     C76071   4.715  11.281   3.342  0.3046 -0.3840  0.8944
  564MOL0     C76072   4.687  11.340   3.211 -0.1362  0.2630  0.4971
  564MOL0     H76073   4.365  10.896   3.288  1.2185  1.3510  1.9722
  564MOL0     H76074   4.154  10.819   3.190  0.2658  0.0333  0.7960
  564MOL0     H76075   3.817  10.910   3.024 -2.0114 -0.9299  1.2599
  564MOL0     H76076   3.954  10.807   3.079  0.9535  0.8615 -2.3524
  564MOL0     H76077   3.779  10.705   3.248  0.5261 -0.1609 -0.9809
  564MOL0     H76078   3.765  10.685   3.076 -1.5297  0.6625 -1.4094
  564MOL0     H76079   3.529  10.739   3.156 -0.9956  0.0554  1.6408
  564MOL0     H76080   3.592  10.877   3.073 -1.7763 -1.1984 -1.3167
  564MOL0     H76081   3.588  10.838   3.385 -2.8038  0.5619  1.0344
  564MOL0     H76082   3.646  10.973   3.314  1.6887 -1.1636 -3.5316
  564MOL0     H76083   3.409  11.010   3.188 -0.9156  1.1301  1.6202
  564MOL0     H76084   3.359  10.879   3.286  2.4819 -2.3428  0.8110
  564MOL0     H76085   3.399  11.007   3.502  4.3451  0.0214  0.5250
  564MOL0     H76086   3.503  11.117   3.432  3.0009 -4.9533 -1.4316
  564MOL0     H76087   3.293  11.176   3.271  0.1729  0.3702  0.6767
  564MOL0     H76088   3.295  11.240   3.439 -0.0413 -0.9017 -0.6284
  564MOL0     H76089   3.146  11.095   3.522  3.3048  1.8967  0.6928
  564MOL0     H76090   3.077  11.191   3.390  0.4452 -0.5022 -1.7399
  564MOL0     H76091   3.130  10.832   3.494 -0.0625  1.2629 -0.6891
  564MOL0     H76092   2.902  10.636   3.271  1.0400 -1.0858 -3.5855
  564MOL0     H76093   3.066  10.591   3.236  0.0398  2.5433 -1.3834
  564MOL0     H76094   3.100  10.614   3.510  1.1237  2.3232 -2.9124
  564MOL0     H76095   2.927  10.655   3.514 -1.9884 -1.3139 -2.2390
  564MOL0     H76096   2.871  10.432   3.440  1.1425  0.5279 -2.2546
  564MOL0     H76097   2.993  10.422   3.574  3.0542 -1.5017 -0.9323
  564MOL0     H76098   3.108  10.281   3.467 -1.5869  0.2189  0.6883
  564MOL0     H76099   3.143  10.406   3.341 -1.2316  1.4987 -0.6550
  564MOL0     H76100   2.962  10.179   3.563 -1.5780 -1.3694  2.7124
  564MOL0     H76101   2.828  10.012   3.650 -2.5798 -0.9769  0.2727
  564MOL0     H76102   2.496   9.850   3.833  0.5984  1.0432 -1.0129
  564MOL0     H76103   2.309   9.708   3.899  0.6476 -1.2394  2.0462
  564MOL0     H76104   2.287   9.476   3.976  3.0314  0.9803 -1.7399
  564MOL0     H76105   2.129   9.413   3.942  1.0014  2.2033  1.8066
  564MOL0     H76106   2.243   9.203   3.865 -1.7248 -1.3752  1.7978
  564MOL0     H76107   2.399   9.263   3.908  0.1273  3.1519 -1.3319
  564MOL0     H76108   2.313   9.299   4.125  1.0641  0.1525 -3.0956
  564MOL0     H76109   2.174   9.197   4.102  0.5255 -1.4246 -0.4667
  564MOL0     H76110   2.450   9.091   4.027 -1.4775 -0.1640 -4.4507
  564MOL0     H76111   2.301   9.007   4.032  0.0656  1.0177 -1.2210
  564MOL0     H76112   2.271   9.025   4.263  0.0875  0.7710 -0.1502
  564MOL0     H76113   2.423   9.119   4.282 -1.4213  0.4682  1.1407
  564MOL0     H76114   2.416   8.862   4.339 -0.0266 -1.3515 -0.2790
  564MOL0     H76115   2.389   8.832   4.175  2.8150 -0.1223 -1.0579
  564MOL0     H76116   2.631   8.997   4.231  3.5083 -0.9032  1.0771
  564MOL0     H76117   2.602   8.887   4.098 -0.4626 -0.6878  0.1789
  564MOL0     H76118   2.768   8.794   4.238 -0.9706  0.2271 -2.3067
  564MOL0     H76119   2.645   8.790   4.379  4.0934 -0.2093  0.6467
  564MOL0     H76120   2.392   9.437   3.576 -1.4005 -1.2307  1.7504
  564MOL0     H76121   2.602   9.607   3.520  0.9988  3.3126  0.2603
  564MOL0     H76122   2.680   9.954   3.241  0.8078  1.0668 -1.5859
  564MOL0     H76123   2.840  10.102   3.164  0.2557  0.8934 -0.4507
  564MOL0     H76124   3.943  11.164   3.340 -0.1487  0.4214  0.4289
  564MOL0     H76125   4.155  11.217   3.470  2.1363  0.8959 -1.2735
  564MOL0     H76126   4.586  11.064   3.594 -0.2799  1.5472  3.2217
  564MOL0     H76127   4.784  11.137   3.704  0.8286 -3.6940 -0.4732
  564MOL0     H76128   5.152  11.215   3.495 -0.5707 -1.3573 -1.2577
  564MOL0     H76129   5.053  11.081   3.539  3.2725 -1.1074  0.1001
  564MOL0     H76130   5.221  11.262   3.713 -3.2110  0.3505 -0.5514
  564MOL0     H76131   5.252  11.087   3.663 -0.0952 -0.1713 -0.6500
  564MOL0     H76132   5.008  11.153   3.842 -0.4953 -1.7612  1.1725
  564MOL0     H76133   5.172  11.153   3.911  2.2332 -3.1533 -0.5836
  564MOL0     H76134   5.198  10.917   3.827  0.4330 -1.1572 -1.2945
  564MOL0     H76135   5.069  10.947   3.945 -1.7294  1.5998 -0.1432
  564MOL0     H76136   4.887  10.798   3.586  0.5848 -0.4921  0.1757
  564MOL0     H76137   4.918  11.362   3.359  0.2689  2.1136  1.7256
  564MOL0     H76138   4.597  11.397   3.187  0.8327  1.2003 -1.0911
  564MOL0     H76139   4.764  11.409   3.176 -1.8162  2.1755  0.3838
  564MOL0     H76140   4.682  11.246   3.155 -2.8573 -0.0522  1.1385
  565MOL0     O76141   9.753   3.546   6.948 -0.2849 -0.5680  0.5649
  565MOL0     C76142   9.863   3.587   6.917  0.5494 -0.4746 -0.0839
  565MOL0     O76143   9.940   3.544   6.816 -0.0622  0.7543  0.1631
  565MOL0     C76144   9.875   3.472   6.718  0.4923  0.2306 -0.0530
  565MOL0     C76145   9.915   3.347   6.678 -0.2587  0.2631  0.5243
  565MOL0     C76146   9.836   3.269   6.595 -0.8150 -0.9467  0.4209
  565MOL0     C76147   9.720   3.316   6.533 -1.4565  1.3094 -0.9819
  565MOL0     O76148   9.654   3.229   6.449  0.4908 -1.0241 -0.2372
  565MOL0     C76149   9.529   3.282   6.391 -0.2564 -0.0191 -0.1447
  565MOL0     C76150   9.470   3.172   6.296  0.4926 -0.3575 -0.2237
  565MOL0     C76151   9.344   3.235   6.243 -0.5483  0.3171 -0.2166
  565MOL0     C76152   9.267   3.128   6.170  0.5606  0.4495  0.6175
  565MOL0     C76153   9.156   3.190   6.088 -0.3229 -0.0887 -0.7656
  565MOL0     C76154   9.033   3.210   6.177 -0.4544 -0.4621  0.0671
  565MOL0     C76155   8.914   3.218   6.080  0.0228 -0.1206  0.1402
  565MOL0     C76156   8.781   3.249   6.141 -0.4629  0.1207 -0.3622
  565MOL0     N76157   8.690   3.332   6.060 -1.5099 -0.0080  0.1351
  565MOL0     C76158   8.648   3.313   5.928  0.9915 -0.2375  0.6228
  565MOL0     C76159   8.596   3.435   5.893  0.0306  0.4135  0.2190
  565MOL0     C76160   8.509   3.468   5.769 -0.3076  0.5253 -0.0049
  565MOL0     C76161   8.403   3.350   5.734 -0.3522  0.3338 -0.0890
  565MOL0     C76162   8.318   3.389   5.608  0.2529  0.7283  0.5675
  565MOL0     C76163   8.409   3.402   5.486 -0.3064  0.4547  0.1304
  565MOL0     O76164   8.315   3.389   5.381  0.1028  0.3197 -0.0703
  565MOL0     C76165   8.305   3.283   5.299  0.2693  0.1363  0.0754
  565MOL0     C76166   8.218   3.284   5.189 -0.2656 -1.4292  0.3276
  565MOL0     C76167   8.185   3.170   5.111 -0.2629 -0.6080  0.2592
  565MOL0     C76168   8.264   3.055   5.130 -0.6796  0.0707 -1.2510
  565MOL0     C76169   8.247   2.935   5.038 -0.4861  0.2564 -0.0714
  565MOL0     O76170   8.285   2.818   5.077 -0.2500  0.5307 -0.5025
  565MOL0     C76171   8.303   2.724   4.983  0.2118 -0.2850 -0.0389
  565MOL0     C76172   8.413   2.735   4.891  0.8633 -0.1573  0.4434
  565MOL0     C76173   8.426   2.628   4.798  0.8710 -1.0419  0.4322
  565MOL0     C76174   8.331   2.519   4.796  0.7159  1.2686 -0.3738
  565MOL0     O76175   8.343   2.427   4.704 -0.1416  0.7816  0.3841
  565MOL0     C76176   8.270   2.445   4.584 -0.0256 -0.1293  1.3085
  565MOL0     C76177   8.305   2.351   4.475 -0.0523 -0.2072 -0.8171
  565MOL0     C76178   8.256   2.390   4.329  0.0773 -0.4021 -0.3589
  565MOL0     C76179   8.101   2.384   4.293 -0.3971 -0.0831 -1.2315
  565MOL0     C76180   8.077   2.479   4.167  0.0174  0.7977 -0.8150
  565MOL0     C76181   7.930   2.499   4.144 -1.1967  0.6992  0.1663
  565MOL0     C76182   7.891   2.589   4.022  0.3082  0.3505  0.3418
  565MOL0     C76183   7.990   2.711   4.012  0.4400 -0.1479  1.2231
  565MOL0    Cl76184   7.905   2.838   3.908  0.0275 -0.0425  0.4099
  565MOL0     C76185   8.227   2.521   4.889  1.1928 -0.1699  1.3975
  565MOL0     C76186   8.211   2.629   4.980  0.0248  1.1405  1.0003
  565MOL0     O76187   8.171   2.948   4.938 -0.1749  0.6197 -0.9439
  565MOL0     C76188   8.348   3.052   5.245 -0.8650  0.1844 -0.7340
  565MOL0     C76189   8.368   3.161   5.327  0.2251  0.2735  0.8734
  565MOL0     N76190   8.611   3.518   5.999  0.2550 -0.4112 -0.0269
  565MOL0     N76191   8.680   3.464   6.093  0.7759 -0.2005  0.4772
  565MOL0     C76192   9.680   3.448   6.569 -0.3277 -0.1287 -0.2626
  565MOL0     C76193   9.758   3.520   6.666  0.1224 -2.0805  0.4857
  565MOL0     C76194   9.935   3.684   6.998 -1.1673 -0.6590  0.3600
  565MOL0     C76195  10.050   3.739   6.931 -1.0098  0.8132 -0.2968
  565MOL0     C76196  10.140   3.832   6.979  0.3957 -0.7374 -0.2200
  565MOL0     C76197  10.121   3.867   7.121 -0.3914 -0.3529 -0.6571
  565MOL0     O76198  10.184   3.972   7.189 -0.0374  0.0712  0.2922
  565MOL0     C76199  10.266   4.068   7.111 -1.6596  0.6542 -0.2603
  565MOL0     C76200  10.408   4.013   7.112 -0.0215 -0.0332  0.1616
  565MOL0     C76201  10.456   3.996   7.262  0.2890 -0.4431 -0.0293
  565MOL0     C76202  10.598   3.921   7.284  0.7605  0.5622  0.9677
  565MOL0     C76203  10.628   3.891   7.421  0.6520  0.1496 -0.7388
  565MOL0     C76204  10.674   3.858   7.530 -0.2930  0.0976  0.7641
  565MOL0     C76205  10.010   3.804   7.193 -0.1287 -0.6604  1.0337
  565MOL0     C76206   9.918   3.726   7.128 -0.9081 -0.4347 -0.0701
  565MOL0     C76207   9.797   3.669   7.220 -0.3129  0.1073 -0.3526
  565MOL0     H76208  10.011   3.315   6.717  0.2829  0.0358 -0.9301
  565MOL0     H76209   9.864   3.167   6.570  1.0147 -0.7442  1.4446
  565MOL0     H76210   9.460   3.301   6.473 -0.9628 -0.5432 -0.6073
  565MOL0     H76211   9.552   3.367   6.325  0.5029 -0.0778  0.0282
  565MOL0     H76212   9.447   3.074   6.339 -2.3113 -1.0297 -2.9244
  565MOL0     H76213   9.532   3.153   6.208 -1.2488 -0.1746 -1.5286
  565MOL0     H76214   9.369   3.318   6.176 -0.3498  2.1334  1.9808
  565MOL0     H76215   9.285   3.279   6.325  0.6246  4.1397 -1.2272
  565MOL0     H76216   9.333   3.072   6.103  0.2589  2.3199 -1.3695
  565MOL0     H76217   9.220   3.058   6.240 -1.5645 -0.2048 -1.3121
  565MOL0     H76218   9.192   3.282   6.042  1.7118 -0.1894  0.4822
  565MOL0     H76219   9.132   3.117   6.010  0.3557 -2.8364  1.4223
  565MOL0     H76220   9.008   3.124   6.240 -2.0029 -1.8779 -2.3170
  565MOL0     H76221   9.051   3.298   6.240  1.3391  0.8186 -2.0642
  565MOL0     H76222   8.900   3.126   6.022 -0.8192 -1.9062  2.9878
  565MOL0     H76223   8.934   3.295   6.004  1.1855 -1.0671 -0.5460
  565MOL0     H76224   8.726   3.155   6.149  2.3357 -1.4691  2.1355
  565MOL0     H76225   8.790   3.294   6.240 -1.0459  1.0145 -0.7025
  565MOL0     H76226   8.635   3.219   5.876 -3.1507 -0.0164  0.9858
  565MOL0     H76227   8.446   3.554   5.793 -1.2347  0.1792 -1.1268
  565MOL0     H76228   8.581   3.481   5.689  0.1941  3.1070  0.7725
  565MOL0     H76229   8.445   3.251   5.718  0.1983  0.5511 -0.0013
  565MOL0     H76230   8.349   3.344   5.829 -1.5567 -0.6006 -0.8011
  565MOL0     H76231   8.278   3.490   5.623 -0.3617  0.7576 -1.0625
  565MOL0     H76232   8.238   3.316   5.591 -1.2655  2.8665 -2.1767
  565MOL0     H76233   8.496   3.336   5.482 -1.0101 -0.4769 -0.0724
  565MOL0     H76234   8.455   3.501   5.489  0.2127  0.2531 -1.0196
  565MOL0     H76235   8.185   3.382   5.158  2.1411 -0.9147 -0.8572
  565MOL0     H76236   8.113   3.170   5.029  1.5731  0.6238 -1.4495
  565MOL0     H76237   8.497   2.803   4.886  0.1580  0.6604 -0.6189
  565MOL0     H76238   8.504   2.620   4.722 -1.3794 -0.8800 -2.0415
  565MOL0     H76239   8.163   2.435   4.603 -0.5190 -0.3966 -1.2991
  565MOL0     H76240   8.295   2.546   4.551  2.6961 -0.8531  0.9332
  565MOL0     H76241   8.415   2.349   4.469  0.0450  1.5972 -0.0986
  565MOL0     H76242   8.267   2.254   4.508 -1.0854 -0.0649 -1.5489
  565MOL0     H76243   8.287   2.495   4.331 -1.7978  0.2117 -1.3277
  565MOL0     H76244   8.316   2.343   4.250 -2.4525 -0.6767 -2.2314
  565MOL0     H76245   8.045   2.435   4.372  1.0450  0.2742 -0.4074
  565MOL0     H76246   8.076   2.280   4.271  0.1576 -0.0324 -2.1705
  565MOL0     H76247   8.120   2.410   4.094  0.7807 -3.5636  3.2333
  565MOL0     H76248   8.133   2.572   4.178 -2.8011  2.6977 -1.4226
  565MOL0     H76249   7.884   2.403   4.119  2.7635 -1.5117  0.5119
  565MOL0     H76250   7.881   2.528   4.237 -1.3833 -0.9070  0.5993
  565MOL0     H76251   7.791   2.628   4.039 -0.4326 -0.1673 -2.3318
  565MOL0     H76252   7.891   2.535   3.927 -1.7462  1.6031 -0.4289
  565MOL0     H76253   7.998   2.739   4.117 -0.6672  3.2999  0.5244
  565MOL0     H76254   8.078   2.669   3.961  0.9401 -1.5060  3.0783
  565MOL0     H76255   8.154   2.442   4.879  1.3501 -0.0962 -0.7886
  565MOL0     H76256   8.124   2.629   5.044 -1.6652 -0.6101 -1.1295
  565MOL0     H76257   8.411   2.966   5.264 -0.7422  0.3550 -0.3528
  565MOL0     H76258   8.440   3.149   5.407  1.4430  1.4633  0.0028
  565MOL0     H76259   9.595   3.498   6.524 -0.2556 -0.1068 -0.3764
  565MOL0     H76260   9.728   3.618   6.701  3.7550 -0.8252  0.4984
  565MOL0     H76261  10.083   3.710   6.832 -1.9424 -1.1664 -0.0767
  565MOL0     H76262  10.208   3.889   6.917 -2.9696  1.0218 -2.6407
  565MOL0     H76263  10.261   4.172   7.146 -1.9351  0.9799 -1.2280
  565MOL0     H76264  10.235   4.095   7.009 -2.1736 -1.1084 -0.5998
  565MOL0     H76265  10.472   4.085   7.060  1.9723 -1.2428  0.8406
  565MOL0     H76266  10.425   3.914   7.070  1.4942 -0.4631  1.6838
  565MOL0     H76267  10.373   3.946   7.313 -2.1045  1.9717 -1.2779
  565MOL0     H76268  10.450   4.097   7.303 -2.4029  0.4569 -2.2909
  565MOL0     H76269  10.603   3.822   7.239  3.7650  0.4008  1.4751
  565MOL0     H76270  10.675   3.986   7.242  2.1810  0.4082  3.2021
  565MOL0     H76271  10.704   3.840   7.631 -2.9210  1.6767  1.9161
  565MOL0     H76272   9.991   3.828   7.297 -0.7037 -3.5136  1.6747
  565MOL0     H76273   9.786   3.560   7.212 -1.9513  0.2899 -0.9032
  565MOL0     H76274   9.802   3.680   7.328 -2.9904 -2.1744  0.1156
  565MOL0     H76275   9.695   3.693   7.188 -0.0329  3.9951  1.1628
  566MOL0     O76276   6.432   0.103   5.025  0.4966 -0.8163 -0.6412
  566MOL0     C76277   6.502   0.134   4.931 -0.9982  0.3063 -0.3916
  566MOL0     O76278   6.497   0.070   4.816  1.0632 -0.8699 -0.5761
  566MOL0     C76279   6.463  -0.065   4.819  0.9312  0.3708 -0.7508
  566MOL0     C76280   6.556  -0.173   4.842  0.0963  0.7953 -0.0299
  566MOL0     C76281   6.504  -0.307   4.838  1.0938 -0.1995 -0.7435
  566MOL0     C76282   6.376  -0.337   4.796 -0.0083  0.2765 -0.8286
  566MOL0     O76283   6.332  -0.466   4.773 -0.1886  0.2324 -0.1418
  566MOL0     C76284   6.220  -0.507   4.849 -1.0803  0.1295  0.3507
  566MOL0     C76285   6.211  -0.656   4.871 -0.6838 -0.1110  0.0962
  566MOL0     C76286   6.103  -0.684   4.970 -0.1096 -0.2243 -0.5448
  566MOL0     C76287   6.089  -0.840   4.995  0.8502  0.3016  0.2128
  566MOL0     C76288   5.952  -0.875   5.056 -0.3859  1.2096  0.1304
  566MOL0     C76289   5.840  -0.882   4.959  0.5432 -0.1717  0.0434
  566MOL0     C76290   5.707  -0.925   5.032 -0.5185 -0.2321  0.6823
  566MOL0     C76291   5.657  -0.804   5.120 -0.1544  0.4513 -0.2673
  566MOL0     N76292   5.533  -0.832   5.195  0.9215 -0.5079  0.5666
  566MOL0     C76293   5.519  -0.842   5.333 -0.4235 -0.4150 -0.2465
  566MOL0     C76294   5.386  -0.826   5.364 -0.1907 -0.4391  0.4959
  566MOL0     C76295   5.314  -0.843   5.493 -0.2702  0.8959  0.1281
  566MOL0     C76296   5.247  -0.726   5.554 -0.3521 -0.9927 -0.3060
  566MOL0     C76297   5.126  -0.697   5.477 -0.6699  0.4662  0.0837
  566MOL0     C76298   5.041  -0.580   5.527 -0.8384  0.3316  0.0128
  566MOL0     O76299   4.966  -0.615   5.652  0.5109 -0.5773  0.3592
  566MOL0     C76300   4.836  -0.667   5.636  0.4647  0.7865  0.6552
  566MOL0     C76301   4.741  -0.676   5.740 -0.5577 -0.0705  0.9134
  566MOL0     C76302   4.610  -0.704   5.728  0.6805 -0.1504 -0.3304
  566MOL0     C76303   4.560  -0.715   5.596  0.1598 -1.5150 -1.1288
  566MOL0     C76304   4.415  -0.738   5.579  0.9488 -0.0541  0.3993
  566MOL0     O76305   4.333  -0.728   5.683 -0.0022 -0.2113 -0.3164
  566MOL0     C76306   4.200  -0.767   5.672 -0.4090  0.7098  0.0296
  566MOL0     C76307   4.156  -0.892   5.616  0.4639 -0.0727 -0.4962
  566MOL0     C76308   4.024  -0.935   5.625  0.2265 -0.5798 -0.3338
  566MOL0     C76309   3.935  -0.866   5.692 -0.3994 -0.8431 -0.0038
  566MOL0     O76310   3.808  -0.894   5.681 -0.1276 -0.0276  0.4161
  566MOL0     C76311   3.768  -0.957   5.800  0.3560 -0.1917 -0.0688
  566MOL0     C76312   3.618  -0.982   5.815 -0.1898 -0.2648 -0.0714
  566MOL0     C76313   3.544  -1.022   5.695 -0.6527 -0.5732  0.4365
  566MOL0     C76314   3.614  -1.144   5.624  0.4675 -0.1256 -0.3434
  566MOL0     C76315   3.551  -1.169   5.488  0.4279  0.4861 -0.1350
  566MOL0     C76316   3.588  -1.307   5.426  0.1210 -0.3196  0.3662
  566MOL0     C76317   3.550  -1.322   5.281 -0.4369  0.2703  1.1615
  566MOL0     C76318   3.401  -1.352   5.263  0.0719  0.1150  0.2976
  566MOL0    Cl76319   3.391  -1.456   5.118 -0.0037 -0.1601  0.4285
  566MOL0     C76320   3.971  -0.736   5.742  0.4149  0.8841 -0.4750
  566MOL0     C76321   4.107  -0.689   5.750  0.0904  0.0340 -0.1547
  566MOL0     O76322   4.379  -0.759   5.463  0.0277 -0.3740 -0.0827
  566MOL0     C76323   4.647  -0.722   5.492 -0.0990 -0.0138 -0.5562
  566MOL0     C76324   4.782  -0.704   5.511  0.6503  0.0857 -0.2343
  566MOL0     N76325   5.321  -0.800   5.244 -0.0407  0.4501  0.1104
  566MOL0     N76326   5.407  -0.800   5.148 -0.1659 -0.3695 -0.0294
  566MOL0     C76327   6.293  -0.233   4.769 -0.0617 -0.5272 -0.2510
  566MOL0     C76328   6.336  -0.101   4.775  0.0550  0.5923  0.1147
  566MOL0     C76329   6.607   0.229   4.943  0.0455  0.2114  1.0524
  566MOL0     C76330   6.724   0.204   4.878 -0.9659 -0.2259 -0.1507
  566MOL0     C76331   6.833   0.290   4.891  0.2086 -0.5849  0.9429
  566MOL0     C76332   6.827   0.401   4.971 -0.2771 -0.7291  0.1815
  566MOL0     O76333   6.944   0.475   4.989 -0.4311 -0.0352 -0.4083
  566MOL0     C76334   6.939   0.588   5.079 -0.2343  0.2646 -0.3004
  566MOL0     C76335   7.055   0.684   5.045  0.0496  0.4258  0.6071
  566MOL0     C76336   7.184   0.603   5.043 -0.8201 -0.0161  0.5152
  566MOL0     C76337   7.297   0.684   5.102  0.0060  0.4118  1.0995
  566MOL0     C76338   7.324   0.799   5.019 -0.2384  0.2102 -0.5559
  566MOL0     C76339   7.349   0.891   4.940 -0.3502  0.3198  0.1782
  566MOL0     C76340   6.708   0.420   5.028  0.3527  0.1945 -0.6666
  566MOL0     C76341   6.599   0.344   5.019  0.4249 -0.4065 -0.0255
  566MOL0     C76342   6.478   0.401   5.077 -0.3308 -0.6351 -0.2982
  566MOL0     H76343   6.659  -0.157   4.869  1.1084  2.1495 -4.0611
  566MOL0     H76344   6.563  -0.389   4.878 -0.9172 -1.3622 -0.0249
  566MOL0     H76345   6.218  -0.448   4.941  0.0486  1.9894 -0.7517
  566MOL0     H76346   6.139  -0.470   4.786 -1.2844 -1.2960 -0.2516
  566MOL0     H76347   6.305  -0.684   4.919 -0.7933  0.5444  0.7118
  566MOL0     H76348   6.213  -0.699   4.770  2.4956  1.3400 -0.6183
  566MOL0     H76349   6.009  -0.639   4.938  0.5895  1.7241  0.0447
  566MOL0     H76350   6.140  -0.644   5.064  0.6617  1.8583 -1.6646
  566MOL0     H76351   6.086  -0.889   4.898 -0.0250  1.6544 -0.4822
  566MOL0     H76352   6.171  -0.883   5.054  1.4250 -0.1383 -0.8856
  566MOL0     H76353   5.962  -0.976   5.097  2.2147  0.8187 -1.2829
  566MOL0     H76354   5.930  -0.803   5.136 -1.0945  0.8839  0.2391
  566MOL0     H76355   5.819  -0.789   4.907  0.2960  0.2179  0.8227
  566MOL0     H76356   5.865  -0.952   4.879 -0.4141 -2.1367  1.3709
  566MOL0     H76357   5.718  -1.020   5.085 -1.7559 -0.0225  1.3363
  566MOL0     H76358   5.633  -0.939   4.952  0.5499  0.0918 -0.3965
  566MOL0     H76359   5.732  -0.775   5.194 -0.8218  0.3048  0.4800
  566MOL0     H76360   5.654  -0.716   5.056  3.1912  0.1500 -1.0319
  566MOL0     H76361   5.601  -0.860   5.402  2.1446  2.2606 -2.3588
  566MOL0     H76362   5.236  -0.919   5.483  0.1539  0.1350  2.1576
  566MOL0     H76363   5.383  -0.889   5.565  0.6880  0.5091 -0.9968
  566MOL0     H76364   5.216  -0.755   5.654  1.2075 -4.6450 -0.6969
  566MOL0     H76365   5.312  -0.638   5.560 -1.4313 -0.2909  2.5245
  566MOL0     H76366   5.068  -0.789   5.466  0.8215 -0.3297 -1.4093
  566MOL0     H76367   5.153  -0.677   5.373  1.8746 -1.8435  0.2042
  566MOL0     H76368   4.972  -0.544   5.451 -2.4419  0.4935  1.4660
  566MOL0     H76369   5.109  -0.497   5.551  1.0817 -1.1009 -0.2273
  566MOL0     H76370   4.779  -0.638   5.835 -3.1705  3.1849  0.8099
  566MOL0     H76371   4.551  -0.709   5.819  1.6460 -0.5063  0.2795
  566MOL0     H76372   4.229  -0.960   5.573 -0.0988 -3.0866  2.8097
  566MOL0     H76373   3.989  -1.017   5.564 -1.9088  0.6501 -0.8845
  566MOL0     H76374   3.820  -1.051   5.823 -1.2493 -0.9916  0.4424
  566MOL0     H76375   3.790  -0.893   5.886 -0.3664  1.8615 -1.3525
  566MOL0     H76376   3.601  -1.038   5.908 -0.0654 -0.4001 -0.1290
  566MOL0     H76377   3.567  -0.887   5.834 -0.1423  0.3289 -2.5792
  566MOL0     H76378   3.441  -1.051   5.718 -0.3310 -1.6338  0.6275
  566MOL0     H76379   3.552  -0.944   5.619 -1.8562 -0.9588 -0.1096
  566MOL0     H76380   3.617  -1.236   5.683  2.2998  0.3555  0.3705
  566MOL0     H76381   3.715  -1.131   5.584 -0.4142 -0.3896 -2.8737
  566MOL0     H76382   3.566  -1.089   5.416 -0.8912  2.1907  1.3669
  566MOL0     H76383   3.442  -1.169   5.500  0.2621  2.0790 -1.3119
  566MOL0     H76384   3.697  -1.307   5.440  0.5809 -1.3145 -2.5704
  566MOL0     H76385   3.553  -1.386   5.492 -4.4761 -1.4441 -2.9538
  566MOL0     H76386   3.621  -1.396   5.243 -0.2244  0.4405  1.2208
  566MOL0     H76387   3.583  -1.231   5.230 -2.2614 -0.1357 -0.8385
  566MOL0     H76388   3.376  -1.406   5.354  1.0312 -0.0872  0.4574
  566MOL0     H76389   3.334  -1.267   5.252 -0.6731 -0.6651 -1.6516
  566MOL0     H76390   3.890  -0.680   5.787  0.6579  0.6900  0.2207
  566MOL0     H76391   4.128  -0.589   5.786  1.4556 -0.6305  1.0128
  566MOL0     H76392   4.623  -0.737   5.387 -0.4412 -0.2717 -0.4431
  566MOL0     H76393   4.846  -0.700   5.423  2.1484 -0.0745  0.8240
  566MOL0     H76394   6.192  -0.249   4.732 -0.8738  0.8811  1.2399
  566MOL0     H76395   6.260  -0.029   4.747 -2.0235 -1.0683  1.2086
  566MOL0     H76396   6.731   0.111   4.822  0.2739 -0.1641 -0.1101
  566MOL0     H76397   6.926   0.285   4.834 -0.1989 -1.0753  0.3061
  566MOL0     H76398   6.948   0.551   5.181 -0.6892 -2.6368 -1.2313
  566MOL0     H76399   6.840   0.632   5.062 -0.6699 -0.5721  0.0421
  566MOL0     H76400   7.072   0.757   5.125  0.5622  0.9315  0.0484
  566MOL0     H76401   7.045   0.730   4.946  0.7167 -2.2965 -0.8211
  566MOL0     H76402   7.208   0.585   4.937 -0.7594  0.6366  0.4189
  566MOL0     H76403   7.169   0.507   5.094 -5.1626  0.0586 -0.2532
  566MOL0     H76404   7.282   0.698   5.210  3.8637  1.8658  1.6086
  566MOL0     H76405   7.391   0.628   5.099  1.6386  2.9957  0.7483
  566MOL0     H76406   7.371   0.979   4.883 -0.8264  0.1843 -0.2260
  566MOL0     H76407   6.700   0.498   5.103  0.7860 -0.6417  0.2672
  566MOL0     H76408   6.495   0.454   5.171 -2.4085  1.3471 -0.9440
  566MOL0     H76409   6.457   0.479   5.003  0.2035 -0.0747  0.1312
  566MOL0     H76410   6.392   0.334   5.083 -0.9811  0.2173  0.1002
  567MOL0     O76411  10.487   0.728   6.167  0.9738  0.2366  0.3019
  567MOL0     C76412  10.385   0.668   6.141  0.7225 -0.2205 -0.5563
  567MOL0     O76413  10.252   0.682   6.201  0.0307  0.0204 -0.2395
  567MOL0     C76414  10.220   0.784   6.293  0.4487  0.3659  0.2871
  567MOL0     C76415  10.303   0.896   6.307  0.8220 -0.0094  0.0144
  567MOL0     C76416  10.272   0.985   6.402 -0.3228 -0.2977  0.4970
  567MOL0     C76417  10.158   0.973   6.489  0.2392 -0.5926  1.3194
  567MOL0     O76418  10.125   1.051   6.597  1.0376  0.3823  1.0375
  567MOL0     C76419  10.158   1.184   6.586 -0.7774 -0.6512  0.2058
  567MOL0     C76420  10.064   1.260   6.680  0.3676 -0.8866  0.7952
  567MOL0     C76421   9.931   1.309   6.606  0.2813 -0.5379  0.1138
  567MOL0     C76422   9.847   1.391   6.710 -0.1269  0.1976  0.0911
  567MOL0     C76423   9.699   1.410   6.664 -0.2654  0.5408 -0.7927
  567MOL0     C76424   9.622   1.490   6.767  0.2867 -0.4584  0.4382
  567MOL0     C76425   9.614   1.435   6.910  0.2040  0.1376 -0.8310
  567MOL0     C76426   9.523   1.520   6.995  0.7429  0.1251  0.2310
  567MOL0     N76427   9.384   1.523   6.952 -0.3752  0.1155 -0.1486
  567MOL0     C76428   9.300   1.417   6.940 -0.8457  0.4968 -0.8124
  567MOL0     C76429   9.205   1.456   6.844 -0.7472 -0.1224  0.3435
  567MOL0     C76430   9.095   1.369   6.787  0.2245  0.4606 -0.0263
  567MOL0     C76431   9.104   1.333   6.632 -0.8994 -0.2243 -0.3254
  567MOL0     C76432   9.239   1.261   6.602  0.3328 -0.0129  0.2345
  567MOL0     C76433   9.256   1.198   6.463  0.1289 -0.3489  0.4431
  567MOL0     O76434   9.393   1.158   6.429  0.6432 -0.2676 -0.7743
  567MOL0     C76435   9.447   1.217   6.323 -0.5005 -0.0035  0.3166
  567MOL0     C76436   9.449   1.359   6.295  0.2685  0.3753 -0.0036
  567MOL0     C76437   9.496   1.396   6.171 -0.4821 -0.1893  0.1192
  567MOL0     C76438   9.543   1.315   6.075  0.4626  0.7395  0.5389
  567MOL0     C76439   9.581   1.364   5.934 -0.2242 -0.8314 -0.0895
  567MOL0     O76440   9.596   1.502   5.926 -0.7602 -0.3369 -0.0525
  567MOL0     C76441   9.632   1.546   5.804  0.4201 -0.7549 -0.0388
  567MOL0     C76442   9.728   1.494   5.709  0.0449  0.6709 -0.1251
  567MOL0     C76443   9.773   1.574   5.606 -0.8931  0.0209 -0.1223
  567MOL0     C76444   9.704   1.697   5.570  0.1331 -0.1163  0.9969
  567MOL0     O76445   9.739   1.752   5.447 -0.5749 -0.5244 -0.0232
  567MOL0     C76446   9.625   1.795   5.363  0.2380 -0.6282  0.6906
  567MOL0     C76447   9.598   1.704   5.232  0.4839 -0.7690  0.4541
  567MOL0     C76448   9.557   1.561   5.262  0.3461  0.2015  0.1005
  567MOL0     C76449   9.428   1.543   5.348  0.9630  0.1416  0.4972
  567MOL0     C76450   9.374   1.400   5.348  0.2721 -0.2981  1.6323
  567MOL0     C76451   9.495   1.308   5.376  1.0358  0.0315 -1.2458
  567MOL0     C76452   9.451   1.161   5.407  0.8196 -0.6942  1.2601
  567MOL0     C76453   9.561   1.057   5.386 -0.2485 -0.2099 -0.1529
  567MOL0    Cl76454   9.572   1.042   5.209 -0.2198  0.2176 -0.1277
  567MOL0     C76455   9.600   1.744   5.656  0.1121  0.5923  0.2010
  567MOL0     C76456   9.572   1.666   5.772  1.1034 -0.8422  0.0351
  567MOL0     O76457   9.586   1.282   5.842 -0.5799 -0.8241 -0.3156
  567MOL0     C76458   9.544   1.177   6.105 -0.4543 -0.9818 -0.5924
  567MOL0     C76459   9.510   1.131   6.234 -0.2940 -0.1258 -0.6585
  567MOL0     N76460   9.222   1.592   6.820  0.1188 -0.1879 -0.0948
  567MOL0     N76461   9.329   1.626   6.884 -0.8906 -0.1705  0.4267
  567MOL0     C76462  10.082   0.858   6.477  0.1617 -0.2980  0.6546
  567MOL0     C76463  10.119   0.763   6.380 -0.0894  0.0805 -0.2297
  567MOL0     C76464  10.415   0.558   6.053 -0.1688  0.0221  0.1609
  567MOL0     C76465  10.508   0.463   6.097 -0.0819 -0.1679 -0.2957
  567MOL0     C76466  10.543   0.361   5.997  0.3992 -0.1111 -0.0061
  567MOL0     C76467  10.497   0.363   5.866  0.3290 -0.0974 -0.7296
  567MOL0     O76468  10.534   0.279   5.762  0.1292 -0.1929 -0.5580
  567MOL0     C76469  10.626   0.338   5.664 -0.8193  0.3383 -0.1719
  567MOL0     C76470  10.534   0.382   5.538 -0.6962 -0.2851 -0.3297
  567MOL0     C76471  10.428   0.288   5.482  0.4708 -0.6764 -0.5124
  567MOL0     C76472  10.319   0.366   5.420  0.6238 -0.6099  0.1868
  567MOL0     C76473  10.355   0.426   5.291 -1.2791 -0.0611 -0.6415
  567MOL0     C76474  10.376   0.483   5.185  0.9779 -1.1428  0.0425
  567MOL0     C76475  10.398   0.452   5.837  0.1044  1.0639 -0.7401
  567MOL0     C76476  10.356   0.546   5.933  0.9842  0.2028  0.2494
  567MOL0     C76477  10.257   0.649   5.883  0.1920 -0.6218  0.2284
  567MOL0     H76478  10.383   0.918   6.237  0.2930 -2.0739 -1.3045
  567MOL0     H76479  10.339   1.069   6.417  0.1265 -1.0128  3.0523
  567MOL0     H76480  10.256   1.207   6.628 -0.9090  1.8043 -0.6510
  567MOL0     H76481  10.151   1.212   6.481 -1.0125  1.1309  0.6687
  567MOL0     H76482  10.130   1.344   6.704 -2.1540  1.1305  1.1811
  567MOL0     H76483  10.034   1.209   6.772 -3.8514  0.6969  0.5048
  567MOL0     H76484   9.873   1.227   6.563 -0.6720 -0.0695  0.4746
  567MOL0     H76485   9.956   1.375   6.522 -0.9166 -0.1809  0.0116
  567MOL0     H76486   9.864   1.330   6.799 -1.2335 -2.8667 -1.6509
  567MOL0     H76487   9.890   1.491   6.721 -0.4610  0.3010  0.4502
  567MOL0     H76488   9.686   1.473   6.576 -1.6407 -1.4813 -2.1038
  567MOL0     H76489   9.663   1.314   6.627 -0.9609  1.0155 -1.3699
  567MOL0     H76490   9.654   1.594   6.783 -1.4887 -0.0558  1.5814
  567MOL0     H76491   9.521   1.498   6.726  0.0364 -0.9453  0.9565
  567MOL0     H76492   9.717   1.437   6.949 -0.6663 -1.3949  1.7844
  567MOL0     H76493   9.592   1.329   6.926  0.2708  0.4474  1.7587
  567MOL0     H76494   9.526   1.485   7.099  0.7899  4.8063  2.0271
  567MOL0     H76495   9.558   1.623   7.006  1.0048 -0.0763  1.4203
  567MOL0     H76496   9.320   1.317   6.976  1.1942  1.4021  0.7205
  567MOL0     H76497   9.082   1.277   6.846 -0.0608 -0.6833 -1.7855
  567MOL0     H76498   9.009   1.432   6.807  0.5175  0.6319  0.7253
  567MOL0     H76499   9.018   1.267   6.615 -0.0267 -1.7139  0.8381
  567MOL0     H76500   9.102   1.419   6.564  0.7256  0.3480  0.3212
  567MOL0     H76501   9.251   1.184   6.679 -1.8523 -0.0710  0.5587
  567MOL0     H76502   9.315   1.338   6.614  0.9988 -0.5961 -0.0928
  567MOL0     H76503   9.197   1.254   6.389  0.3536  1.3433  1.4790
  567MOL0     H76504   9.200   1.105   6.473  0.7536 -1.2818 -3.2477
  567MOL0     H76505   9.398   1.424   6.365 -1.0639  0.3201 -0.8868
  567MOL0     H76506   9.500   1.502   6.147  0.3319  0.0894  1.3767
  567MOL0     H76507   9.764   1.393   5.719 -1.8171  0.0893  1.4832
  567MOL0     H76508   9.857   1.534   5.550 -0.5569  0.4961  0.0415
  567MOL0     H76509   9.535   1.808   5.423  0.9596 -0.0589  1.6951
  567MOL0     H76510   9.655   1.888   5.314  0.2889 -0.6282  0.7221
  567MOL0     H76511   9.522   1.755   5.172  1.0897 -0.6692 -0.2457
  567MOL0     H76512   9.686   1.709   5.166  0.2914  1.0161  0.2776
  567MOL0     H76513   9.535   1.509   5.169  0.5733  0.0992  0.1013
  567MOL0     H76514   9.644   1.507   5.303 -1.7682 -2.3009  1.6109
  567MOL0     H76515   9.356   1.619   5.315 -0.6448 -1.7052 -0.4959
  567MOL0     H76516   9.438   1.578   5.451  0.1734 -1.6913  1.2363
  567MOL0     H76517   9.333   1.370   5.251 -2.0028 -0.5917  2.6344
  567MOL0     H76518   9.298   1.371   5.421 -1.1323 -0.5896  0.1214
  567MOL0     H76519   9.564   1.295   5.293  3.2629 -1.7045  0.7267
  567MOL0     H76520   9.543   1.349   5.466 -2.1119  1.0274  0.1166
  567MOL0     H76521   9.370   1.140   5.337 -0.8029 -1.4344  3.2459
  567MOL0     H76522   9.416   1.151   5.510 -0.9660  0.7790  0.8453
  567MOL0     H76523   9.656   1.086   5.432 -0.6021 -0.6585  0.8837
  567MOL0     H76524   9.540   0.961   5.433 -0.4677 -0.0969 -0.0218
  567MOL0     H76525   9.565   1.843   5.626  0.5424  0.4744 -0.7246
  567MOL0     H76526   9.501   1.719   5.834 -0.0453  0.3020 -2.1490
  567MOL0     H76527   9.574   1.101   6.034 -1.1791 -1.8056 -0.0372
  567MOL0     H76528   9.511   1.024   6.254 -1.9363  0.0658  0.6060
  567MOL0     H76529   9.992   0.855   6.538 -0.1516 -2.8510  0.1473
  567MOL0     H76530  10.062   0.673   6.362 -0.7125  0.5571 -0.7048
  567MOL0     H76531  10.559   0.448   6.192 -0.5825 -0.3615 -0.0543
  567MOL0     H76532  10.622   0.289   6.018  0.5177  0.1884  0.6170
  567MOL0     H76533  10.703   0.264   5.641 -0.2597  0.4233  1.3355
  567MOL0     H76534  10.686   0.415   5.714 -1.4946  1.2572 -0.7487
  567MOL0     H76535  10.605   0.404   5.458  0.0297 -0.1834  0.3348
  567MOL0     H76536  10.493   0.476   5.575  2.9086  0.4277  2.4634
  567MOL0     H76537  10.382   0.251   5.574 -0.2752 -1.1433 -1.0596
  567MOL0     H76538  10.461   0.210   5.413 -2.6692 -2.9273  0.2969
  567MOL0     H76539  10.228   0.310   5.395 -1.3065  2.0666  0.7638
  567MOL0     H76540  10.282   0.440   5.491  0.5207  3.1279 -3.4124
  567MOL0     H76541  10.399   0.542   5.099  0.3486  2.9381  2.4408
  567MOL0     H76542  10.353   0.456   5.739  0.3670 -0.0573 -0.9187
  567MOL0     H76543  10.285   0.682   5.783 -0.2472  2.3602  0.9691
  567MOL0     H76544  10.157   0.605   5.883 -0.2830  0.3989  1.1293
  567MOL0     H76545  10.250   0.749   5.927 -0.8225 -0.2897 -0.6444
  568MOL0     O76546  11.056   0.926   0.475 -0.3654  0.4661 -1.0411
  568MOL0     C76547  11.148   0.931   0.388 -0.6951 -0.5784  0.5330
  568MOL0     O76548  11.150   0.854   0.279 -0.0565  0.0299  0.2224
  568MOL0     C76549  11.031   0.795   0.249  0.3107 -0.4321  0.7670
  568MOL0     C76550  10.931   0.862   0.186 -0.1343 -0.1356 -0.6251
  568MOL0     C76551  10.804   0.812   0.164 -0.2028 -0.1477  0.3035
  568MOL0     C76552  10.784   0.682   0.195 -0.0386  0.7032  0.0403
  568MOL0     O76553  10.669   0.617   0.185  0.7300  0.9894 -0.2542
  568MOL0     C76554  10.575   0.688   0.094 -0.3684  0.3651  0.3101
  568MOL0     C76555  10.481   0.588   0.026 -0.7591  0.7074 -0.3595
  568MOL0     C76556  10.548   0.522  -0.089 -0.5868  0.2628 -0.4823
  568MOL0     C76557  10.646   0.413  -0.032 -0.8644 -0.5925  0.1284
  568MOL0     C76558  10.719   0.349  -0.150 -0.0410  0.1531 -0.9278
  568MOL0     C76559  10.820   0.248  -0.110  0.2649  0.0387  0.8053
  568MOL0     C76560  10.957   0.297  -0.080 -0.4919 -0.4749 -0.6228
  568MOL0     C76561  11.044   0.337  -0.201 -0.1185  0.0987 -0.0291
  568MOL0     N76562  11.188   0.343  -0.149 -0.3899  0.0183 -1.0778
  568MOL0     C76563  11.246   0.462  -0.106  0.2735  0.5791  0.1994
  568MOL0     C76564  11.368   0.425  -0.069 -0.6813 -0.2121 -0.2469
  568MOL0     C76565  11.466   0.523   0.000  1.3598  0.2306  0.5157
  568MOL0     C76566  11.484   0.507   0.153 -0.0819 -0.7263  0.4933
  568MOL0     C76567  11.351   0.482   0.214 -0.0917 -0.7577  0.3161
  568MOL0     C76568  11.298   0.335   0.233 -0.6468 -0.1104  0.1358
  568MOL0     O76569  11.163   0.323   0.212  0.6709 -0.5483  0.4257
  568MOL0     C76570  11.108   0.206   0.246 -0.2478  0.1625  0.0463
  568MOL0     C76571  11.170   0.097   0.314 -0.8108 -0.3289 -0.1952
  568MOL0     C76572  11.097  -0.013   0.356  0.5730 -0.0008 -0.4608
  568MOL0     C76573  10.954  -0.006   0.338 -0.3461 -0.0598 -0.1158
  568MOL0     C76574  10.859  -0.094   0.403 -1.0544 -0.0334  0.4094
  568MOL0     O76575  10.885  -0.228   0.401  0.1645 -0.1363  0.5095
  568MOL0     C76576  10.817  -0.316   0.492 -0.5847  0.0917 -0.4725
  568MOL0     C76577  10.819  -0.455   0.475 -0.1840 -0.5718 -0.1516
  568MOL0     C76578  10.765  -0.548   0.568 -0.0931  0.2490 -0.1859
  568MOL0     C76579  10.709  -0.503   0.686 -1.3630 -0.2123 -0.8096
  568MOL0     O76580  10.646  -0.581   0.782  0.2424  0.2174 -0.2648
  568MOL0     C76581  10.560  -0.683   0.725 -1.0669  0.1215  0.0688
  568MOL0     C76582  10.453  -0.718   0.829 -0.9751 -0.5297  0.3046
  568MOL0     C76583  10.512  -0.799   0.951  1.0374 -0.8465 -0.4196
  568MOL0     C76584  10.410  -0.804   1.067  0.2864 -0.8100 -0.0535
  568MOL0     C76585  10.475  -0.894   1.169  0.2590  0.1098 -0.7945
  568MOL0     C76586  10.419  -0.852   1.308 -0.3546 -0.4267  0.8588
  568MOL0     C76587  10.278  -0.914   1.333 -0.4842  0.2737  0.7879
  568MOL0     C76588  10.220  -0.846   1.465 -0.3003 -0.0478 -1.2460
  568MOL0    Cl76589  10.200  -0.660   1.437 -0.0854 -0.1423  0.7178
  568MOL0     C76590  10.718  -0.368   0.709  0.1198 -0.1746 -0.1530
  568MOL0     C76591  10.778  -0.276   0.618  0.8957  0.6915  0.6101
  568MOL0     O76592  10.769  -0.034   0.457 -0.1427 -0.1407  0.6099
  568MOL0     C76593  10.898   0.101   0.271 -0.1360 -0.0610  0.3016
  568MOL0     C76594  10.972   0.205   0.232  0.1453 -0.0170  0.5262
  568MOL0     N76595  11.393   0.288  -0.087  0.2547 -0.1076 -0.1676
  568MOL0     N76596  11.285   0.245  -0.148  0.1104 -0.5474 -0.7003
  568MOL0     C76597  10.884   0.609   0.263 -0.3640  0.6344 -0.4365
  568MOL0     C76598  11.012   0.660   0.281 -0.2051  0.7911 -0.6418
  568MOL0     C76599  11.252   1.028   0.419 -0.1207  0.8245  0.0324
  568MOL0     C76600  11.221   1.129   0.505  0.7132 -0.6728 -0.4830
  568MOL0     C76601  11.316   1.231   0.531 -0.4328 -0.4987  0.3001
  568MOL0     C76602  11.428   1.250   0.457  0.0224  0.2928  0.2630
  568MOL0     O76603  11.526   1.343   0.492 -1.0696  0.5084 -0.0435
  568MOL0     C76604  11.566   1.431   0.384 -0.1553 -0.2194  0.4434
  568MOL0     C76605  11.712   1.430   0.352  0.0339  0.7028 -1.0439
  568MOL0     C76606  11.759   1.533   0.247 -0.4835 -0.5309 -0.3803
  568MOL0     C76607  11.912   1.553   0.229  0.5098  0.7819 -0.0059
  568MOL0     C76608  11.980   1.430   0.211 -0.5454 -0.5244  0.2706
  568MOL0     C76609  12.044   1.330   0.205  0.8611  1.1494  0.4961
  568MOL0     C76610  11.453   1.159   0.358 -0.9959 -0.1889  0.6080
  568MOL0     C76611  11.370   1.045   0.337  0.3500 -0.2975 -0.3049
  568MOL0     C76612  11.388   0.981   0.205  0.3892  0.3092  0.3272
  568MOL0     H76613  10.943   0.968   0.167  0.1386 -0.0234  0.1669
  568MOL0     H76614  10.727   0.884   0.139 -0.1497 -0.5979 -1.2242
  568MOL0     H76615  10.523   0.750   0.168  0.9760  1.7539  0.1497
  568MOL0     H76616  10.625   0.746   0.016  0.0794 -2.2822 -1.4828
  568MOL0     H76617  10.390   0.639  -0.007 -2.4217 -0.8340  1.6407
  568MOL0     H76618  10.455   0.512   0.099 -0.2503 -1.3232 -2.2021
  568MOL0     H76619  10.594   0.595  -0.156 -1.4266  0.6836 -0.6105
  568MOL0     H76620  10.462   0.471  -0.133 -0.1438  0.3036 -1.4164
  568MOL0     H76621  10.725   0.450   0.034  0.9276 -3.9855  0.1387
  568MOL0     H76622  10.591   0.340   0.027  2.1868 -2.1218  1.2872
  568MOL0     H76623  10.650   0.297  -0.218 -1.0697  0.5286 -0.2006
  568MOL0     H76624  10.769   0.428  -0.207  0.6655  0.1198 -0.3532
  568MOL0     H76625  10.779   0.200  -0.020 -1.9164  2.8305  1.4509
  568MOL0     H76626  10.821   0.171  -0.188 -0.0603 -0.3906  1.2121
  568MOL0     H76627  11.011   0.215  -0.030  2.0410  1.8524  0.7307
  568MOL0     H76628  10.969   0.374  -0.003  6.8933 -1.3925 -0.1107
  568MOL0     H76629  11.036   0.258  -0.276  3.5857  1.0868 -1.7061
  568MOL0     H76630  11.025   0.438  -0.241  4.4413  1.8148  1.5073
  568MOL0     H76631  11.211   0.564  -0.093 -0.6298  0.8603 -3.3478
  568MOL0     H76632  11.566   0.521  -0.043  1.5215 -2.2156  0.8556
  568MOL0     H76633  11.416   0.618  -0.019 -2.8726 -1.4091  2.0012
  568MOL0     H76634  11.549   0.421   0.171 -1.3648 -2.9046 -3.7359
  568MOL0     H76635  11.539   0.593   0.192 -0.9329  0.7418 -1.3492
  568MOL0     H76636  11.272   0.518   0.147  0.4733  0.8283  0.4584
  568MOL0     H76637  11.344   0.528   0.313 -2.5763  1.8639 -0.9194
  568MOL0     H76638  11.310   0.306   0.338  2.7361 -2.2186 -0.6945
  568MOL0     H76639  11.352   0.260   0.175  0.3209 -0.5058  1.4750
  568MOL0     H76640  11.278   0.096   0.319 -0.7234  1.4349 -0.8350
  568MOL0     H76641  11.139  -0.094   0.416  0.7307  1.5779  1.6745
  568MOL0     H76642  10.854  -0.490   0.378  0.2767 -1.2284  0.2426
  568MOL0     H76643  10.762  -0.653   0.541 -0.1257  0.6871 -2.0738
  568MOL0     H76644  10.513  -0.669   0.628  2.9646 -1.4411 -2.3453
  568MOL0     H76645  10.624  -0.772   0.726 -1.1200  0.0046 -2.2183
  568MOL0     H76646  10.411  -0.623   0.861  4.8778  1.7869  2.5358
  568MOL0     H76647  10.364  -0.765   0.785 -0.0141 -0.4787 -1.8221
  568MOL0     H76648  10.546  -0.897   0.916 -2.6789 -1.8709 -1.7418
  568MOL0     H76649  10.603  -0.748   0.984 -0.4755  0.7201  1.5949
  568MOL0     H76650  10.318  -0.855   1.035  1.4686 -2.2503 -1.3588
  568MOL0     H76651  10.405  -0.701   1.102  1.1846  0.2015 -2.6403
  568MOL0     H76652  10.583  -0.881   1.183  1.3771 -4.9469 -2.4436
  568MOL0     H76653  10.449  -1.000   1.156 -3.3313  0.6059  1.0609
  568MOL0     H76654  10.494  -0.887   1.380  1.3279  1.0962 -0.0769
  568MOL0     H76655  10.411  -0.743   1.319 -3.2158 -0.3461 -0.9078
  568MOL0     H76656  10.291  -1.022   1.345 -4.2577 -0.2170  2.1238
  568MOL0     H76657  10.211  -0.897   1.248 -0.2628  0.2248  0.6056
  568MOL0     H76658  10.122  -0.883   1.494  0.7038 -2.9746 -1.2750
  568MOL0     H76659  10.283  -0.868   1.552  0.1579 -3.0853 -2.2412
  568MOL0     H76660  10.681  -0.327   0.802 -0.9466  1.9080 -1.4351
  568MOL0     H76661  10.786  -0.176   0.659  2.0564 -0.4506  3.4330
  568MOL0     H76662  10.790   0.112   0.262 -0.1702  0.0125  0.7462
  568MOL0     H76663  10.931   0.298   0.194 -0.8836 -0.1712  1.2100
  568MOL0     H76664  10.866   0.517   0.317 -1.8421  0.7855 -0.6505
  568MOL0     H76665  11.079   0.587   0.327 -2.0386 -2.0228 -2.1204
  568MOL0     H76666  11.124   1.131   0.554 -0.2170 -1.4839 -2.2294
  568MOL0     H76667  11.287   1.316   0.592 -0.6601  0.2840 -0.8608
  568MOL0     H76668  11.565   1.536   0.415  0.3686 -0.3938  1.0601
  568MOL0     H76669  11.508   1.414   0.292  1.8010  1.0994 -1.1315
  568MOL0     H76670  11.729   1.329   0.313 -1.5535  0.5101 -1.2746
  568MOL0     H76671  11.777   1.435   0.440 -0.2461  1.4488 -0.8713
  568MOL0     H76672  11.713   1.625   0.282  1.1749 -0.7870  2.8364
  568MOL0     H76673  11.726   1.507   0.146 -1.9323  0.3917 -0.1577
  568MOL0     H76674  11.920   1.606   0.134 -0.4695 -0.2595 -0.7045
  568MOL0     H76675  11.961   1.619   0.301  0.0994  1.3740 -0.2611
  568MOL0     H76676  12.104   1.242   0.199  0.5606  1.0282 -1.1921
  568MOL0     H76677  11.545   1.162   0.302 -1.0571  0.9476  0.5390
  568MOL0     H76678  11.305   0.992   0.134  0.7802  0.2328 -0.1452
  568MOL0     H76679  11.480   1.013   0.156 -0.1559 -1.4120 -1.9891
  568MOL0     H76680  11.390   0.873   0.225 -1.6658  0.4868  1.8612
  569MOL0     O76681   5.942  11.453   9.627  0.1851  0.0755  0.1716
  569MOL0     C76682   5.828  11.414   9.585 -0.0500  0.2856  0.0851
  569MOL0     O76683   5.812  11.317   9.482  0.5492 -0.7352 -0.0125
  569MOL0     C76684   5.914  11.242   9.442  0.8119  0.0913 -0.2212
  569MOL0     C76685   5.978  11.161   9.539  0.6105 -0.5342  0.7285
  569MOL0     C76686   6.084  11.080   9.503  0.0798  0.7688 -0.1998
  569MOL0     C76687   6.146  11.095   9.373  0.2287 -0.1256 -0.4026
  569MOL0     O76688   6.259  11.020   9.338  0.0531  0.4179  0.0869
  569MOL0     C76689   6.336  10.974   9.456 -0.2975  0.4081  0.0577
  569MOL0     C76690   6.450  10.886   9.394  1.3253  0.3372  0.6285
  569MOL0     C76691   6.551  10.838   9.498  0.3472 -0.1387  0.0616
  569MOL0     C76692   6.502  10.750   9.617  0.2334 -0.1032  0.4313
  569MOL0     C76693   6.411  10.633   9.582 -0.8473 -0.0260 -0.5134
  569MOL0     C76694   6.377  10.533   9.696  0.9363  0.0075 -0.4087
  569MOL0     C76695   6.286  10.592   9.807 -0.1316  0.8124 -1.3106
  569MOL0     C76696   6.281  10.490   9.921  0.0620  0.0275  0.6176
  569MOL0     N76697   6.187  10.538  10.022  0.1165  0.0115  0.1260
  569MOL0     C76698   6.053  10.512  10.013 -0.1529  0.1078 -0.4821
  569MOL0     C76699   6.003  10.569  10.127  0.0703  0.1529 -0.4892
  569MOL0     C76700   5.857  10.579  10.178  0.5266  0.1178  0.1156
  569MOL0     C76701   5.800  10.443  10.241 -0.3137  0.4103 -0.1861
  569MOL0     C76702   5.672  10.475  10.322 -0.2092  0.1137 -0.2227
  569MOL0     C76703   5.592  10.353  10.339 -0.0954 -0.0871  0.1977
  569MOL0     O76704   5.518  10.338  10.459  0.4797 -0.0186 -0.2144
  569MOL0     C76705   5.460  10.443  10.518  1.3348  1.2485 -0.1617
  569MOL0     C76706   5.482  10.458  10.652  0.2296 -0.0351  0.5232
  569MOL0     C76707   5.409  10.558  10.727 -0.3275  0.0133  0.5712
  569MOL0     C76708   5.317  10.635  10.662  0.9484  1.0116 -0.8561
  569MOL0     C76709   5.229  10.737  10.737 -0.6606 -0.0558 -0.7123
  569MOL0     O76710   5.214  10.720  10.878 -0.4844 -0.6829 -0.2071
  569MOL0     C76711   5.182  10.824  10.958  0.7870 -0.1339  0.7678
  569MOL0     C76712   5.118  10.796  11.075  0.8017 -0.1483  0.3814
  569MOL0     C76713   5.102  10.892  11.171  1.3583 -0.1681 -0.5947
  569MOL0     C76714   5.134  11.025  11.147 -1.0151  0.2482  1.4423
  569MOL0     O76715   5.120  11.130  11.240 -0.0832  0.3031 -0.5221
  569MOL0     C76716   5.178  11.109  11.363 -0.5947  0.6697 -0.2030
  569MOL0     C76717   5.069  11.085  11.474 -0.3715  0.8659 -0.1044
  569MOL0     C76718   4.989  11.218  11.504 -0.2075  1.6120 -0.7140
  569MOL0     C76719   4.864  11.198  11.579  0.3659  0.3468 -0.5818
  569MOL0     C76720   4.809  11.336  11.625  0.0077 -0.8964  0.1737
  569MOL0     C76721   4.780  11.455  11.528 -0.4188  0.4540  0.3138
  569MOL0     C76722   4.681  11.419  11.425  0.6547 -0.6181  0.6846
  569MOL0     C76723   4.534  11.410  11.466  0.3682 -0.7813  0.4298
  569MOL0    Cl76724   4.442  11.357  11.326  0.8198 -0.2150 -0.5471
  569MOL0     C76725   5.191  11.051  11.022  0.5060 -0.3701  0.7053
  569MOL0     C76726   5.219  10.956  10.932  0.1262  0.7430  0.4971
  569MOL0     O76727   5.182  10.825  10.670  0.1043  0.1089 -0.5508
  569MOL0     C76728   5.293  10.610  10.520  1.1782  1.0017 -0.0588
  569MOL0     C76729   5.364  10.511  10.452  0.3212 -1.0106  1.1201
  569MOL0     N76730   6.103  10.608  10.205  0.1180 -0.1817 -0.2817
  569MOL0     N76731   6.220  10.592  10.140  0.2099  0.1438  0.4284
  569MOL0     C76732   6.083  11.192   9.285 -0.1106  0.9154 -0.1798
  569MOL0     C76733   5.967  11.252   9.310  0.4797 -0.1287  0.2325
  569MOL0     C76734   5.707  11.480   9.635 -0.0726  1.6483 -0.6798
  569MOL0     C76735   5.587  11.443   9.558  0.0340 -0.5042 -0.3816
  569MOL0     C76736   5.464  11.502   9.586 -0.2837 -0.7492 -0.1364
  569MOL0     C76737   5.448  11.590   9.693 -0.4858 -0.3303  0.7541
  569MOL0     O76738   5.326  11.643   9.725 -0.6706  0.8099  0.0224
  569MOL0     C76739   5.264  11.579   9.830 -0.3912 -0.1141 -0.6049
  569MOL0     C76740   5.152  11.672   9.890 -0.4339 -0.6771  0.5077
  569MOL0     C76741   5.101  11.617  10.031 -0.1595 -0.0344  0.8242
  569MOL0     C76742   4.975  11.693  10.075 -0.0965 -0.6223 -0.8938
  569MOL0     C76743   5.020  11.801  10.162  0.0245  0.2993 -0.1792
  569MOL0     C76744   5.050  11.880  10.242  0.2904  0.2432  0.3607
  569MOL0     C76745   5.566  11.620   9.773  0.9082 -0.6522 -0.8252
  569MOL0     C76746   5.693  11.565   9.749 -0.0261  0.1367 -0.3114
  569MOL0     C76747   5.802  11.602   9.831 -0.3225 -0.0270 -0.8244
  569MOL0     H76748   5.934  11.163   9.638  2.8035  1.4231  1.7601
  569MOL0     H76749   6.115  11.016   9.584 -2.0883 -0.7880 -0.5338
  569MOL0     H76750   6.382  11.058   9.509 -1.3699 -1.2323  3.8920
  569MOL0     H76751   6.285  10.917   9.534  1.3412 -1.9064 -0.4616
  569MOL0     H76752   6.500  10.955   9.326  0.8310 -0.6138 -0.7321
  569MOL0     H76753   6.409  10.805   9.333 -0.0553  2.8697 -2.0300
  569MOL0     H76754   6.592  10.934   9.529 -0.4252 -0.7980  3.4944
  569MOL0     H76755   6.637  10.786   9.454  0.2591 -3.0142  2.9223
  569MOL0     H76756   6.596  10.703   9.649  1.4534  1.2330 -0.9928
  569MOL0     H76757   6.442  10.803   9.692 -1.9235 -1.4257 -0.2803
  569MOL0     H76758   6.317  10.674   9.544  1.4327  0.1587 -7.1228
  569MOL0     H76759   6.459  10.577   9.502  1.2854  2.5652 -1.2058
  569MOL0     H76760   6.305  10.457   9.664 -2.6548  1.3539  3.5454
  569MOL0     H76761   6.463  10.478   9.736 -0.2117 -1.1698  0.5298
  569MOL0     H76762   6.189  10.622   9.765 -1.2129 -3.8755 -2.8572
  569MOL0     H76763   6.330  10.681   9.852 -2.8820  1.4535  0.3741
  569MOL0     H76764   6.243  10.393   9.888 -2.3804  1.0509  0.1944
  569MOL0     H76765   6.374  10.467   9.975  0.8521  1.4465 -0.0848
  569MOL0     H76766   5.994  10.474   9.930  0.6220  1.9769 -1.9711
  569MOL0     H76767   5.845  10.670  10.237  0.4862  2.8414 -3.7230
  569MOL0     H76768   5.795  10.609  10.093 -0.4886  1.1134  1.1748
  569MOL0     H76769   5.785  10.369  10.162 -0.3651 -0.9112  1.0108
  569MOL0     H76770   5.863  10.416  10.326  0.0084  0.1693 -0.4949
  569MOL0     H76771   5.615  10.550  10.266  1.2783  0.6310 -1.0746
  569MOL0     H76772   5.696  10.520  10.419  1.1587  1.9540 -1.3448
  569MOL0     H76773   5.662  10.270  10.330  0.5428  0.3661  0.8213
  569MOL0     H76774   5.523  10.343  10.255  0.4423 -4.8567  0.0233
  569MOL0     H76775   5.555  10.391  10.696  1.1153  1.4209  1.3458
  569MOL0     H76776   5.453  10.582  10.823  1.4579 -0.3601 -0.1127
  569MOL0     H76777   5.102  10.690  11.093  4.2470 -0.3149  3.8079
  569MOL0     H76778   5.058  10.852  11.262  1.2891 -1.1564 -1.0527
  569MOL0     H76779   5.236  11.016  11.364 -0.3798  0.7944 -0.6972
  569MOL0     H76780   5.242  11.193  11.392  0.4723  0.5244 -2.0236
  569MOL0     H76781   4.997  11.014  11.434  1.2568 -0.9512  0.0314
  569MOL0     H76782   5.112  11.045  11.566 -4.3742 -2.5322  0.5402
  569MOL0     H76783   5.056  11.278  11.566 -0.5516 -0.7299  2.1463
  569MOL0     H76784   4.966  11.279  11.416 -1.7302 -0.6428 -1.9760
  569MOL0     H76785   4.882  11.135  11.667 -3.1113  0.7292  0.5844
  569MOL0     H76786   4.780  11.150  11.526 -0.3418  0.5141  0.3557
  569MOL0     H76787   4.874  11.363  11.709  0.7938 -4.0459  0.7188
  569MOL0     H76788   4.717  11.315  11.679  0.0448  3.2111  2.2423
  569MOL0     H76789   4.739  11.531  11.594 -0.8005  0.2630  0.2935
  569MOL0     H76790   4.870  11.480  11.470 -0.8962  0.7225 -0.3173
  569MOL0     H76791   4.708  11.322  11.383  1.1154  0.5574 -1.9398
  569MOL0     H76792   4.681  11.494  11.345  1.8824 -1.1450  0.1764
  569MOL0     H76793   4.532  11.343  11.552  0.9831 -0.6242  0.5694
  569MOL0     H76794   4.491  11.507  11.493  1.2265  0.5032 -2.3681
  569MOL0     H76795   5.216  11.154  10.999  0.0410 -0.6597 -1.3242
  569MOL0     H76796   5.259  10.989  10.837  0.1741  0.0501  0.2723
  569MOL0     H76797   5.215  10.661  10.465  0.3429 -0.3114 -0.1324
  569MOL0     H76798   5.341  10.494  10.347  0.7235  0.7315  0.7186
  569MOL0     H76799   6.121  11.209   9.185 -4.5374  4.1266 -1.6312
  569MOL0     H76800   5.915  11.313   9.237 -1.0836 -0.4978  0.9888
  569MOL0     H76801   5.589  11.389   9.464 -1.1244 -0.2204 -0.5806
  569MOL0     H76802   5.378  11.490   9.521 -1.1600  2.1631  0.3536
  569MOL0     H76803   5.325  11.553   9.917  0.7476  1.1001 -1.0036
  569MOL0     H76804   5.227  11.486   9.784  2.3202 -1.0864 -1.0171
  569MOL0     H76805   5.072  11.663   9.815  1.6878  2.7909 -2.4852
  569MOL0     H76806   5.178  11.778   9.895 -2.1587 -0.1283 -0.9970
  569MOL0     H76807   5.185  11.621  10.101  3.6375  0.6391 -3.3207
  569MOL0     H76808   5.082  11.514   9.999 -0.2622  0.6203 -1.3136
  569MOL0     H76809   4.922  11.733   9.988  3.3493 -0.4383 -3.1121
  569MOL0     H76810   4.897  11.639  10.130 -0.2063  1.3341  0.9963
  569MOL0     H76811   5.089  11.935  10.325  1.7775 -1.2135  0.6735
  569MOL0     H76812   5.543  11.691   9.852 -2.9386 -1.1711 -1.3071
  569MOL0     H76813   5.858  11.681   9.780 -0.1896  0.1985 -0.3364
  569MOL0     H76814   5.754  11.632   9.924 -0.6754 -0.5770 -0.8241
  569MOL0     H76815   5.877  11.524   9.852  1.9420  1.3665 -3.0866
  570MOL0     O76816   6.549   2.201  11.429  0.4350  0.1745  0.1182
  570MOL0     C76817   6.471   2.248  11.514 -1.3523  1.0841 -0.2689
  570MOL0     O76818   6.504   2.341  11.606  0.5535 -0.6555 -0.0491
  570MOL0     C76819   6.636   2.369  11.629  0.0230  0.9437  0.8824
  570MOL0     C76820   6.716   2.446  11.545  0.6024  0.7080 -0.3688
  570MOL0     C76821   6.855   2.462  11.573 -0.2601 -0.3050  1.3254
  570MOL0     C76822   6.902   2.408  11.692 -1.7763  0.1928  0.6468
  570MOL0     O76823   7.029   2.414  11.742 -0.2396  0.6094 -0.0854
  570MOL0     C76824   7.104   2.538  11.721 -0.4027 -0.6807  0.0493
  570MOL0     C76825   7.129   2.601  11.853  0.1060  0.2442 -0.5886
  570MOL0     C76826   7.174   2.741  11.858  1.2194  1.2888 -1.0123
  570MOL0     C76827   7.152   2.798  11.998  0.4027  0.2577  0.1039
  570MOL0     C76828   7.198   2.947  11.995  0.2617 -0.1108  0.6794
  570MOL0     C76829   7.227   2.995  12.143 -0.8937 -0.9865 -0.0564
  570MOL0     C76830   7.264   3.141  12.145 -1.2843 -0.1628 -1.5124
  570MOL0     C76831   7.287   3.192  12.299 -0.2591  0.3774 -0.6560
  570MOL0     N76832   7.314   3.335  12.310  0.2682 -0.0238  0.2775
  570MOL0     C76833   7.415   3.399  12.238  0.3510  0.0793  0.4554
  570MOL0     C76834   7.386   3.529  12.238 -0.1466 -0.0513 -0.0418
  570MOL0     C76835   7.462   3.626  12.167 -0.1307 -0.8374  0.7538
  570MOL0     C76836   7.451   3.633  12.019 -0.3919  0.6034 -0.2246
  570MOL0     C76837   7.527   3.761  11.967  0.8659 -0.1409 -0.4069
  570MOL0     C76838   7.517   3.774  11.817  0.2504  0.8635  0.4760
  570MOL0     O76839   7.437   3.893  11.781  0.7701 -0.0445  0.5443
  570MOL0     C76840   7.301   3.870  11.774 -0.3883 -0.1069  0.6116
  570MOL0     C76841   7.218   3.970  11.837  0.4512 -0.1097  0.5533
  570MOL0     C76842   7.074   3.969  11.821 -0.4644 -0.6441 -0.0462
  570MOL0     C76843   7.017   3.868  11.740 -0.5334  0.5991  0.8261
  570MOL0     C76844   6.876   3.863  11.702 -0.1078 -0.2760  0.2390
  570MOL0     O76845   6.805   3.967  11.760 -0.5835  0.0518  0.3563
  570MOL0     C76846   6.678   3.998  11.727  0.2503  0.1127  0.3600
  570MOL0     C76847   6.633   4.129  11.733  1.0127 -0.3183 -0.4269
  570MOL0     C76848   6.498   4.167  11.710  0.7756  0.6595  0.5868
  570MOL0     C76849   6.402   4.066  11.681  1.0246 -0.1193 -0.1626
  570MOL0     O76850   6.269   4.092  11.650  0.5413 -1.0902  0.1314
  570MOL0     C76851   6.217   4.224  11.649 -0.1236  0.1805 -0.6197
  570MOL0     C76852   6.071   4.229  11.607  0.8944  0.4200  0.3165
  570MOL0     C76853   6.028   4.373  11.589  0.0696  0.6979 -0.5926
  570MOL0     C76854   5.878   4.379  11.545 -0.0740 -0.7010 -0.1363
  570MOL0     C76855   5.826   4.525  11.549 -0.0975 -0.6536 -0.0190
  570MOL0     C76856   5.881   4.602  11.429  0.7228 -0.9302  0.4510
  570MOL0     C76857   5.886   4.752  11.454  0.3784 -0.0284  0.7978
  570MOL0     C76858   5.970   4.792  11.564  0.1114 -0.2180 -0.5041
  570MOL0    Cl76859   5.993   4.964  11.568 -0.3244 -0.0156  0.6712
  570MOL0     C76860   6.442   3.936  11.667 -0.5078 -0.1971  0.2357
  570MOL0     C76861   6.572   3.896  11.698  0.1986 -0.3626 -0.2838
  570MOL0     O76862   6.833   3.783  11.622  0.0105 -0.2258 -0.3615
  570MOL0     C76863   7.102   3.768  11.684 -0.6962  0.3907  0.2021
  570MOL0     C76864   7.246   3.763  11.703 -0.5195 -0.2892  0.1142
  570MOL0     N76865   7.279   3.551  12.328  0.2333  0.2123 -0.5397
  570MOL0     N76866   7.239   3.432  12.374 -0.9630  0.0244 -0.1395
  570MOL0     C76867   6.822   2.345  11.778 -0.0209  0.4161 -0.4273
  570MOL0     C76868   6.688   2.322  11.747 -0.5831 -0.4551 -0.3797
  570MOL0     C76869   6.332   2.193  11.492  0.2469  0.1539 -0.0668
  570MOL0     C76870   6.300   2.122  11.376 -0.1741 -0.4246  0.7876
  570MOL0     C76871   6.168   2.080  11.343  0.6450 -0.6844 -0.0091
  570MOL0     C76872   6.060   2.106  11.434 -0.8904 -0.0641  0.0246
  570MOL0     O76873   5.931   2.083  11.389  0.0530 -0.3335 -0.1057
  570MOL0     C76874   5.871   2.190  11.319  0.2413  0.2817  0.0224
  570MOL0     C76875   5.725   2.183  11.345  0.2147  0.9118 -0.4978
  570MOL0     C76876   5.681   2.278  11.462  0.0200  0.2956 -0.2181
  570MOL0     C76877   5.530   2.282  11.489  0.2389  0.0039 -0.1870
  570MOL0     C76878   5.490   2.156  11.544 -0.2898  0.0312 -0.8741
  570MOL0     C76879   5.436   2.058  11.594  0.5399  0.4438 -0.3776
  570MOL0     C76880   6.099   2.175  11.555  0.0832  0.1416  0.2787
  570MOL0     C76881   6.226   2.213  11.590 -0.1413 -0.0795  0.1114
  570MOL0     C76882   6.245   2.266  11.723 -0.0398  0.5583  0.6285
  570MOL0     H76883   6.670   2.501  11.463  1.3940  1.4806 -0.3006
  570MOL0     H76884   6.917   2.527  11.512 -2.3004 -0.5010 -1.1370
  570MOL0     H76885   7.195   2.510  11.668  0.6392 -1.3135  2.0558
  570MOL0     H76886   7.048   2.609  11.659 -0.1830  1.1662  1.8583
  570MOL0     H76887   7.212   2.545  11.897 -2.1518 -1.7547  1.4305
  570MOL0     H76888   7.045   2.581  11.920  1.3750 -0.6100  0.8209
  570MOL0     H76889   7.113   2.797  11.787  0.8377  1.7071 -0.3664
  570MOL0     H76890   7.280   2.734  11.829  1.6062  0.4051  0.4732
  570MOL0     H76891   7.044   2.795  12.014  0.1852  1.3347 -1.0581
  570MOL0     H76892   7.199   2.745  12.082  1.1459  1.7369  0.6642
  570MOL0     H76893   7.296   2.939  11.948  0.2421  0.6581  0.5094
  570MOL0     H76894   7.118   3.005  11.947  1.3634  3.1626  2.5202
  570MOL0     H76895   7.134   2.973  12.197 -0.9306 -0.4680  0.0945
  570MOL0     H76896   7.311   2.934  12.179 -2.7252 -1.7920  3.2703
  570MOL0     H76897   7.182   3.202  12.107  0.2282  0.2772 -4.2991
  570MOL0     H76898   7.349   3.163  12.080 -1.1324  0.9904 -0.9447
  570MOL0     H76899   7.195   3.181  12.359 -0.4038 -1.4779 -1.1449
  570MOL0     H76900   7.365   3.140  12.355 -2.2677  0.9352  3.0091
  570MOL0     H76901   7.497   3.345  12.191 -1.3090 -3.2536  1.0908
  570MOL0     H76902   7.450   3.724  12.213 -2.7996 -0.3464 -0.7891
  570MOL0     H76903   7.566   3.608  12.198  0.2372  1.5873  1.1259
  570MOL0     H76904   7.502   3.549  11.972  1.5266  1.6722 -0.1613
  570MOL0     H76905   7.345   3.637  11.991 -1.0142  0.5183  1.9493
  570MOL0     H76906   7.632   3.751  11.993  0.3952  1.0577  2.3528
  570MOL0     H76907   7.491   3.857  12.006 -2.1580 -2.2892  2.7253
  570MOL0     H76908   7.479   3.683  11.770 -0.4306  1.4335 -0.0972
  570MOL0     H76909   7.619   3.783  11.778 -0.6436  0.1282 -2.1843
  570MOL0     H76910   7.277   4.043  11.891  1.8772  0.3829 -1.5433
  570MOL0     H76911   7.025   4.035  11.892  1.4132 -0.1929  0.8846
  570MOL0     H76912   6.706   4.205  11.760  0.6376 -0.0526 -0.1462
  570MOL0     H76913   6.476   4.273  11.720 -1.2560  0.0986  3.0305
  570MOL0     H76914   6.223   4.278  11.744  1.8537  1.6021 -1.4832
  570MOL0     H76915   6.275   4.289  11.582 -0.5310 -0.4521 -1.6074
  570MOL0     H76916   6.055   4.181  11.509  0.2584  1.4696 -0.1129
  570MOL0     H76917   6.007   4.179  11.680  1.3802  2.8064  2.5014
  570MOL0     H76918   6.045   4.438  11.675  1.4580 -0.8208  0.3621
  570MOL0     H76919   6.092   4.417  11.512  2.8470  0.5546  1.4636
  570MOL0     H76920   5.817   4.307  11.600  1.5725 -1.9690  0.1112
  570MOL0     H76921   5.871   4.353  11.439  0.7760  0.4254 -0.4845
  570MOL0     H76922   5.856   4.576  11.641 -0.0844  0.8132 -0.7909
  570MOL0     H76923   5.719   4.531  11.526  0.1622  0.0931 -1.1296
  570MOL0     H76924   5.982   4.564  11.410 -0.2575 -1.8822 -3.7974
  570MOL0     H76925   5.814   4.583  11.345  0.1687  1.8600  0.1501
  570MOL0     H76926   5.781   4.779  11.473  0.4177 -0.8558  2.3219
  570MOL0     H76927   5.922   4.795  11.360  0.3756 -0.6636  0.5045
  570MOL0     H76928   5.934   4.760  11.662  3.8049 -3.4673  0.0905
  570MOL0     H76929   6.073   4.755  11.553 -0.2457 -2.0189  1.5836
  570MOL0     H76930   6.373   3.859  11.633 -0.5888  0.0034 -0.0563
  570MOL0     H76931   6.603   3.792  11.693  2.2059  0.2085 -0.8046
  570MOL0     H76932   7.066   3.705  11.604  3.5569 -3.6405  1.0343
  570MOL0     H76933   7.316   3.694  11.657 -0.2394 -0.6715  1.0837
  570MOL0     H76934   6.861   2.311  11.873  0.0127  2.4235  0.3194
  570MOL0     H76935   6.626   2.272  11.820 -2.0030  0.0390 -1.2095
  570MOL0     H76936   6.381   2.100  11.307 -1.1434 -2.6518  0.2682
  570MOL0     H76937   6.156   2.026  11.250  0.6228  2.1577 -1.7473
  570MOL0     H76938   5.900   2.165  11.217  1.0858 -1.8239  0.7269
  570MOL0     H76939   5.906   2.292  11.338 -4.2852  1.9059  1.0355
  570MOL0     H76940   5.692   2.085  11.379 -0.3138  1.9369  2.1078
  570MOL0     H76941   5.662   2.197  11.257  0.9236  0.7135 -1.0542
  570MOL0     H76942   5.700   2.382  11.436 -3.6553  1.4730  1.1386
  570MOL0     H76943   5.728   2.264  11.559 -0.1567  2.2967  0.2025
  570MOL0     H76944   5.500   2.360  11.559 -0.3691 -1.3994  1.1930
  570MOL0     H76945   5.482   2.295  11.392  0.0785  0.2351 -0.0758
  570MOL0     H76946   5.390   1.970  11.633  0.8814  1.0445  1.4449
  570MOL0     H76947   6.020   2.184  11.629 -0.9297  1.9959 -0.9609
  570MOL0     H76948   6.268   2.372  11.709 -4.9444  1.6249 -1.4087
  570MOL0     H76949   6.157   2.235  11.780 -3.0052  0.4046 -3.5708
  570MOL0     H76950   6.328   2.219  11.777 -2.4398 -0.1926  4.0549
  571MOL0     O76951   8.951  10.289  11.318 -0.7112  0.0036  0.1988
  571MOL0     C76952   8.972  10.169  11.308  0.2892  1.0431  1.1102
  571MOL0     O76953   9.065  10.096  11.373 -0.8216 -0.0859  0.3509
  571MOL0     C76954   9.167  10.169  11.433  0.7731 -0.4190 -0.1970
  571MOL0     C76955   9.290  10.167  11.368  0.2225 -0.2766  0.4851
  571MOL0     C76956   9.399  10.227  11.426 -0.2012 -0.5322  0.0938
  571MOL0     C76957   9.387  10.297  11.549 -0.7496  0.2111 -0.8775
  571MOL0     O76958   9.491  10.386  11.570 -0.1290  0.1842  0.2301
  571MOL0     C76959   9.582  10.329  11.658  0.4993  0.7868  0.7514
  571MOL0     C76960   9.669  10.447  11.728 -1.0007  0.4252  0.0345
  571MOL0     C76961   9.772  10.386  11.824 -0.0560  0.0108  0.7980
  571MOL0     C76962   9.871  10.494  11.888  0.2980  0.3768  0.2767
  571MOL0     C76963   9.796  10.585  11.986 -0.2602  0.7160  0.8954
  571MOL0     C76964   9.890  10.652  12.090 -0.6200  0.1835  0.8773
  571MOL0     C76965   9.980  10.769  12.047  0.1638 -0.3708  0.6672
  571MOL0     C76966   9.903  10.882  11.990  0.1607 -0.7464 -0.7146
  571MOL0     N76967   9.800  10.940  12.082 -0.5169  0.1032 -0.0064
  571MOL0     C76968   9.811  11.043  12.171 -0.7147 -1.1747 -0.6252
  571MOL0     C76969   9.687  11.083  12.204  0.1930  0.3379  0.3961
  571MOL0     C76970   9.641  11.197  12.282 -0.5633 -0.3396 -0.5150
  571MOL0     C76971   9.723  11.323  12.238 -0.7222 -1.1072 -1.1453
  571MOL0     C76972   9.701  11.439  12.331  0.5501 -0.2322 -0.6465
  571MOL0     C76973   9.813  11.549  12.319 -0.2101  0.3826  0.3832
  571MOL0     O76974   9.790  11.643  12.421 -0.3277  0.5357 -0.3377
  571MOL0     C76975   9.888  11.745  12.432  0.0231  0.2402  1.2584
  571MOL0     C76976   9.973  11.778  12.331  0.6626 -0.2777  0.3117
  571MOL0     C76977  10.078  11.870  12.373 -0.2768 -0.2734  0.0336
  571MOL0     C76978  10.080  11.941  12.497  0.1114  0.5313  0.0937
  571MOL0     C76979  10.166  12.050  12.530 -0.9107 -0.2512 -0.2276
  571MOL0     O76980  10.129  12.113  12.645 -0.3243  0.3440  0.7868
  571MOL0     C76981  10.228  12.151  12.728  0.3959  0.7789  0.0087
  571MOL0     C76982  10.272  12.055  12.819 -0.2353 -0.2318 -0.2834
  571MOL0     C76983  10.365  12.085  12.919  0.3950 -0.2156 -0.7769
  571MOL0     C76984  10.435  12.208  12.923  0.4896 -0.0545  0.6980
  571MOL0     O76985  10.538  12.251  13.004 -0.5132 -0.7728  0.3101
  571MOL0     C76986  10.553  12.180  13.128  0.9105 -0.3062  0.9570
  571MOL0     C76987  10.699  12.151  13.137  0.9129  0.8426 -0.4608
  571MOL0     C76988  10.741  12.022  13.074  0.3897  0.3207 -0.1861
  571MOL0     C76989  10.685  11.904  13.148 -0.5055  0.1199 -0.0416
  571MOL0     C76990  10.751  11.773  13.101 -0.5030 -0.6575  0.3356
  571MOL0     C76991  10.688  11.662  13.170 -0.1373  0.2487  0.7804
  571MOL0     C76992  10.728  11.534  13.102 -0.6435  0.1867  0.7369
  571MOL0     C76993  10.666  11.509  12.962  0.1872  0.6870  0.0713
  571MOL0    Cl76994  10.496  11.552  12.948  0.1733  0.3347 -0.4045
  571MOL0     C76995  10.377  12.304  12.836 -0.2785  0.0066 -0.7645
  571MOL0     C76996  10.272  12.283  12.743  0.3124  0.5296  0.3694
  571MOL0     O76997  10.257  12.087  12.452 -1.1255  0.5867  0.3996
  571MOL0     C76998   9.968  11.912  12.587 -0.4273 -0.4085  0.4254
  571MOL0     C76999   9.882  11.813  12.552 -0.3514 -1.3317 -0.3230
  571MOL0     N77000   9.599  11.012  12.132 -0.1561  0.0312 -0.2046
  571MOL0     N77001   9.667  10.917  12.070  0.5420  0.5149  0.5150
  571MOL0     C77002   9.265  10.293  11.616  0.0749 -0.3051 -0.6504
  571MOL0     C77003   9.149  10.234  11.555 -0.1076  0.4414  0.1608
  571MOL0     C77004   8.861  10.094  11.225 -0.3717  0.9698 -0.3217
  571MOL0     C77005   8.832   9.960  11.260  0.2848 -0.1013  0.3385
  571MOL0     C77006   8.718   9.900  11.211  0.1087 -0.1843 -0.0143
  571MOL0     C77007   8.634   9.966  11.121 -0.4381  0.4142 -0.4508
  571MOL0     O77008   8.514   9.900  11.078 -0.1984 -0.4994 -0.5710
  571MOL0     C77009   8.467   9.767  11.106 -0.9559  0.4422  0.3352
  571MOL0     C77010   8.320   9.753  11.078 -0.0603 -0.2052  0.7932
  571MOL0     C77011   8.271   9.610  11.066  0.6098  0.4546 -0.4093
  571MOL0     C77012   8.217   9.554  11.197 -0.6499  0.2152  1.3230
  571MOL0     C77013   8.081   9.601  11.203  0.1351 -0.3614  0.5693
  571MOL0     C77014   7.963   9.642  11.189 -0.1896 -0.3544 -0.2812
  571MOL0     C77015   8.666  10.090  11.072 -0.0895 -0.4277 -0.7899
  571MOL0     C77016   8.781  10.154  11.125  0.4883 -0.3830 -1.3950
  571MOL0     C77017   8.815  10.301  11.080  0.7170 -0.0081 -0.3372
  571MOL0     H77018   9.314  10.125  11.271  1.4920 -0.5386  0.8919
  571MOL0     H77019   9.493  10.234  11.373  1.7123  0.9072  3.4424
  571MOL0     H77020   9.534  10.280  11.743  4.5325 -0.4118  2.6227
  571MOL0     H77021   9.642  10.252  11.608 -1.2822 -0.2030  0.0681
  571MOL0     H77022   9.605  10.524  11.771 -2.3365 -0.1416 -0.8794
  571MOL0     H77023   9.711  10.499  11.641 -2.1333  0.0076 -0.7916
  571MOL0     H77024   9.845  10.323  11.772 -0.6600 -0.2101  0.2082
  571MOL0     H77025   9.730  10.328  11.907 -1.0423 -0.5251 -0.0547
  571MOL0     H77026   9.940  10.436  11.951 -0.9748  0.1839  1.5419
  571MOL0     H77027   9.933  10.551  11.818  0.3128 -0.7190 -0.6410
  571MOL0     H77028   9.734  10.655  11.929 -2.4780 -0.9864  1.1321
  571MOL0     H77029   9.722  10.523  12.036 -0.6975  0.2668 -0.2713
  571MOL0     H77030   9.823  10.685  12.170 -1.9441 -1.5011  0.5283
  571MOL0     H77031   9.956  10.573  12.126 -1.3202 -0.5315  0.6363
  571MOL0     H77032  10.061  10.737  11.980  1.6643  2.0776  1.1910
  571MOL0     H77033  10.039  10.796  12.135  3.5235  1.4686 -1.9053
  571MOL0     H77034   9.984  10.954  11.975  0.6605 -0.9339  0.8625
  571MOL0     H77035   9.845  10.855  11.901 -3.3107 -3.9741  2.1843
  571MOL0     H77036   9.900  11.088  12.214 -1.6644  0.1928  0.0170
  571MOL0     H77037   9.533  11.213  12.275 -1.3634 -2.4535  3.4833
  571MOL0     H77038   9.660  11.196  12.390  4.2902 -0.6960 -1.1601
  571MOL0     H77039   9.829  11.294  12.235 -1.0609 -2.4011 -1.5318
  571MOL0     H77040   9.693  11.359  12.140  0.6112  3.8014 -0.0421
  571MOL0     H77041   9.707  11.390  12.429 -3.3890  1.6645  0.7606
  571MOL0     H77042   9.603  11.484  12.310  0.3451 -0.2067  0.2997
  571MOL0     H77043   9.822  11.603  12.224  5.3408  0.8462  0.8396
  571MOL0     H77044   9.909  11.497  12.322 -0.1720  0.3294 -1.1944
  571MOL0     H77045   9.987  11.715  12.243  0.0547 -0.3885  0.2862
  571MOL0     H77046  10.150  11.879  12.292 -0.8653 -0.3691 -0.5086
  571MOL0     H77047  10.242  11.951  12.809 -1.4615  0.1631 -0.8163
  571MOL0     H77048  10.396  12.008  12.988  2.7326  1.1440 -0.2197
  571MOL0     H77049  10.517  12.251  13.203  4.0284  2.0842  0.3902
  571MOL0     H77050  10.494  12.088  13.129  0.4453 -0.0966 -1.5420
  571MOL0     H77051  10.754  12.236  13.095  0.6002  0.9115 -0.7315
  571MOL0     H77052  10.720  12.127  13.242  0.0033 -3.1847 -1.0147
  571MOL0     H77053  10.703  12.015  12.972  2.0983  0.8598 -0.8837
  571MOL0     H77054  10.847  12.020  13.048  0.3970 -1.3761 -0.1703
  571MOL0     H77055  10.576  11.903  13.137 -0.4364  0.6689 -0.8624
  571MOL0     H77056  10.705  11.917  13.255  0.6164 -3.5756  0.3490
  571MOL0     H77057  10.858  11.761  13.117 -0.4062 -3.1604 -1.5024
  571MOL0     H77058  10.747  11.777  12.991 -2.5481 -2.5287  0.2746
  571MOL0     H77059  10.734  11.656  13.269  1.6078 -1.9158 -0.0569
  571MOL0     H77060  10.580  11.671  13.184 -0.2904 -0.5987  0.2065
  571MOL0     H77061  10.709  11.444  13.161 -1.3150 -1.5161 -1.8851
  571MOL0     H77062  10.837  11.529  13.096 -0.5756  0.3037  1.8108
  571MOL0     H77063  10.717  11.568  12.885  0.1663 -0.9856 -1.2781
  571MOL0     H77064  10.672  11.403  12.939  0.5230  0.6406  0.3678
  571MOL0     H77065  10.405  12.408  12.848  1.2946 -0.6803  3.0924
  571MOL0     H77066  10.236  12.370  12.688 -0.3859  0.4229  0.6413
  571MOL0     H77067   9.953  11.960  12.683  1.3877  0.5580  0.2635
  571MOL0     H77068   9.802  11.789  12.621 -2.0157 -1.0118 -2.0502
  571MOL0     H77069   9.248  10.338  11.714 -0.7248  0.1439 -0.9809
  571MOL0     H77070   9.050  10.241  11.597  0.5496 -2.2870  2.4305
  571MOL0     H77071   8.897   9.913  11.333 -2.3958 -1.3535  2.0975
  571MOL0     H77072   8.719   9.799  11.253  1.2846 -1.4671 -2.8466
  571MOL0     H77073   8.483   9.736  11.210  1.6886 -0.0001 -0.1223
  571MOL0     H77074   8.528   9.705  11.039 -0.1857  0.5125  0.9557
  571MOL0     H77075   8.291   9.786  10.977 -0.6763 -5.0840 -0.8810
  571MOL0     H77076   8.267   9.810  11.154 -0.5936  1.7078 -0.9200
  571MOL0     H77077   8.351   9.544  11.029  0.4054  1.0134 -1.9143
  571MOL0     H77078   8.181   9.603  11.005 -0.0492  2.6914  0.2436
  571MOL0     H77079   8.234   9.447  11.185  0.6075  0.5459 -0.2244
  571MOL0     H77080   8.278   9.586  11.283  5.1824  0.9665 -2.5001
  571MOL0     H77081   7.866   9.689  11.188  0.2467  1.1696  4.5831
  571MOL0     H77082   8.605  10.141  10.998 -0.5219  1.7211  0.9287
  571MOL0     H77083   8.760  10.373  11.141 -1.1114 -1.5807 -0.0343
  571MOL0     H77084   8.922  10.323  11.091  0.9031 -1.4945  1.2362
  571MOL0     H77085   8.793  10.318  10.974  1.8065 -0.5061 -0.6620
  572MOL0     O77086   1.526   2.677   9.021 -0.7285 -0.2166 -0.3360
  572MOL0     C77087   1.422   2.739   9.014  0.0647  0.5373  0.1616
  572MOL0     O77088   1.404   2.874   9.045 -0.0010  0.8406  0.0163
  572MOL0     C77089   1.516   2.952   9.055  1.4534  0.3284 -0.0463
  572MOL0     C77090   1.505   3.076   9.125 -0.0967 -0.1346 -0.7286
  572MOL0     C77091   1.598   3.175   9.131 -0.5084 -0.0855 -0.0081
  572MOL0     C77092   1.721   3.149   9.075 -0.7829 -0.0138 -0.0462
  572MOL0     O77093   1.824   3.242   9.079 -0.7056  0.3138  0.4644
  572MOL0     C77094   1.853   3.296   9.206  0.3459  0.7925 -0.3537
  572MOL0     C77095   2.002   3.342   9.206 -0.0428  0.2868  0.0205
  572MOL0     C77096   2.046   3.366   9.342 -0.1338  0.2358  0.0300
  572MOL0     C77097   1.973   3.470   9.440  0.1464 -0.2604 -0.5670
  572MOL0     C77098   1.931   3.607   9.374  0.3930 -0.7016 -0.4928
  572MOL0     C77099   2.049   3.693   9.347  0.5080  0.8039  0.5305
  572MOL0     C77100   2.004   3.828   9.308 -0.7477 -0.2772  0.6172
  572MOL0     C77101   1.933   3.829   9.174  0.6514  0.1194 -0.0631
  572MOL0     N77102   1.896   3.962   9.126 -0.3308  0.6345  0.1864
  572MOL0     C77103   1.959   4.087   9.148 -0.3962 -0.4782  2.0720
  572MOL0     C77104   1.865   4.173   9.102  0.5580  0.2437 -0.1384
  572MOL0     C77105   1.883   4.321   9.099  0.2436  0.5718  0.2493
  572MOL0     C77106   1.829   4.395   9.222  0.0374 -0.0489 -0.3564
  572MOL0     C77107   1.681   4.362   9.251  0.5218  1.4741 -0.5985
  572MOL0     C77108   1.653   4.251   9.360 -0.0395  0.6382  0.0182
  572MOL0     O77109   1.507   4.242   9.378  0.4278  0.4020  0.0206
  572MOL0     C77110   1.421   4.194   9.280 -0.2158 -0.7002  0.7895
  572MOL0     C77111   1.461   4.110   9.181 -0.7791 -0.4801 -0.1268
  572MOL0     C77112   1.368   4.056   9.095 -0.6061 -0.6613  0.4728
  572MOL0     C77113   1.229   4.077   9.119 -0.2480  0.3092  0.6557
  572MOL0     C77114   1.121   4.016   9.041  0.3747  0.4507 -0.3840
  572MOL0     O77115   1.009   4.082   9.013 -0.0566 -0.6149  0.5645
  572MOL0     C77116   0.909   4.013   8.942 -0.5415 -0.4071 -0.3732
  572MOL0     C77117   0.926   3.949   8.820 -0.2167 -0.7870 -0.7240
  572MOL0     C77118   0.813   3.901   8.751 -0.3952 -0.2179  0.8439
  572MOL0     C77119   0.687   3.909   8.799  0.5865 -0.7211  0.2625
  572MOL0     O77120   0.587   3.864   8.718 -0.0843 -0.2866  0.2740
  572MOL0     C77121   0.484   3.787   8.786 -0.3308 -1.3396  0.3363
  572MOL0     C77122   0.395   3.727   8.676 -0.3023  0.5194 -0.5208
  572MOL0     C77123   0.467   3.650   8.572  0.0314  0.1360  0.4772
  572MOL0     C77124   0.370   3.600   8.461 -0.3450  0.0018 -0.5585
  572MOL0     C77125   0.458   3.528   8.353  0.6603  0.1698  0.1459
  572MOL0     C77126   0.392   3.539   8.211 -0.7840  0.8685  0.6878
  572MOL0     C77127   0.486   3.494   8.102  0.3021  0.8389  0.2373
  572MOL0     C77128   0.519   3.345   8.108 -0.6456 -0.1562  0.0383
  572MOL0    Cl77129   0.364   3.251   8.129  0.0631  0.0283  0.0374
  572MOL0     C77130   0.671   3.965   8.932  0.0307  0.7569  0.7505
  572MOL0     C77131   0.780   4.028   8.995  0.2794 -0.3067  0.4660
  572MOL0     O77132   1.145   3.902   8.997 -0.1327 -0.4273  0.0122
  572MOL0     C77133   1.190   4.173   9.212 -0.3671  0.3771 -0.8485
  572MOL0     C77134   1.291   4.228   9.292  0.4037  0.1075 -0.5105
  572MOL0     N77135   1.758   4.107   9.041  0.0528 -0.1832  0.0430
  572MOL0     N77136   1.783   3.983   9.048 -0.5422  0.5218 -0.7176
  572MOL0     C77137   1.735   3.031   9.004 -0.4706 -1.0990 -0.5964
  572MOL0     C77138   1.631   2.941   8.989 -0.1396 -0.5790 -0.5986
  572MOL0     C77139   1.312   2.651   8.971 -0.6606  0.3698  0.2486
  572MOL0     C77140   1.324   2.576   8.849  0.2297  0.7888  0.0820
  572MOL0     C77141   1.221   2.489   8.819 -0.1445 -0.3323 -0.6587
  572MOL0     C77142   1.108   2.484   8.895 -0.2180 -0.8000 -0.3250
  572MOL0     O77143   0.992   2.430   8.851 -0.0474  0.4246 -0.1347
  572MOL0     C77144   0.980   2.325   8.760 -0.8917  0.3489 -0.2539
  572MOL0     C77145   0.829   2.296   8.761  1.3613  0.8531  0.8352
  572MOL0     C77146   0.779   2.197   8.863  1.0495 -0.7591  0.0640
  572MOL0     C77147   0.638   2.149   8.874  0.3882  0.2108 -0.9647
  572MOL0     C77148   0.541   2.271   8.873 -0.4733 -0.1306 -0.1616
  572MOL0     C77149   0.446   2.346   8.869 -0.8162 -0.6089  0.2137
  572MOL0     C77150   1.098   2.557   9.015  0.1848 -0.3005  0.0562
  572MOL0     C77151   1.202   2.637   9.053 -0.4872  0.3473 -0.7500
  572MOL0     C77152   1.180   2.709   9.191  0.2969  0.3158  0.2207
  572MOL0     H77153   1.420   3.086   9.192  1.1231 -1.0523  1.0274
  572MOL0     H77154   1.576   3.268   9.183 -2.4810 -0.1444 -0.6623
  572MOL0     H77155   1.788   3.380   9.234  1.7746  1.9400 -0.3560
  572MOL0     H77156   1.842   3.216   9.279  1.8225  1.2514  0.4225
  572MOL0     H77157   2.010   3.428   9.138  1.7931  0.3690  0.2994
  572MOL0     H77158   2.064   3.267   9.156 -1.6305 -2.0942  1.4110
  572MOL0     H77159   2.154   3.383   9.341 -0.0193 -0.0065  2.4131
  572MOL0     H77160   2.028   3.271   9.394 -3.1544  1.1043  0.7858
  572MOL0     H77161   1.880   3.419   9.469  0.0432  0.1287 -0.1907
  572MOL0     H77162   2.031   3.506   9.526  0.0286  3.6036 -1.8973
  572MOL0     H77163   1.874   3.585   9.283  0.1879  1.6917 -1.0172
  572MOL0     H77164   1.866   3.668   9.439 -1.9139 -0.5696 -2.7564
  572MOL0     H77165   2.111   3.698   9.437 -0.7417  1.9631  1.3709
  572MOL0     H77166   2.119   3.662   9.269 -2.3740 -0.4830 -1.7144
  572MOL0     H77167   2.083   3.904   9.310 -1.6805  0.7568  2.9079
  572MOL0     H77168   1.931   3.871   9.378 -1.8146 -0.2531 -0.4828
  572MOL0     H77169   2.008   3.770   9.120 -0.7021 -1.9574  0.2232
  572MOL0     H77170   1.842   3.769   9.179  0.6034  0.3016  1.7336
  572MOL0     H77171   2.037   4.116   9.218 -1.3483 -2.9774  4.3839
  572MOL0     H77172   1.991   4.326   9.082  0.3234 -0.8917  0.1748
  572MOL0     H77173   1.839   4.343   9.001  1.8303 -1.0300 -0.8998
  572MOL0     H77174   1.888   4.367   9.310 -1.2453 -0.9963  0.2238
  572MOL0     H77175   1.840   4.500   9.192  0.0629  0.1852  0.4614
  572MOL0     H77176   1.637   4.321   9.159 -0.4944 -3.9967  1.8934
  572MOL0     H77177   1.638   4.456   9.285  0.3306  0.8720  0.8850
  572MOL0     H77178   1.711   4.289   9.444  0.8508  1.6143 -0.9954
  572MOL0     H77179   1.688   4.153   9.326  0.9336  0.4824  1.4116
  572MOL0     H77180   1.566   4.084   9.166 -0.3083  1.6007 -0.8813
  572MOL0     H77181   1.392   3.997   9.007  1.4765  0.5538  0.1796
  572MOL0     H77182   1.022   3.956   8.768  0.2758  2.0333  0.4184
  572MOL0     H77183   0.831   3.859   8.653  3.6176  4.2807 -0.7901
  572MOL0     H77184   0.534   3.707   8.841  0.5526 -0.5146  0.7580
  572MOL0     H77185   0.410   3.835   8.852  2.8389 -3.0270  5.7400
  572MOL0     H77186   0.330   3.650   8.720  2.4590 -1.5619  0.2243
  572MOL0     H77187   0.331   3.807   8.636  0.3151  2.5489  2.2518
  572MOL0     H77188   0.544   3.714   8.527 -0.8373  0.8787  0.0212
  572MOL0     H77189   0.522   3.569   8.621  1.1968  1.1903  0.9656
  572MOL0     H77190   0.305   3.682   8.428  1.6570  1.2397 -1.5973
  572MOL0     H77191   0.301   3.523   8.498 -0.2011  0.2198  0.1735
  572MOL0     H77192   0.481   3.424   8.378 -1.5097 -1.2667 -3.1448
  572MOL0     H77193   0.551   3.584   8.340  0.9773 -0.8318 -2.4597
  572MOL0     H77194   0.301   3.480   8.211 -0.6718  0.5764 -1.8764
  572MOL0     H77195   0.374   3.645   8.191 -2.5387  0.6172  0.8320
  572MOL0     H77196   0.570   3.564   8.109 -2.2467  3.9464  2.5957
  572MOL0     H77197   0.435   3.503   8.006 -0.7257  2.6583  0.9044
  572MOL0     H77198   0.561   3.324   8.009 -0.6076  1.9374 -0.4444
  572MOL0     H77199   0.599   3.332   8.182  1.6931  2.8366 -1.6696
  572MOL0     H77200   0.572   3.979   8.974 -0.8230 -1.3079 -0.4510
  572MOL0     H77201   0.754   4.086   9.083 -2.3986 -3.0216  1.6609
  572MOL0     H77202   1.089   4.208   9.229 -0.1942 -0.2175  1.7547
  572MOL0     H77203   1.258   4.300   9.366 -0.5136 -1.6749  0.9078
  572MOL0     H77204   1.827   2.988   8.966  0.5196  0.1864  0.2534
  572MOL0     H77205   1.655   2.856   8.926  1.2724 -0.6444 -0.0056
  572MOL0     H77206   1.413   2.593   8.789  0.6520  1.3394  0.8535
  572MOL0     H77207   1.238   2.417   8.739  0.0700  1.7424 -2.5939
  572MOL0     H77208   1.045   2.245   8.798 -0.9157  1.0612  1.3677
  572MOL0     H77209   1.014   2.342   8.657 -0.5621  1.1394 -0.0205
  572MOL0     H77210   0.789   2.264   8.664  1.2818  1.9593  0.4840
  572MOL0     H77211   0.778   2.390   8.785 -0.9178 -0.9601  3.9054
  572MOL0     H77212   0.809   2.251   8.954  0.1481  2.3216 -1.3296
  572MOL0     H77213   0.839   2.107   8.850  1.1544 -0.3620 -2.6074
  572MOL0     H77214   0.618   2.071   8.800 -0.8013  0.7578 -1.2371
  572MOL0     H77215   0.619   2.109   8.975 -0.4429  1.8053 -0.4561
  572MOL0     H77216   0.358   2.406   8.858 -1.9633 -2.0804  0.9325
  572MOL0     H77217   1.018   2.540   9.086  2.5397 -2.3273  2.4772
  572MOL0     H77218   1.272   2.747   9.237  0.1673  0.5257  0.3098
  572MOL0     H77219   1.122   2.801   9.173  0.9535  0.8822  0.9244
  572MOL0     H77220   1.116   2.645   9.253 -0.3141  0.7587  0.0614
  573MOL0     O77221   6.659   3.348   6.978  0.0619 -0.0295 -0.1962
  573MOL0     C77222   6.600   3.241   6.983  0.2953  0.0930  0.2219
  573MOL0     O77223   6.470   3.230   6.940  1.5315 -0.6386  0.3972
  573MOL0     C77224   6.401   3.334   6.882 -0.9934 -0.9957 -1.1301
  573MOL0     C77225   6.266   3.341   6.924 -0.3803  1.0708 -0.0961
  573MOL0     C77226   6.189   3.449   6.868  0.2566  0.2901 -0.9365
  573MOL0     C77227   6.234   3.536   6.765 -0.4758  0.2972 -0.2868
  573MOL0     O77228   6.168   3.647   6.724 -0.0719  0.4932 -0.7038
  573MOL0     C77229   6.112   3.733   6.828  0.1126  0.8015  0.5058
  573MOL0     C77230   6.035   3.847   6.764 -0.7382  0.2201 -0.5335
  573MOL0     C77231   5.995   3.948   6.859  0.3620  0.0919 -1.0472
  573MOL0     C77232   5.907   4.065   6.806  0.8505 -0.0910  0.8414
  573MOL0     C77233   5.757   4.023   6.770 -0.3447 -0.5911 -0.2993
  573MOL0     C77234   5.663   4.125   6.716  0.1995  0.8900  0.1041
  573MOL0     C77235   5.699   4.176   6.581 -0.3268  0.2958 -0.1209
  573MOL0     C77236   5.615   4.298   6.540  0.0758  0.3347  0.4638
  573MOL0     N77237   5.663   4.412   6.616  0.7994 -0.9632  0.0230
  573MOL0     C77238   5.753   4.503   6.567  1.2397 -0.2911 -0.8765
  573MOL0     C77239   5.778   4.589   6.666  0.0361 -1.2755 -0.3365
  573MOL0     C77240   5.852   4.717   6.660 -0.0150 -0.7016 -0.6329
  573MOL0     C77241   5.753   4.836   6.650  0.3055 -0.2541  0.5839
  573MOL0     C77242   5.830   4.965   6.632 -0.3116 -1.2166 -0.6147
  573MOL0     C77243   5.743   5.098   6.646  0.7280 -0.1624 -0.6372
  573MOL0     O77244   5.671   5.100   6.766 -0.4314  0.1275 -0.5465
  573MOL0     C77245   5.614   5.231   6.790  0.1630 -0.2211 -0.2531
  573MOL0     C77246   5.606   5.340   6.701  0.3540 -0.5654  0.4532
  573MOL0     C77247   5.545   5.466   6.740 -0.6862  0.2587  0.1088
  573MOL0     C77248   5.493   5.476   6.866  0.3087 -0.1117 -1.0132
  573MOL0     C77249   5.434   5.605   6.911  0.2963 -0.7065 -1.0200
  573MOL0     O77250   5.348   5.590   7.018 -0.7560  0.7546  0.7034
  573MOL0     C77251   5.277   5.695   7.070 -1.1973  0.4368  0.1814
  573MOL0     C77252   5.300   5.838   7.067 -0.0322  0.0053 -0.1774
  573MOL0     C77253   5.230   5.923   7.161 -0.5962 -0.4239 -0.5831
  573MOL0     C77254   5.124   5.872   7.241 -0.0362 -0.7143  0.1722
  573MOL0     O77255   5.037   5.942   7.317 -0.0096  0.4163  0.6792
  573MOL0     C77256   5.021   6.079   7.288 -0.1938 -0.8635 -0.0459
  573MOL0     C77257   4.883   6.132   7.328 -0.6247 -0.5964 -0.4964
  573MOL0     C77258   4.881   6.278   7.290  0.4670  0.2190 -1.1328
  573MOL0     C77259   4.747   6.342   7.316 -0.1975 -0.5579 -0.0932
  573MOL0     C77260   4.763   6.490   7.289  0.6656  0.6987  0.2769
  573MOL0     C77261   4.652   6.577   7.345 -0.2498 -0.3597  0.1386
  573MOL0     C77262   4.708   6.722   7.346 -0.5267 -0.9861 -0.7333
  573MOL0     C77263   4.818   6.740   7.458  0.6001  0.0444  0.4853
  573MOL0    Cl77264   4.740   6.693   7.613  0.1302 -0.4376  0.5752
  573MOL0     C77265   5.099   5.734   7.233  0.1668 -0.3603 -0.9194
  573MOL0     C77266   5.170   5.649   7.155  0.0724 -1.0550 -0.5254
  573MOL0     O77267   5.473   5.706   6.856  0.1273  0.0398  0.6021
  573MOL0     C77268   5.499   5.371   6.952  0.6073 -0.0748  0.2613
  573MOL0     C77269   5.563   5.252   6.918  0.1211  0.1359  0.8839
  573MOL0     N77270   5.699   4.550   6.777  0.0232  0.2936  0.7493
  573MOL0     N77271   5.627   4.452   6.745  2.1354  0.3273  0.6549
  573MOL0     C77272   6.362   3.508   6.709  0.2599 -0.2666 -1.0389
  573MOL0     C77273   6.445   3.415   6.773  0.3153  0.4138  0.6654
  573MOL0     C77274   6.675   3.118   7.028 -0.2373  0.0871 -0.3743
  573MOL0     C77275   6.599   3.008   7.066 -0.1883 -0.0552  0.3998
  573MOL0     C77276   6.661   2.895   7.115  1.0189 -0.4827 -0.4185
  573MOL0     C77277   6.795   2.892   7.149  0.1649  0.4557 -0.1034
  573MOL0     O77278   6.825   2.798   7.237 -0.5526 -0.2677  0.2643
  573MOL0     C77279   6.961   2.783   7.272 -0.1329  0.2470 -0.8545
  573MOL0     C77280   7.053   2.717   7.168  0.3330  0.4535 -0.1468
  573MOL0     C77281   6.989   2.586   7.111  1.0182  0.1193 -0.1775
  573MOL0     C77282   7.096   2.495   7.044 -0.3707 -0.9910 -0.3504
  573MOL0     C77283   7.166   2.561   6.930 -0.8065  0.6927  0.6768
  573MOL0     C77284   7.241   2.613   6.849  0.4552  0.2645  0.2037
  573MOL0     C77285   6.870   3.000   7.120  0.4473  0.2861  0.2593
  573MOL0     C77286   6.817   3.111   7.049  1.5977  0.3527 -0.4717
  573MOL0     C77287   6.913   3.221   7.018 -0.8500  0.4664 -0.3124
  573MOL0     H77288   6.234   3.263   6.991  2.4248 -0.8203 -0.8044
  573MOL0     H77289   6.089   3.472   6.903  1.0436  2.5572  0.0631
  573MOL0     H77290   6.033   3.683   6.884 -0.1132 -0.8663 -1.1763
  573MOL0     H77291   6.196   3.773   6.885  2.6953 -0.3461 -2.2148
  573MOL0     H77292   5.965   3.793   6.700 -1.6986  0.3240  0.3975
  573MOL0     H77293   6.105   3.896   6.696  0.9005  0.6434  1.3461
  573MOL0     H77294   6.081   3.992   6.910  0.7957 -3.0085  1.2137
  573MOL0     H77295   5.950   3.898   6.946  0.4901 -1.1137 -1.6527
  573MOL0     H77296   5.896   4.138   6.887 -1.3840  1.2649 -0.5952
  573MOL0     H77297   5.954   4.120   6.724  0.2520 -0.9440 -0.0941
  573MOL0     H77298   5.747   3.938   6.701 -2.5724 -0.3271 -0.3818
  573MOL0     H77299   5.722   3.994   6.870  0.8847 -2.1422 -0.2630
  573MOL0     H77300   5.564   4.079   6.703  0.6160 -0.0808  0.3161
  573MOL0     H77301   5.660   4.201   6.795  1.4655 -0.4218  1.4909
  573MOL0     H77302   5.684   4.096   6.508 -3.1208  2.4119 -2.0777
  573MOL0     H77303   5.801   4.214   6.569 -1.2913  2.6576 -1.5969
  573MOL0     H77304   5.633   4.299   6.432  0.2582 -1.9056  0.4236
  573MOL0     H77305   5.509   4.274   6.558  0.1028  0.1699  0.4022
  573MOL0     H77306   5.767   4.519   6.460 -1.3802 -0.1241 -1.2549
  573MOL0     H77307   5.924   4.715   6.742 -0.8965 -3.3183  0.1763
  573MOL0     H77308   5.917   4.721   6.572  1.7630 -1.9932  0.5750
  573MOL0     H77309   5.682   4.827   6.568  1.7885 -2.5579 -0.5757
  573MOL0     H77310   5.692   4.836   6.741  0.2907  0.1060  0.5740
  573MOL0     H77311   5.874   4.972   6.532 -2.7881  4.1152 -1.6783
  573MOL0     H77312   5.907   4.970   6.709  1.1950  0.8160 -2.1516
  573MOL0     H77313   5.674   5.084   6.563  0.2327  0.6385 -0.3735
  573MOL0     H77314   5.801   5.190   6.632 -0.6968  0.5098 -2.5496
  573MOL0     H77315   5.647   5.321   6.603  0.8937 -2.0930  0.9439
  573MOL0     H77316   5.544   5.551   6.673 -0.5367 -0.8537 -1.3538
  573MOL0     H77317   5.390   5.860   7.010  1.4338 -0.3311  1.8760
  573MOL0     H77318   5.265   6.024   7.175  0.5568 -0.9443  0.4528
  573MOL0     H77319   5.093   6.134   7.350  0.0795  0.3384 -1.3795
  573MOL0     H77320   5.037   6.112   7.185  1.7788  2.4190  1.1514
  573MOL0     H77321   4.800   6.075   7.286 -1.5942 -1.3703  2.2643
  573MOL0     H77322   4.869   6.129   7.437  2.8625 -1.1046  0.0479
  573MOL0     H77323   4.964   6.319   7.350  1.5465 -1.4660 -1.3906
  573MOL0     H77324   4.890   6.288   7.182 -0.1336  1.7674 -1.0630
  573MOL0     H77325   4.726   6.334   7.423  0.9878  3.5266  0.6127
  573MOL0     H77326   4.668   6.290   7.260 -1.5864  0.1631  1.1373
  573MOL0     H77327   4.775   6.515   7.183 -1.2242 -2.0097 -0.6697
  573MOL0     H77328   4.852   6.524   7.344 -0.0542  0.2416  1.7755
  573MOL0     H77329   4.573   6.573   7.270  0.4167 -1.4498 -0.5335
  573MOL0     H77330   4.608   6.552   7.442 -0.6384  2.0409  0.6374
  573MOL0     H77331   4.623   6.789   7.361 -0.2701 -0.7929 -0.1141
  573MOL0     H77332   4.735   6.746   7.243 -0.8447  0.5847 -0.4700
  573MOL0     H77333   4.906   6.677   7.444 -0.8013 -2.1137  0.7068
  573MOL0     H77334   4.842   6.846   7.460  0.6150  0.0402  2.1546
  573MOL0     H77335   5.042   5.680   7.308  2.4993 -3.4341 -1.1488
  573MOL0     H77336   5.154   5.543   7.174  0.3707 -0.7582  1.5220
  573MOL0     H77337   5.446   5.374   7.047  0.9441  3.2496  0.4495
  573MOL0     H77338   5.559   5.165   6.983 -1.5599  0.9232  1.8978
  573MOL0     H77339   6.399   3.563   6.623  1.0876  0.8986  0.0191
  573MOL0     H77340   6.543   3.398   6.731  0.4681 -0.5642  1.3805
  573MOL0     H77341   6.491   3.007   7.082 -0.2218 -0.6756  0.1672
  573MOL0     H77342   6.602   2.809   7.145  2.2617 -0.5324  2.1256
  573MOL0     H77343   6.966   2.710   7.353  0.2116  0.7891 -0.3813
  573MOL0     H77344   7.010   2.873   7.310  0.9617  0.9204 -3.5929
  573MOL0     H77345   7.155   2.689   7.195  0.8935 -0.7411 -3.0942
  573MOL0     H77346   7.061   2.789   7.087 -3.9855  1.6062  0.2011
  573MOL0     H77347   6.909   2.616   7.042 -1.2274 -2.9857  0.8908
  573MOL0     H77348   6.939   2.528   7.188 -0.0502 -0.5774 -1.3551
  573MOL0     H77349   7.172   2.474   7.120 -0.2624 -1.1276 -0.4956
  573MOL0     H77350   7.062   2.397   7.009  2.3144 -2.6739  1.3609
  573MOL0     H77351   7.291   2.659   6.766 -0.5137 -2.0154 -1.7447
  573MOL0     H77352   6.975   3.006   7.144  0.5705 -1.6809  0.4006
  573MOL0     H77353   7.017   3.198   6.992 -0.1200  4.1583 -1.2885
  573MOL0     H77354   6.883   3.272   6.926 -0.7763 -0.2529 -0.7419
  573MOL0     H77355   6.915   3.288   7.105 -1.0347  2.4806 -1.7851
  574MOL0     O77356  10.461   3.475   9.840  0.0051  0.2744 -0.4963
  574MOL0     C77357  10.508   3.579   9.893  0.0764  0.4689 -0.2524
  574MOL0     O77358  10.534   3.694   9.825 -0.2647 -0.8970  0.6187
  574MOL0     C77359  10.491   3.715   9.689 -0.8973  0.0328 -0.5950
  574MOL0     C77360  10.568   3.804   9.613  1.0654 -0.6399  0.6010
  574MOL0     C77361  10.538   3.825   9.478 -0.5228 -0.3855 -0.7705
  574MOL0     C77362  10.428   3.759   9.416  1.0674 -0.3840  0.2055
  574MOL0     O77363  10.378   3.770   9.290 -0.4265  0.0162  1.1222
  574MOL0     C77364  10.441   3.877   9.215  0.4731 -0.1876  0.1313
  574MOL0     C77365  10.349   3.908   9.093  0.0777  0.2835  0.0450
  574MOL0     C77366  10.417   4.016   9.008 -1.0613 -0.4523 -0.6590
  574MOL0     C77367  10.363   4.039   8.877 -0.6163  0.1214 -0.3841
  574MOL0     C77368  10.405   4.181   8.828 -0.1341 -0.5943  0.3753
  574MOL0     C77369  10.429   4.190   8.674 -0.0644 -0.3761 -0.5438
  574MOL0     C77370  10.539   4.109   8.615 -0.6097  1.0981 -0.1597
  574MOL0     C77371  10.685   4.137   8.663 -0.4588 -0.5198 -0.9566
  574MOL0     N77372  10.775   4.065   8.584  1.1722 -0.1800  0.1281
  574MOL0     C77373  10.801   4.098   8.449  0.2704  0.1143  0.2101
  574MOL0     C77374  10.843   3.986   8.397  1.5084 -0.8193 -0.1101
  574MOL0     C77375  10.881   3.969   8.249 -0.1858 -0.1956  0.2027
  574MOL0     C77376  11.028   3.960   8.232 -0.1074  0.4611  0.3394
  574MOL0     C77377  11.099   4.088   8.255  0.3921  0.3725  0.5006
  574MOL0     C77378  11.131   4.174   8.140  0.4197 -0.2873 -0.9259
  574MOL0     O77379  11.013   4.202   8.070  0.6124 -0.4341  0.6226
  574MOL0     C77380  11.036   4.264   7.953  0.1169 -0.1898  0.2983
  574MOL0     C77381  10.924   4.271   7.875 -0.1673 -0.8069  0.7380
  574MOL0     C77382  10.925   4.349   7.758 -0.0888  0.0989  0.7916
  574MOL0     C77383  11.036   4.425   7.716 -0.5493  0.6878  0.0263
  574MOL0     C77384  11.025   4.496   7.579  0.4523 -0.4239  0.4182
  574MOL0     O77385  10.916   4.465   7.491  0.1054 -0.2491 -0.0450
  574MOL0     C77386  10.894   4.528   7.371 -1.5212 -0.4383 -0.0256
  574MOL0     C77387  10.827   4.448   7.279  0.4011  0.7242 -0.2166
  574MOL0     C77388  10.781   4.498   7.158  0.4316 -1.1218  0.2963
  574MOL0     C77389  10.810   4.623   7.124 -1.2321  0.7615 -0.9477
  574MOL0     O77390  10.768   4.670   7.002  0.3916 -0.0892 -0.6028
  574MOL0     C77391  10.859   4.644   6.898 -0.0137 -0.1176  0.0698
  574MOL0     C77392  10.870   4.747   6.794  0.4471 -0.0144  0.6652
  574MOL0     C77393  11.003   4.758   6.717 -0.1130  0.2278  0.4286
  574MOL0     C77394  11.031   4.640   6.624 -0.0595  0.3340 -0.1898
  574MOL0     C77395  11.109   4.677   6.502  0.5176 -0.5058 -0.6471
  574MOL0     C77396  11.242   4.745   6.514  0.2942  0.6138  0.1711
  574MOL0     C77397  11.283   4.835   6.390 -0.1826 -0.1611  0.9538
  574MOL0     C77398  11.203   4.973   6.409 -0.7250 -0.9621 -0.5121
  574MOL0    Cl77399  11.043   4.996   6.348 -0.0297  0.3092  0.3667
  574MOL0     C77400  10.889   4.707   7.212 -0.1394 -0.1601  0.5128
  574MOL0     C77401  10.927   4.658   7.332  0.8621  0.2954 -0.2406
  574MOL0     O77402  11.118   4.574   7.552 -0.5686  0.2224 -0.0306
  574MOL0     C77403  11.155   4.424   7.798  0.7684  0.3362 -0.3362
  574MOL0     C77404  11.150   4.341   7.917  0.2201 -0.0692 -0.8335
  574MOL0     N77405  10.820   3.884   8.483 -0.0873  0.1145  0.2831
  574MOL0     N77406  10.780   3.931   8.598  0.8365  0.0268  0.3566
  574MOL0     C77407  10.356   3.674   9.493  0.3656  0.3490 -1.1456
  574MOL0     C77408  10.386   3.650   9.626 -0.3834 -0.3197  0.1118
  574MOL0     C77409  10.565   3.566  10.026 -0.0999 -0.8725  0.5362
  574MOL0     C77410  10.646   3.681  10.070  0.1690 -0.3933 -0.0032
  574MOL0     C77411  10.677   3.686  10.197 -0.5321  1.0686  0.3014
  574MOL0     C77412  10.635   3.598  10.301  0.9983 -0.2172  0.1386
  574MOL0     O77413  10.663   3.606  10.433  0.3482 -0.0255 -0.1083
  574MOL0     C77414  10.745   3.704  10.492  0.3560 -0.7309 -0.4144
  574MOL0     C77415  10.751   3.692  10.647 -0.2585  0.4888  0.0474
  574MOL0     C77416  10.866   3.780  10.708 -0.0429  0.0018 -0.1997
  574MOL0     C77417  10.835   3.820  10.862 -1.3695  0.5306  0.0919
  574MOL0     C77418  10.728   3.917  10.880  0.1431 -0.0394 -1.5455
  574MOL0     C77419  10.645   4.008  10.877 -0.8305 -0.7850 -0.4307
  574MOL0     C77420  10.570   3.486  10.255 -0.1322  0.0099  0.1967
  574MOL0     C77421  10.540   3.464  10.121 -0.7813  0.2777  1.4919
  574MOL0     C77422  10.462   3.331  10.105 -0.2382 -1.0320  0.8635
  574MOL0     H77423  10.646   3.862   9.662  1.1016  1.4659 -1.7410
  574MOL0     H77424  10.590   3.900   9.419  0.1471 -1.8848 -2.1784
  574MOL0     H77425  10.454   3.964   9.280 -1.3044 -1.7306  2.7656
  574MOL0     H77426  10.537   3.834   9.188 -0.8371 -2.5642 -1.1063
  574MOL0     H77427  10.245   3.928   9.121 -0.4709 -0.7325 -1.1155
  574MOL0     H77428  10.341   3.815   9.035 -2.0826  0.4950 -0.0888
  574MOL0     H77429  10.523   3.989   9.005  0.1055  2.5111  3.7664
  574MOL0     H77430  10.425   4.107   9.067 -0.7954 -0.4246 -0.7362
  574MOL0     H77431  10.410   3.958   8.819  0.6761 -0.0141  0.7914
  574MOL0     H77432  10.255   4.035   8.858 -0.4010 -2.9585 -1.5522
  574MOL0     H77433  10.325   4.255   8.841  1.9378  1.9142 -0.4201
  574MOL0     H77434  10.492   4.215   8.885  0.4376  1.2540 -1.4636
  574MOL0     H77435  10.337   4.157   8.626  0.2205 -0.9564 -0.7021
  574MOL0     H77436  10.447   4.298   8.663 -0.3407 -0.2067  0.5750
  574MOL0     H77437  10.538   4.112   8.505 -0.9960  0.8994 -0.1637
  574MOL0     H77438  10.518   4.004   8.639  0.4703  1.3046  1.8392
  574MOL0     H77439  10.698   4.246   8.660  3.9573 -0.6813  1.9297
  574MOL0     H77440  10.696   4.107   8.767  2.5220 -1.5777 -1.4794
  574MOL0     H77441  10.786   4.185   8.387 -0.5186 -1.2487 -1.6055
  574MOL0     H77442  10.828   3.882   8.208 -2.5419  2.4372 -2.8918
  574MOL0     H77443  10.842   4.049   8.186 -2.2912 -1.3221 -0.0350
  574MOL0     H77444  11.068   3.876   8.290  2.6699  0.2137 -1.7362
  574MOL0     H77445  11.035   3.939   8.125 -0.8471  0.5783  0.2599
  574MOL0     H77446  11.196   4.073   8.303  0.1368 -2.2447  0.3584
  574MOL0     H77447  11.052   4.148   8.333 -1.4501  0.8871 -0.9205
  574MOL0     H77448  11.206   4.129   8.074 -0.5847 -0.2109 -2.1618
  574MOL0     H77449  11.168   4.268   8.182 -2.9314  1.0144 -0.5605
  574MOL0     H77450  10.839   4.207   7.899  0.7055 -2.7905 -1.1990
  574MOL0     H77451  10.830   4.366   7.708  0.8107 -1.8384 -1.8123
  574MOL0     H77452  10.825   4.343   7.305  2.2946  0.9588  1.0788
  574MOL0     H77453  10.718   4.442   7.090  2.4117 -0.7370 -1.9436
  574MOL0     H77454  10.958   4.649   6.943 -0.9838  1.3338  2.1757
  574MOL0     H77455  10.840   4.542   6.863 -1.4330  0.2714 -0.3855
  574MOL0     H77456  10.785   4.739   6.726  1.9472 -0.0324 -1.3008
  574MOL0     H77457  10.862   4.844   6.843 -0.1322 -1.0679  2.7531
  574MOL0     H77458  11.003   4.848   6.655 -2.7928  0.3670  0.5458
  574MOL0     H77459  11.086   4.770   6.788  0.0460 -1.2131  0.5028
  574MOL0     H77460  10.949   4.581   6.582  1.4422  1.6225 -5.6964
  574MOL0     H77461  11.081   4.562   6.682  0.4776  0.8322  0.0275
  574MOL0     H77462  11.042   4.740   6.442  0.8217  1.8396  1.2801
  574MOL0     H77463  11.128   4.582   6.452 -1.9056 -2.4893  1.8504
  574MOL0     H77464  11.239   4.804   6.606 -2.5968 -0.7020  1.0463
  574MOL0     H77465  11.324   4.675   6.529 -1.0645 -0.6360  2.3092
  574MOL0     H77466  11.260   4.794   6.291 -0.6113  2.8949 -0.3185
  574MOL0     H77467  11.392   4.845   6.388  0.0545 -1.1207  4.0441
  574MOL0     H77468  11.200   5.003   6.514  0.1768 -1.7452 -0.2517
  574MOL0     H77469  11.267   5.049   6.361  0.0155 -0.0905  1.7236
  574MOL0     H77470  10.925   4.802   7.174 -0.5399 -0.7246 -1.3939
  574MOL0     H77471  10.975   4.726   7.401  1.5736  0.5799 -0.9979
  574MOL0     H77472  11.243   4.480   7.767 -1.3407  2.6220 -2.5583
  574MOL0     H77473  11.240   4.338   7.978 -1.2086 -5.3428  1.6033
  574MOL0     H77474  10.272   3.622   9.448 -1.4134  1.5538  0.6311
  574MOL0     H77475  10.328   3.576   9.680 -0.9301  0.7358  1.0208
  574MOL0     H77476  10.677   3.758  10.000  0.9068 -0.3511  0.3647
  574MOL0     H77477  10.737   3.773  10.223  0.5269  0.8898 -1.3868
  574MOL0     H77478  10.697   3.796  10.461 -2.4163 -0.6838  3.2807
  574MOL0     H77479  10.845   3.701  10.447  1.6597 -0.5272  2.2262
  574MOL0     H77480  10.758   3.586  10.673  0.2310 -0.2738 -2.8339
  574MOL0     H77481  10.657   3.738  10.680 -1.1521 -0.7808 -0.6333
  574MOL0     H77482  10.880   3.872  10.651  0.9390 -0.0897 -0.1260
  574MOL0     H77483  10.967   3.737  10.705  0.4957  1.1239  1.1310
  574MOL0     H77484  10.793   3.733  10.913 -3.1073 -0.4231 -2.7755
  574MOL0     H77485  10.925   3.839  10.922 -1.9953  3.0040  0.3602
  574MOL0     H77486  10.571   4.086  10.871  2.2498  2.2732 -2.2416
  574MOL0     H77487  10.531   3.410  10.322 -3.9700  0.0678 -1.7078
  574MOL0     H77488  10.494   3.286  10.011  2.1682  1.3829  0.4035
  574MOL0     H77489  10.483   3.269  10.193  2.6637  3.1919  3.5164
  574MOL0     H77490  10.354   3.347  10.093 -0.2430 -1.8795 -0.5679
  575MOL0     O77491   1.348   5.080   1.263  0.5226 -0.2993 -0.0166
  575MOL0     C77492   1.266   5.140   1.189 -0.6515 -0.7307 -0.3486
  575MOL0     O77493   1.175   5.240   1.233  0.2206  0.4892  0.5505
  575MOL0     C77494   1.161   5.249   1.368  0.0939 -0.7806  0.0433
  575MOL0     C77495   1.253   5.318   1.449 -0.2067  0.3212 -0.3342
  575MOL0     C77496   1.245   5.307   1.590 -1.0916 -0.8656  0.1116
  575MOL0     C77497   1.142   5.240   1.652  0.6716 -1.2067 -0.2982
  575MOL0     O77498   1.151   5.237   1.793  0.2441  0.1285  0.4377
  575MOL0     C77499   1.034   5.215   1.871  0.4664 -0.6917 -0.2959
  575MOL0     C77500   0.947   5.340   1.890  0.1688  0.7986 -0.2409
  575MOL0     C77501   1.038   5.470   1.914  0.6355  0.6094 -0.4211
  575MOL0     C77502   1.102   5.463   2.056  0.3504  0.7413 -1.0897
  575MOL0     C77503   1.193   5.572   2.104 -1.2995 -0.4825 -1.3659
  575MOL0     C77504   1.198   5.573   2.259 -0.7873 -0.2667 -0.3110
  575MOL0     C77505   1.061   5.608   2.327 -1.0508 -0.0209 -0.4001
  575MOL0     C77506   1.090   5.625   2.466 -0.2221 -0.1058 -0.6789
  575MOL0     N77507   0.971   5.650   2.550 -0.9485 -0.2873 -0.4156
  575MOL0     C77508   0.914   5.773   2.572 -0.9136 -0.1207  0.1369
  575MOL0     C77509   0.813   5.754   2.664 -0.7271  0.2442 -0.4714
  575MOL0     C77510   0.721   5.857   2.701  0.8701  0.6669  0.2446
  575MOL0     C77511   0.705   5.895   2.851 -0.1984  0.7561  0.0160
  575MOL0     C77512   0.643   5.771   2.937  0.2396 -0.1729  0.5029
  575MOL0     C77513   0.499   5.730   2.909  0.2349  0.0756  0.6117
  575MOL0     O77514   0.454   5.623   3.000  0.4439 -0.8835 -0.3031
  575MOL0     C77515   0.521   5.506   2.990  1.0315 -0.0284  0.4944
  575MOL0     C77516   0.506   5.428   3.105 -1.1728 -0.3996 -1.2215
  575MOL0     C77517   0.568   5.303   3.103  0.2845 -0.2222  1.1557
  575MOL0     C77518   0.645   5.252   2.988  0.6079  0.8119  0.5649
  575MOL0     C77519   0.714   5.123   2.970  0.5486  1.2815  0.0918
  575MOL0     O77520   0.721   5.071   2.836 -0.9514  0.7386 -0.5767
  575MOL0     C77521   0.743   4.932   2.824  0.2454  0.2249 -0.2752
  575MOL0     C77522   0.674   4.838   2.906 -0.3885 -0.5938 -0.2954
  575MOL0     C77523   0.684   4.698   2.884  0.1787  1.3080  0.8501
  575MOL0     C77524   0.746   4.642   2.763 -0.7037 -1.5580  0.3239
  575MOL0     O77525   0.735   4.512   2.728  0.4506  0.0337 -1.1841
  575MOL0     C77526   0.809   4.424   2.823  0.3057 -0.4825 -0.1559
  575MOL0     C77527   0.746   4.280   2.813  0.5243  0.5919 -0.1653
  575MOL0     C77528   0.801   4.193   2.707 -0.2273 -0.2276 -0.3304
  575MOL0     C77529   0.764   4.250   2.573 -0.0025 -0.0109  0.2544
  575MOL0     C77530   0.819   4.169   2.450  0.2748  0.3866 -0.0073
  575MOL0     C77531   0.758   4.023   2.444 -0.3241  0.6919 -0.7471
  575MOL0     C77532   0.623   4.031   2.384  0.0735  0.4632  1.3104
  575MOL0     C77533   0.538   3.897   2.383  0.4890 -0.2266  0.0739
  575MOL0    Cl77534   0.542   3.800   2.535 -0.1004 -0.0083  0.5890
  575MOL0     C77535   0.796   4.744   2.669  0.0152 -0.5082 -0.4266
  575MOL0     C77536   0.805   4.882   2.706  1.1351  0.2044  0.3471
  575MOL0     O77537   0.757   5.061   3.067 -0.0147 -0.0015  0.5957
  575MOL0     C77538   0.648   5.334   2.872 -0.2787  0.2090  0.8009
  575MOL0     C77539   0.583   5.458   2.875 -0.9150  1.1994  0.4985
  575MOL0     N77540   0.815   5.614   2.687 -0.2141  0.0067  0.5039
  575MOL0     N77541   0.909   5.552   2.622  0.0393 -0.7157  0.0680
  575MOL0     C77542   1.035   5.203   1.571 -0.2346  1.1955 -1.2126
  575MOL0     C77543   1.045   5.205   1.427 -0.9739  0.3925  0.7137
  575MOL0     C77544   1.270   5.118   1.038 -1.2608  0.8418 -0.1839
  575MOL0     C77545   1.150   5.160   0.966 -0.6117 -0.1097 -0.6964
  575MOL0     C77546   1.140   5.148   0.833  0.6906  1.8338  1.8312
  575MOL0     C77547   1.237   5.077   0.755  1.0153 -0.2750  0.1496
  575MOL0     O77548   1.188   5.044   0.624  0.4311  0.3043  0.2720
  575MOL0     C77549   1.283   5.022   0.518  0.1526 -0.8078 -0.0436
  575MOL0     C77550   1.308   4.867   0.508  0.1061 -0.4596  0.4973
  575MOL0     C77551   1.198   4.799   0.432  0.9620 -0.2354  0.3142
  575MOL0     C77552   1.223   4.651   0.396 -0.1356  0.0142  1.2296
  575MOL0     C77553   1.228   4.559   0.512 -1.0057  0.1965  0.7728
  575MOL0     C77554   1.231   4.492   0.610 -0.1547 -0.1900  0.1706
  575MOL0     C77555   1.352   5.041   0.817 -0.1578  0.9391  0.8024
  575MOL0     C77556   1.369   5.049   0.957  0.3109 -0.0478 -0.2859
  575MOL0     C77557   1.496   4.999   1.021 -0.2374  0.0575 -1.0803
  575MOL0     H77558   1.344   5.355   1.402  0.1496  0.0111  0.0887
  575MOL0     H77559   1.329   5.341   1.651 -0.6889 -2.5473  0.5504
  575MOL0     H77560   0.976   5.130   1.835  0.5023 -0.4228 -0.9984
  575MOL0     H77561   1.073   5.180   1.967 -0.0138 -1.1141 -0.2464
  575MOL0     H77562   0.886   5.315   1.977  2.5406 -1.8964  0.8259
  575MOL0     H77563   0.877   5.361   1.808 -0.0566 -1.7407 -0.8019
  575MOL0     H77564   0.967   5.552   1.900 -0.6770  0.4535  3.8848
  575MOL0     H77565   1.121   5.483   1.843  0.3469  3.1246 -0.3887
  575MOL0     H77566   1.016   5.463   2.123  1.1088  0.8208 -0.1056
  575MOL0     H77567   1.155   5.368   2.069  2.6981  1.9991 -0.9400
  575MOL0     H77568   1.294   5.558   2.062 -0.8452 -1.6754  0.0285
  575MOL0     H77569   1.155   5.667   2.065  1.8810  0.5413 -2.2955
  575MOL0     H77570   1.238   5.482   2.304  1.6310  0.2106 -1.2942
  575MOL0     H77571   1.281   5.640   2.285  1.9165 -3.6768  0.5901
  575MOL0     H77572   0.990   5.525   2.315 -0.5018 -0.3502 -1.4373
  575MOL0     H77573   1.033   5.710   2.297  1.9138  0.5953 -1.3363
  575MOL0     H77574   1.137   5.533   2.503  4.1251  1.5899 -1.4018
  575MOL0     H77575   1.152   5.715   2.477  1.1381 -0.9474 -1.2155
  575MOL0     H77576   0.944   5.866   2.525 -0.3440 -0.7290 -0.7473
  575MOL0     H77577   0.754   5.948   2.650  0.5414  0.5393 -0.2003
  575MOL0     H77578   0.633   5.829   2.643  3.2819 -0.3531 -3.2635
  575MOL0     H77579   0.792   5.931   2.907 -0.4223 -0.5228  1.2602
  575MOL0     H77580   0.636   5.979   2.847 -1.6422 -0.3274  0.8263
  575MOL0     H77581   0.656   5.784   3.044  3.6268 -1.6722  0.3921
  575MOL0     H77582   0.711   5.687   2.920 -0.4550 -0.8495  0.9932
  575MOL0     H77583   0.484   5.698   2.805  3.0120 -3.5893  1.1491
  575MOL0     H77584   0.426   5.812   2.915 -0.8258  0.1626 -5.7667
  575MOL0     H77585   0.463   5.460   3.200  2.3179 -0.1632  0.4505
  575MOL0     H77586   0.560   5.235   3.187  0.2021 -1.6891  0.0045
  575MOL0     H77587   0.623   4.850   3.002  3.1903 -1.4186  1.8849
  575MOL0     H77588   0.643   4.626   2.954  1.8168  1.4551  2.0186
  575MOL0     H77589   0.914   4.427   2.794 -0.3260 -0.5010 -2.6824
  575MOL0     H77590   0.803   4.460   2.926  2.5085 -0.5417  0.0287
  575MOL0     H77591   0.770   4.235   2.910  1.0667 -2.0420 -1.4408
  575MOL0     H77592   0.637   4.280   2.807  0.0704  4.2196  3.5100
  575MOL0     H77593   0.909   4.184   2.720 -0.0168  2.7784  0.7393
  575MOL0     H77594   0.767   4.090   2.722  1.3624 -1.6083 -4.6493
  575MOL0     H77595   0.799   4.352   2.556 -0.1986  0.0894  0.4447
  575MOL0     H77596   0.656   4.245   2.558 -0.1273  1.9601  0.2242
  575MOL0     H77597   0.927   4.152   2.452  0.2916  0.3260  2.8696
  575MOL0     H77598   0.789   4.225   2.362  0.4607  0.1157 -0.2472
  575MOL0     H77599   0.831   3.963   2.391  0.2832 -1.8981  2.6535
  575MOL0     H77600   0.754   3.984   2.547 -0.1525 -0.6460 -1.2318
  575MOL0     H77601   0.633   4.062   2.280 -1.5988  1.8231  1.5129
  575MOL0     H77602   0.566   4.114   2.426  0.9699  2.3850 -1.0660
  575MOL0     H77603   0.436   3.925   2.356  0.0936 -2.6141 -1.1954
  575MOL0     H77604   0.566   3.832   2.300  0.8606  3.4846 -2.9563
  575MOL0     H77605   0.841   4.726   2.572  1.3526  4.4135 -0.9701
  575MOL0     H77606   0.835   4.956   2.633 -0.8428  0.7481  0.0353
  575MOL0     H77607   0.701   5.312   2.780  0.2409 -2.3504  1.6340
  575MOL0     H77608   0.590   5.501   2.775  0.8280 -0.9290 -0.3701
  575MOL0     H77609   0.951   5.161   1.624  0.6693 -2.4614 -2.3373
  575MOL0     H77610   0.974   5.171   1.353  0.2109 -0.0135 -0.2783
  575MOL0     H77611   1.066   5.208   1.013 -2.2721 -1.7618 -1.8054
  575MOL0     H77612   1.040   5.162   0.792  0.3573 -0.9342  1.4669
  575MOL0     H77613   1.382   5.063   0.542 -0.7741  0.7510  1.3252
  575MOL0     H77614   1.249   5.070   0.427 -0.9835 -1.8609 -0.1990
  575MOL0     H77615   1.294   4.812   0.601  0.0675 -4.2394 -1.5560
  575MOL0     H77616   1.411   4.857   0.474  0.6285  0.9404  1.5679
  575MOL0     H77617   1.178   4.855   0.340  0.1843  0.8925  1.1294
  575MOL0     H77618   1.102   4.808   0.484  0.4724  1.5963 -0.8061
  575MOL0     H77619   1.146   4.628   0.322  0.8812  0.3379  0.0276
  575MOL0     H77620   1.319   4.655   0.345  0.1988  1.1191  1.9087
  575MOL0     H77621   1.247   4.436   0.700 -0.2519  1.5476  1.3249
  575MOL0     H77622   1.424   4.990   0.753 -2.1796 -1.3272  0.2061
  575MOL0     H77623   1.553   4.939   0.949 -1.5907  0.3193 -2.4116
  575MOL0     H77624   1.557   5.085   1.049  1.6721 -0.9590 -1.9561
  575MOL0     H77625   1.470   4.941   1.110 -2.6893 -1.8584 -2.8805
  576MOL0     O77626   5.964   4.035   2.918 -0.4507 -0.1095 -0.5861
  576MOL0     C77627   5.850   4.053   2.901 -0.2675 -0.0541  0.1567
  576MOL0     O77628   5.788   4.177   2.899 -0.2329  0.4491  0.6620
  576MOL0     C77629   5.840   4.287   2.956  0.7875 -0.2126 -0.6626
  576MOL0     C77630   5.785   4.405   2.905 -0.0845 -0.3030  0.1241
  576MOL0     C77631   5.813   4.525   2.973  0.8364 -0.4102 -0.2031
  576MOL0     C77632   5.905   4.534   3.082  1.4807  0.6772  0.5588
  576MOL0     O77633   5.917   4.656   3.139  0.1470 -0.0416  0.0093
  576MOL0     C77634   5.981   4.649   3.265 -0.0664 -1.2881  0.7202
  576MOL0     C77635   5.986   4.798   3.317  0.9795 -1.1865 -0.2571
  576MOL0     C77636   5.849   4.840   3.390 -0.2671  0.1868 -0.2359
  576MOL0     C77637   5.835   4.983   3.402 -0.1984  0.6250 -0.2128
  576MOL0     C77638   5.690   5.019   3.446 -0.3706  0.6539 -0.1625
  576MOL0     C77639   5.647   5.160   3.434  0.3212  0.8286 -0.6172
  576MOL0     C77640   5.508   5.184   3.499  0.5322 -0.7816 -0.1869
  576MOL0     C77641   5.399   5.102   3.430  0.1740  0.1511 -0.2916
  576MOL0     N77642   5.272   5.127   3.496  0.4367  0.1787 -0.2865
  576MOL0     C77643   5.145   5.117   3.438 -0.1478  0.3113 -0.3295
  576MOL0     C77644   5.044   5.132   3.535 -1.1473  0.5998 -0.0133
  576MOL0     C77645   4.895   5.142   3.498 -0.4719 -0.3874 -0.0086
  576MOL0     C77646   4.809   5.026   3.530  0.7092 -0.2816 -0.6184
  576MOL0     C77647   4.779   5.024   3.682 -0.8899 -0.0754 -0.2127
  576MOL0     C77648   4.772   4.887   3.740  0.5122 -0.4283 -0.2027
  576MOL0     O77649   4.900   4.856   3.795  0.1716 -1.1567 -1.2875
  576MOL0     C77650   4.948   4.730   3.772 -0.3177 -0.0126  0.3002
  576MOL0     C77651   4.868   4.615   3.759 -0.6592 -0.2897 -0.7820
  576MOL0     C77652   4.928   4.484   3.767 -0.7509 -0.1352 -0.1104
  576MOL0     C77653   5.065   4.464   3.774  0.1595 -0.2980  0.3637
  576MOL0     C77654   5.128   4.332   3.792 -0.6326 -0.0731  0.5200
  576MOL0     O77655   5.261   4.325   3.765  0.0490 -0.2200  0.1294
  576MOL0     C77656   5.327   4.222   3.822 -0.4253 -0.8174 -0.4828
  576MOL0     C77657   5.319   4.182   3.958 -0.3811  0.0404  1.3360
  576MOL0     C77658   5.417   4.088   4.006  0.7864  1.1465 -0.0348
  576MOL0     C77659   5.520   4.043   3.932 -0.3470  0.8779 -0.5867
  576MOL0     O77660   5.610   3.954   3.994 -0.6368  0.1058  0.2390
  576MOL0     C77661   5.582   3.820   3.960 -0.3644  0.7293  0.3172
  576MOL0     C77662   5.707   3.741   3.940 -0.2684 -1.4635  0.4381
  576MOL0     C77663   5.687   3.602   3.884 -0.0857 -0.1481 -0.1223
  576MOL0     C77664   5.607   3.506   3.963  0.1112 -0.3246  0.8101
  576MOL0     C77665   5.597   3.364   3.902 -0.6334  0.2383  0.4389
  576MOL0     C77666   5.509   3.339   3.777  0.0712 -0.0909 -0.5575
  576MOL0     C77667   5.361   3.320   3.819 -0.0573  0.3108  1.0885
  576MOL0     C77668   5.286   3.259   3.698 -0.4980 -0.7414 -1.2856
  576MOL0    Cl77669   5.111   3.269   3.721 -0.6572 -0.4135  0.1534
  576MOL0     C77670   5.528   4.073   3.791 -0.2283  0.6839 -0.8133
  576MOL0     C77671   5.429   4.157   3.740 -0.5842  0.4252 -0.0432
  576MOL0     O77672   5.059   4.245   3.844  0.1218 -0.1226  0.2312
  576MOL0     C77673   5.146   4.576   3.773  0.9259 -0.1625  0.1560
  576MOL0     C77674   5.088   4.706   3.781 -0.6825 -0.0573  0.7567
  576MOL0     N77675   5.117   5.168   3.645  0.2420  0.3456  0.1415
  576MOL0     N77676   5.249   5.156   3.627  0.1951 -0.4645  0.0872
  576MOL0     C77677   5.965   4.408   3.129  0.3257 -0.4299  0.1781
  576MOL0     C77678   5.928   4.286   3.066  0.2724  0.1549 -0.1808
  576MOL0     C77679   5.761   3.941   2.869 -0.3952  0.3081  0.6282
  576MOL0     C77680   5.623   3.967   2.886 -0.3935  0.8505  0.5566
  576MOL0     C77681   5.530   3.860   2.860  0.3530 -0.1366  0.2283
  576MOL0     C77682   5.571   3.734   2.812  1.4600 -0.5874 -0.1981
  576MOL0     O77683   5.488   3.627   2.768 -0.3259 -0.4164  0.2696
  576MOL0     C77684   5.357   3.655   2.721 -0.6408  0.5530  0.1372
  576MOL0     C77685   5.324   3.554   2.616  0.4417 -0.0420 -0.8970
  576MOL0     C77686   5.287   3.411   2.670 -0.4056 -0.4337  0.9305
  576MOL0     C77687   5.341   3.288   2.586 -0.5831 -0.8765  0.5276
  576MOL0     C77688   5.485   3.269   2.600 -0.5629  0.3944 -0.3937
  576MOL0     C77689   5.605   3.248   2.631  0.4063  0.5874 -0.1529
  576MOL0     C77690   5.703   3.704   2.805 -0.2590  0.0926 -0.3412
  576MOL0     C77691   5.802   3.806   2.834  0.2761 -0.3106  0.1257
  576MOL0     C77692   5.942   3.757   2.818 -0.4761 -0.3691 -0.5775
  576MOL0     H77693   5.717   4.413   2.821  0.6436 -1.7138 -0.6515
  576MOL0     H77694   5.786   4.624   2.937  3.7195  1.6286  2.6781
  576MOL0     H77695   5.918   4.588   3.330 -0.2969  0.6454  2.3900
  576MOL0     H77696   6.085   4.617   3.257  0.0902 -1.1601  2.1486
  576MOL0     H77697   5.996   4.873   3.237 -5.6597 -0.0239 -0.6162
  576MOL0     H77698   6.067   4.795   3.390 -0.1243  1.6359  1.2523
  576MOL0     H77699   5.826   4.789   3.484 -0.1898 -3.3990 -1.9650
  576MOL0     H77700   5.765   4.806   3.328  0.0473  1.0844 -1.1900
  576MOL0     H77701   5.911   5.023   3.469 -2.3477  0.9198  2.2202
  576MOL0     H77702   5.846   5.031   3.305 -0.3156  0.9996 -0.0437
  576MOL0     H77703   5.622   4.958   3.386 -0.3514  0.7823 -0.3125
  576MOL0     H77704   5.692   4.973   3.546  2.1813  0.8812 -0.0348
  576MOL0     H77705   5.714   5.230   3.485  1.5467  0.3805 -1.5577
  576MOL0     H77706   5.643   5.180   3.327 -1.3494 -1.0679 -0.9780
  576MOL0     H77707   5.472   5.287   3.489 -1.7468 -1.5189 -0.3168
  576MOL0     H77708   5.518   5.160   3.606 -0.7148 -0.9663 -0.0888
  576MOL0     H77709   5.391   5.131   3.325 -2.2779 -0.2848 -0.2772
  576MOL0     H77710   5.410   4.993   3.431 -2.2772 -0.1726 -1.1532
  576MOL0     H77711   5.119   5.100   3.334 -1.9614  0.5872  0.0428
  576MOL0     H77712   4.862   5.235   3.545  1.9549  0.7765 -0.4412
  576MOL0     H77713   4.879   5.156   3.391 -4.2464  1.6442  0.6677
  576MOL0     H77714   4.730   5.024   3.454  1.6980 -2.2864 -1.6708
  576MOL0     H77715   4.869   4.938   3.506  2.5719  0.5917  0.5698
  576MOL0     H77716   4.690   5.079   3.715 -0.1657  1.2512 -0.4140
  576MOL0     H77717   4.862   5.076   3.730 -1.4878 -0.3134  1.1495
  576MOL0     H77718   4.750   4.812   3.663 -3.2541 -0.6220  0.8594
  576MOL0     H77719   4.691   4.882   3.813 -1.2053 -1.9643 -2.0937
  576MOL0     H77720   4.759   4.621   3.762 -0.8134 -2.2946  2.2676
  576MOL0     H77721   4.870   4.392   3.771 -1.8543  0.5680  0.6325
  576MOL0     H77722   5.240   4.215   4.025 -3.1574  1.6232 -2.3729
  576MOL0     H77723   5.401   4.052   4.107 -2.3620 -1.8093 -1.3692
  576MOL0     H77724   5.516   3.787   4.040  0.3281  3.4809  2.1452
  576MOL0     H77725   5.522   3.814   3.869 -0.4479 -1.6620  0.4613
  576MOL0     H77726   5.783   3.792   3.880  0.9636 -3.6662  0.0155
  576MOL0     H77727   5.753   3.730   4.038 -2.9650 -0.0235  1.9878
  576MOL0     H77728   5.639   3.612   3.786 -2.1561 -0.1521  0.8434
  576MOL0     H77729   5.788   3.561   3.875 -0.7108 -1.4622 -1.4014
  576MOL0     H77730   5.504   3.541   3.951 -0.7715 -2.2838  2.1807
  576MOL0     H77731   5.631   3.504   4.070  2.8650 -1.6176  0.2528
  576MOL0     H77732   5.559   3.289   3.972  1.4040 -0.2377  1.0852
  576MOL0     H77733   5.701   3.334   3.888 -1.8490 -5.4593  1.1318
  576MOL0     H77734   5.516   3.417   3.701 -0.8714  0.2457 -0.3237
  576MOL0     H77735   5.544   3.240   3.747 -0.4442 -1.3560  2.5974
  576MOL0     H77736   5.324   3.421   3.841 -1.0416  0.3782 -0.6675
  576MOL0     H77737   5.358   3.251   3.903  0.9266 -1.3277 -0.1599
  576MOL0     H77738   5.313   3.313   3.606  1.1927 -0.0435 -0.4111
  576MOL0     H77739   5.313   3.153   3.690  1.8035 -0.1899 -1.4427
  576MOL0     H77740   5.614   4.036   3.737  1.0091  1.4406  0.5879
  576MOL0     H77741   5.431   4.184   3.635 -1.0057  2.7024  0.4841
  576MOL0     H77742   5.252   4.564   3.789  0.8779 -0.8604 -0.0033
  576MOL0     H77743   5.163   4.784   3.793  0.6237 -1.1218 -0.1763
  576MOL0     H77744   6.032   4.411   3.215 -1.1164 -0.4886  1.3501
  576MOL0     H77745   5.958   4.197   3.120  0.5455  1.6071  2.2060
  576MOL0     H77746   5.580   4.066   2.883 -4.2368 -0.6680 -0.0172
  576MOL0     H77747   5.423   3.875   2.865  0.5396  4.4189 -2.9589
  576MOL0     H77748   5.352   3.754   2.674  0.3370  0.6234  0.1766
  576MOL0     H77749   5.288   3.662   2.807  2.0148  2.5038  2.2895
  576MOL0     H77750   5.414   3.547   2.555  1.7111  1.0628  0.7669
  576MOL0     H77751   5.240   3.589   2.556 -1.7589 -3.0453  0.1574
  576MOL0     H77752   5.178   3.406   2.664 -0.3254 -1.1684 -0.2984
  576MOL0     H77753   5.320   3.414   2.774 -3.0743  1.7297  1.7996
  576MOL0     H77754   5.301   3.194   2.625 -2.8384 -0.9263 -1.6667
  576MOL0     H77755   5.312   3.303   2.481 -3.3415  0.3169  1.3840
  576MOL0     H77756   5.706   3.214   2.641 -0.4007 -2.4803 -1.0640
  576MOL0     H77757   5.727   3.601   2.782 -1.1925 -0.3355  0.5145
  576MOL0     H77758   5.936   3.649   2.807  1.4223 -0.3453 -2.5083
  576MOL0     H77759   5.993   3.808   2.735  2.4785 -0.1353  1.2214
  576MOL0     H77760   5.999   3.786   2.907 -0.5505 -1.6646 -0.0957
  577MOL0     O77761   2.172  10.511   9.672 -1.2290 -0.2010 -0.8733
  577MOL0     C77762   2.238  10.471   9.583  0.1641 -0.2362  0.3255
  577MOL0     O77763   2.297  10.339   9.589 -0.7762 -0.4563  0.0289
  577MOL0     C77764   2.249  10.266   9.692  0.3360  0.2546  0.0334
  577MOL0     C77765   2.285  10.296   9.823  0.0256  0.5363  0.4426
  577MOL0     C77766   2.252  10.209   9.926 -0.1413 -0.1299 -0.0627
  577MOL0     C77767   2.185  10.085   9.904  0.6765  1.1194  0.2079
  577MOL0     O77768   2.158   9.992  10.000 -0.5096  0.4559  0.2945
  577MOL0     C77769   2.119  10.033  10.135 -0.0282 -0.0658 -0.3195
  577MOL0     C77770   1.974  10.074  10.138 -0.7775 -0.7913 -0.0954
  577MOL0     C77771   1.874   9.975  10.095  0.5454 -0.2096 -0.9702
  577MOL0     C77772   1.735  10.005  10.177  0.0839 -0.2224 -0.0798
  577MOL0     C77773   1.723   9.973  10.327 -0.3411 -1.4272  0.4921
  577MOL0     C77774   1.582   9.990  10.382  0.3466 -0.7656  0.6342
  577MOL0     C77775   1.574   9.985  10.528 -0.0174  0.0415  0.1922
  577MOL0     C77776   1.466  10.077  10.599  0.2583  0.6979  0.4367
  577MOL0     N77777   1.334  10.065  10.548 -0.3492  0.6054 -0.5715
  577MOL0     C77778   1.258   9.949  10.527  0.3195 -0.5209 -0.0333
  577MOL0     C77779   1.127   9.993  10.496 -0.7770  0.7256  0.2892
  577MOL0     C77780   1.009   9.911  10.456 -0.2671 -0.3527 -0.3389
  577MOL0     C77781   1.033   9.760  10.482  0.1685 -0.3099  0.4282
  577MOL0     C77782   0.916   9.658  10.448  0.6763  0.7657  0.3366
  577MOL0     C77783   0.924   9.516  10.506 -0.2659  0.7365  0.6549
  577MOL0     O77784   1.058   9.456  10.502 -0.4440  0.5516 -0.2630
  577MOL0     C77785   1.075   9.318  10.534 -1.1170 -0.2015  0.7806
  577MOL0     C77786   0.985   9.251  10.616 -0.1093  0.2713  1.5705
  577MOL0     C77787   0.975   9.112  10.610  0.0107  0.6007  0.0981
  577MOL0     C77788   1.057   9.039  10.525 -0.2896  0.5755  0.5065
  577MOL0     C77789   1.060   8.892  10.526 -0.8298 -0.5958  0.0591
  577MOL0     O77790   1.176   8.840  10.481 -0.2604  1.4729 -0.9016
  577MOL0     C77791   1.187   8.704  10.497  0.2287 -0.2298 -0.1037
  577MOL0     C77792   1.144   8.619  10.397 -0.7319  0.2746  0.2396
  577MOL0     C77793   1.154   8.474  10.424  1.3414 -0.9042 -0.4494
  577MOL0     C77794   1.225   8.431  10.538  0.8244  0.0557  0.4824
  577MOL0     O77795   1.222   8.298  10.567  0.2613 -0.6484 -0.0203
  577MOL0     C77796   1.186   8.201  10.475  0.3628 -0.4110  0.8020
  577MOL0     C77797   1.218   8.071  10.541 -0.4199 -1.9669  0.1629
  577MOL0     C77798   1.198   7.951  10.453 -0.3808 -0.1737 -0.0519
  577MOL0     C77799   1.276   7.979  10.315  0.9106  0.3089 -1.0562
  577MOL0     C77800   1.321   7.860  10.236  0.6261  0.1515 -0.9909
  577MOL0     C77801   1.377   7.919  10.108  0.0963 -0.3681 -0.5685
  577MOL0     C77802   1.454   7.817  10.025 -0.7629 -0.4043 -0.3242
  577MOL0     C77803   1.513   7.891   9.910 -0.0870 -0.5596  1.1071
  577MOL0    Cl77804   1.391   7.897   9.774  0.0322 -0.1288 -0.0980
  577MOL0     C77805   1.278   8.526  10.635  0.3547 -0.2446  0.0681
  577MOL0     C77806   1.239   8.664  10.623  0.3239  0.6766 -0.5762
  577MOL0     O77807   0.965   8.829  10.581  0.0909  0.3501 -0.2339
  577MOL0     C77808   1.150   9.110  10.447 -0.6470  1.1359  0.1361
  577MOL0     C77809   1.166   9.249  10.451  1.1823 -0.2363  0.1144
  577MOL0     N77810   1.129  10.133  10.500  0.2020  0.2548  0.3109
  577MOL0     N77811   1.250  10.165  10.525  0.7555  0.0539 -0.6390
  577MOL0     C77812   2.146  10.047   9.771 -1.2331 -0.4804 -0.4147
  577MOL0     C77813   2.182  10.144   9.669 -0.4119  0.0641  0.2937
  577MOL0     C77814   2.284  10.550   9.466  1.1248  0.9327  1.1064
  577MOL0     C77815   2.339  10.679   9.490  1.0827 -0.0779 -0.1029
  577MOL0     C77816   2.383  10.758   9.387 -0.0602  0.0170  0.1060
  577MOL0     C77817   2.380  10.713   9.255 -0.1557 -0.0195 -0.3806
  577MOL0     O77818   2.408  10.782   9.143 -0.5742  0.0981  0.0967
  577MOL0     C77819   2.405  10.929   9.140  0.1403 -0.2892  0.2764
  577MOL0     C77820   2.267  10.994   9.167  0.5164 -0.3599  1.3494
  577MOL0     C77821   2.281  11.142   9.199 -0.5466 -0.1215  0.7380
  577MOL0     C77822   2.292  11.231   9.079 -0.2477  0.0413  0.7691
  577MOL0     C77823   2.279  11.371   9.112 -0.4191 -0.2820  0.3476
  577MOL0     C77824   2.286  11.479   9.156 -0.0615 -0.2895  0.8357
  577MOL0     C77825   2.316  10.584   9.222 -0.1590 -0.8791  0.3072
  577MOL0     C77826   2.282  10.489   9.325  0.8735  0.2899 -0.1556
  577MOL0     C77827   2.229  10.352   9.277 -0.6491  0.5090  0.6177
  577MOL0     H77828   2.358  10.376   9.830  0.7041 -0.2269  3.4839
  577MOL0     H77829   2.306  10.215  10.020  1.6501 -1.5297 -0.9353
  577MOL0     H77830   2.130   9.956  10.212  0.8401  0.5945  0.2483
  577MOL0     H77831   2.185  10.113  10.171  2.1023 -2.1356  0.6847
  577MOL0     H77832   1.967  10.148  10.058 -1.3730 -1.2897 -0.5111
  577MOL0     H77833   1.948  10.123  10.233  0.3814 -0.9511  0.3184
  577MOL0     H77834   1.907   9.871  10.102 -1.3485 -0.7725  0.6378
  577MOL0     H77835   1.858  10.006   9.992  3.2279  3.4680 -0.4695
  577MOL0     H77836   1.723  10.113  10.176  0.2056 -0.1736  1.5510
  577MOL0     H77837   1.652   9.956  10.126  1.0649 -2.2084  0.1218
  577MOL0     H77838   1.747   9.868  10.346  0.5717 -0.9740  1.9228
  577MOL0     H77839   1.798  10.038  10.372 -1.4623 -1.5850  2.7413
  577MOL0     H77840   1.548  10.085  10.342  0.6810 -1.0140 -0.2638
  577MOL0     H77841   1.519   9.910  10.343  0.0599 -0.9366  1.4250
  577MOL0     H77842   1.671  10.012  10.572 -0.4820  0.5235  0.9407
  577MOL0     H77843   1.580   9.878  10.548  1.7194  0.0673 -0.0652
  577MOL0     H77844   1.457  10.041  10.702  1.2580  0.6985  0.5318
  577MOL0     H77845   1.496  10.182  10.604 -0.4031  1.0107 -1.4200
  577MOL0     H77846   1.300   9.849  10.525 -0.9302 -1.0632 -0.0423
  577MOL0     H77847   0.923   9.936  10.519  0.6512 -0.5966  1.0756
  577MOL0     H77848   0.971   9.926  10.355 -0.0184 -0.2407 -0.4171
  577MOL0     H77849   1.118   9.730  10.421  1.6009 -0.0879  2.2223
  577MOL0     H77850   1.048   9.742  10.589 -0.7644  0.2728  0.6775
  577MOL0     H77851   0.920   9.644  10.339 -0.2283 -3.2577  0.6510
  577MOL0     H77852   0.819   9.686  10.489  0.6305 -2.4252  2.8634
  577MOL0     H77853   0.855   9.445  10.460 -0.4767  1.0561  0.4715
  577MOL0     H77854   0.890   9.530  10.609 -2.1008  0.0590  0.1778
  577MOL0     H77855   0.908   9.308  10.667 -0.6326  0.3092  0.7610
  577MOL0     H77856   0.896   9.073  10.673 -0.1869  2.3561  0.9901
  577MOL0     H77857   1.100   8.645  10.301 -2.0214  0.8674  0.9837
  577MOL0     H77858   1.102   8.403  10.361 -1.0847  0.1538  0.2327
  577MOL0     H77859   1.077   8.201  10.472  0.3795  0.4687 -0.5396
  577MOL0     H77860   1.223   8.223  10.374  1.1760  1.4751  1.4548
  577MOL0     H77861   1.326   8.072  10.558 -0.4008  2.3832  0.8203
  577MOL0     H77862   1.166   8.059  10.636  0.2700  0.3195  0.8815
  577MOL0     H77863   1.233   7.867  10.513  0.1225  0.5389  0.6722
  577MOL0     H77864   1.089   7.945  10.442 -0.6007  3.9102 -1.8714
  577MOL0     H77865   1.366   8.041  10.322  0.5876  0.6370  0.7781
  577MOL0     H77866   1.201   8.032  10.255 -1.5011  0.7992  2.1174
  577MOL0     H77867   1.236   7.796  10.209  1.8345 -1.3764 -1.2828
  577MOL0     H77868   1.383   7.791  10.293  1.2637 -0.0987 -1.9555
  577MOL0     H77869   1.293   7.952  10.046  0.5525 -0.4426 -1.2254
  577MOL0     H77870   1.443   8.003  10.129  0.3624 -0.5643 -0.6251
  577MOL0     H77871   1.401   7.723  10.007 -3.5132  0.3803  2.6674
  577MOL0     H77872   1.537   7.785  10.090 -0.4410 -0.4333 -0.7446
  577MOL0     H77873   1.565   7.986   9.927 -1.0596  0.0694  0.6639
  577MOL0     H77874   1.594   7.824   9.880  0.9021  1.4617 -1.1589
  577MOL0     H77875   1.325   8.502  10.730 -0.5182 -0.1277  0.5406
  577MOL0     H77876   1.272   8.749  10.682 -1.3677  0.3760  0.9331
  577MOL0     H77877   1.228   9.061  10.390  1.3832  4.6301 -0.3741
  577MOL0     H77878   1.241   9.296  10.388 -2.7538  1.5195 -3.7522
  577MOL0     H77879   2.104   9.949   9.750  0.1392 -0.6636 -2.6138
  577MOL0     H77880   2.165  10.126   9.564 -2.0976  0.4117  0.4733
  577MOL0     H77881   2.341  10.728   9.586 -0.8518  0.9242 -0.5102
  577MOL0     H77882   2.431  10.854   9.401  0.7447 -0.3284 -0.2103
  577MOL0     H77883   2.448  10.966   9.046  2.4383  0.4810  1.5359
  577MOL0     H77884   2.471  10.979   9.212  0.3592 -0.2297  0.0398
  577MOL0     H77885   2.232  10.954   9.263  0.4098 -0.7791  1.1379
  577MOL0     H77886   2.189  10.978   9.093  0.3697  0.5650  1.2930
  577MOL0     H77887   2.364  11.161   9.268  0.1252 -1.2615  0.2818
  577MOL0     H77888   2.190  11.169   9.253 -1.5222 -0.0622 -0.8785
  577MOL0     H77889   2.389  11.212   9.032 -1.7754 -2.3375 -1.7286
  577MOL0     H77890   2.212  11.204   9.009  0.7269 -0.3499 -0.2116
  577MOL0     H77891   2.292  11.573   9.207  4.2822 -0.1142  0.3636
  577MOL0     H77892   2.303  10.559   9.117  1.0713  0.6267 -0.2337
  577MOL0     H77893   2.184  10.292   9.357 -2.6002  1.0377 -0.0186
  577MOL0     H77894   2.145  10.372   9.210  1.0504 -0.6670 -2.0400
  577MOL0     H77895   2.300  10.295   9.217 -2.1784 -0.9401  0.0987
  578MOL0     O77896   1.477  10.144   4.384  0.3950 -0.4358  0.8720
  578MOL0     C77897   1.556  10.055   4.405  0.6421 -0.0707 -0.5700
  578MOL0     O77898   1.536   9.937   4.475  0.0157 -0.2077 -0.1886
  578MOL0     C77899   1.405   9.919   4.518  0.2182 -0.0188  0.4309
  578MOL0     C77900   1.365   9.921   4.657  0.0898  0.6420  0.6334
  578MOL0     C77901   1.227   9.894   4.692 -0.4179  0.0048 -0.0930
  578MOL0     C77902   1.132   9.872   4.578 -0.4735  0.6823  0.4987
  578MOL0     O77903   0.998   9.830   4.593  0.5990 -0.3673  0.0543
  578MOL0     C77904   0.963   9.716   4.678 -0.4397  0.6776  0.2472
  578MOL0     C77905   0.964   9.574   4.616  0.5478 -1.1814 -0.0672
  578MOL0     C77906   0.941   9.463   4.728 -0.1803  0.1966 -0.4132
  578MOL0     C77907   0.921   9.323   4.667  0.2291 -0.1483  0.1278
  578MOL0     C77908   1.047   9.274   4.593 -0.7130 -0.1040  0.9574
  578MOL0     C77909   1.023   9.131   4.536  0.5869 -0.9672  0.5768
  578MOL0     C77910   1.118   9.098   4.419  0.2949  0.5709 -0.0681
  578MOL0     C77911   1.273   9.110   4.446 -0.5436  0.6998 -0.4390
  578MOL0     N77912   1.312   9.033   4.563  0.3013 -0.4514  0.0045
  578MOL0     C77913   1.341   8.898   4.571 -0.2978 -0.0135 -0.6745
  578MOL0     C77914   1.379   8.878   4.697 -0.4772  0.1631 -0.8311
  578MOL0     C77915   1.417   8.749   4.768 -0.2519 -0.0584 -0.4285
  578MOL0     C77916   1.560   8.762   4.821 -0.3886 -0.5004 -0.0924
  578MOL0     C77917   1.668   8.791   4.717  0.0824 -0.0454 -0.3956
  578MOL0     C77918   1.766   8.880   4.780  0.0925  0.2559 -0.3066
  578MOL0     O77919   1.831   8.809   4.883 -0.1154 -0.0015  0.3481
  578MOL0     C77920   1.902   8.892   4.962 -0.7877  1.4623  0.1607
  578MOL0     C77921   1.911   8.882   5.102 -0.0320  0.2842  0.2701
  578MOL0     C77922   2.008   8.962   5.171  0.4871  0.5208 -0.5328
  578MOL0     C77923   2.074   9.068   5.119 -1.3108 -0.0309 -0.3478
  578MOL0     C77924   2.168   9.146   5.208 -0.0353  0.5743  0.3058
  578MOL0     O77925   2.222   9.087   5.318 -0.2985 -0.2399  0.3786
  578MOL0     C77926   2.325   9.157   5.373 -0.5724  0.2944 -0.8450
  578MOL0     C77927   2.433   9.212   5.301 -0.0901  0.6107 -0.4604
  578MOL0     C77928   2.528   9.291   5.373 -0.7580  0.5580  0.2292
  578MOL0     C77929   2.528   9.304   5.518  0.8548  0.0077 -0.5410
  578MOL0     O77930   2.610   9.390   5.586 -0.3041  0.0092 -0.5976
  578MOL0     C77931   2.630   9.522   5.526  0.1963 -0.5283 -0.3320
  578MOL0     C77932   2.623   9.634   5.636  0.5910  0.3354 -0.0579
  578MOL0     C77933   2.642   9.776   5.579 -0.4639  0.1482  0.0363
  578MOL0     C77934   2.783   9.820   5.546  0.8500  0.3731 -0.6266
  578MOL0     C77935   2.799   9.971   5.531  0.6200  0.3015  0.2892
  578MOL0     C77936   2.946  10.009   5.478  0.2445 -1.4829  0.1561
  578MOL0     C77937   2.955  10.136   5.410 -0.3274 -0.4111  0.4731
  578MOL0     C77938   3.078  10.153   5.333 -0.3345 -1.0121  0.5549
  578MOL0    Cl77939   3.094  10.036   5.200 -0.4446 -0.1727  0.2286
  578MOL0     C77940   2.423   9.247   5.589 -0.3666 -0.8899  0.6651
  578MOL0     C77941   2.325   9.170   5.513  0.3095  0.3973  0.0001
  578MOL0     O77942   2.185   9.259   5.166 -0.1810 -0.3244 -0.5178
  578MOL0     C77943   2.074   9.075   4.979 -0.3377  0.6073  0.4386
  578MOL0     C77944   1.993   8.985   4.905 -0.7471  0.6798  0.3208
  578MOL0     N77945   1.356   9.000   4.765  0.4894  0.1162  0.5213
  578MOL0     N77946   1.319   9.084   4.688  0.0692 -0.4116  0.4775
  578MOL0     C77947   1.176   9.865   4.446 -1.2432 -0.3609 -0.4461
  578MOL0     C77948   1.312   9.890   4.416  0.3467  0.1982  0.0712
  578MOL0     C77949   1.694  10.074   4.353  0.1659 -0.5007  0.6658
  578MOL0     C77950   1.708  10.139   4.220 -0.3394 -0.8785  0.1602
  578MOL0     C77951   1.830  10.173   4.160  0.0046 -0.7731  0.1077
  578MOL0     C77952   1.946  10.128   4.235 -0.0716  0.1999 -0.5222
  578MOL0     O77953   2.073  10.160   4.187  0.0037 -0.4963 -0.6346
  578MOL0     C77954   2.110  10.304   4.186 -0.4943 -0.3359 -0.0906
  578MOL0     C77955   2.182  10.340   4.056 -0.4075  0.2028 -1.1567
  578MOL0     C77956   2.318  10.250   4.025 -0.1229 -0.0370  0.1854
  578MOL0     C77957   2.445  10.306   4.087 -0.9228  0.2420 -0.1595
  578MOL0     C77958   2.534  10.198   4.131  0.0029  0.1060  1.2017
  578MOL0     C77959   2.631  10.125   4.148 -0.0424 -0.1004  0.0136
  578MOL0     C77960   1.929  10.055   4.355  0.1426 -0.4719 -0.2068
  578MOL0     C77961   1.807  10.011   4.407 -1.6035 -0.2243 -0.6605
  578MOL0     C77962   1.809   9.902   4.516  0.4246 -0.8294  0.3499
  578MOL0     H77963   1.438   9.946   4.734  2.6761 -1.8154 -0.8250
  578MOL0     H77964   1.200   9.885   4.797  1.9689  1.6278  0.7492
  578MOL0     H77965   1.030   9.700   4.763  0.2972 -0.5609 -0.5301
  578MOL0     H77966   0.862   9.734   4.716 -0.7181 -2.1573  1.0755
  578MOL0     H77967   1.067   9.566   4.580  1.5525  1.0212  2.0699
  578MOL0     H77968   0.891   9.561   4.535 -0.1571 -0.1425  0.3942
  578MOL0     H77969   0.848   9.492   4.778  0.3231  3.5351 -1.1612
  578MOL0     H77970   1.020   9.467   4.802  0.3194 -0.7422 -0.8797
  578MOL0     H77971   0.882   9.258   4.747 -1.5280  2.4189  1.4829
  578MOL0     H77972   0.843   9.322   4.591  3.5643 -0.0232 -3.6315
  578MOL0     H77973   1.074   9.331   4.504  0.2488 -0.1501  1.2091
  578MOL0     H77974   1.138   9.287   4.653  1.2343 -2.6776 -1.2036
  578MOL0     H77975   1.025   9.055   4.615  1.5497 -3.5816 -1.7500
  578MOL0     H77976   0.919   9.120   4.506  0.6186 -1.2059  0.5499
  578MOL0     H77977   1.096   9.169   4.339  1.6094  1.4682  0.3352
  578MOL0     H77978   1.099   8.994   4.389  2.6659 -0.2429  0.9381
  578MOL0     H77979   1.323   9.078   4.354 -0.3280  0.6304 -0.2956
  578MOL0     H77980   1.299   9.216   4.449  0.8171  0.3691  2.8447
  578MOL0     H77981   1.349   8.824   4.493  2.0724  0.2358 -0.7545
  578MOL0     H77982   1.352   8.718   4.850  0.0237  2.2118  0.7374
  578MOL0     H77983   1.423   8.677   4.686 -2.1503 -1.2859  0.4538
  578MOL0     H77984   1.557   8.850   4.887 -0.4541 -1.2770  0.9707
  578MOL0     H77985   1.583   8.678   4.888  0.3007 -0.3046 -0.0733
  578MOL0     H77986   1.633   8.841   4.626  2.4229  0.3736 -1.1341
  578MOL0     H77987   1.716   8.700   4.681 -1.2348 -0.9601  0.1108
  578MOL0     H77988   1.725   8.976   4.812 -0.9765 -0.2690 -0.0596
  578MOL0     H77989   1.842   8.909   4.707  0.4571  0.8678  0.3190
  578MOL0     H77990   1.854   8.801   5.145  4.2622 -4.2649 -1.5865
  578MOL0     H77991   2.028   8.939   5.275 -0.9287 -0.2202 -0.4089
  578MOL0     H77992   2.449   9.209   5.193 -0.0135 -0.6236 -0.4308
  578MOL0     H77993   2.615   9.334   5.325  1.7616 -4.0783  0.0642
  578MOL0     H77994   2.728   9.523   5.478  0.9471  3.5604  0.9095
  578MOL0     H77995   2.554   9.557   5.456 -0.2548  0.3310  0.5561
  578MOL0     H77996   2.523   9.636   5.680 -0.7322 -1.1017 -2.7482
  578MOL0     H77997   2.699   9.618   5.714  0.8554 -2.0801 -0.7404
  578MOL0     H77998   2.571   9.775   5.496 -1.1100  0.7866  0.5742
  578MOL0     H77999   2.596   9.832   5.660 -2.2936  1.1102 -1.6037
  578MOL0     H78000   2.842   9.774   5.467  2.4683  1.4913 -0.1271
  578MOL0     H78001   2.837   9.793   5.637  0.8427  0.4595 -0.5968
  578MOL0     H78002   2.775  10.006   5.631 -2.5200 -0.0147 -0.2500
  578MOL0     H78003   2.716  10.000   5.465  1.2036 -1.7566 -1.4720
  578MOL0     H78004   3.015  10.023   5.562  0.0131  2.5686 -0.1349
  578MOL0     H78005   2.969   9.935   5.401  1.4747  0.6948 -1.6709
  578MOL0     H78006   2.942  10.218   5.482  1.8767 -3.3349  4.6151
  578MOL0     H78007   2.873  10.131   5.338 -0.6173 -2.9378  0.9068
  578MOL0     H78008   3.085  10.252   5.287  2.1111 -1.7756 -0.9400
  578MOL0     H78009   3.167  10.149   5.398  1.4465 -0.8846 -1.7269
  578MOL0     H78010   2.417   9.281   5.692  0.2388 -0.3237  0.5206
  578MOL0     H78011   2.247   9.122   5.572 -2.5194  0.7950 -3.1035
  578MOL0     H78012   2.132   9.145   4.920 -0.6063 -1.2813 -2.2498
  578MOL0     H78013   2.014   8.984   4.798  0.9506 -0.0827  0.6343
  578MOL0     H78014   1.111   9.841   4.363  0.4955  0.0948 -2.0069
  578MOL0     H78015   1.345   9.903   4.314  1.5751 -1.3761  0.2154
  578MOL0     H78016   1.615  10.154   4.165 -0.6072 -1.3224  0.4893
  578MOL0     H78017   1.832  10.224   4.065  1.9903 -0.1661  0.4315
  578MOL0     H78018   2.181  10.340   4.260  3.4547  0.8483 -3.9799
  578MOL0     H78019   2.021  10.367   4.185 -0.1043  0.2101 -0.3473
  578MOL0     H78020   2.215  10.440   4.088 -2.9429  1.5080 -2.3097
  578MOL0     H78021   2.115  10.351   3.971 -1.7012  1.5654 -0.0304
  578MOL0     H78022   2.328  10.248   3.916  1.4516 -1.7776  0.3196
  578MOL0     H78023   2.296  10.146   4.051  0.3387  0.0644  1.0171
  578MOL0     H78024   2.498  10.377   4.024  2.1875  0.5518  2.5297
  578MOL0     H78025   2.416  10.362   4.176 -1.0905 -2.0264  1.3023
  578MOL0     H78026   2.713  10.061   4.172  2.5461  2.5761 -1.0534
  578MOL0     H78027   2.022  10.022   4.398 -0.7933 -1.7509  0.9491
  578MOL0     H78028   1.760   9.933   4.608  4.5455  0.5747  2.3288
  578MOL0     H78029   1.767   9.806   4.487  0.5760 -0.7636 -0.0996
  578MOL0     H78030   1.916   9.902   4.538  0.8009  2.9306 -0.7197
  579MOL0     O78031   4.906   9.368   3.911 -0.5627  0.2100  0.3304
  579MOL0     C78032   4.884   9.314   3.802  1.8102 -0.0898 -0.1766
  579MOL0     O78033   4.967   9.265   3.709 -0.8528  0.3237  0.2797
  579MOL0     C78034   5.093   9.317   3.693  0.4196  0.7843  0.4319
  579MOL0     C78035   5.126   9.447   3.734  0.6347  1.0197  0.8027
  579MOL0     C78036   5.254   9.493   3.728 -0.0530  0.6558  0.8517
  579MOL0     C78037   5.361   9.409   3.698  0.5656 -0.2622  0.3462
  579MOL0     O78038   5.490   9.457   3.687  0.2605  0.3731  0.9757
  579MOL0     C78039   5.600   9.373   3.674  0.3012  0.2935  0.6000
  579MOL0     C78040   5.737   9.437   3.700  0.5621  0.1919  0.1518
  579MOL0     C78041   5.792   9.530   3.596 -0.2473 -0.9340  0.3698
  579MOL0     C78042   5.933   9.577   3.634 -0.0580 -0.0758 -1.1126
  579MOL0     C78043   6.006   9.640   3.511 -0.7715  0.3040  0.6382
  579MOL0     C78044   6.156   9.666   3.528 -0.4674  0.0911  0.1013
  579MOL0     C78045   6.204   9.790   3.606 -0.4969 -0.3263 -0.3716
  579MOL0     C78046   6.144   9.924   3.548  0.0359 -0.4826  0.4679
  579MOL0     N78047   6.190  10.047   3.614  0.0811  0.3769  0.0620
  579MOL0     C78048   6.311  10.110   3.588  0.7758  0.2276 -0.8799
  579MOL0     C78049   6.324  10.213   3.667 -0.9063 -0.6106 -0.4017
  579MOL0     C78050   6.438  10.311   3.667  0.1593 -0.2510  0.1653
  579MOL0     C78051   6.407  10.464   3.684 -0.4153  0.1915  0.3036
  579MOL0     C78052   6.537  10.550   3.676  0.5290 -0.1522  0.5889
  579MOL0     C78053   6.529  10.685   3.738  0.0055  0.6081  0.1456
  579MOL0     O78054   6.644  10.760   3.712  0.7234  0.2239 -0.3731
  579MOL0     C78055   6.764  10.742   3.790  0.0243 -0.8646 -0.0226
  579MOL0     C78056   6.774  10.652   3.896 -0.0530 -0.5410  0.3496
  579MOL0     C78057   6.891  10.660   3.985  0.4670  0.1177 -0.1153
  579MOL0     C78058   6.996  10.750   3.965 -0.6764 -0.2935 -0.0146
  579MOL0     C78059   7.119  10.756   4.054 -0.4045 -0.3279 -0.7954
  579MOL0     O78060   7.207  10.861   4.044 -0.1974 -0.1805  0.1798
  579MOL0     C78061   7.316  10.865   4.134  0.1262 -0.3990  0.7023
  579MOL0     C78062   7.356  10.995   4.181  1.1409 -0.1078  0.0172
  579MOL0     C78063   7.460  11.007   4.261  0.5729 -0.0509  0.5105
  579MOL0     C78064   7.543  10.908   4.310 -0.7214 -0.1980  0.4662
  579MOL0     O78065   7.651  10.930   4.388  0.4869 -0.3782  1.0801
  579MOL0     C78066   7.742  10.830   4.430  0.1646  0.5139 -0.6490
  579MOL0     C78067   7.862  10.879   4.506 -0.2657 -1.0436  0.5198
  579MOL0     C78068   7.809  10.932   4.633  0.1553  0.9459 -0.1137
  579MOL0     C78069   7.742  10.825   4.722 -0.4610 -0.5079  0.2927
  579MOL0     C78070   7.717  10.881   4.866 -0.1106  0.1477  0.1142
  579MOL0     C78071   7.666  10.778   4.959 -0.4147 -1.7437 -0.2526
  579MOL0     C78072   7.740  10.785   5.104 -0.2681  1.0724  0.9564
  579MOL0     C78073   7.637  10.861   5.205  0.4684  0.5463  0.0144
  579MOL0    Cl78074   7.711  10.832   5.358 -0.3668 -0.5381  0.4960
  579MOL0     C78075   7.504  10.780   4.280  0.3658 -0.0737 -0.5067
  579MOL0     C78076   7.388  10.761   4.195 -0.1011 -0.4248  1.1686
  579MOL0     O78077   7.121  10.666   4.139  0.5700 -0.4056 -0.6804
  579MOL0     C78078   6.971  10.840   3.850  0.8379 -0.6696 -0.3605
  579MOL0     C78079   6.856  10.844   3.778  1.1634  1.3282  0.5463
  579MOL0     N78080   6.199  10.224   3.743 -0.2265 -0.0052  1.0103
  579MOL0     N78081   6.125  10.125   3.712  0.8063 -1.0333 -0.5141
  579MOL0     C78082   5.323   9.283   3.651  0.6000 -0.1879  1.3699
  579MOL0     C78083   5.196   9.232   3.634  0.4326 -1.1264  0.1902
  579MOL0     C78084   4.740   9.275   3.789  0.5984 -1.1011 -0.8013
  579MOL0     C78085   4.673   9.221   3.901 -1.0155  0.6412 -1.3540
  579MOL0     C78086   4.542   9.162   3.900  0.6219  0.2229 -0.3452
  579MOL0     C78087   4.457   9.190   3.784  0.5553 -0.0076 -1.5036
  579MOL0     O78088   4.329   9.148   3.753 -0.6391  0.0391 -0.7472
  579MOL0     C78089   4.263   9.070   3.855 -0.8472  0.7907 -0.6281
  579MOL0     C78090   4.212   9.155   3.961 -0.4753 -0.3041  0.0093
  579MOL0     C78091   4.142   9.071   4.057  0.1237 -0.8996 -1.0199
  579MOL0     C78092   4.177   9.102   4.206 -0.0678 -0.4773 -0.3945
  579MOL0     C78093   4.291   9.028   4.253  0.2698 -0.0172  0.2434
  579MOL0     C78094   4.384   8.963   4.301  0.1659  0.0771  0.1140
  579MOL0     C78095   4.505   9.270   3.689 -0.3749 -0.1355 -0.0234
  579MOL0     C78096   4.649   9.304   3.685  0.0534 -0.3848 -1.0501
  579MOL0     C78097   4.715   9.363   3.562  0.4297  0.5663 -0.7909
  579MOL0     H78098   5.047   9.511   3.771 -1.2075 -1.0552  0.6407
  579MOL0     H78099   5.261   9.598   3.755 -1.4145  1.1931 -0.7542
  579MOL0     H78100   5.582   9.283   3.734  0.5151  0.8075  1.4506
  579MOL0     H78101   5.599   9.331   3.573  0.7011 -1.9504  1.4638
  579MOL0     H78102   5.800   9.348   3.701  3.0718  1.6772 -3.4729
  579MOL0     H78103   5.737   9.473   3.803  3.5024 -1.0770  0.6741
  579MOL0     H78104   5.726   9.617   3.585  0.3566 -0.6777 -1.5888
  579MOL0     H78105   5.795   9.485   3.496 -1.1282 -0.6007  0.1823
  579MOL0     H78106   5.926   9.656   3.709 -0.6176  0.6754 -1.9353
  579MOL0     H78107   5.994   9.495   3.674  3.7403  2.3680 -1.4574
  579MOL0     H78108   5.999   9.562   3.435  0.1522  2.8354 -2.2654
  579MOL0     H78109   5.963   9.735   3.477 -0.5467  0.3770  0.5550
  579MOL0     H78110   6.206   9.578   3.571  1.0428  0.5826 -0.5581
  579MOL0     H78111   6.188   9.670   3.423  0.1819 -0.3574  0.2721
  579MOL0     H78112   6.313   9.792   3.614 -0.5100 -0.8360 -0.1070
  579MOL0     H78113   6.177   9.777   3.711 -0.0157 -1.8589 -0.4187
  579MOL0     H78114   6.167   9.941   3.442  1.9787 -0.7854  0.8028
  579MOL0     H78115   6.035   9.912   3.555 -0.3015  1.1895 -1.1216
  579MOL0     H78116   6.379  10.088   3.506  1.9751 -2.3518  0.6533
  579MOL0     H78117   6.508  10.283   3.746  1.0364  0.9122 -0.1662
  579MOL0     H78118   6.484  10.300   3.568  2.1999  1.8427  0.7873
  579MOL0     H78119   6.346  10.488   3.596 -0.1966  1.4983  0.4748
  579MOL0     H78120   6.350  10.480   3.776  0.0788  0.0089  0.6443
  579MOL0     H78121   6.548  10.559   3.568 -3.9816  0.5570 -0.0141
  579MOL0     H78122   6.622  10.501   3.724  1.2114  1.1121  0.7288
  579MOL0     H78123   6.516  10.683   3.847 -0.9398 -1.1831  0.0299
  579MOL0     H78124   6.442  10.728   3.688  2.8201  2.5385 -3.5929
  579MOL0     H78125   6.699  10.576   3.920  1.0700 -2.1923 -1.1036
  579MOL0     H78126   6.883  10.606   4.079 -0.8355 -0.6222 -0.6211
  579MOL0     H78127   7.308  11.082   4.136  0.8745 -0.9673 -1.4399
  579MOL0     H78128   7.493  11.106   4.289  1.2258 -0.4471  1.2039
  579MOL0     H78129   7.684  10.754   4.484 -1.6221  2.4467  0.2864
  579MOL0     H78130   7.780  10.778   4.341 -0.4986  1.3756 -1.4570
  579MOL0     H78131   7.939  10.804   4.524 -0.6827 -1.4051  0.8257
  579MOL0     H78132   7.913  10.957   4.450 -0.6835  0.2954  1.9278
  579MOL0     H78133   7.897  10.970   4.686 -0.3807 -0.4531  1.8900
  579MOL0     H78134   7.743  11.018   4.623  2.3138  2.5048 -1.9287
  579MOL0     H78135   7.812  10.742   4.729  0.1855  0.0905  1.1355
  579MOL0     H78136   7.647  10.796   4.676  0.6611 -0.4146 -2.2189
  579MOL0     H78137   7.650  10.968   4.865  2.5539  2.3371  0.7180
  579MOL0     H78138   7.811  10.928   4.896  0.4323 -0.4971 -0.5409
  579MOL0     H78139   7.561  10.805   4.978 -0.3402  2.8328 -4.3747
  579MOL0     H78140   7.676  10.681   4.909 -0.6385 -2.9613  1.9239
  579MOL0     H78141   7.840  10.827   5.105 -0.7552  2.2503  2.0745
  579MOL0     H78142   7.750  10.683   5.143 -1.7353  0.4411 -0.1985
  579MOL0     H78143   7.632  10.967   5.179  1.9101  0.0830 -2.5178
  579MOL0     H78144   7.533  10.830   5.195  0.2231  1.9068 -2.5073
  579MOL0     H78145   7.552  10.693   4.324 -2.3267 -2.6809 -2.3080
  579MOL0     H78146   7.360  10.657   4.181 -0.3410 -0.4951  2.1291
  579MOL0     H78147   7.042  10.920   3.832  2.2485 -1.6688  0.5970
  579MOL0     H78148   6.836  10.910   3.693  1.1746  1.1090  0.3738
  579MOL0     H78149   5.399   9.217   3.612  1.7071  1.1044  1.2729
  579MOL0     H78150   5.160   9.142   3.585 -2.3533 -0.6244  1.1316
  579MOL0     H78151   4.729   9.192   3.990 -1.3198 -3.1440 -2.2395
  579MOL0     H78152   4.513   9.106   3.988  1.6125  0.7920  0.3612
  579MOL0     H78153   4.326   8.992   3.899 -2.3706 -3.1002 -4.6289
  579MOL0     H78154   4.173   9.018   3.822 -1.0437  1.7179 -1.5953
  579MOL0     H78155   4.152   9.236   3.919 -0.7077 -0.5949 -0.2216
  579MOL0     H78156   4.301   9.199   4.007  0.2284  0.6419 -2.1305
  579MOL0     H78157   4.143   8.967   4.024  0.0959 -0.9804 -0.7758
  579MOL0     H78158   4.035   9.092   4.043  0.6036  4.8978  1.0931
  579MOL0     H78159   4.199   9.207   4.227 -0.2417 -0.3298 -0.9284
  579MOL0     H78160   4.092   9.066   4.265  1.3755  0.3067  2.3054
  579MOL0     H78161   4.462   8.894   4.324 -1.3126 -1.8154 -0.2792
  579MOL0     H78162   4.454   9.282   3.594  1.5832 -1.6931 -1.3478
  579MOL0     H78163   4.647   9.401   3.485  0.5460  0.4026 -0.9760
  579MOL0     H78164   4.771   9.450   3.597  1.8523 -0.2266 -1.0072
  579MOL0     H78165   4.778   9.282   3.523  0.1209 -0.4614  0.7614
  580MOL0     O78166   6.967  11.346   0.257  0.1758 -0.8795 -0.8176
  580MOL0     C78167   7.021  11.236   0.241  0.4365 -0.0387 -0.1677
  580MOL0     O78168   7.030  11.143   0.349 -0.3134 -0.6736  0.6688
  580MOL0     C78169   6.965  11.179   0.465  0.2364 -0.3306  1.0926
  580MOL0     C78170   7.047  11.244   0.564 -0.0750 -0.0782  0.5080
  580MOL0     C78171   6.989  11.272   0.683 -0.6019 -0.5423 -1.0309
  580MOL0     C78172   6.851  11.256   0.708 -0.3261  0.5356  0.1330
  580MOL0     O78173   6.791  11.312   0.815  0.6395  0.3397 -0.4249
  580MOL0     C78174   6.838  11.254   0.939  0.2654  1.4670 -0.2889
  580MOL0     C78175   6.792  11.339   1.058  0.4078 -0.0329 -0.7922
  580MOL0     C78176   6.780  11.486   1.035 -0.1222  0.5129  0.4745
  580MOL0     C78177   6.720  11.550   1.150 -0.4149 -0.9965  0.2188
  580MOL0     C78178   6.680  11.699   1.121 -0.5132  0.0235 -0.6669
  580MOL0     C78179   6.616  11.777   1.239  1.2670 -0.3968 -0.1651
  580MOL0     C78180   6.486  11.704   1.283 -0.2136  0.0574  0.8223
  580MOL0     C78181   6.423  11.756   1.414  0.2019 -0.3217  0.4463
  580MOL0     N78182   6.361  11.897   1.408 -0.4598  0.2977 -0.2277
  580MOL0     C78183   6.429  12.016   1.413  0.2114  0.5869  1.0736
  580MOL0     C78184   6.344  12.113   1.411  0.3413 -0.2046 -0.7788
  580MOL0     C78185   6.362  12.262   1.422 -0.6683 -0.1174 -0.9126
  580MOL0     C78186   6.340  12.341   1.301 -0.2090  0.5251 -0.2473
  580MOL0     C78187   6.399  12.295   1.175  0.1664  0.0101  0.0039
  580MOL0     C78188   6.307  12.208   1.087 -0.4203 -0.8197 -0.4275
  580MOL0     O78189   6.359  12.216   0.954 -0.1514  0.4124 -0.1835
  580MOL0     C78190   6.475  12.154   0.910  0.1330  0.0424 -0.2806
  580MOL0     C78191   6.543  12.068   0.989  0.0847  0.6207  0.4369
  580MOL0     C78192   6.676  12.025   0.946 -0.1478 -0.2971  0.7954
  580MOL0     C78193   6.730  12.071   0.818  0.1049  0.0299 -0.0383
  580MOL0     C78194   6.868  12.034   0.784 -0.1520 -0.0345 -1.4051
  580MOL0     O78195   6.936  11.978   0.891  0.3233 -0.1169 -0.2219
  580MOL0     C78196   7.064  11.934   0.888  0.0954  0.2223  0.5626
  580MOL0     C78197   7.074  11.800   0.921 -0.0990  0.6748 -1.0770
  580MOL0     C78198   7.206  11.748   0.907 -0.1193  0.8279 -1.1866
  580MOL0     C78199   7.318  11.829   0.879  1.1052  0.4940 -0.5013
  580MOL0     O78200   7.441  11.768   0.887 -0.0333 -0.0105  0.7893
  580MOL0     C78201   7.556  11.838   0.863 -0.1700  0.1923  0.1066
  580MOL0     C78202   7.673  11.749   0.901 -0.3197  1.2250  0.1317
  580MOL0     C78203   7.669  11.612   0.811  0.5670  0.0809  0.4778
  580MOL0     C78204   7.758  11.512   0.880 -0.5275 -1.0042  0.3311
  580MOL0     C78205   7.745  11.371   0.833  0.3553  0.5992  0.2382
  580MOL0     C78206   7.782  11.333   0.674  0.9500 -0.4082  0.4003
  580MOL0     C78207   7.807  11.190   0.641  0.7683  0.3608 -0.5842
  580MOL0     C78208   7.890  11.185   0.525 -0.3615  0.2324  0.6503
  580MOL0    Cl78209   7.894  11.007   0.481 -0.0280  0.0382 -0.3595
  580MOL0     C78210   7.301  11.958   0.843  0.8146 -1.1268 -0.3117
  580MOL0     C78211   7.172  12.010   0.844  0.0051 -0.3515 -0.5013
  580MOL0     O78212   6.920  12.077   0.679 -0.0133 -0.0725 -0.1113
  580MOL0     C78213   6.642  12.146   0.730  0.0430 -0.3584  0.1007
  580MOL0     C78214   6.525  12.191   0.783 -0.0816  0.6839  0.1925
  580MOL0     N78215   6.213  12.060   1.398 -0.3818  0.5501  0.0346
  580MOL0     N78216   6.226  11.931   1.397 -1.1805 -0.2153 -0.9044
  580MOL0     C78217   6.775  11.183   0.615  0.0923  0.2994  0.6290
  580MOL0     C78218   6.823  11.143   0.492 -0.3192 -0.6158  0.1427
  580MOL0     C78219   7.077  11.203   0.103  0.7300  0.6870  0.1081
  580MOL0     C78220   7.095  11.071   0.065 -0.3402  0.1047  0.1126
  580MOL0     C78221   7.139  11.031  -0.055  0.7309 -0.4343  0.2359
  580MOL0     C78222   7.166  11.122  -0.154  0.7619  0.3274 -0.1413
  580MOL0     O78223   7.210  11.070  -0.268 -0.0904  0.0678 -0.3203
  580MOL0     C78224   7.103  11.043  -0.366  0.5142 -0.2438 -0.4441
  580MOL0     C78225   7.136  10.934  -0.469  0.4306 -0.2966 -0.8011
  580MOL0     C78226   6.998  10.889  -0.537  1.0130 -1.1154 -0.4447
  580MOL0     C78227   7.008  10.776  -0.643  0.5324 -0.3718 -0.6050
  580MOL0     C78228   7.062  10.817  -0.771 -0.2077 -0.4143  0.7735
  580MOL0     C78229   7.115  10.857  -0.875 -0.9782  0.0475  0.3003
  580MOL0     C78230   7.156  11.254  -0.121 -0.5718  0.1525  0.5482
  580MOL0     C78231   7.107  11.298   0.004 -0.0563  0.6796  0.0382
  580MOL0     C78232   7.122  11.447   0.036 -0.1560 -0.0048  0.1048
  580MOL0     H78233   7.152  11.266   0.551 -0.5505  1.9130 -0.3908
  580MOL0     H78234   7.048  11.308   0.766 -0.5642 -2.6082 -0.1102
  580MOL0     H78235   6.796  11.153   0.951 -0.6315  1.9880  1.1385
  580MOL0     H78236   6.946  11.248   0.949  0.1443 -1.1575  0.2074
  580MOL0     H78237   6.862  11.319   1.140 -1.2072 -0.9655  0.4174
  580MOL0     H78238   6.693  11.315   1.097 -1.7720  5.6499 -1.9258
  580MOL0     H78239   6.729  11.506   0.940  2.2206 -0.1654 -1.0108
  580MOL0     H78240   6.885  11.510   1.012  0.1014 -1.1552 -0.4408
  580MOL0     H78241   6.641  11.488   1.193 -0.7303 -0.9305 -0.2669
  580MOL0     H78242   6.795  11.546   1.229 -1.8367 -0.4295  1.6575
  580MOL0     H78243   6.771  11.753   1.094  0.1171 -0.0614  1.2108
  580MOL0     H78244   6.612  11.697   1.035 -1.9173 -1.4620  0.4098
  580MOL0     H78245   6.680  11.791   1.326  2.1713  4.2971 -1.3097
  580MOL0     H78246   6.591  11.880   1.212 -0.0333  0.0426  2.3877
  580MOL0     H78247   6.497  11.600   1.315 -0.5913  1.1163  4.8780
  580MOL0     H78248   6.412  11.697   1.202  0.6612 -4.1830  0.1611
  580MOL0     H78249   6.335  11.693   1.431 -0.0786 -1.2198 -3.4772
  580MOL0     H78250   6.498  11.749   1.494 -0.4376 -3.5397  0.8864
  580MOL0     H78251   6.534  12.035   1.431  1.1879 -0.2771 -2.7926
  580MOL0     H78252   6.313  12.308   1.508  2.1486  0.3246  0.5966
  580MOL0     H78253   6.469  12.271   1.443 -0.2095  1.1145 -3.4004
  580MOL0     H78254   6.231  12.349   1.296 -0.1622  0.7464 -1.1035
  580MOL0     H78255   6.384  12.440   1.318  0.0879  0.7900 -2.3694
  580MOL0     H78256   6.499  12.254   1.194  0.3989  1.3463  2.0255
  580MOL0     H78257   6.419  12.386   1.117 -0.0542  0.7647  1.0737
  580MOL0     H78258   6.215  12.267   1.084  1.6697  3.3265  4.1038
  580MOL0     H78259   6.289  12.109   1.131  1.5924 -1.0777 -0.1187
  580MOL0     H78260   6.513  12.036   1.088  1.3106  0.0796  0.6508
  580MOL0     H78261   6.732  11.961   1.013  1.4410  0.6794  0.4603
  580MOL0     H78262   6.990  11.743   0.959 -0.0399  1.2743 -0.0055
  580MOL0     H78263   7.221  11.644   0.933  2.1561  1.5836  0.9093
  580MOL0     H78264   7.569  11.860   0.756  1.1442  1.9441  0.5915
  580MOL0     H78265   7.554  11.933   0.916 -0.1166  0.8496 -1.0397
  580MOL0     H78266   7.763  11.800   0.867 -0.0897  0.4865 -0.3862
  580MOL0     H78267   7.676  11.712   1.004 -0.3048  4.0144  1.2184
  580MOL0     H78268   7.567  11.573   0.803 -0.3059  2.5720 -2.5017
  580MOL0     H78269   7.709  11.640   0.713 -0.3048  2.2017  0.6572
  580MOL0     H78270   7.730  11.511   0.985 -0.1669  0.4953  0.4670
  580MOL0     H78271   7.863  11.536   0.862 -1.1748  0.9397 -1.3653
  580MOL0     H78272   7.645  11.330   0.849 -0.2749  2.3483  1.0059
  580MOL0     H78273   7.804  11.309   0.901 -3.0768 -3.3197  0.0348
  580MOL0     H78274   7.710  11.378   0.606  1.0394 -1.9511 -0.7528
  580MOL0     H78275   7.870  11.387   0.638  0.5132 -2.1920 -3.9192
  580MOL0     H78276   7.710  11.140   0.630  1.1966 -0.3221 -1.4038
  580MOL0     H78277   7.868  11.133   0.712 -1.5345 -0.0107  1.2357
  580MOL0     H78278   7.844  11.241   0.443  3.8600  1.1989 -1.3460
  580MOL0     H78279   7.993  11.220   0.531  0.5620 -1.9361 -1.1855
  580MOL0     H78280   7.390  12.019   0.848  0.5353 -0.8330  1.8890
  580MOL0     H78281   7.141  12.113   0.829 -1.2007 -0.7592 -0.9515
  580MOL0     H78282   6.671  12.195   0.638 -0.1003 -1.3105 -0.4549
  580MOL0     H78283   6.456  12.260   0.734 -0.0238  0.1236 -0.7036
  580MOL0     H78284   6.671  11.172   0.642  0.3261 -1.2890  0.9690
  580MOL0     H78285   6.762  11.090   0.420 -3.3335  2.5075  0.1452
  580MOL0     H78286   7.095  10.994   0.142 -0.1314  0.8144  0.8348
  580MOL0     H78287   7.135  10.925  -0.078 -3.7952 -0.7871  1.7125
  580MOL0     H78288   7.070  11.128  -0.427 -0.9576 -1.7010 -1.7674
  580MOL0     H78289   7.015  11.010  -0.310  0.0096  0.5707 -0.7369
  580MOL0     H78290   7.171  10.851  -0.406  2.4631 -2.2334 -4.1903
  580MOL0     H78291   7.223  10.954  -0.532  1.1471  0.4495  0.3947
  580MOL0     H78292   6.954  10.977  -0.586  1.6555 -0.2529  0.5021
  580MOL0     H78293   6.923  10.855  -0.466  0.9833 -1.3569 -0.5894
  580MOL0     H78294   7.067  10.696  -0.597 -0.3684 -2.9288 -3.5515
  580MOL0     H78295   6.910  10.731  -0.659  0.0440 -0.2451  1.6001
  580MOL0     H78296   7.150  10.887  -0.971  2.2984 -0.9968  1.0105
  580MOL0     H78297   7.191  11.336  -0.182  1.4365 -0.3122  0.9999
  580MOL0     H78298   7.168  11.502  -0.046  0.1135 -0.6071 -0.1554
  580MOL0     H78299   7.031  11.504   0.055 -1.0963 -1.4484  0.1355
  580MOL0     H78300   7.185  11.462   0.125 -0.3644 -1.4380  0.5306
  581MOL0     O78301  10.091   6.431   2.693  0.4079 -0.1293  0.3100
  581MOL0     C78302  10.200   6.481   2.673  1.0393  0.5649 -1.2586
  581MOL0     O78303  10.279   6.534   2.774 -0.3674  0.7910 -0.1493
  581MOL0     C78304  10.227   6.549   2.903  0.6544  0.2989 -0.0247
  581MOL0     C78305  10.223   6.424   2.971  0.4744 -0.3689  0.2757
  581MOL0     C78306  10.175   6.414   3.098  0.3372 -0.6710 -0.0866
  581MOL0     C78307  10.122   6.526   3.162 -0.0221 -0.4037  1.0578
  581MOL0     O78308  10.060   6.505   3.280  0.2705 -0.1049 -0.9934
  581MOL0     C78309  10.026   6.621   3.358 -1.3232  0.7804 -0.5315
  581MOL0     C78310   9.972   6.583   3.490 -0.6532  0.3015 -0.7728
  581MOL0     C78311  10.076   6.543   3.585  0.3643 -0.5896 -0.4462
  581MOL0     C78312  10.021   6.548   3.733  0.1107  0.0307 -0.2297
  581MOL0     C78313  10.125   6.503   3.843 -0.4145 -0.2374 -1.0486
  581MOL0     C78314  10.074   6.552   3.981  0.3340 -0.6096 -0.7575
  581MOL0     C78315  10.163   6.512   4.096 -0.7607 -0.4568 -0.0072
  581MOL0     C78316  10.119   6.564   4.236  0.0138 -0.6396  1.2731
  581MOL0     N78317   9.991   6.506   4.278  0.0269 -0.8170  0.3352
  581MOL0     C78318   9.969   6.448   4.402  0.0192 -0.7506 -0.3554
  581MOL0     C78319   9.843   6.408   4.404  0.1989  0.0370  0.1630
  581MOL0     C78320   9.773   6.341   4.525 -0.5003  0.1822  0.4051
  581MOL0     C78321   9.624   6.387   4.513  0.5674  0.5446  0.5734
  581MOL0     C78322   9.529   6.361   4.636  0.4651  0.4090  1.1788
  581MOL0     C78323   9.417   6.467   4.642 -0.1435 -0.1393  0.1063
  581MOL0     O78324   9.342   6.475   4.515 -1.2483  0.2658  0.2645
  581MOL0     C78325   9.288   6.594   4.488  0.0154  1.0474 -0.0016
  581MOL0     C78326   9.197   6.663   4.566  0.9936 -0.3474  0.8687
  581MOL0     C78327   9.148   6.784   4.521 -0.0616 -0.8156  0.5821
  581MOL0     C78328   9.183   6.833   4.400 -0.4934 -1.2459  0.0456
  581MOL0     C78329   9.111   6.951   4.349  0.2771 -0.2025 -0.0397
  581MOL0     O78330   9.146   6.999   4.217 -0.3142  0.0391  0.3417
  581MOL0     C78331   9.036   7.053   4.146  0.4164  0.6670  0.4425
  581MOL0     C78332   9.057   7.179   4.088 -1.1539  0.5723  0.8513
  581MOL0     C78333   8.955   7.236   4.007  0.1850 -0.1782  0.0481
  581MOL0     C78334   8.836   7.174   3.982 -0.1931  0.9042 -0.1862
  581MOL0     O78335   8.752   7.227   3.888 -0.2174  0.6797 -0.0494
  581MOL0     C78336   8.625   7.160   3.852 -0.4347 -0.6384 -0.2300
  581MOL0     C78337   8.572   7.220   3.716 -0.3687  0.6803 -0.2767
  581MOL0     C78338   8.522   7.361   3.740 -0.5528 -0.1347  0.4977
  581MOL0     C78339   8.392   7.362   3.805 -0.8039 -0.2596  0.6877
  581MOL0     C78340   8.327   7.502   3.804  0.1214 -0.5857 -0.1827
  581MOL0     C78341   8.381   7.623   3.881  0.7522 -0.2735  0.3766
  581MOL0     C78342   8.353   7.591   4.026 -0.6871 -0.3169  1.4231
  581MOL0     C78343   8.414   7.703   4.113 -0.3219 -0.1269 -0.1283
  581MOL0    Cl78344   8.376   7.649   4.283  0.4710  0.0666  0.2373
  581MOL0     C78345   8.815   7.043   4.038  0.4276 -1.1130  0.2402
  581MOL0     C78346   8.917   6.979   4.119 -0.2242 -0.7248  0.9553
  581MOL0     O78347   9.011   6.994   4.408  0.2841 -0.2870 -0.7408
  581MOL0     C78348   9.274   6.759   4.319  0.0260  0.3947 -0.1225
  581MOL0     C78349   9.337   6.644   4.372  0.8448  0.4375  0.9649
  581MOL0     N78350   9.787   6.443   4.285 -0.2683 -0.6536 -0.6902
  581MOL0     N78351   9.878   6.495   4.209 -0.0629 -0.0090  0.3916
  581MOL0     C78352  10.124   6.649   3.085  0.5782 -0.6135 -0.2110
  581MOL0     C78353  10.176   6.667   2.963 -0.5041 -0.0143  0.2627
  581MOL0     C78354  10.258   6.471   2.535 -0.5300  0.4696  0.2909
  581MOL0     C78355  10.189   6.400   2.437  0.6666  0.1178 -0.2567
  581MOL0     C78356  10.238   6.370   2.312  0.0118  1.0766 -0.5262
  581MOL0     C78357  10.363   6.430   2.273  0.7108  0.7043 -0.2255
  581MOL0     O78358  10.410   6.433   2.149  0.6158 -0.2116 -0.2916
  581MOL0     C78359  10.493   6.321   2.087  0.0568  0.1428 -1.4127
  581MOL0     C78360  10.399   6.212   2.044 -0.6488  0.6965  0.3747
  581MOL0     C78361  10.298   6.269   1.945 -0.0251 -0.3699 -0.4788
  581MOL0     C78362  10.209   6.147   1.892  0.0840  0.2427 -0.2977
  581MOL0     C78363  10.122   6.187   1.784  1.0434  0.4567  0.8828
  581MOL0     C78364  10.057   6.237   1.693  0.9544 -0.3532  0.6281
  581MOL0     C78365  10.445   6.491   2.367  0.5594 -0.8174 -0.9175
  581MOL0     C78366  10.391   6.522   2.495  0.4722 -0.5430  0.2709
  581MOL0     C78367  10.472   6.608   2.589 -0.6349 -0.9671  0.2190
  581MOL0     H78368  10.262   6.336   2.922 -0.1253 -1.6209  1.9253
  581MOL0     H78369  10.161   6.320   3.151 -2.2874  0.2543  0.9989
  581MOL0     H78370  10.110   6.689   3.377 -2.3434  2.3004 -1.2398
  581MOL0     H78371   9.948   6.676   3.304 -1.0660 -0.6307 -2.4276
  581MOL0     H78372   9.896   6.504   3.487 -0.0139 -0.3300 -0.5494
  581MOL0     H78373   9.924   6.673   3.529  1.0230  1.6858 -1.7772
  581MOL0     H78374  10.172   6.596   3.582  2.4404 -3.8763  1.0925
  581MOL0     H78375  10.101   6.439   3.559  1.7014 -0.3095 -0.3695
  581MOL0     H78376   9.979   6.647   3.750  2.2297  2.0923 -5.1377
  581MOL0     H78377   9.936   6.479   3.730 -1.1920  1.4988  1.0243
  581MOL0     H78378  10.132   6.394   3.852 -3.3188 -0.4754 -0.8245
  581MOL0     H78379  10.221   6.548   3.817  0.2287 -0.2346  1.1136
  581MOL0     H78380  10.058   6.660   3.976 -1.1116 -0.8253 -1.4610
  581MOL0     H78381   9.981   6.495   3.990  1.7990 -3.1856 -0.8140
  581MOL0     H78382  10.261   6.558   4.078  0.5854 -3.6244 -1.5001
  581MOL0     H78383  10.169   6.403   4.091  3.2861 -0.5324  1.9580
  581MOL0     H78384  10.198   6.558   4.312  2.1797 -0.1780 -0.8255
  581MOL0     H78385  10.095   6.670   4.221 -0.6150 -1.2866 -5.4564
  581MOL0     H78386  10.048   6.426   4.473 -0.7230  1.0780  1.0941
  581MOL0     H78387   9.804   6.237   4.516 -0.8795 -0.0211  1.3471
  581MOL0     H78388   9.809   6.381   4.620 -1.4073 -0.1046  0.8773
  581MOL0     H78389   9.625   6.497   4.513 -1.4000  0.6949 -3.1988
  581MOL0     H78390   9.572   6.371   4.419 -5.0624  2.2019  2.9695
  581MOL0     H78391   9.582   6.346   4.730  4.5585  1.0628 -0.7899
  581MOL0     H78392   9.481   6.268   4.604  0.8412  1.4798 -3.1518
  581MOL0     H78393   9.458   6.567   4.661  0.5047 -0.7692  2.2828
  581MOL0     H78394   9.335   6.450   4.711 -2.2569  0.7249 -2.0257
  581MOL0     H78395   9.159   6.625   4.661  0.5735 -1.3302  0.3197
  581MOL0     H78396   9.082   6.841   4.585 -3.5242 -1.6726 -1.9276
  581MOL0     H78397   9.148   7.234   4.107 -0.8704  0.4430 -0.0593
  581MOL0     H78398   8.972   7.338   3.975 -0.2374 -0.2122 -0.3011
  581MOL0     H78399   8.632   7.057   3.817 -4.8843 -0.2562 -3.0505
  581MOL0     H78400   8.547   7.172   3.928  1.1867  1.8218  1.1859
  581MOL0     H78401   8.664   7.212   3.657 -0.2047  0.7626 -0.0332
  581MOL0     H78402   8.497   7.160   3.663  3.0209 -1.9388 -2.5981
  581MOL0     H78403   8.596   7.414   3.800 -0.2972 -0.0376  0.1031
  581MOL0     H78404   8.516   7.409   3.642  0.5210  3.0420  1.8646
  581MOL0     H78405   8.400   7.327   3.908  2.6180  0.7799  0.8874
  581MOL0     H78406   8.332   7.286   3.754 -0.2568 -2.7161  3.4155
  581MOL0     H78407   8.219   7.485   3.807 -0.6955  3.4386 -1.2289
  581MOL0     H78408   8.329   7.545   3.704 -2.4684  2.7434  0.9964
  581MOL0     H78409   8.490   7.628   3.867  0.8805 -1.8282  0.6243
  581MOL0     H78410   8.323   7.712   3.856 -0.4532 -0.7208  1.5027
  581MOL0     H78411   8.408   7.500   4.051 -2.2649 -3.1989 -3.8917
  581MOL0     H78412   8.247   7.567   4.044 -0.9179 -0.5407 -0.0822
  581MOL0     H78413   8.523   7.701   4.104 -0.2589 -1.9028  0.6550
  581MOL0     H78414   8.374   7.803   4.092  1.9724  0.3481 -2.6698
  581MOL0     H78415   8.726   6.996   3.996  0.8411 -0.3366 -1.5784
  581MOL0     H78416   8.915   6.876   4.154  1.4435 -1.5012 -1.0293
  581MOL0     H78417   9.279   6.789   4.215 -0.5162  0.6282 -0.0878
  581MOL0     H78418   9.411   6.586   4.318  0.1719  1.0608 -0.7136
  581MOL0     H78419  10.068   6.734   3.124 -0.6007 -1.3689 -0.1754
  581MOL0     H78420  10.174   6.762   2.909  2.4568  0.5802  1.0258
  581MOL0     H78421  10.086   6.370   2.451  0.1960  1.0277 -1.5471
  581MOL0     H78422  10.181   6.309   2.243  1.4032 -1.6181  0.5517
  581MOL0     H78423  10.560   6.289   2.167 -0.5918  2.6673  0.2682
  581MOL0     H78424  10.553   6.355   2.003  2.1594 -4.0114 -1.8368
  581MOL0     H78425  10.351   6.169   2.132  1.5734  1.3820  1.9883
  581MOL0     H78426  10.447   6.132   1.985  0.4341 -0.1670  2.3243
  581MOL0     H78427  10.343   6.307   1.853 -0.0185 -2.9905 -1.6395
  581MOL0     H78428  10.227   6.337   1.992 -2.6314 -0.9191 -3.3442
  581MOL0     H78429  10.270   6.064   1.854  0.9066  0.9183 -0.5108
  581MOL0     H78430  10.136   6.112   1.965 -0.9074  0.6867 -1.0481
  581MOL0     H78431  10.003   6.278   1.610 -0.0355 -1.9555  0.4346
  581MOL0     H78432  10.543   6.527   2.338  0.6626 -1.3965 -1.3271
  581MOL0     H78433  10.433   6.702   2.630  2.3630 -0.1110  1.4405
  581MOL0     H78434  10.515   6.559   2.676  1.6325 -2.7982 -1.7773
  581MOL0     H78435  10.562   6.649   2.542 -1.3486  0.7600  0.2685
  582MOL0     O78436   9.915   0.001   4.052  0.0472  0.3646 -0.2521
  582MOL0     C78437  10.031  -0.034   4.075  0.0801 -0.1188  0.8302
  582MOL0     O78438  10.070  -0.166   4.103 -1.2633 -0.2369 -0.2566
  582MOL0     C78439  10.014  -0.276   4.044 -0.2695  0.0398 -0.2573
  582MOL0     C78440   9.923  -0.273   3.935 -0.0827 -0.2183  0.1077
  582MOL0     C78441   9.853  -0.392   3.895  0.9083  0.0599  0.6379
  582MOL0     C78442   9.880  -0.514   3.961  0.5756 -0.2850  1.0046
  582MOL0     O78443   9.815  -0.613   3.894  0.1775  0.6985 -0.5142
  582MOL0     C78444   9.880  -0.741   3.909  0.1011 -0.2080 -0.8828
  582MOL0     C78445   9.893  -0.837   3.791 -0.7828  0.1766 -0.2092
  582MOL0     C78446   9.764  -0.847   3.708  0.4900 -0.0263 -0.9148
  582MOL0     C78447   9.763  -0.959   3.598  0.2737 -0.1718  0.2360
  582MOL0     C78448   9.629  -1.028   3.583 -0.9106 -0.3007  1.0710
  582MOL0     C78449   9.521  -0.936   3.521  0.0557 -0.0173 -0.4373
  582MOL0     C78450   9.569  -0.854   3.401 -0.2362  0.2701  0.5262
  582MOL0     C78451   9.565  -0.948   3.277  0.0269 -0.4260 -0.3390
  582MOL0     N78452   9.676  -0.921   3.177 -0.6316 -0.3772 -0.3816
  582MOL0     C78453   9.668  -0.902   3.043 -0.3706  0.5228  0.0617
  582MOL0     C78454   9.794  -0.932   2.996  0.8290 -0.4496  0.8095
  582MOL0     C78455   9.839  -0.945   2.850 -0.7051  0.4535 -1.1138
  582MOL0     C78456   9.727  -1.009   2.765 -0.3436 -0.5510 -0.4426
  582MOL0     C78457   9.789  -1.019   2.624  0.6812 -0.1482 -1.6697
  582MOL0     C78458   9.667  -1.030   2.532  0.3175  0.6207  0.0146
  582MOL0     O78459   9.579  -1.145   2.548 -0.3166 -0.2306  0.1415
  582MOL0     C78460   9.459  -1.144   2.473 -0.3789 -0.1562 -0.1992
  582MOL0     C78461   9.411  -1.039   2.390  1.0194 -0.1129 -0.1821
  582MOL0     C78462   9.298  -1.041   2.305  0.6515  0.5330 -0.0690
  582MOL0     C78463   9.215  -1.154   2.316  0.6068 -0.7598  0.0682
  582MOL0     C78464   9.104  -1.168   2.214  0.9886  0.5174  0.4307
  582MOL0     O78465   9.021  -1.277   2.223 -0.4502  0.0855  0.9093
  582MOL0     C78466   8.907  -1.276   2.153  0.1544 -0.0395 -0.8099
  582MOL0     C78467   8.900  -1.266   2.020 -0.9769  0.3866  0.8725
  582MOL0     C78468   8.784  -1.292   1.956  0.2298 -0.6252  0.0681
  582MOL0     C78469   8.661  -1.326   2.028 -0.0870  0.0329 -0.0679
  582MOL0     O78470   8.542  -1.354   1.967  0.3715  0.1041 -0.6910
  582MOL0     C78471   8.521  -1.378   1.825  0.4669  0.3802  0.0402
  582MOL0     C78472   8.502  -1.240   1.741 -0.0976 -0.1332 -0.5292
  582MOL0     C78473   8.371  -1.172   1.776 -0.4775 -0.8255  1.0622
  582MOL0     C78474   8.367  -1.044   1.705 -0.0182 -0.0566 -0.0128
  582MOL0     C78475   8.227  -0.985   1.713  0.0159  0.0050  0.0302
  582MOL0     C78476   8.191  -0.925   1.847 -0.4141  0.3474  0.8378
  582MOL0     C78477   8.088  -0.811   1.843 -0.3994  0.2160  0.0652
  582MOL0     C78478   8.024  -0.782   1.971  0.6420  0.6444 -0.7884
  582MOL0    Cl78479   7.934  -0.628   1.957 -0.0138  0.1918  0.4530
  582MOL0     C78480   8.666  -1.333   2.164 -0.1513 -0.1228  0.3211
  582MOL0     C78481   8.792  -1.309   2.225 -0.3791  0.5713 -0.6301
  582MOL0     O78482   9.099  -1.090   2.123 -1.1370  0.4361  0.1256
  582MOL0     C78483   9.257  -1.263   2.394  0.1079 -0.0523 -0.8393
  582MOL0     C78484   9.365  -1.250   2.490  0.4124 -0.5353  0.5087
  582MOL0     N78485   9.869  -0.969   3.107 -0.3038 -0.4263  0.3332
  582MOL0     N78486   9.803  -0.956   3.213 -0.3862 -0.3932 -0.3374
  582MOL0     C78487   9.973  -0.515   4.064 -1.0996 -1.5762 -0.5593
  582MOL0     C78488  10.042  -0.395   4.106  0.0869 -0.3866 -0.5347
  582MOL0     C78489  10.125   0.071   4.057 -0.0612 -0.0235  0.0857
  582MOL0     C78490  10.075   0.209   4.056  0.4323 -0.4569 -0.0504
  582MOL0     C78491  10.153   0.324   4.056 -0.6606 -1.2278  1.5001
  582MOL0     C78492  10.294   0.309   4.067  0.2052  0.8807 -0.2422
  582MOL0     O78493  10.372   0.421   4.076 -0.4980  0.2608 -0.6454
  582MOL0     C78494  10.503   0.407   4.132 -0.4142  0.1573 -0.6067
  582MOL0     C78495  10.580   0.533   4.103  0.1874  0.2228  0.2952
  582MOL0     C78496  10.728   0.522   4.110  0.2387  0.5660 -0.0468
  582MOL0     C78497  10.806   0.642   4.054  0.4967  0.2276  0.2816
  582MOL0     C78498  10.939   0.601   4.074 -0.5822  1.1743  0.3973
  582MOL0     C78499  11.059   0.565   4.084  0.0163 -0.8638  0.0478
  582MOL0     C78500  10.338   0.177   4.051 -0.4784  0.1365 -0.1962
  582MOL0     C78501  10.266   0.061   4.046  0.6725 -0.0454  0.1966
  582MOL0     C78502  10.333  -0.070   4.070 -0.3893  0.2728  0.4491
  582MOL0     H78503   9.881  -0.186   3.886 -1.0972 -0.3238  0.7565
  582MOL0     H78504   9.775  -0.397   3.820  0.5849 -0.9270  1.0219
  582MOL0     H78505   9.973  -0.733   3.965 -0.3146  1.0188 -0.3385
  582MOL0     H78506   9.805  -0.792   3.971  1.2655 -0.3328  0.4581
  582MOL0     H78507   9.929  -0.933   3.829 -0.4394  0.4412  0.1526
  582MOL0     H78508   9.973  -0.802   3.724  0.8578 -0.6002  1.2413
  582MOL0     H78509   9.757  -0.753   3.652 -0.7643 -1.3269 -3.0548
  582MOL0     H78510   9.674  -0.855   3.769 -0.0262  0.7608 -1.5572
  582MOL0     H78511   9.812  -0.933   3.504  1.6956  0.9546  1.2483
  582MOL0     H78512   9.823  -1.035   3.649  0.0685 -1.7205 -1.6931
  582MOL0     H78513   9.639  -1.113   3.514 -0.1740  0.7870 -0.2121
  582MOL0     H78514   9.590  -1.070   3.676 -5.2239 -0.3729 -0.5183
  582MOL0     H78515   9.435  -0.999   3.495 -0.8276  1.4710 -1.2652
  582MOL0     H78516   9.483  -0.862   3.593 -0.7655  0.7964 -1.6645
  582MOL0     H78517   9.669  -0.812   3.418  0.5972 -0.7452 -1.5233
  582MOL0     H78518   9.492  -0.778   3.381  0.8588  1.8449  2.0643
  582MOL0     H78519   9.575  -1.053   3.305  2.0917 -0.3810 -0.7377
  582MOL0     H78520   9.470  -0.930   3.227 -0.5631  1.2066  1.2400
  582MOL0     H78521   9.577  -0.884   2.987 -0.4678 -1.6193 -0.5564
  582MOL0     H78522   9.859  -0.842   2.819  1.7869 -0.1003 -1.5608
  582MOL0     H78523   9.935  -0.994   2.832  1.4725  2.9662  2.2446
  582MOL0     H78524   9.711  -1.109   2.805  1.0550 -0.1684  1.2333
  582MOL0     H78525   9.638  -0.947   2.781  0.0552 -0.5556  2.5158
  582MOL0     H78526   9.857  -1.104   2.635 -1.2159 -1.4121  1.6542
  582MOL0     H78527   9.846  -0.931   2.593  1.3377  0.0389 -0.0154
  582MOL0     H78528   9.698  -1.018   2.428 -0.8769  1.4419 -0.2755
  582MOL0     H78529   9.611  -0.940   2.561 -0.6620 -0.3602  1.3200
  582MOL0     H78530   9.473  -0.949   2.385  1.5376 -0.5072 -1.3733
  582MOL0     H78531   9.279  -0.955   2.242  3.0616  1.9280  0.9763
  582MOL0     H78532   8.985  -1.242   1.957  0.9908 -3.4176  1.7654
  582MOL0     H78533   8.782  -1.273   1.849 -0.3147 -1.2995 -0.0529
  582MOL0     H78534   8.590  -1.453   1.786 -3.0217 -2.9431 -0.3705
  582MOL0     H78535   8.425  -1.431   1.821 -0.0892  1.4378 -1.2514
  582MOL0     H78536   8.585  -1.175   1.770  1.3489 -2.6195  1.2189
  582MOL0     H78537   8.525  -1.251   1.635  1.6771 -1.5479 -0.0280
  582MOL0     H78538   8.287  -1.234   1.742 -0.9368  0.5679 -0.4661
  582MOL0     H78539   8.372  -1.147   1.883  0.8891  0.3568  0.7894
  582MOL0     H78540   8.390  -1.060   1.599 -0.1177 -0.3948  0.0154
  582MOL0     H78541   8.440  -0.972   1.745 -0.4902 -0.0895  0.9457
  582MOL0     H78542   8.153  -1.064   1.695  1.1083 -0.2594 -4.0879
  582MOL0     H78543   8.208  -0.919   1.628  1.3186  0.0822 -0.2124
  582MOL0     H78544   8.150  -1.008   1.907  0.3603  0.3541  1.3859
  582MOL0     H78545   8.284  -0.892   1.893  0.4452 -2.8498  1.6793
  582MOL0     H78546   8.001  -0.840   1.784 -0.0633 -0.1415 -0.2579
  582MOL0     H78547   8.135  -0.721   1.802  1.1266 -0.6755 -0.2566
  582MOL0     H78548   7.952  -0.861   1.996 -1.0119  2.6580  1.2537
  582MOL0     H78549   8.092  -0.774   2.057  2.8998  0.2765 -2.4387
  582MOL0     H78550   8.573  -1.350   2.217 -1.1368  2.0879 -0.5511
  582MOL0     H78551   8.797  -1.290   2.331 -1.4565  0.1805 -0.5000
  582MOL0     H78552   9.196  -1.352   2.397  1.0804 -0.7016  1.3343
  582MOL0     H78553   9.381  -1.328   2.563  3.0713 -3.2023 -2.6527
  582MOL0     H78554   9.984  -0.605   4.124  0.7795  0.8960  3.2457
  582MOL0     H78555  10.101  -0.413   4.195 -0.0095  1.1665 -0.1251
  582MOL0     H78556   9.968   0.229   4.065  0.1371 -2.0902  0.4223
  582MOL0     H78557  10.113   0.424   4.054 -0.4892 -1.1375 -0.6081
  582MOL0     H78558  10.570   0.326   4.101 -0.4141 -0.0903  0.0157
  582MOL0     H78559  10.491   0.404   4.241  1.3573  1.6039 -0.3310
  582MOL0     H78560  10.551   0.615   4.169  2.5498  0.7463  0.7791
  582MOL0     H78561  10.545   0.575   4.009  1.4798  0.4643 -0.0921
  582MOL0     H78562  10.758   0.443   4.041 -0.3433  0.3420 -0.0559
  582MOL0     H78563  10.751   0.512   4.216  0.4722 -0.3466 -0.1766
  582MOL0     H78564  10.775   0.657   3.951 -2.2957 -0.2268  0.9733
  582MOL0     H78565  10.787   0.731   4.114  0.1187 -0.6613  1.5425
  582MOL0     H78566  11.162   0.536   4.075  0.9827  1.1766  2.9392
  582MOL0     H78567  10.445   0.163   4.041 -0.5640  0.6586 -2.0826
  582MOL0     H78568  10.287  -0.147   4.007 -1.0003  3.2502 -3.0340
  582MOL0     H78569  10.440  -0.062   4.049 -0.0147 -1.5897  1.4564
  582MOL0     H78570  10.328  -0.093   4.177 -0.4439  0.0884  0.4080
  583MOL0     O78571  11.004   7.778   3.167 -1.0412 -0.3022  0.0239
  583MOL0     C78572  11.026   7.888   3.111  0.8464 -0.0023 -0.3237
  583MOL0     O78573  10.985   8.012   3.148  0.3920 -0.7760 -0.0709
  583MOL0     C78574  10.921   8.012   3.273  0.3879 -1.0451 -0.1904
  583MOL0     C78575  10.964   8.109   3.371  1.2139 -0.0786  1.3612
  583MOL0     C78576  10.889   8.139   3.482  0.0421 -0.1982  0.0048
  583MOL0     C78577  10.777   8.067   3.519  0.2561 -0.4558  1.4184
  583MOL0     O78578  10.700   8.113   3.630 -0.5126  0.8680  0.4199
  583MOL0     C78579  10.574   8.050   3.670  0.3971 -0.0846 -0.3151
  583MOL0     C78580  10.598   7.912   3.730 -0.1162 -1.4294  0.4558
  583MOL0     C78581  10.475   7.822   3.714 -0.4976 -0.0592 -0.5943
  583MOL0     C78582  10.349   7.867   3.798 -0.6896  0.6131  0.7590
  583MOL0     C78583  10.232   7.788   3.753  0.5720  0.3830 -0.0543
  583MOL0     C78584  10.232   7.635   3.783  0.4861  1.2432 -0.6474
  583MOL0     C78585  10.090   7.587   3.741 -0.0673  0.2931  0.5487
  583MOL0     C78586  10.075   7.440   3.700 -0.0586 -0.2785  0.3295
  583MOL0     N78587  10.087   7.343   3.807 -0.6832  0.8188 -0.1774
  583MOL0     C78588  10.023   7.356   3.932 -0.0987  1.0073 -0.7546
  583MOL0     C78589  10.094   7.266   4.013  0.7656  0.4119 -1.4660
  583MOL0     C78590  10.081   7.251   4.162 -0.2842 -0.3161 -0.4939
  583MOL0     C78591  10.091   7.108   4.209  0.2649 -0.2051 -0.2692
  583MOL0     C78592  10.235   7.074   4.240  0.9878 -0.7935 -0.3970
  583MOL0     C78593  10.267   6.933   4.296  0.7544 -0.1458  0.9656
  583MOL0     O78594  10.193   6.896   4.405  0.0153 -0.0355  0.7144
  583MOL0     C78595  10.252   6.830   4.513  0.8288 -0.4638  0.2373
  583MOL0     C78596  10.174   6.727   4.564 -0.0671 -0.4186 -0.9561
  583MOL0     C78597  10.231   6.644   4.665  0.0373  0.3005  0.5714
  583MOL0     C78598  10.358   6.678   4.720 -0.1587 -0.4453 -0.4136
  583MOL0     C78599  10.431   6.599   4.822 -0.2751 -0.0959  0.3435
  583MOL0     O78600  10.519   6.657   4.902  0.3147 -0.0466 -0.4286
  583MOL0     C78601  10.599   6.569   4.969  1.0893  0.5842 -0.1242
  583MOL0     C78602  10.563   6.533   5.096 -0.8084  0.9693 -0.0160
  583MOL0     C78603  10.642   6.441   5.170 -1.0499 -0.2599  1.1600
  583MOL0     C78604  10.760   6.382   5.107  0.9708  0.8985  0.7156
  583MOL0     O78605  10.825   6.279   5.177 -0.5749 -0.7559  0.7226
  583MOL0     C78606  10.859   6.166   5.101 -0.2320  0.0916  1.0852
  583MOL0     C78607  10.955   6.079   5.185  0.5501  0.4505  1.3014
  583MOL0     C78608  10.887   5.991   5.291 -0.2290 -0.1724 -0.3406
  583MOL0     C78609  10.978   5.907   5.382 -0.3457 -0.5474 -0.3411
  583MOL0     C78610  11.040   6.004   5.493 -0.5869 -0.7336 -1.2122
  583MOL0     C78611  11.153   5.947   5.576  0.3223  0.8446 -0.7696
  583MOL0     C78612  11.124   5.805   5.630 -0.0630 -0.5908 -0.1979
  583MOL0     C78613  11.226   5.746   5.724 -0.6083  0.3695 -0.3304
  583MOL0    Cl78614  11.161   5.607   5.816  0.0955  0.4383  0.8841
  583MOL0     C78615  10.805   6.429   4.987  0.5821  0.3071  0.1010
  583MOL0     C78616  10.719   6.520   4.920  0.1114  0.0120  1.0544
  583MOL0     O78617  10.399   6.478   4.831 -0.0198  0.0241 -0.2535
  583MOL0     C78618  10.423   6.788   4.666  0.6469 -0.6898  0.2235
  583MOL0     C78619  10.367   6.872   4.570 -0.7595 -0.2789 -0.0935
  583MOL0     N78620  10.190   7.199   3.932  0.6950 -0.8042  0.0622
  583MOL0     N78621  10.182   7.244   3.808  0.2334  0.0173 -0.6371
  583MOL0     C78622  10.731   7.972   3.427 -0.1936  0.5686  0.2356
  583MOL0     C78623  10.803   7.946   3.307 -0.3358 -0.3175 -0.1214
  583MOL0     C78624  11.102   7.876   2.984  0.5521  0.7200  0.8931
  583MOL0     C78625  11.151   7.998   2.923  0.8775 -0.5018 -0.5242
  583MOL0     C78626  11.226   8.005   2.809 -0.1598  0.6465 -0.7684
  583MOL0     C78627  11.238   7.890   2.731 -0.4759 -0.4356 -0.1775
  583MOL0     O78628  11.311   7.906   2.619  0.0576  0.8667  0.3214
  583MOL0     C78629  11.344   8.035   2.564 -0.2610  0.4091 -0.0443
  583MOL0     C78630  11.392   8.023   2.421  0.0012 -0.0125  0.1762
  583MOL0     C78631  11.281   7.978   2.319 -0.2068  0.8540 -0.8489
  583MOL0     C78632  11.249   7.832   2.331  0.1519 -0.2374 -0.4561
  583MOL0     C78633  11.368   7.745   2.304  1.0104  0.0195  0.1262
  583MOL0     C78634  11.456   7.690   2.247 -1.0351 -0.6967  1.2728
  583MOL0     C78635  11.190   7.775   2.790 -0.7114  0.2603  0.1556
  583MOL0     C78636  11.138   7.753   2.915  0.2994 -0.4344  0.1889
  583MOL0     C78637  11.081   7.620   2.947  1.0301  0.6378 -0.8782
  583MOL0     H78638  11.054   8.169   3.364  1.0896 -0.0802 -1.5706
  583MOL0     H78639  10.920   8.219   3.548  2.5586  0.2105 -1.5361
  583MOL0     H78640  10.528   8.118   3.742 -1.2480 -1.2940 -0.1520
  583MOL0     H78641  10.515   8.042   3.578  4.0018 -1.3594 -2.7112
  583MOL0     H78642  10.617   7.936   3.836 -1.3510 -0.4297  0.4749
  583MOL0     H78643  10.691   7.871   3.690 -1.5096  0.1970 -5.3286
  583MOL0     H78644  10.503   7.722   3.750  1.1058  0.0402 -1.4301
  583MOL0     H78645  10.453   7.834   3.607 -2.1736  3.0106 -0.0070
  583MOL0     H78646  10.369   7.857   3.905  3.1117 -3.6167 -0.0190
  583MOL0     H78647  10.337   7.975   3.788  1.2146  0.9448  1.4975
  583MOL0     H78648  10.150   7.846   3.796 -0.3668 -0.4382 -0.6842
  583MOL0     H78649  10.231   7.807   3.645 -0.1568 -1.0642 -0.3330
  583MOL0     H78650  10.310   7.580   3.729  0.5529  0.7271 -0.0293
  583MOL0     H78651  10.243   7.618   3.891 -2.5049  1.4130 -0.2257
  583MOL0     H78652  10.089   7.631   3.641 -1.3295 -2.1253 -0.5818
  583MOL0     H78653  10.019   7.624   3.815  1.0512 -0.5566  2.0980
  583MOL0     H78654   9.975   7.437   3.657  0.1178 -3.2565 -0.0781
  583MOL0     H78655  10.146   7.401   3.626 -0.7242 -2.9433  0.9899
  583MOL0     H78656   9.939   7.410   3.975  0.2171  0.9462 -0.0356
  583MOL0     H78657  10.154   7.312   4.215 -0.1464 -3.5559  3.5025
  583MOL0     H78658   9.983   7.290   4.191 -0.8899 -1.4924 -0.8963
  583MOL0     H78659  10.012   7.092   4.282 -2.4875  0.0249 -2.9703
  583MOL0     H78660  10.065   7.038   4.129  2.0129 -0.9489 -0.2377
  583MOL0     H78661  10.259   7.153   4.312 -3.5449  2.3314 -1.8103
  583MOL0     H78662  10.298   7.098   4.154  0.8650 -2.9955 -1.1574
  583MOL0     H78663  10.376   6.930   4.309  1.0314 -0.2163 -1.0538
  583MOL0     H78664  10.252   6.853   4.223 -0.9443  0.4473  0.6262
  583MOL0     H78665  10.074   6.704   4.529  0.0568 -1.9042 -0.4391
  583MOL0     H78666  10.169   6.558   4.689  2.2657 -1.2156  1.1110
  583MOL0     H78667  10.473   6.572   5.142 -1.4268 -0.6945  0.2223
  583MOL0     H78668  10.598   6.409   5.264  2.3397  0.3260  3.1133
  583MOL0     H78669  10.767   6.112   5.077 -1.6306  2.6708  0.3570
  583MOL0     H78670  10.902   6.187   5.003 -1.4572 -5.4961 -1.0364
  583MOL0     H78671  11.000   6.010   5.113  0.0640  1.8499 -0.4245
  583MOL0     H78672  11.034   6.137   5.233  1.9504  1.5484 -1.9982
  583MOL0     H78673  10.826   6.058   5.353  3.7656  0.7485  3.0035
  583MOL0     H78674  10.820   5.922   5.239 -1.3213  0.8234 -0.3297
  583MOL0     H78675  11.049   5.851   5.321 -2.4308 -2.5021 -1.1481
  583MOL0     H78676  10.909   5.833   5.426 -3.5864  1.0099 -2.3668
  583MOL0     H78677  10.965   6.048   5.561 -2.0401 -2.1745 -1.8313
  583MOL0     H78678  11.090   6.094   5.457  1.6939 -1.6657 -0.5568
  583MOL0     H78679  11.243   5.950   5.514  0.0610 -1.3912 -1.3573
  583MOL0     H78680  11.171   6.005   5.667  0.7119 -3.2334  1.9899
  583MOL0     H78681  11.131   5.746   5.538 -0.5518  1.9383 -1.9643
  583MOL0     H78682  11.021   5.794   5.665 -0.3104  0.6215 -0.5085
  583MOL0     H78683  11.315   5.713   5.669  0.1440  0.7600  0.6345
  583MOL0     H78684  11.266   5.818   5.796 -2.7149  0.4997  0.7632
  583MOL0     H78685  10.902   6.403   4.945 -0.2209 -1.1567 -0.9664
  583MOL0     H78686  10.745   6.548   4.818  1.5077 -1.3136  1.0016
  583MOL0     H78687  10.524   6.808   4.703 -0.1560  0.9080  1.7288
  583MOL0     H78688  10.425   6.954   4.530  0.1278 -0.5278  0.6628
  583MOL0     H78689  10.638   7.918   3.446  0.1477 -0.7556 -1.6911
  583MOL0     H78690  10.771   7.878   3.228  2.2299 -0.0970 -1.4260
  583MOL0     H78691  11.120   8.086   2.978  2.9121 -0.2472  0.3136
  583MOL0     H78692  11.277   8.100   2.792  0.0917  0.7532  0.4773
  583MOL0     H78693  11.422   8.089   2.618 -0.4563  1.5826 -0.9119
  583MOL0     H78694  11.254   8.097   2.571  0.3568  1.1908  1.4559
  583MOL0     H78695  11.491   7.977   2.408  0.5009  1.6599 -2.9471
  583MOL0     H78696  11.419   8.123   2.386  4.2722 -1.5001 -1.5494
  583MOL0     H78697  11.327   7.980   2.220 -1.3048 -2.2737 -1.5406
  583MOL0     H78698  11.198   8.048   2.330 -0.1084  0.5457  4.1821
  583MOL0     H78699  11.209   7.797   2.426  2.5997 -0.5506  0.5278
  583MOL0     H78700  11.181   7.803   2.249  2.7762 -2.5868 -1.9662
  583MOL0     H78701  11.528   7.629   2.196 -2.0037 -0.3758 -0.5807
  583MOL0     H78702  11.210   7.688   2.728 -1.6104  0.3808 -0.3274
  583MOL0     H78703  11.095   7.579   3.047  0.8006  0.2342 -1.0073
  583MOL0     H78704  10.975   7.619   2.920  0.8279 -0.5961 -0.0869
  583MOL0     H78705  11.128   7.546   2.882  0.8722 -2.3171  2.1282
  584MOL0     O78706   8.061   0.217  11.247 -0.4383  0.4458  0.1414
  584MOL0     C78707   7.944   0.200  11.269 -0.2676 -0.2800 -0.1155
  584MOL0     O78708   7.869   0.256  11.371  0.7961 -0.5098  0.2929
  584MOL0     C78709   7.931   0.355  11.443  0.7282  0.1828 -0.2894
  584MOL0     C78710   7.910   0.488  11.398 -0.5707 -1.1439 -0.1011
  584MOL0     C78711   7.959   0.592  11.476  0.4073 -0.1095  0.7928
  584MOL0     C78712   8.030   0.575  11.597  0.0611 -0.6897  0.5646
  584MOL0     O78713   8.071   0.684  11.670  0.6530 -0.5468  0.0170
  584MOL0     C78714   8.132   0.794  11.595  1.1719  0.6936  0.4693
  584MOL0     C78715   8.269   0.809  11.660 -0.2946 -0.1031  0.0785
  584MOL0     C78716   8.363   0.923  11.616  0.6595  0.0451 -0.1628
  584MOL0     C78717   8.301   1.069  11.629  1.0627  0.0484 -0.1805
  584MOL0     C78718   8.370   1.178  11.546  0.3180  0.6753  0.7537
  584MOL0     C78719   8.347   1.316  11.594  0.0779  0.6523 -0.0470
  584MOL0     C78720   8.441   1.413  11.531  0.8817  0.2898 -0.2906
  584MOL0     C78721   8.376   1.549  11.545 -0.2904  0.0538  0.5749
  584MOL0     N78722   8.480   1.646  11.522 -0.6900  0.9236 -0.0938
  584MOL0     C78723   8.572   1.693  11.611 -0.1213  0.6339  0.9384
  584MOL0     C78724   8.653   1.768  11.534 -0.2668  1.1135  0.1292
  584MOL0     C78725   8.777   1.836  11.583  1.0473 -0.3177  0.0129
  584MOL0     C78726   8.772   1.971  11.515  0.3992 -0.1147 -0.7207
  584MOL0     C78727   8.917   2.040  11.521 -0.8207  0.4250  0.2170
  584MOL0     C78728   8.944   2.168  11.432  0.4387 -0.1453 -0.5004
  584MOL0     O78729   8.878   2.268  11.516 -0.1436 -0.1180 -1.0756
  584MOL0     C78730   8.843   2.387  11.452  0.1353  0.5786  0.0196
  584MOL0     C78731   8.766   2.479  11.527 -0.3006  0.6205 -0.0774
  584MOL0     C78732   8.717   2.592  11.471  0.4053  0.5677 -0.1710
  584MOL0     C78733   8.756   2.623  11.339 -0.3626 -0.2619 -0.1464
  584MOL0     C78734   8.726   2.764  11.286  0.6197 -0.3698  0.1868
  584MOL0     O78735   8.800   2.798  11.173  0.0518  0.0322 -0.2101
  584MOL0     C78736   8.823   2.928  11.152 -0.5475  0.5570 -0.1774
  584MOL0     C78737   8.746   3.004  11.063 -0.2162 -0.2323 -0.3509
  584MOL0     C78738   8.778   3.138  11.040  0.8138  0.1880 -0.1474
  584MOL0     C78739   8.878   3.206  11.095  0.4592 -0.2282 -1.0809
  584MOL0     O78740   8.916   3.335  11.068 -0.0424 -0.6163  0.2352
  584MOL0     C78741   8.824   3.426  10.997 -1.3753 -0.7221  0.8451
  584MOL0     C78742   8.913   3.545  10.973 -0.1597 -0.7405 -0.9917
  584MOL0     C78743   9.032   3.538  10.869  0.7869  0.4849 -1.4020
  584MOL0     C78744   8.993   3.522  10.727  0.0530 -0.2878 -0.3966
  584MOL0     C78745   8.930   3.647  10.673  0.9885  0.0365 -1.1727
  584MOL0     C78746   8.870   3.619  10.536  1.1452  1.3141 -1.4642
  584MOL0     C78747   8.849   3.755  10.476 -0.2594  0.6881 -0.5178
  584MOL0     C78748   8.727   3.760  10.385 -0.0269 -0.0422  0.8221
  584MOL0    Cl78749   8.581   3.729  10.480 -0.2870  0.7876 -0.3077
  584MOL0     C78750   8.957   3.142  11.180  0.2029 -0.5963  0.0797
  584MOL0     C78751   8.937   2.999  11.206  0.0752 -0.6151  0.3259
  584MOL0     O78752   8.642   2.841  11.354  0.0321 -0.6790 -0.3328
  584MOL0     C78753   8.843   2.543  11.269 -0.2757 -0.0165 -0.8140
  584MOL0     C78754   8.889   2.424  11.330 -0.3562 -0.3754 -0.3767
  584MOL0     N78755   8.604   1.766  11.407  0.0618  0.1338  0.1969
  584MOL0     N78756   8.498   1.695  11.401 -0.7394  0.1206  0.2806
  584MOL0     C78757   8.062   0.450  11.638  0.3524  0.2104 -0.5230
  584MOL0     C78758   7.998   0.341  11.572 -0.4342 -1.0355  0.8592
  584MOL0     C78759   7.893   0.085  11.194 -0.3903 -0.2100 -0.0391
  584MOL0     C78760   7.797   0.001  11.262 -0.2788  0.6498  0.6234
  584MOL0     C78761   7.728  -0.100  11.189  0.5505  0.8474 -0.1005
  584MOL0     C78762   7.740  -0.111  11.046  0.0040 -1.3213  0.0678
  584MOL0     O78763   7.660  -0.189  10.967  0.2305  0.4179  0.1104
  584MOL0     C78764   7.557  -0.270  11.017 -0.0190  0.4935  0.6424
  584MOL0     C78765   7.617  -0.400  11.079  0.2845  0.0376  0.8421
  584MOL0     C78766   7.518  -0.472  11.170 -0.7209 -0.7522  1.2760
  584MOL0     C78767   7.576  -0.495  11.305  0.4329 -0.1279  0.5440
  584MOL0     C78768   7.570  -0.373  11.390  0.5322 -0.3779  0.7260
  584MOL0     C78769   7.553  -0.275  11.462  0.8460  0.2921 -0.5179
  584MOL0     C78770   7.845  -0.040  10.987  0.7883  0.0198 -0.5585
  584MOL0     C78771   7.931   0.058  11.049 -0.6441  0.3082 -0.9216
  584MOL0     C78772   8.030   0.138  10.975 -0.3646 -0.0506 -0.7040
  584MOL0     H78773   7.848   0.514  11.313 -2.0787 -1.4529  0.8659
  584MOL0     H78774   7.952   0.693  11.435  0.5456 -1.2313 -2.1807
  584MOL0     H78775   8.158   0.771  11.491  1.6040  3.0722 -0.0213
  584MOL0     H78776   8.064   0.880  11.596 -0.2932 -0.4202  2.2959
  584MOL0     H78777   8.333   0.724  11.634  0.9278  1.4310 -2.3025
  584MOL0     H78778   8.251   0.820  11.767 -1.7436  0.2902 -0.1852
  584MOL0     H78779   8.406   0.908  11.516  1.9929  3.3594 -0.1935
  584MOL0     H78780   8.446   0.927  11.687  1.5801 -0.7399 -1.1633
  584MOL0     H78781   8.200   1.049  11.591  1.4403 -3.1467  0.2414
  584MOL0     H78782   8.290   1.083  11.737 -1.6177 -0.4231 -0.3217
  584MOL0     H78783   8.477   1.157  11.540  0.3666  1.3542 -1.3956
  584MOL0     H78784   8.323   1.171  11.448 -1.7522  2.8443  1.4942
  584MOL0     H78785   8.242   1.342  11.575 -1.5882 -3.0405  2.8045
  584MOL0     H78786   8.367   1.311  11.701  2.9359 -5.1927 -0.4266
  584MOL0     H78787   8.468   1.393  11.427 -1.1982 -1.9761 -0.4737
  584MOL0     H78788   8.528   1.399  11.595  0.0192  0.0440  0.8701
  584MOL0     H78789   8.298   1.559  11.469 -0.3666 -4.9961 -0.3735
  584MOL0     H78790   8.333   1.552  11.645  2.2387  1.9501  1.7187
  584MOL0     H78791   8.596   1.680  11.716  0.0547  0.1424  0.8406
  584MOL0     H78792   8.789   1.824  11.691  3.1027  1.0519 -0.0156
  584MOL0     H78793   8.854   1.773  11.537  1.1083 -0.6977  0.6304
  584MOL0     H78794   8.734   1.966  11.413  0.9190  0.0091 -0.9213
  584MOL0     H78795   8.708   2.032  11.580  2.3343  0.8609  0.3730
  584MOL0     H78796   8.987   1.968  11.479 -0.8875  0.3309  0.2681
  584MOL0     H78797   8.941   2.052  11.627  0.0329 -0.3995  0.1284
  584MOL0     H78798   8.906   2.150  11.332  0.3208 -1.0042 -0.3100
  584MOL0     H78799   9.050   2.192  11.423  0.5015  0.1710  0.8720
  584MOL0     H78800   8.737   2.444  11.625  1.6954  3.2022  1.5449
  584MOL0     H78801   8.657   2.669  11.518 -0.5497  0.0254 -0.4751
  584MOL0     H78802   8.674   2.951  11.001 -0.6333  1.1175 -1.0686
  584MOL0     H78803   8.712   3.181  10.965 -0.8236 -1.3104  0.3627
  584MOL0     H78804   8.786   3.382  10.904 -0.9487  0.7961 -0.0795
  584MOL0     H78805   8.743   3.459  11.062  0.0830 -1.6981  3.2945
  584MOL0     H78806   8.848   3.628  10.945 -3.2458 -3.6101 -3.0891
  584MOL0     H78807   8.952   3.565  11.073  0.5260  1.0122 -1.5677
  584MOL0     H78808   9.095   3.627  10.876  1.0267  0.1948  0.7068
  584MOL0     H78809   9.097   3.452  10.889 -0.6541 -0.1902  0.7169
  584MOL0     H78810   8.921   3.440  10.721  0.6526 -1.0427  1.8498
  584MOL0     H78811   9.084   3.500  10.671  0.5641 -1.0043  0.6783
  584MOL0     H78812   9.007   3.725  10.671 -2.8747  4.3868  1.1534
  584MOL0     H78813   8.853   3.682  10.742  0.8093  2.1785 -2.3596
  584MOL0     H78814   8.946   3.572  10.473  3.2249 -0.5097  2.0528
  584MOL0     H78815   8.777   3.563  10.538  0.9666  1.6061 -0.0124
  584MOL0     H78816   8.943   3.779  10.424  0.8658 -1.9370  0.1268
  584MOL0     H78817   8.829   3.833  10.550 -0.2282  2.3379 -2.1713
  584MOL0     H78818   8.735   3.850  10.324  3.5194  0.5284  1.8801
  584MOL0     H78819   8.738   3.678  10.313 -1.0405 -0.2497  0.8839
  584MOL0     H78820   9.037   3.194  11.232  0.4977 -1.5042  0.5561
  584MOL0     H78821   9.006   2.946  11.270  0.2514  0.9490  1.4966
  584MOL0     H78822   8.889   2.573  11.176  0.8960  0.3122 -0.1614
  584MOL0     H78823   8.966   2.378  11.269  0.7770  2.7294 -1.4344
  584MOL0     H78824   8.106   0.444  11.736 -0.4317 -1.9047 -0.2534
  584MOL0     H78825   8.023   0.240  11.604  2.7831 -1.5564 -2.6451
  584MOL0     H78826   7.780   0.022  11.367 -0.1712 -0.0693  0.7864
  584MOL0     H78827   7.656  -0.162  11.241  2.4632 -1.0389  0.4494
  584MOL0     H78828   7.484  -0.291  10.939  0.3508 -2.4927  0.9678
  584MOL0     H78829   7.512  -0.221  11.103 -0.7019  3.0317 -1.0595
  584MOL0     H78830   7.709  -0.370  11.130  0.6672  0.0545  0.1589
  584MOL0     H78831   7.646  -0.468  10.998  1.3628  2.9980 -1.4167
  584MOL0     H78832   7.491  -0.571  11.132  1.1726 -0.5435 -0.8494
  584MOL0     H78833   7.425  -0.415  11.163  0.1494  0.5343 -1.6917
  584MOL0     H78834   7.513  -0.557  11.369 -0.8212 -0.3442 -0.8568
  584MOL0     H78835   7.675  -0.542  11.297  0.4697  0.0826 -0.3864
  584MOL0     H78836   7.525  -0.207  11.539 -4.8932 -0.0541 -1.8189
  584MOL0     H78837   7.853  -0.068  10.883  3.4529 -0.4540 -0.2925
  584MOL0     H78838   8.127   0.122  11.024 -1.1821  0.6261  1.2407
  584MOL0     H78839   8.026   0.101  10.872 -5.2762 -0.1258 -0.7259
  584MOL0     H78840   7.999   0.242  10.965  2.2767  0.8187 -0.4549
  585MOL0     O78841   6.173   9.891   0.338  0.7943 -0.0793 -0.5587
  585MOL0     C78842   6.214   9.917   0.455  0.7524  0.4963 -0.4786
  585MOL0     O78843   6.341   9.900   0.498  0.5328  0.1740 -0.2080
  585MOL0     C78844   6.420   9.840   0.403  0.2009 -0.6984  1.3513
  585MOL0     C78845   6.476   9.711   0.438  0.5646 -0.4976  0.3687
  585MOL0     C78846   6.573   9.658   0.350 -0.2841 -0.9356 -0.1041
  585MOL0     C78847   6.614   9.728   0.238  0.5103 -0.6305  0.3611
  585MOL0     O78848   6.710   9.661   0.161 -0.1710  0.3837  0.0440
  585MOL0     C78849   6.823   9.739   0.158 -0.1974  0.1832  0.1000
  585MOL0     C78850   6.855   9.768   0.010  0.4487 -0.4214  0.0424
  585MOL0     C78851   6.986   9.849  -0.027 -0.2633  0.2519 -1.2642
  585MOL0     C78852   7.110   9.765   0.005 -0.7012  0.5614 -1.1485
  585MOL0     C78853   7.130   9.652  -0.101  1.0119  0.5965 -0.0223
  585MOL0     C78854   7.272   9.616  -0.122 -0.4572  0.5656  0.0536
  585MOL0     C78855   7.289   9.484  -0.203  0.0109 -0.5245  0.2477
  585MOL0     C78856   7.243   9.479  -0.359  0.5024  0.9334 -0.7394
  585MOL0     N78857   7.325   9.565  -0.437  0.0045  0.1782  0.2256
  585MOL0     C78858   7.269   9.649  -0.531  0.2231 -0.0148 -0.1414
  585MOL0     C78859   7.359   9.745  -0.550  0.3572  0.0769 -0.2312
  585MOL0     C78860   7.314   9.863  -0.636 -1.0981  0.5840 -0.1405
  585MOL0     C78861   7.282   9.997  -0.555 -0.4402 -0.1976 -0.4127
  585MOL0     C78862   7.242  10.104  -0.655  0.3725  0.5826  0.1197
  585MOL0     C78863   7.202  10.231  -0.587 -0.1621 -0.1951 -0.5305
  585MOL0     O78864   7.088  10.211  -0.497 -0.0684 -0.2820  0.4563
  585MOL0     C78865   7.043  10.309  -0.412 -1.1085  0.0078 -0.6290
  585MOL0     C78866   6.918  10.326  -0.371 -0.2048  0.2418  0.0974
  585MOL0     C78867   6.878  10.436  -0.300  0.6161 -0.3005 -0.7391
  585MOL0     C78868   6.971  10.537  -0.273 -0.7205  1.2669 -0.6220
  585MOL0     C78869   6.926  10.659  -0.190  0.1289  0.4274  0.5810
  585MOL0     O78870   6.791  10.660  -0.137  0.0363  0.3934 -0.1544
  585MOL0     C78871   6.742  10.773  -0.063  0.3860  0.4150  0.0967
  585MOL0     C78872   6.775  10.905  -0.090  0.4477  0.2025  0.2729
  585MOL0     C78873   6.724  11.012  -0.013  0.3456  0.1763  0.0985
  585MOL0     C78874   6.645  10.985   0.098  0.4870 -0.5311 -0.1487
  585MOL0     O78875   6.602  11.065   0.197 -0.0332  0.0659 -0.3731
  585MOL0     C78876   6.638  11.202   0.182  0.3222  0.6695 -0.1973
  585MOL0     C78877   6.549  11.289   0.279 -0.2959 -0.5824 -0.8313
  585MOL0     C78878   6.398  11.253   0.259  0.0292  0.1120  0.2500
  585MOL0     C78879   6.311  11.355   0.335 -0.2865  0.2705 -1.3604
  585MOL0     C78880   6.156  11.345   0.310 -0.1829  0.1985  0.4268
  585MOL0     C78881   6.109  11.215   0.367  0.5691 -0.7993 -0.1377
  585MOL0     C78882   5.953  11.202   0.394 -0.4091 -0.1204  0.4178
  585MOL0     C78883   5.912  11.270   0.518  0.7272  0.3541 -0.2132
  585MOL0    Cl78884   5.732  11.272   0.540 -0.6642  0.3643  0.5499
  585MOL0     C78885   6.602  10.853   0.117  0.9343 -0.1198 -0.1622
  585MOL0     C78886   6.648  10.748   0.041  1.1583  0.6484 -0.2829
  585MOL0     O78887   7.012  10.744  -0.176  0.5693  0.1491  0.0851
  585MOL0     C78888   7.109  10.525  -0.313  0.3158  1.2321 -1.0800
  585MOL0     C78889   7.145  10.403  -0.369  0.5162 -0.9338 -0.0097
  585MOL0     N78890   7.478   9.706  -0.476 -0.1245 -0.0755  0.6194
  585MOL0     N78891   7.450   9.603  -0.407 -0.5273 -0.6308  0.0920
  585MOL0     C78892   6.560   9.848   0.200 -0.9809 -0.2102  0.1958
  585MOL0     C78893   6.473   9.910   0.294  0.0679  0.0599  0.3073
  585MOL0     C78894   6.109   9.972   0.559 -0.4006  0.3626  0.1941
  585MOL0     C78895   6.158   9.985   0.688  0.8219  0.0668  0.1444
  585MOL0     C78896   6.075  10.041   0.788 -0.0311 -0.5922 -0.4739
  585MOL0     C78897   5.944  10.064   0.775  0.0614  0.1252  0.1504
  585MOL0     O78898   5.855  10.111   0.868  0.4136  0.0220 -0.0509
  585MOL0     C78899   5.895  10.204   0.966  0.2414  0.6224 -0.4375
  585MOL0     C78900   5.841  10.346   0.933  0.4158 -0.1964  0.6218
  585MOL0     C78901   5.689  10.348   0.929 -0.3168  0.0319  0.6418
  585MOL0     C78902   5.606  10.474   0.980 -0.3435  0.0077 -0.0655
  585MOL0     C78903   5.592  10.466   1.130 -0.1634  1.0064  0.1083
  585MOL0     C78904   5.594  10.435   1.246 -0.5922  0.0552  0.2054
  585MOL0     C78905   5.887  10.029   0.653  0.6982  0.8870  0.3883
  585MOL0     C78906   5.970   9.975   0.547 -0.2667  0.1904 -0.5698
  585MOL0     C78907   5.902   9.937   0.422  0.6723  0.2640  0.4223
  585MOL0     H78908   6.448   9.655   0.527  3.1629  2.5007  3.3175
  585MOL0     H78909   6.616   9.559   0.355 -0.3103 -0.8909  1.9675
  585MOL0     H78910   6.818   9.824   0.227 -0.5048 -1.2832  1.9847
  585MOL0     H78911   6.898   9.671   0.199  0.1507 -0.0466 -0.8911
  585MOL0     H78912   6.779   9.838  -0.027  2.6478  2.0520 -0.1122
  585MOL0     H78913   6.848   9.678  -0.051 -3.8326 -0.3609  0.1362
  585MOL0     H78914   6.992   9.945   0.025  1.3673  0.0887 -1.1055
  585MOL0     H78915   6.986   9.877  -0.133 -0.0313  0.0363 -1.3226
  585MOL0     H78916   7.198   9.830   0.001 -1.1676  1.1771 -1.7617
  585MOL0     H78917   7.112   9.711   0.100  3.1132 -1.8443 -2.3848
  585MOL0     H78918   7.070   9.564  -0.075  0.3026  0.8780 -0.6850
  585MOL0     H78919   7.094   9.695  -0.194  0.5055  1.0597  0.3840
  585MOL0     H78920   7.322   9.704  -0.164  0.4011  1.0820  2.0404
  585MOL0     H78921   7.326   9.591  -0.030 -0.2074  4.3293  1.0889
  585MOL0     H78922   7.225   9.412  -0.150  0.7850 -1.7547 -0.4505
  585MOL0     H78923   7.390   9.444  -0.208  0.2498  0.1662 -0.6099
  585MOL0     H78924   7.254   9.379  -0.403 -3.1348  0.2895 -0.5449
  585MOL0     H78925   7.133   9.485  -0.362  0.2427 -0.9618  1.5415
  585MOL0     H78926   7.172   9.638  -0.579 -1.0023 -0.1537  2.2328
  585MOL0     H78927   7.398   9.882  -0.703 -0.9847  1.6697  0.3004
  585MOL0     H78928   7.229   9.830  -0.697 -0.2785  1.3648 -1.7865
  585MOL0     H78929   7.215   9.981  -0.470  1.2096  1.2583  1.2677
  585MOL0     H78930   7.370  10.040  -0.505  0.7016 -1.1183 -1.5697
  585MOL0     H78931   7.149  10.069  -0.699 -0.4785  2.0426  0.6758
  585MOL0     H78932   7.323  10.139  -0.720  0.5991  1.2164  0.7185
  585MOL0     H78933   7.176  10.312  -0.656  2.1388  0.4486 -0.7536
  585MOL0     H78934   7.294  10.262  -0.537 -0.3422 -1.1493  0.4232
  585MOL0     H78935   6.851  10.244  -0.391  1.3031 -0.9074 -0.4089
  585MOL0     H78936   6.776  10.447  -0.265  0.9579  0.7109 -0.0073
  585MOL0     H78937   6.853  10.925  -0.162 -1.7063  2.0297 -1.6998
  585MOL0     H78938   6.765  11.112  -0.030  1.0094  0.0507  0.8985
  585MOL0     H78939   6.746  11.217   0.181  0.9360 -2.7445  0.6423
  585MOL0     H78940   6.601  11.228   0.083 -1.2870  2.5062  0.8048
  585MOL0     H78941   6.580  11.255   0.378 -1.4158 -3.3148 -1.3440
  585MOL0     H78942   6.578  11.393   0.262  1.5206 -0.0747  3.7310
  585MOL0     H78943   6.376  11.258   0.152  2.3519  0.7329 -0.2466
  585MOL0     H78944   6.379  11.151   0.295 -1.1749  0.4067  0.4971
  585MOL0     H78945   6.340  11.453   0.294  3.0291 -0.9113 -2.1396
  585MOL0     H78946   6.330  11.356   0.443 -1.6212 -1.9046 -1.0598
  585MOL0     H78947   6.142  11.350   0.202 -0.7973  2.6574  0.5632
  585MOL0     H78948   6.091  11.426   0.344 -0.0975  1.8445 -2.9349
  585MOL0     H78949   6.147  11.146   0.291 -0.0386 -0.7146 -0.5245
  585MOL0     H78950   6.151  11.185   0.464  2.4277 -0.9393 -0.9466
  585MOL0     H78951   5.925  11.097   0.398  1.4793 -0.9131 -3.0490
  585MOL0     H78952   5.898  11.255   0.316 -0.9306 -1.3183 -0.0519
  585MOL0     H78953   5.956  11.234   0.611 -2.5055  1.6914  2.0116
  585MOL0     H78954   5.940  11.375   0.509  1.3711  0.6320  3.5986
  585MOL0     H78955   6.547  10.822   0.205  2.9523 -4.0877 -0.0923
  585MOL0     H78956   6.614  10.648   0.067  4.2491 -1.0942 -2.2791
  585MOL0     H78957   7.186  10.593  -0.278  1.8906 -1.3493  0.9049
  585MOL0     H78958   7.247  10.389  -0.401  0.4985 -0.5981 -0.2129
  585MOL0     H78959   6.600   9.897   0.111  1.8348  0.7344  1.8675
  585MOL0     H78960   6.431  10.009   0.281  0.4082  0.4837  2.2344
  585MOL0     H78961   6.267   9.984   0.696  0.7119 -1.1507  2.5065
  585MOL0     H78962   6.132  10.076   0.874  3.4049 -1.0323 -2.3756
  585MOL0     H78963   6.004  10.212   0.976  0.3511 -1.2786  0.3135
  585MOL0     H78964   5.860  10.169   1.063  0.7470 -0.0928 -0.5001
  585MOL0     H78965   5.867  10.377   0.831 -2.8565 -0.2812 -0.3516
  585MOL0     H78966   5.875  10.425   1.001 -0.0108  1.1464 -0.6476
  585MOL0     H78967   5.663  10.259   0.987  2.3545 -1.5841 -0.4134
  585MOL0     H78968   5.661  10.319   0.827  3.6490 -3.4759  0.2701
  585MOL0     H78969   5.654  10.569   0.953 -0.5580  0.0057 -0.4582
  585MOL0     H78970   5.507  10.475   0.936 -1.3005 -2.9267  1.6909
  585MOL0     H78971   5.598  10.392   1.344  0.8646 -2.7338 -0.9556
  585MOL0     H78972   5.781  10.037   0.630  0.8025  1.4903  0.1070
  585MOL0     H78973   5.899  10.021   0.353  0.1214 -0.2144 -0.1449
  585MOL0     H78974   5.946   9.845   0.383 -1.2649 -2.3025  3.7566
  585MOL0     H78975   5.803   9.905   0.455  0.8360 -3.2214 -1.8919
  586MOL0     O78976   8.485   7.397  11.265  0.1260 -0.5252 -0.5546
  586MOL0     C78977   8.426   7.331  11.176  1.1633  0.0653 -0.6643
  586MOL0     O78978   8.294   7.351  11.151 -0.1449  0.2627 -0.8853
  586MOL0     C78979   8.246   7.472  11.148  1.2412 -0.5876  0.2067
  586MOL0     C78980   8.242   7.556  11.037 -1.1453  0.3228 -0.7740
  586MOL0     C78981   8.190   7.683  11.037 -0.2861  0.6418  0.5812
  586MOL0     C78982   8.137   7.728  11.147 -0.6487 -0.2740 -0.1521
  586MOL0     O78983   8.078   7.855  11.133 -0.4273 -0.0402 -0.5214
  586MOL0     C78984   8.118   7.968  11.214  0.3288  0.4126  0.7294
  586MOL0     C78985   8.027   8.077  11.185  0.6456 -0.2791  0.2939
  586MOL0     C78986   8.042   8.201  11.275  0.6773  0.8302 -0.9089
  586MOL0     C78987   7.925   8.305  11.231 -0.0567  1.1089 -0.0130
  586MOL0     C78988   7.963   8.436  11.289  1.1270 -0.5023 -0.1678
  586MOL0     C78989   7.845   8.522  11.267 -0.9894 -0.2339  0.2438
  586MOL0     C78990   7.881   8.661  11.329  0.2677 -0.6748 -0.2951
  586MOL0     C78991   7.760   8.757  11.302  0.4052  0.1237 -0.5026
  586MOL0     N78992   7.631   8.718  11.383 -0.8738 -0.8383  0.4289
  586MOL0     C78993   7.528   8.665  11.314 -0.8976  0.0356  0.3105
  586MOL0     C78994   7.423   8.672  11.392 -0.1818 -0.5497  0.2987
  586MOL0     C78995   7.277   8.636  11.348 -0.6675 -0.2878  0.4382
  586MOL0     C78996   7.205   8.745  11.265 -0.9439 -0.9166 -0.5666
  586MOL0     C78997   7.056   8.707  11.261 -0.8603 -0.3264  0.7451
  586MOL0     C78998   7.033   8.559  11.221  0.6770 -0.5589  0.5746
  586MOL0     O78999   7.105   8.490  11.113 -0.5134  0.4573  0.0798
  586MOL0     C79000   7.052   8.376  11.061  0.3037  0.0103 -0.1202
  586MOL0     C79001   7.072   8.364  10.922  0.5126 -0.8674 -0.3237
  586MOL0     C79002   7.013   8.265  10.853 -0.6682 -0.5957 -0.2468
  586MOL0     C79003   6.927   8.170  10.907  0.5731  0.3597  0.2627
  586MOL0     C79004   6.859   8.062  10.822 -1.3073  0.0328 -0.4604
  586MOL0     O79005   6.857   8.087  10.682  0.0138  0.6839 -1.0750
  586MOL0     C79006   6.792   8.012  10.592 -0.2476  0.7834 -0.9665
  586MOL0     C79007   6.704   7.911  10.606  0.3904 -0.2076 -0.9106
  586MOL0     C79008   6.651   7.839  10.500  0.8469 -0.1446  0.0308
  586MOL0     C79009   6.683   7.862  10.368  0.1528 -0.5289 -0.3341
  586MOL0     O79010   6.608   7.801  10.271 -1.1598 -0.1835  0.3842
  586MOL0     C79011   6.595   7.871  10.147  0.4142  0.5107 -0.0311
  586MOL0     C79012   6.489   7.801  10.068  0.3370 -0.9205  0.2164
  586MOL0     C79013   6.548   7.693   9.974  1.1801  0.1580  0.0111
  586MOL0     C79014   6.612   7.578  10.064  0.3012 -0.5937  0.0344
  586MOL0     C79015   6.664   7.470   9.973  0.9900  0.1856  0.2520
  586MOL0     C79016   6.719   7.354  10.061  0.2291  0.2435  0.1417
  586MOL0     C79017   6.812   7.251   9.981  0.2193 -0.2558 -0.0718
  586MOL0     C79018   6.949   7.306   9.997  0.1220  0.1967  0.0953
  586MOL0    Cl79019   7.027   7.273  10.149  0.1277 -0.2110  0.0445
  586MOL0     C79020   6.774   7.967  10.349 -0.2444  0.1966  0.0313
  586MOL0     C79021   6.832   8.043  10.459 -0.6403  0.1433 -0.1796
  586MOL0     O79022   6.823   7.956  10.873  0.5978  0.9211  0.1531
  586MOL0     C79023   6.901   8.180  11.044 -0.3206 -0.2837 -0.2241
  586MOL0     C79024   6.954   8.291  11.117  0.2828 -0.7404 -0.3149
  586MOL0     N79025   7.471   8.723  11.512  1.4397  0.1845  0.5677
  586MOL0     N79026   7.594   8.746  11.507 -0.3437  0.2357 -0.7210
  586MOL0     C79027   8.146   7.664  11.278 -0.2114  0.6131  0.4986
  586MOL0     C79028   8.201   7.531  11.271  1.0315 -0.0796  0.2730
  586MOL0     C79029   8.503   7.217  11.119  0.4130 -0.4048  0.3530
  586MOL0     C79030   8.630   7.244  11.063 -0.6742 -0.1315 -0.6197
  586MOL0     C79031   8.705   7.139  11.019 -0.8928  0.1416 -1.0328
  586MOL0     C79032   8.662   7.003  11.024 -0.2878  1.0691  0.5041
  586MOL0     O79033   8.747   6.910  10.962  1.5359  0.6073 -0.3743
  586MOL0     C79034   8.744   6.779  11.021  0.0525  0.0945 -0.1709
  586MOL0     C79035   8.799   6.676  10.938  0.0537 -0.0500  1.5082
  586MOL0     C79036   8.822   6.550  11.022  0.3312 -0.7760  0.5584
  586MOL0     C79037   8.964   6.540  11.088  0.2928  0.1323  0.8527
  586MOL0     C79038   8.970   6.446  11.199 -0.3158  0.2034 -0.0024
  586MOL0     C79039   8.953   6.360  11.287  0.0631 -0.5608 -0.3414
  586MOL0     C79040   8.533   6.976  11.079 -0.0025 -0.0236  0.1348
  586MOL0     C79041   8.457   7.085  11.136 -0.5900 -0.3254  0.9178
  586MOL0     C79042   8.331   7.056  11.216 -0.6058  0.0377 -0.0167
  586MOL0     H79043   8.302   7.533  10.949  2.5472  1.7912  1.1116
  586MOL0     H79044   8.192   7.759  10.960 -3.2973  2.4374  2.1090
  586MOL0     H79045   8.108   7.940  11.320  0.0446 -1.1448  0.3178
  586MOL0     H79046   8.219   7.997  11.184 -0.1903  0.7901 -0.7142
  586MOL0     H79047   7.927   8.036  11.201  0.1661  1.4834  2.3977
  586MOL0     H79048   8.030   8.125  11.087 -0.5565 -0.0319  0.3629
  586MOL0     H79049   8.138   8.251  11.260  1.0722  1.0567  1.7863
  586MOL0     H79050   8.037   8.180  11.382  0.6855 -1.0079 -1.2511
  586MOL0     H79051   7.918   8.316  11.123 -0.6842 -1.9255 -0.3714
  586MOL0     H79052   7.829   8.271  11.272 -0.2160  2.6467  0.9675
  586MOL0     H79053   8.000   8.432  11.392  2.5987 -0.7917 -0.6754
  586MOL0     H79054   8.044   8.472  11.224  0.5149 -1.0625 -1.2494
  586MOL0     H79055   7.857   8.520  11.158  0.1705 -1.4323  0.3622
  586MOL0     H79056   7.752   8.481  11.308 -0.2995  0.6797  2.9148
  586MOL0     H79057   7.975   8.703  11.291  0.6060  1.6972  2.7075
  586MOL0     H79058   7.896   8.658  11.438 -2.2666 -0.5424  0.1150
  586MOL0     H79059   7.784   8.858  11.337  2.1361 -0.7957  1.1327
  586MOL0     H79060   7.745   8.778  11.196 -0.7233  1.0711 -0.1851
  586MOL0     H79061   7.535   8.645  11.208  1.2810  0.6897  0.2834
  586MOL0     H79062   7.279   8.545  11.287  1.0457  0.5547 -0.8475
  586MOL0     H79063   7.216   8.620  11.437 -0.3322 -6.1963  0.0029
  586MOL0     H79064   7.215   8.841  11.316  1.8314 -1.7772  0.7313
  586MOL0     H79065   7.256   8.768  11.171  0.2509  1.6827  0.6261
  586MOL0     H79066   7.015   8.781  11.192 -0.6517 -0.0172  0.9517
  586MOL0     H79067   7.005   8.722  11.357 -2.6847 -0.4212 -0.1529
  586MOL0     H79068   6.927   8.563  11.195  0.0877 -0.1082  2.8811
  586MOL0     H79069   7.045   8.501  11.313 -0.3877 -2.4012 -0.3823
  586MOL0     H79070   7.129   8.434  10.862  0.2720 -3.4815 -3.9339
  586MOL0     H79071   7.032   8.243  10.748 -3.3538  0.2312 -0.9983
  586MOL0     H79072   6.672   7.879  10.704  3.4654 -1.8505 -0.3334
  586MOL0     H79073   6.560   7.779  10.508 -2.5109  4.5740  1.8363
  586MOL0     H79074   6.573   7.977  10.165 -2.4286  0.4225 -2.2154
  586MOL0     H79075   6.685   7.874  10.085 -0.6937 -0.3711 -1.7675
  586MOL0     H79076   6.423   7.739  10.130 -0.0977  0.6901  1.4418
  586MOL0     H79077   6.437   7.869  10.000  0.8678  2.6039  3.0183
  586MOL0     H79078   6.457   7.650   9.932  0.6545 -0.6106  1.8618
  586MOL0     H79079   6.609   7.724   9.888  1.8032  1.3756  0.8512
  586MOL0     H79080   6.546   7.530  10.137  0.4443 -3.5705 -1.6112
  586MOL0     H79081   6.702   7.619  10.112 -0.2079 -1.8311  2.1564
  586MOL0     H79082   6.733   7.510   9.897  1.1667  0.2968  0.4705
  586MOL0     H79083   6.570   7.440   9.925  1.3959 -0.3469 -0.2441
  586MOL0     H79084   6.779   7.405  10.136  3.3584  1.3482 -2.8459
  586MOL0     H79085   6.634   7.302  10.106  1.1481 -1.2168  0.2416
  586MOL0     H79086   6.800   7.264   9.873  3.2614  2.5238 -0.2290
  586MOL0     H79087   6.794   7.149  10.014  0.8845 -0.4468 -0.2806
  586MOL0     H79088   7.006   7.249   9.923 -2.3324 -1.0558 -0.9384
  586MOL0     H79089   6.941   7.412   9.971 -1.7001 -0.0919 -0.6814
  586MOL0     H79090   6.801   7.999  10.248  0.5410  0.9184  0.4521
  586MOL0     H79091   6.901   8.125  10.443 -0.1864 -0.3857 -1.0622
  586MOL0     H79092   6.833   8.122  11.106  0.5983  1.4359  2.5566
  586MOL0     H79093   6.931   8.303  11.223 -1.2540  1.1041 -0.7836
  586MOL0     H79094   8.099   7.713  11.363 -0.5982  2.7122 -0.8582
  586MOL0     H79095   8.190   7.462  11.354  2.0080 -0.7204 -0.1163
  586MOL0     H79096   8.661   7.348  11.076 -2.4446  0.2700  0.8618
  586MOL0     H79097   8.805   7.157  10.982 -1.4796 -1.5673 -3.7744
  586MOL0     H79098   8.644   6.749  11.054 -0.1819  0.5235 -0.4888
  586MOL0     H79099   8.799   6.780  11.116 -2.5209  1.0709  1.4216
  586MOL0     H79100   8.893   6.709  10.894  1.1817 -1.6397  2.6317
  586MOL0     H79101   8.721   6.659  10.863 -0.5063 -0.0597  2.0856
  586MOL0     H79102   8.791   6.461  10.966  0.1705 -0.2390 -0.2392
  586MOL0     H79103   8.745   6.557  11.099 -0.7499  1.9020 -0.6416
  586MOL0     H79104   9.025   6.512  11.002 -1.0723 -3.4055  0.8909
  586MOL0     H79105   8.981   6.644  11.117 -0.0896  0.8935 -1.4409
  586MOL0     H79106   8.952   6.297  11.373 -1.2504 -1.6122 -1.0862
  586MOL0     H79107   8.487   6.878  11.084  2.2881 -1.2623 -1.2249
  586MOL0     H79108   8.323   6.950  11.241 -0.8931  0.4432  1.7286
  586MOL0     H79109   8.329   7.117  11.306 -3.4601  0.3568 -0.1983
  586MOL0     H79110   8.246   7.078  11.150  0.1346 -0.7707 -1.2727
  587MOL0     O79111   1.686   0.509   4.076 -0.0636  0.3898  1.1698
  587MOL0     C79112   1.806   0.498   4.116  0.2770 -0.4226  0.3825
  587MOL0     O79113   1.852   0.551   4.237 -0.6793 -0.7121  0.7146
  587MOL0     C79114   1.770   0.615   4.329 -0.5566 -0.3102 -0.8940
  587MOL0     C79115   1.634   0.644   4.320 -0.2819 -0.9008  0.8456
  587MOL0     C79116   1.560   0.681   4.425 -0.1515 -0.6072 -0.3139
  587MOL0     C79117   1.616   0.706   4.557  0.4464 -1.5334  0.8842
  587MOL0     O79118   1.540   0.726   4.673  0.0030  0.6090 -0.7439
  587MOL0     C79119   1.401   0.719   4.663  0.0557  0.5538  0.2296
  587MOL0     C79120   1.339   0.748   4.794  0.1026 -0.7434  0.6906
  587MOL0     C79121   1.186   0.726   4.789  0.6955  0.4503  0.2340
  587MOL0     C79122   1.126   0.778   4.925  0.1059  0.4504 -0.4566
  587MOL0     C79123   0.979   0.753   4.955 -0.2932 -0.5173  0.3282
  587MOL0     C79124   0.886   0.833   4.860  0.2668  0.1059  0.2670
  587MOL0     C79125   0.741   0.812   4.911  0.2514  0.7394  0.1957
  587MOL0     C79126   0.643   0.889   4.819 -0.1580  0.7252 -0.5492
  587MOL0     N79127   0.510   0.908   4.890  0.4336  0.4256  0.5315
  587MOL0     C79128   0.471   1.031   4.947 -0.4056  0.7110  0.2466
  587MOL0     C79129   0.336   1.018   4.965 -0.6320  0.0978  0.0996
  587MOL0     C79130   0.256   1.122   5.019  0.2348 -0.8638  0.6046
  587MOL0     C79131   0.271   1.147   5.176 -0.2267  0.7129  0.5751
  587MOL0     C79132   0.396   1.209   5.232 -0.0069  0.0468 -1.0010
  587MOL0     C79133   0.402   1.194   5.383  0.1846 -0.3201  0.0114
  587MOL0     O79134   0.470   1.298   5.453 -0.6377 -0.1859 -0.0693
  587MOL0     C79135   0.456   1.265   5.588 -0.4368  0.6678  0.6496
  587MOL0     C79136   0.338   1.278   5.658 -0.4895  0.5576 -0.0523
  587MOL0     C79137   0.324   1.240   5.795 -0.4586  0.5346 -0.4874
  587MOL0     C79138   0.433   1.177   5.850 -0.7378  0.4336  0.3343
  587MOL0     C79139   0.442   1.137   5.995  0.2016 -0.1620  0.4534
  587MOL0     O79140   0.325   1.129   6.065  0.0901 -0.3911  0.8915
  587MOL0     C79141   0.305   1.094   6.194  0.2418 -0.3348 -0.1429
  587MOL0     C79142   0.401   1.063   6.292  0.4648 -0.7385  0.4635
  587MOL0     C79143   0.357   1.043   6.425  0.6359 -0.1391  0.7949
  587MOL0     C79144   0.220   1.045   6.455 -0.5518  0.2856 -0.0429
  587MOL0     O79145   0.170   1.029   6.582 -0.9041  0.2208  0.4304
  587MOL0     C79146   0.266   1.046   6.693 -0.4144 -0.3502 -0.1161
  587MOL0     C79147   0.214   1.057   6.830  0.5499 -0.5025  0.5318
  587MOL0     C79148   0.170   0.925   6.890 -0.6374  0.7067 -0.1273
  587MOL0     C79149   0.134   0.956   7.039 -0.2503  0.3201  0.7710
  587MOL0     C79150   0.073   0.833   7.105 -0.6890 -0.0946  0.2986
  587MOL0     C79151   0.056   0.858   7.256 -0.3939  0.2192  0.1604
  587MOL0     C79152   0.147   0.789   7.361 -1.1641 -0.2754  0.0508
  587MOL0     C79153   0.147   0.634   7.350 -0.2119 -0.1169  0.1164
  587MOL0    Cl79154   0.001   0.560   7.418  0.0421 -0.1311 -0.1209
  587MOL0     C79155   0.129   1.077   6.364 -0.5621 -0.4861 -0.9469
  587MOL0     C79156   0.177   1.106   6.231 -0.4592  0.1240  1.2400
  587MOL0     O79157   0.554   1.114   6.038  0.4745  1.0079 -0.4892
  587MOL0     C79158   0.547   1.146   5.775 -0.4829 -0.6235  0.5892
  587MOL0     C79159   0.558   1.198   5.647  0.6497  0.1744 -0.4112
  587MOL0     N79160   0.303   0.892   4.922 -0.5474  0.4768  0.2509
  587MOL0     N79161   0.409   0.824   4.889 -0.4628  1.3997 -0.1161
  587MOL0     C79162   1.752   0.699   4.562 -0.4992 -0.8250 -0.6011
  587MOL0     C79163   1.826   0.639   4.450  1.4706 -0.7558  0.2067
  587MOL0     C79164   1.914   0.423   4.027  0.6395 -0.0601  0.4070
  587MOL0     C79165   2.031   0.395   4.086 -0.6812  0.5792  0.7233
  587MOL0     C79166   2.121   0.316   4.018 -0.6380  0.3092 -0.7166
  587MOL0     C79167   2.115   0.268   3.888 -0.2534 -0.0762 -0.8121
  587MOL0     O79168   2.219   0.199   3.826  0.3747 -0.2984  0.1556
  587MOL0     C79169   2.334   0.163   3.902  0.0890  0.1776 -0.0010
  587MOL0     C79170   2.408   0.067   3.806  0.4977  0.3440  0.5942
  587MOL0     C79171   2.539   0.012   3.876 -0.0135  0.3143  0.4333
  587MOL0     C79172   2.635  -0.031   3.765  0.1226 -0.1254  0.7827
  587MOL0     C79173   2.732  -0.130   3.798 -0.3218  0.3449  0.0942
  587MOL0     C79174   2.807  -0.214   3.840 -0.5932  0.3691  0.1026
  587MOL0     C79175   2.000   0.306   3.820  0.2335  0.1314 -0.0671
  587MOL0     C79176   1.895   0.382   3.887 -0.1465 -0.0624 -0.3156
  587MOL0     C79177   1.776   0.412   3.806  0.5563  0.1864 -0.2352
  587MOL0     H79178   1.575   0.638   4.229  0.1782 -1.2712  0.5644
  587MOL0     H79179   1.456   0.705   4.407 -0.4865 -0.6208  1.3787
  587MOL0     H79180   1.376   0.805   4.601 -3.3231  1.7756  2.9515
  587MOL0     H79181   1.364   0.627   4.617  1.0290 -0.3310  1.1618
  587MOL0     H79182   1.350   0.854   4.819 -2.4073 -0.6319  1.5980
  587MOL0     H79183   1.388   0.683   4.867  2.3374 -1.6199 -1.4461
  587MOL0     H79184   1.165   0.619   4.780 -0.9426  0.7732 -0.0124
  587MOL0     H79185   1.144   0.771   4.699 -2.9819 -1.3891  0.8524
  587MOL0     H79186   1.184   0.731   5.005 -0.6882 -2.2148 -1.3333
  587MOL0     H79187   1.154   0.884   4.927  2.6037 -0.1561 -0.0137
  587MOL0     H79188   0.956   0.647   4.942 -2.3719  0.1861 -2.8264
  587MOL0     H79189   0.956   0.782   5.058 -2.5749  1.3136 -0.5953
  587MOL0     H79190   0.910   0.940   4.864  1.6976 -0.2266  1.6603
  587MOL0     H79191   0.899   0.793   4.759 -2.8476  1.1044 -0.6420
  587MOL0     H79192   0.731   0.857   5.010  0.4373  1.8683 -0.2870
  587MOL0     H79193   0.722   0.705   4.911  0.7130  0.6441  1.5649
  587MOL0     H79194   0.675   0.992   4.804  0.6326  1.1822  3.4260
  587MOL0     H79195   0.616   0.827   4.733 -4.1789  0.7380  0.4826
  587MOL0     H79196   0.529   1.122   4.960  1.8867 -0.5649 -0.4922
  587MOL0     H79197   0.266   1.209   4.953 -3.4007 -0.0141  0.9692
  587MOL0     H79198   0.154   1.084   5.005  0.6571 -1.3396 -1.5153
  587MOL0     H79199   0.192   1.216   5.208 -0.9197  0.2086 -0.0380
  587MOL0     H79200   0.259   1.048   5.221 -1.3882 -1.1496 -3.3938
  587MOL0     H79201   0.400   1.313   5.197 -1.1887 -0.1561 -1.8093
  587MOL0     H79202   0.482   1.148   5.204 -0.3296 -0.5022 -0.8230
  587MOL0     H79203   0.451   1.102   5.415 -1.5367 -1.5096 -0.5939
  587MOL0     H79204   0.301   1.183   5.425 -1.2268 -0.4541 -3.1341
  587MOL0     H79205   0.251   1.326   5.616  1.4035  1.3649 -3.4121
  587MOL0     H79206   0.235   1.266   5.851 -0.0260  0.8368  0.0578
  587MOL0     H79207   0.504   1.039   6.265  0.1823 -0.4109 -1.0190
  587MOL0     H79208   0.436   1.012   6.491  1.2203 -0.0524  0.1513
  587MOL0     H79209   0.347   0.972   6.706 -3.0214 -3.1771  1.4042
  587MOL0     H79210   0.306   1.146   6.673  0.2263 -0.7284 -0.7950
  587MOL0     H79211   0.286   1.100   6.900 -2.0386  1.5907  2.1290
  587MOL0     H79212   0.129   1.126   6.830  1.7977  1.2173 -2.1856
  587MOL0     H79213   0.091   0.881   6.828  0.6948 -0.5795 -0.9962
  587MOL0     H79214   0.252   0.852   6.880 -0.8853 -0.2643  3.6326
  587MOL0     H79215   0.069   1.043   7.053 -1.1574 -0.4417  1.4499
  587MOL0     H79216   0.229   0.985   7.084 -0.6883  1.0254  1.2788
  587MOL0     H79217   0.137   0.745   7.108  1.5006  1.3952 -0.1122
  587MOL0     H79218  -0.026   0.817   7.061 -0.9853 -0.6638  1.1343
  587MOL0     H79219   0.074   0.965   7.264  1.3495 -0.0153 -0.3358
  587MOL0     H79220  -0.046   0.846   7.296  0.5144 -2.5399  1.9420
  587MOL0     H79221   0.108   0.815   7.460  0.8028 -2.0592  1.3786
  587MOL0     H79222   0.250   0.813   7.333 -2.0911  1.4825 -2.1686
  587MOL0     H79223   0.163   0.582   7.255  0.2123  0.3015 -0.0398
  587MOL0     H79224   0.233   0.594   7.405  1.5980  0.8525 -1.8866
  587MOL0     H79225   0.022   1.085   6.382 -0.4881  0.0399 -0.7441
  587MOL0     H79226   0.110   1.137   6.151  0.5522  0.5983  0.5488
  587MOL0     H79227   0.637   1.107   5.821  0.0573  0.7028  0.7024
  587MOL0     H79228   0.654   1.191   5.598  0.2103  0.2169 -1.3109
  587MOL0     H79229   1.801   0.719   4.657  0.0705  1.1209 -1.2584
  587MOL0     H79230   1.927   0.602   4.465  1.1371 -1.5937  0.4520
  587MOL0     H79231   2.054   0.434   4.184 -0.6762 -1.0904  1.4137
  587MOL0     H79232   2.216   0.317   4.071 -0.4857  1.9546 -0.9669
  587MOL0     H79233   2.305   0.112   3.994 -1.0409  0.2794 -0.2832
  587MOL0     H79234   2.389   0.251   3.936  2.4856 -0.5971 -1.5809
  587MOL0     H79235   2.423   0.120   3.711  2.2929  1.6949  1.5566
  587MOL0     H79236   2.346  -0.022   3.796 -1.1242  1.1437  2.7445
  587MOL0     H79237   2.528  -0.072   3.946  2.7385  0.6490  1.3918
  587MOL0     H79238   2.596   0.087   3.930  2.0005 -2.0248  1.7723
  587MOL0     H79239   2.570  -0.069   3.685  1.6288 -0.0490 -0.5131
  587MOL0     H79240   2.686   0.048   3.709  1.0401 -0.1660  1.5496
  587MOL0     H79241   2.862  -0.300   3.872 -3.2494 -2.3714 -2.2027
  587MOL0     H79242   1.990   0.282   3.715  0.5004  1.9095 -0.5329
  587MOL0     H79243   1.773   0.364   3.708 -1.6367  0.9624 -0.5967
  587MOL0     H79244   1.687   0.379   3.860 -0.7506 -2.3624 -3.5692
  587MOL0     H79245   1.770   0.521   3.799 -0.8824  0.1773  0.4921
  588MOL0     O79246   4.282  11.073  11.417 -0.4223 -0.1610  0.0862
  588MOL0     C79247   4.249  11.042  11.306  0.1077 -1.2182 -0.0780
  588MOL0     O79248   4.325  10.956  11.222  0.3392 -0.2528 -0.1033
  588MOL0     C79249   4.445  10.910  11.280  0.3487 -1.3379  0.4045
  588MOL0     C79250   4.557  11.001  11.279 -0.8352 -0.4215 -0.6861
  588MOL0     C79251   4.675  10.943  11.347  0.0093 -0.7834  0.7089
  588MOL0     C79252   4.684  10.819  11.394 -0.9695  0.2417 -0.6722
  588MOL0     O79253   4.810  10.787  11.449  0.0769  0.3066 -0.4999
  588MOL0     C79254   4.810  10.682  11.550  0.4411  1.0005 -0.1794
  588MOL0     C79255   4.945  10.689  11.627  1.2187 -0.1099 -0.1479
  588MOL0     C79256   4.956  10.584  11.730 -1.0311  0.5242 -0.4320
  588MOL0     C79257   5.104  10.562  11.760  0.3281  0.4617  0.0748
  588MOL0     C79258   5.112  10.468  11.887  0.8941 -0.1645 -0.4244
  588MOL0     C79259   5.262  10.447  11.917  0.1374  0.2187  0.4331
  588MOL0     C79260   5.287  10.386  12.050  0.2494  0.7188  0.6586
  588MOL0     C79261   5.440  10.360  12.071  0.0283 -0.4986  0.0292
  588MOL0     N79262   5.500  10.230  12.025 -0.0354 -0.1984  0.3926
  588MOL0     C79263   5.547  10.215  11.898 -0.1054 -0.9241  0.8957
  588MOL0     C79264   5.573  10.081  11.888 -0.1748 -1.1705  0.2983
  588MOL0     C79265   5.623  10.010  11.770 -0.1822  0.3979  0.4016
  588MOL0     C79266   5.517   9.993  11.661  0.2826 -0.7709 -0.6898
  588MOL0     C79267   5.570   9.906  11.542  0.1085 -0.2945 -0.3206
  588MOL0     C79268   5.459   9.831  11.456 -0.5521  0.4906 -0.0114
  588MOL0     O79269   5.388   9.736  11.535  0.6214  0.0645 -0.1878
  588MOL0     C79270   5.451   9.614  11.549  0.0046 -0.1116 -0.2378
  588MOL0     C79271   5.550   9.557  11.468  0.4162 -0.6411  0.2070
  588MOL0     C79272   5.601   9.432  11.508 -0.4064  0.6578  0.4621
  588MOL0     C79273   5.555   9.350  11.603 -0.3883  0.3423 -0.8834
  588MOL0     C79274   5.605   9.212  11.632 -0.0975  0.4392 -0.3702
  588MOL0     O79275   5.684   9.142  11.541 -0.5721 -0.3241 -0.8880
  588MOL0     C79276   5.704   9.014  11.557  0.8028  0.2115  1.3440
  588MOL0     C79277   5.624   8.914  11.616 -0.1775 -1.0502  0.0800
  588MOL0     C79278   5.648   8.774  11.611 -0.6306 -0.0753  0.6465
  588MOL0     C79279   5.755   8.733  11.539  0.6334 -0.6250 -0.2964
  588MOL0     O79280   5.771   8.589  11.528 -0.0476  0.4487  0.1271
  588MOL0     C79281   5.883   8.538  11.450 -0.0711 -1.0315 -0.1798
  588MOL0     C79282   5.858   8.388  11.422  0.7779  0.1588 -0.4082
  588MOL0     C79283   5.958   8.324  11.329  0.8371  0.6696 -0.2690
  588MOL0     C79284   5.900   8.209  11.255 -0.3400 -0.2683  0.4548
  588MOL0     C79285   6.001   8.119  11.183  0.2458  0.7032  0.5561
  588MOL0     C79286   5.931   8.032  11.070 -0.6676 -0.6606  0.6592
  588MOL0     C79287   6.026   7.937  11.004  0.5874  0.5267 -0.0464
  588MOL0     C79288   5.966   7.841  10.896 -0.1219  0.3263 -0.3586
  588MOL0    Cl79289   5.870   7.910  10.764 -0.3081 -0.1587  0.2124
  588MOL0     C79290   5.844   8.830  11.480 -0.5886  0.4014 -0.5954
  588MOL0     C79291   5.814   8.973  11.488  0.4776  0.7161 -0.4109
  588MOL0     O79292   5.561   9.168  11.738  0.0838  0.5095 -0.2390
  588MOL0     C79293   5.454   9.413  11.686 -0.6796  1.3047 -0.4275
  588MOL0     C79294   5.408   9.535  11.653  0.1291 -0.1307 -0.0832
  588MOL0     N79295   5.548  10.028  12.008  0.3429 -0.5311 -0.2327
  588MOL0     N79296   5.492  10.117  12.089 -0.6359 -0.9027  0.0196
  588MOL0     C79297   4.574  10.732  11.388 -0.2430 -0.0955 -0.0752
  588MOL0     C79298   4.449  10.786  11.336 -0.0931 -0.1898  0.1640
  588MOL0     C79299   4.118  11.079  11.252 -0.0994 -0.6938 -0.5228
  588MOL0     C79300   4.066  11.021  11.132 -0.5487  0.3569  0.3550
  588MOL0     C79301   3.931  11.063  11.096  0.0038  0.0184  0.3197
  588MOL0     C79302   3.857  11.172  11.143  0.3674 -0.4695 -0.8830
  588MOL0     O79303   3.745  11.237  11.090 -0.1107 -0.5588 -0.1438
  588MOL0     C79304   3.708  11.200  10.960 -0.1128  0.2334  0.1245
  588MOL0     C79305   3.721  11.315  10.855  0.8260  0.8739  0.6382
  588MOL0     C79306   3.860  11.376  10.873 -1.0205 -0.8737 -0.5792
  588MOL0     C79307   3.873  11.500  10.780  0.4932 -0.1537 -0.7998
  588MOL0     C79308   3.883  11.450  10.641 -0.1711 -0.3845 -0.3340
  588MOL0     C79309   3.889  11.418  10.524  0.5720  0.0313 -0.4027
  588MOL0     C79310   3.914  11.227  11.255 -0.0376 -0.5004 -0.3780
  588MOL0     C79311   4.038  11.193  11.313 -0.6831 -1.1605  0.0770
  588MOL0     C79312   4.077  11.274  11.438 -0.0597  0.5682  0.0460
  588MOL0     H79313   4.551  11.098  11.232  0.5133  0.9552  1.7791
  588MOL0     H79314   4.760  11.010  11.354 -1.6382  1.3275  1.7346
  588MOL0     H79315   4.725  10.691  11.618 -1.0329  1.6161 -2.0208
  588MOL0     H79316   4.805  10.585  11.499  0.9436 -1.2000  3.5215
  588MOL0     H79317   4.965  10.785  11.675  6.5650 -0.5452 -0.8636
  588MOL0     H79318   5.017  10.668  11.547 -1.3481 -0.6672 -2.4487
  588MOL0     H79319   4.911  10.489  11.700  2.8658 -1.7118  0.2173
  588MOL0     H79320   4.911  10.629  11.819 -1.0886  0.5566 -0.4768
  588MOL0     H79321   5.151  10.511  11.675 -2.1238 -1.9224 -0.0312
  588MOL0     H79322   5.153  10.657  11.780  0.3941 -0.3294  4.6349
  588MOL0     H79323   5.057  10.512  11.970  0.4582 -1.5173  0.0396
  588MOL0     H79324   5.075  10.365  11.875  1.4941 -0.2366 -1.7675
  588MOL0     H79325   5.296  10.377  11.840 -0.1432 -2.0610  2.2681
  588MOL0     H79326   5.313  10.543  11.917  1.9444 -0.7009  0.6033
  588MOL0     H79327   5.240  10.287  12.047  3.4190 -0.9452  1.1747
  588MOL0     H79328   5.243  10.449  12.128  1.0124  1.5040  0.4620
  588MOL0     H79329   5.503  10.443  12.038 -1.0784  0.1271 -0.5658
  588MOL0     H79330   5.455  10.369  12.179 -1.1877  3.7860  0.0167
  588MOL0     H79331   5.548  10.286  11.816 -2.3029 -3.0310 -1.1128
  588MOL0     H79332   5.712  10.067  11.740 -1.7145  0.8075 -4.2646
  588MOL0     H79333   5.657   9.909  11.792  3.1178  1.0730 -0.9681
  588MOL0     H79334   5.431   9.953  11.715  0.8763 -0.3586  0.5948
  588MOL0     H79335   5.496  10.088  11.612 -2.0155  0.1951  1.9510
  588MOL0     H79336   5.651   9.839  11.573  1.1089  1.5955  1.3759
  588MOL0     H79337   5.610   9.977  11.469 -1.1467  0.2337 -0.5112
  588MOL0     H79338   5.498   9.784  11.365 -3.1906 -3.1290  0.5238
  588MOL0     H79339   5.402   9.916  11.417  1.8199  2.8407  1.2983
  588MOL0     H79340   5.589   9.620  11.390 -1.6786  1.4105  0.7093
  588MOL0     H79341   5.687   9.400  11.449 -1.2151  0.8099 -0.8489
  588MOL0     H79342   5.536   8.951  11.667  2.1424  1.4380  2.6263
  588MOL0     H79343   5.589   8.697  11.659  3.4449 -4.2973 -0.3411
  588MOL0     H79344   5.893   8.592  11.356 -1.9891 -2.7357 -1.4544
  588MOL0     H79345   5.974   8.559  11.506  1.5630 -1.2195 -2.6144
  588MOL0     H79346   5.871   8.333  11.516  4.7970  2.3460  0.5323
  588MOL0     H79347   5.753   8.376  11.392  1.0136 -0.0430 -1.1711
  588MOL0     H79348   5.988   8.394  11.250  3.5576 -0.9407 -0.7805
  588MOL0     H79349   6.056   8.313  11.376 -1.0602 -1.1722  3.7062
  588MOL0     H79350   5.839   8.254  11.175  0.5356 -0.3726 -0.2946
  588MOL0     H79351   5.837   8.145  11.317  0.0870  0.6607  1.8862
  588MOL0     H79352   6.049   8.053  11.256 -1.0687 -0.0469  0.7710
  588MOL0     H79353   6.067   8.193  11.137 -2.4283  2.1607 -1.2412
  588MOL0     H79354   5.861   7.964  11.119  0.1754 -2.7002 -0.8338
  588MOL0     H79355   5.890   8.100  10.994  0.3020  0.9848  1.5250
  588MOL0     H79356   6.079   7.867  11.069  0.7132  2.2007  1.7516
  588MOL0     H79357   6.085   8.007  10.945 -2.0801 -0.2401 -4.0484
  588MOL0     H79358   6.061   7.812  10.852  0.3312  2.4856 -0.9326
  588MOL0     H79359   5.911   7.754  10.933  1.4437 -1.7531 -2.6398
  588MOL0     H79360   5.936   8.800  11.431  0.1480 -0.4721  1.2379
  588MOL0     H79361   5.885   9.044  11.447 -0.3093  0.7142 -1.8275
  588MOL0     H79362   5.412   9.355  11.767 -1.7744 -0.8212 -2.4105
  588MOL0     H79363   5.336   9.580  11.721 -0.7907 -3.1692  1.1392
  588MOL0     H79364   4.576  10.630  11.423 -2.9477  0.7836  3.1190
  588MOL0     H79365   4.362  10.721  11.328 -0.9777  1.0761 -1.0002
  588MOL0     H79366   4.118  10.930  11.104 -0.2599  0.4119  0.6959
  588MOL0     H79367   3.879  10.993  11.032 -1.9253 -0.0936  1.8855
  588MOL0     H79368   3.604  11.166  10.957  0.1067 -0.4924 -2.6197
  588MOL0     H79369   3.764  11.117  10.916  2.7869  0.4155  3.0546
  588MOL0     H79370   3.658  11.404  10.861  0.1933  1.1298 -4.8594
  588MOL0     H79371   3.698  11.291  10.751 -1.2452  3.0115  0.5219
  588MOL0     H79372   3.937  11.302  10.854  0.4797  0.7719 -1.2180
  588MOL0     H79373   3.866  11.428  10.969 -1.5499 -0.7946 -0.5843
  588MOL0     H79374   3.799  11.578  10.799 -0.3400 -1.3893  1.3150
  588MOL0     H79375   3.966  11.550  10.804 -0.5128  1.0005  0.8845
  588MOL0     H79376   3.910  11.377  10.427  2.7750  4.1322 -1.9071
  588MOL0     H79377   3.867  11.322  11.280  1.2405  0.1442 -0.3437
  588MOL0     H79378   4.082  11.209  11.526 -0.4462 -1.4645 -1.3583
  588MOL0     H79379   4.172  11.329  11.433 -1.0218  2.2189 -0.6685
  588MOL0     H79380   4.007  11.357  11.449 -0.2408  0.4239 -0.0230
  589MOL0     O79381   3.411   8.854   5.837  0.3285 -0.2931 -0.2894
  589MOL0     C79382   3.525   8.790   5.844 -0.8006 -0.7854 -0.3167
  589MOL0     O79383   3.595   8.775   5.963  0.5352  0.4059 -0.1036
  589MOL0     C79384   3.588   8.864   6.065  0.6998  0.4837  0.0665
  589MOL0     C79385   3.594   9.005   6.035 -0.3405 -0.1031 -0.0345
  589MOL0     C79386   3.600   9.099   6.135 -0.8920 -0.7826 -0.6083
  589MOL0     C79387   3.613   9.055   6.272 -0.6409  0.0705  0.9595
  589MOL0     O79388   3.631   9.142   6.362  0.0768  0.2252 -0.2687
  589MOL0     C79389   3.507   9.217   6.395 -0.6303  0.5072  0.7608
  589MOL0     C79390   3.493   9.262   6.539  1.0493  0.0408 -0.0918
  589MOL0     C79391   3.605   9.357   6.589 -0.1079  0.5406 -0.6883
  589MOL0     C79392   3.620   9.365   6.745 -0.4318 -0.3783  1.0037
  589MOL0     C79393   3.485   9.379   6.822 -0.3486  0.1886  0.4018
  589MOL0     C79394   3.521   9.423   6.947 -0.2710  0.5932 -0.5671
  589MOL0     C79395   3.409   9.444   7.046  0.2581  0.3113  0.0634
  589MOL0     C79396   3.342   9.575   7.036  0.7363 -0.6778  0.8231
  589MOL0     N79397   3.237   9.590   7.141 -0.2531 -0.0114  0.0539
  589MOL0     C79398   3.178   9.713   7.164  0.7652  0.2461  0.2165
  589MOL0     C79399   3.105   9.699   7.276 -0.7838 -0.0025  0.0460
  589MOL0     C79400   3.018   9.798   7.334  1.0860 -0.0402 -0.6540
  589MOL0     C79401   3.045   9.813   7.490 -0.3197 -0.6401  0.2939
  589MOL0     C79402   2.937   9.902   7.551 -0.0453  0.2087 -0.2587
  589MOL0     C79403   2.908  10.044   7.498 -0.0969  0.5501  0.5195
  589MOL0     O79404   2.803  10.038   7.398  0.3346 -0.6585 -0.3307
  589MOL0     C79405   2.723  10.153   7.376 -1.2199 -0.1711  0.4830
  589MOL0     C79406   2.650  10.174   7.258  0.0917  0.4767 -0.1983
  589MOL0     C79407   2.596  10.297   7.217  0.4253 -0.3982 -0.4024
  589MOL0     C79408   2.613  10.411   7.300  1.5380  0.5114  0.1931
  589MOL0     C79409   2.550  10.539   7.265  0.2741  0.1730 -0.7543
  589MOL0     O79410   2.460  10.543   7.156 -0.5326  0.3929  0.3825
  589MOL0     C79411   2.401  10.659   7.115 -0.1901 -0.8383 -0.0193
  589MOL0     C79412   2.264  10.682   7.151  0.3604 -1.5679  0.4855
  589MOL0     C79413   2.199  10.794   7.123  0.1480 -0.3514 -0.8417
  589MOL0     C79414   2.263  10.898   7.047 -0.4821  0.3639  1.0983
  589MOL0     O79415   2.203  11.022   7.010  0.0503  0.0683 -1.1485
  589MOL0     C79416   2.057  11.017   7.014 -0.1106 -0.0347  0.2766
  589MOL0     C79417   2.011  11.164   6.998  0.1953 -0.0587  0.3423
  589MOL0     C79418   2.041  11.233   6.862  0.1843  0.3951 -0.4051
  589MOL0     C79419   1.943  11.349   6.833 -0.5774 -0.0383 -0.0820
  589MOL0     C79420   1.967  11.419   6.693 -0.4314 -0.5237 -0.1921
  589MOL0     C79421   1.848  11.506   6.658 -0.3384  0.7056 -0.0949
  589MOL0     C79422   1.869  11.582   6.528 -0.5701 -0.3531  1.3213
  589MOL0     C79423   1.761  11.669   6.468 -0.0935 -0.5051 -0.1829
  589MOL0    Cl79424   1.746  11.819   6.572  0.0736  0.6015  0.2462
  589MOL0     C79425   2.394  10.875   7.006  0.0474  0.0768 -0.0758
  589MOL0     C79426   2.473  10.761   7.044 -0.1566  0.7619 -0.0717
  589MOL0     O79427   2.581  10.631   7.327  1.0154  0.2353  0.2111
  589MOL0     C79428   2.678  10.395   7.419 -1.7859  0.4318  0.4295
  589MOL0     C79429   2.745  10.276   7.449 -0.7369 -0.0426  0.4465
  589MOL0     N79430   3.125   9.572   7.325  0.3845 -0.3475 -0.5877
  589MOL0     N79431   3.193   9.508   7.239  0.3540  0.0510  0.4513
  589MOL0     C79432   3.600   8.917   6.304  0.6984  0.6421  0.2937
  589MOL0     C79433   3.588   8.820   6.201 -0.2562  0.6017  1.3525
  589MOL0     C79434   3.577   8.723   5.725 -1.0227  0.3942 -0.5822
  589MOL0     C79435   3.723   8.726   5.705  0.0903 -0.8682 -0.3208
  589MOL0     C79436   3.783   8.671   5.591 -0.2880  0.5413  0.8401
  589MOL0     C79437   3.706   8.603   5.492 -0.0455 -0.1725 -0.5295
  589MOL0     O79438   3.765   8.543   5.382 -0.3723  0.9847  0.2349
  589MOL0     C79439   3.696   8.576   5.258 -0.7902 -0.1225 -0.7719
  589MOL0     C79440   3.776   8.520   5.136  0.1043 -1.1756 -0.2260
  589MOL0     C79441   3.920   8.579   5.123 -0.3544  0.1888  0.3265
  589MOL0     C79442   3.909   8.736   5.092 -0.9952  0.2943 -0.0461
  589MOL0     C79443   4.043   8.789   5.056 -0.3280  0.4219 -0.0584
  589MOL0     C79444   4.159   8.827   5.055 -0.2136 -0.9958  0.2398
  589MOL0     C79445   3.566   8.595   5.524 -0.2465 -0.0689  1.3054
  589MOL0     C79446   3.498   8.647   5.630 -0.8017 -0.0372 -0.1421
  589MOL0     C79447   3.352   8.619   5.651  0.3353 -0.9013  0.3151
  589MOL0     H79448   3.599   9.041   5.933  1.8823  2.9696  1.0067
  589MOL0     H79449   3.602   9.206   6.114 -2.3303 -0.6918 -0.4294
  589MOL0     H79450   3.499   9.307   6.334 -0.1030  1.4704  2.0676
  589MOL0     H79451   3.430   9.140   6.383  0.9717 -1.2687  1.3255
  589MOL0     H79452   3.481   9.179   6.608 -0.1456 -1.5100 -2.0704
  589MOL0     H79453   3.392   9.304   6.538  1.0080 -0.0187 -1.8743
  589MOL0     H79454   3.576   9.460   6.568 -2.2633 -0.0884 -1.0701
  589MOL0     H79455   3.701   9.329   6.545  1.9419  2.0205  2.4848
  589MOL0     H79456   3.669   9.271   6.769  0.2160  0.0735  1.4714
  589MOL0     H79457   3.677   9.453   6.775  0.3300 -0.3791 -0.3976
  589MOL0     H79458   3.427   9.458   6.773  1.8996 -0.7130 -4.3526
  589MOL0     H79459   3.426   9.288   6.833  0.4579 -0.4103 -0.1634
  589MOL0     H79460   3.578   9.344   6.997 -0.3524  2.7753  3.4366
  589MOL0     H79461   3.572   9.519   6.945 -1.7281  1.4724  1.3641
  589MOL0     H79462   3.443   9.417   7.146  0.1282 -0.8218 -0.1852
  589MOL0     H79463   3.329   9.373   7.022  0.9748 -0.2749 -0.6556
  589MOL0     H79464   3.411   9.659   7.043 -0.6615  0.5993 -0.1884
  589MOL0     H79465   3.293   9.574   6.938  4.3279 -1.8215 -1.1543
  589MOL0     H79466   3.186   9.797   7.096  1.3363  1.2440  1.4601
  589MOL0     H79467   3.028   9.895   7.285  1.2803  1.6204  2.4228
  589MOL0     H79468   2.916   9.767   7.311  0.8282  2.7951 -4.1213
  589MOL0     H79469   3.046   9.715   7.540  1.3684 -0.1160  1.3930
  589MOL0     H79470   3.145   9.856   7.502  1.1379 -3.6053 -0.0508
  589MOL0     H79471   2.976   9.902   7.653 -1.6224 -0.4887  0.3719
  589MOL0     H79472   2.848   9.839   7.540  0.2924  0.1037 -3.6452
  589MOL0     H79473   3.000  10.086   7.455 -0.4508  1.8250  0.9617
  589MOL0     H79474   2.896  10.106   7.587  0.0498  1.1024  0.1615
  589MOL0     H79475   2.615  10.094   7.193 -0.8731 -0.6929  1.6792
  589MOL0     H79476   2.533  10.299   7.129 -0.8829 -3.8711  0.2935
  589MOL0     H79477   2.211  10.609   7.212  1.8808 -2.2015  1.1150
  589MOL0     H79478   2.100  10.815   7.163  0.9924 -2.4674  2.7830
  589MOL0     H79479   2.008  10.961   6.934 -0.0821 -2.5128  1.8840
  589MOL0     H79480   2.011  10.978   7.105  2.0938  0.0168  1.4860
  589MOL0     H79481   1.906  11.137   7.007  0.4026 -2.4294 -2.6698
  589MOL0     H79482   2.053  11.226   7.078 -0.1679 -0.1316  0.5934
  589MOL0     H79483   2.132  11.292   6.872  0.2955  0.5804 -2.1377
  589MOL0     H79484   2.030  11.163   6.778 -0.4113 -0.3321  0.2692
  589MOL0     H79485   1.968  11.429   6.903 -0.3614  2.6965 -3.0675
  589MOL0     H79486   1.840  11.312   6.842  0.0106 -1.2944  2.7824
  589MOL0     H79487   1.995  11.354   6.610  1.1344 -0.4573  0.2605
  589MOL0     H79488   2.051  11.489   6.699 -1.9754  1.3418  1.3262
  589MOL0     H79489   1.763  11.436   6.653  2.2043 -2.6637  0.3119
  589MOL0     H79490   1.826  11.576   6.739 -3.0309 -0.4598  0.2999
  589MOL0     H79491   1.889  11.516   6.443 -1.8753  2.4038 -1.3128
  589MOL0     H79492   1.948  11.657   6.536 -1.4134  1.1168 -2.2859
  589MOL0     H79493   1.791  11.702   6.368 -0.0273 -0.4164 -0.1329
  589MOL0     H79494   1.665  11.621   6.445  0.6582 -1.3208 -1.7660
  589MOL0     H79495   2.453  10.941   6.943 -1.8987  4.3612  2.1498
  589MOL0     H79496   2.577  10.757   7.016 -0.9924  2.3717 -4.0970
  589MOL0     H79497   2.695  10.476   7.490 -3.5513 -1.0132  2.6720
  589MOL0     H79498   2.793  10.255   7.544 -1.9975 -0.8393  0.9190
  589MOL0     H79499   3.600   8.886   6.408 -3.1697  1.9926  0.8623
  589MOL0     H79500   3.595   8.713   6.215  0.2663  0.5154  0.5238
  589MOL0     H79501   3.781   8.781   5.778 -0.5118 -1.0024  0.2706
  589MOL0     H79502   3.891   8.666   5.586 -0.3243  0.3958  0.0682
  589MOL0     H79503   3.680   8.684   5.251  0.1685  0.0631 -0.2287
  589MOL0     H79504   3.592   8.544   5.265 -0.9569  0.5374 -0.0615
  589MOL0     H79505   3.712   8.535   5.049 -2.9784 -1.9892  1.7541
  589MOL0     H79506   3.787   8.412   5.152 -1.6300 -1.2589  0.5749
  589MOL0     H79507   3.975   8.535   5.039 -2.0501  0.2857 -0.8866
  589MOL0     H79508   3.976   8.572   5.217  1.0386 -3.8767 -0.5819
  589MOL0     H79509   3.848   8.747   5.002 -1.1789  0.2537  0.0747
  589MOL0     H79510   3.875   8.787   5.183 -0.8997 -2.6972  1.7999
  589MOL0     H79511   4.248   8.877   5.025 -0.3048  0.6804  2.5086
  589MOL0     H79512   3.505   8.539   5.454  0.9862  0.5939 -0.3482
  589MOL0     H79513   3.300   8.715   5.655 -0.7691 -1.4711 -0.0213
  589MOL0     H79514   3.310   8.583   5.557 -0.7393 -0.0517  0.4446
  589MOL0     H79515   3.330   8.565   5.744 -0.7143  1.2924  1.4311
  590MOL0     O79516   7.499   0.595   7.638 -0.4247 -0.3383  0.2279
  590MOL0     C79517   7.378   0.601   7.654 -0.3855 -0.2745 -0.0611
  590MOL0     O79518   7.291   0.496   7.667  0.7450  0.1525 -0.2268
  590MOL0     C79519   7.335   0.371   7.639 -0.6901 -0.3003  0.1113
  590MOL0     C79520   7.301   0.302   7.521  0.0018 -0.1356 -0.0257
  590MOL0     C79521   7.356   0.180   7.495 -0.3618  0.1929  0.4265
  590MOL0     C79522   7.440   0.108   7.583  0.5807 -0.2119  0.0748
  590MOL0     O79523   7.486  -0.020   7.566  0.3675 -0.0460  0.2790
  590MOL0     C79524   7.455  -0.115   7.667  0.0814  0.0379 -0.4716
  590MOL0     C79525   7.505  -0.256   7.616  0.8029 -0.7198 -0.2829
  590MOL0     C79526   7.638  -0.286   7.653 -0.5329 -1.1018  0.1343
  590MOL0     C79527   7.640  -0.342   7.791  0.0816 -0.0319  0.9752
  590MOL0     C79528   7.782  -0.342   7.848  0.8405  0.3216 -0.1705
  590MOL0     C79529   7.817  -0.207   7.904 -0.0924  0.1378 -0.7823
  590MOL0     C79530   7.782  -0.180   8.056 -0.3829  0.0112  0.1818
  590MOL0     C79531   7.866  -0.067   8.110  0.8509  0.1450 -0.3462
  590MOL0     N79532   7.999  -0.104   8.155  0.0657  0.0205  1.1320
  590MOL0     C79533   8.029  -0.204   8.242  0.1033  0.6290 -0.5260
  590MOL0     C79534   8.165  -0.197   8.255 -0.3834  0.0203 -0.6740
  590MOL0     C79535   8.250  -0.290   8.350  0.5524 -0.0754 -0.7079
  590MOL0     C79536   8.162  -0.383   8.443  0.2943 -0.4919  0.9498
  590MOL0     C79537   8.121  -0.289   8.563 -0.1285 -0.0169 -0.2239
  590MOL0     C79538   8.029  -0.374   8.658 -0.2170  1.0077  0.6962
  590MOL0     O79539   7.906  -0.412   8.600  0.3352 -1.1455 -0.0011
  590MOL0     C79540   7.823  -0.302   8.572 -0.0777  0.5260  0.2183
  590MOL0     C79541   7.704  -0.347   8.510  0.1682 -0.8248 -0.2874
  590MOL0     C79542   7.599  -0.260   8.470 -0.8215 -0.7411  0.3847
  590MOL0     C79543   7.626  -0.117   8.479  0.8343  0.6384 -0.7668
  590MOL0     C79544   7.520  -0.022   8.428 -0.2267 -0.3640 -0.1545
  590MOL0     O79545   7.404  -0.082   8.383  0.2614 -0.4464  0.0810
  590MOL0     C79546   7.315  -0.004   8.313 -0.2128 -0.0351 -0.1115
  590MOL0     C79547   7.203   0.056   8.377 -0.3143 -0.4894 -0.8813
  590MOL0     C79548   7.118   0.126   8.302 -0.6295  0.7099  0.2460
  590MOL0     C79549   7.130   0.136   8.165 -0.1200  0.6550 -0.6003
  590MOL0     O79550   7.032   0.200   8.096  0.2343 -0.5232 -0.2883
  590MOL0     C79551   6.981   0.123   7.982  0.0490 -0.3679 -0.8146
  590MOL0     C79552   6.838   0.167   7.956 -0.2563  0.4186  0.5035
  590MOL0     C79553   6.741   0.162   8.069 -1.2233 -0.0000  0.2904
  590MOL0     C79554   6.606   0.216   8.013  0.2363  0.7970  0.3033
  590MOL0     C79555   6.577   0.378   8.027  0.3521 -0.9185  0.2271
  590MOL0     C79556   6.472   0.455   7.939  0.2949  1.0708 -0.1759
  590MOL0     C79557   6.330   0.398   7.932  0.7739 -0.0325 -0.1921
  590MOL0     C79558   6.215   0.489   7.889  0.2882 -0.0622 -0.1170
  590MOL0    Cl79559   6.050   0.407   7.954 -0.0305 -0.2028  0.0735
  590MOL0     C79560   7.243   0.087   8.103  0.4685 -1.2322 -0.5431
  590MOL0     C79561   7.346   0.031   8.184  0.0896 -0.5863 -1.6601
  590MOL0     O79562   7.548   0.096   8.412  0.9100 -0.3772 -0.3090
  590MOL0     C79563   7.737  -0.072   8.547 -0.9472 -0.0924  0.6305
  590MOL0     C79564   7.834  -0.164   8.592 -0.2129  0.6051 -0.8812
  590MOL0     N79565   8.219  -0.105   8.164  0.2193  0.3711 -0.1369
  590MOL0     N79566   8.117  -0.049   8.111  0.3875  0.5213  0.0048
  590MOL0     C79567   7.476   0.172   7.702 -0.1930  0.0823  0.5331
  590MOL0     C79568   7.427   0.300   7.729  0.1532 -0.5013  0.5344
  590MOL0     C79569   7.326   0.731   7.708  0.0707  1.0031 -0.1742
  590MOL0     C79570   7.235   0.726   7.815 -0.0539 -0.6849  0.0026
  590MOL0     C79571   7.190   0.843   7.882  0.2675  0.4242 -0.6580
  590MOL0     C79572   7.233   0.967   7.842  0.6312  0.1296 -0.0251
  590MOL0     O79573   7.202   1.085   7.917  0.0842 -0.1976  0.5213
  590MOL0     C79574   7.275   1.211   7.899 -0.1852  0.7848 -1.0857
  590MOL0     C79575   7.193   1.324   7.960  0.7182 -0.9080  0.4397
  590MOL0     C79576   7.205   1.321   8.117  0.4775  0.4631 -0.2048
  590MOL0     C79577   7.117   1.436   8.163  0.0185  1.1209  0.2477
  590MOL0     C79578   6.989   1.402   8.224  1.1693  0.0857 -0.5530
  590MOL0     C79579   6.879   1.365   8.273  0.6600  0.5636 -0.5932
  590MOL0     C79580   7.317   0.973   7.724  0.1406 -0.2515  0.0592
  590MOL0     C79581   7.363   0.856   7.655 -0.6022  0.5386 -0.1278
  590MOL0     C79582   7.455   0.885   7.538  0.2485 -0.7399  0.1285
  590MOL0     H79583   7.242   0.351   7.445  0.6166 -0.2434 -0.5800
  590MOL0     H79584   7.325   0.135   7.402  2.6654  0.6563 -0.9398
  590MOL0     H79585   7.493  -0.097   7.768  0.8592 -1.3942 -0.4792
  590MOL0     H79586   7.346  -0.126   7.665  0.2204 -1.9010  0.1265
  590MOL0     H79587   7.494  -0.255   7.507 -1.8145 -1.1100 -0.0777
  590MOL0     H79588   7.444  -0.335   7.659  0.3372 -0.0640  0.2855
  590MOL0     H79589   7.700  -0.199   7.631 -1.0179 -0.6388  0.5571
  590MOL0     H79590   7.695  -0.357   7.592  1.3479  2.3982 -2.5860
  590MOL0     H79591   7.584  -0.277   7.859 -1.6890 -0.4015 -0.0891
  590MOL0     H79592   7.587  -0.438   7.785 -3.7751  1.9559  0.1525
  590MOL0     H79593   7.798  -0.430   7.911 -3.1765 -1.1733 -0.9151
  590MOL0     H79594   7.839  -0.354   7.755 -0.8632  0.0078 -1.2151
  590MOL0     H79595   7.925  -0.208   7.920 -0.4124  0.6365  1.8803
  590MOL0     H79596   7.777  -0.126   7.843 -0.3454  0.5697 -0.0537
  590MOL0     H79597   7.803  -0.256   8.131  1.3713  3.4130  3.4623
  590MOL0     H79598   7.673  -0.168   8.059 -0.3283  0.4677  0.4369
  590MOL0     H79599   7.877   0.019   8.042 -2.3564  0.2675 -0.8711
  590MOL0     H79600   7.805  -0.036   8.195  0.1204  1.4360 -1.2954
  590MOL0     H79601   7.969  -0.273   8.299  0.6473  1.4374  1.0833
  590MOL0     H79602   8.315  -0.362   8.300  6.6994  2.2959  2.7360
  590MOL0     H79603   8.321  -0.232   8.410  2.0139 -0.7637 -1.7152
  590MOL0     H79604   8.081  -0.421   8.380 -0.1532  0.5495  0.8696
  590MOL0     H79605   8.214  -0.469   8.487  3.5849  2.0217  2.4456
  590MOL0     H79606   8.069  -0.200   8.528  0.8729  1.6125  2.1425
  590MOL0     H79607   8.211  -0.257   8.616 -0.7729 -0.9040  1.5082
  590MOL0     H79608   8.019  -0.323   8.754 -0.9843  2.6834 -0.2450
  590MOL0     H79609   8.075  -0.470   8.687 -1.4676  1.1579  3.5505
  590MOL0     H79610   7.688  -0.454   8.520 -0.1088 -0.8716 -1.1264
  590MOL0     H79611   7.507  -0.303   8.434  1.4542 -2.6489 -3.9500
  590MOL0     H79612   7.188   0.050   8.484  0.0135  0.1692 -0.7903
  590MOL0     H79613   7.026   0.163   8.346 -2.6536 -3.6355  0.2373
  590MOL0     H79614   7.045   0.136   7.894  3.2109  0.4060  1.4170
  590MOL0     H79615   6.977   0.015   7.998 -0.6104 -0.1108  1.0510
  590MOL0     H79616   6.845   0.267   7.912 -3.3009 -1.7643 -6.3667
  590MOL0     H79617   6.787   0.112   7.876 -1.7550  5.0089 -2.0989
  590MOL0     H79618   6.743   0.057   8.097 -0.4617  0.2425  1.1766
  590MOL0     H79619   6.770   0.217   8.158 -2.1274  1.8042 -0.4670
  590MOL0     H79620   6.529   0.174   8.079 -1.1212 -0.6481 -2.0710
  590MOL0     H79621   6.575   0.180   7.915  1.6401  3.3812 -1.1924
  590MOL0     H79622   6.671   0.434   8.018 -0.1706  0.5498  3.0455
  590MOL0     H79623   6.552   0.403   8.130  0.6588  4.5396 -0.7202
  590MOL0     H79624   6.459   0.557   7.975  2.1385  1.5288 -0.7280
  590MOL0     H79625   6.507   0.443   7.837 -1.8884 -2.1988 -0.7318
  590MOL0     H79626   6.310   0.373   8.037  0.7529 -1.0223 -0.4185
  590MOL0     H79627   6.321   0.306   7.874 -0.0381  1.2086 -2.1092
  590MOL0     H79628   6.215   0.590   7.930 -3.5421  0.3371 -0.7255
  590MOL0     H79629   6.202   0.480   7.781  0.5441  2.4704 -0.4152
  590MOL0     H79630   7.272   0.117   8.002  0.2839 -1.0538 -0.5453
  590MOL0     H79631   7.439   0.003   8.137  1.3968 -0.7228  0.8585
  590MOL0     H79632   7.767   0.028   8.574  4.2084 -1.0447 -0.4956
  590MOL0     H79633   7.917  -0.130   8.652  0.7690 -0.8578 -1.3370
  590MOL0     H79634   7.539   0.115   7.769  2.1398  1.3332 -0.4651
  590MOL0     H79635   7.454   0.353   7.820  2.3594  1.0982 -0.9141
  590MOL0     H79636   7.197   0.635   7.861 -0.1721  0.0460  1.3897
  590MOL0     H79637   7.128   0.826   7.970  0.7583 -1.3979 -0.6125
  590MOL0     H79638   7.289   1.225   7.791  1.3276 -0.7658 -1.1332
  590MOL0     H79639   7.376   1.189   7.934 -1.1435 -1.5077  0.4114
  590MOL0     H79640   7.093   1.327   7.915  0.5371  2.0443  0.8361
  590MOL0     H79641   7.245   1.410   7.917  0.5167  0.8247  3.3422
  590MOL0     H79642   7.310   1.343   8.139  0.7886 -1.0981 -0.0579
  590MOL0     H79643   7.189   1.222   8.160  1.0281  0.0177 -0.9958
  590MOL0     H79644   7.165   1.489   8.246 -0.6608  1.1004  0.6602
  590MOL0     H79645   7.112   1.504   8.078  0.0035  0.2823 -0.4274
  590MOL0     H79646   6.787   1.333   8.318  0.8284  1.6072  0.5340
  590MOL0     H79647   7.351   1.068   7.682 -4.7248  1.9112  0.3099
  590MOL0     H79648   7.418   0.840   7.445 -0.7966  2.6567 -1.2934
  590MOL0     H79649   7.460   0.992   7.514 -3.8480  0.0006  1.5962
  590MOL0     H79650   7.556   0.851   7.562 -0.8292 -3.1654  1.6730
  591MOL0     O79651  10.479   2.152   2.588  0.1574  0.7175 -0.4833
  591MOL0     C79652  10.503   2.240   2.507 -0.8751  0.2987  0.1599
  591MOL0     O79653  10.506   2.240   2.371  0.5094 -0.5509  0.6176
  591MOL0     C79654  10.465   2.118   2.318 -0.7702  0.1693  0.7851
  591MOL0     C79655  10.554   2.013   2.274  0.3977 -0.4746 -0.5021
  591MOL0     C79656  10.500   1.892   2.217 -0.2515 -0.2731  0.6637
  591MOL0     C79657  10.359   1.884   2.202  0.7075 -0.5381 -0.3921
  591MOL0     O79658  10.289   1.777   2.155  0.5689  0.4996  0.2641
  591MOL0     C79659  10.342   1.693   2.052  0.1032 -0.4245 -0.4385
  591MOL0     C79660  10.387   1.559   2.101 -0.1126 -1.2400  0.7854
  591MOL0     C79661  10.274   1.457   2.118 -1.0851 -0.8457  0.4608
  591MOL0     C79662  10.163   1.468   2.216  0.0469  0.2374 -0.5709
  591MOL0     C79663  10.139   1.344   2.304  0.4802 -0.2334  0.0388
  591MOL0     C79664  10.048   1.381   2.427  0.5467  0.6838  1.2492
  591MOL0     C79665  10.124   1.392   2.565  0.3613 -0.1535  0.2566
  591MOL0     C79666  10.031   1.465   2.659 -0.0505 -0.4186  0.1194
  591MOL0     N79667  10.066   1.457   2.799 -0.4111 -0.4431  0.2967
  591MOL0     C79668  10.050   1.359   2.884 -0.4682  0.7585 -0.6246
  591MOL0     C79669  10.102   1.393   3.005  0.4820  0.5956  0.8998
  591MOL0     C79670  10.126   1.293   3.123  0.5959 -0.5518  0.4127
  591MOL0     C79671  10.004   1.283   3.222 -0.1372 -0.8526 -0.6135
  591MOL0     C79672   9.909   1.180   3.167  0.9203  1.1890 -0.3749
  591MOL0     C79673   9.794   1.160   3.273 -0.5097 -0.1649  0.4546
  591MOL0     O79674   9.844   1.121   3.405  1.2659 -0.3393 -0.2957
  591MOL0     C79675   9.900   1.001   3.429  0.3858  0.4594 -0.7000
  591MOL0     C79676   9.944   0.965   3.557  0.2312  0.4261 -1.0030
  591MOL0     C79677   9.990   0.840   3.597 -0.3906  0.5647  0.1904
  591MOL0     C79678   9.981   0.733   3.508 -0.2043 -0.1869 -0.1628
  591MOL0     C79679  10.050   0.609   3.532 -0.0876  0.2131 -0.8143
  591MOL0     O79680  10.016   0.506   3.444  0.2788 -0.7018 -0.2114
  591MOL0     C79681  10.079   0.386   3.474 -0.9495 -0.2706 -0.2336
  591MOL0     C79682  10.035   0.324   3.584 -0.0083 -1.0511 -0.6444
  591MOL0     C79683  10.079   0.204   3.622  0.0776 -0.4487 -0.6098
  591MOL0     C79684  10.176   0.129   3.557  0.7176 -0.1065  0.5593
  591MOL0     O79685  10.210   0.003   3.589 -0.1621  0.4300  0.0408
  591MOL0     C79686  10.121  -0.077   3.672 -0.2068  0.1501 -0.7141
  591MOL0     C79687  10.162  -0.230   3.679 -0.3514  1.3563  0.2466
  591MOL0     C79688  10.144  -0.297   3.539 -0.3842 -0.8402  0.3661
  591MOL0     C79689  10.152  -0.444   3.542  0.0888 -0.2270 -1.0060
  591MOL0     C79690  10.039  -0.506   3.466  0.0274  1.3438  0.5024
  591MOL0     C79691  10.037  -0.662   3.480  0.4049 -0.7278  0.6685
  591MOL0     C79692  10.105  -0.735   3.363 -0.0785  0.1221  0.2957
  591MOL0     C79693  10.114  -0.892   3.382 -1.0397  0.1518  0.1228
  591MOL0    Cl79694  10.227  -0.941   3.530 -0.1662 -0.4136  0.1624
  591MOL0     C79695  10.227   0.188   3.443  0.2548  0.5307  0.4086
  591MOL0     C79696  10.173   0.319   3.397 -0.1377 -0.0909  0.6038
  591MOL0     O79697  10.113   0.599   3.638  0.5104  0.9838  0.4024
  591MOL0     C79698   9.932   0.761   3.379 -0.1880  0.8427 -0.0121
  591MOL0     C79699   9.892   0.887   3.342  1.1246 -0.2554 -1.0390
  591MOL0     N79700  10.133   1.527   3.003 -0.1968  0.3497  0.2110
  591MOL0     N79701  10.129   1.551   2.878  0.2793 -1.3410  0.5846
  591MOL0     C79702  10.279   2.000   2.231  0.3131  0.4102 -0.7725
  591MOL0     C79703  10.328   2.108   2.302  0.3443 -1.3707 -0.0190
  591MOL0     C79704  10.561   2.367   2.560  0.0073 -0.1810  0.7163
  591MOL0     C79705  10.558   2.476   2.476  0.1833  0.1363  0.0458
  591MOL0     C79706  10.610   2.604   2.509 -0.3381  0.2185 -0.4787
  591MOL0     C79707  10.674   2.618   2.635  0.2511 -0.1254 -0.6160
  591MOL0     O79708  10.714   2.743   2.684  0.7018 -0.1454 -0.0037
  591MOL0     C79709  10.814   2.806   2.595  1.0320  0.2803  1.0334
  591MOL0     C79710  10.788   2.969   2.575 -0.8828  0.9109 -0.1927
  591MOL0     C79711  10.848   3.047   2.458  0.0578  0.2691 -0.5649
  591MOL0     C79712  11.002   3.070   2.460 -0.5847  0.1676  0.9818
  591MOL0     C79713  11.029   3.183   2.555 -0.0506  0.6561 -0.2848
  591MOL0     C79714  11.067   3.281   2.625  0.0475 -0.1203  0.6886
  591MOL0     C79715  10.687   2.502   2.714  1.8703  0.5298  0.1991
  591MOL0     C79716  10.634   2.378   2.684 -0.1677 -0.3990  0.0836
  591MOL0     C79717  10.660   2.270   2.785 -0.3510  0.2962  0.6002
  591MOL0     H79718  10.662   2.021   2.287  0.0325  0.4288  2.9134
  591MOL0     H79719  10.563   1.804   2.204 -1.2492 -0.6874 -1.9214
  591MOL0     H79720  10.253   1.672   1.991 -3.2952  0.2428  3.8347
  591MOL0     H79721  10.420   1.741   1.992  0.5848 -3.1621 -2.2181
  591MOL0     H79722  10.426   1.575   2.202 -0.3909 -0.1219  0.7294
  591MOL0     H79723  10.462   1.514   2.037 -2.2133 -0.9918 -2.0306
  591MOL0     H79724  10.333   1.366   2.130 -0.7387 -0.3514  3.0574
  591MOL0     H79725  10.229   1.450   2.018  2.2738 -2.2350 -1.0736
  591MOL0     H79726  10.205   1.543   2.284 -3.3315  0.7628  1.1272
  591MOL0     H79727  10.069   1.512   2.182 -0.2537  1.4722  1.7046
  591MOL0     H79728  10.091   1.270   2.240 -3.9295  0.2133  2.4872
  591MOL0     H79729  10.230   1.295   2.340 -1.1469 -1.0587  3.3896
  591MOL0     H79730   9.995   1.472   2.397 -2.2135 -1.0620  0.4759
  591MOL0     H79731   9.978   1.298   2.443  1.2516  0.1911  1.8364
  591MOL0     H79732  10.214   1.451   2.544 -0.6431  2.3455  2.4222
  591MOL0     H79733  10.152   1.293   2.602  3.9742  1.4941  2.6109
  591MOL0     H79734  10.035   1.572   2.637 -0.9532 -0.0711  1.5265
  591MOL0     H79735   9.931   1.422   2.651  0.1013 -0.8137  0.2806
  591MOL0     H79736  10.022   1.257   2.857 -2.2125  1.0606 -0.0554
  591MOL0     H79737  10.156   1.193   3.092 -4.2094 -1.7800 -1.1488
  591MOL0     H79738  10.213   1.335   3.175  1.3180  1.1074 -1.9576
  591MOL0     H79739  10.040   1.256   3.322  1.8243 -0.0857 -1.0704
  591MOL0     H79740   9.944   1.374   3.232  1.8333  0.5571 -1.0711
  591MOL0     H79741   9.957   1.083   3.152  1.8170  1.3742  1.0844
  591MOL0     H79742   9.864   1.203   3.071  3.9736 -1.1501 -2.5664
  591MOL0     H79743   9.717   1.093   3.231  1.3729 -2.8314  0.9980
  591MOL0     H79744   9.756   1.262   3.275  2.3496  1.0500 -1.2318
  591MOL0     H79745   9.949   1.055   3.618 -0.5798  1.4441 -2.3651
  591MOL0     H79746  10.028   0.823   3.697 -0.5984  3.2446  0.7955
  591MOL0     H79747   9.976   0.375   3.660 -0.3341 -2.2163 -0.0960
  591MOL0     H79748  10.036   0.167   3.714  2.0387  0.5362  0.7696
  591MOL0     H79749  10.142  -0.038   3.772  0.9830 -0.0203 -0.8833
  591MOL0     H79750  10.013  -0.064   3.657  0.1839  2.3621 -2.1304
  591MOL0     H79751  10.266  -0.237   3.712  0.6722 -0.2399 -2.8290
  591MOL0     H79752  10.091  -0.273   3.749 -1.0849  3.3468  0.7858
  591MOL0     H79753  10.051  -0.271   3.488 -1.7703 -1.0039  2.6218
  591MOL0     H79754  10.216  -0.257   3.468 -0.5082  4.7834  2.8432
  591MOL0     H79755  10.140  -0.469   3.647 -1.0188 -1.2310 -1.3528
  591MOL0     H79756  10.253  -0.483   3.522  0.6703 -1.0482  2.7674
  591MOL0     H79757  10.047  -0.486   3.359 -1.5174 -1.2894 -0.1870
  591MOL0     H79758   9.949  -0.465   3.514 -0.9842  1.5734 -1.4830
  591MOL0     H79759  10.065  -0.691   3.581  2.7154  1.6186  0.8074
  591MOL0     H79760   9.933  -0.695   3.476  0.6501 -1.5820  1.1669
  591MOL0     H79761  10.207  -0.698   3.351 -0.8652  1.9482 -1.1817
  591MOL0     H79762  10.052  -0.717   3.269 -0.1139 -0.4307  0.2034
  591MOL0     H79763  10.016  -0.930   3.410 -0.7178 -0.6822  0.1716
  591MOL0     H79764  10.160  -0.941   3.295  1.1827 -0.2521  1.4334
  591MOL0     H79765  10.304   0.132   3.390  0.3577  0.2806  0.8141
  591MOL0     H79766  10.211   0.364   3.307 -0.1976 -0.8599  0.1814
  591MOL0     H79767   9.923   0.679   3.308  4.4029 -0.1694  0.2568
  591MOL0     H79768   9.842   0.901   3.246  1.2872  0.4285 -1.0297
  591MOL0     H79769  10.174   2.009   2.205  0.0072  0.9216  0.5974
  591MOL0     H79770  10.250   2.183   2.313 -1.8909 -3.3914 -1.2605
  591MOL0     H79771  10.514   2.467   2.377 -3.7757  0.9892  1.5379
  591MOL0     H79772  10.595   2.697   2.456 -1.8569 -0.9952 -2.3390
  591MOL0     H79773  10.819   2.764   2.494  1.3603  2.3312  0.1406
  591MOL0     H79774  10.916   2.797   2.634  1.7700 -1.8528 -1.1606
  591MOL0     H79775  10.800   3.015   2.673  0.3203  0.5587 -0.1530
  591MOL0     H79776  10.683   2.973   2.545 -0.7028  0.1971 -0.9924
  591MOL0     H79777  10.788   3.138   2.461  0.5199  0.5681 -0.2286
  591MOL0     H79778  10.825   2.986   2.370  0.2566 -2.2507  1.0233
  591MOL0     H79779  11.058   2.983   2.498  3.8061  1.9480 -0.7595
  591MOL0     H79780  11.041   3.090   2.360  5.3960 -1.6458  2.5087
  591MOL0     H79781  11.089   3.369   2.682 -1.3563  1.8431 -1.6275
  591MOL0     H79782  10.741   2.515   2.808  2.4113 -0.5442  0.0508
  591MOL0     H79783  10.742   2.300   2.850 -0.1113 -0.9123  0.8746
  591MOL0     H79784  10.569   2.254   2.843 -0.7336  2.8378  0.8157
  591MOL0     H79785  10.698   2.185   2.727  1.4184  0.2554  1.7374
  592MOL0     O79786   3.543   0.714  11.202  0.1618 -0.6764 -0.3796
  592MOL0     C79787   3.434   0.758  11.233  0.0264 -0.5830  0.9068
  592MOL0     O79788   3.389   0.789  11.359  0.2241 -0.0104  1.0115
  592MOL0     C79789   3.467   0.749  11.463 -0.4697  0.5656 -0.3633
  592MOL0     C79790   3.585   0.828  11.518  0.6788 -0.0060 -1.0807
  592MOL0     C79791   3.652   0.789  11.635 -0.4312 -0.8365  0.6818
  592MOL0     C79792   3.630   0.670  11.700  0.4688 -0.7768 -0.2531
  592MOL0     O79793   3.713   0.618  11.794  0.2884 -0.3992 -0.5207
  592MOL0     C79794   3.794   0.509  11.750 -0.1067  0.4346 -0.1354
  592MOL0     C79795   3.894   0.475  11.866 -0.6796 -0.4947 -0.1256
  592MOL0     C79796   3.814   0.420  11.988  0.5009  0.4377  0.6084
  592MOL0     C79797   3.883   0.429  12.119  0.4565  0.4183  0.3923
  592MOL0     C79798   4.019   0.356  12.129  0.4266  0.4365 -0.1743
  592MOL0     C79799   3.998   0.201  12.118  0.0539 -0.5317  1.0326
  592MOL0     C79800   4.146   0.135  12.136 -0.2471  0.0594  0.3037
  592MOL0     C79801   4.139  -0.018  12.115 -0.4628  1.0121  0.0609
  592MOL0     N79802   4.030  -0.081  12.192 -0.4167 -0.1704  0.3580
  592MOL0     C79803   4.026  -0.121  12.325 -0.2267  0.8279  0.5070
  592MOL0     C79804   3.902  -0.163  12.349 -0.4147  1.0483 -0.7879
  592MOL0     C79805   3.870  -0.211  12.488  0.0300  0.4238  0.1239
  592MOL0     C79806   3.725  -0.175  12.528  0.4894  0.7222 -0.9214
  592MOL0     C79807   3.692  -0.033  12.578  0.1876  0.0285 -0.2060
  592MOL0     C79808   3.557  -0.020  12.652  0.8400  0.5425 -0.4776
  592MOL0     O79809   3.453  -0.021  12.552 -0.5088 -0.0598  0.4091
  592MOL0     C79810   3.340   0.046  12.585 -0.6224 -0.0841  0.1803
  592MOL0     C79811   3.284   0.045  12.716 -1.2409  0.1556  0.3628
  592MOL0     C79812   3.151   0.086  12.728  0.6454 -0.4405  0.2066
  592MOL0     C79813   3.070   0.144  12.627  0.0521  0.4933 -0.0850
  592MOL0     C79814   2.929   0.179  12.649  0.6956 -0.5316  0.7924
  592MOL0     O79815   2.855   0.183  12.534 -0.3505 -0.3252 -0.0814
  592MOL0     C79816   2.732   0.249  12.538 -0.0941  1.2422  0.5179
  592MOL0     C79817   2.619   0.189  12.605  0.3418  0.4760 -0.2755
  592MOL0     C79818   2.495   0.261  12.604  0.1624  0.4112 -0.2385
  592MOL0     C79819   2.483   0.383  12.546  0.3519 -0.5291 -0.3507
  592MOL0     O79820   2.360   0.437  12.560  0.6731 -0.3231  0.7495
  592MOL0     C79821   2.365   0.577  12.584  0.9661 -0.7784  0.3613
  592MOL0     C79822   2.226   0.635  12.611  0.4962  0.2410 -0.1268
  592MOL0     C79823   2.244   0.777  12.653  0.8578  0.9074 -0.0626
  592MOL0     C79824   2.121   0.862  12.624  0.3140 -0.6677  1.1190
  592MOL0     C79825   2.111   0.982  12.714 -0.7552 -0.5331  0.1191
  592MOL0     C79826   1.964   1.046  12.710 -0.0703 -0.6136  0.1104
  592MOL0     C79827   1.926   1.096  12.572 -0.2629  0.1360  0.4950
  592MOL0     C79828   1.776   1.142  12.571 -0.2831 -0.1621 -0.3828
  592MOL0    Cl79829   1.656   1.012  12.610 -0.0124  0.7319 -0.5247
  592MOL0     C79830   2.593   0.440  12.482  0.4170 -0.3413 -0.0444
  592MOL0     C79831   2.714   0.374  12.470  0.3701  0.1811  0.2886
  592MOL0     O79832   2.886   0.203  12.759  0.3236  0.2877 -0.7057
  592MOL0     C79833   3.131   0.147  12.502 -0.6922 -0.3685  0.3404
  592MOL0     C79834   3.264   0.100  12.479  0.9397  1.1788  0.8063
  592MOL0     N79835   3.826  -0.138  12.237 -0.6365  0.0341  0.1166
  592MOL0     N79836   3.905  -0.097  12.145 -0.3067 -0.0961  0.7574
  592MOL0     C79837   3.528   0.593  11.634  0.4629 -0.0066  0.0938
  592MOL0     C79838   3.446   0.625  11.519 -0.0857  0.2672 -0.9169
  592MOL0     C79839   3.336   0.764  11.123 -0.4973  0.1370 -0.1244
  592MOL0     C79840   3.206   0.800  11.155 -0.7976 -1.0016  0.4821
  592MOL0     C79841   3.106   0.810  11.066  0.7090  0.3374  0.7729
  592MOL0     C79842   3.119   0.775  10.934 -0.0898 -0.9460  0.6218
  592MOL0     O79843   3.014   0.775  10.838 -0.8421  0.2449 -0.2655
  592MOL0     C79844   2.878   0.775  10.881 -0.1150  0.6173  0.1948
  592MOL0     C79845   2.804   0.677  10.787  0.6441 -0.5543  0.0433
  592MOL0     C79846   2.763   0.744  10.651  0.4248 -1.0774 -0.0497
  592MOL0     C79847   2.644   0.845  10.667 -0.4379 -0.2851  0.1468
  592MOL0     C79848   2.522   0.767  10.710  0.0650 -0.0185 -0.8999
  592MOL0     C79849   2.424   0.709  10.759 -0.1669 -0.5647 -0.0509
  592MOL0     C79850   3.252   0.750  10.891  0.3962  0.1069  1.5988
  592MOL0     C79851   3.362   0.740  10.979  1.0096 -1.2376 -0.0644
  592MOL0     C79852   3.506   0.736  10.918  0.5724  0.3303 -0.4085
  592MOL0     H79853   3.605   0.928  11.481  1.4737 -0.2428 -1.3149
  592MOL0     H79854   3.739   0.853  11.652 -0.4639 -0.9718  1.4072
  592MOL0     H79855   3.723   0.429  11.726  1.5401 -0.6995 -1.4326
  592MOL0     H79856   3.845   0.536  11.658 -0.5141  1.2011 -0.1432
  592MOL0     H79857   3.936   0.571  11.896  0.8622 -1.0704 -0.3538
  592MOL0     H79858   3.973   0.407  11.833 -0.8787 -0.5881 -0.4191
  592MOL0     H79859   3.799   0.312  11.981 -2.1978  0.8466 -1.5054
  592MOL0     H79860   3.721   0.478  11.991  1.6878  2.5623 -0.8351
  592MOL0     H79861   3.896   0.531  12.154 -3.7320  1.1339  0.4210
  592MOL0     H79862   3.826   0.375  12.196  1.8306 -0.5124  0.7915
  592MOL0     H79863   4.096   0.399  12.065 -0.4856 -1.3235 -2.6085
  592MOL0     H79864   4.047   0.383  12.231 -0.6665  1.6865 -0.1799
  592MOL0     H79865   3.921   0.168  12.188 -1.2415 -0.2068 -0.2043
  592MOL0     H79866   3.957   0.179  12.019 -1.9327 -3.3988  2.3694
  592MOL0     H79867   4.190   0.155  12.234 -2.1366  0.1461  1.1691
  592MOL0     H79868   4.226   0.168  12.069 -0.3426 -0.5185 -0.1049
  592MOL0     H79869   4.129  -0.043  12.009  0.8302 -3.2878  0.7834
  592MOL0     H79870   4.235  -0.065  12.140 -0.3975  0.9211 -0.3460
  592MOL0     H79871   4.111  -0.114  12.392 -0.8053  1.6795  1.1728
  592MOL0     H79872   3.892  -0.318  12.500 -0.2795  0.3945  0.4398
  592MOL0     H79873   3.943  -0.163  12.554  1.8397 -0.2243 -1.2933
  592MOL0     H79874   3.662  -0.192  12.440 -2.1411  1.0129  0.7833
  592MOL0     H79875   3.707  -0.241  12.613  1.7522 -1.0662 -1.9615
  592MOL0     H79876   3.698   0.046  12.503  1.2658  2.2602  2.1117
  592MOL0     H79877   3.774  -0.011  12.646  0.1881  0.4561 -0.3463
  592MOL0     H79878   3.551   0.076  12.703 -0.6358 -0.2306  0.8919
  592MOL0     H79879   3.553  -0.101  12.725  3.1488  2.1279  1.5356
  592MOL0     H79880   3.338   0.001  12.799  0.0685  0.4386 -0.3023
  592MOL0     H79881   3.112   0.070  12.828  0.3168  0.3003  0.2033
  592MOL0     H79882   2.629   0.102  12.670  1.1181  0.0722 -0.9172
  592MOL0     H79883   2.405   0.216  12.644  0.7731  0.4116  1.2003
  592MOL0     H79884   2.428   0.597  12.671  1.4060 -0.5798  0.0003
  592MOL0     H79885   2.414   0.629  12.502  2.7735 -2.2440  0.4306
  592MOL0     H79886   2.148   0.617  12.537 -0.3822 -0.8093  1.0284
  592MOL0     H79887   2.177   0.587  12.695 -2.2280  2.6419 -0.1672
  592MOL0     H79888   2.272   0.780  12.759  0.2065 -1.5846  0.2520
  592MOL0     H79889   2.329   0.824  12.602  0.1128  3.3085  0.7596
  592MOL0     H79890   2.028   0.805  12.632 -3.0464  3.7920 -1.7224
  592MOL0     H79891   2.135   0.892  12.520 -1.2133 -0.6070  0.9162
  592MOL0     H79892   2.183   1.060  12.688  1.3074 -2.5891 -0.5881
  592MOL0     H79893   2.129   0.949  12.816 -1.5466 -0.9644  0.1285
  592MOL0     H79894   1.887   0.976  12.740 -2.0823  1.6569  0.5608
  592MOL0     H79895   1.953   1.126  12.784  2.2669 -1.2788  1.2662
  592MOL0     H79896   1.936   1.029  12.486  0.1193  2.2268 -1.1637
  592MOL0     H79897   1.980   1.190  12.562 -2.3339  1.2431 -1.1875
  592MOL0     H79898   1.762   1.223  12.644 -0.6380 -1.7014  1.3354
  592MOL0     H79899   1.752   1.185  12.474  0.6039  3.9815  1.0025
  592MOL0     H79900   2.584   0.529  12.421 -2.4780 -0.6764 -0.2551
  592MOL0     H79901   2.805   0.423  12.439  0.1000 -0.3280 -1.4540
  592MOL0     H79902   3.073   0.197  12.425  0.8634  1.6552  0.3858
  592MOL0     H79903   3.295   0.080  12.377 -0.9196  0.1483  0.3969
  592MOL0     H79904   3.517   0.497  11.683 -1.4866  0.0130 -0.2244
  592MOL0     H79905   3.372   0.563  11.469  1.1584 -1.8263 -0.2840
  592MOL0     H79906   3.190   0.818  11.261  0.4006  3.4741  0.1063
  592MOL0     H79907   3.007   0.842  11.097  0.7698  3.1090 -1.5232
  592MOL0     H79908   2.849   0.880  10.881  1.2762  1.0386  1.4791
  592MOL0     H79909   2.846   0.734  10.976 -1.5694 -1.8045 -1.2367
  592MOL0     H79910   2.725   0.624  10.842  1.3411 -0.3285  1.3139
  592MOL0     H79911   2.876   0.601  10.754  0.6845  0.6948 -3.0603
  592MOL0     H79912   2.755   0.667  10.573  2.5199 -0.7500 -0.6758
  592MOL0     H79913   2.845   0.809  10.617  0.4954  1.8115  4.7226
  592MOL0     H79914   2.677   0.928  10.731 -2.5568 -0.4081  1.5124
  592MOL0     H79915   2.606   0.893  10.576 -0.4964  2.1536  1.3658
  592MOL0     H79916   2.348   0.660  10.815  1.1019  0.3117  2.6091
  592MOL0     H79917   3.243   0.740  10.783 -5.4304  0.8802  1.7063
  592MOL0     H79918   3.555   0.823  10.963  1.2070 -0.1626 -0.1397
  592MOL0     H79919   3.552   0.640  10.942 -3.5219 -1.5181  0.9082
  592MOL0     H79920   3.507   0.752  10.810 -1.8773  0.4497 -0.4704
  593MOL0     O79921  10.392   5.823   4.732 -0.4714  0.0129  0.3994
  593MOL0     C79922  10.514   5.834   4.740  0.1440  0.9131  1.1929
  593MOL0     O79923  10.583   5.934   4.798 -0.7051  0.0910 -0.1096
  593MOL0     C79924  10.524   5.978   4.909 -0.3609  0.4649  1.0303
  593MOL0     C79925  10.474   6.110   4.917 -0.2851 -0.6031  0.0052
  593MOL0     C79926  10.382   6.154   5.013 -0.8584 -0.0594 -0.8948
  593MOL0     C79927  10.344   6.072   5.114  0.4901 -0.2615  0.5223
  593MOL0     O79928  10.260   6.126   5.210 -0.1918  0.2104  0.3876
  593MOL0     C79929  10.210   6.044   5.319 -0.0426 -0.4600  0.7378
  593MOL0     C79930  10.068   6.092   5.345  0.2652  0.6849 -0.5917
  593MOL0     C79931   9.963   6.013   5.258 -1.6303 -1.1917  0.3999
  593MOL0     C79932   9.816   6.044   5.289 -0.6631  0.3205 -0.5630
  593MOL0     C79933   9.705   5.952   5.225 -0.4467 -0.5956  0.3396
  593MOL0     C79934   9.709   5.926   5.075 -0.3741  0.2733  0.5226
  593MOL0     C79935   9.574   5.890   5.012 -0.0692  0.2911  0.0119
  593MOL0     C79936   9.528   5.988   4.911  1.3546  0.1083 -0.0170
  593MOL0     N79937   9.475   6.122   4.958 -0.1590  0.5076 -0.4149
  593MOL0     C79938   9.561   6.212   5.017  0.4488 -0.6584 -0.4893
  593MOL0     C79939   9.494   6.335   5.020 -0.7647 -0.1475 -0.1098
  593MOL0     C79940   9.542   6.464   5.070  0.1673 -0.4253 -0.2228
  593MOL0     C79941   9.571   6.560   4.950  0.1876  0.4964 -0.2163
  593MOL0     C79942   9.642   6.690   5.001 -0.2035  0.6197  0.1103
  593MOL0     C79943   9.634   6.793   4.893 -0.2136 -0.0541 -0.6529
  593MOL0     O79944   9.694   6.726   4.779 -0.2386  0.1738 -0.0063
  593MOL0     C79945   9.689   6.792   4.659  0.9463  0.0884 -0.2740
  593MOL0     C79946   9.762   6.737   4.552  0.3054  0.2661 -1.4730
  593MOL0     C79947   9.765   6.786   4.427  0.4210 -0.3058 -0.6609
  593MOL0     C79948   9.689   6.902   4.397  0.0053 -0.6736  0.4013
  593MOL0     C79949   9.680   6.942   4.256  0.0161 -0.3562 -0.0163
  593MOL0     O79950   9.572   7.015   4.215  0.2906 -0.1405  0.3280
  593MOL0     C79951   9.572   7.100   4.106  0.1524  0.9099  0.1591
  593MOL0     C79952   9.446   7.121   4.054  0.1246 -0.5372  0.2294
  593MOL0     C79953   9.418   7.200   3.941  0.0876 -0.4654  0.5462
  593MOL0     C79954   9.536   7.235   3.867  0.5403 -0.8451  0.1350
  593MOL0     O79955   9.505   7.291   3.747  0.6901 -0.2333  0.2534
  593MOL0     C79956   9.588   7.404   3.715 -0.5438 -0.3545 -0.2738
  593MOL0     C79957   9.657   7.366   3.589 -0.0578  0.0379 -0.2240
  593MOL0     C79958   9.578   7.405   3.474 -0.3478 -0.1167  0.1301
  593MOL0     C79959   9.572   7.556   3.443  0.3535  0.6960 -0.7480
  593MOL0     C79960   9.461   7.609   3.336 -0.3268  0.7848 -0.3597
  593MOL0     C79961   9.502   7.752   3.282 -0.4181 -1.0180 -0.0033
  593MOL0     C79962   9.496   7.865   3.383  0.0636  0.0140 -0.1015
  593MOL0     C79963   9.536   7.998   3.308  0.0253  0.1529  0.3941
  593MOL0    Cl79964   9.534   8.138   3.409 -0.4196  0.1291  0.2510
  593MOL0     C79965   9.662   7.212   3.915  0.4130 -0.1746 -0.8442
  593MOL0     C79966   9.687   7.144   4.033 -0.6511 -0.7155 -0.6701
  593MOL0     O79967   9.766   6.890   4.179  0.4033 -0.1964  0.9602
  593MOL0     C79968   9.605   6.946   4.497 -0.1225 -0.5344 -0.3304
  593MOL0     C79969   9.609   6.901   4.626  0.4597  0.4335  0.4923
  593MOL0     N79970   9.365   6.306   4.955  0.1320  0.6370 -0.1831
  593MOL0     N79971   9.357   6.181   4.930  0.4454 -0.0791 -0.2871
  593MOL0     C79972  10.395   5.940   5.102  0.5306 -0.4453  0.4120
  593MOL0     C79973  10.478   5.889   5.009  0.3308 -0.4511 -0.2797
  593MOL0     C79974  10.593   5.717   4.668 -0.0680 -1.7828  0.0267
  593MOL0     C79975  10.714   5.748   4.601 -0.4021 -0.0433  0.2918
  593MOL0     C79976  10.787   5.657   4.523 -0.4286 -0.6355 -0.4137
  593MOL0     C79977  10.744   5.524   4.530  0.5351  0.6513  1.3917
  593MOL0     O79978  10.806   5.421   4.463 -0.0127  0.6884 -1.0672
  593MOL0     C79979  10.942   5.412   4.444 -1.0309  0.2428  0.9520
  593MOL0     C79980  10.974   5.291   4.359 -0.6255 -0.3596 -0.0788
  593MOL0     C79981  11.121   5.270   4.329  0.4669  0.4361 -0.5371
  593MOL0     C79982  11.188   5.239   4.461 -0.7390  0.1570 -0.6547
  593MOL0     C79983  11.328   5.220   4.435 -0.0994  0.3464  0.1010
  593MOL0     C79984  11.448   5.208   4.418 -0.3193  0.6210  0.0008
  593MOL0     C79985  10.627   5.495   4.598  1.4349 -0.1494  0.8834
  593MOL0     C79986  10.550   5.587   4.666 -0.6269 -0.0468 -0.2583
  593MOL0     C79987  10.428   5.536   4.732 -1.2088  0.4099 -0.4752
  593MOL0     H79988  10.507   6.172   4.834  0.1476 -2.7858 -1.5592
  593MOL0     H79989  10.334   6.251   5.005  4.1037  2.7830 -0.1442
  593MOL0     H79990  10.204   5.940   5.286  1.9199 -0.3810  0.0021
  593MOL0     H79991  10.276   6.052   5.406  1.1406  1.9611 -0.2854
  593MOL0     H79992  10.069   6.201   5.333  0.8092  0.8700  0.9692
  593MOL0     H79993  10.040   6.089   5.451 -0.8434 -1.0319 -0.8955
  593MOL0     H79994   9.987   5.906   5.256 -0.2309 -0.8865 -0.3499
  593MOL0     H79995   9.977   6.041   5.153  1.5336  0.3794  1.1106
  593MOL0     H79996   9.806   6.034   5.398  0.6134 -1.9990 -0.5839
  593MOL0     H79997   9.798   6.149   5.269  1.6821  1.0028  0.5229
  593MOL0     H79998   9.706   5.856   5.277  0.7238 -1.4781 -1.2497
  593MOL0     H79999   9.616   6.015   5.238 -1.1709 -1.8576  2.0275
  593MOL0     H80000   9.755   6.017   5.035 -3.1773  0.9038 -1.6015
  593MOL0     H80001   9.790   5.855   5.053  0.8066  2.0976 -1.3511
  593MOL0     H80002   9.496   5.874   5.087  2.1558 -1.9924  2.0726
  593MOL0     H80003   9.588   5.789   4.972  2.1350  0.3897  0.3656
  593MOL0     H80004   9.601   6.008   4.831  1.4968 -1.1558 -0.2211
  593MOL0     H80005   9.442   5.934   4.870  1.4214 -1.7511  2.1014
  593MOL0     H80006   9.660   6.195   5.059  1.4788  0.5858 -2.2247
  593MOL0     H80007   9.492   6.509   5.156  2.6915  0.5606  0.8380
  593MOL0     H80008   9.637   6.442   5.120 -0.5938 -2.8633  0.3119
  593MOL0     H80009   9.638   6.509   4.880 -3.2539 -0.5059 -3.0806
  593MOL0     H80010   9.477   6.595   4.907 -0.3396 -0.2401  0.3159
  593MOL0     H80011   9.747   6.676   5.027 -0.1248  0.0040 -0.5195
  593MOL0     H80012   9.587   6.725   5.089  0.8030 -1.8328  1.8421
  593MOL0     H80013   9.684   6.887   4.917  1.7351 -0.4405 -2.8105
  593MOL0     H80014   9.527   6.800   4.873 -0.5555  1.9251  1.4627
  593MOL0     H80015   9.832   6.656   4.568 -1.0638 -0.9270 -1.4054
  593MOL0     H80016   9.819   6.733   4.349  0.9874 -2.3716  1.0423
  593MOL0     H80017   9.363   7.096   4.119  0.2248  3.4266  2.2100
  593MOL0     H80018   9.322   7.220   3.893  1.2052  4.8495 -0.0920
  593MOL0     H80019   9.535   7.499   3.707 -0.7427 -0.5358 -1.1527
  593MOL0     H80020   9.669   7.423   3.786  0.5046 -0.0313 -1.5248
  593MOL0     H80021   9.751   7.420   3.601 -0.8185  0.9214  2.9569
  593MOL0     H80022   9.662   7.257   3.587  1.9933  0.0843  0.3237
  593MOL0     H80023   9.620   7.355   3.386  0.3184  2.3038 -1.0276
  593MOL0     H80024   9.478   7.361   3.481 -1.1236  1.5848  0.4563
  593MOL0     H80025   9.673   7.594   3.423  0.0719  1.8361 -0.1314
  593MOL0     H80026   9.531   7.601   3.534 -5.3175 -4.3419 -0.2038
  593MOL0     H80027   9.362   7.600   3.383  1.1029  1.5313  3.0557
  593MOL0     H80028   9.460   7.529   3.261  0.1334 -1.7423  2.1551
  593MOL0     H80029   9.604   7.749   3.242  1.1577  1.8464  3.3053
  593MOL0     H80030   9.435   7.786   3.202  1.9931 -1.1813 -2.2223
  593MOL0     H80031   9.562   7.840   3.466 -1.4524 -2.5051  0.4554
  593MOL0     H80032   9.394   7.872   3.423 -1.0355 -1.0934 -2.5009
  593MOL0     H80033   9.633   7.977   3.263  0.6458  2.1272  0.7146
  593MOL0     H80034   9.474   8.033   3.224  0.2716  3.3481  1.4080
  593MOL0     H80035   9.732   7.237   3.836 -0.4987  2.5586 -0.8948
  593MOL0     H80036   9.785   7.109   4.061 -1.0068 -1.5261 -0.3960
  593MOL0     H80037   9.522   7.011   4.473 -1.3391 -0.6448  3.1650
  593MOL0     H80038   9.563   6.965   4.701  4.8394  4.5164  0.2039
  593MOL0     H80039  10.383   5.873   5.186  1.1811  0.4846  1.2690
  593MOL0     H80040  10.505   5.785   5.028 -2.4888 -0.9275  1.6661
  593MOL0     H80041  10.733   5.854   4.585 -1.4427 -0.0384 -1.1616
  593MOL0     H80042  10.874   5.691   4.467 -0.2044  0.5152  0.5920
  593MOL0     H80043  10.997   5.414   4.539  3.7192  3.5769 -1.4304
  593MOL0     H80044  10.987   5.501   4.399  1.6663  1.2628  5.0395
  593MOL0     H80045  10.923   5.323   4.268 -0.9236  1.3566  0.6580
  593MOL0     H80046  10.923   5.203   4.399 -0.1582 -1.0779 -1.0261
  593MOL0     H80047  11.174   5.356   4.287  0.2998 -0.8478 -3.6279
  593MOL0     H80048  11.148   5.185   4.267  0.1789 -1.5829  1.9305
  593MOL0     H80049  11.182   5.318   4.536  2.7250 -0.8776  0.9123
  593MOL0     H80050  11.142   5.148   4.503 -0.4230  1.9596  4.3073
  593MOL0     H80051  11.553   5.195   4.400  0.1102  3.0883  0.3380
  593MOL0     H80052  10.584   5.396   4.592 -2.1168  1.3206 -0.3149
  593MOL0     H80053  10.347   5.516   4.661 -0.0878 -4.4052 -0.7352
  593MOL0     H80054  10.454   5.440   4.778 -3.8360 -0.0371  0.2398
  593MOL0     H80055  10.401   5.598   4.818  1.0306  1.3878 -0.4113
  594MOL0     O80056   2.202   8.195   4.382  0.7368 -0.4178 -0.2961
  594MOL0     C80057   2.243   8.112   4.305 -0.4896  0.2029 -1.2879
  594MOL0     O80058   2.171   8.013   4.238 -0.2879 -0.5351  0.1052
  594MOL0     C80059   2.044   8.005   4.283  0.8940 -0.1647  0.1299
  594MOL0     C80060   1.953   8.106   4.258  0.5700  0.7762 -0.4774
  594MOL0     C80061   1.825   8.085   4.300  0.1758 -0.4241 -0.4176
  594MOL0     C80062   1.775   7.961   4.347  0.5753 -0.3338  0.0282
  594MOL0     O80063   1.649   7.938   4.385  0.4948  0.1107  0.3292
  594MOL0     C80064   1.542   8.033   4.347 -0.1718  0.5479 -0.5349
  594MOL0     C80065   1.401   7.973   4.382 -0.1373 -0.1613 -1.1605
  594MOL0     C80066   1.294   8.049   4.308  1.2036 -0.0146 -0.1859
  594MOL0     C80067   1.294   8.033   4.154  0.0524 -0.4912 -0.7388
  594MOL0     C80068   1.275   8.172   4.093 -0.4836 -1.2608  0.4303
  594MOL0     C80069   1.145   8.244   4.131 -0.5545  0.6533  0.0593
  594MOL0     C80070   1.016   8.179   4.085  0.2684 -0.0661  1.1798
  594MOL0     C80071   0.889   8.237   4.149 -0.1903 -0.4679  0.0844
  594MOL0     N80072   0.869   8.384   4.151  0.0497 -0.7992 -0.2469
  594MOL0     C80073   0.883   8.467   4.261 -0.3010 -0.3605  0.2306
  594MOL0     C80074   0.807   8.580   4.255  0.6942 -0.5055 -0.3276
  594MOL0     C80075   0.779   8.683   4.368 -0.6501 -0.8187 -1.2151
  594MOL0     C80076   0.642   8.661   4.436  0.0773 -0.1369 -0.2628
  594MOL0     C80077   0.626   8.535   4.527 -0.4061 -0.6451  0.3416
  594MOL0     C80078   0.482   8.508   4.582 -0.8872  0.1934 -0.5086
  594MOL0     O80079   0.394   8.486   4.470  0.1049 -0.2087 -0.8315
  594MOL0     C80080   0.305   8.572   4.415 -0.0982 -0.0841  0.8361
  594MOL0     C80081   0.201   8.522   4.328 -1.7801  0.3241  0.8969
  594MOL0     C80082   0.099   8.609   4.289 -0.7709 -0.4425 -1.2234
  594MOL0     C80083   0.100   8.747   4.322 -0.3299  0.8574  0.0587
  594MOL0     C80084   0.001   8.836   4.265 -0.4105  0.0362  0.6543
  594MOL0     O80085  -0.035   8.939   4.335 -0.2333 -0.1790  0.4142
  594MOL0     C80086  -0.144   9.027   4.312 -0.2153  0.8969  0.1941
  594MOL0     C80087  -0.238   9.026   4.214 -0.1226  0.3111 -0.2122
  594MOL0     C80088  -0.357   9.103   4.223  0.7164  0.0484  0.0020
  594MOL0     C80089  -0.379   9.183   4.336 -0.4089 -0.4290  0.2525
  594MOL0     O80090  -0.489   9.265   4.331  0.7104  0.1401  0.9131
  594MOL0     C80091  -0.524   9.344   4.449 -1.0143  1.2364 -0.6125
  594MOL0     C80092  -0.651   9.405   4.449 -0.2290 -0.0860  0.4327
  594MOL0     C80093  -0.671   9.515   4.342  0.9327  0.6001  0.4304
  594MOL0     C80094  -0.816   9.529   4.279 -0.3259  0.5295  0.0177
  594MOL0     C80095  -0.929   9.536   4.382 -0.2588  0.6104 -0.5606
  594MOL0     C80096  -1.014   9.413   4.383 -0.2225  0.1224 -0.1320
  594MOL0     C80097  -1.139   9.420   4.474  0.2647 -0.7534  0.7449
  594MOL0     C80098  -1.256   9.509   4.441 -0.6502  0.8697  0.4618
  594MOL0    Cl80099  -1.318   9.460   4.280  0.1721 -0.1675  0.0448
  594MOL0     C80100  -0.277   9.198   4.428  0.1309  0.2679 -0.3876
  594MOL0     C80101  -0.162   9.119   4.416  0.3081  0.2095 -0.8774
  594MOL0     O80102  -0.049   8.800   4.160  1.0011  0.1845 -0.2333
  594MOL0     C80103   0.198   8.799   4.399 -1.0543 -0.9012 -0.4240
  594MOL0     C80104   0.302   8.707   4.441 -0.5820  0.1757  0.6303
  594MOL0     N80105   0.729   8.553   4.143  0.1886 -0.6082  0.3615
  594MOL0     N80106   0.757   8.444   4.085 -0.2539 -0.5030 -0.2762
  594MOL0     C80107   1.861   7.857   4.352  0.2108  0.1155  0.5719
  594MOL0     C80108   1.998   7.877   4.332  0.5074 -0.2921  1.0383
  594MOL0     C80109   2.391   8.137   4.276 -0.1747 -0.3041  0.3466
  594MOL0     C80110   2.448   8.250   4.341 -0.6157  0.4264 -1.1126
  594MOL0     C80111   2.587   8.277   4.345  0.4317  0.0137  0.0461
  594MOL0     C80112   2.672   8.196   4.271  0.6956 -0.6584 -0.2698
  594MOL0     O80113   2.801   8.237   4.247  0.3072 -0.1472 -0.0994
  594MOL0     C80114   2.801   8.360   4.154 -0.5224  0.3225 -0.6801
  594MOL0     C80115   2.870   8.317   4.028  0.0865  0.0943  0.2427
  594MOL0     C80116   3.020   8.284   4.043  0.2837 -0.1037 -0.3082
  594MOL0     C80117   3.097   8.326   4.167  0.5259 -0.8412 -0.0259
  594MOL0     C80118   3.241   8.341   4.159 -0.2547 -0.0662 -0.4531
  594MOL0     C80119   3.354   8.367   4.138  0.4610  0.1208 -0.0081
  594MOL0     C80120   2.616   8.083   4.209  0.3988  0.2269 -0.0526
  594MOL0     C80121   2.478   8.054   4.214 -0.5423  2.0546 -0.0327
  594MOL0     C80122   2.451   7.922   4.127  0.5488 -0.4526  0.1909
  594MOL0     H80123   1.991   8.197   4.211  1.3644  0.6613 -0.0758
  594MOL0     H80124   1.764   8.175   4.303  0.7137 -0.0879  0.9494
  594MOL0     H80125   1.549   8.128   4.401 -2.4360 -0.1025  1.0648
  594MOL0     H80126   1.560   8.054   4.241 -3.1642 -2.5231 -1.8599
  594MOL0     H80127   1.379   7.992   4.487 -0.8492  1.6176 -1.5992
  594MOL0     H80128   1.407   7.866   4.359  2.0650  0.2175 -2.6476
  594MOL0     H80129   1.328   8.150   4.329  2.4045 -0.6388  1.0511
  594MOL0     H80130   1.193   8.038   4.349  0.6457 -1.0296 -1.6972
  594MOL0     H80131   1.372   7.978   4.099  0.7825  0.6605 -0.8958
  594MOL0     H80132   1.205   7.975   4.130 -0.0977  0.5276 -2.8973
  594MOL0     H80133   1.355   8.234   4.134 -1.5987  1.2363 -0.9823
  594MOL0     H80134   1.292   8.159   3.986  0.0663 -0.6034  0.4338
  594MOL0     H80135   1.121   8.243   4.238 -4.7853 -3.7049 -0.5956
  594MOL0     H80136   1.144   8.349   4.099 -2.7900  0.1996 -1.6850
  594MOL0     H80137   1.016   8.070   4.099 -0.7978 -0.0427  1.4525
  594MOL0     H80138   1.023   8.186   3.976  3.5274 -3.6259  0.9534
  594MOL0     H80139   0.804   8.199   4.091 -1.8569  1.0214  1.4414
  594MOL0     H80140   0.884   8.212   4.255 -1.1041  2.2515  0.7681
  594MOL0     H80141   0.941   8.446   4.351 -1.7925  1.7709  1.7932
  594MOL0     H80142   0.859   8.670   4.442  0.5981 -6.2317 -3.0626
  594MOL0     H80143   0.783   8.784   4.325  0.4238 -0.3733 -0.1572
  594MOL0     H80144   0.617   8.747   4.499 -2.7506 -1.4425  0.5558
  594MOL0     H80145   0.570   8.660   4.353 -0.3342  2.3208 -0.0096
  594MOL0     H80146   0.694   8.537   4.612 -0.6554 -0.5586  0.5413
  594MOL0     H80147   0.664   8.449   4.472  2.2115  0.6623 -0.0199
  594MOL0     H80148   0.453   8.579   4.659 -1.9289  0.2846 -0.9701
  594MOL0     H80149   0.479   8.413   4.636  3.9599  0.3119  0.4183
  594MOL0     H80150   0.222   8.426   4.283  1.3248  1.2383  0.1249
  594MOL0     H80151   0.024   8.570   4.222  3.3267 -3.5226 -4.6187
  594MOL0     H80152  -0.237   8.964   4.125 -0.2141 -1.5505  1.0185
  594MOL0     H80153  -0.427   9.099   4.140 -0.0239 -2.6306  0.6637
  594MOL0     H80154  -0.541   9.272   4.529  0.2364  0.6052 -0.8859
  594MOL0     H80155  -0.447   9.414   4.483 -1.6772  1.8989 -0.4446
  594MOL0     H80156  -0.714   9.321   4.418  0.3889 -0.6955  0.7803
  594MOL0     H80157  -0.682   9.443   4.547  0.6584 -0.3195  0.8099
  594MOL0     H80158  -0.640   9.612   4.380  4.1525  0.3011 -1.1169
  594MOL0     H80159  -0.587   9.498   4.274  1.9835 -2.5005  2.2566
  594MOL0     H80160  -0.843   9.451   4.207 -0.3092 -0.4728  1.0674
  594MOL0     H80161  -0.813   9.624   4.224  1.0605  0.0127 -0.8389
  594MOL0     H80162  -0.999   9.614   4.351 -2.1748 -0.3094  1.1853
  594MOL0     H80163  -0.872   9.557   4.473  3.1102  1.4332 -2.6649
  594MOL0     H80164  -1.043   9.388   4.280  1.5378 -5.5088  0.4326
  594MOL0     H80165  -0.945   9.341   4.428  0.7964  0.6730 -0.7709
  594MOL0     H80166  -1.099   9.429   4.575  3.7437 -1.0177 -0.4655
  594MOL0     H80167  -1.198   9.328   4.469 -1.8172  0.5986 -0.7245
  594MOL0     H80168  -1.332   9.486   4.516  0.3808  0.8250  1.5380
  594MOL0     H80169  -1.219   9.612   4.438  1.3125  0.2893  2.3044
  594MOL0     H80170  -0.287   9.255   4.519  1.7723 -0.5871  0.3811
  594MOL0     H80171  -0.087   9.118   4.494 -0.7095 -0.8816  0.1208
  594MOL0     H80172   0.193   8.903   4.431  2.1159 -0.4356 -1.1465
  594MOL0     H80173   0.381   8.742   4.507 -1.8078  2.3104  1.0734
  594MOL0     H80174   1.824   7.763   4.392  1.0320 -0.7887 -0.7246
  594MOL0     H80175   2.076   7.801   4.328  1.4086  0.6675 -0.6567
  594MOL0     H80176   2.396   8.313   4.413 -2.3496 -2.2539  0.1830
  594MOL0     H80177   2.621   8.346   4.420 -0.8022 -0.6082  1.2139
  594MOL0     H80178   2.862   8.434   4.207 -1.7039  0.4001  0.6342
  594MOL0     H80179   2.701   8.396   4.126 -0.3871 -0.5026 -2.3792
  594MOL0     H80180   2.851   8.397   3.956 -2.3791 -0.9193 -0.3268
  594MOL0     H80181   2.813   8.236   3.982  0.8571 -0.3423  0.0324
  594MOL0     H80182   3.068   8.320   3.952  2.3330 -0.2828  0.6461
  594MOL0     H80183   3.028   8.175   4.040 -0.6986 -0.1581 -1.3446
  594MOL0     H80184   3.061   8.426   4.193  1.3563  0.2628 -2.7187
  594MOL0     H80185   3.070   8.265   4.253  5.2666 -2.1313  0.8268
  594MOL0     H80186   3.456   8.390   4.114  2.0250 -1.5628  4.1714
  594MOL0     H80187   2.682   8.009   4.165 -0.3576  0.5598 -1.8412
  594MOL0     H80188   2.482   7.833   4.183 -2.3229 -1.0298  1.0684
  594MOL0     H80189   2.347   7.922   4.092  1.6429 -1.3441 -3.3768
  594MOL0     H80190   2.522   7.919   4.044 -0.6728  2.0276 -1.0477
  595MOL0     O80191   9.870   5.416   4.811 -0.1556  0.6780  0.0571
  595MOL0     C80192   9.971   5.485   4.832  0.2026 -0.5435  0.1571
  595MOL0     O80193  10.101   5.441   4.830  0.8385  0.6926 -0.6110
  595MOL0     C80194  10.114   5.304   4.857  0.0511 -0.1116 -0.3911
  595MOL0     C80195  10.079   5.250   4.983  0.8945  0.7364  0.0793
  595MOL0     C80196  10.113   5.122   5.010 -0.0208  0.7223  1.3296
  595MOL0     C80197  10.177   5.039   4.916 -0.5111 -0.2912 -0.0550
  595MOL0     O80198  10.197   4.909   4.934 -0.4898  0.4631  0.3801
  595MOL0     C80199  10.083   4.834   4.970  1.1367 -0.5971  0.2686
  595MOL0     C80200   9.976   4.827   4.858  0.7689 -0.0401  0.8214
  595MOL0     C80201  10.031   4.773   4.729 -0.5408  0.1699  0.2683
  595MOL0     C80202   9.955   4.794   4.600 -0.0348  0.1776 -1.1717
  595MOL0     C80203  10.015   4.743   4.467  0.1018  0.0909 -0.1147
  595MOL0     C80204   9.909   4.744   4.354 -0.3686 -0.3331 -0.1200
  595MOL0     C80205  10.001   4.712   4.232 -0.3884  0.5306  0.1371
  595MOL0     C80206   9.907   4.692   4.101 -0.5149 -0.3692 -0.3091
  595MOL0     N80207   9.983   4.704   3.976 -0.4442 -0.0709 -0.8757
  595MOL0     C80208  10.102   4.645   3.960  0.1910  0.5058  0.0863
  595MOL0     C80209  10.137   4.686   3.836  0.1013  0.7780  0.0262
  595MOL0     C80210  10.262   4.645   3.762  0.0518  0.1583  0.0111
  595MOL0     C80211  10.306   4.497   3.783 -1.1394  0.5681 -0.5502
  595MOL0     C80212  10.224   4.395   3.697  0.0436 -0.3429 -0.8508
  595MOL0     C80213  10.271   4.248   3.716  0.1040  0.4670 -0.1668
  595MOL0     O80214  10.404   4.226   3.679  0.1869 -0.0375 -0.0729
  595MOL0     C80215  10.423   4.241   3.544 -0.4462 -0.7628 -0.4111
  595MOL0     C80216  10.346   4.191   3.438 -0.1339 -0.1695  0.1435
  595MOL0     C80217  10.377   4.225   3.307 -0.8639  0.8071  0.0975
  595MOL0     C80218  10.500   4.284   3.275 -0.2674  0.6735  0.2309
  595MOL0     C80219  10.537   4.302   3.132  0.4204  0.0740 -0.3255
  595MOL0     O80220  10.443   4.296   3.032 -0.1636  0.7306  0.3237
  595MOL0     C80221  10.487   4.306   2.900  0.0102  1.5349  0.1291
  595MOL0     C80222  10.390   4.363   2.817 -0.6495 -0.5896  0.1696
  595MOL0     C80223  10.408   4.357   2.678 -0.4046  0.8283 -0.2030
  595MOL0     C80224  10.515   4.299   2.617 -1.1081 -0.2311 -0.1562
  595MOL0     O80225  10.529   4.286   2.486  0.8352 -0.3534  0.2101
  595MOL0     C80226  10.560   4.404   2.419 -0.6648 -0.3966  0.2177
  595MOL0     C80227  10.583   4.374   2.270 -0.2862 -0.3744 -0.5971
  595MOL0     C80228  10.588   4.497   2.179  1.4952  0.6082 -0.5213
  595MOL0     C80229  10.446   4.562   2.141 -0.1151  0.3876  0.1502
  595MOL0     C80230  10.391   4.496   2.009 -0.1504  0.1912 -0.6134
  595MOL0     C80231  10.248   4.536   1.988 -0.0447  0.2988  0.1602
  595MOL0     C80232  10.221   4.678   1.945 -0.1463  0.0930 -0.2496
  595MOL0     C80233  10.083   4.726   1.981  0.4468 -0.0019 -0.8866
  595MOL0    Cl80234   9.951   4.618   1.923  0.3867 -0.4011 -0.0805
  595MOL0     C80235  10.615   4.258   2.704 -0.4356  0.1987 -1.0247
  595MOL0     C80236  10.599   4.248   2.839  0.3265 -0.0632  0.2500
  595MOL0     O80237  10.647   4.350   3.113 -0.3433 -0.7505 -0.4516
  595MOL0     C80238  10.582   4.323   3.382 -0.3324 -0.0714  0.1665
  595MOL0     C80239  10.542   4.302   3.510 -0.7670  0.0291 -0.0513
  595MOL0     N80240  10.026   4.746   3.778 -0.3637 -0.7715 -0.1464
  595MOL0     N80241   9.936   4.756   3.863  0.4800 -0.0526 -0.2577
  595MOL0     C80242  10.222   5.097   4.801 -0.3486 -0.2286  0.0151
  595MOL0     C80243  10.191   5.230   4.770  0.0727  0.8872 -0.0169
  595MOL0     C80244   9.955   5.632   4.855  0.3353  0.2427  0.1827
  595MOL0     C80245  10.060   5.694   4.925  0.0060  1.3600 -0.5876
  595MOL0     C80246  10.085   5.822   4.923  0.0116  0.0672  0.5296
  595MOL0     C80247  10.003   5.903   4.851 -1.0176 -0.7998  1.1561
  595MOL0     O80248  10.038   6.034   4.849 -0.0280 -0.1922  0.0225
  595MOL0     C80249   9.980   6.135   4.769 -0.5142 -1.4938  0.1895
  595MOL0     C80250  10.061   6.267   4.784  0.5587 -0.5623 -0.0446
  595MOL0     C80251  10.059   6.340   4.915  0.2292 -0.0635  0.2655
  595MOL0     C80252   9.937   6.429   4.956  0.0097  0.8579  1.2000
  595MOL0     C80253   9.942   6.447   5.105 -0.0939 -0.1130  0.3929
  595MOL0     C80254   9.913   6.445   5.221 -0.4164 -0.6554  0.1653
  595MOL0     C80255   9.889   5.849   4.793 -0.6247  0.9170  0.8908
  595MOL0     C80256   9.860   5.713   4.792  0.7000  0.2387  0.7833
  595MOL0     C80257   9.724   5.667   4.734  1.0033  0.2920 -0.2894
  595MOL0     H80258  10.031   5.309   5.060 -0.2002  1.8335 -1.3672
  595MOL0     H80259  10.080   5.059   5.093 -1.3527 -1.6575 -0.8551
  595MOL0     H80260  10.116   4.736   5.003 -1.4724 -2.4438 -2.1283
  595MOL0     H80261  10.032   4.874   5.058 -0.5637 -3.0692  0.5020
  595MOL0     H80262   9.928   4.925   4.849  1.9896  0.4281 -1.1602
  595MOL0     H80263   9.902   4.749   4.880  1.6726 -0.6484  1.7688
  595MOL0     H80264  10.048   4.667   4.750  0.9459  0.0053 -1.5487
  595MOL0     H80265  10.130   4.817   4.715  0.2686 -1.5185  0.3439
  595MOL0     H80266   9.855   4.754   4.621  0.6118 -1.0974 -0.3533
  595MOL0     H80267   9.952   4.903   4.594  2.4243  0.3329 -0.5500
  595MOL0     H80268  10.106   4.802   4.454  1.3925 -1.6288  0.8146
  595MOL0     H80269  10.053   4.642   4.485 -2.8879 -1.0545  0.3321
  595MOL0     H80270   9.824   4.678   4.367  0.8780 -1.9701  0.0356
  595MOL0     H80271   9.871   4.846   4.338  0.9577  0.2064 -0.0146
  595MOL0     H80272  10.046   4.616   4.257 -3.0896 -0.9455 -0.3249
  595MOL0     H80273  10.065   4.795   4.201 -1.6125 -0.2052 -5.3655
  595MOL0     H80274   9.884   4.585   4.100  1.4768 -0.8510 -0.2805
  595MOL0     H80275   9.815   4.749   4.108 -2.0308 -2.8575  2.9404
  595MOL0     H80276  10.160   4.571   4.014  1.6956  1.0503 -0.7546
  595MOL0     H80277  10.243   4.649   3.654 -2.5596  0.5640  0.4210
  595MOL0     H80278  10.349   4.707   3.787 -0.7268  1.8222 -1.2004
  595MOL0     H80279  10.410   4.495   3.750 -1.2731 -0.2574 -0.9528
  595MOL0     H80280  10.299   4.465   3.888  1.6028  0.0483 -0.4526
  595MOL0     H80281  10.238   4.418   3.591  4.7788 -0.7452 -0.5571
  595MOL0     H80282  10.118   4.406   3.723 -0.1404  0.5051 -1.9208
  595MOL0     H80283  10.206   4.170   3.677 -2.2477  0.5856  3.0915
  595MOL0     H80284  10.269   4.235   3.825  0.4107  2.0921  0.0638
  595MOL0     H80285  10.272   4.113   3.454  1.2676 -1.3698  1.0657
  595MOL0     H80286  10.326   4.171   3.227 -2.2200 -1.0412  2.1013
  595MOL0     H80287  10.308   4.414   2.866 -2.2665 -3.7703  1.0540
  595MOL0     H80288  10.322   4.396   2.625 -1.2986  0.2172  0.7592
  595MOL0     H80289  10.481   4.479   2.424 -0.0013  0.5613 -2.1690
  595MOL0     H80290  10.648   4.459   2.452 -1.2736  0.9489 -0.3052
  595MOL0     H80291  10.676   4.318   2.254 -0.0972  0.2774 -1.9578
  595MOL0     H80292  10.506   4.305   2.237  1.1502 -2.0598 -0.5510
  595MOL0     H80293  10.642   4.583   2.221  0.6756  2.2911 -2.6765
  595MOL0     H80294  10.648   4.477   2.090 -0.0336 -0.5612 -1.3550
  595MOL0     H80295  10.459   4.664   2.105  1.5287  0.3231  0.5022
  595MOL0     H80296  10.378   4.567   2.227  1.3267  0.5928  1.3249
  595MOL0     H80297  10.387   4.388   2.030  0.4826 -0.0637 -1.7135
  595MOL0     H80298  10.462   4.519   1.929  0.6828  0.3872  0.1664
  595MOL0     H80299  10.212   4.473   1.907  1.9680 -1.9057  0.8640
  595MOL0     H80300  10.201   4.517   2.085  3.3537  0.7855  2.0713
  595MOL0     H80301  10.239   4.687   1.837  1.1741 -1.6805 -0.2196
  595MOL0     H80302  10.287   4.752   1.992 -2.3555  2.7822 -1.0840
  595MOL0     H80303  10.083   4.723   2.090 -1.1413 -1.4011 -0.8763
  595MOL0     H80304  10.065   4.824   1.936 -4.1312  0.2330  0.8475
  595MOL0     H80305  10.707   4.230   2.654  0.8613  0.1658  1.2808
  595MOL0     H80306  10.669   4.199   2.906 -1.7630 -0.2022  2.4588
  595MOL0     H80307  10.672   4.382   3.370 -0.7578  0.5140 -0.2283
  595MOL0     H80308  10.601   4.337   3.595  0.0455  2.4778 -1.5126
  595MOL0     H80309  10.285   5.033   4.740 -0.6106  0.0346 -0.5451
  595MOL0     H80310  10.230   5.276   4.680 -3.3094  2.0189 -1.0510
  595MOL0     H80311  10.129   5.622   4.969 -2.2255 -0.7162 -0.2837
  595MOL0     H80312  10.171   5.865   4.975 -0.0364 -0.1962  0.8337
  595MOL0     H80313   9.879   6.147   4.810 -0.0526 -0.4369  1.0751
  595MOL0     H80314   9.986   6.112   4.662  0.1161  0.0141 -0.1246
  595MOL0     H80315  10.023   6.325   4.699 -1.9168 -2.7434 -0.5749
  595MOL0     H80316  10.164   6.231   4.780 -0.0835 -2.4124 -2.7270
  595MOL0     H80317  10.149   6.401   4.909  1.0997 -1.0740  2.0643
  595MOL0     H80318  10.078   6.267   4.995 -1.3055  0.3516  1.0633
  595MOL0     H80319   9.932   6.529   4.913 -3.1983 -0.2042 -1.3128
  595MOL0     H80320   9.849   6.374   4.923  0.0858  0.9969  0.7648
  595MOL0     H80321   9.894   6.419   5.323  2.4373 -1.1740  0.6573
  595MOL0     H80322   9.818   5.922   4.756 -1.3955  0.7774  2.0461
  595MOL0     H80323   9.664   5.754   4.706  2.9049  1.1050 -2.0853
  595MOL0     H80324   9.727   5.598   4.650  0.5112 -1.0348  0.7472
  595MOL0     H80325   9.690   5.604   4.817  0.9173 -1.6045 -1.6967
  596MOL0     O80326   8.353   8.100   5.376  0.0618 -0.2141  0.2782
  596MOL0     C80327   8.315   8.210   5.342  1.6880 -0.5286 -0.8092
  596MOL0     O80328   8.337   8.264   5.217  0.5815  0.6111 -0.3130
  596MOL0     C80329   8.451   8.229   5.144 -1.3838  0.2763  0.1150
  596MOL0     C80330   8.535   8.111   5.153 -1.4457 -0.9913 -0.0947
  596MOL0     C80331   8.635   8.091   5.058  0.5077 -0.0672  0.1762
  596MOL0     C80332   8.650   8.177   4.943  0.1914  0.0210 -0.3027
  596MOL0     O80333   8.731   8.132   4.847 -0.3137  0.2194  0.5213
  596MOL0     C80334   8.722   8.189   4.716  0.5036 -0.5281  0.6312
  596MOL0     C80335   8.776   8.104   4.614  0.0218 -0.1029 -0.1567
  596MOL0     C80336   8.700   7.980   4.592  0.6260 -0.5116 -0.1091
  596MOL0     C80337   8.546   7.987   4.598 -0.2888 -0.7335  0.0252
  596MOL0     C80338   8.483   7.849   4.559  0.6603  0.3046  0.9085
  596MOL0     C80339   8.499   7.739   4.664  0.3319  0.2724 -0.3660
  596MOL0     C80340   8.379   7.747   4.765 -0.4377 -0.4548 -0.5045
  596MOL0     C80341   8.394   7.621   4.859 -0.4776  0.7624  0.3786
  596MOL0     N80342   8.331   7.501   4.803  0.3985  0.2189  0.5466
  596MOL0     C80343   8.385   7.371   4.778 -0.6333  0.3148  0.9467
  596MOL0     C80344   8.278   7.296   4.733 -0.6205 -1.0686 -0.5659
  596MOL0     C80345   8.275   7.149   4.707  0.5920  0.1425  0.1139
  596MOL0     C80346   8.214   7.114   4.561 -0.2104  0.4318 -1.3733
  596MOL0     C80347   8.152   6.971   4.587  0.2460 -0.6243 -0.9367
  596MOL0     C80348   8.250   6.859   4.614  0.3655  0.7289  0.3478
  596MOL0     O80349   8.185   6.731   4.595  0.7146 -0.6002  0.0246
  596MOL0     C80350   8.244   6.611   4.604  0.1165  0.5110 -0.1764
  596MOL0     C80351   8.193   6.497   4.529 -1.2710 -0.2416 -0.4740
  596MOL0     C80352   8.261   6.378   4.548  0.3800  0.3410  0.3059
  596MOL0     C80353   8.367   6.356   4.636  0.4715  0.1400 -0.9745
  596MOL0     C80354   8.439   6.231   4.639 -0.0193  0.6780  0.2337
  596MOL0     O80355   8.539   6.211   4.736  0.6101 -0.6641  0.5760
  596MOL0     C80356   8.565   6.088   4.775 -0.4051  0.0310  0.0069
  596MOL0     C80357   8.686   6.017   4.745 -0.3654  0.3494 -0.6991
  596MOL0     C80358   8.711   5.890   4.802 -1.0944 -0.6973 -0.7371
  596MOL0     C80359   8.627   5.834   4.888  0.0220  1.2359 -0.4920
  596MOL0     O80360   8.635   5.706   4.942 -0.3824 -0.4545  0.6533
  596MOL0     C80361   8.768   5.665   4.973  0.8236 -0.1167  0.1279
  596MOL0     C80362   8.772   5.527   5.047  0.1673  0.3820 -0.6724
  596MOL0     C80363   8.899   5.492   5.114 -0.0792  0.1141  0.4937
  596MOL0     C80364   8.897   5.472   5.267 -0.6873 -0.3040  0.2113
  596MOL0     C80365   9.032   5.488   5.336 -0.9317 -0.1867  0.5758
  596MOL0     C80366   9.035   5.428   5.475  0.0637 -0.3106  0.5310
  596MOL0     C80367   8.915   5.476   5.564 -0.2167  0.3403  0.2014
  596MOL0     C80368   8.927   5.410   5.700  0.7096  1.1363  0.4435
  596MOL0    Cl80369   8.878   5.242   5.660 -0.3595  0.5253 -0.1117
  596MOL0     C80370   8.506   5.899   4.921  1.4914  0.5259 -0.1281
  596MOL0     C80371   8.473   6.034   4.866  0.0079  0.9149 -0.0250
  596MOL0     O80372   8.390   6.143   4.573 -0.7486  0.2709  1.1574
  596MOL0     C80373   8.413   6.471   4.711  0.7162 -0.4119 -0.0975
  596MOL0     C80374   8.350   6.599   4.696 -0.5479 -0.4590  0.4528
  596MOL0     N80375   8.171   7.382   4.721  0.6407  0.4526  0.2065
  596MOL0     N80376   8.199   7.504   4.760  0.1599  0.6509 -0.6794
  596MOL0     C80377   8.592   8.305   4.948  1.1658  0.5811  0.1989
  596MOL0     C80378   8.492   8.328   5.046 -0.5904  0.8020 -0.2562
  596MOL0     C80379   8.227   8.270   5.450 -0.3183 -0.7567  0.3749
  596MOL0     C80380   8.277   8.255   5.576 -0.7706 -0.4314 -1.0956
  596MOL0     C80381   8.209   8.310   5.686  0.0300  1.0168 -0.4060
  596MOL0     C80382   8.081   8.351   5.672  0.3306 -0.4225 -0.0237
  596MOL0     O80383   8.008   8.375   5.787 -0.9071  0.3518 -0.0095
  596MOL0     C80384   7.908   8.475   5.780  0.1084 -0.2747 -0.0241
  596MOL0     C80385   7.899   8.535   5.922 -0.2790  0.0668 -0.1966
  596MOL0     C80386   8.017   8.639   5.943 -1.0759  0.0081 -0.2249
  596MOL0     C80387   8.129   8.601   6.045  0.2405 -0.2466  0.0677
  596MOL0     C80388   8.089   8.621   6.185  0.5325  0.8114  0.2251
  596MOL0     C80389   8.062   8.634   6.304  0.3167  0.4850 -0.4101
  596MOL0     C80390   8.026   8.360   5.537  1.0683  0.1532 -0.2684
  596MOL0     C80391   8.099   8.327   5.429  0.4464  0.2626 -0.2611
  596MOL0     C80392   8.046   8.328   5.293  0.1038 -0.7544  0.1511
  596MOL0     H80393   8.535   8.047   5.240  1.0196 -1.2182 -0.1760
  596MOL0     H80394   8.690   7.998   5.070 -1.4307 -0.9591  3.1372
  596MOL0     H80395   8.615   8.211   4.706  0.2412 -0.3517  3.2007
  596MOL0     H80396   8.785   8.276   4.698 -3.0323  2.1638  0.2020
  596MOL0     H80397   8.875   8.073   4.649  0.0610  2.5878  2.5436
  596MOL0     H80398   8.799   8.151   4.518  1.6133  2.5188  1.3764
  596MOL0     H80399   8.728   7.907   4.669  0.0748  3.6223  4.5703
  596MOL0     H80400   8.736   7.952   4.493  1.4421  3.5813 -1.1513
  596MOL0     H80401   8.511   8.032   4.691 -0.4040 -0.7661 -0.0026
  596MOL0     H80402   8.518   8.058   4.520  1.5021 -0.9038 -0.8309
  596MOL0     H80403   8.379   7.867   4.529  1.2466 -0.2477 -1.6210
  596MOL0     H80404   8.532   7.813   4.469  0.4474  1.5466  0.2732
  596MOL0     H80405   8.491   7.641   4.616 -0.0780  1.6507 -3.3112
  596MOL0     H80406   8.603   7.741   4.699  1.6178 -1.7168 -3.6110
  596MOL0     H80407   8.289   7.730   4.705 -0.8119  2.1567 -0.7895
  596MOL0     H80408   8.366   7.839   4.823 -1.2038  1.6891 -3.8363
  596MOL0     H80409   8.502   7.614   4.874 -0.3278  1.0890 -0.5071
  596MOL0     H80410   8.352   7.625   4.960 -0.0403 -2.5618  0.8167
  596MOL0     H80411   8.483   7.325   4.786 -0.3178 -0.1787 -3.3861
  596MOL0     H80412   8.375   7.106   4.717  0.8287  1.0383  2.0022
  596MOL0     H80413   8.219   7.098   4.785 -1.4895 -0.2091 -1.5234
  596MOL0     H80414   8.132   7.181   4.532 -0.2005  0.4017 -1.4699
  596MOL0     H80415   8.294   7.112   4.486  2.0866  0.8289  0.9475
  596MOL0     H80416   8.116   6.932   4.491  1.3276 -2.3468 -0.6856
  596MOL0     H80417   8.064   6.973   4.652 -0.5204 -0.4418 -1.9343
  596MOL0     H80418   8.298   6.852   4.712 -0.2976 -0.7239  0.6050
  596MOL0     H80419   8.336   6.862   4.546 -0.8864 -1.7053 -1.4832
  596MOL0     H80420   8.111   6.502   4.458 -0.7305 -4.1519 -1.5727
  596MOL0     H80421   8.212   6.296   4.497 -2.5185  2.1242 -0.0130
  596MOL0     H80422   8.752   6.062   4.672  0.7674  0.6082  0.4688
  596MOL0     H80423   8.799   5.834   4.772 -0.6801 -0.9485  0.8425
  596MOL0     H80424   8.820   5.659   4.876  2.6190 -0.8911  1.0896
  596MOL0     H80425   8.812   5.737   5.042 -1.5356  0.1664  1.4245
  596MOL0     H80426   8.689   5.512   5.117  2.2939 -1.6475  1.5916
  596MOL0     H80427   8.749   5.456   4.967 -2.3459 -0.7391  0.9113
  596MOL0     H80428   8.943   5.408   5.061  0.6245  0.4171  0.5900
  596MOL0     H80429   8.966   5.569   5.075 -0.1790 -0.4179 -0.7853
  596MOL0     H80430   8.851   5.374   5.283 -0.4498 -0.3185  0.8171
  596MOL0     H80431   8.829   5.550   5.303 -1.1379 -0.4370 -0.3315
  596MOL0     H80432   9.064   5.592   5.325 -4.4767  0.8443 -1.4703
  596MOL0     H80433   9.103   5.433   5.273  0.1469  2.6837 -0.8822
  596MOL0     H80434   9.016   5.320   5.468 -1.2308 -0.2368  2.3402
  596MOL0     H80435   9.133   5.441   5.521 -0.3592 -2.5422  2.2167
  596MOL0     H80436   8.820   5.453   5.514 -0.3834  0.1938  0.5786
  596MOL0     H80437   8.911   5.585   5.575  2.6109  0.6693 -1.3104
  596MOL0     H80438   9.024   5.420   5.748  0.2394 -0.7374  1.9265
  596MOL0     H80439   8.854   5.439   5.776  2.0952 -1.3321  2.9121
  596MOL0     H80440   8.435   5.853   4.989  0.9937 -0.5740 -1.3320
  596MOL0     H80441   8.384   6.083   4.905  0.4263  1.1067  0.6938
  596MOL0     H80442   8.498   6.456   4.775  0.8700  0.7418 -0.0076
  596MOL0     H80443   8.378   6.681   4.761 -2.1456  1.6708 -1.3817
  596MOL0     H80444   8.627   8.380   4.877  0.5523  1.9539  1.2902
  596MOL0     H80445   8.433   8.419   5.053  1.3534  2.2772 -1.8195
  596MOL0     H80446   8.381   8.230   5.589 -0.2756  2.4882  2.5902
  596MOL0     H80447   8.252   8.289   5.784  2.5330 -4.4764 -2.2672
  596MOL0     H80448   7.812   8.440   5.744 -1.9533  1.8291  2.9093
  596MOL0     H80449   7.948   8.553   5.714 -1.0711 -1.3553 -2.1028
  596MOL0     H80450   7.896   8.448   5.989 -1.4879  0.8650  0.8207
  596MOL0     H80451   7.801   8.581   5.937 -0.7131 -1.0163  0.3874
  596MOL0     H80452   7.970   8.732   5.978 -0.4510  0.3191 -0.2012
  596MOL0     H80453   8.077   8.665   5.856  3.1623 -1.4809  1.9714
  596MOL0     H80454   8.161   8.498   6.024 -1.7935 -0.6071 -1.6599
  596MOL0     H80455   8.213   8.662   6.012 -2.5084  2.8837 -1.8360
  596MOL0     H80456   8.045   8.650   6.408  1.5171 -3.0267  0.4643
  596MOL0     H80457   7.923   8.392   5.526  0.5590 -1.1643  0.4205
  596MOL0     H80458   8.100   8.406   5.238 -1.4590 -0.4895 -1.0693
  596MOL0     H80459   8.057   8.229   5.248 -1.0147 -0.0155 -1.9165
  596MOL0     H80460   7.940   8.355   5.302 -0.0615 -1.9328  2.4393
  597MOL0     O80461   6.170   2.351   1.398 -0.3255 -0.2083 -0.3609
  597MOL0     C80462   6.143   2.461   1.349  0.9427  0.9897 -0.0046
  597MOL0     O80463   6.203   2.507   1.235 -0.6993  0.3372 -0.6897
  597MOL0     C80464   6.313   2.440   1.175  0.3357  0.1813  0.5729
  597MOL0     C80465   6.419   2.522   1.139  0.0405 -0.1706  0.3027
  597MOL0     C80466   6.531   2.463   1.069  0.2432  0.0784  0.1604
  597MOL0     C80467   6.530   2.325   1.037  0.5302 -0.6979 -0.0620
  597MOL0     O80468   6.643   2.292   0.962 -0.2644 -0.4694 -0.3185
  597MOL0     C80469   6.629   2.157   0.923 -0.0176  0.2346 -0.1989
  597MOL0     C80470   6.754   2.123   0.837  0.5385  0.1625 -0.2352
  597MOL0     C80471   6.892   2.151   0.907 -0.1834  0.5601 -0.2095
  597MOL0     C80472   6.915   2.085   1.048  0.7460  0.4535  0.1333
  597MOL0     C80473   6.941   1.936   1.051 -0.1970 -0.3801  0.0712
  597MOL0     C80474   7.015   1.890   1.173 -0.5350 -0.9488  0.2596
  597MOL0     C80475   6.945   1.912   1.313 -0.0810 -0.9266  0.0583
  597MOL0     C80476   6.984   2.042   1.378  1.4619 -0.1981  0.8883
  597MOL0     N80477   7.128   2.058   1.391 -0.7854 -0.3749 -0.6317
  597MOL0     C80478   7.212   2.027   1.505 -0.4464 -0.0713  0.5250
  597MOL0     C80479   7.336   2.054   1.461  0.0361  0.8392 -0.0134
  597MOL0     C80480   7.469   2.031   1.535 -0.8563  1.1415  0.2196
  597MOL0     C80481   7.555   1.942   1.441 -0.6642  0.0746 -0.2667
  597MOL0     C80482   7.499   1.814   1.376 -0.8123  0.5110 -0.6333
  597MOL0     C80483   7.410   1.822   1.251  0.3104  0.3361 -0.2358
  597MOL0     O80484   7.438   1.702   1.182 -1.0240  0.6873 -0.1443
  597MOL0     C80485   7.347   1.671   1.094 -0.1919  0.4314  0.4275
  597MOL0     C80486   7.302   1.781   1.000  0.1604  0.0257 -0.2984
  597MOL0     C80487   7.222   1.746   0.892 -0.4420  0.8016 -0.0456
  597MOL0     C80488   7.176   1.618   0.870 -0.0290 -0.2138  0.0769
  597MOL0     C80489   7.082   1.581   0.763 -0.1060 -0.1104  0.4785
  597MOL0     O80490   7.032   1.686   0.698 -0.3555  0.3340  0.2371
  597MOL0     C80491   6.977   1.678   0.574 -0.3400 -0.4181 -0.6758
  597MOL0     C80492   6.886   1.771   0.534  0.3410 -1.2365  0.1672
  597MOL0     C80493   6.819   1.757   0.412  0.5018  0.4236  0.1875
  597MOL0     C80494   6.839   1.642   0.323  0.0508  0.0886 -0.7565
  597MOL0     O80495   6.762   1.643   0.214  0.0594 -0.1414 -0.1067
  597MOL0     C80496   6.739   1.515   0.159 -0.6750  0.0747 -0.0007
  597MOL0     C80497   6.639   1.501   0.038  1.1915  0.0790  0.0082
  597MOL0     C80498   6.616   1.353   0.014 -0.7742  0.4857  0.8488
  597MOL0     C80499   6.465   1.310  -0.011 -0.5522 -0.2555 -0.2133
  597MOL0     C80500   6.461   1.162  -0.048 -0.2044  0.2262  0.9627
  597MOL0     C80501   6.324   1.099  -0.006 -0.2406 -0.3347  0.7589
  597MOL0     C80502   6.328   0.949  -0.019  0.9812 -0.0638  0.0953
  597MOL0     C80503   6.188   0.888  -0.024  0.6706  0.1900  0.8043
  597MOL0    Cl80504   6.224   0.718   0.001  0.1990  0.4276 -0.0226
  597MOL0     C80505   6.944   1.556   0.357  0.1819 -0.5763 -0.4332
  597MOL0     C80506   7.007   1.570   0.489 -0.6871 -0.7234  1.3519
  597MOL0     O80507   7.036   1.470   0.756 -0.2126  0.6943  0.1364
  597MOL0     C80508   7.227   1.513   0.956 -1.0198  0.2822  0.4950
  597MOL0     C80509   7.309   1.535   1.070  0.4756  0.2601  0.4581
  597MOL0     N80510   7.329   2.120   1.340  0.1213 -0.3020 -0.3877
  597MOL0     N80511   7.204   2.128   1.299 -0.2045 -0.2737  0.9741
  597MOL0     C80512   6.427   2.248   1.090  0.0747  1.0850  0.6137
  597MOL0     C80513   6.314   2.299   1.157 -1.2167  0.6578 -0.5988
  597MOL0     C80514   6.053   2.546   1.426 -0.6273  0.5347  0.3596
  597MOL0     C80515   6.066   2.686   1.390  0.4523 -0.1159 -0.6908
  597MOL0     C80516   5.988   2.782   1.454  0.5768  0.5217 -0.2647
  597MOL0     C80517   5.899   2.757   1.555  0.3044 -0.0583  0.3263
  597MOL0     O80518   5.827   2.843   1.633  0.1758  0.2552 -0.1098
  597MOL0     C80519   5.747   2.952   1.577  0.4309 -0.0316  0.1857
  597MOL0     C80520   5.699   3.041   1.702  0.2051  0.3917 -0.2053
  597MOL0     C80521   5.696   3.185   1.640  0.2188  0.2242 -0.3884
  597MOL0     C80522   5.643   3.300   1.726 -0.2807  0.5037  0.3139
  597MOL0     C80523   5.749   3.335   1.823  0.1514  0.3338 -0.3009
  597MOL0     C80524   5.838   3.393   1.885  0.1120  0.0303  1.4718
  597MOL0     C80525   5.884   2.619   1.592 -0.4842 -0.5013  0.1757
  597MOL0     C80526   5.956   2.517   1.529 -0.6225 -0.0129 -0.3844
  597MOL0     C80527   5.901   2.377   1.551 -0.4837 -0.2399  0.5545
  597MOL0     H80528   6.402   2.624   1.171 -0.5636  0.8228 -2.8241
  597MOL0     H80529   6.616   2.527   1.049  0.8996 -0.2647  1.7232
  597MOL0     H80530   6.634   2.086   1.006  3.5670  1.1186  0.5110
  597MOL0     H80531   6.536   2.142   0.868 -0.3233 -0.5889  0.5381
  597MOL0     H80532   6.752   2.191   0.752  1.4785  1.1716  0.5233
  597MOL0     H80533   6.743   2.016   0.815  0.4905 -0.0201  0.6186
  597MOL0     H80534   6.915   2.257   0.919 -0.7955  0.8143 -1.1857
  597MOL0     H80535   6.968   2.099   0.848 -2.0209 -2.3251 -0.2425
  597MOL0     H80536   7.000   2.135   1.095 -0.1848  0.7208  1.6049
  597MOL0     H80537   6.826   2.088   1.111 -0.6633 -1.2907 -1.6299
  597MOL0     H80538   6.848   1.880   1.037  0.0565 -0.2161 -3.1252
  597MOL0     H80539   7.005   1.904   0.968 -2.5851 -0.6482 -1.7779
  597MOL0     H80540   7.031   1.782   1.176 -2.7902 -1.3119  1.9794
  597MOL0     H80541   7.118   1.927   1.166 -0.9059 -0.1123 -1.0888
  597MOL0     H80542   6.982   1.835   1.382 -0.2740 -0.8130  0.2875
  597MOL0     H80543   6.836   1.914   1.302 -0.2524  0.5098  1.6817
  597MOL0     H80544   6.955   2.127   1.317  1.9689 -0.4431  0.2964
  597MOL0     H80545   6.931   2.050   1.474 -0.1870 -1.1317  0.1101
  597MOL0     H80546   7.176   1.989   1.599 -1.6894 -0.9971 -0.2920
  597MOL0     H80547   7.520   2.128   1.531 -1.8134  1.6262 -1.2105
  597MOL0     H80548   7.467   1.993   1.638  3.0771 -0.5301 -0.1342
  597MOL0     H80549   7.580   2.003   1.353  2.9467 -1.9164 -0.8155
  597MOL0     H80550   7.649   1.910   1.487 -1.0980  1.6665  1.9033
  597MOL0     H80551   7.455   1.756   1.458  0.5235  0.1633 -0.1342
  597MOL0     H80552   7.586   1.753   1.350 -1.6394  0.3725 -3.3679
  597MOL0     H80553   7.435   1.915   1.199  4.0928 -0.9620 -1.1138
  597MOL0     H80554   7.310   1.830   1.292 -0.9651 -3.0412 -2.2474
  597MOL0     H80555   7.332   1.885   1.011 -0.1220  0.1176 -0.4027
  597MOL0     H80556   7.190   1.831   0.832  1.2027  1.1232 -0.5138
  597MOL0     H80557   6.848   1.857   0.588  0.7836 -0.6979 -0.3691
  597MOL0     H80558   6.747   1.835   0.391 -1.2794 -1.6962 -2.2415
  597MOL0     H80559   6.838   1.482   0.126  0.2287 -0.5289  3.0223
  597MOL0     H80560   6.707   1.441   0.233  2.6167 -1.1953  0.3200
  597MOL0     H80561   6.557   1.568   0.065  1.8197 -0.1139  2.7641
  597MOL0     H80562   6.682   1.542  -0.054  0.1442  0.7175 -0.2163
  597MOL0     H80563   6.668   1.330  -0.079  0.4302  2.8754  0.8497
  597MOL0     H80564   6.658   1.282   0.086 -2.1906 -2.1999 -0.8144
  597MOL0     H80565   6.418   1.365  -0.093  1.8117  1.1223 -0.7430
  597MOL0     H80566   6.409   1.332   0.081 -2.4487 -1.8709 -0.9106
  597MOL0     H80567   6.543   1.116   0.009  2.6568  1.2162 -2.0389
  597MOL0     H80568   6.480   1.156  -0.155 -2.2895  1.9075  0.4316
  597MOL0     H80569   6.302   1.119   0.100 -1.3388 -0.6665  0.6122
  597MOL0     H80570   6.250   1.145  -0.073  3.2198  2.1730 -1.7043
  597MOL0     H80571   6.375   0.914   0.073 -0.9816  1.2550  1.7019
  597MOL0     H80572   6.383   0.919  -0.108 -1.0636  0.9833 -1.6361
  597MOL0     H80573   6.133   0.918   0.065  1.2004  0.0164  1.1962
  597MOL0     H80574   6.126   0.905  -0.113 -2.2593 -4.7703  1.4911
  597MOL0     H80575   6.968   1.468   0.298 -1.5589 -3.2483  2.5625
  597MOL0     H80576   7.075   1.488   0.510 -0.7587 -1.3612 -0.6763
  597MOL0     H80577   7.211   1.409   0.931 -0.3159  0.6708 -1.8433
  597MOL0     H80578   7.358   1.457   1.127 -0.0838 -0.1765  0.3493
  597MOL0     H80579   6.434   2.140   1.089  1.6796  1.1653 -0.6802
  597MOL0     H80580   6.239   2.228   1.191 -0.4774  0.4240  0.6272
  597MOL0     H80581   6.142   2.713   1.318  3.2909 -2.7614  1.0369
  597MOL0     H80582   6.022   2.873   1.404 -0.1528  0.2816 -1.2200
  597MOL0     H80583   5.652   2.914   1.538 -0.1519  0.1283  1.4104
  597MOL0     H80584   5.801   3.009   1.501  2.0129  0.9215  1.9518
  597MOL0     H80585   5.782   3.043   1.773 -0.2707 -0.3882  0.3849
  597MOL0     H80586   5.616   2.996   1.758  1.6684 -1.0319  0.9123
  597MOL0     H80587   5.643   3.166   1.547  1.0586 -2.1514 -0.4681
  597MOL0     H80588   5.793   3.222   1.605  1.0601 -1.6356 -0.1913
  597MOL0     H80589   5.634   3.393   1.671 -0.5321  2.3117  3.1913
  597MOL0     H80590   5.557   3.275   1.789  2.7820 -1.0157  4.3436
  597MOL0     H80591   5.909   3.460   1.929  0.4107 -0.6720  2.0845
  597MOL0     H80592   5.817   2.592   1.673 -1.3713 -2.5994 -1.1537
  597MOL0     H80593   5.796   2.370   1.522  0.5075  1.5090 -4.5101
  597MOL0     H80594   5.955   2.295   1.501 -0.4026 -0.1829  0.5468
  597MOL0     H80595   5.912   2.335   1.651 -0.3589 -2.4963 -0.3504
  598MOL0     O80596   3.628   9.681   0.857 -0.3984 -0.6793 -0.0058
  598MOL0     C80597   3.671   9.604   0.936  0.5930  0.3425 -1.2887
  598MOL0     O80598   3.795   9.595   0.975 -0.0944 -0.0953 -0.0829
  598MOL0     C80599   3.906   9.627   0.901  0.2049  0.4026  0.3633
  598MOL0     C80600   3.912   9.630   0.755 -0.6348  0.4030 -0.5353
  598MOL0     C80601   4.037   9.670   0.699 -0.1165  0.2357 -0.0361
  598MOL0     C80602   4.153   9.715   0.770 -0.5928 -0.8557  0.1444
  598MOL0     O80603   4.266   9.739   0.696  0.3445  0.0979  0.3450
  598MOL0     C80604   4.387   9.787   0.757 -0.7456  0.3718  0.2412
  598MOL0     C80605   4.497   9.758   0.656 -0.9014 -0.6703 -0.0360
  598MOL0     C80606   4.601   9.864   0.665 -0.0210  0.4120  0.5320
  598MOL0     C80607   4.706   9.813   0.767  0.5587 -1.1444  0.1202
  598MOL0     C80608   4.832   9.904   0.763 -0.3367  0.1654  0.0243
  598MOL0     C80609   4.924   9.892   0.641 -0.5408 -0.3434 -0.3726
  598MOL0     C80610   5.033   9.999   0.648  1.3556  0.7162 -0.5832
  598MOL0     C80611   5.107   9.994   0.520  0.4576  0.6763 -0.4859
  598MOL0     N80612   5.177   9.868   0.491 -0.0293 -0.9681  0.6095
  598MOL0     C80613   5.302   9.835   0.528  0.0151 -0.3515  0.3093
  598MOL0     C80614   5.331   9.709   0.483 -0.5379 -0.3000  0.2084
  598MOL0     C80615   5.461   9.638   0.486  0.3871 -0.5285  0.3310
  598MOL0     C80616   5.482   9.541   0.601  0.0093 -0.2192  0.4203
  598MOL0     C80617   5.630   9.480   0.596 -0.5492 -0.1982 -0.9259
  598MOL0     C80618   5.680   9.428   0.461 -0.5976  0.8308  0.7521
  598MOL0     O80619   5.817   9.373   0.498 -0.5377 -0.9166  0.6800
  598MOL0     C80620   5.849   9.241   0.487 -0.2730  0.3784 -0.1566
  598MOL0     C80621   5.983   9.218   0.483 -0.8667 -0.2396  0.4966
  598MOL0     C80622   6.029   9.093   0.504  0.5321  0.4652  0.3048
  598MOL0     C80623   5.939   8.981   0.506 -0.2075  0.4484 -1.2573
  598MOL0     C80624   6.001   8.840   0.527 -0.1074  0.6451  0.5985
  598MOL0     O80625   5.908   8.732   0.537  0.3092 -0.1569 -0.4307
  598MOL0     C80626   5.950   8.610   0.508  0.9287 -0.0329 -0.7337
  598MOL0     C80627   5.875   8.526   0.424  0.3275 -0.3410 -0.6030
  598MOL0     C80628   5.893   8.387   0.410  0.1726 -0.2490 -0.3229
  598MOL0     C80629   5.992   8.333   0.503  1.1120  0.0153  0.2119
  598MOL0     O80630   6.022   8.203   0.510 -0.0961  0.2081  0.1562
  598MOL0     C80631   6.034   8.132   0.386  0.3228 -0.0920  1.0646
  598MOL0     C80632   6.129   8.005   0.401  0.1861 -0.1877  0.3818
  598MOL0     C80633   6.181   7.947   0.267  0.1016  0.5699 -0.0510
  598MOL0     C80634   6.296   8.012   0.206 -0.7628 -0.6193 -0.5560
  598MOL0     C80635   6.305   7.996   0.056  0.0879 -0.2690  0.4098
  598MOL0     C80636   6.314   7.856   0.004  0.0431 -0.0740 -0.4129
  598MOL0     C80637   6.296   7.849  -0.146  0.1349 -0.5749 -0.7424
  598MOL0     C80638   6.202   7.741  -0.191  1.1127  0.8988  0.1931
  598MOL0    Cl80639   6.230   7.581  -0.120 -0.0053 -0.0176  0.1591
  598MOL0     C80640   6.053   8.415   0.591  0.1776 -0.3938  0.9190
  598MOL0     C80641   6.035   8.551   0.592 -0.6561  0.5465  0.2571
  598MOL0     O80642   6.123   8.834   0.537 -1.2296 -0.0409 -0.2660
  598MOL0     C80643   5.802   9.002   0.496  0.0266 -0.1947  0.2694
  598MOL0     C80644   5.749   9.129   0.487 -0.3496  0.5887 -0.1891
  598MOL0     N80645   5.217   9.677   0.404 -0.4351  0.0473  0.3188
  598MOL0     N80646   5.135   9.770   0.396  0.3721 -0.3673 -0.0808
  598MOL0     C80647   4.137   9.717   0.909 -0.4006  0.6700 -0.3556
  598MOL0     C80648   4.020   9.673   0.976 -0.1668  0.0405  0.5307
  598MOL0     C80649   3.579   9.518   1.028  0.6658 -0.7076 -0.0106
  598MOL0     C80650   3.635   9.431   1.120 -0.5727 -0.1334  0.9707
  598MOL0     C80651   3.562   9.360   1.212 -1.2864 -1.0937 -0.4191
  598MOL0     C80652   3.427   9.389   1.226 -0.4339 -0.1966 -1.3121
  598MOL0     O80653   3.368   9.325   1.331  0.0777 -0.3937 -0.0388
  598MOL0     C80654   3.259   9.385   1.401 -0.5433 -0.6721  1.0640
  598MOL0     C80655   3.117   9.333   1.365 -0.1421 -0.0342  1.1915
  598MOL0     C80656   3.085   9.189   1.381  0.1444  0.0618 -0.4898
  598MOL0     C80657   3.158   9.087   1.297 -0.1055 -0.2868  1.6166
  598MOL0     C80658   3.064   8.980   1.254 -0.4756 -0.0562 -0.6064
  598MOL0     C80659   2.995   8.887   1.219  0.6549  0.2421 -0.2473
  598MOL0     C80660   3.356   9.479   1.138  0.1754 -0.6307  1.4502
  598MOL0     C80661   3.437   9.543   1.034  0.3607 -0.4923 -0.5117
  598MOL0     C80662   3.371   9.635   0.931  0.0119 -0.4871  0.3801
  598MOL0     H80663   3.842   9.596   0.679 -0.9475  1.4973 -0.7650
  598MOL0     H80664   4.050   9.657   0.592 -0.0904  1.9211 -0.2607
  598MOL0     H80665   4.379   9.895   0.773  0.8085  1.0941 -3.0737
  598MOL0     H80666   4.405   9.728   0.847 -2.9989 -2.4399 -1.0056
  598MOL0     H80667   4.447   9.774   0.561 -2.3233 -3.9187  0.0167
  598MOL0     H80668   4.518   9.652   0.642 -1.6753 -0.8072 -0.2097
  598MOL0     H80669   4.560   9.964   0.685 -1.7136 -0.1637  0.0995
  598MOL0     H80670   4.655   9.866   0.570 -1.2928  2.7276 -0.2345
  598MOL0     H80671   4.664   9.812   0.868 -1.6605  0.2648 -0.7182
  598MOL0     H80672   4.740   9.714   0.733  1.0064  0.1551 -3.7003
  598MOL0     H80673   4.812  10.011   0.768  2.4012  0.7402 -0.0792
  598MOL0     H80674   4.891   9.888   0.854  0.2946  5.2622  0.7991
  598MOL0     H80675   4.973   9.794   0.644  2.5773  1.1148  0.2301
  598MOL0     H80676   4.867   9.904   0.548 -0.6823  2.4355 -0.0314
  598MOL0     H80677   5.098   9.992   0.736  2.4615 -2.6438 -1.5325
  598MOL0     H80678   4.988  10.098   0.657  0.1162  0.0894  0.4491
  598MOL0     H80679   5.048  10.028   0.434 -1.0348  1.2170  0.7018
  598MOL0     H80680   5.181  10.075   0.527  0.7041  0.3099  1.6493
  598MOL0     H80681   5.363   9.909   0.579 -1.9679  3.5008 -2.3511
  598MOL0     H80682   5.467   9.585   0.390  0.3437  4.3263 -2.6926
  598MOL0     H80683   5.536   9.717   0.494 -1.4250  1.1500  1.5608
  598MOL0     H80684   5.468   9.594   0.696  1.9088  0.0819  0.5842
  598MOL0     H80685   5.399   9.471   0.592  0.3648 -0.7390  1.0833
  598MOL0     H80686   5.634   9.394   0.664 -3.9608  1.2438  1.3877
  598MOL0     H80687   5.701   9.560   0.616 -0.4850 -0.3564 -0.5105
  598MOL0     H80688   5.678   9.503   0.382 -2.2625  0.3818  0.3258
  598MOL0     H80689   5.613   9.356   0.414 -0.8280  2.4814 -1.6310
  598MOL0     H80690   6.052   9.301   0.472  0.3687 -1.2658  0.1267
  598MOL0     H80691   6.138   9.094   0.502  0.5170  0.6824 -0.5312
  598MOL0     H80692   5.814   8.583   0.354  1.4360  0.7076 -0.7313
  598MOL0     H80693   5.854   8.323   0.332 -3.7493  2.2551 -0.7102
  598MOL0     H80694   5.931   8.103   0.362 -0.5911  3.1375  0.5723
  598MOL0     H80695   6.075   8.201   0.312  1.3895 -3.4986 -1.7690
  598MOL0     H80696   6.225   8.014   0.453  1.3282 -2.4496 -1.1543
  598MOL0     H80697   6.078   7.926   0.458  2.3877 -2.0379 -0.0837
  598MOL0     H80698   6.186   7.837   0.269 -2.8215  0.2224 -3.1459
  598MOL0     H80699   6.098   7.958   0.197 -1.3295  1.4701  1.7130
  598MOL0     H80700   6.387   7.966   0.246 -0.7922 -1.7661 -1.7244
  598MOL0     H80701   6.297   8.115   0.243 -0.3798 -0.3072 -1.3914
  598MOL0     H80702   6.388   8.053   0.014  0.4997 -1.5218 -0.5297
  598MOL0     H80703   6.211   8.037   0.017  0.8873  1.9185  0.6246
  598MOL0     H80704   6.406   7.814   0.046 -0.6840  1.1443  2.6774
  598MOL0     H80705   6.245   7.794   0.062 -0.5804  2.2506  1.5062
  598MOL0     H80706   6.389   7.838  -0.202 -0.2603  0.9929 -1.7705
  598MOL0     H80707   6.258   7.943  -0.187 -1.1693 -0.5916  0.3710
  598MOL0     H80708   6.098   7.769  -0.169  1.7284  1.5894  2.5439
  598MOL0     H80709   6.215   7.731  -0.299 -1.7142 -0.2108 -0.1468
  598MOL0     H80710   6.135   8.382   0.654  1.3729  4.2073  2.1227
  598MOL0     H80711   6.079   8.616   0.668 -1.8089 -1.1098  2.4405
  598MOL0     H80712   5.732   8.919   0.508 -0.2104 -0.4490 -2.4003
  598MOL0     H80713   5.643   9.148   0.492 -0.5928 -0.3458 -1.4325
  598MOL0     H80714   4.226   9.754   0.958  1.5249 -2.5829 -1.1044
  598MOL0     H80715   4.008   9.680   1.084 -1.4283 -1.6692  0.5454
  598MOL0     H80716   3.743   9.420   1.116 -0.6193 -0.4593  0.4341
  598MOL0     H80717   3.615   9.294   1.279 -4.0924 -3.8156 -0.6517
  598MOL0     H80718   3.270   9.493   1.392 -0.1188 -0.8274 -0.4923
  598MOL0     H80719   3.266   9.375   1.510 -0.6771 -0.7914  1.0610
  598MOL0     H80720   3.108   9.345   1.257  2.8040  2.1559  1.0559
  598MOL0     H80721   3.040   9.394   1.414 -3.2102 -2.0283 -0.8811
  598MOL0     H80722   2.978   9.184   1.358 -0.2832 -0.2615  1.4066
  598MOL0     H80723   3.109   9.174   1.486  1.2147 -2.0126 -0.9910
  598MOL0     H80724   3.191   9.135   1.205 -1.9547 -1.9196  0.0007
  598MOL0     H80725   3.243   9.047   1.352 -0.0463 -2.0990  0.3001
  598MOL0     H80726   2.925   8.812   1.189  0.7946  0.4742 -1.1945
  598MOL0     H80727   3.252   9.508   1.147 -0.2403 -0.3717 -2.5156
  598MOL0     H80728   3.371   9.601   0.827 -2.6757 -0.1614  0.2033
  598MOL0     H80729   3.263   9.642   0.949 -0.5249  2.0929 -2.9477
  598MOL0     H80730   3.401   9.740   0.925 -2.7705  0.4801  1.3301
  599MOL0     O80731   1.380   4.236   6.927  0.2063 -0.0433 -0.2653
  599MOL0     C80732   1.477   4.233   7.001 -0.4010 -0.4472  0.0976
  599MOL0     O80733   1.609   4.226   6.955  0.1423 -0.3887 -0.3132
  599MOL0     C80734   1.648   4.223   6.827 -0.4523  0.0164  0.2763
  599MOL0     C80735   1.595   4.292   6.713  0.4988  0.8577  0.1755
  599MOL0     C80736   1.657   4.294   6.589 -0.1248 -0.1288  0.1379
  599MOL0     C80737   1.764   4.210   6.567 -0.2761 -0.4002  0.6486
  599MOL0     O80738   1.828   4.180   6.439  0.2523 -0.0401 -0.3296
  599MOL0     C80739   1.805   4.279   6.330 -0.3084 -0.1752 -0.2540
  599MOL0     C80740   1.880   4.254   6.199 -0.0295 -0.7951 -0.0995
  599MOL0     C80741   2.021   4.238   6.219 -0.6894 -0.1463  0.2667
  599MOL0     C80742   2.086   4.226   6.078 -0.9033  0.4173 -0.0684
  599MOL0     C80743   2.247   4.201   6.086  0.6936 -0.4679  0.4273
  599MOL0     C80744   2.307   4.155   5.952 -0.8754  0.3925  0.5025
  599MOL0     C80745   2.464   4.167   5.938 -0.4203 -0.1554  0.3480
  599MOL0     C80746   2.510   4.198   5.794  0.3566  0.8877  0.4496
  599MOL0     N80747   2.657   4.218   5.793 -0.4189 -0.7729 -0.3056
  599MOL0     C80748   2.720   4.336   5.812  0.9827 -0.0826 -0.0148
  599MOL0     C80749   2.846   4.321   5.852 -0.5008  0.1422 -0.1059
  599MOL0     C80750   2.943   4.430   5.880  0.1807  1.0650  0.7980
  599MOL0     C80751   3.039   4.441   5.761 -0.2373  0.7641 -0.0713
  599MOL0     C80752   3.115   4.574   5.751  0.4019  0.1386 -0.0036
  599MOL0     C80753   3.189   4.584   5.620 -0.1423 -0.1281 -0.3461
  599MOL0     O80754   3.097   4.554   5.511  0.1205 -0.6657  0.2048
  599MOL0     C80755   3.141   4.557   5.384 -0.0264 -0.1382  0.5304
  599MOL0     C80756   3.267   4.514   5.349  0.4959  0.0829  0.2417
  599MOL0     C80757   3.308   4.500   5.213 -1.1095  0.0172  0.5910
  599MOL0     C80758   3.217   4.526   5.106 -0.4304 -0.4666 -0.1672
  599MOL0     C80759   3.269   4.538   4.974 -0.0255 -0.5471  0.4049
  599MOL0     O80760   3.403   4.570   4.976 -0.2680  0.2824 -0.2223
  599MOL0     C80761   3.492   4.569   4.870 -0.3466 -0.1285 -0.0107
  599MOL0     C80762   3.631   4.536   4.891  0.2912  0.2887 -0.0111
  599MOL0     C80763   3.717   4.539   4.787 -0.5038  1.0339  1.1089
  599MOL0     C80764   3.674   4.562   4.663  0.6807 -0.2398  0.8033
  599MOL0     O80765   3.759   4.584   4.561 -0.2469  0.6407  0.1659
  599MOL0     C80766   3.892   4.541   4.558 -0.1733 -0.4075 -0.6299
  599MOL0     C80767   3.961   4.547   4.426  1.0242  0.1920  0.4852
  599MOL0     C80768   4.003   4.690   4.411 -0.6691  0.6238 -0.0217
  599MOL0     C80769   3.994   4.724   4.258 -0.1179 -0.8692  0.0861
  599MOL0     C80770   3.851   4.733   4.208 -0.1692  0.5200  0.2062
  599MOL0     C80771   3.839   4.784   4.066  0.3933 -0.2757  1.0106
  599MOL0     C80772   3.886   4.684   3.956 -0.4854  0.2604 -0.0680
  599MOL0     C80773   3.818   4.680   3.812  0.0314  0.2643 -0.1304
  599MOL0    Cl80774   3.644   4.646   3.805  0.0560  0.5084  0.2829
  599MOL0     C80775   3.541   4.620   4.645 -0.7458  0.2137  0.0183
  599MOL0     C80776   3.454   4.625   4.747  0.1013 -1.2954  0.2482
  599MOL0     O80777   3.202   4.528   4.872  0.4322  0.6206 -0.7709
  599MOL0     C80778   3.082   4.544   5.144 -1.3056 -0.5154  0.7703
  599MOL0     C80779   3.049   4.559   5.279 -0.6972  0.5045  0.4050
  599MOL0     N80780   2.864   4.185   5.847  1.2081 -0.2339  0.2495
  599MOL0     N80781   2.753   4.124   5.810  0.2308  0.7982  0.4342
  599MOL0     C80782   1.823   4.144   6.678  0.3507  0.8821  0.0436
  599MOL0     C80783   1.765   4.144   6.804 -0.2297 -1.2901 -0.2282
  599MOL0     C80784   1.444   4.250   7.144 -0.4516  0.1442  0.3713
  599MOL0     C80785   1.502   4.351   7.211 -0.4931 -1.1996 -0.0926
  599MOL0     C80786   1.474   4.368   7.347 -0.2067 -0.9423  0.1586
  599MOL0     C80787   1.399   4.266   7.408  0.8548  0.5204 -0.8406
  599MOL0     O80788   1.371   4.291   7.546 -0.7689  0.3197 -0.5695
  599MOL0     C80789   1.381   4.170   7.624 -0.4708  0.6091 -0.6157
  599MOL0     C80790   1.456   4.208   7.743  0.3727 -0.3147 -0.1684
  599MOL0     C80791   1.519   4.092   7.816  0.3820 -0.0729  0.4656
  599MOL0     C80792   1.438   3.999   7.907  0.5265  0.6628  0.6268
  599MOL0     C80793   1.327   3.926   7.846  0.3222  0.0698  0.8878
  599MOL0     C80794   1.234   3.872   7.792 -0.3165 -0.5629 -0.5065
  599MOL0     C80795   1.344   4.163   7.336 -0.1611  0.7045 -0.0629
  599MOL0     C80796   1.355   4.151   7.200 -0.3858 -0.5652  0.3127
  599MOL0     C80797   1.298   4.028   7.133 -0.3786  0.6788 -0.4812
  599MOL0     H80798   1.514   4.363   6.728  1.3527  1.8650  0.1245
  599MOL0     H80799   1.610   4.337   6.501  2.8900 -0.4640 -1.7828
  599MOL0     H80800   1.704   4.293   6.288 -0.2979 -0.0514 -0.2363
  599MOL0     H80801   1.845   4.377   6.355  1.6766 -1.3748  1.5636
  599MOL0     H80802   1.873   4.339   6.130  1.8119 -1.9358 -1.8370
  599MOL0     H80803   1.830   4.170   6.150 -1.2620  0.4507 -1.0851
  599MOL0     H80804   2.055   4.151   6.275  1.0298  0.0641 -0.3887
  599MOL0     H80805   2.050   4.329   6.273  0.2030  1.4605 -2.7052
  599MOL0     H80806   2.036   4.141   6.032  0.2294 -1.2796  1.6993
  599MOL0     H80807   2.065   4.311   6.012 -0.2582  1.6005  1.2053
  599MOL0     H80808   2.283   4.303   6.104  0.4320 -0.0943 -1.0245
  599MOL0     H80809   2.270   4.129   6.165  0.9847  0.6337  1.3781
  599MOL0     H80810   2.272   4.052   5.942 -2.1096  0.9824 -2.0247
  599MOL0     H80811   2.258   4.208   5.870  0.9574 -1.2533 -1.7882
  599MOL0     H80812   2.504   4.066   5.955 -3.2481 -1.3460  0.4108
  599MOL0     H80813   2.503   4.243   6.006 -1.3168  0.6818 -0.0530
  599MOL0     H80814   2.485   4.111   5.733  1.5287  0.4231  0.5927
  599MOL0     H80815   2.453   4.286   5.763 -2.4683 -1.3352 -1.1325
  599MOL0     H80816   2.675   4.433   5.796  0.0750 -0.7391 -1.5720
  599MOL0     H80817   2.894   4.526   5.896  0.3146  1.6879 -2.0591
  599MOL0     H80818   3.007   4.409   5.967 -0.9537  1.1570  1.6687
  599MOL0     H80819   3.123   4.373   5.778 -0.5078  0.8892  2.0899
  599MOL0     H80820   2.989   4.421   5.666  0.9243 -0.8344 -0.3917
  599MOL0     H80821   3.181   4.580   5.839  0.1609  3.5285  0.0924
  599MOL0     H80822   3.044   4.657   5.752 -2.8148 -2.4030 -0.1572
  599MOL0     H80823   3.264   4.504   5.623 -0.4982 -0.4804 -0.6064
  599MOL0     H80824   3.235   4.683   5.624 -1.5481  0.4970  2.1335
  599MOL0     H80825   3.328   4.504   5.438 -1.9174 -2.1973  1.7937
  599MOL0     H80826   3.413   4.477   5.203 -0.5602  2.6043 -0.2457
  599MOL0     H80827   3.679   4.520   4.987  3.3647 -1.5295 -1.6951
  599MOL0     H80828   3.814   4.495   4.808 -0.3596 -0.1270 -1.5639
  599MOL0     H80829   3.953   4.596   4.630  2.1924  0.9237 -3.4416
  599MOL0     H80830   3.893   4.435   4.585  1.6962 -0.5497 -1.1149
  599MOL0     H80831   4.048   4.482   4.435  1.4220  0.9238  2.6686
  599MOL0     H80832   3.907   4.503   4.342 -0.1265 -1.7827  2.1409
  599MOL0     H80833   3.943   4.761   4.468 -1.1470  0.7743 -0.6942
  599MOL0     H80834   4.107   4.693   4.445 -0.3792 -2.1180 -0.4116
  599MOL0     H80835   4.062   4.651   4.214 -1.1799 -0.6663 -1.9947
  599MOL0     H80836   4.041   4.823   4.253  2.0202 -1.8245 -0.0886
  599MOL0     H80837   3.797   4.801   4.274  0.1965  1.2299 -0.2107
  599MOL0     H80838   3.807   4.633   4.214  0.1430  0.3706  0.0621
  599MOL0     H80839   3.733   4.802   4.050  0.1382 -0.7611  2.0385
  599MOL0     H80840   3.888   4.881   4.050 -2.9920  1.2230 -1.3705
  599MOL0     H80841   3.862   4.582   3.987 -1.1095 -0.5919 -3.0336
  599MOL0     H80842   3.995   4.684   3.950 -0.2493 -1.8142  2.4538
  599MOL0     H80843   3.840   4.779   3.771  2.2719 -0.6366 -1.2727
  599MOL0     H80844   3.873   4.609   3.749  1.0731 -2.7706  3.7768
  599MOL0     H80845   3.505   4.647   4.546  0.8453 -0.2331 -0.7282
  599MOL0     H80846   3.355   4.658   4.716 -0.8342 -2.3975  1.9294
  599MOL0     H80847   3.015   4.541   5.059  2.5849 -0.4453 -2.6377
  599MOL0     H80848   2.948   4.555   5.318 -0.5367 -0.2581  0.7535
  599MOL0     H80849   1.907   4.077   6.667  0.6341  1.2839 -0.2946
  599MOL0     H80850   1.807   4.079   6.880  0.4748 -0.1241  0.4085
  599MOL0     H80851   1.571   4.410   7.152 -1.3434 -1.0174 -0.9530
  599MOL0     H80852   1.526   4.438   7.412 -0.5475 -0.7015  0.1774
  599MOL0     H80853   1.433   4.089   7.573  0.0511 -0.5603  1.6853
  599MOL0     H80854   1.280   4.134   7.645 -0.6381  1.7715  0.7190
  599MOL0     H80855   1.396   4.266   7.813  1.9480  2.3481 -0.8757
  599MOL0     H80856   1.534   4.281   7.720 -2.1208  2.5165 -0.2428
  599MOL0     H80857   1.618   4.117   7.855  1.9797 -2.9163 -1.3845
  599MOL0     H80858   1.549   4.028   7.733 -0.7221 -1.4269  1.0757
  599MOL0     H80859   1.512   3.926   7.942  0.0276  1.0039  2.5562
  599MOL0     H80860   1.394   4.066   7.982  1.5211  0.9184  1.0027
  599MOL0     H80861   1.165   3.819   7.730 -5.2878  4.6952 -0.3062
  599MOL0     H80862   1.289   4.084   7.387 -1.5198  1.0914 -0.8674
  599MOL0     H80863   1.352   3.993   7.044 -1.8716  0.4551 -1.3195
  599MOL0     H80864   1.289   3.939   7.196 -2.1975  1.4759  0.4450
  599MOL0     H80865   1.194   4.046   7.106 -1.1221 -0.7829  1.1883
  600MOL0     O80866   1.370   8.921   2.539  0.6309 -0.7072  0.6995
  600MOL0     C80867   1.444   9.018   2.537 -0.6895 -0.7506 -0.1472
  600MOL0     O80868   1.583   9.016   2.526  0.2597 -0.4358  0.5241
  600MOL0     C80869   1.637   8.900   2.474 -0.7092 -0.1505 -0.4900
  600MOL0     C80870   1.698   8.802   2.556 -0.1299 -0.0921  0.1830
  600MOL0     C80871   1.745   8.673   2.495 -1.4484  0.1198  0.5876
  600MOL0     C80872   1.733   8.650   2.359 -0.5519 -0.3431 -0.1053
  600MOL0     O80873   1.763   8.537   2.289  0.0322 -0.0464 -0.0017
  600MOL0     C80874   1.789   8.420   2.370  0.9058 -0.2208  0.5750
  600MOL0     C80875   1.936   8.391   2.389  0.2382 -0.2722 -0.0199
  600MOL0     C80876   1.959   8.277   2.481 -2.0935 -0.4758 -0.0289
  600MOL0     C80877   2.091   8.203   2.444  0.1703 -0.3811 -0.0051
  600MOL0     C80878   2.227   8.281   2.463 -0.7652 -0.1088 -0.0875
  600MOL0     C80879   2.258   8.313   2.611  0.0827  0.3978 -0.3917
  600MOL0     C80880   2.377   8.418   2.609 -0.9707  0.1126 -0.0515
  600MOL0     C80881   2.512   8.353   2.586 -0.3511  0.1008  0.7535
  600MOL0     N80882   2.617   8.442   2.525  0.2249  0.8357 -0.2556
  600MOL0     C80883   2.712   8.405   2.430  1.0521 -0.0310 -0.1967
  600MOL0     C80884   2.802   8.503   2.433  0.1907 -0.5022  0.1428
  600MOL0     C80885   2.933   8.530   2.344 -0.2841  1.0402 -0.2820
  600MOL0     C80886   2.906   8.614   2.206 -0.5930  0.1563 -0.1976
  600MOL0     C80887   2.852   8.760   2.233 -0.0828 -0.6776 -0.6553
  600MOL0     C80888   2.937   8.850   2.323  0.1271  0.0524 -0.3131
  600MOL0     O80889   2.878   8.978   2.328 -0.2630  0.7758 -0.0107
  600MOL0     C80890   2.787   9.005   2.429 -0.4462 -1.1562 -0.0070
  600MOL0     C80891   2.763   8.935   2.550  0.5253  0.0899  0.2885
  600MOL0     C80892   2.656   8.990   2.638 -0.4892  0.1528  0.3649
  600MOL0     C80893   2.580   9.101   2.614 -0.8403 -0.7187  0.0132
  600MOL0     C80894   2.470   9.155   2.715  0.2722 -1.0310 -1.1194
  600MOL0     O80895   2.456   9.090   2.838  0.4821  0.7848 -0.5473
  600MOL0     C80896   2.378   9.150   2.929  0.1284  1.1414 -0.1679
  600MOL0     C80897   2.390   9.285   2.951  0.3244 -0.0129 -0.4411
  600MOL0     C80898   2.334   9.346   3.066  0.6960 -0.1704 -0.0640
  600MOL0     C80899   2.267   9.270   3.163  0.0869 -0.9732 -0.0253
  600MOL0     O80900   2.218   9.343   3.272  0.3336  0.1693  0.0065
  600MOL0     C80901   2.110   9.291   3.345 -0.1936  0.6643  0.0540
  600MOL0     C80902   2.063   9.374   3.454  0.1333 -0.1253  0.5690
  600MOL0     C80903   2.042   9.523   3.419  0.1737 -0.4766  0.0147
  600MOL0     C80904   1.950   9.555   3.297 -0.2202 -0.2798  0.7807
  600MOL0     C80905   1.933   9.703   3.297  0.9997 -0.0974  1.0154
  600MOL0     C80906   1.801   9.744   3.234  0.4457 -0.5808 -0.3417
  600MOL0     C80907   1.794   9.899   3.203  0.0156  0.4445  0.3231
  600MOL0     C80908   1.649   9.939   3.160 -0.6891 -0.0423 -0.5108
  600MOL0    Cl80909   1.624  10.121   3.171 -0.6310 -0.1640 -0.2816
  600MOL0     C80910   2.256   9.132   3.140  0.3312  0.0189  0.2862
  600MOL0     C80911   2.317   9.067   3.030 -0.4849  0.4230  0.5213
  600MOL0     O80912   2.407   9.254   2.678  0.4440  0.1998  0.2381
  600MOL0     C80913   2.607   9.170   2.489 -0.5508 -0.3829  0.9316
  600MOL0     C80914   2.713   9.123   2.406 -0.0792 -0.3818 -0.6476
  600MOL0     N80915   2.765   8.590   2.531  0.4469 -0.2703 -0.7338
  600MOL0     N80916   2.651   8.552   2.594  0.1130 -0.3716  0.3310
  600MOL0     C80917   1.671   8.753   2.285  0.3528  0.5651  0.4512
  600MOL0     C80918   1.626   8.871   2.341 -0.4462  0.3964  0.0720
  600MOL0     C80919   1.381   9.155   2.566 -0.0198  0.4388  0.4683
  600MOL0     C80920   1.241   9.151   2.572  0.0609  0.4171 -0.3265
  600MOL0     C80921   1.169   9.264   2.618 -0.1889 -0.2917  0.6701
  600MOL0     C80922   1.230   9.388   2.631  0.2801  0.2865 -0.7373
  600MOL0     O80923   1.170   9.507   2.669 -0.3103 -0.1957  0.4599
  600MOL0     C80924   1.027   9.500   2.664  0.5624 -1.3988  0.1282
  600MOL0     C80925   0.978   9.642   2.663 -0.1498 -1.0024  0.8110
  600MOL0     C80926   0.823   9.649   2.693  0.1228  0.2116 -0.1565
  600MOL0     C80927   0.765   9.780   2.647 -0.2436  1.4448  0.3119
  600MOL0     C80928   0.772   9.800   2.495  0.8700 -0.5354 -1.2524
  600MOL0     C80929   0.755   9.833   2.382 -0.3376 -0.3212 -0.5657
  600MOL0     C80930   1.367   9.401   2.612 -0.0769 -0.3176 -0.8311
  600MOL0     C80931   1.442   9.287   2.583 -0.8949  0.9794 -0.3171
  600MOL0     C80932   1.592   9.307   2.566  0.0122  0.0207 -0.0710
  600MOL0     H80933   1.709   8.819   2.663 -1.5735  2.3128  0.0188
  600MOL0     H80934   1.787   8.604   2.567  0.1792  1.6504  1.1833
  600MOL0     H80935   1.749   8.418   2.472  0.3904 -0.6299  0.3680
  600MOL0     H80936   1.748   8.335   2.316  2.1819  0.2119 -1.1553
  600MOL0     H80937   1.980   8.477   2.441 -1.1282  1.7256 -1.9516
  600MOL0     H80938   1.987   8.371   2.294  0.1898  0.0119 -0.1076
  600MOL0     H80939   1.879   8.204   2.468 -1.9849 -0.3971 -1.3367
  600MOL0     H80940   1.965   8.300   2.588  1.3265  0.1598 -0.2513
  600MOL0     H80941   2.084   8.114   2.507 -0.2565  0.5549  1.3273
  600MOL0     H80942   2.079   8.177   2.339 -4.7943 -1.4737  0.5696
  600MOL0     H80943   2.305   8.224   2.413 -0.3785  1.3430 -1.2130
  600MOL0     H80944   2.219   8.377   2.411 -0.0100  0.5250  0.9241
  600MOL0     H80945   2.169   8.360   2.654 -0.1873 -0.5147  0.0716
  600MOL0     H80946   2.270   8.221   2.669 -2.7569  0.0744 -0.1717
  600MOL0     H80947   2.391   8.462   2.708  0.3493  0.5643 -0.4186
  600MOL0     H80948   2.357   8.501   2.540 -2.1935 -0.2910 -0.2008
  600MOL0     H80949   2.558   8.304   2.673  0.3367 -0.9938 -0.2003
  600MOL0     H80950   2.491   8.275   2.512  1.0959  0.2691  0.1307
  600MOL0     H80951   2.710   8.315   2.370 -1.4303 -0.6462  0.7083
  600MOL0     H80952   2.998   8.566   2.425  0.3395  1.3465 -0.9091
  600MOL0     H80953   2.978   8.439   2.303  2.4263  2.5006 -0.7930
  600MOL0     H80954   2.996   8.621   2.145  2.2510  1.3398  3.7197
  600MOL0     H80955   2.819   8.573   2.155 -2.1522  1.9043  0.9231
  600MOL0     H80956   2.750   8.758   2.273  0.7098 -1.8289  1.4725
  600MOL0     H80957   2.835   8.803   2.134  3.3699 -2.2241 -2.0951
  600MOL0     H80958   3.039   8.869   2.287  0.7506  2.3312  2.2738
  600MOL0     H80959   2.947   8.814   2.426 -1.7692  3.0274  1.0583
  600MOL0     H80960   2.811   8.839   2.570 -0.1135 -0.4671 -0.7493
  600MOL0     H80961   2.636   8.935   2.729  1.7106  1.5856  1.7872
  600MOL0     H80962   2.460   9.340   2.889 -0.2669  0.8706 -0.3402
  600MOL0     H80963   2.332   9.455   3.075 -0.7701 -0.3184  2.5442
  600MOL0     H80964   2.031   9.283   3.271  1.7983 -0.7168 -2.0883
  600MOL0     H80965   2.125   9.187   3.377 -0.5491  0.8852  0.9493
  600MOL0     H80966   1.968   9.338   3.496 -2.1524  1.5312 -2.7836
  600MOL0     H80967   2.138   9.356   3.532 -0.6921 -3.0062  0.8222
  600MOL0     H80968   1.986   9.569   3.501  0.9630 -0.8247  0.7692
  600MOL0     H80969   2.137   9.577   3.420  0.3141 -0.7083 -0.4801
  600MOL0     H80970   1.854   9.508   3.320  1.4225 -2.1516  4.8096
  600MOL0     H80971   1.994   9.507   3.209  1.6821 -1.7857  2.4500
  600MOL0     H80972   2.009   9.759   3.241 -0.4357  1.2336  0.3330
  600MOL0     H80973   1.940   9.742   3.399 -2.0621 -0.1139  1.3139
  600MOL0     H80974   1.788   9.689   3.141  0.1436 -0.6547 -0.2572
  600MOL0     H80975   1.723   9.711   3.303  1.1086  1.0324  1.2639
  600MOL0     H80976   1.869   9.923   3.127  0.6020 -0.5287  0.5822
  600MOL0     H80977   1.812   9.953   3.296 -1.5669  0.4175  0.6785
  600MOL0     H80978   1.630   9.903   3.058 -3.2201 -1.8408  0.4982
  600MOL0     H80979   1.578   9.884   3.222 -0.6966 -0.0005 -0.4824
  600MOL0     H80980   2.203   9.078   3.218 -0.3538  0.8525  0.4130
  600MOL0     H80981   2.331   8.962   3.006  0.1101  0.8919 -1.3870
  600MOL0     H80982   2.539   9.252   2.468  0.6445  1.1005  2.5365
  600MOL0     H80983   2.720   9.176   2.311 -3.2165  0.2958 -0.6107
  600MOL0     H80984   1.655   8.742   2.178 -0.0026  2.0065  0.3409
  600MOL0     H80985   1.592   8.956   2.282  1.3402  1.5037  0.5472
  600MOL0     H80986   1.182   9.060   2.565  0.7354 -0.6492  4.5431
  600MOL0     H80987   1.061   9.255   2.615 -0.0848 -1.5953 -1.3628
  600MOL0     H80988   0.983   9.439   2.743 -0.2267  0.4624  1.1856
  600MOL0     H80989   1.001   9.453   2.569 -1.6217 -0.5341  0.2441
  600MOL0     H80990   1.007   9.677   2.564 -2.6828  2.6316  1.1688
  600MOL0     H80991   1.027   9.706   2.737 -0.7472  2.7244 -1.7757
  600MOL0     H80992   0.800   9.639   2.799 -2.2534  3.4278 -0.2063
  600MOL0     H80993   0.772   9.569   2.637  0.9350  0.7086 -1.6814
  600MOL0     H80994   0.658   9.783   2.673 -0.2960 -2.6170  1.3629
  600MOL0     H80995   0.818   9.867   2.687  1.7311  0.9988 -1.1938
  600MOL0     H80996   0.749   9.841   2.275  0.5921 -0.8523 -0.6707
  600MOL0     H80997   1.414   9.496   2.634 -1.2020  0.4089 -1.4653
  600MOL0     H80998   1.641   9.278   2.659  0.0010 -1.6659 -0.5566
  600MOL0     H80999   1.623   9.243   2.483 -0.6034 -1.1962  0.6247
  600MOL0     H81000   1.624   9.411   2.553  2.3031 -0.7272 -0.8625
  601MOL0     O81001  11.302   9.576   0.073  0.5955 -0.0146  0.5282
  601MOL0     C81002  11.324   9.648   0.163  0.8400 -0.9372  0.2622
  601MOL0     O81003  11.297   9.787   0.154 -0.3925 -0.6781  0.3155
  601MOL0     C81004  11.203   9.831   0.064  0.0613  0.6511  0.5568
  601MOL0     C81005  11.218   9.816  -0.077 -0.4964  0.4597 -0.0900
  601MOL0     C81006  11.116   9.825  -0.172 -0.6658 -0.7010 -0.6423
  601MOL0     C81007  10.985   9.860  -0.119 -0.2512 -0.0696 -0.7930
  601MOL0     O81008  10.870   9.869  -0.190  0.1188 -0.8415  0.6081
  601MOL0     C81009  10.876   9.898  -0.336 -1.2376  0.3286 -0.1695
  601MOL0     C81010  10.744   9.917  -0.398  0.0304  0.3910 -0.0111
  601MOL0     C81011  10.720   9.910  -0.548 -0.1914  0.1237 -1.0803
  601MOL0     C81012  10.577   9.966  -0.599  0.9801  0.6008 -0.3045
  601MOL0     C81013  10.566   9.963  -0.751 -0.3103 -0.4286  0.2024
  601MOL0     C81014  10.426   9.988  -0.783  0.2717  0.4273 -0.3166
  601MOL0     C81015  10.390   9.990  -0.932  0.3918  0.5449  0.3781
  601MOL0     C81016  10.241   9.977  -0.965 -0.2807 -0.6233 -0.1810
  601MOL0     N81017  10.210   9.918  -1.096 -0.3819  0.9098 -0.7763
  601MOL0     C81018  10.126   9.963  -1.183 -0.4894 -0.7967 -0.5605
  601MOL0     C81019  10.118   9.870  -1.278  0.1023  0.4562  0.0456
  601MOL0     C81020  10.050   9.868  -1.416  0.4046  0.8761  0.1356
  601MOL0     C81021   9.897   9.847  -1.396  0.0148 -0.2924  0.3810
  601MOL0     C81022   9.805   9.868  -1.519  0.7227  0.3373 -0.7688
  601MOL0     C81023   9.835  10.015  -1.581 -1.1498  0.2090 -0.3169
  601MOL0     O81024   9.907  10.012  -1.697 -0.7612 -0.4459  0.0281
  601MOL0     C81025   9.855   9.986  -1.822  0.9627 -0.2190 -1.6088
  601MOL0     C81026   9.722   9.945  -1.842  0.4084  1.4411 -0.7587
  601MOL0     C81027   9.679   9.922  -1.970 -0.4958  0.1597 -0.0979
  601MOL0     C81028   9.754   9.957  -2.083 -0.3138 -0.0315 -0.1838
  601MOL0     C81029   9.711   9.937  -2.216 -0.2819  0.8920  1.1149
  601MOL0     O81030   9.586   9.899  -2.232  0.0860  0.0602 -0.7040
  601MOL0     C81031   9.511   9.886  -2.349  0.0942 -0.3143 -0.1503
  601MOL0     C81032   9.452   9.999  -2.401 -0.4189 -0.3475  0.1650
  601MOL0     C81033   9.372  10.002  -2.512 -0.3981 -0.2336  0.8070
  601MOL0     C81034   9.334   9.883  -2.570 -0.1820 -0.0210  0.7465
  601MOL0     O81035   9.242   9.875  -2.674  0.6520  0.4315  0.3040
  601MOL0     C81036   9.203   9.996  -2.737  0.7101  0.0811  0.7128
  601MOL0     C81037   9.090  10.061  -2.649 -0.1565 -0.1784 -0.3876
  601MOL0     C81038   8.946  10.034  -2.691 -0.0597 -0.0743  0.0984
  601MOL0     C81039   8.842  10.110  -2.613 -0.3423 -0.6394 -0.9091
  601MOL0     C81040   8.702  10.124  -2.682 -0.0590  1.2805 -0.0771
  601MOL0     C81041   8.641   9.987  -2.722 -0.7243 -0.4937 -0.3564
  601MOL0     C81042   8.618   9.910  -2.591 -0.1101  0.3804  0.5711
  601MOL0     C81043   8.534   9.797  -2.616 -0.0805  0.1478  1.1391
  601MOL0    Cl81044   8.634   9.666  -2.693 -0.0954 -0.3665 -0.1487
  601MOL0     C81045   9.384   9.761  -2.520  0.2867  0.4351  0.1527
  601MOL0     C81046   9.479   9.766  -2.407  0.7510  0.6549 -0.1978
  601MOL0     O81047   9.792   9.934  -2.305 -0.0590 -0.1094  0.3388
  601MOL0     C81048   9.882  10.015  -2.056  0.7493 -0.1301 -0.4843
  601MOL0     C81049   9.936  10.027  -1.931  0.6093  0.3399 -0.2793
  601MOL0     N81050  10.193   9.766  -1.247 -0.6110  0.4060  0.1376
  601MOL0     N81051  10.257   9.797  -1.139 -1.1212 -0.0640  0.0095
  601MOL0     C81052  10.980   9.889   0.015  0.3895  0.2665 -0.4996
  601MOL0     C81053  11.082   9.883   0.112 -0.5635 -0.3043 -0.0600
  601MOL0     C81054  11.398   9.604   0.275 -0.2788  0.3415  0.0439
  601MOL0     C81055  11.425   9.699   0.375  0.0062 -1.0208  0.6208
  601MOL0     C81056  11.517   9.669   0.473  0.1388 -0.4118  0.3270
  601MOL0     C81057  11.592   9.549   0.464 -0.3901 -0.4243 -0.1870
  601MOL0     O81058  11.677   9.520   0.569 -0.5181  0.1038 -0.7934
  601MOL0     C81059  11.737   9.397   0.600 -0.0481 -0.5199 -0.0267
  601MOL0     C81060  11.821   9.406   0.731  1.0111  0.2793 -0.3428
  601MOL0     C81061  11.743   9.409   0.858  0.2714 -0.6441 -0.9301
  601MOL0     C81062  11.661   9.277   0.867  0.0806 -0.6454 -0.1813
  601MOL0     C81063  11.519   9.297   0.832 -0.3272 -0.1063  0.2399
  601MOL0     C81064  11.410   9.298   0.792  0.3952 -0.4574 -0.7190
  601MOL0     C81065  11.552   9.447   0.374 -0.4345 -0.4849 -0.6695
  601MOL0     C81066  11.460   9.472   0.275 -0.1938 -0.0438  0.2364
  601MOL0     C81067  11.427   9.352   0.194 -0.0488 -0.4404  0.5184
  601MOL0     H81068  11.307   9.782  -0.130 -0.8674 -0.7406  0.0379
  601MOL0     H81069  11.138   9.801  -0.276  2.7370  0.5879 -0.3493
  601MOL0     H81070  10.933   9.991  -0.344 -1.4872  0.5077  0.1223
  601MOL0     H81071  10.935   9.819  -0.383 -0.4599  0.5868  0.3414
  601MOL0     H81072  10.699  10.012  -0.368 -0.6708  0.4391 -1.1442
  601MOL0     H81073  10.679   9.849  -0.342  1.8302  0.0097  1.7241
  601MOL0     H81074  10.724   9.805  -0.579 -0.9708  0.1088 -1.1477
  601MOL0     H81075  10.807   9.965  -0.586  0.6021 -0.5274 -0.2664
  601MOL0     H81076  10.502   9.908  -0.545  0.9622  0.1532 -0.8091
  601MOL0     H81077  10.569  10.064  -0.550  0.1525  0.2393  0.3026
  601MOL0     H81078  10.632  10.044  -0.781  1.4638 -2.0938 -0.5823
  601MOL0     H81079  10.595   9.870  -0.800  0.2966  0.2602 -0.7732
  601MOL0     H81080  10.363   9.915  -0.730 -0.4529 -0.1498 -1.8882
  601MOL0     H81081  10.406  10.087  -0.741 -0.5069 -0.3020  1.1003
  601MOL0     H81082  10.434   9.908  -0.990  2.5877  3.0118 -1.7087
  601MOL0     H81083  10.421  10.087  -0.972 -0.6465  1.5871  1.9943
  601MOL0     H81084  10.206   9.894  -0.903 -2.0924  1.6241  1.9915
  601MOL0     H81085  10.191  10.074  -0.954 -1.9442 -1.3218 -1.0977
  601MOL0     H81086  10.076  10.059  -1.191  1.1463  0.0862 -0.4282
  601MOL0     H81087  10.068   9.966  -1.462 -1.7389  1.7793  1.1090
  601MOL0     H81088  10.107   9.792  -1.470  3.4220  2.4514  0.8419
  601MOL0     H81089   9.889   9.748  -1.349  3.4270  0.4277  2.8517
  601MOL0     H81090   9.866   9.908  -1.311 -0.0681  0.5395 -0.2358
  601MOL0     H81091   9.702   9.862  -1.483  0.7286 -0.4932 -0.8544
  601MOL0     H81092   9.834   9.795  -1.596 -0.5036 -0.6381 -0.3315
  601MOL0     H81093   9.881  10.065  -1.496 -0.2180 -1.7546  0.4086
  601MOL0     H81094   9.742  10.061  -1.614 -1.4622 -1.2639 -1.6044
  601MOL0     H81095   9.651   9.940  -1.760 -0.1548  4.4593 -0.9415
  601MOL0     H81096   9.575   9.894  -1.976 -1.8302  4.1034  1.3660
  601MOL0     H81097   9.477  10.098  -2.364  0.5625 -0.1964 -0.8470
  601MOL0     H81098   9.332  10.096  -2.548 -1.4653 -1.3739 -1.1259
  601MOL0     H81099   9.293  10.057  -2.747  0.3436  0.3373 -1.4887
  601MOL0     H81100   9.158   9.973  -2.834 -1.8490 -1.6798  2.1969
  601MOL0     H81101   9.099  10.043  -2.541  0.3412  3.6602  0.3323
  601MOL0     H81102   9.108  10.168  -2.661  3.1370 -0.2425  2.5471
  601MOL0     H81103   8.925  10.058  -2.796 -2.4248  1.0301  0.7604
  601MOL0     H81104   8.937   9.926  -2.677 -2.4892  0.1002  0.3017
  601MOL0     H81105   8.878  10.208  -2.579  0.9634 -1.7011  0.9718
  601MOL0     H81106   8.837  10.062  -2.514 -2.4745  0.4751 -0.3888
  601MOL0     H81107   8.718  10.186  -2.771  3.0113  1.2460  0.3397
  601MOL0     H81108   8.640  10.185  -2.616  0.5187  0.4144  1.3257
  601MOL0     H81109   8.545  10.002  -2.772 -1.3479 -0.5477  0.7978
  601MOL0     H81110   8.713   9.933  -2.784  0.3021  0.7308 -0.2923
  601MOL0     H81111   8.561   9.984  -2.534 -1.4035 -0.2186  0.0940
  601MOL0     H81112   8.711   9.889  -2.538  0.6442  0.9517 -0.4973
  601MOL0     H81113   8.494   9.744  -2.530  1.0714 -0.9800  1.0184
  601MOL0     H81114   8.445   9.810  -2.679 -1.3928 -3.0878  2.1155
  601MOL0     H81115   9.363   9.669  -2.575  1.3707  1.1412 -1.5116
  601MOL0     H81116   9.522   9.672  -2.374 -2.6367 -1.5835 -1.5962
  601MOL0     H81117   9.929  10.047  -2.148 -0.6117  1.9830 -0.4915
  601MOL0     H81118  10.037  10.060  -1.908  1.0648 -0.4159 -1.1384
  601MOL0     H81119  10.878   9.915   0.041  0.6326 -1.2220  2.2935
  601MOL0     H81120  11.072   9.884   0.220 -0.8985 -0.4997 -0.0898
  601MOL0     H81121  11.385   9.799   0.360  0.4669 -1.1882 -2.3113
  601MOL0     H81122  11.541   9.748   0.543  0.5043  0.0193 -0.2703
  601MOL0     H81123  11.812   9.374   0.523  1.7779 -3.2788  2.3382
  601MOL0     H81124  11.654   9.326   0.602 -1.1402  0.6492 -1.5554
  601MOL0     H81125  11.871   9.503   0.731  2.0182 -0.2126  0.5714
  601MOL0     H81126  11.894   9.324   0.725  1.7201  0.5746  2.7161
  601MOL0     H81127  11.682   9.499   0.865  1.8425  0.3290  2.4409
  601MOL0     H81128  11.813   9.407   0.942 -2.4192  0.6036  1.5124
  601MOL0     H81129  11.715   9.202   0.807  2.9689 -0.4698  2.0025
  601MOL0     H81130  11.667   9.235   0.968 -1.1585 -0.5228 -0.0337
  601MOL0     H81131  11.311   9.295   0.750  0.5137 -1.7766 -0.9542
  601MOL0     H81132  11.603   9.352   0.384 -1.6591 -0.9480  2.8117
  601MOL0     H81133  11.401   9.378   0.092 -0.6859 -2.8116  0.0141
  601MOL0     H81134  11.513   9.285   0.185  0.3215 -0.0760  1.2070
  601MOL0     H81135  11.342   9.291   0.225  0.6493 -3.8432 -3.3400
  602MOL0     O81136   8.480   1.309   4.481 -0.3200  0.2418 -0.7411
  602MOL0     C81137   8.398   1.400   4.486 -0.3163  0.5220  0.0367
  602MOL0     O81138   8.430   1.531   4.460 -0.9421 -0.0853  0.2243
  602MOL0     C81139   8.566   1.560   4.430  0.2101  0.1415  1.0550
  602MOL0     C81140   8.607   1.578   4.305  0.2583  0.0022  0.1657
  602MOL0     C81141   8.717   1.651   4.270 -0.1194 -0.8108  0.0868
  602MOL0     C81142   8.798   1.711   4.369 -0.5988 -0.5406  0.3981
  602MOL0     O81143   8.911   1.791   4.332  0.6122  0.5308 -0.1156
  602MOL0     C81144   8.981   1.865   4.431 -0.1817  0.3874 -0.4284
  602MOL0     C81145   9.088   1.940   4.347 -1.2571 -0.1171  0.6285
  602MOL0     C81146   9.171   2.025   4.440  0.3878 -1.2791  0.7475
  602MOL0     C81147   9.311   2.056   4.376  0.2436 -0.1580  0.7559
  602MOL0     C81148   9.408   2.149   4.453  0.8208  0.2693  0.2694
  602MOL0     C81149   9.513   2.211   4.360  0.7943 -0.1811 -1.0908
  602MOL0     C81150   9.579   2.334   4.433  0.4658 -0.3103  0.0428
  602MOL0     C81151   9.688   2.391   4.343  1.0228  0.8745  0.3918
  602MOL0     N81152   9.737   2.514   4.392  0.4134  0.1677 -0.4034
  602MOL0     C81153   9.812   2.524   4.509 -0.4486 -0.2661  0.9507
  602MOL0     C81154   9.878   2.646   4.487 -0.0488  0.1845 -0.2454
  602MOL0     C81155   9.964   2.690   4.598  0.0126  0.7551  0.0386
  602MOL0     C81156   9.891   2.744   4.722 -0.1515  0.0479  0.0306
  602MOL0     C81157  10.003   2.791   4.819 -0.2945  0.2671  0.1549
  602MOL0     C81158   9.956   2.870   4.944  0.4333  0.1761  0.0481
  602MOL0     O81159   9.915   3.002   4.905 -0.3168  0.1259 -0.2029
  602MOL0     C81160  10.003   3.086   4.855 -0.8483  0.1480  0.2661
  602MOL0     C81161  10.125   3.113   4.921 -0.4618 -0.0741  0.2290
  602MOL0     C81162  10.215   3.202   4.863  0.5006 -0.0489 -0.7815
  602MOL0     C81163  10.196   3.250   4.735  0.3435  0.3765 -0.1316
  602MOL0     C81164  10.295   3.340   4.665 -0.0379 -0.2585 -0.4182
  602MOL0     O81165  10.408   3.368   4.745 -1.8592  0.0809  1.0220
  602MOL0     C81166  10.520   3.412   4.676 -0.6269  0.6073  0.3376
  602MOL0     C81167  10.640   3.336   4.670 -0.4979 -0.1625  0.4660
  602MOL0     C81168  10.751   3.390   4.604  0.8025 -0.2892 -0.4425
  602MOL0     C81169  10.746   3.505   4.536 -0.2991 -0.3318  0.3560
  602MOL0     O81170  10.864   3.538   4.475 -0.3739  0.1890  0.1415
  602MOL0     C81171  10.878   3.660   4.399  0.1371 -0.5338 -0.5236
  602MOL0     C81172  10.804   3.668   4.267  0.2650 -0.1003 -0.1776
  602MOL0     C81173  10.835   3.804   4.197 -1.1853  0.2292 -0.1980
  602MOL0     C81174  10.778   3.808   4.056  0.2613 -0.5890  0.1140
  602MOL0     C81175  10.774   3.954   3.998  0.2967  0.3907 -0.5626
  602MOL0     C81176  10.700   4.051   4.088 -0.6901 -0.4205 -0.9244
  602MOL0     C81177  10.690   4.196   4.032  0.9323 -0.3502  0.4458
  602MOL0     C81178  10.603   4.274   4.125 -0.1167  0.5009  1.1154
  602MOL0    Cl81179  10.627   4.449   4.072  0.7248  0.2030 -0.1498
  602MOL0     C81180  10.625   3.583   4.529 -0.8798  0.4630 -0.5756
  602MOL0     C81181  10.514   3.534   4.598  0.0354  0.0586 -1.1861
  602MOL0     O81182  10.274   3.390   4.559  0.3641 -0.2103  0.2516
  602MOL0     C81183  10.079   3.218   4.669 -0.5026 -0.0489  0.0341
  602MOL0     C81184   9.979   3.141   4.727 -0.6725 -0.0171 -0.0832
  602MOL0     N81185   9.846   2.701   4.367 -0.4813  0.2781  0.0796
  602MOL0     N81186   9.758   2.622   4.310 -0.6122 -0.0942 -0.4323
  602MOL0     C81187   8.754   1.707   4.505 -0.0470  0.3308  0.7197
  602MOL0     C81188   8.642   1.629   4.526  0.3647 -0.9350 -0.9512
  602MOL0     C81189   8.259   1.360   4.512 -0.2636 -0.3403  1.3175
  602MOL0     C81190   8.160   1.455   4.488  0.9544 -0.1009  0.9033
  602MOL0     C81191   8.028   1.419   4.520 -0.5366 -0.0774 -0.6929
  602MOL0     C81192   7.997   1.298   4.578 -0.8410 -0.0250 -0.1163
  602MOL0     O81193   7.867   1.272   4.614  0.0534  0.2053 -0.0334
  602MOL0     C81194   7.834   1.255   4.750  0.1166  0.6615  0.1517
  602MOL0     C81195   7.754   1.120   4.767  0.1176 -1.0126  0.9800
  602MOL0     C81196   7.721   1.075   4.913 -0.5184  0.6578  0.2494
  602MOL0     C81197   7.828   1.101   5.016  0.4176 -0.8456 -0.7692
  602MOL0     C81198   7.951   1.036   4.979 -0.7530 -1.0351  0.5662
  602MOL0     C81199   8.051   0.979   4.954 -0.4162  0.4278 -0.0407
  602MOL0     C81200   8.100   1.208   4.601 -1.0757  0.1786  0.2984
  602MOL0     C81201   8.230   1.231   4.559 -0.2318  0.3066  0.2095
  602MOL0     C81202   8.317   1.108   4.587 -0.4787 -0.9505  0.4838
  602MOL0     H81203   8.538   1.529   4.236  0.2611  1.0343 -0.5873
  602MOL0     H81204   8.739   1.679   4.168 -1.1332  1.2441  0.3865
  602MOL0     H81205   8.921   1.934   4.491  0.6250  0.5466  0.2071
  602MOL0     H81206   9.029   1.802   4.506 -1.7655  1.4345  1.5611
  602MOL0     H81207   9.053   2.005   4.266 -2.0005  0.4912  1.4141
  602MOL0     H81208   9.165   1.874   4.307  0.5209  1.1241  1.8944
  602MOL0     H81209   9.182   1.983   4.541 -2.6108 -0.7922  1.3694
  602MOL0     H81210   9.115   2.119   4.446  0.6004 -1.1269  0.3858
  602MOL0     H81211   9.354   1.956   4.364 -3.1254 -1.8153  1.2337
  602MOL0     H81212   9.295   2.101   4.277  2.5338  1.7989  1.1940
  602MOL0     H81213   9.345   2.225   4.501 -1.2451 -2.3198  1.9389
  602MOL0     H81214   9.464   2.101   4.534  1.8220  3.4640  1.6560
  602MOL0     H81215   9.586   2.142   4.318  0.4932 -1.2522  0.0943
  602MOL0     H81216   9.447   2.251   4.282  0.5389 -1.2828 -1.4534
  602MOL0     H81217   9.618   2.301   4.529  1.2255  0.4871  0.0222
  602MOL0     H81218   9.498   2.406   4.449 -1.5457 -2.4668 -0.0254
  602MOL0     H81219   9.767   2.316   4.355  0.3764 -0.0392 -0.7836
  602MOL0     H81220   9.662   2.404   4.238  2.1589  0.3121  0.0187
  602MOL0     H81221   9.820   2.447   4.585 -0.5613 -0.7359  0.4830
  602MOL0     H81222  10.034   2.615   4.635 -1.2211  0.9669  3.0832
  602MOL0     H81223  10.027   2.771   4.560 -0.5247  1.3765  0.4449
  602MOL0     H81224   9.822   2.826   4.699 -1.5863 -0.2913  2.7256
  602MOL0     H81225   9.838   2.663   4.773  0.9230 -0.7149 -0.0284
  602MOL0     H81226  10.079   2.851   4.768  5.1655 -3.9734  2.2826
  602MOL0     H81227  10.039   2.695   4.857  0.2485 -0.2671 -1.6556
  602MOL0     H81228  10.033   2.874   5.022 -0.2334  0.5401  0.7014
  602MOL0     H81229   9.874   2.828   5.002  0.5432  0.1651  0.1963
  602MOL0     H81230  10.159   3.079   5.018  0.8473  1.0753  0.2038
  602MOL0     H81231  10.303   3.224   4.923  0.1620 -0.8935  0.0523
  602MOL0     H81232  10.652   3.239   4.717 -0.6230  0.7593  2.5199
  602MOL0     H81233  10.846   3.338   4.610  1.3313  0.7546  0.4730
  602MOL0     H81234  10.851   3.748   4.458  0.7072  1.1292 -2.6145
  602MOL0     H81235  10.985   3.682   4.388 -0.3421  1.1547 -2.2164
  602MOL0     H81236  10.847   3.581   4.216 -0.5942 -1.0182  0.6312
  602MOL0     H81237  10.697   3.653   4.285  0.8055 -1.0124  2.6978
  602MOL0     H81238  10.791   3.881   4.261 -0.0909 -0.5010  1.5394
  602MOL0     H81239  10.938   3.840   4.188 -0.6681 -0.7586  1.3178
  602MOL0     H81240  10.682   3.760   4.040 -1.0245  1.9604 -0.2726
  602MOL0     H81241  10.852   3.762   3.990  1.0721  2.1002 -0.9930
  602MOL0     H81242  10.730   3.961   3.898  1.6178 -4.1010 -1.6865
  602MOL0     H81243  10.874   3.995   3.984 -0.0303  1.9764  1.3021
  602MOL0     H81244  10.600   4.020   4.121 -0.8854  2.9179  2.1268
  602MOL0     H81245  10.751   4.071   4.182 -2.7495 -1.2269  0.4262
  602MOL0     H81246  10.647   4.192   3.932 -0.8374 -2.1808  1.2129
  602MOL0     H81247  10.789   4.243   4.028 -0.9466  4.0440 -0.2034
  602MOL0     H81248  10.504   4.229   4.128  1.1989 -2.6057  1.4491
  602MOL0     H81249  10.644   4.262   4.226  1.3173  2.0846  0.7846
  602MOL0     H81250  10.610   3.670   4.466 -2.2889  1.2905  0.8367
  602MOL0     H81251  10.422   3.591   4.591  0.3807  0.9764  0.9697
  602MOL0     H81252  10.066   3.254   4.567  0.0167  1.2196  0.3837
  602MOL0     H81253   9.880   3.118   4.689 -0.8822  1.2069 -0.3024
  602MOL0     H81254   8.809   1.760   4.582  2.6610 -2.0151  0.5736
  602MOL0     H81255   8.604   1.624   4.628  1.4680 -5.5889 -0.5483
  602MOL0     H81256   8.185   1.556   4.455  1.8967 -0.9426 -1.1146
  602MOL0     H81257   7.933   1.470   4.508 -0.0743  0.9711 -0.0444
  602MOL0     H81258   7.778   1.338   4.792  0.0200  1.7203 -1.9319
  602MOL0     H81259   7.927   1.248   4.807  1.2842 -1.6862 -1.8372
  602MOL0     H81260   7.819   1.045   4.720  1.0733  1.2811 -1.6085
  602MOL0     H81261   7.665   1.131   4.705 -0.1993 -0.3672  1.5496
  602MOL0     H81262   7.705   0.967   4.908  0.8956  0.4292  0.2097
  602MOL0     H81263   7.636   1.135   4.948  0.1214  1.6938  0.0692
  602MOL0     H81264   7.825   1.209   5.028  0.3382 -0.7639 -1.4575
  602MOL0     H81265   7.796   1.054   5.110 -0.5308  1.3525  0.0621
  602MOL0     H81266   8.141   0.924   4.934  0.9097  2.1304  1.0072
  602MOL0     H81267   8.066   1.113   4.640 -3.5547  0.5038 -0.9208
  602MOL0     H81268   8.418   1.110   4.544  0.0990  0.1184  1.8317
  602MOL0     H81269   8.324   1.094   4.695 -1.2968 -1.0869  0.5228
  602MOL0     H81270   8.264   1.031   4.531 -3.5962  1.7811 -0.6114
  603MOL0     O81271   6.575   2.916   5.788  0.4304  1.0690  0.3871
  603MOL0     C81272   6.475   2.843   5.768  0.5146 -0.0298 -0.7475
  603MOL0     O81273   6.349   2.895   5.768  0.3183 -0.0905 -0.8508
  603MOL0     C81274   6.311   3.026   5.783 -0.6451  0.9769  0.2399
  603MOL0     C81275   6.171   3.053   5.774  0.0685  0.4676  0.7485
  603MOL0     C81276   6.118   3.182   5.791  0.6038 -0.0400 -0.1568
  603MOL0     C81277   6.208   3.281   5.831  0.8910  0.6729 -0.2906
  603MOL0     O81278   6.145   3.405   5.859  0.1862  0.4942  0.7122
  603MOL0     C81279   6.065   3.406   5.984  0.4517  0.2476  0.4699
  603MOL0     C81280   5.921   3.435   5.958 -1.2927 -0.5561  0.3503
  603MOL0     C81281   5.905   3.555   5.865 -0.3847 -1.0473 -0.3970
  603MOL0     C81282   5.768   3.608   5.834  0.4237 -0.0105  0.4522
  603MOL0     C81283   5.759   3.759   5.781 -0.6117  0.2997 -0.9387
  603MOL0     C81284   5.631   3.821   5.819  0.1993  0.9031  0.2304
  603MOL0     C81285   5.571   3.906   5.713 -0.2676  0.5136  0.4477
  603MOL0     C81286   5.445   3.958   5.785 -0.5887  0.1881 -0.9900
  603MOL0     N81287   5.376   4.063   5.707  0.4690  0.7592 -1.0667
  603MOL0     C81288   5.274   4.035   5.624 -0.6515 -0.0346 -0.9290
  603MOL0     C81289   5.270   4.149   5.555 -0.7252 -0.1021  0.4136
  603MOL0     C81290   5.174   4.189   5.450  0.2536  0.0456 -0.3124
  603MOL0     C81291   5.098   4.314   5.467 -0.5449 -0.1513  0.4436
  603MOL0     C81292   5.005   4.359   5.356 -0.7828  0.3546  0.2297
  603MOL0     C81293   4.900   4.260   5.308  0.1214  1.1951 -0.2068
  603MOL0     O81294   4.792   4.243   5.405 -0.1710  0.3878 -0.0027
  603MOL0     C81295   4.723   4.128   5.365  0.0848 -0.7067 -0.0033
  603MOL0     C81296   4.607   4.110   5.440 -0.3060  0.5210 -0.0809
  603MOL0     C81297   4.537   3.986   5.430  0.8646  0.7114  0.2566
  603MOL0     C81298   4.570   3.898   5.332 -0.2976  0.0168  0.7190
  603MOL0     C81299   4.496   3.776   5.305 -0.1831 -0.5386 -0.0976
  603MOL0     O81300   4.384   3.759   5.379 -0.4103 -0.3667 -0.4433
  603MOL0     C81301   4.325   3.631   5.381  0.7193 -0.1176  0.2591
  603MOL0     C81302   4.189   3.611   5.352 -0.7718 -0.3186 -0.6633
  603MOL0     C81303   4.138   3.484   5.389  0.0270 -0.3488  0.0307
  603MOL0     C81304   4.225   3.379   5.422 -0.8479  0.2852  0.5700
  603MOL0     O81305   4.175   3.258   5.458 -0.4077 -0.3077  0.1218
  603MOL0     C81306   4.076   3.188   5.380  0.1669  0.4237  0.5000
  603MOL0     C81307   3.949   3.195   5.453  0.4327 -0.2022 -0.2023
  603MOL0     C81308   3.836   3.103   5.390 -0.4164 -0.7594  0.5353
  603MOL0     C81309   3.699   3.164   5.430  0.0327  0.5578 -0.0729
  603MOL0     C81310   3.578   3.086   5.365 -0.6774 -0.7426 -0.3781
  603MOL0     C81311   3.480   3.053   5.472  0.2813  0.0595  0.8133
  603MOL0     C81312   3.376   2.960   5.415 -0.5339 -0.1052 -0.5271
  603MOL0     C81313   3.295   2.885   5.532 -0.4221  0.0007 -0.3753
  603MOL0    Cl81314   3.226   2.988   5.658  0.5528 -0.1479  0.1841
  603MOL0     C81315   4.360   3.389   5.434 -0.0981  0.7161  0.0454
  603MOL0     C81316   4.405   3.520   5.407 -0.0744  0.2048  0.0256
  603MOL0     O81317   4.536   3.695   5.227 -0.2178 -0.1042  0.5939
  603MOL0     C81318   4.667   3.929   5.245 -0.7655 -0.3714 -0.0261
  603MOL0     C81319   4.741   4.044   5.256  0.4344  0.9125  0.6731
  603MOL0     N81320   5.369   4.240   5.588 -1.0860 -0.3847  0.3283
  603MOL0     N81321   5.433   4.182   5.682 -0.3895 -0.1647  0.0795
  603MOL0     C81322   6.348   3.263   5.838  0.3545  0.6261 -0.6730
  603MOL0     C81323   6.392   3.134   5.803 -0.0386  0.0932  0.1189
  603MOL0     C81324   6.497   2.692   5.739  0.2650  0.2291 -0.7079
  603MOL0     C81325   6.386   2.629   5.676  0.2819 -0.6579 -0.5074
  603MOL0     C81326   6.409   2.494   5.626  0.1676  0.5031  0.7266
  603MOL0     C81327   6.533   2.431   5.636  0.4370  0.7169 -0.4440
  603MOL0     O81328   6.525   2.301   5.598 -1.1634  0.2403  0.0498
  603MOL0     C81329   6.614   2.206   5.657 -0.4250 -0.3821 -0.0797
  603MOL0     C81330   6.539   2.068   5.674 -0.0807 -0.7284  0.2132
  603MOL0     C81331   6.478   2.052   5.814  0.0831  0.3093  0.7383
  603MOL0     C81332   6.368   1.942   5.833  0.0678  0.0495 -0.5739
  603MOL0     C81333   6.406   1.804   5.819 -1.2697 -0.1103  0.3889
  603MOL0     C81334   6.442   1.688   5.823  0.4247  0.5605 -0.4988
  603MOL0     C81335   6.639   2.494   5.692 -0.1586 -0.1628 -0.7260
  603MOL0     C81336   6.625   2.622   5.746  0.1609 -0.2826  0.9443
  603MOL0     C81337   6.751   2.679   5.801  0.2187  0.5402  0.0931
  603MOL0     H81338   6.111   2.964   5.757  2.5189 -0.9827 -1.1586
  603MOL0     H81339   6.013   3.206   5.802  1.1700  1.7286  2.3633
  603MOL0     H81340   6.081   3.312   6.037  1.9292  0.1297 -0.1267
  603MOL0     H81341   6.108   3.488   6.043 -0.2791 -0.4470  2.0234
  603MOL0     H81342   5.876   3.453   6.056  1.2959 -0.5110  1.6134
  603MOL0     H81343   5.881   3.352   5.899  0.0733 -0.5824 -0.5956
  603MOL0     H81344   5.961   3.532   5.773 -0.2756 -0.8985 -0.3673
  603MOL0     H81345   5.962   3.638   5.906  0.8952 -1.3407 -1.4998
  603MOL0     H81346   5.731   3.529   5.767 -0.5536 -0.1826  1.1610
  603MOL0     H81347   5.702   3.605   5.921 -2.0181  1.7788 -1.2105
  603MOL0     H81348   5.845   3.819   5.814 -0.1849 -0.0386 -1.4234
  603MOL0     H81349   5.762   3.760   5.672  0.9888  4.3411 -1.0168
  603MOL0     H81350   5.554   3.745   5.832  1.3365 -0.9698 -3.0400
  603MOL0     H81351   5.647   3.873   5.915  1.5015 -1.3370  1.3101
  603MOL0     H81352   5.530   3.847   5.630 -2.5160  2.9293 -0.2844
  603MOL0     H81353   5.647   3.977   5.680  1.5654  1.3773  5.6624
  603MOL0     H81354   5.376   3.875   5.802  2.1281 -1.4081  5.5331
  603MOL0     H81355   5.468   4.005   5.881  0.3656 -1.4242 -0.3900
  603MOL0     H81356   5.215   3.945   5.611 -3.2141  1.3474  0.3663
  603MOL0     H81357   5.229   4.180   5.356  2.2258 -3.9139  0.9847
  603MOL0     H81358   5.096   4.113   5.444  0.3847  0.0194 -2.4294
  603MOL0     H81359   5.056   4.310   5.568 -0.0456 -0.2686  0.6499
  603MOL0     H81360   5.168   4.397   5.471 -1.3044  0.4930  0.6786
  603MOL0     H81361   5.070   4.385   5.272 -0.8800  0.6663  0.2493
  603MOL0     H81362   4.964   4.451   5.399  1.9533  2.1207 -0.6386
  603MOL0     H81363   4.956   4.167   5.297 -0.2558  1.1750 -2.3131
  603MOL0     H81364   4.865   4.306   5.215 -0.4259 -0.5021 -0.8744
  603MOL0     H81365   4.568   4.172   5.520 -0.5929  3.8498 -2.5746
  603MOL0     H81366   4.458   3.962   5.501  2.7237 -2.2292  1.5562
  603MOL0     H81367   4.137   3.701   5.321  0.2119  0.9813  1.2653
  603MOL0     H81368   4.033   3.462   5.371 -0.3334  2.7476 -2.5147
  603MOL0     H81369   4.055   3.233   5.283 -0.3904 -2.1854 -0.6836
  603MOL0     H81370   4.102   3.082   5.372 -0.5856 -0.1691  4.0914
  603MOL0     H81371   3.981   3.152   5.548  1.7690  0.9150 -0.1192
  603MOL0     H81372   3.909   3.295   5.472  0.2180 -0.0245 -1.4764
  603MOL0     H81373   3.842   3.090   5.282  3.1708  0.8650  0.4053
  603MOL0     H81374   3.841   3.001   5.431  2.9458 -1.9204 -2.2996
  603MOL0     H81375   3.708   3.261   5.379  1.2489  0.0493 -0.8633
  603MOL0     H81376   3.695   3.180   5.538 -4.3266 -2.4130  0.4834
  603MOL0     H81377   3.621   2.990   5.335 -0.3999 -1.7950  2.9284
  603MOL0     H81378   3.527   3.143   5.287  0.9277  0.6880 -0.4516
  603MOL0     H81379   3.529   2.991   5.547 -1.4455 -1.6284  0.6054
  603MOL0     H81380   3.445   3.150   5.509  2.6891  3.0231 -3.6805
  603MOL0     H81381   3.420   2.877   5.360  1.4905 -0.4404  1.4147
  603MOL0     H81382   3.308   3.021   5.356  1.8585  6.8009  2.6819
  603MOL0     H81383   3.215   2.819   5.497 -1.4870 -1.5184  4.1569
  603MOL0     H81384   3.355   2.806   5.578 -1.8330 -1.1953 -0.5302
  603MOL0     H81385   4.427   3.310   5.467 -2.6623 -2.4725 -1.7322
  603MOL0     H81386   4.510   3.548   5.412 -1.0694  5.0181 -0.9568
  603MOL0     H81387   4.698   3.881   5.152  1.7386  1.8342 -0.4494
  603MOL0     H81388   4.810   4.047   5.172 -0.9838 -2.2674 -0.7827
  603MOL0     H81389   6.409   3.344   5.877  1.0854  0.5824 -1.7075
  603MOL0     H81390   6.499   3.118   5.797  0.1352  1.4771 -0.9768
  603MOL0     H81391   6.285   2.668   5.663 -0.0415 -0.2239  2.6321
  603MOL0     H81392   6.327   2.437   5.584  1.6377 -1.2785  0.1656
  603MOL0     H81393   6.640   2.235   5.759 -0.1332 -0.3241 -0.1681
  603MOL0     H81394   6.703   2.185   5.597 -1.3985 -1.7209 -1.1122
  603MOL0     H81395   6.613   1.991   5.654  2.0924  1.9426 -3.3050
  603MOL0     H81396   6.470   2.061   5.589  0.3677 -2.2333 -0.0642
  603MOL0     H81397   6.439   2.149   5.844 -0.7766 -0.0568  0.8417
  603MOL0     H81398   6.567   2.031   5.874  2.4190  1.6154 -1.9817
  603MOL0     H81399   6.317   1.942   5.930 -0.9967  0.3508 -1.1155
  603MOL0     H81400   6.302   1.980   5.755  2.4108  4.9560 -0.5561
  603MOL0     H81401   6.472   1.586   5.805 -2.2083  0.2288 -4.3035
  603MOL0     H81402   6.736   2.446   5.690 -1.2694 -2.5336 -1.1353
  603MOL0     H81403   6.838   2.616   5.781  1.0698  1.1742  1.6705
  603MOL0     H81404   6.767   2.781   5.766  1.1871  0.5988  0.6843
  603MOL0     H81405   6.747   2.696   5.909  1.9604  0.4816  0.1930
  604MOL0     O81406   5.328   0.565   2.133  0.2850  0.6172 -0.8560
  604MOL0     C81407   5.350   0.541   2.019 -0.1659 -0.8056 -0.1014
  604MOL0     O81408   5.261   0.489   1.935 -0.4684 -0.3061  0.0911
  604MOL0     C81409   5.123   0.483   1.951  0.2154 -0.4129  1.0275
  604MOL0     C81410   5.053   0.604   1.969  0.4078 -0.3246  0.0651
  604MOL0     C81411   4.909   0.600   1.969 -0.0016  0.3404  0.7348
  604MOL0     C81412   4.843   0.478   1.955 -0.0583 -0.2475 -0.0146
  604MOL0     O81413   4.703   0.477   1.959  0.6568  0.6015 -0.2214
  604MOL0     C81414   4.630   0.352   1.938 -1.0882 -0.6108  0.3653
  604MOL0     C81415   4.498   0.376   1.879  0.6716 -0.7188 -0.0063
  604MOL0     C81416   4.405   0.402   1.995  0.1687 -0.3516  0.2733
  604MOL0     C81417   4.274   0.464   1.942 -0.5574 -0.7134 -0.2780
  604MOL0     C81418   4.175   0.488   2.059 -0.5257 -1.2592  0.9269
  604MOL0     C81419   4.126   0.349   2.112  0.7375 -0.8309 -0.6518
  604MOL0     C81420   4.026   0.363   2.229  0.1016  0.5080 -0.3184
  604MOL0     C81421   3.886   0.363   2.169  0.4214  0.5089 -0.1076
  604MOL0     N81422   3.778   0.371   2.259 -0.3417  0.3950 -0.1256
  604MOL0     C81423   3.691   0.484   2.280 -0.3029  0.6064  0.0927
  604MOL0     C81424   3.610   0.452   2.383 -0.7493  0.0362 -0.0169
  604MOL0     C81425   3.502   0.541   2.427  0.3577 -0.1963 -0.3193
  604MOL0     C81426   3.359   0.517   2.367 -0.1063  0.6741  0.2669
  604MOL0     C81427   3.342   0.567   2.222  0.2181 -0.2273 -0.5079
  604MOL0     C81428   3.356   0.463   2.124  0.1962  0.4142  1.0654
  604MOL0     O81429   3.404   0.508   1.993  0.2242 -0.3858 -0.4416
  604MOL0     C81430   3.513   0.437   1.944 -0.8005 -0.4404 -0.9216
  604MOL0     C81431   3.619   0.497   1.870 -0.1682  0.0475  0.0859
  604MOL0     C81432   3.725   0.429   1.828  0.3824  0.5600  0.0693
  604MOL0     C81433   3.735   0.288   1.855  0.7865 -0.0870 -0.1210
  604MOL0     C81434   3.849   0.207   1.798 -0.2834 -0.7847 -0.9340
  604MOL0     O81435   3.965   0.286   1.786 -0.4853  0.9153  0.7098
  604MOL0     C81436   4.078   0.240   1.716  0.8581  0.0255 -0.1759
  604MOL0     C81437   4.138   0.316   1.620 -0.1071 -0.3399  0.8891
  604MOL0     C81438   4.265   0.281   1.564  0.7462  0.5132  0.5281
  604MOL0     C81439   4.322   0.155   1.594  0.5406  0.4450  0.2244
  604MOL0     O81440   4.437   0.128   1.530 -0.0682 -0.0054 -0.0636
  604MOL0     C81441   4.528   0.041   1.600  0.3135 -0.0065 -0.5620
  604MOL0     C81442   4.655   0.040   1.513 -0.1837 -0.0060 -0.0183
  604MOL0     C81443   4.743  -0.071   1.559 -0.4805  0.2400 -0.3557
  604MOL0     C81444   4.813  -0.143   1.445 -0.3195 -0.2629 -0.4108
  604MOL0     C81445   4.920  -0.246   1.497 -0.6359  0.4720 -1.5016
  604MOL0     C81446   4.973  -0.338   1.387  0.4000 -0.9177  0.0990
  604MOL0     C81447   5.065  -0.443   1.433  0.9951 -0.6762  0.1110
  604MOL0     C81448   5.095  -0.541   1.325  0.3006  0.4340 -0.5811
  604MOL0    Cl81449   5.194  -0.679   1.401 -0.3162  0.3038 -0.1758
  604MOL0     C81450   4.264   0.079   1.696  0.4331 -0.0236  0.4702
  604MOL0     C81451   4.138   0.121   1.752  0.3204  0.8066 -0.5283
  604MOL0     O81452   3.842   0.087   1.780 -0.4103 -1.0634 -0.0149
  604MOL0     C81453   3.627   0.223   1.918 -0.6160  0.6862  0.5175
  604MOL0     C81454   3.516   0.297   1.955  0.9227  1.2170 -0.2643
  604MOL0     N81455   3.645   0.323   2.421 -0.4573  0.1972  1.0639
  604MOL0     N81456   3.729   0.270   2.342 -0.1601  0.6303  0.9388
  604MOL0     C81457   4.916   0.352   1.951  0.6891 -0.3909  0.3623
  604MOL0     C81458   5.056   0.364   1.956  0.3888  0.8971 -0.3660
  604MOL0     C81459   5.500   0.555   1.973  1.3035  0.3787 -0.3864
  604MOL0     C81460   5.532   0.485   1.864 -0.4117  0.7579 -0.4644
  604MOL0     C81461   5.663   0.488   1.813  0.5602  0.3559  0.6187
  604MOL0     C81462   5.749   0.588   1.860 -0.7050  1.2391  0.1020
  604MOL0     O81463   5.875   0.613   1.803 -0.2099  0.6374 -0.3540
  604MOL0     C81464   5.896   0.611   1.663  0.9927  0.0230 -0.1242
  604MOL0     C81465   5.894   0.759   1.615  0.4753  0.0803  0.2542
  604MOL0     C81466   5.915   0.777   1.466  0.1779 -0.2210  0.9247
  604MOL0     C81467   5.941   0.934   1.423 -0.4778  0.1434  0.2443
  604MOL0     C81468   5.940   0.939   1.279 -0.8596 -0.3754  0.2959
  604MOL0     C81469   5.917   0.936   1.157 -0.5035 -0.2234 -0.3883
  604MOL0     C81470   5.712   0.665   1.971 -0.2522  0.4664  0.3747
  604MOL0     C81471   5.591   0.646   2.034  1.9102 -0.2599  0.0405
  604MOL0     C81472   5.547   0.755   2.119 -0.0032 -0.6706 -0.0038
  604MOL0     H81473   5.110   0.695   1.971  1.1646 -0.7446 -1.1538
  604MOL0     H81474   4.846   0.686   1.988  1.6573  1.7475  0.0878
  604MOL0     H81475   4.686   0.290   1.867  2.3573  3.2883 -0.7226
  604MOL0     H81476   4.626   0.305   2.037  2.6591 -2.9014 -0.3408
  604MOL0     H81477   4.444   0.297   1.825  2.0509 -0.6087 -1.6050
  604MOL0     H81478   4.507   0.461   1.810 -2.4975 -0.9202 -0.8557
  604MOL0     H81479   4.458   0.472   2.060  0.2978  0.6942 -0.9174
  604MOL0     H81480   4.385   0.302   2.035 -3.4352 -1.1034 -2.8373
  604MOL0     H81481   4.301   0.557   1.892 -0.4311 -2.2894 -3.3543
  604MOL0     H81482   4.229   0.404   1.862 -0.2213  1.1597 -1.9473
  604MOL0     H81483   4.219   0.556   2.132 -1.2889 -1.7871  1.9209
  604MOL0     H81484   4.087   0.542   2.024  1.4836  1.7412  0.1842
  604MOL0     H81485   4.068   0.296   2.035 -3.9714  0.8922  1.3327
  604MOL0     H81486   4.203   0.277   2.142  0.9018 -0.7049 -0.7681
  604MOL0     H81487   4.047   0.458   2.280 -0.9165  0.8964 -0.6051
  604MOL0     H81488   4.030   0.278   2.297 -1.7714 -0.4552 -1.3615
  604MOL0     H81489   3.878   0.446   2.099  1.4821 -0.9086 -2.0125
  604MOL0     H81490   3.870   0.281   2.099  1.3786  0.0852  0.1451
  604MOL0     H81491   3.690   0.571   2.215  2.7700  2.0986  1.8523
  604MOL0     H81492   3.491   0.532   2.536 -2.7836 -3.1140 -0.7291
  604MOL0     H81493   3.541   0.642   2.410 -0.6439 -0.1212 -2.4595
  604MOL0     H81494   3.341   0.409   2.375  2.1143  0.1950 -0.5532
  604MOL0     H81495   3.279   0.570   2.420 -0.4928  0.0051  0.3684
  604MOL0     H81496   3.408   0.652   2.202  0.5997 -0.6041 -0.8573
  604MOL0     H81497   3.243   0.613   2.221  0.4956  0.8935  3.7075
  604MOL0     H81498   3.259   0.414   2.129  0.4910 -0.1553  1.3935
  604MOL0     H81499   3.433   0.391   2.157  1.7145  0.2829 -2.2955
  604MOL0     H81500   3.620   0.605   1.859 -0.4496 -0.1321 -2.1673
  604MOL0     H81501   3.807   0.477   1.776  0.9055 -1.5345 -1.1764
  604MOL0     H81502   4.080   0.402   1.588 -1.1293 -0.4772  2.2670
  604MOL0     H81503   4.320   0.342   1.493  2.9926  0.1788  1.8804
  604MOL0     H81504   4.553   0.096   1.691  0.8191  0.5539 -1.0316
  604MOL0     H81505   4.503  -0.066   1.603  3.7827 -0.9201  1.4741
  604MOL0     H81506   4.630   0.020   1.408  1.7089  0.8793 -0.6817
  604MOL0     H81507   4.710   0.135   1.522  0.6134 -0.6467  2.7750
  604MOL0     H81508   4.822  -0.027   1.620  0.4354 -1.5293 -0.1838
  604MOL0     H81509   4.690  -0.144   1.621  1.0661 -0.5576  0.0752
  604MOL0     H81510   4.859  -0.062   1.387 -2.7377  1.7360  0.2447
  604MOL0     H81511   4.749  -0.195   1.373 -0.0081  0.1994 -1.0319
  604MOL0     H81512   4.895  -0.312   1.580  7.4634  0.6903  2.0452
  604MOL0     H81513   5.008  -0.192   1.535  0.3650 -2.8076  1.4120
  604MOL0     H81514   4.883  -0.368   1.333 -1.9997 -3.5588  4.9252
  604MOL0     H81515   5.040  -0.277   1.326  1.1138  1.5631  3.1353
  604MOL0     H81516   5.020  -0.483   1.524  1.1714  0.3016  0.6503
  604MOL0     H81517   5.164  -0.408   1.464 -0.5361  1.0079  3.7394
  604MOL0     H81518   5.002  -0.571   1.277  1.2377 -0.9521 -1.6126
  604MOL0     H81519   5.163  -0.502   1.248 -2.7641  0.1815 -3.6769
  604MOL0     H81520   4.280  -0.023   1.727 -1.3916 -0.0099  1.6104
  604MOL0     H81521   4.091   0.063   1.830  1.9254  2.5422  1.8695
  604MOL0     H81522   3.628   0.115   1.925 -1.2563  0.6567  0.1641
  604MOL0     H81523   3.431   0.242   1.993  0.4689  1.6034 -0.6866
  604MOL0     H81524   4.874   0.252   1.953 -0.3409 -0.0560 -1.4387
  604MOL0     H81525   5.117   0.274   1.953 -0.8895 -0.1405  2.1523
  604MOL0     H81526   5.457   0.420   1.820  0.0702 -1.2181  1.4004
  604MOL0     H81527   5.686   0.432   1.723 -1.2232  0.9749 -0.2769
  604MOL0     H81528   5.816   0.560   1.610  2.7123 -3.5377  0.4381
  604MOL0     H81529   5.993   0.565   1.644  0.4911 -1.8108  1.4542
  604MOL0     H81530   5.963   0.814   1.680  1.9068 -2.8416  1.4010
  604MOL0     H81531   5.794   0.801   1.622 -0.4590 -1.5134 -2.3632
  604MOL0     H81532   5.834   0.732   1.408  0.6736 -2.2200  1.6941
  604MOL0     H81533   6.006   0.727   1.430  0.4573  1.2602 -0.5622
  604MOL0     H81534   5.864   1.004   1.456 -0.4063  0.7778 -0.8954
  604MOL0     H81535   6.041   0.957   1.462  0.2180  0.2250 -1.4920
  604MOL0     H81536   5.907   0.928   1.051 -0.1185 -0.5648 -0.4022
  604MOL0     H81537   5.786   0.728   2.018  1.0617  1.1982 -2.5237
  604MOL0     H81538   5.517   0.717   2.217  1.7930 -0.6799  0.5854
  604MOL0     H81539   5.623   0.832   2.138  0.1355 -0.7496 -0.2396
  604MOL0     H81540   5.458   0.801   2.075 -0.3389 -0.2585  1.0521
  605MOL0     O81541   7.394   0.991   6.957  0.1773 -0.6287  0.1991
  605MOL0     C81542   7.304   0.901   6.954 -0.1010 -1.0414  0.6471
  605MOL0     O81543   7.192   0.899   7.028  1.1053  0.5308 -0.1049
  605MOL0     C81544   7.175   0.999   7.121  0.0013  0.4907  0.0685
  605MOL0     C81545   7.102   1.112   7.099  0.1297 -1.6417 -0.5932
  605MOL0     C81546   7.095   1.211   7.198 -0.3483 -0.2221 -0.6575
  605MOL0     C81547   7.166   1.200   7.317 -0.4816 -1.1468 -0.0348
  605MOL0     O81548   7.168   1.279   7.425  1.1640 -0.4128  0.6856
  605MOL0     C81549   7.080   1.391   7.433 -0.3353 -0.0038 -0.2575
  605MOL0     C81550   7.122   1.478   7.556  0.1545  0.2082  1.0664
  605MOL0     C81551   7.009   1.536   7.629 -0.2408 -0.6588 -1.2955
  605MOL0     C81552   7.061   1.656   7.718  0.2681 -0.0889  0.8959
  605MOL0     C81553   6.946   1.730   7.782 -0.7937  0.8897 -0.1151
  605MOL0     C81554   6.869   1.657   7.891 -0.6158 -0.5257 -0.3617
  605MOL0     C81555   6.744   1.738   7.934 -0.2811 -0.3937 -1.0069
  605MOL0     C81556   6.692   1.688   8.073 -1.2109  0.0171  0.6896
  605MOL0     N81557   6.595   1.789   8.125  0.4059 -0.5485 -0.4300
  605MOL0     C81558   6.454   1.795   8.105  0.8387 -0.0885 -0.6601
  605MOL0     C81559   6.411   1.913   8.163  0.2104  0.3124  0.0702
  605MOL0     C81560   6.283   1.974   8.166 -1.0673  0.5095 -1.2833
  605MOL0     C81561   6.167   1.889   8.101  0.2096 -0.6129 -0.2959
  605MOL0     C81562   6.022   1.950   8.119 -1.3201  0.2754 -0.0576
  605MOL0     C81563   5.984   2.075   8.040  0.3364 -0.2899  0.0907
  605MOL0     O81564   6.062   2.178   8.115 -0.0067  0.0332  0.1472
  605MOL0     C81565   6.047   2.307   8.083 -0.7643  0.8386  0.4199
  605MOL0     C81566   5.968   2.359   7.981  0.7484  0.2002 -0.0041
  605MOL0     C81567   5.964   2.499   7.954 -0.3317  0.4405  0.8311
  605MOL0     C81568   6.044   2.584   8.037  0.6219 -0.0154 -0.3565
  605MOL0     C81569   6.050   2.732   8.013  0.0873 -0.0824  0.4805
  605MOL0     O81570   6.116   2.822   8.091  0.8249 -0.4594 -0.2151
  605MOL0     C81571   6.094   2.956   8.068  0.3772  1.1444  0.9756
  605MOL0     C81572   6.206   3.042   8.092 -0.0887 -0.0301 -0.4394
  605MOL0     C81573   6.180   3.179   8.087  0.2225 -0.2515 -0.8663
  605MOL0     C81574   6.055   3.221   8.047  0.3244 -0.1317 -0.3353
  605MOL0     O81575   6.028   3.353   8.018 -0.2653  0.6599 -0.9666
  605MOL0     C81576   6.136   3.443   7.993 -0.3860 -0.7975  1.1553
  605MOL0     C81577   6.083   3.574   7.952 -0.9195 -0.7538  0.1733
  605MOL0     C81578   6.187   3.687   7.957  0.8009 -1.1925 -0.5787
  605MOL0     C81579   6.196   3.725   8.109 -0.5488  0.1366 -0.5709
  605MOL0     C81580   6.298   3.843   8.128  1.2121  1.6337 -0.9252
  605MOL0     C81581   6.315   3.890   8.279 -0.1145  1.5296 -0.3066
  605MOL0     C81582   6.201   3.984   8.315  0.0614  1.0268  0.4464
  605MOL0     C81583   6.235   4.090   8.432  0.2355  0.4619 -0.5876
  605MOL0    Cl81584   6.375   4.188   8.403 -0.0976  0.2287  0.6152
  605MOL0     C81585   5.939   3.134   8.034 -0.1508  0.5518  0.8850
  605MOL0     C81586   5.965   3.002   8.047  0.3123 -0.9903  0.2896
  605MOL0     O81587   6.001   2.760   7.903  0.0418 -0.9410  0.4764
  605MOL0     C81588   6.118   2.533   8.144  0.8695  0.7509  0.4189
  605MOL0     C81589   6.120   2.392   8.166  0.0563  0.2065  0.3180
  605MOL0     N81590   6.521   1.959   8.237  0.7168 -0.3529 -0.2961
  605MOL0     N81591   6.627   1.897   8.205 -0.2653 -0.0398 -0.4682
  605MOL0     C81592   7.248   1.092   7.338 -0.1054  0.5388  0.4701
  605MOL0     C81593   7.252   0.987   7.240 -0.2565  0.2027  0.5836
  605MOL0     C81594   7.331   0.780   6.864 -0.3987  0.8394 -0.1394
  605MOL0     C81595   7.464   0.745   6.849 -0.0390  1.3231  0.1566
  605MOL0     C81596   7.508   0.618   6.797  1.0456  0.2465  0.5734
  605MOL0     C81597   7.408   0.526   6.745 -0.4557 -0.7878 -0.5537
  605MOL0     O81598   7.459   0.418   6.682 -0.0638  0.1508  0.2294
  605MOL0     C81599   7.386   0.359   6.567  0.6248  0.2364  0.5963
  605MOL0     C81600   7.482   0.302   6.462  0.5686 -0.0394  0.7397
  605MOL0     C81601   7.579   0.190   6.504 -0.6133  0.0794 -0.4505
  605MOL0     C81602   7.531   0.052   6.456  0.2026  0.5812  0.0076
  605MOL0     C81603   7.615  -0.062   6.505 -0.4034  0.1926 -1.1502
  605MOL0     C81604   7.692  -0.148   6.534  0.6132 -0.6094 -0.3572
  605MOL0     C81605   7.270   0.567   6.758 -0.3218  0.1580 -0.4270
  605MOL0     C81606   7.233   0.690   6.817 -0.3439  0.3294 -0.2254
  605MOL0     C81607   7.086   0.721   6.843 -0.7476 -0.3195  0.7091
  605MOL0     H81608   7.052   1.131   7.004  1.7419  0.5632 -1.0837
  605MOL0     H81609   7.052   1.307   7.172  1.9859  0.8596 -0.8126
  605MOL0     H81610   7.079   1.457   7.346  1.4795 -1.4533 -1.4714
  605MOL0     H81611   6.980   1.349   7.451 -0.6690  0.2638 -1.3987
  605MOL0     H81612   7.194   1.545   7.508 -0.7780 -1.5985 -3.2624
  605MOL0     H81613   7.176   1.414   7.627  1.6546  2.0979  1.7380
  605MOL0     H81614   6.968   1.464   7.701 -0.6466  1.1136  0.3384
  605MOL0     H81615   6.942   1.579   7.553 -0.7117 -0.4971 -0.7961
  605MOL0     H81616   7.129   1.619   7.795  1.6167 -3.6703 -1.7225
  605MOL0     H81617   7.122   1.717   7.650  2.3930 -1.6721  1.2733
  605MOL0     H81618   6.985   1.819   7.832  0.1067  1.6444 -2.0314
  605MOL0     H81619   6.874   1.762   7.705 -1.3914 -1.0450 -0.4182
  605MOL0     H81620   6.830   1.567   7.844  0.2042  0.4475 -3.0688
  605MOL0     H81621   6.939   1.639   7.974 -0.7466  0.2001 -0.0879
  605MOL0     H81622   6.666   1.732   7.857  2.1287 -0.0762 -3.6761
  605MOL0     H81623   6.764   1.844   7.954 -2.1313 -0.1881 -0.0610
  605MOL0     H81624   6.657   1.585   8.068  1.1279 -0.7616 -2.3808
  605MOL0     H81625   6.775   1.674   8.143  1.8017  1.3023 -2.3362
  605MOL0     H81626   6.405   1.724   8.038  1.8314 -2.4401  0.9679
  605MOL0     H81627   6.261   2.005   8.269 -0.6527  1.7722 -1.5588
  605MOL0     H81628   6.300   2.069   8.115 -0.1039  0.3906 -1.1988
  605MOL0     H81629   6.184   1.883   7.993 -1.2723 -1.3141 -0.5201
  605MOL0     H81630   6.165   1.784   8.131 -2.8395 -1.6411 -3.4302
  605MOL0     H81631   6.005   1.972   8.225 -0.0000 -0.4415  0.3320
  605MOL0     H81632   5.959   1.864   8.094  2.5403 -2.5358 -1.0500
  605MOL0     H81633   5.877   2.091   8.055 -0.0351 -1.8470 -0.7229
  605MOL0     H81634   6.009   2.055   7.935  0.3947 -3.5897  0.6492
  605MOL0     H81635   5.910   2.298   7.911 -0.4501  3.7279 -2.3657
  605MOL0     H81636   5.901   2.540   7.876  1.5357  2.7279  0.3922
  605MOL0     H81637   6.298   2.995   8.125 -1.3390 -1.2558  1.5347
  605MOL0     H81638   6.266   3.243   8.104  2.4414 -2.1046 -4.0712
  605MOL0     H81639   6.183   3.457   8.091  3.0859 -0.8714 -0.3523
  605MOL0     H81640   6.217   3.409   7.927 -0.6081  3.4891 -1.6843
  605MOL0     H81641   6.043   3.558   7.852 -1.7343  0.2671  0.3171
  605MOL0     H81642   6.004   3.603   8.022 -1.7098  1.6620 -1.5818
  605MOL0     H81643   6.281   3.656   7.909  2.0321 -3.6169  2.9969
  605MOL0     H81644   6.146   3.774   7.905 -2.3009 -2.2226 -0.0146
  605MOL0     H81645   6.223   3.638   8.169 -2.0277  0.2019  0.2162
  605MOL0     H81646   6.106   3.771   8.150  0.4312  2.0142 -0.4078
  605MOL0     H81647   6.269   3.932   8.071 -1.2782  0.9788 -0.8121
  605MOL0     H81648   6.394   3.802   8.096  1.4297  1.1440  0.3019
  605MOL0     H81649   6.305   3.807   8.350 -0.8911 -1.4813 -3.6638
  605MOL0     H81650   6.409   3.940   8.304  0.9133 -1.3960  2.4704
  605MOL0     H81651   6.115   3.924   8.346 -1.5732  0.0770 -4.8887
  605MOL0     H81652   6.175   4.044   8.227 -0.4931  0.2804  0.0909
  605MOL0     H81653   6.145   4.146   8.459 -0.7992 -1.3894 -0.0234
  605MOL0     H81654   6.258   4.025   8.517 -1.9641 -2.5420 -2.0798
  605MOL0     H81655   5.849   3.189   8.009 -1.0034 -1.7974 -1.6568
  605MOL0     H81656   5.883   2.931   8.044  0.6861 -1.4074 -1.2632
  605MOL0     H81657   6.169   2.603   8.209  1.1504  0.6675  0.2861
  605MOL0     H81658   6.181   2.346   8.242  1.1276 -1.0245 -1.2140
  605MOL0     H81659   7.309   1.104   7.427 -0.6562 -0.8889  1.0705
  605MOL0     H81660   7.324   0.906   7.240  4.6129  4.0473  0.6994
  605MOL0     H81661   7.545   0.811   6.878 -0.3314  1.2369  1.2101
  605MOL0     H81662   7.614   0.592   6.802  1.3838  1.7306  1.7261
  605MOL0     H81663   7.332   0.441   6.519  0.5145  0.8828  1.7857
  605MOL0     H81664   7.299   0.300   6.595 -0.8523  2.5849  1.2667
  605MOL0     H81665   7.543   0.391   6.446 -0.2095 -0.0942 -3.8323
  605MOL0     H81666   7.435   0.277   6.367  0.7302 -1.5210  1.0303
  605MOL0     H81667   7.587   0.180   6.613 -2.5451  0.4581 -0.2323
  605MOL0     H81668   7.682   0.204   6.471 -0.5800 -1.8339 -1.2995
  605MOL0     H81669   7.426   0.035   6.484  0.0483 -1.2261 -1.4730
  605MOL0     H81670   7.531   0.044   6.347 -2.6313 -0.5614  0.0055
  605MOL0     H81671   7.755  -0.228   6.568 -0.8721 -0.8790  1.9453
  605MOL0     H81672   7.197   0.494   6.724  0.0005 -0.3172 -0.1140
  605MOL0     H81673   7.055   0.698   6.945  2.6236 -0.9583  1.7230
  605MOL0     H81674   7.070   0.824   6.811 -0.7032 -0.8612 -1.1526
  605MOL0     H81675   7.041   0.654   6.769  0.8975 -0.0255 -0.6055
  606MOL0     O81676   9.697   7.373   9.062  0.2204 -0.0430 -0.3946
  606MOL0     C81677   9.613   7.300   9.011 -0.3835 -0.2760 -0.1292
  606MOL0     O81678   9.634   7.205   8.915 -0.8852 -0.1446  0.6885
  606MOL0     C81679   9.763   7.164   8.879 -0.3314 -0.5440  0.4900
  606MOL0     C81680   9.869   7.148   8.970  0.7002 -0.0236 -0.0062
  606MOL0     C81681   9.990   7.088   8.928  0.2890  0.3732 -0.4631
  606MOL0     C81682  10.008   7.069   8.795 -0.6623 -0.0823  0.3380
  606MOL0     O81683  10.135   7.046   8.744  0.3850  0.1302  1.5577
  606MOL0     C81684  10.238   7.108   8.809  0.5587 -0.3220 -0.3511
  606MOL0     C81685  10.374   7.104   8.730 -0.7348  1.0497  0.5980
  606MOL0     C81686  10.446   6.964   8.698 -0.3324  0.0773 -0.5391
  606MOL0     C81687  10.572   6.968   8.620 -0.1377 -0.4338 -0.0460
  606MOL0     C81688  10.647   6.841   8.580  0.5432  0.1586 -0.1801
  606MOL0     C81689  10.653   6.736   8.684 -0.9346  0.1132 -0.1091
  606MOL0     C81690  10.749   6.622   8.643 -0.1298  0.3406  0.5218
  606MOL0     C81691  10.894   6.651   8.607  0.9728  0.4038  0.1707
  606MOL0     N81692  10.963   6.691   8.731 -0.2404 -0.6168 -0.1718
  606MOL0     C81693  11.000   6.817   8.774  0.4237  0.5532 -0.3433
  606MOL0     C81694  11.069   6.793   8.885 -0.1891  0.5780 -0.4059
  606MOL0     C81695  11.166   6.886   8.961 -0.7429 -0.7137  0.9738
  606MOL0     C81696  11.086   6.952   9.079  0.6081 -0.8324 -0.5421
  606MOL0     C81697  11.166   7.066   9.155  1.0993  0.0485  0.3499
  606MOL0     C81698  11.319   7.034   9.191  0.6037 -0.1977  0.2774
  606MOL0     O81699  11.309   6.936   9.288  0.2548  0.5646 -0.0281
  606MOL0     C81700  11.419   6.872   9.338 -0.2313 -0.1542  0.6663
  606MOL0     C81701  11.417   6.783   9.443  0.2581 -0.2022 -1.1729
  606MOL0     C81702  11.532   6.760   9.523  0.5320  0.3088 -0.0128
  606MOL0     C81703  11.651   6.830   9.502 -0.4848 -0.5545 -0.1754
  606MOL0     C81704  11.754   6.819   9.596 -0.8209 -1.0978 -0.2593
  606MOL0     O81705  11.879   6.875   9.574 -0.5757 -0.1225 -0.4050
  606MOL0     C81706  11.967   6.876   9.674 -0.5914  0.4338 -0.1431
  606MOL0     C81707  12.095   6.818   9.650  0.1890  0.2480 -0.1243
  606MOL0     C81708  12.189   6.825   9.757  0.8993  0.0292  0.5919
  606MOL0     C81709  12.149   6.876   9.883  0.2795 -0.1472 -0.1215
  606MOL0     O81710  12.251   6.860   9.978  0.8087  0.0783 -0.5540
  606MOL0     C81711  12.232   6.935  10.097  0.3309 -0.9243 -0.1507
  606MOL0     C81712  12.358   6.959  10.186  0.3604 -0.1854 -0.8174
  606MOL0     C81713  12.307   7.004  10.325 -1.4952  0.4686 -0.2691
  606MOL0     C81714  12.415   7.009  10.440  0.2519  0.4522 -0.0122
  606MOL0     C81715  12.514   7.125  10.427 -0.2664 -0.3507  0.6786
  606MOL0     C81716  12.570   7.157  10.563 -0.9605 -1.0120  0.3992
  606MOL0     C81717  12.687   7.259  10.533  0.1131  0.8217  0.0003
  606MOL0     C81718  12.756   7.317  10.663 -1.3450 -0.7164 -1.1232
  606MOL0    Cl81719  12.911   7.392  10.614  0.9446 -0.4808 -0.0005
  606MOL0     C81720  12.030   6.945   9.896 -0.4342 -0.0869  0.0284
  606MOL0     C81721  11.933   6.942   9.801 -0.0518 -0.0571  0.4456
  606MOL0     O81722  11.726   6.755   9.700  0.2304  0.3594  0.7966
  606MOL0     C81723  11.664   6.908   9.391 -0.6828 -0.1776  0.0531
  606MOL0     C81724  11.548   6.931   9.308 -0.7215 -0.3051 -0.7361
  606MOL0     N81725  11.063   6.659   8.915  0.5353 -0.2562 -0.9634
  606MOL0     N81726  11.001   6.598   8.821 -0.4842  0.0414 -0.3677
  606MOL0     C81727   9.900   7.088   8.703 -0.1204 -0.2070  0.9461
  606MOL0     C81728   9.776   7.138   8.742 -0.9176 -0.2444  1.2143
  606MOL0     C81729   9.479   7.351   9.032  0.0830 -0.2484  0.2178
  606MOL0     C81730   9.388   7.327   8.927  0.6728  0.3716 -1.6387
  606MOL0     C81731   9.256   7.371   8.935 -0.3424 -0.3579 -0.5253
  606MOL0     C81732   9.221   7.441   9.055 -0.5622  0.0504  0.1395
  606MOL0     O81733   9.094   7.486   9.083  0.0601  0.7011  0.1364
  606MOL0     C81734   8.981   7.443   9.006 -0.6204  0.0130  0.0288
  606MOL0     C81735   8.932   7.298   9.054  0.6676  0.0325 -0.5096
  606MOL0     C81736   8.831   7.217   8.956  0.5243 -0.0340 -1.1193
  606MOL0     C81737   8.902   7.211   8.824  0.5285  0.0437 -0.0262
  606MOL0     C81738   8.844   7.092   8.761  0.1145 -0.7356  0.2862
  606MOL0     C81739   8.771   7.002   8.710  0.1276  0.2503 -0.6403
  606MOL0     C81740   9.314   7.467   9.157 -0.5545  0.1059 -0.1414
  606MOL0     C81741   9.440   7.420   9.152  0.1715 -0.3037  0.4579
  606MOL0     C81742   9.532   7.435   9.267 -0.3021 -0.8091 -0.4871
  606MOL0     H81743   9.849   7.185   9.071 -1.9714 -2.7698  0.6063
  606MOL0     H81744  10.071   7.060   8.994 -1.8184 -0.2900  2.0302
  606MOL0     H81745  10.210   7.212   8.828 -1.8600 -1.2958  2.2620
  606MOL0     H81746  10.253   7.071   8.911 -2.4904  0.7239  0.5896
  606MOL0     H81747  10.442   7.160   8.794 -2.6303  1.1078  2.6619
  606MOL0     H81748  10.354   7.154   8.634  0.4639  2.7874  1.2136
  606MOL0     H81749  10.367   6.901   8.656 -1.8892  1.7872 -0.3089
  606MOL0     H81750  10.470   6.912   8.791 -4.6326 -1.5438 -0.1160
  606MOL0     H81751  10.550   7.022   8.527 -0.3555  1.7893  1.2095
  606MOL0     H81752  10.646   7.021   8.682 -0.0309 -0.4431 -0.1660
  606MOL0     H81753  10.595   6.789   8.499  0.6871 -0.9667  0.4322
  606MOL0     H81754  10.750   6.860   8.546  0.5278 -2.2375 -1.8919
  606MOL0     H81755  10.696   6.777   8.776  0.0269 -2.0505  0.4990
  606MOL0     H81756  10.554   6.698   8.710 -2.3821  2.0968 -2.3149
  606MOL0     H81757  10.714   6.562   8.559 -1.5934 -0.2590  1.4988
  606MOL0     H81758  10.745   6.549   8.724 -4.3759 -0.6531 -0.3578
  606MOL0     H81759  10.942   6.559   8.573  1.1382  0.9915 -1.2769
  606MOL0     H81760  10.898   6.714   8.517  1.3099 -0.8520 -0.7215
  606MOL0     H81761  10.993   6.905   8.711  2.7004 -0.5347 -2.3035
  606MOL0     H81762  11.251   6.821   8.985  1.4580  2.2703  1.8648
  606MOL0     H81763  11.214   6.959   8.895 -0.7092 -1.4758  0.1378
  606MOL0     H81764  11.009   7.003   9.020  1.0049  3.4028  2.2395
  606MOL0     H81765  11.054   6.867   9.139  1.4847 -0.7089  0.1210
  606MOL0     H81766  11.111   7.109   9.240  4.1838  1.1282  1.9501
  606MOL0     H81767  11.167   7.154   9.089  1.5520  1.9235  2.7079
  606MOL0     H81768  11.354   7.133   9.222 -0.6747  0.2688  0.3201
  606MOL0     H81769  11.382   7.004   9.107  1.5393 -1.7075  1.4719
  606MOL0     H81770  11.330   6.722   9.469  0.3976  0.5115  1.1994
  606MOL0     H81771  11.524   6.684   9.600 -1.5693  1.6424  1.2181
  606MOL0     H81772  12.127   6.782   9.553 -0.8062 -1.9978  0.2992
  606MOL0     H81773  12.291   6.788   9.748  1.2794  1.0853  0.2908
  606MOL0     H81774  12.189   7.031  10.066  0.7512 -1.8020 -3.9656
  606MOL0     H81775  12.154   6.880  10.151 -0.8609  2.0323  1.3132
  606MOL0     H81776  12.406   6.861  10.191  0.4720 -0.1792 -1.6984
  606MOL0     H81777  12.429   7.027  10.138  3.3367  0.3037  3.6019
  606MOL0     H81778  12.256   7.100  10.318 -2.8335 -0.3208 -1.9038
  606MOL0     H81779  12.244   6.927  10.371  0.9125 -0.0594  2.4403
  606MOL0     H81780  12.476   6.923  10.467  0.0656 -1.1548 -4.0419
  606MOL0     H81781  12.359   7.037  10.530  1.8417 -0.2475  1.2424
  606MOL0     H81782  12.471   7.215  10.383  3.8596  0.7156 -1.7270
  606MOL0     H81783  12.595   7.101  10.357 -1.5370  0.2793 -1.0873
  606MOL0     H81784  12.500   7.207  10.631  2.0949  2.2209  1.4775
  606MOL0     H81785  12.612   7.062  10.599 -0.7000 -0.9407  0.2833
  606MOL0     H81786  12.647   7.343  10.476  1.4643  1.0236 -0.7004
  606MOL0     H81787  12.766   7.219  10.469  1.0685  1.7429  0.5577
  606MOL0     H81788  12.695   7.389  10.717  2.3069  1.0541  0.9746
  606MOL0     H81789  12.783   7.233  10.728  0.0197  0.7029  0.1948
  606MOL0     H81790  12.001   6.986   9.992  0.0314 -1.2554  0.6902
  606MOL0     H81791  11.832   6.983   9.806 -0.7297 -0.8144 -3.4575
  606MOL0     H81792  11.755   6.965   9.374 -0.4240 -1.1327 -2.0362
  606MOL0     H81793  11.559   7.001   9.226 -0.4038  1.6889  0.9232
  606MOL0     H81794   9.927   7.056   8.603  1.9877 -4.8485  2.7540
  606MOL0     H81795   9.697   7.145   8.668 -1.7671  0.2193  2.1442
  606MOL0     H81796   9.412   7.279   8.833 -0.3486 -2.8354 -0.4374
  606MOL0     H81797   9.187   7.370   8.852 -0.4326  1.4259 -0.5011
  606MOL0     H81798   9.007   7.443   8.900  2.0964 -1.5093  0.5930
  606MOL0     H81799   8.901   7.517   9.021  1.8674  2.8555  0.2756
  606MOL0     H81800   8.885   7.307   9.152 -0.2827 -2.1808 -0.6915
  606MOL0     H81801   9.026   7.244   9.069  0.7414  0.4730  0.6874
  606MOL0     H81802   8.736   7.270   8.943  0.2382  0.4434  2.1258
  606MOL0     H81803   8.810   7.118   8.999 -1.5331  0.3929 -1.0438
  606MOL0     H81804   8.880   7.298   8.761 -0.1760  1.1851  1.7114
  606MOL0     H81805   9.008   7.186   8.837  0.4512 -0.9199 -1.0241
  606MOL0     H81806   8.719   6.917   8.672 -2.4272  1.7055 -0.5912
  606MOL0     H81807   9.285   7.517   9.249 -0.7618 -1.7084  0.8298
  606MOL0     H81808   9.604   7.516   9.249 -0.6506 -0.3119  0.2970
  606MOL0     H81809   9.484   7.463   9.361 -0.7834  1.9292 -1.4222
  606MOL0     H81810   9.574   7.337   9.289 -1.4010 -1.4814 -1.2779
  607MOL0     O81811   4.922  10.388   7.096 -0.5939 -0.7045 -0.3641
  607MOL0     C81812   4.947  10.303   7.010 -0.7403 -0.1812 -0.0780
  607MOL0     O81813   4.856  10.247   6.926 -0.2547 -0.4189  0.2462
  607MOL0     C81814   4.719  10.271   6.952 -0.6686  0.4389  0.0601
  607MOL0     C81815   4.666  10.262   7.087  0.7643  1.1814 -0.3145
  607MOL0     C81816   4.528  10.292   7.120 -0.5753 -0.9220  0.5139
  607MOL0     C81817   4.444  10.313   7.013  0.3992  0.6776  0.1404
  607MOL0     O81818   4.326  10.359   7.048 -0.0805 -0.5589  0.6222
  607MOL0     C81819   4.284  10.486   7.002  0.4272  0.0214  0.0070
  607MOL0     C81820   4.363  10.606   7.059 -0.5503  1.1480  0.6166
  607MOL0     C81821   4.295  10.735   7.095  0.0139 -0.0758  0.5918
  607MOL0     C81822   4.232  10.812   6.979 -1.0801 -0.0654  0.8627
  607MOL0     C81823   4.177  10.943   7.021  0.2333  0.3411 -0.5997
  607MOL0     C81824   4.144  11.039   6.905  0.2724  0.1808  0.5053
  607MOL0     C81825   4.128  11.188   6.956  0.3609  0.1868 -0.6317
  607MOL0     C81826   4.256  11.268   7.000 -0.3852  0.2198 -0.3896
  607MOL0     N81827   4.227  11.385   7.078 -0.1742  0.2118 -0.3062
  607MOL0     C81828   4.201  11.377   7.214 -0.3787  0.8594  0.2818
  607MOL0     C81829   4.158  11.499   7.250 -0.0505 -0.1032  0.4616
  607MOL0     C81830   4.099  11.535   7.380 -1.0581  0.4600 -0.0051
  607MOL0     C81831   4.068  11.678   7.400 -0.8570 -1.2388  0.4696
  607MOL0     C81832   4.191  11.769   7.424  0.0359 -0.1200  0.1570
  607MOL0     C81833   4.226  11.787   7.576  0.2497  0.4398  0.2111
  607MOL0     O81834   4.133  11.877   7.634 -0.3874 -1.1905 -0.2262
  607MOL0     C81835   4.171  11.981   7.713  0.3898  0.1871 -0.0245
  607MOL0     C81836   4.212  11.954   7.838  0.2500  0.7254  0.8454
  607MOL0     C81837   4.248  12.062   7.929  0.2154 -0.7446  0.1114
  607MOL0     C81838   4.261  12.187   7.871  0.5992  0.0872 -0.3016
  607MOL0     C81839   4.330  12.292   7.948 -0.1157 -0.1080  0.7459
  607MOL0     O81840   4.352  12.269   8.081  0.5509  0.0168 -0.1853
  607MOL0     C81841   4.400  12.381   8.153 -0.4921  0.1512 -0.1526
  607MOL0     C81842   4.302  12.479   8.199 -0.3558 -0.6818  0.3867
  607MOL0     C81843   4.347  12.598   8.258 -0.0712  0.4803  0.9495
  607MOL0     C81844   4.490  12.628   8.262  0.3633 -0.1016  0.1766
  607MOL0     O81845   4.533  12.756   8.317  0.6199  0.3915  0.3040
  607MOL0     C81846   4.675  12.781   8.303 -0.0620 -0.9661 -0.5703
  607MOL0     C81847   4.754  12.714   8.428  0.1469  0.1613  0.3286
  607MOL0     C81848   4.898  12.754   8.426 -0.4491  0.4861  0.0735
  607MOL0     C81849   4.986  12.688   8.541  0.8689  0.3569 -0.0713
  607MOL0     C81850   5.113  12.638   8.470 -0.0671 -0.2459 -0.2415
  607MOL0     C81851   5.187  12.525   8.532  0.9061 -0.2470 -0.5346
  607MOL0     C81852   5.108  12.398   8.560  0.0949  0.1501  0.7342
  607MOL0     C81853   5.201  12.281   8.520  0.1441  0.1419 -1.3394
  607MOL0    Cl81854   5.350  12.272   8.611  0.5328 -0.2594 -0.2717
  607MOL0     C81855   4.577  12.519   8.207 -0.0873 -1.5522  0.7245
  607MOL0     C81856   4.535  12.398   8.166  0.0687  0.8124  0.7605
  607MOL0     O81857   4.358  12.399   7.888 -0.1092  0.9004  0.6728
  607MOL0     C81858   4.211  12.219   7.738  0.2986 -0.4615 -0.0819
  607MOL0     C81859   4.166  12.113   7.662 -0.2013  0.4404  1.2065
  607MOL0     N81860   4.168  11.587   7.135 -0.1137 -0.0157 -0.1104
  607MOL0     N81861   4.215  11.515   7.035 -1.2351 -0.9021  0.3384
  607MOL0     C81862   4.486  10.307   6.878 -0.8766 -0.6471 -0.3684
  607MOL0     C81863   4.627  10.281   6.849  0.2574  0.2092 -0.0222
  607MOL0     C81864   5.098  10.272   6.980 -0.5831 -1.2296 -1.1005
  607MOL0     C81865   5.136  10.248   6.840  0.4537 -0.5949 -0.3959
  607MOL0     C81866   5.273  10.241   6.807 -0.4959 -0.2786 -0.4771
  607MOL0     C81867   5.365  10.242   6.911 -0.8002 -0.7713 -0.3590
  607MOL0     O81868   5.500  10.237   6.896  0.4041 -1.3152  0.1327
  607MOL0     C81869   5.546  10.263   6.761  0.9190 -0.3586  0.8503
  607MOL0     C81870   5.688  10.285   6.770 -0.2171  0.3779 -0.4052
  607MOL0     C81871   5.793  10.204   6.686 -0.4794  0.3157 -0.0034
  607MOL0     C81872   5.941  10.233   6.741 -0.9237  0.7640 -0.4181
  607MOL0     C81873   6.035  10.198   6.638  0.0555  0.1008  0.5066
  607MOL0     C81874   6.112  10.159   6.552  0.4280  0.0816  0.9539
  607MOL0     C81875   5.322  10.266   7.036 -0.9584  0.7219  0.1417
  607MOL0     C81876   5.190  10.289   7.074 -0.4738  0.1304  0.6120
  607MOL0     C81877   5.157  10.274   7.218 -0.1756  0.0658 -0.5015
  607MOL0     H81878   4.723  10.253   7.178  0.0678  1.5094  0.1672
  607MOL0     H81879   4.505  10.315   7.224 -1.1743  4.1548 -0.4737
  607MOL0     H81880   4.289  10.487   6.893  1.3311 -1.0988  0.0232
  607MOL0     H81881   4.179  10.483   7.035  0.4545 -2.3566  0.0473
  607MOL0     H81882   4.451  10.621   6.995  0.3308 -0.4735  1.3802
  607MOL0     H81883   4.406  10.565   7.151  1.9499  0.8585 -0.5829
  607MOL0     H81884   4.377  10.796   7.134  2.7150 -0.8609 -3.2567
  607MOL0     H81885   4.223  10.711   7.174  0.3704 -1.8225  0.4418
  607MOL0     H81886   4.303  10.826   6.896 -2.2032 -1.4044 -0.3806
  607MOL0     H81887   4.153  10.751   6.935 -1.1493  0.5197  0.1490
  607MOL0     H81888   4.084  10.918   7.073  0.4222 -0.7759 -0.7887
  607MOL0     H81889   4.239  10.990   7.098 -1.5730 -2.3961  2.8232
  607MOL0     H81890   4.218  11.034   6.824 -1.2931 -0.4082 -0.9471
  607MOL0     H81891   4.057  10.997   6.854  0.8755 -1.7888  1.0076
  607MOL0     H81892   4.053  11.195   7.036  2.5305  1.6645  1.4034
  607MOL0     H81893   4.085  11.243   6.872  1.1871 -2.4281 -2.9143
  607MOL0     H81894   4.314  11.190   7.049 -2.1212 -1.7148 -1.2484
  607MOL0     H81895   4.310  11.307   6.914  4.0923 -0.5463  1.7946
  607MOL0     H81896   4.199  11.288   7.277  2.2594  1.4039  1.2429
  607MOL0     H81897   4.006  11.477   7.389 -2.6585  2.5567 -1.8787
  607MOL0     H81898   4.158  11.490   7.461 -1.3398 -0.3109 -0.2139
  607MOL0     H81899   4.015  11.723   7.316  2.6672  0.8137 -0.8702
  607MOL0     H81900   3.994  11.697   7.478  1.1159  2.5423  1.6868
  607MOL0     H81901   4.167  11.869   7.387  0.0966 -0.4104 -0.6958
  607MOL0     H81902   4.276  11.732   7.366 -0.0928  0.4908 -0.4391
  607MOL0     H81903   4.328  11.825   7.588  0.8346 -1.2582  0.9332
  607MOL0     H81904   4.232  11.691   7.628  1.4527  0.2146 -0.3184
  607MOL0     H81905   4.203  11.852   7.872 -1.6956 -0.5037 -2.8409
  607MOL0     H81906   4.285  12.035   8.028  1.2885 -3.1435 -0.8683
  607MOL0     H81907   4.196  12.457   8.191 -0.2493 -0.9574 -0.3549
  607MOL0     H81908   4.279  12.677   8.289 -0.6409  0.4889 -0.2320
  607MOL0     H81909   4.728  12.753   8.212  0.2159 -1.6818 -0.1927
  607MOL0     H81910   4.689  12.889   8.316 -1.1041 -0.9275  0.3909
  607MOL0     H81911   4.701  12.750   8.516 -0.3861  0.5644 -0.1469
  607MOL0     H81912   4.753  12.606   8.440  2.8359  0.3215  3.1556
  607MOL0     H81913   4.937  12.747   8.323  1.4762 -1.6369  0.8499
  607MOL0     H81914   4.916  12.860   8.443 -0.7453  0.7408 -1.0906
  607MOL0     H81915   4.930  12.603   8.580 -1.4105  0.7042 -2.3329
  607MOL0     H81916   4.993  12.766   8.618 -0.4406 -0.1514  0.5868
  607MOL0     H81917   5.174  12.726   8.451 -3.2409  2.3806  0.7777
  607MOL0     H81918   5.084  12.599   8.372  0.8450  3.4265 -2.1336
  607MOL0     H81919   5.261  12.497   8.457  0.7823 -0.6212 -0.5189
  607MOL0     H81920   5.242  12.560   8.620  0.3082  3.4509 -1.4791
  607MOL0     H81921   5.030  12.401   8.484  0.2198  1.3466  0.6434
  607MOL0     H81922   5.068  12.390   8.661 -4.9655  2.6262 -0.7911
  607MOL0     H81923   5.162  12.182   8.542 -0.8865  1.3470  3.3662
  607MOL0     H81924   5.211  12.276   8.411  2.4820 -1.6316 -1.1092
  607MOL0     H81925   4.682  12.544   8.193 -0.4912 -1.0205 -1.9003
  607MOL0     H81926   4.609  12.336   8.116  0.7930  1.5766  0.8641
  607MOL0     H81927   4.217  12.318   7.694  2.2482 -0.0901  0.9112
  607MOL0     H81928   4.146  12.115   7.555 -0.5587  1.1106  1.2781
  607MOL0     H81929   4.424  10.329   6.792 -0.9275  1.1705  0.0908
  607MOL0     H81930   4.658  10.270   6.745 -1.6793 -0.6364 -0.5520
  607MOL0     H81931   5.062  10.259   6.762 -1.1616 -1.3797  0.9457
  607MOL0     H81932   5.300  10.214   6.705 -2.0189  3.4144 -2.0456
  607MOL0     H81933   5.489  10.349   6.724 -1.5082 -1.8033  1.0206
  607MOL0     H81934   5.526  10.189   6.682 -0.4979  1.0852 -0.2270
  607MOL0     H81935   5.716  10.281   6.875 -1.6075  2.6015  0.1083
  607MOL0     H81936   5.712  10.386   6.736  0.3305  1.3128  2.4875
  607MOL0     H81937   5.791  10.219   6.578  2.1724  2.5342  0.1511
  607MOL0     H81938   5.766  10.102   6.716 -1.1371  0.6651  0.6559
  607MOL0     H81939   5.953  10.341   6.752 -1.3496  1.1345 -3.0219
  607MOL0     H81940   5.956  10.172   6.831 -1.3564 -1.4008 -1.7485
  607MOL0     H81941   6.175  10.129   6.470  1.0446 -0.8001  1.7250
  607MOL0     H81942   5.400  10.277   7.111 -0.6264 -1.6949  0.2107
  607MOL0     H81943   5.233  10.219   7.275 -2.0863  0.2514  2.4135
  607MOL0     H81944   5.138  10.368   7.270 -3.9772 -2.1524  2.7383
  607MOL0     H81945   5.060  10.230   7.242  1.4210 -2.9488  1.1322
  608MOL0     O81946   1.544   0.187   1.933 -0.2962 -0.0693 -0.0191
  608MOL0     C81947   1.450   0.145   1.868  0.1839  0.9499 -0.2418
  608MOL0     O81948   1.357   0.048   1.908 -0.9924 -0.1173 -0.7586
  608MOL0     C81949   1.366   0.005   2.038 -0.0121 -0.2546 -0.6807
  608MOL0     C81950   1.236  -0.032   2.097 -0.2621 -0.3712 -0.5429
  608MOL0     C81951   1.225  -0.059   2.236 -0.6791  0.6014 -0.3386
  608MOL0     C81952   1.340  -0.060   2.316 -0.8699 -0.4459 -0.0487
  608MOL0     O81953   1.345  -0.101   2.447 -0.1443  0.2358  0.1070
  608MOL0     C81954   1.227  -0.141   2.520 -0.1974 -0.3300 -0.2765
  608MOL0     C81955   1.189  -0.297   2.503 -0.1352 -0.7416  0.0559
  608MOL0     C81956   1.033  -0.303   2.484  0.1803  0.1983 -0.3626
  608MOL0     C81957   0.977  -0.439   2.495  0.4710  0.7981  0.0827
  608MOL0     C81958   0.830  -0.446   2.443 -0.5656  0.6938 -0.4446
  608MOL0     C81959   0.772  -0.582   2.488 -0.2974  0.3495 -0.3886
  608MOL0     C81960   0.653  -0.628   2.404 -0.3840 -0.8792  0.0079
  608MOL0     C81961   0.617  -0.767   2.461 -0.8130 -0.2921  0.2652
  608MOL0     N81962   0.504  -0.822   2.399  0.1821  0.5326 -0.1875
  608MOL0     C81963   0.442  -0.789   2.273  0.0858 -0.5510 -0.3258
  608MOL0     C81964   0.359  -0.896   2.248 -0.8269 -0.1412 -0.4151
  608MOL0     C81965   0.274  -0.906   2.119 -0.3480 -0.4650  0.1473
  608MOL0     C81966   0.135  -0.867   2.141  0.2632 -0.1535  0.4650
  608MOL0     C81967   0.047  -0.984   2.185  0.4362  0.3045 -0.1006
  608MOL0     C81968  -0.093  -0.938   2.186  1.0313  0.9195  0.2153
  608MOL0     O81969  -0.172  -1.034   2.272  0.5177 -0.1016  0.5102
  608MOL0     C81970  -0.213  -1.154   2.217 -0.2819 -0.1618 -0.1467
  608MOL0     C81971  -0.218  -1.270   2.301 -0.0972 -0.4737 -0.0685
  608MOL0     C81972  -0.245  -1.398   2.244  0.2558  0.4558  1.1329
  608MOL0     C81973  -0.280  -1.413   2.114  0.9704  0.9648  0.6391
  608MOL0     C81974  -0.294  -1.546   2.045  0.9008  0.3775 -0.3787
  608MOL0     O81975  -0.336  -1.533   1.915  0.4245 -0.1751 -0.0526
  608MOL0     C81976  -0.362  -1.653   1.852  0.0900  0.7262  0.6273
  608MOL0     C81977  -0.494  -1.675   1.815  0.1479  0.0184  0.0450
  608MOL0     C81978  -0.525  -1.773   1.727  0.3379  0.3336  1.4443
  608MOL0     C81979  -0.425  -1.858   1.662  0.7516 -0.0869  0.5709
  608MOL0     O81980  -0.473  -1.957   1.578 -0.6683 -1.4139  0.0509
  608MOL0     C81981  -0.398  -2.019   1.479  0.3723  0.8277  0.2658
  608MOL0     C81982  -0.480  -2.120   1.416  0.4492 -0.1554  0.3228
  608MOL0     C81983  -0.532  -2.067   1.283  1.3403  0.6321 -1.0012
  608MOL0     C81984  -0.618  -2.178   1.223  1.4162  0.8425  0.4987
  608MOL0     C81985  -0.659  -2.143   1.072  0.3878 -0.9330 -0.2295
  608MOL0     C81986  -0.765  -2.237   1.028  0.0751  0.1954  0.0807
  608MOL0     C81987  -0.755  -2.240   0.877 -0.3078  0.6176 -0.0405
  608MOL0     C81988  -0.862  -2.331   0.824 -1.5833  0.9726  0.2352
  608MOL0    Cl81989  -1.021  -2.276   0.866 -0.3029 -0.4306 -0.2578
  608MOL0     C81990  -0.293  -1.842   1.710  0.3431  0.6679 -0.3695
  608MOL0     C81991  -0.256  -1.742   1.802 -0.0589 -0.1101 -0.0443
  608MOL0     O81992  -0.298  -1.654   2.108  0.2516  0.5918 -0.5605
  608MOL0     C81993  -0.274  -1.298   2.034 -0.7993 -0.1750  0.2851
  608MOL0     C81994  -0.243  -1.174   2.082  0.9687 -0.8240 -0.3103
  608MOL0     N81995   0.368  -0.992   2.347  0.7922  0.6820 -0.5012
  608MOL0     N81996   0.447  -0.947   2.434  0.0480 -0.2412 -0.0001
  608MOL0     C81997   1.461  -0.033   2.255 -0.3944 -0.4677  0.8641
  608MOL0     C81998   1.478  -0.002   2.125 -0.3637 -0.1177 -0.6340
  608MOL0     C81999   1.435   0.180   1.720  0.3233 -0.3576 -0.0495
  608MOL0     C82000   1.392   0.080   1.623 -0.5225  0.5370 -0.5890
  608MOL0     C82001   1.379   0.111   1.489 -0.3810  0.2315  0.6206
  608MOL0     C82002   1.380   0.248   1.452 -0.0965 -0.0288  0.4654
  608MOL0     O82003   1.341   0.281   1.326  0.5251 -0.1003 -0.6514
  608MOL0     C82004   1.280   0.193   1.240  0.3889 -0.0346  0.1040
  608MOL0     C82005   1.391   0.137   1.146 -0.1747 -0.2551  0.2734
  608MOL0     C82006   1.382  -0.008   1.120 -0.5742 -0.4495 -0.6173
  608MOL0     C82007   1.524  -0.066   1.091  0.9715 -0.3129 -0.9704
  608MOL0     C82008   1.559  -0.034   0.955  0.9764 -0.2083  0.4313
  608MOL0     C82009   1.584  -0.033   0.839 -1.1086  1.3341 -0.0383
  608MOL0     C82010   1.408   0.347   1.547 -0.5550  0.2310 -0.6753
  608MOL0     C82011   1.455   0.316   1.679 -0.2723  0.0944  0.8082
  608MOL0     C82012   1.512   0.434   1.763 -0.1525 -0.8744  0.3971
  608MOL0     H82013   1.148  -0.029   2.034 -1.0167 -1.1883  0.4235
  608MOL0     H82014   1.128  -0.081   2.279  0.8080 -2.5639  1.7508
  608MOL0     H82015   1.250  -0.130   2.626  0.6918 -2.2635 -0.2153
  608MOL0     H82016   1.144  -0.073   2.502 -1.6335 -2.1730 -0.9148
  608MOL0     H82017   1.228  -0.365   2.579 -4.0787 -2.5490  0.7029
  608MOL0     H82018   1.235  -0.338   2.413  1.5666 -0.8014  0.9140
  608MOL0     H82019   1.015  -0.277   2.379  0.7650  1.4663 -0.1593
  608MOL0     H82020   0.978  -0.230   2.545 -0.2049 -1.2848  1.1391
  608MOL0     H82021   1.037  -0.498   2.426 -1.0981  1.1472 -1.6397
  608MOL0     H82022   0.987  -0.484   2.594 -3.6500  0.2831  0.4284
  608MOL0     H82023   0.772  -0.364   2.487 -2.1189  1.5722 -3.8515
  608MOL0     H82024   0.840  -0.438   2.335  1.8132 -1.1238 -0.4459
  608MOL0     H82025   0.857  -0.648   2.467 -1.1055 -0.9210  0.2160
  608MOL0     H82026   0.750  -0.589   2.595  1.8910 -0.7848  0.0535
  608MOL0     H82027   0.679  -0.641   2.299 -0.9953 -0.2453 -0.2226
  608MOL0     H82028   0.570  -0.558   2.396  0.8990  0.5170 -2.0078
  608MOL0     H82029   0.693  -0.840   2.433 -0.0820  0.6499 -0.2504
  608MOL0     H82030   0.601  -0.763   2.569 -0.2952 -0.7320  0.3589
  608MOL0     H82031   0.448  -0.706   2.205 -0.6657 -1.0337 -0.9994
  608MOL0     H82032   0.316  -0.848   2.036  2.6506  0.7890  2.3615
  608MOL0     H82033   0.289  -1.010   2.088  0.1859 -0.4980  0.4885
  608MOL0     H82034   0.131  -0.789   2.218 -3.9857 -1.3943  1.7959
  608MOL0     H82035   0.087  -0.823   2.053  2.0599  2.5003  0.7179
  608MOL0     H82036   0.073  -1.017   2.286  1.6123 -3.2769 -1.4252
  608MOL0     H82037   0.056  -1.070   2.119 -1.8069 -0.4847  0.5561
  608MOL0     H82038  -0.134  -0.919   2.086 -1.2092 -1.3211  0.6075
  608MOL0     H82039  -0.091  -0.847   2.247  1.1157  0.2581  1.2195
  608MOL0     H82040  -0.197  -1.266   2.407  3.8535 -1.4833 -0.6372
  608MOL0     H82041  -0.244  -1.486   2.307  1.1428 -1.1882 -1.0697
  608MOL0     H82042  -0.581  -1.618   1.848 -0.0766  0.6716 -1.5564
  608MOL0     H82043  -0.630  -1.783   1.704  0.9073 -2.0141 -0.5812
  608MOL0     H82044  -0.352  -1.945   1.413  0.6759  0.4177  0.0177
  608MOL0     H82045  -0.318  -2.070   1.533 -0.8121 -0.2052  1.0891
  608MOL0     H82046  -0.429  -2.214   1.393 -2.9007 -2.4268  1.4301
  608MOL0     H82047  -0.564  -2.142   1.482  1.8459  0.6189  2.4388
  608MOL0     H82048  -0.583  -1.970   1.290  0.2024 -0.0635  0.8911
  608MOL0     H82049  -0.442  -2.057   1.220  1.0480 -1.5588 -1.8605
  608MOL0     H82050  -0.712  -2.186   1.279  1.7898  0.3594  1.0780
  608MOL0     H82051  -0.561  -2.271   1.225 -1.9304 -1.4381 -0.3539
  608MOL0     H82052  -0.567  -2.135   1.013 -1.0703  2.5230 -2.3460
  608MOL0     H82053  -0.708  -2.045   1.062 -0.3531 -0.9668  2.2755
  608MOL0     H82054  -0.745  -2.339   1.063 -3.5516  0.0130  2.1573
  608MOL0     H82055  -0.863  -2.204   1.062  1.1515  2.5491  1.1328
  608MOL0     H82056  -0.664  -2.285   0.836  0.9629  1.2506  1.9077
  608MOL0     H82057  -0.766  -2.144   0.826 -2.6723 -0.5650 -1.9985
  608MOL0     H82058  -0.852  -2.321   0.715 -1.4846 -0.6490  0.0725
  608MOL0     H82059  -0.841  -2.436   0.848  2.1229  0.4252 -3.9242
  608MOL0     H82060  -0.209  -1.906   1.687  0.0261  0.1474 -0.0757
  608MOL0     H82061  -0.157  -1.747   1.845  1.4933 -2.8663 -3.4226
  608MOL0     H82062  -0.292  -1.304   1.927 -0.8802  0.8726  0.2292
  608MOL0     H82063  -0.243  -1.079   2.030  1.9456 -1.2127 -1.0537
  608MOL0     H82064   1.544  -0.058   2.320 -0.5785  0.9362  1.6781
  608MOL0     H82065   1.583   0.018   2.105  0.9135 -2.6296  2.6923
  608MOL0     H82066   1.378  -0.017   1.669 -1.2123  1.0178  0.2481
  608MOL0     H82067   1.351   0.033   1.419 -1.8452  1.7783 -0.6004
  608MOL0     H82068   1.214   0.253   1.176 -1.3199 -1.1520  0.7410
  608MOL0     H82069   1.216   0.127   1.300  3.8479 -2.6890  1.2265
  608MOL0     H82070   1.487   0.171   1.185  0.3763 -0.4856 -0.8483
  608MOL0     H82071   1.381   0.175   1.045 -2.7184 -1.5656 -0.0478
  608MOL0     H82072   1.320  -0.019   1.030 -2.4495  1.0633  0.4094
  608MOL0     H82073   1.336  -0.064   1.203 -2.9753 -0.8226 -2.0914
  608MOL0     H82074   1.590  -0.024   1.167  1.0997  2.0278 -2.2899
  608MOL0     H82075   1.511  -0.173   1.111  1.8861 -0.3250 -0.3643
  608MOL0     H82076   1.583  -0.013   0.733  1.2785 -0.4129 -0.4663
  608MOL0     H82077   1.407   0.452   1.521  3.5970  1.2242  2.1759
  608MOL0     H82078   1.618   0.428   1.740 -0.3908  0.0763 -1.0909
  608MOL0     H82079   1.485   0.530   1.718 -0.2329 -0.8672  0.4608
  608MOL0     H82080   1.492   0.436   1.871 -0.3374  1.0090  0.3623
  609MOL0     O82081   9.579  11.005   9.185  0.5558 -0.4374  0.0666
  609MOL0     C82082   9.524  10.921   9.105 -0.0039 -0.1881  0.7300
  609MOL0     O82083   9.463  10.962   8.991  0.3797 -0.7786 -0.1057
  609MOL0     C82084   9.474  11.096   8.961 -0.4170  0.0107  1.0892
  609MOL0     C82085   9.597  11.139   8.910 -1.3145 -0.2008 -0.6110
  609MOL0     C82086   9.613  11.258   8.841  0.3325 -0.5085 -0.8788
  609MOL0     C82087   9.499  11.333   8.802 -0.3430 -0.6017  0.5578
  609MOL0     O82088   9.502  11.444   8.717 -0.2343 -0.3549 -0.5775
  609MOL0     C82089   9.631  11.504   8.690 -0.8950 -0.0563 -0.0282
  609MOL0     C82090   9.618  11.650   8.658  0.6162 -0.0743 -1.1415
  609MOL0     C82091   9.575  11.739   8.777 -0.6064 -0.6434  0.8971
  609MOL0     C82092   9.630  11.884   8.777 -0.0398 -0.5301 -0.0170
  609MOL0     C82093   9.561  11.958   8.895 -0.0552 -0.0319  0.4195
  609MOL0     C82094   9.622  12.099   8.919 -0.0946  0.3272 -1.0785
  609MOL0     C82095   9.517  12.192   8.984  0.9002 -0.0146  1.0525
  609MOL0     C82096   9.496  12.170   9.140 -0.2478 -0.5264  0.1694
  609MOL0     N82097   9.402  12.269   9.185 -0.3112  0.2825  0.1479
  609MOL0     C82098   9.440  12.386   9.242 -1.5562  0.5050 -1.1792
  609MOL0     C82099   9.334  12.447   9.297 -0.1730 -0.0948 -0.4143
  609MOL0     C82100   9.311  12.570   9.380 -1.6772 -0.0348  0.2003
  609MOL0     C82101   9.328  12.532   9.525  0.7439  0.0302 -0.4827
  609MOL0     C82102   9.307  12.660   9.609 -0.8074 -0.1905  0.5919
  609MOL0     C82103   9.318  12.638   9.765  0.1457  0.3377  1.2753
  609MOL0     O82104   9.374  12.762   9.815  0.4256  0.8330  0.1636
  609MOL0     C82105   9.505  12.796   9.787 -0.2348  0.0607 -0.0186
  609MOL0     C82106   9.615  12.712   9.816 -0.0949 -0.2116 -0.3364
  609MOL0     C82107   9.748  12.744   9.789  0.4247  0.4521  0.5031
  609MOL0     C82108   9.777  12.865   9.719  0.0457  0.2964 -1.6271
  609MOL0     C82109   9.909  12.899   9.688 -0.3915 -0.3236  0.3149
  609MOL0     O82110   9.923  13.010   9.609  0.6866 -0.0321 -0.2716
  609MOL0     C82111  10.041  13.064   9.569  0.4085  0.3723 -0.2720
  609MOL0     C82112  10.161  12.985   9.557  1.1894 -0.6249  0.7578
  609MOL0     C82113  10.278  13.044   9.525 -0.3034 -0.7273  0.9945
  609MOL0     C82114  10.294  13.185   9.506 -0.2579  0.5070 -0.7271
  609MOL0     O82115  10.408  13.240   9.452 -0.1030  0.3735 -0.2990
  609MOL0     C82116  10.510  13.235   9.547 -0.4132 -0.0854 -0.4572
  609MOL0     C82117  10.637  13.317   9.491  1.1938  0.0199 -0.2743
  609MOL0     C82118  10.611  13.472   9.482 -0.8096 -0.7469 -0.2464
  609MOL0     C82119  10.742  13.550   9.445  0.0618  0.1855  0.3815
  609MOL0     C82120  10.700  13.696   9.416 -0.9465 -0.3395  0.4268
  609MOL0     C82121  10.827  13.784   9.395  0.1266  0.9868  0.3564
  609MOL0     C82122  10.768  13.924   9.362 -0.3114 -0.0386 -0.1586
  609MOL0     C82123  10.863  14.041   9.400 -0.9264 -0.3373  0.8936
  609MOL0    Cl82124  11.015  14.044   9.280 -0.7885  0.0600 -0.1280
  609MOL0     C82125  10.178  13.258   9.507  0.5519 -0.0858  0.4549
  609MOL0     C82126  10.052  13.200   9.541 -0.5929 -0.5119 -0.5708
  609MOL0     O82127   9.994  12.843   9.746 -0.1476 -0.3286  0.3658
  609MOL0     C82128   9.659  12.956   9.700 -0.7043  0.2708 -0.1508
  609MOL0     C82129   9.529  12.920   9.728 -0.7205  0.4995  0.2492
  609MOL0     N82130   9.225  12.368   9.252 -0.0718  0.5337  0.2467
  609MOL0     N82131   9.266  12.258   9.193  0.2372  0.3472 -0.2443
  609MOL0     C82132   9.374  11.291   8.838  0.1193 -0.0497  0.2369
  609MOL0     C82133   9.362  11.175   8.918 -0.1142 -0.2152 -0.1741
  609MOL0     C82134   9.523  10.779   9.157  0.0182 -0.0893  0.3731
  609MOL0     C82135   9.622  10.735   9.246  0.2536  0.0879  0.6507
  609MOL0     C82136   9.627  10.605   9.300 -0.5701 -0.3852 -0.3041
  609MOL0     C82137   9.534  10.504   9.269 -0.2808  0.1669  1.0182
  609MOL0     O82138   9.535  10.371   9.303 -0.3205  0.5816  0.0234
  609MOL0     C82139   9.620  10.322   9.403 -0.0236 -0.2358 -0.0087
  609MOL0     C82140   9.546  10.341   9.529  0.6628  0.0382 -0.8190
  609MOL0     C82141   9.647  10.297   9.631  1.0960  0.2858 -0.3223
  609MOL0     C82142   9.592  10.291   9.772 -0.3194 -0.2042  0.2080
  609MOL0     C82143   9.483  10.194   9.783 -0.7377  0.7134 -0.6652
  609MOL0     C82144   9.378  10.126   9.792  0.3010 -0.3601  0.2564
  609MOL0     C82145   9.444  10.548   9.161  0.2175  0.1952 -0.8035
  609MOL0     C82146   9.432  10.680   9.104 -0.3440  0.5521 -0.3364
  609MOL0     C82147   9.346  10.702   8.985  0.7054 -0.0698  0.7913
  609MOL0     H82148   9.693  11.093   8.931  0.6871  4.6537  2.7894
  609MOL0     H82149   9.714  11.288   8.815 -0.0316 -0.0080 -1.7572
  609MOL0     H82150   9.694  11.512   8.779 -3.2116  1.0881  1.6007
  609MOL0     H82151   9.681  11.467   8.600 -2.2524 -2.1377  0.0023
  609MOL0     H82152   9.553  11.661   8.571 -1.5563  1.1313  0.5274
  609MOL0     H82153   9.712  11.698   8.629  0.1309  1.1251 -0.8208
  609MOL0     H82154   9.597  11.689   8.872  0.9164 -1.2987  0.2316
  609MOL0     H82155   9.469  11.735   8.750 -0.4184 -1.4114  0.2410
  609MOL0     H82156   9.739  11.883   8.784  0.3878  2.4412 -3.6209
  609MOL0     H82157   9.614  11.929   8.679  1.5870 -1.7711 -0.9060
  609MOL0     H82158   9.458  11.967   8.858 -0.5379 -1.2555  1.3779
  609MOL0     H82159   9.559  11.900   8.988  2.4353  1.6602  1.6365
  609MOL0     H82160   9.711  12.086   8.981 -1.1055 -0.1660  0.3004
  609MOL0     H82161   9.654  12.127   8.818  1.1077  1.4873 -0.3983
  609MOL0     H82162   9.421  12.185   8.932  0.7455  2.4540  0.8948
  609MOL0     H82163   9.550  12.296   8.972 -1.4061  0.6746  0.0103
  609MOL0     H82164   9.461  12.069   9.159  1.6540 -1.0339  1.2524
  609MOL0     H82165   9.590  12.185   9.194  2.6407 -1.3585 -4.1505
  609MOL0     H82166   9.541  12.424   9.247 -0.6882 -1.2880 -3.2823
  609MOL0     H82167   9.380  12.644   9.340  2.2361 -3.2879  0.2801
  609MOL0     H82168   9.212  12.605   9.350 -1.1052 -0.8478 -3.1279
  609MOL0     H82169   9.253  12.457   9.552 -0.8296  0.6730 -2.7757
  609MOL0     H82170   9.428  12.494   9.547  1.0183  1.0726  0.1367
  609MOL0     H82171   9.204  12.697   9.598 -1.2137 -1.1367  1.0781
  609MOL0     H82172   9.369  12.746   9.581  0.6323  0.2861  4.6329
  609MOL0     H82173   9.382  12.552   9.786 -0.9037 -1.3469 -1.8063
  609MOL0     H82174   9.217  12.634   9.807 -0.6612 -0.0461 -0.5804
  609MOL0     H82175   9.605  12.624   9.879  4.0056 -0.4671  0.2247
  609MOL0     H82176   9.824  12.670   9.811 -1.3053 -1.1356  1.4438
  609MOL0     H82177  10.164  12.877   9.568  3.5154 -1.0952 -2.7501
  609MOL0     H82178  10.360  12.975   9.511 -0.8473 -1.0074 -1.1569
  609MOL0     H82179  10.479  13.277   9.643 -2.6690  0.5017 -1.3940
  609MOL0     H82180  10.529  13.131   9.576  0.3750  0.6132  1.7803
  609MOL0     H82181  10.721  13.283   9.551 -0.4650 -2.2495  0.9166
  609MOL0     H82182  10.665  13.286   9.390  1.6664 -3.9835  0.9050
  609MOL0     H82183  10.532  13.476   9.405 -1.6343 -1.4836  0.5325
  609MOL0     H82184  10.569  13.507   9.577  1.9523  1.2486  0.3430
  609MOL0     H82185  10.799  13.514   9.358  0.0052  2.2405 -0.5571
  609MOL0     H82186  10.812  13.543   9.528  1.6516 -1.6970 -1.0157
  609MOL0     H82187  10.641  13.740   9.496  0.7904 -1.4103  2.4012
  609MOL0     H82188  10.629  13.698   9.333 -2.6948 -0.9796  1.8540
  609MOL0     H82189  10.894  13.789   9.481 -2.8173 -1.4262  3.0069
  609MOL0     H82190  10.877  13.740   9.308  0.2625 -1.4216  1.5916
  609MOL0     H82191  10.676  13.952   9.414  0.5102  1.2118  0.6686
  609MOL0     H82192  10.745  13.937   9.256 -2.4295  2.0653  0.4860
  609MOL0     H82193  10.806  14.134   9.383 -1.6111 -1.2412 -2.4124
  609MOL0     H82194  10.896  14.033   9.504 -1.2013 -2.8719  0.8285
  609MOL0     H82195  10.184  13.362   9.478  0.9480 -0.7557 -2.2202
  609MOL0     H82196   9.953  13.244   9.551 -1.0500 -1.9741  2.6851
  609MOL0     H82197   9.678  13.049   9.647  0.5307 -0.0178 -0.2486
  609MOL0     H82198   9.441  12.983   9.713 -1.8517 -1.1787 -0.4503
  609MOL0     H82199   9.293  11.361   8.821 -0.9929 -0.7679  2.1595
  609MOL0     H82200   9.263  11.139   8.943 -1.3647  2.1892 -1.2908
  609MOL0     H82201   9.694  10.804   9.287  2.7852 -1.1453 -1.4499
  609MOL0     H82202   9.703  10.581   9.373  0.4271  0.9861 -0.8526
  609MOL0     H82203   9.717  10.372   9.415  0.0940 -0.4183 -0.1848
  609MOL0     H82204   9.627  10.215   9.381  1.0264 -0.5987  1.8141
  609MOL0     H82205   9.454  10.285   9.516 -1.3169  2.6921  0.7391
  609MOL0     H82206   9.514  10.444   9.552  2.7763  0.2467  1.6748
  609MOL0     H82207   9.729  10.368   9.623  1.2315  0.8259  3.8102
  609MOL0     H82208   9.676  10.194   9.606 -2.1878 -1.7372  3.0365
  609MOL0     H82209   9.670  10.262   9.842 -0.8495  0.4604  1.1036
  609MOL0     H82210   9.553  10.391   9.793 -0.7071 -0.6564  1.7286
  609MOL0     H82211   9.292  10.067   9.814  1.1151 -1.9525 -0.6660
  609MOL0     H82212   9.381  10.472   9.116  0.4442  0.1710 -1.0827
  609MOL0     H82213   9.308  10.604   8.953  1.6883  0.2729 -1.6562
  609MOL0     H82214   9.261  10.767   9.006  1.1788  0.4251  1.2027
  609MOL0     H82215   9.408  10.743   8.904  1.5768  1.5027  2.1976
  610MOL0     O82216  11.343   2.557   5.906  0.4890  0.2431  0.3761
  610MOL0     C82217  11.404   2.535   6.009 -0.2458  0.3873  0.2556
  610MOL0     O82218  11.517   2.463   6.015  0.2538 -0.0590 -0.5422
  610MOL0     C82219  11.576   2.416   5.893  0.7031 -0.5728  0.4336
  610MOL0     C82220  11.700   2.457   5.863 -0.8097 -0.2045  0.0429
  610MOL0     C82221  11.762   2.403   5.743  0.0999  0.4952 -0.0880
  610MOL0     C82222  11.702   2.321   5.652 -1.0589  0.5078 -0.8944
  610MOL0     O82223  11.766   2.276   5.538 -1.2762  0.9848 -0.0794
  610MOL0     C82224  11.878   2.179   5.559 -0.8044  0.6537  0.7330
  610MOL0     C82225  12.025   2.245   5.550 -0.8673 -0.6825  1.2568
  610MOL0     C82226  12.140   2.148   5.559  0.6543  0.1802  1.1510
  610MOL0     C82227  12.145   2.051   5.442 -0.1728 -0.0758 -0.6512
  610MOL0     C82228  12.233   1.932   5.476 -0.3212  1.1506 -1.0132
  610MOL0     C82229  12.173   1.845   5.583  0.4373  0.9714 -0.9901
  610MOL0     C82230  12.206   1.700   5.561  0.5685  0.4116 -0.0460
  610MOL0     C82231  12.362   1.684   5.570 -0.3414  1.1776 -0.0844
  610MOL0     N82232  12.410   1.549   5.533  0.3685  0.0424 -0.0755
  610MOL0     C82233  12.442   1.446   5.621 -0.3578 -0.1325 -0.1627
  610MOL0     C82234  12.485   1.353   5.545 -0.4415 -0.3670  0.3470
  610MOL0     C82235  12.558   1.229   5.592  0.6976  0.3305 -0.1952
  610MOL0     C82236  12.696   1.257   5.649  0.6608 -0.1874 -0.0386
  610MOL0     C82237  12.730   1.155   5.769  0.5324  0.0884  0.1833
  610MOL0     C82238  12.640   1.180   5.893 -0.2734  0.8165 -0.5510
  610MOL0     O82239  12.664   1.310   5.945  0.0012 -0.0662 -0.5971
  610MOL0     C82240  12.757   1.313   6.049  0.0189  0.0534  0.4150
  610MOL0     C82241  12.895   1.294   6.036  0.5623  0.4772 -0.2853
  610MOL0     C82242  12.984   1.283   6.144  0.5313 -1.0016  0.1748
  610MOL0     C82243  12.932   1.278   6.275 -0.8634 -0.0060 -0.3781
  610MOL0     C82244  13.027   1.263   6.393  0.3198 -0.0627  0.5664
  610MOL0     O82245  12.964   1.265   6.518  0.0591 -0.5663 -0.3642
  610MOL0     C82246  13.024   1.223   6.638  0.2384  0.0118  0.8535
  610MOL0     C82247  13.147   1.156   6.638  0.1798 -0.4778 -0.2553
  610MOL0     C82248  13.203   1.129   6.760 -0.1142 -0.0552 -0.4825
  610MOL0     C82249  13.138   1.152   6.885 -0.6748  0.8957  0.0111
  610MOL0     O82250  13.206   1.108   6.998  0.7171 -0.4966  1.0436
  610MOL0     C82251  13.158   1.156   7.120  0.2125 -0.0662  1.0804
  610MOL0     C82252  13.244   1.087   7.224 -0.6018 -0.5010  0.1546
  610MOL0     C82253  13.385   1.121   7.218  0.1110 -0.7055 -0.2676
  610MOL0     C82254  13.462   1.065   7.338  0.2321  0.0082  0.5397
  610MOL0     C82255  13.622   1.058   7.329  1.4427 -0.1645 -0.6836
  610MOL0     C82256  13.687   1.201   7.321  0.2165  0.2337 -0.3561
  610MOL0     C82257  13.666   1.296   7.440 -0.1699 -0.9524  0.3674
  610MOL0     C82258  13.656   1.440   7.396  1.1680 -0.3110 -0.6829
  610MOL0    Cl82259  13.822   1.483   7.350 -0.2877 -0.3068 -0.0800
  610MOL0     C82260  13.011   1.207   6.878  0.4262 -0.0679 -0.2472
  610MOL0     C82261  12.961   1.245   6.761 -0.3077 -0.2409 -0.4330
  610MOL0     O82262  13.149   1.254   6.366  0.4734 -0.2074 -0.2155
  610MOL0     C82263  12.803   1.310   6.288  1.0838 -0.1743  0.1191
  610MOL0     C82264  12.709   1.327   6.178 -0.5837 -1.1780 -1.5608
  610MOL0     N82265  12.487   1.394   5.406  0.1619  0.8291 -0.0360
  610MOL0     N82266  12.428   1.502   5.407 -0.0680 -0.1744  0.5392
  610MOL0     C82267  11.582   2.269   5.699  0.1088 -0.2648  0.6799
  610MOL0     C82268  11.514   2.320   5.812  0.6747 -0.4637 -0.0634
  610MOL0     C82269  11.347   2.585   6.139 -0.8266 -0.5468 -0.4404
  610MOL0     C82270  11.208   2.565   6.154  0.2727  0.3928 -0.6205
  610MOL0     C82271  11.153   2.615   6.271 -0.0033 -0.2784 -0.2599
  610MOL0     C82272  11.218   2.692   6.371 -0.0497 -0.3628  0.9850
  610MOL0     O82273  11.146   2.753   6.472  0.6765 -0.2275  0.3592
  610MOL0     C82274  11.047   2.855   6.425 -0.4614  0.1810 -1.7859
  610MOL0     C82275  10.911   2.796   6.404 -0.5682  0.4159  0.2378
  610MOL0     C82276  10.804   2.911   6.393  0.5232 -0.1280  0.1387
  610MOL0     C82277  10.673   2.865   6.327 -0.6861  0.1103  0.4169
  610MOL0     C82278  10.621   2.750   6.405  0.3482  0.7785  0.5372
  610MOL0     C82279  10.570   2.653   6.470 -0.4786 -0.5620 -0.6757
  610MOL0     C82280  11.357   2.703   6.354  0.5070  0.2701  0.2885
  610MOL0     C82281  11.421   2.652   6.241  0.2753  0.1819  0.5262
  610MOL0     C82282  11.574   2.661   6.224 -0.8081 -0.8177  0.8003
  610MOL0     H82283  11.760   2.519   5.929  1.1352 -0.3199 -1.5277
  610MOL0     H82284  11.852   2.461   5.725 -0.1090  0.9575  0.3377
  610MOL0     H82285  11.868   2.136   5.658 -1.2192  1.6091  1.1221
  610MOL0     H82286  11.874   2.104   5.480  1.8762  0.8433  0.3277
  610MOL0     H82287  12.062   2.325   5.615  3.0863  0.0070 -1.4839
  610MOL0     H82288  12.042   2.290   5.452  0.0967 -0.7079  1.4071
  610MOL0     H82289  12.114   2.092   5.650 -0.0336 -1.9695 -0.2768
  610MOL0     H82290  12.234   2.201   5.548  2.0070 -2.2837 -0.0616
  610MOL0     H82291  12.045   2.022   5.408 -1.5800  2.4768  0.9669
  610MOL0     H82292  12.185   2.105   5.356 -1.3128 -1.3702 -2.0587
  610MOL0     H82293  12.245   1.875   5.383  4.7951 -2.3072  1.2766
  610MOL0     H82294  12.329   1.968   5.515  0.7677 -1.5120 -1.0736
  610MOL0     H82295  12.204   1.880   5.682  1.7548  2.7337 -1.9584
  610MOL0     H82296  12.064   1.852   5.587  0.5672  3.4360  1.0213
  610MOL0     H82297  12.179   1.667   5.461  2.0386  2.7988 -1.3134
  610MOL0     H82298  12.162   1.636   5.638  1.8425  0.3574  0.6691
  610MOL0     H82299  12.425   1.750   5.509  0.5636  0.7831  0.4020
  610MOL0     H82300  12.391   1.698   5.674  1.2104  0.0004 -0.3114
  610MOL0     H82301  12.424   1.448   5.727 -0.8579 -0.8733 -0.2311
  610MOL0     H82302  12.484   1.174   5.651  0.5096 -2.3329 -2.6888
  610MOL0     H82303  12.571   1.164   5.505  3.6190 -2.9989  2.4002
  610MOL0     H82304  12.773   1.243   5.573  2.1158 -0.7035  1.4737
  610MOL0     H82305  12.704   1.358   5.692  1.6776  0.4262 -1.5814
  610MOL0     H82306  12.833   1.171   5.805  0.8852  2.6007 -1.6347
  610MOL0     H82307  12.705   1.059   5.725 -2.1914  0.9708 -0.3591
  610MOL0     H82308  12.667   1.110   5.973  1.9743  1.6960 -0.4599
  610MOL0     H82309  12.533   1.170   5.873 -0.1743  0.5144 -0.9654
  610MOL0     H82310  12.935   1.287   5.936  0.7420  2.0209 -0.3567
  610MOL0     H82311  13.090   1.261   6.132  0.0433 -2.6552 -1.4794
  610MOL0     H82312  13.206   1.126   6.552  0.0273 -1.3258 -0.0737
  610MOL0     H82313  13.300   1.080   6.762  1.4446  2.4837  5.1820
  610MOL0     H82314  13.145   1.264   7.128 -0.7183  0.0857 -1.4195
  610MOL0     H82315  13.054   1.122   7.130  0.2351 -1.3342 -1.7564
  610MOL0     H82316  13.197   1.108   7.321  3.6726  0.7103  2.2257
  610MOL0     H82317  13.239   0.979   7.213  2.3727 -0.7619  0.5210
  610MOL0     H82318  13.431   1.083   7.126 -0.4065 -0.8377 -0.4731
  610MOL0     H82319  13.387   1.231   7.224  3.5722 -0.7342  2.0198
  610MOL0     H82320  13.428   0.961   7.340  2.5321 -0.8944 -1.8864
  610MOL0     H82321  13.433   1.112   7.432  1.3461  0.9176  0.4510
  610MOL0     H82322  13.650   1.001   7.240 -2.9894 -0.6041 -2.0412
  610MOL0     H82323  13.661   0.997   7.411 -5.1588 -1.3054  2.2211
  610MOL0     H82324  13.795   1.197   7.306  0.6248  4.2061  0.4071
  610MOL0     H82325  13.655   1.257   7.232 -3.2491  1.2844  1.3876
  610MOL0     H82326  13.747   1.287   7.513  0.0728 -2.2120 -0.0305
  610MOL0     H82327  13.571   1.261   7.483  0.7155 -2.5679  1.0855
  610MOL0     H82328  13.586   1.451   7.312  1.6481  1.4400 -0.8827
  610MOL0     H82329  13.619   1.508   7.473 -2.8706  0.2727 -2.8370
  610MOL0     H82330  12.963   1.233   6.971  0.8630 -0.8438  0.2017
  610MOL0     H82331  12.865   1.295   6.772  0.5311  1.0750  1.3259
  610MOL0     H82332  12.765   1.321   6.389  0.8091  0.6669 -0.0699
  610MOL0     H82333  12.609   1.360   6.202  1.5923  3.1464  3.5655
  610MOL0     H82334  11.517   2.209   5.636  0.5835  0.6160 -0.7170
  610MOL0     H82335  11.407   2.311   5.825  0.7570  1.3058  2.5884
  610MOL0     H82336  11.141   2.508   6.091  0.4974 -0.2309 -0.3113
  610MOL0     H82337  11.048   2.592   6.283 -0.9383  3.1346 -0.7890
  610MOL0     H82338  11.068   2.898   6.326 -1.1972  0.1417 -1.9649
  610MOL0     H82339  11.045   2.933   6.501 -0.4046 -2.6205  1.3477
  610MOL0     H82340  10.893   2.733   6.492  1.3969 -2.1958 -1.0950
  610MOL0     H82341  10.908   2.739   6.311 -1.3603  0.0438  0.4851
  610MOL0     H82342  10.836   3.002   6.341 -2.4664  0.4105 -0.9949
  610MOL0     H82343  10.759   2.945   6.486 -0.4239 -1.2150  0.1129
  610MOL0     H82344  10.602   2.947   6.336  1.3099  1.8673  0.7248
  610MOL0     H82345  10.687   2.843   6.220 -0.1840  0.0015  0.5005
  610MOL0     H82346  10.528   2.561   6.507 -1.0394 -0.6322 -1.4493
  610MOL0     H82347  11.425   2.756   6.419  0.0400 -1.0205  1.8862
  610MOL0     H82348  11.606   2.752   6.274  1.0693 -0.5139 -0.8378
  610MOL0     H82349  11.629   2.574   6.261 -0.3827 -0.0489  1.9932
  610MOL0     H82350  11.593   2.673   6.117  1.2256 -1.7198  1.0181
  611MOL0     O82351   3.099  11.091   8.533  0.4476  0.1566 -0.4745
  611MOL0     C82352   3.097  11.191   8.463 -0.0502 -0.3239 -0.2242
  611MOL0     O82353   3.190  11.293   8.470 -0.0381 -0.6422 -0.2606
  611MOL0     C82354   3.270  11.304   8.580 -0.1852 -0.2820  0.5774
  611MOL0     C82355   3.406  11.269   8.568  0.3450 -0.6105 -1.0789
  611MOL0     C82356   3.484  11.282   8.684 -0.0787 -1.1672  0.0857
  611MOL0     C82357   3.431  11.341   8.802  0.1218  0.2914 -0.1204
  611MOL0     O82358   3.520  11.348   8.906  0.5968 -0.0145 -0.1711
  611MOL0     C82359   3.474  11.401   9.034  0.6232 -0.4244 -0.3465
  611MOL0     C82360   3.579  11.358   9.136 -0.0571 -0.2350  0.3675
  611MOL0     C82361   3.556  11.444   9.261  0.5355  0.3814  0.3543
  611MOL0     C82362   3.646  11.395   9.376 -0.2766  0.0312 -0.1865
  611MOL0     C82363   3.637  11.457   9.520  0.9063 -0.1473  0.7125
  611MOL0     C82364   3.705  11.598   9.539  0.1925  0.6324 -0.3633
  611MOL0     C82365   3.674  11.638   9.688  1.3307  0.2557 -0.3984
  611MOL0     C82366   3.748  11.764   9.730 -0.3392 -0.7231  0.4514
  611MOL0     N82367   3.712  11.792   9.872  0.2955  0.7993 -0.1641
  611MOL0     C82368   3.744  11.710   9.973  0.6107 -0.0525  0.3818
  611MOL0     C82369   3.683  11.755  10.087 -0.6924 -1.0097 -0.1183
  611MOL0     C82370   3.696  11.686  10.219  0.8415  0.9411  0.5934
  611MOL0     C82371   3.586  11.730  10.327  0.8452 -0.8132 -0.2469
  611MOL0     C82372   3.590  11.887  10.369  0.1978  0.5347  0.8308
  611MOL0     C82373   3.589  11.906  10.520  0.0291  0.0063  0.7572
  611MOL0     O82374   3.702  11.854  10.584 -0.3140  0.1854  0.4402
  611MOL0     C82375   3.808  11.935  10.605 -0.0440 -0.9497 -0.3896
  611MOL0     C82376   3.904  11.872  10.678 -0.5009  0.5241  0.9003
  611MOL0     C82377   4.018  11.941  10.721 -0.0184 -0.5230  0.0782
  611MOL0     C82378   4.031  12.078  10.707  0.4835  0.2163 -1.2538
  611MOL0     C82379   4.138  12.149  10.775 -0.0703 -0.0571  0.2096
  611MOL0     O82380   4.233  12.080  10.848 -0.0012 -0.2227 -1.0805
  611MOL0     C82381   4.353  12.136  10.888 -0.1434  1.0013  0.5428
  611MOL0     C82382   4.352  12.216  11.003 -0.2332 -0.2309  0.6585
  611MOL0     C82383   4.465  12.276  11.062 -0.7124 -0.0169  0.8197
  611MOL0     C82384   4.583  12.252  11.000 -0.0960 -0.6788  0.3951
  611MOL0     O82385   4.691  12.320  11.050 -0.0284 -0.0296  0.8238
  611MOL0     C82386   4.816  12.240  11.040  0.6426 -0.1583  0.5252
  611MOL0     C82387   4.920  12.295  11.145  0.2162 -0.6533 -0.2288
  611MOL0     C82388   5.065  12.241  11.123 -0.0807 -0.7877  0.1204
  611MOL0     C82389   5.075  12.085  11.135  0.1650 -0.9508 -1.1053
  611MOL0     C82390   5.223  12.050  11.147  0.1405 -0.3990  0.5900
  611MOL0     C82391   5.254  11.901  11.132  0.0490  0.4433  0.8880
  611MOL0     C82392   5.202  11.824  11.265 -1.0298  1.2116  0.5825
  611MOL0     C82393   5.260  11.682  11.270 -0.6085 -0.3871 -0.0832
  611MOL0    Cl82394   5.217  11.597  11.116  0.0518 -0.4980  0.1924
  611MOL0     C82395   4.583  12.176  10.880  0.3418 -0.4035 -0.1169
  611MOL0     C82396   4.473  12.098  10.838  0.5730  0.8142 -0.3815
  611MOL0     O82397   4.140  12.271  10.759 -0.6520  0.0806 -0.9934
  611MOL0     C82398   3.929  12.146  10.632 -0.1915 -0.2404 -0.1685
  611MOL0     C82399   3.814  12.081  10.592 -0.2953  0.6677  0.5996
  611MOL0     N82400   3.617  11.874  10.048 -0.3755 -0.7742 -0.1108
  611MOL0     N82401   3.629  11.892   9.919 -0.6016  0.4515 -0.4890
  611MOL0     C82402   3.293  11.372   8.803 -0.1168 -0.5265 -0.2700
  611MOL0     C82403   3.217  11.349   8.697 -0.2301 -0.1799  0.1546
  611MOL0     C82404   2.973  11.210   8.379 -0.4654  1.1665 -0.5218
  611MOL0     C82405   2.871  11.117   8.396 -0.8204  0.3914  0.7065
  611MOL0     C82406   2.748  11.138   8.329  0.0660 -0.5347 -0.2558
  611MOL0     C82407   2.720  11.258   8.267 -0.1871 -0.3748  0.6878
  611MOL0     O82408   2.595  11.282   8.222  0.3194  0.3627 -0.2183
  611MOL0     C82409   2.503  11.178   8.191  0.0424  0.2622 -0.6881
  611MOL0     C82410   2.555  11.109   8.060  0.2093  0.7639  0.5756
  611MOL0     C82411   2.578  11.206   7.944  0.5163 -0.1887  0.5891
  611MOL0     C82412   2.469  11.312   7.916  0.1970  0.3280 -0.4818
  611MOL0     C82413   2.505  11.382   7.784  0.9754  1.1581  0.0867
  611MOL0     C82414   2.541  11.431   7.683  0.3983 -0.4582  0.9016
  611MOL0     C82415   2.812  11.356   8.260  0.3300  0.3151 -0.5110
  611MOL0     C82416   2.939  11.331   8.311 -0.0477  0.4111 -1.1463
  611MOL0     C82417   3.052  11.439   8.283 -0.7636  0.2079 -0.7116
  611MOL0     H82418   3.434  11.231   8.471 -2.7780 -1.1361 -1.8885
  611MOL0     H82419   3.591  11.264   8.680  0.0738 -0.0918 -1.6369
  611MOL0     H82420   3.457  11.509   9.029 -2.3738 -0.7506  0.9613
  611MOL0     H82421   3.375  11.372   9.070 -1.3882  1.6682 -3.6283
  611MOL0     H82422   3.677  11.373   9.090  1.5097 -2.7562  2.5918
  611MOL0     H82423   3.566  11.252   9.156  0.7071 -0.0825  1.8195
  611MOL0     H82424   3.454  11.431   9.301  0.1118 -1.5481 -1.1832
  611MOL0     H82425   3.573  11.548   9.233  0.2582 -0.4832 -3.5751
  611MOL0     H82426   3.644  11.286   9.372 -2.3928  0.0554 -1.5536
  611MOL0     H82427   3.748  11.416   9.343  0.0021 -0.0641  0.6058
  611MOL0     H82428   3.537  11.465   9.563  1.4432  1.0044  1.8244
  611MOL0     H82429   3.694  11.393   9.587 -0.1308 -0.6320  1.1491
  611MOL0     H82430   3.814  11.591   9.535  0.8118  0.5492  6.1416
  611MOL0     H82431   3.678  11.683   9.476 -2.2638  0.4432  0.3291
  611MOL0     H82432   3.680  11.553   9.756 -0.1427 -0.6804 -1.3872
  611MOL0     H82433   3.568  11.660   9.698  1.7183  1.6829  0.9577
  611MOL0     H82434   3.855  11.744   9.723 -0.0730  0.9522 -0.8749
  611MOL0     H82435   3.724  11.856   9.675  1.8214 -2.0820 -3.1030
  611MOL0     H82436   3.790  11.613   9.957 -2.3333 -1.2268 -1.5904
  611MOL0     H82437   3.678  11.581  10.196  2.9770  0.5195  0.6260
  611MOL0     H82438   3.800  11.691  10.252  0.8420 -0.9938  0.9917
  611MOL0     H82439   3.486  11.700  10.293  1.0942  0.0321 -1.7867
  611MOL0     H82440   3.604  11.661  10.410 -0.3486 -2.2956 -1.1472
  611MOL0     H82441   3.508  11.936  10.317  3.3601  1.9356 -3.4449
  611MOL0     H82442   3.682  11.928  10.326 -1.4654  1.0013 -2.6217
  611MOL0     H82443   3.498  11.864  10.562 -1.3431  1.0151 -1.0691
  611MOL0     H82444   3.572  12.011  10.547 -1.4442 -0.5384  2.0594
  611MOL0     H82445   3.900  11.764  10.689  0.9090  0.4500  0.8373
  611MOL0     H82446   4.089  11.890  10.786 -3.3670 -2.8916  2.2121
  611MOL0     H82447   4.257  12.248  11.043 -0.4851  0.4364 -0.4335
  611MOL0     H82448   4.448  12.343  11.145  0.0790  0.4518  0.6127
  611MOL0     H82449   4.789  12.134  11.050 -2.0265  0.3298 -0.6711
  611MOL0     H82450   4.862  12.254  10.942 -2.6768 -1.7712 -1.4298
  611MOL0     H82451   4.936  12.403  11.148  4.0129 -0.9747 -2.8271
  611MOL0     H82452   4.881  12.255  11.239 -0.3985  0.6996  0.1169
  611MOL0     H82453   5.096  12.262  11.020 -2.9751  2.6384 -0.2495
  611MOL0     H82454   5.127  12.288  11.199  3.0535  0.1414 -2.7599
  611MOL0     H82455   5.019  12.050  11.048  0.0980 -1.3317 -0.9113
  611MOL0     H82456   5.031  12.050  11.229 -0.4056  0.0790 -0.9816
  611MOL0     H82457   5.256  12.090  11.243  1.5393  1.3972 -0.5755
  611MOL0     H82458   5.265  12.097  11.058  2.2842 -2.5497  0.3668
  611MOL0     H82459   5.218  11.855  11.040 -3.2841 -1.9264  3.1227
  611MOL0     H82460   5.363  11.903  11.127  0.0226 -0.8345 -2.8232
  611MOL0     H82461   5.092  11.827  11.265 -1.1670 -1.5651  0.3863
  611MOL0     H82462   5.247  11.874  11.351  1.1729  1.5787 -0.7064
  611MOL0     H82463   5.369  11.694  11.282 -0.9762  2.5691  0.9948
  611MOL0     H82464   5.227  11.623  11.357  0.1304  1.0301  1.2019
  611MOL0     H82465   4.668  12.186  10.814  0.0485 -0.3174 -0.4857
  611MOL0     H82466   4.484  12.042  10.746  1.4324 -0.7541  0.6259
  611MOL0     H82467   3.933  12.252  10.608 -0.0171 -0.3782 -0.7648
  611MOL0     H82468   3.739  12.150  10.554 -2.3583 -0.3404  2.6002
  611MOL0     H82469   3.265  11.431   8.890  1.3271 -0.8231  0.4271
  611MOL0     H82470   3.115  11.386   8.696 -1.5654 -3.2232 -3.7849
  611MOL0     H82471   2.889  11.020   8.443 -3.1975  0.0703  1.0964
  611MOL0     H82472   2.683  11.051   8.341  1.2575 -1.3968  0.1663
  611MOL0     H82473   2.405  11.224   8.175 -0.2167 -0.3459 -0.8802
  611MOL0     H82474   2.490  11.104   8.271  0.6180 -0.9394 -1.6813
  611MOL0     H82475   2.472  11.047   8.026  0.9942  0.2449 -0.4647
  611MOL0     H82476   2.641  11.048   8.087 -0.6813 -0.3165  1.0286
  611MOL0     H82477   2.588  11.156   7.847 -1.2838  0.8216 -0.1630
  611MOL0     H82478   2.668  11.266   7.959 -0.3613  2.3453 -2.8732
  611MOL0     H82479   2.366  11.277   7.903 -0.0282  0.3973  0.9776
  611MOL0     H82480   2.456  11.392   7.990 -2.5568  2.6378 -3.1488
  611MOL0     H82481   2.572  11.472   7.589 -2.1985 -1.8554 -0.6601
  611MOL0     H82482   2.784  11.448   8.209 -3.1056 -1.5472 -2.3833
  611MOL0     H82483   3.085  11.493   8.371  1.1303  0.7809 -1.7318
  611MOL0     H82484   3.132  11.385   8.232  0.4890 -2.1789  3.3048
  611MOL0     H82485   3.004  11.522   8.229 -0.2084  0.3626 -0.9642
  612MOL0     O82486   6.473   5.323   9.460 -0.5738  0.0100 -0.9083
  612MOL0     C82487   6.461   5.391   9.565  0.0084  0.4283  0.4379
  612MOL0     O82488   6.544   5.387   9.670 -0.5784  0.4902 -0.1850
  612MOL0     C82489   6.542   5.494   9.758  0.3661 -0.0087 -0.0788
  612MOL0     C82490   6.551   5.625   9.710 -0.3479 -0.1368  0.8277
  612MOL0     C82491   6.561   5.723   9.803  0.5132 -0.2832  0.4399
  612MOL0     C82492   6.570   5.691   9.942  0.0593  0.8331 -0.2353
  612MOL0     O82493   6.599   5.779  10.043  0.6935  0.2821  0.3507
  612MOL0     C82494   6.679   5.889  10.002  0.0294 -0.4219 -0.5341
  612MOL0     C82495   6.759   5.929  10.128 -0.5423 -0.1487 -0.6197
  612MOL0     C82496   6.666   6.010  10.215  1.1104  0.3818 -0.0829
  612MOL0     C82497   6.745   6.088  10.319  0.8215  0.7160 -0.8260
  612MOL0     C82498   6.662   6.210  10.374 -0.0599  0.6080 -0.2737
  612MOL0     C82499   6.570   6.181  10.495 -0.3769  0.5136 -0.0316
  612MOL0     C82500   6.442   6.117  10.452  0.0942  0.3685 -0.0501
  612MOL0     C82501   6.333   6.110  10.564 -0.0008 -0.7805  0.2613
  612MOL0     N82502   6.239   5.998  10.557  0.9941 -0.3971  0.2847
  612MOL0     C82503   6.098   6.009  10.544 -0.4111 -1.2702 -0.7113
  612MOL0     C82504   6.045   5.890  10.550 -0.3024  0.5412  0.2517
  612MOL0     C82505   5.894   5.865  10.548 -0.4763 -0.0028  1.5729
  612MOL0     C82506   5.832   5.885  10.406  0.4224 -0.2169  0.0390
  612MOL0     C82507   5.676   5.903  10.430  0.2252  0.9834  0.0311
  612MOL0     C82508   5.593   5.790  10.363 -0.4885  0.5259 -0.1810
  612MOL0     O82509   5.599   5.668  10.443  0.0579  0.1586  0.5455
  612MOL0     C82510   5.573   5.550  10.373  0.0238  0.3377 -0.2678
  612MOL0     C82511   5.474   5.541  10.284 -0.3083  0.0672  1.0727
  612MOL0     C82512   5.439   5.419  10.221 -0.4482  0.6756  0.3706
  612MOL0     C82513   5.518   5.302  10.262  0.1505  0.1054  0.2049
  612MOL0     C82514   5.476   5.171  10.192  0.2793 -0.6205 -0.1821
  612MOL0     O82515   5.538   5.048  10.243  0.7927 -0.6663 -0.5056
  612MOL0     C82516   5.512   4.940  10.177 -1.0288  0.1499  0.6047
  612MOL0     C82517   5.461   4.827  10.257 -0.4926  0.1641 -0.3211
  612MOL0     C82518   5.434   4.705  10.190  1.0176  0.2192 -0.4519
  612MOL0     C82519   5.476   4.683  10.059 -0.5942 -0.7595  0.1075
  612MOL0     O82520   5.462   4.566   9.993  0.5797 -0.5890  0.4403
  612MOL0     C82521   5.322   4.519   9.995 -0.1018 -0.2955  0.1678
  612MOL0     C82522   5.273   4.446   9.867  0.2324  0.0189 -0.3768
  612MOL0     C82523   5.238   4.539   9.744  0.1535  0.1206  0.0122
  612MOL0     C82524   5.159   4.461   9.641 -0.2758  0.3340  0.6169
  612MOL0     C82525   5.126   4.546   9.509  0.2004 -0.5706  0.6731
  612MOL0     C82526   5.030   4.467   9.420 -0.3112 -0.5907  0.5755
  612MOL0     C82527   5.021   4.542   9.281  0.3259 -0.1339 -0.6630
  612MOL0     C82528   4.918   4.466   9.195  0.4033  0.3239  0.4519
  612MOL0    Cl82529   4.850   4.591   9.080 -0.0379 -0.4108 -0.0162
  612MOL0     C82530   5.533   4.788   9.991  1.0850 -0.7395 -0.6923
  612MOL0     C82531   5.541   4.919  10.042 -0.1002  0.2362  1.2390
  612MOL0     O82532   5.397   5.188  10.096  0.2105  0.0364 -0.3474
  612MOL0     C82533   5.623   5.314  10.357  0.5736 -0.2089  0.1790
  612MOL0     C82534   5.651   5.438  10.412 -0.4050 -0.9492 -0.0486
  612MOL0     N82535   6.158   5.806  10.569  0.5324  0.1173 -0.4200
  612MOL0     N82536   6.267   5.868  10.563 -0.0455 -0.7485  0.0874
  612MOL0     C82537   6.550   5.559   9.983 -0.7713  0.5992 -1.0994
  612MOL0     C82538   6.528   5.461   9.895 -0.3681  0.7112 -0.0199
  612MOL0     C82539   6.335   5.462   9.567  1.4377  0.5483  0.4588
  612MOL0     C82540   6.227   5.410   9.645 -0.1239 -0.3332 -0.0918
  612MOL0     C82541   6.097   5.452   9.630  0.7059 -0.9823 -0.3427
  612MOL0     C82542   6.069   5.541   9.532  0.1541 -0.4199 -0.0615
  612MOL0     O82543   5.937   5.564   9.520  0.0431 -0.5453 -0.4639
  612MOL0     C82544   5.873   5.631   9.405 -0.1767  0.3150  0.1591
  612MOL0     C82545   5.870   5.531   9.286 -0.3972 -0.3521  0.0627
  612MOL0     C82546   5.770   5.593   9.182  0.0957  0.6873  0.6430
  612MOL0     C82547   5.762   5.516   9.052  1.1168 -0.7502 -0.2816
  612MOL0     C82548   5.733   5.377   9.064  0.6306  0.0289 -0.3445
  612MOL0     C82549   5.693   5.262   9.076 -0.1913  0.2791 -0.0130
  612MOL0     C82550   6.172   5.598   9.452 -0.3396  0.6821  0.1902
  612MOL0     C82551   6.304   5.554   9.464 -0.0274 -0.2217 -1.1683
  612MOL0     C82552   6.406   5.609   9.361 -0.2004  0.1431 -0.3558
  612MOL0     H82553   6.543   5.648   9.605  2.6736 -2.3145 -0.0032
  612MOL0     H82554   6.570   5.827   9.773  0.7002 -0.3550  0.2458
  612MOL0     H82555   6.752   5.865   9.923  2.1514  1.7085  0.6586
  612MOL0     H82556   6.618   5.970   9.961 -0.1186 -1.0435 -1.5808
  612MOL0     H82557   6.848   5.991  10.109 -0.4463 -0.3339 -0.7767
  612MOL0     H82558   6.786   5.839  10.185 -0.0590 -1.2901 -2.5613
  612MOL0     H82559   6.597   5.940  10.261 -0.8558  2.8201  0.9047
  612MOL0     H82560   6.602   6.072  10.151 -0.3086 -0.9343 -0.0021
  612MOL0     H82561   6.772   6.029  10.407 -0.3433  2.1723  0.5808
  612MOL0     H82562   6.842   6.119  10.278  1.6811 -0.6322  0.1024
  612MOL0     H82563   6.749   6.262  10.417  0.6072 -1.3294  0.8786
  612MOL0     H82564   6.623   6.261  10.286  0.9658  0.8256 -0.6219
  612MOL0     H82565   6.630   6.122  10.564 -1.6774  0.9180  1.4970
  612MOL0     H82566   6.551   6.279  10.540  1.7698  0.9373  0.0909
  612MOL0     H82567   6.468   6.016  10.420  2.9025  0.8899  0.3272
  612MOL0     H82568   6.404   6.165  10.361  1.8769 -4.2286 -3.6412
  612MOL0     H82569   6.379   6.105  10.664 -2.6981  0.1016  1.6520
  612MOL0     H82570   6.283   6.207  10.559  0.9917 -0.3341 -3.4849
  612MOL0     H82571   6.039   6.095  10.515  0.9165 -0.0606  0.0899
  612MOL0     H82572   5.870   5.762  10.574  1.6900 -0.4415  1.9510
  612MOL0     H82573   5.849   5.933  10.622  0.2882  2.6518 -0.2787
  612MOL0     H82574   5.863   5.978  10.358 -0.5307 -0.1800 -0.5400
  612MOL0     H82575   5.862   5.804  10.338  3.1259  0.3993  0.4276
  612MOL0     H82576   5.640   5.998  10.389 -1.9052  0.8632  1.4667
  612MOL0     H82577   5.650   5.910  10.536 -2.5024 -1.2587 -0.3743
  612MOL0     H82578   5.627   5.769  10.261  0.4806  2.7298 -0.3646
  612MOL0     H82579   5.492   5.831  10.368 -0.8594 -0.4574  1.4705
  612MOL0     H82580   5.417   5.630  10.262 -1.8272 -1.0645  0.2246
  612MOL0     H82581   5.354   5.430  10.154  0.9294  2.0367 -1.2205
  612MOL0     H82582   5.444   4.826  10.364  4.1289 -4.1164  0.7821
  612MOL0     H82583   5.410   4.617  10.248  2.3024 -0.0269 -0.2538
  612MOL0     H82584   5.313   4.435  10.066 -3.0670 -2.8645 -2.8731
  612MOL0     H82585   5.253   4.603  10.010  1.2298  1.3011 -2.0110
  612MOL0     H82586   5.344   4.365   9.846  2.7505  1.7100  1.0498
  612MOL0     H82587   5.180   4.393   9.890  0.9073 -0.5490  1.1681
  612MOL0     H82588   5.176   4.620   9.783 -0.2025 -0.0833 -0.1346
  612MOL0     H82589   5.339   4.571   9.717  2.3004 -6.5004 -1.6483
  612MOL0     H82590   5.065   4.424   9.684 -0.2855  1.0251  1.2208
  612MOL0     H82591   5.219   4.379   9.601  0.3997  0.8859  0.4985
  612MOL0     H82592   5.225   4.561   9.465  1.6565  0.6946  4.0171
  612MOL0     H82593   5.079   4.638   9.543 -1.1757 -1.0814  0.2258
  612MOL0     H82594   5.076   4.369   9.409  1.7992  0.6245 -4.3414
  612MOL0     H82595   4.932   4.475   9.467 -1.6849  0.5542 -2.2408
  612MOL0     H82596   5.117   4.544   9.230  0.4420  0.7097 -0.4305
  612MOL0     H82597   4.986   4.644   9.300 -1.9356 -0.7988 -0.9397
  612MOL0     H82598   4.958   4.378   9.145 -1.2993 -1.2376  1.6939
  612MOL0     H82599   4.840   4.429   9.263 -0.4719  1.7421  0.2768
  612MOL0     H82600   5.575   4.770   9.892  2.7535 -1.7446  0.1753
  612MOL0     H82601   5.567   5.006   9.982 -1.3449 -2.6657 -4.2270
  612MOL0     H82602   5.674   5.223  10.388 -0.5075  0.0588  2.9831
  612MOL0     H82603   5.730   5.436  10.485 -3.2560  1.9140  3.5221
  612MOL0     H82604   6.564   5.530  10.087 -0.2819 -0.5042 -1.4580
  612MOL0     H82605   6.530   5.353   9.905 -2.0090  0.6812  0.1124
  612MOL0     H82606   6.261   5.347   9.726  3.2361 -0.1552 -1.2067
  612MOL0     H82607   6.023   5.415   9.700 -1.6273 -0.7072 -2.4974
  612MOL0     H82608   5.928   5.719   9.371  0.5049 -0.9571 -2.2692
  612MOL0     H82609   5.767   5.651   9.423 -1.1072 -0.9705 -3.1755
  612MOL0     H82610   5.835   5.434   9.322 -1.1025 -0.9307 -2.0477
  612MOL0     H82611   5.971   5.507   9.254 -0.5857 -2.0077  0.6035
  612MOL0     H82612   5.802   5.694   9.151  0.9558  0.0973 -0.4739
  612MOL0     H82613   5.672   5.608   9.226 -0.2563 -0.7152  0.3775
  612MOL0     H82614   5.669   5.540   8.999  0.3902  0.4056  1.4027
  612MOL0     H82615   5.839   5.544   8.980  1.7674 -1.7565  0.0112
  612MOL0     H82616   5.657   5.161   9.071 -1.1052  0.6432 -1.2515
  612MOL0     H82617   6.158   5.674   9.376  0.3745 -0.5896 -1.2768
  612MOL0     H82618   6.505   5.565   9.379 -0.7443 -0.2160  2.0849
  612MOL0     H82619   6.378   5.592   9.256  1.1557  2.7255 -1.2407
  612MOL0     H82620   6.429   5.716   9.369  1.8720 -0.2371 -0.6886
  613MOL0     O82621   9.889   9.950   6.528  0.4428 -0.2327 -0.2505
  613MOL0     C82622   9.846  10.059   6.574 -0.0311 -0.0787 -0.0883
  613MOL0     O82623   9.814  10.075   6.709 -0.3321 -0.5154 -0.2510
  613MOL0     C82624   9.809   9.979   6.801 -0.1158  0.0795 -0.6675
  613MOL0     C82625   9.855  10.010   6.927  0.5351  0.6538  0.5504
  613MOL0     C82626   9.815   9.931   7.034  0.1614 -0.1494  0.6962
  613MOL0     C82627   9.746   9.811   7.013 -0.4348  0.2154 -0.1640
  613MOL0     O82628   9.713   9.719   7.110  0.1311  0.4508  0.2273
  613MOL0     C82629   9.710   9.753   7.251  0.5720 -0.8159  0.9167
  613MOL0     C82630   9.675   9.633   7.333  0.3672  0.4337 -0.6227
  613MOL0     C82631   9.667   9.646   7.476  0.1896  1.4527 -0.7292
  613MOL0     C82632   9.545   9.577   7.544 -0.5369 -1.3357 -0.3839
  613MOL0     C82633   9.544   9.597   7.697  1.1365 -0.7852 -0.8911
  613MOL0     C82634   9.645   9.513   7.781  0.1811  0.7681 -0.2387
  613MOL0     C82635   9.658   9.554   7.930  0.1530 -0.7734  0.3060
  613MOL0     C82636   9.726   9.687   7.959  0.0903  0.3351 -0.1312
  613MOL0     N82637   9.758   9.705   8.102  0.6091 -0.4869  0.5531
  613MOL0     C82638   9.851   9.633   8.171  0.2983  0.0730 -0.1369
  613MOL0     C82639   9.863   9.707   8.282  0.7607  0.3262  0.3252
  613MOL0     C82640   9.974   9.696   8.384  0.3276  1.6532 -0.2072
  613MOL0     C82641  10.111   9.749   8.327  0.2087  0.1010  0.4806
  613MOL0     C82642  10.140   9.716   8.184 -0.0843  0.3942 -0.7465
  613MOL0     C82643  10.285   9.767   8.159  0.1208 -0.0881 -0.1600
  613MOL0     O82644  10.318   9.771   8.018  0.0048  0.5809 -0.4493
  613MOL0     C82645  10.450   9.791   7.986 -0.1579 -0.0395 -0.4108
  613MOL0     C82646  10.481   9.795   7.840  0.0869  0.0104  0.5667
  613MOL0     C82647  10.620   9.804   7.801  0.0053 -0.5392  0.3641
  613MOL0     C82648  10.728   9.807   7.895  0.3210 -0.5493  0.4979
  613MOL0     C82649  10.858   9.831   7.844  0.4162 -0.3841  0.5781
  613MOL0     O82650  10.870   9.882   7.716  0.1682 -0.1339 -0.1063
  613MOL0     C82651  10.986   9.911   7.665 -0.8485 -0.1682  0.1297
  613MOL0     C82652  11.057  10.027   7.698  0.5836  0.1176  1.1875
  613MOL0     C82653  11.173  10.046   7.629 -0.6182 -0.6538  0.0303
  613MOL0     C82654  11.239   9.951   7.544 -0.4373 -0.8249  0.3322
  613MOL0     O82655  11.347   9.991   7.479 -1.3204 -0.7745 -0.7316
  613MOL0     C82656  11.463   9.912   7.491 -0.6924  1.9088 -0.0575
  613MOL0     C82657  11.547   9.874   7.364  0.7439 -0.0102 -0.9783
  613MOL0     C82658  11.538   9.976   7.250 -0.4984 -0.1129  0.0457
  613MOL0     C82659  11.616   9.923   7.129  0.6069 -0.0137  0.7424
  613MOL0     C82660  11.641  10.033   7.029  0.0474  0.3907  0.7559
  613MOL0     C82661  11.744   9.982   6.919 -0.8814  0.0564  0.5736
  613MOL0     C82662  11.790  10.101   6.822  0.7820 -0.3555 -0.6534
  613MOL0     C82663  11.704  10.105   6.693  0.0527 -0.4010 -0.5752
  613MOL0    Cl82664  11.545  10.165   6.714  0.2213  0.2263 -0.4386
  613MOL0     C82665  11.163   9.838   7.516 -0.0615 -0.3065  0.3850
  613MOL0     C82666  11.041   9.816   7.578 -0.2051 -0.2997 -0.0740
  613MOL0     O82667  10.948   9.798   7.917  0.9925 -0.0673 -0.6424
  613MOL0     C82668  10.692   9.804   8.028  0.1187 -0.0334 -0.5038
  613MOL0     C82669  10.558   9.796   8.074  0.1203 -1.0607  0.1241
  613MOL0     N82670   9.786   9.821   8.278  0.1330  0.2160  0.1921
  613MOL0     N82671   9.714   9.810   8.168  0.0226 -0.5640 -0.1642
  613MOL0     C82672   9.720   9.770   6.883 -0.3986 -0.3760  0.6569
  613MOL0     C82673   9.750   9.857   6.773 -0.5195 -0.1138 -0.9816
  613MOL0     C82674   9.821  10.173   6.484 -0.4487  0.1938  0.5056
  613MOL0     C82675   9.796  10.294   6.552  0.0516 -0.1627  1.0192
  613MOL0     C82676   9.769  10.414   6.482 -0.0652 -0.1094 -1.1884
  613MOL0     C82677   9.771  10.417   6.352 -0.5173 -1.0992  0.7706
  613MOL0     O82678   9.756  10.527   6.271 -0.2875 -0.0622  0.2752
  613MOL0     C82679   9.745  10.654   6.324  0.7529 -0.1294 -0.7359
  613MOL0     C82680   9.610  10.726   6.323  0.2717 -0.3352  0.1823
  613MOL0     C82681   9.623  10.861   6.388  0.8338 -0.8786 -0.0324
  613MOL0     C82682   9.504  10.892   6.490  0.7141 -0.1247 -0.9786
  613MOL0     C82683   9.546  10.817   6.616 -0.0584 -0.5039 -0.3798
  613MOL0     C82684   9.590  10.787   6.723  0.0281  0.1790 -0.3288
  613MOL0     C82685   9.807  10.298   6.281  0.0065 -1.0127 -0.1677
  613MOL0     C82686   9.843  10.175   6.345  0.6670  0.3952 -0.3581
  613MOL0     C82687   9.877  10.054   6.262  0.2748 -0.0261 -0.3770
  613MOL0     H82688   9.904  10.106   6.937  3.6008 -0.2899 -3.0485
  613MOL0     H82689   9.842   9.961   7.135 -2.7986  3.1027  0.7108
  613MOL0     H82690   9.813   9.771   7.286  0.8584 -0.9107  0.1466
  613MOL0     H82691   9.656   9.843   7.281  0.7649 -1.0660  2.0533
  613MOL0     H82692   9.744   9.555   7.299 -2.3301 -1.4914 -2.0459
  613MOL0     H82693   9.572   9.608   7.306 -1.3462  0.7000  4.5854
  613MOL0     H82694   9.664   9.752   7.503 -1.4498  1.7824 -2.0319
  613MOL0     H82695   9.763   9.602   7.506  0.1820 -0.3139 -3.0051
  613MOL0     H82696   9.462   9.636   7.504  2.3404  4.6434  1.2779
  613MOL0     H82697   9.534   9.473   7.512  1.4182 -1.2486 -1.4388
  613MOL0     H82698   9.556   9.703   7.722  0.8922 -1.4676  2.6217
  613MOL0     H82699   9.440   9.573   7.721 -0.1062  2.1722 -2.7155
  613MOL0     H82700   9.615   9.408   7.768 -0.4181  1.1472 -2.3366
  613MOL0     H82701   9.742   9.526   7.731 -0.3877  2.0208 -1.0626
  613MOL0     H82702   9.711   9.477   7.987  1.4826 -0.8559 -0.9787
  613MOL0     H82703   9.557   9.560   7.972  0.1047 -0.1724  0.1144
  613MOL0     H82704   9.811   9.694   7.891 -2.3458 -1.7251 -3.6543
  613MOL0     H82705   9.659   9.769   7.933 -0.6253 -0.1453  0.1770
  613MOL0     H82706   9.906   9.542   8.150 -1.8332 -1.9351  2.2222
  613MOL0     H82707   9.953   9.745   8.480  2.2210 -0.1038  1.1913
  613MOL0     H82708   9.983   9.589   8.405 -2.0479  2.0179  3.7100
  613MOL0     H82709  10.099   9.856   8.341  1.5040  0.5693 -1.5882
  613MOL0     H82710  10.199   9.720   8.385 -1.7814 -1.5122  3.0025
  613MOL0     H82711  10.062   9.769   8.129  0.3627 -1.0523 -2.8635
  613MOL0     H82712  10.119   9.613   8.154 -4.3245  0.8954 -0.1979
  613MOL0     H82713  10.356   9.700   8.209  0.1633 -0.0587 -0.1815
  613MOL0     H82714  10.300   9.866   8.203 -0.5117  0.0148 -0.1712
  613MOL0     H82715  10.394   9.792   7.775  0.2568  0.1002  0.3365
  613MOL0     H82716  10.641   9.817   7.696  0.1671  3.7925  0.7507
  613MOL0     H82717  11.017  10.101   7.768  0.4742  1.1979  0.0172
  613MOL0     H82718  11.242  10.128   7.643 -1.8484  0.6214 -1.0488
  613MOL0     H82719  11.525   9.946   7.574  0.0830 -0.5026  0.4405
  613MOL0     H82720  11.426   9.818   7.532 -0.2342  1.7146 -0.0755
  613MOL0     H82721  11.651   9.872   7.399 -0.1045 -1.8579  1.8572
  613MOL0     H82722  11.525   9.770   7.339  3.0521 -0.7724 -0.0890
  613MOL0     H82723  11.435   9.991   7.215 -0.7994 -1.8098  0.1085
  613MOL0     H82724  11.580  10.074   7.275  0.9381 -0.7862  0.3506
  613MOL0     H82725  11.567   9.832   7.093 -0.4068 -0.8421  3.8845
  613MOL0     H82726  11.715   9.896   7.169  2.3795  0.2367 -3.0606
  613MOL0     H82727  11.675  10.126   7.076 -2.2063  1.5006  0.3315
  613MOL0     H82728  11.549  10.059   6.976  0.4801  1.7307  0.6469
  613MOL0     H82729  11.837   9.948   6.964 -0.7008 -0.7554 -0.3602
  613MOL0     H82730  11.700   9.908   6.851 -0.7888 -0.7060  1.3212
  613MOL0     H82731  11.891  10.095   6.778  0.5051  0.9956 -1.5267
  613MOL0     H82732  11.778  10.198   6.871  2.0955  0.0932 -1.1503
  613MOL0     H82733  11.755  10.168   6.620  0.5892  4.1741  3.2379
  613MOL0     H82734  11.697  10.004   6.651  3.3225 -1.2174  0.5471
  613MOL0     H82735  11.198   9.767   7.442  1.5023 -0.0533  0.8485
  613MOL0     H82736  10.993   9.721   7.554  0.3215 -0.3062 -1.2048
  613MOL0     H82737  10.773   9.814   8.100  2.8829  1.9863 -3.6260
  613MOL0     H82738  10.551   9.798   8.182  0.5896 -1.0800  0.1582
  613MOL0     H82739   9.666   9.677   6.867 -0.3925 -0.2867  0.0947
  613MOL0     H82740   9.722   9.840   6.669  2.7675 -2.2173 -1.6772
  613MOL0     H82741   9.797  10.302   6.660 -5.4641  0.8697  1.2860
  613MOL0     H82742   9.733  10.498   6.541  0.0914 -1.2649  0.6436
  613MOL0     H82743   9.826  10.715   6.283  0.7856 -1.6182 -3.0993
  613MOL0     H82744   9.767  10.656   6.431 -2.0227  1.8818 -0.1069
  613MOL0     H82745   9.533  10.670   6.378  1.1936 -2.2984 -0.4410
  613MOL0     H82746   9.579  10.732   6.219 -0.2155  1.9631  0.4122
  613MOL0     H82747   9.624  10.949   6.323 -1.4685  0.9889  2.2905
  613MOL0     H82748   9.721  10.864   6.436  1.1020 -1.6257 -0.4991
  613MOL0     H82749   9.509  11.000   6.502  2.8774 -0.3253  0.4987
  613MOL0     H82750   9.412  10.851   6.447  0.5735 -2.2360  1.0831
  613MOL0     H82751   9.628  10.757   6.818 -1.6765  0.3292  0.4356
  613MOL0     H82752   9.809  10.281   6.174  1.1355 -1.0591 -0.1486
  613MOL0     H82753   9.854   9.958   6.309  2.8156  0.1231  1.3681
  613MOL0     H82754   9.814  10.054   6.173  0.1242 -1.0101 -0.2854
  613MOL0     H82755   9.984  10.055   6.242  0.7066  1.6041  1.7147
  614MOL0     O82756   6.039   3.594   1.444  0.5811  0.0403  0.0370
  614MOL0     C82757   5.959   3.500   1.457  0.3102  0.0719 -0.8889
  614MOL0     O82758   5.821   3.520   1.480 -0.1266 -0.2591 -0.0839
  614MOL0     C82759   5.775   3.632   1.557  0.3600  0.0232  1.0280
  614MOL0     C82760   5.651   3.681   1.525  0.1057 -0.1630  0.4970
  614MOL0     C82761   5.594   3.796   1.574 -0.0911  0.7682 -0.5722
  614MOL0     C82762   5.671   3.873   1.664  0.1919  1.1961 -0.7688
  614MOL0     O82763   5.621   3.986   1.721  0.2395 -0.5784 -0.1151
  614MOL0     C82764   5.501   4.052   1.661  0.2383  0.5553 -0.4814
  614MOL0     C82765   5.522   4.206   1.697 -0.2031  0.2039  0.5086
  614MOL0     C82766   5.493   4.249   1.846 -0.6799 -0.4824  0.4489
  614MOL0     C82767   5.349   4.244   1.875  0.0837 -0.1342  1.5274
  614MOL0     C82768   5.333   4.171   2.013 -0.6076  0.6339 -0.0569
  614MOL0     C82769   5.376   4.269   2.126 -0.6715  1.5369 -0.1289
  614MOL0     C82770   5.288   4.399   2.148 -0.2148  0.3738 -0.1148
  614MOL0     C82771   5.310   4.473   2.280 -1.4411 -0.7254  0.0068
  614MOL0     N82772   5.226   4.593   2.304 -0.8489 -0.4605 -0.4995
  614MOL0     C82773   5.253   4.718   2.242  0.2530 -0.0357  0.0817
  614MOL0     C82774   5.161   4.801   2.301 -0.6621 -0.8166  0.2444
  614MOL0     C82775   5.144   4.949   2.268 -0.3192  0.2466 -0.1149
  614MOL0     C82776   5.253   5.020   2.347  1.1464  0.1010  0.1560
  614MOL0     C82777   5.257   5.158   2.297  0.3252 -0.2911  0.7335
  614MOL0     C82778   5.368   5.240   2.358 -0.3526 -1.2629  0.0480
  614MOL0     O82779   5.330   5.381   2.346 -0.3985 -0.4055 -0.6016
  614MOL0     C82780   5.362   5.438   2.230 -0.5264 -0.1747  0.0571
  614MOL0     C82781   5.260   5.462   2.138 -0.6800  0.9828 -0.1168
  614MOL0     C82782   5.293   5.504   2.005 -0.2246 -0.4161  0.0549
  614MOL0     C82783   5.425   5.532   1.970  0.9893  0.2225 -0.6455
  614MOL0     C82784   5.454   5.576   1.833  0.1027  0.3536 -1.2302
  614MOL0     O82785   5.343   5.585   1.753  0.5760  0.2031 -0.3231
  614MOL0     C82786   5.364   5.608   1.628 -0.1440  0.9907  0.7109
  614MOL0     C82787   5.374   5.498   1.547  0.7882  0.5913  0.0770
  614MOL0     C82788   5.355   5.514   1.405  0.0331 -0.6681 -0.5734
  614MOL0     C82789   5.359   5.646   1.354  0.1101 -0.3219 -0.6097
  614MOL0     O82790   5.366   5.655   1.223 -0.1666  0.2564 -0.2010
  614MOL0     C82791   5.332   5.783   1.164  0.5277 -0.4303  0.2563
  614MOL0     C82792   5.358   5.794   1.014  0.8275  0.4466  0.0697
  614MOL0     C82793   5.500   5.746   0.966 -0.3716 -0.2845 -1.0255
  614MOL0     C82794   5.619   5.788   1.064 -0.3164  0.1134  0.0075
  614MOL0     C82795   5.742   5.696   1.031 -0.0944 -1.4473  0.3398
  614MOL0     C82796   5.864   5.749   1.104 -0.1925  0.6331 -0.9599
  614MOL0     C82797   5.976   5.675   1.050  0.0914 -0.4827 -0.2996
  614MOL0     C82798   5.999   5.543   1.115 -0.9656  0.5303 -0.0779
  614MOL0    Cl82799   6.034   5.571   1.294  0.0693  0.3415 -0.0464
  614MOL0     C82800   5.356   5.760   1.441  0.4214 -0.1113 -0.2890
  614MOL0     C82801   5.356   5.741   1.573 -1.2979 -0.3008  0.0375
  614MOL0     O82802   5.567   5.595   1.794  0.6988  0.1969 -0.5321
  614MOL0     C82803   5.524   5.499   2.061  1.0889 -0.8043 -0.1379
  614MOL0     C82804   5.492   5.456   2.192 -0.8011  0.1217  0.3639
  614MOL0     N82805   5.102   4.730   2.403  0.7287 -0.7480  0.8375
  614MOL0     N82806   5.127   4.606   2.399  0.5966 -0.9394  0.2406
  614MOL0     C82807   5.801   3.825   1.700  1.2284  0.0176 -0.1166
  614MOL0     C82808   5.857   3.713   1.642 -0.1213  0.0890 -0.6476
  614MOL0     C82809   6.006   3.367   1.407 -0.1369 -0.9912  1.3845
  614MOL0     C82810   5.912   3.292   1.335 -0.6009  0.3452  0.0967
  614MOL0     C82811   5.941   3.183   1.257  0.4392  0.0681  1.4824
  614MOL0     C82812   6.076   3.148   1.242 -0.6083 -0.5709  0.0172
  614MOL0     O82813   6.122   3.043   1.169 -1.2101  0.5419 -0.5236
  614MOL0     C82814   6.038   3.008   1.054  0.6317 -0.0036  0.5968
  614MOL0     C82815   6.119   2.919   0.955  1.0945 -0.3268 -0.0999
  614MOL0     C82816   6.026   2.845   0.862 -0.2009 -0.5626 -0.0409
  614MOL0     C82817   5.966   2.723   0.919 -0.4304  0.0333  0.4305
  614MOL0     C82818   5.894   2.646   0.815 -0.8007 -0.6696 -0.4033
  614MOL0     C82819   5.845   2.605   0.720  1.0623  0.6460 -0.0536
  614MOL0     C82820   6.172   3.214   1.322 -0.1810  0.4397 -0.1106
  614MOL0     C82821   6.141   3.322   1.405  1.1995  0.4910 -0.5784
  614MOL0     C82822   6.245   3.390   1.477 -0.6936  0.0017 -0.2189
  614MOL0     H82823   5.589   3.625   1.456  0.2935 -1.1854  1.1294
  614MOL0     H82824   5.491   3.815   1.542 -1.3362 -2.5890  0.9899
  614MOL0     H82825   5.507   4.037   1.553  3.4511  2.3248 -0.6546
  614MOL0     H82826   5.404   4.020   1.701  0.1676  1.8179  0.4017
  614MOL0     H82827   5.460   4.261   1.626  1.6402 -2.4336 -3.5169
  614MOL0     H82828   5.629   4.213   1.674 -0.4605 -1.9139 -1.6877
  614MOL0     H82829   5.535   4.345   1.876 -1.6311 -0.0681  0.4902
  614MOL0     H82830   5.551   4.177   1.904 -0.2337  0.6256  1.3935
  614MOL0     H82831   5.304   4.344   1.871  0.3731 -0.0017 -2.6172
  614MOL0     H82832   5.302   4.183   1.798 -1.1514 -3.4199  4.6508
  614MOL0     H82833   5.225   4.152   2.018 -0.5932  0.5380 -0.1189
  614MOL0     H82834   5.389   4.078   2.020  2.4906  2.4128  0.7880
  614MOL0     H82835   5.376   4.211   2.219  0.3935 -1.3232 -1.7864
  614MOL0     H82836   5.479   4.302   2.112 -0.8538  1.5054 -1.7800
  614MOL0     H82837   5.184   4.365   2.150 -0.3058  0.5286 -1.2402
  614MOL0     H82838   5.298   4.475   2.069  0.1975 -0.0647 -0.4910
  614MOL0     H82839   5.274   4.402   2.356 -0.8202 -0.4616  0.5608
  614MOL0     H82840   5.416   4.498   2.293 -1.5498 -0.4430  0.3599
  614MOL0     H82841   5.326   4.720   2.162  0.1394 -3.7362 -0.2589
  614MOL0     H82842   5.158   4.951   2.159  0.4583 -0.0877 -0.0257
  614MOL0     H82843   5.044   4.982   2.298 -0.3150 -0.2147  0.4271
  614MOL0     H82844   5.232   5.031   2.454  1.8862  1.0621  0.2163
  614MOL0     H82845   5.351   4.974   2.330  1.5353  1.1867 -0.6184
  614MOL0     H82846   5.156   5.200   2.295  0.1052 -0.7769 -1.3954
  614MOL0     H82847   5.277   5.165   2.189  0.1021  1.8754  0.7871
  614MOL0     H82848   5.463   5.223   2.307 -0.3597 -0.9029 -0.0888
  614MOL0     H82849   5.386   5.213   2.462  2.3074 -0.8144 -0.2229
  614MOL0     H82850   5.158   5.441   2.169 -0.6401 -1.8207 -1.6247
  614MOL0     H82851   5.214   5.504   1.931 -0.6125 -0.6797  0.4683
  614MOL0     H82852   5.373   5.397   1.588  2.2474  0.3246 -0.4677
  614MOL0     H82853   5.337   5.425   1.345  3.5020 -1.2087 -1.0252
  614MOL0     H82854   5.225   5.803   1.169  0.1828 -1.0738 -2.6387
  614MOL0     H82855   5.390   5.864   1.208  1.3354 -0.5483 -0.5626
  614MOL0     H82856   5.282   5.748   0.951 -0.5325  0.5788  1.5568
  614MOL0     H82857   5.346   5.900   0.990 -1.9901  0.4952  1.3112
  614MOL0     H82858   5.502   5.637   0.963  2.6968 -0.2872 -1.5985
  614MOL0     H82859   5.520   5.782   0.865 -0.2273  0.0347 -0.8866
  614MOL0     H82860   5.595   5.776   1.170 -2.8099  2.1192 -0.2210
  614MOL0     H82861   5.640   5.895   1.053  0.4060  0.0737  0.8954
  614MOL0     H82862   5.750   5.713   0.923 -0.8875  0.5410  0.5390
  614MOL0     H82863   5.715   5.591   1.045 -1.0908 -1.5591 -1.9373
  614MOL0     H82864   5.894   5.854   1.103  3.1776 -0.1190  1.6031
  614MOL0     H82865   5.855   5.726   1.211  2.2773 -0.5143 -0.9189
  614MOL0     H82866   6.065   5.735   1.068 -0.2213  0.1798 -0.8880
  614MOL0     H82867   5.958   5.670   0.942 -2.3609 -2.6996  0.1065
  614MOL0     H82868   5.919   5.469   1.107 -0.1232 -0.7802  2.5009
  614MOL0     H82869   6.096   5.509   1.078  2.2499  6.1816  1.8812
  614MOL0     H82870   5.347   5.865   1.416 -2.5074 -0.3505 -0.5760
  614MOL0     H82871   5.339   5.826   1.638  0.3140  1.6782 -1.9835
  614MOL0     H82872   5.630   5.516   2.044  0.5080  0.2616 -3.2806
  614MOL0     H82873   5.575   5.412   2.245  0.3799 -1.2655 -2.4457
  614MOL0     H82874   5.844   3.866   1.790 -1.2632 -1.8801  2.0974
  614MOL0     H82875   5.959   3.679   1.651 -0.7555 -1.9351 -0.6146
  614MOL0     H82876   5.812   3.333   1.344  1.1094  4.5421  3.7495
  614MOL0     H82877   5.868   3.132   1.194 -0.6363  1.7159  1.3421
  614MOL0     H82878   5.998   3.095   1.001  0.2400 -0.6040 -0.1071
  614MOL0     H82879   5.956   2.948   1.094 -1.8439  2.1899 -0.8746
  614MOL0     H82880   6.171   2.841   1.012  1.9965  0.3486  0.0267
  614MOL0     H82881   6.191   2.983   0.904  2.5997  0.5572  2.8999
  614MOL0     H82882   6.085   2.816   0.775  1.5670 -0.2176  0.9803
  614MOL0     H82883   5.949   2.918   0.835  1.5263  0.9995 -1.0260
  614MOL0     H82884   6.043   2.655   0.958 -0.3322  0.1863  0.5016
  614MOL0     H82885   5.905   2.750   1.005  3.6523  1.9302  3.0509
  614MOL0     H82886   5.798   2.558   0.636  0.6691  0.5735  0.2000
  614MOL0     H82887   6.278   3.189   1.315 -0.3051  0.2320 -1.3888
  614MOL0     H82888   6.298   3.445   1.398  1.3976 -1.0013  0.4061
  614MOL0     H82889   6.223   3.454   1.563 -1.7052  0.3046 -0.6865
  614MOL0     H82890   6.319   3.315   1.507  1.0531  2.6847  2.8459
  615MOL0     O82891   4.066   8.935   7.762  0.7721  0.0374 -0.1736
  615MOL0     C82892   4.060   9.044   7.712  0.1134 -0.3791 -0.3825
  615MOL0     O82893   3.975   9.082   7.628  0.3324  0.2414 -0.2746
  615MOL0     C82894   3.929   8.983   7.534 -1.1514 -0.0270  0.7798
  615MOL0     C82895   4.009   8.873   7.488  0.3686  0.2937  0.0146
  615MOL0     C82896   3.949   8.769   7.412 -1.2889  0.7120  1.0077
  615MOL0     C82897   3.822   8.764   7.377 -0.8553  0.3430  0.3867
  615MOL0     O82898   3.781   8.647   7.306 -0.5612  0.0804 -0.5923
  615MOL0     C82899   3.673   8.661   7.214 -0.1840  0.0377  0.2424
  615MOL0     C82900   3.665   8.541   7.128 -0.1476 -0.1789 -0.5267
  615MOL0     C82901   3.781   8.529   7.029  0.4694  0.1959  0.5214
  615MOL0     C82902   3.772   8.638   6.921 -1.0889 -0.4234 -0.2864
  615MOL0     C82903   3.910   8.654   6.857 -0.6415  0.1834 -0.1517
  615MOL0     C82904   3.947   8.535   6.763  0.1497 -0.4279 -0.2811
  615MOL0     C82905   4.096   8.533   6.732  0.2881 -0.3559  0.0468
  615MOL0     C82906   4.146   8.413   6.653 -0.1178 -0.0627 -0.4705
  615MOL0     N82907   4.077   8.412   6.520 -0.1289  0.9670 -0.2085
  615MOL0     C82908   4.068   8.511   6.424 -0.6499  0.0207 -0.1800
  615MOL0     C82909   3.970   8.479   6.343 -0.1806  1.0095  0.5880
  615MOL0     C82910   3.910   8.555   6.221 -0.2297  0.2180 -0.1232
  615MOL0     C82911   3.900   8.472   6.087  0.2277 -0.1038 -0.1397
  615MOL0     C82912   3.774   8.389   6.075 -0.6047 -1.2621 -1.0290
  615MOL0     C82913   3.758   8.354   5.924 -0.8735  1.0816  0.7916
  615MOL0     O82914   3.646   8.259   5.925 -0.3987 -0.9978  0.2036
  615MOL0     C82915   3.562   8.240   5.814  0.1496  0.3978 -0.0963
  615MOL0     C82916   3.427   8.223   5.824  0.5545 -0.5369  0.4269
  615MOL0     C82917   3.354   8.236   5.706  0.8282 -0.5172 -0.0191
  615MOL0     C82918   3.403   8.259   5.579  0.5775  0.2309  0.5747
  615MOL0     C82919   3.307   8.266   5.467 -0.3075 -0.2049 -0.1042
  615MOL0     O82920   3.176   8.276   5.509 -0.4072 -0.0226 -0.4455
  615MOL0     C82921   3.077   8.264   5.418  0.9033 -0.2033  0.4763
  615MOL0     C82922   3.081   8.182   5.300  0.2896  0.1636  0.3266
  615MOL0     C82923   2.974   8.169   5.209 -0.2618 -0.2747  0.6062
  615MOL0     C82924   2.862   8.254   5.218 -0.5733 -0.1889  0.8462
  615MOL0     O82925   2.770   8.257   5.115  0.7620 -0.3525 -0.2351
  615MOL0     C82926   2.631   8.236   5.145 -0.2330  0.5618 -1.0663
  615MOL0     C82927   2.605   8.095   5.184  0.0275 -0.4449  0.6107
  615MOL0     C82928   2.472   8.072   5.265  0.6515 -0.4739  0.4590
  615MOL0     C82929   2.354   8.092   5.169 -0.4444  0.0875 -0.4499
  615MOL0     C82930   2.219   8.094   5.236  0.2123  0.1567 -0.1953
  615MOL0     C82931   2.185   7.958   5.296  0.2556  0.9877  0.4055
  615MOL0     C82932   2.043   7.960   5.340  1.0824 -0.6713 -0.5746
  615MOL0     C82933   2.002   7.851   5.428 -0.3144 -1.0027 -0.9167
  615MOL0    Cl82934   2.002   7.718   5.312  0.1919  0.8165 -0.4651
  615MOL0     C82935   2.849   8.334   5.329  0.3365  0.4294  0.4610
  615MOL0     C82936   2.960   8.340   5.424 -0.5458  1.0148 -0.4613
  615MOL0     O82937   3.343   8.283   5.352  0.0317 -0.7421  0.3472
  615MOL0     C82938   3.538   8.275   5.569 -0.3127  0.4336 -0.2760
  615MOL0     C82939   3.615   8.273   5.684 -0.9351 -0.3271 -0.1273
  615MOL0     N82940   3.920   8.360   6.387  0.0952 -0.5272  0.2295
  615MOL0     N82941   3.993   8.315   6.484  1.1534  0.0936  0.2309
  615MOL0     C82942   3.746   8.871   7.402 -0.3273  0.2707 -0.8333
  615MOL0     C82943   3.799   8.985   7.478  0.1106 -0.3442 -0.8625
  615MOL0     C82944   4.164   9.146   7.733 -0.8381 -1.2946 -0.0796
  615MOL0     C82945   4.217   9.213   7.624  0.0460 -0.0136 -0.2603
  615MOL0     C82946   4.333   9.288   7.633  0.8084 -0.4597  0.0225
  615MOL0     C82947   4.410   9.304   7.743 -1.3405  0.6332  0.0049
  615MOL0     O82948   4.509   9.397   7.735 -0.2876 -1.3217  1.1731
  615MOL0     C82949   4.527   9.475   7.855 -1.2647  0.1242 -0.0193
  615MOL0     C82950   4.414   9.564   7.888 -0.5643  0.2192 -0.7504
  615MOL0     C82951   4.387   9.667   7.777 -0.0097  1.2042  0.4082
  615MOL0     C82952   4.501   9.758   7.745  0.7207  0.2789  0.7745
  615MOL0     C82953   4.450   9.874   7.677  0.3392  0.4993  1.0607
  615MOL0     C82954   4.408   9.968   7.612 -0.6443 -0.5836  0.9073
  615MOL0     C82955   4.351   9.254   7.862  0.2945  0.7663 -0.1997
  615MOL0     C82956   4.237   9.172   7.859  0.4117  0.7210  0.2099
  615MOL0     C82957   4.191   9.102   7.981 -0.3879  0.0234  0.0134
  615MOL0     H82958   4.113   8.876   7.517  0.5199 -1.3319 -0.2523
  615MOL0     H82959   4.027   8.699   7.385 -2.0115 -0.4344  1.7876
  615MOL0     H82960   3.578   8.678   7.267  1.8624  2.0103  3.6615
  615MOL0     H82961   3.695   8.747   7.150  0.6581 -1.5785 -1.7741
  615MOL0     H82962   3.568   8.538   7.078  0.4853  2.5441 -2.0962
  615MOL0     H82963   3.685   8.457   7.196 -0.0936  3.3664  4.3318
  615MOL0     H82964   3.787   8.434   6.974  0.8599  2.0397 -2.8765
  615MOL0     H82965   3.878   8.536   7.079  1.1722 -4.0093  0.1210
  615MOL0     H82966   3.703   8.610   6.841  0.5588 -0.8338 -1.6248
  615MOL0     H82967   3.749   8.739   6.958 -1.7712 -1.2465  1.6826
  615MOL0     H82968   3.924   8.749   6.806  0.8904 -0.3187 -0.7239
  615MOL0     H82969   3.985   8.663   6.936 -0.5830 -1.8755  0.0836
  615MOL0     H82970   3.910   8.444   6.810 -1.3319 -0.1247 -0.7952
  615MOL0     H82971   3.888   8.545   6.671  0.4775 -0.0877 -0.4545
  615MOL0     H82972   4.134   8.530   6.835 -2.2296 -0.0179  1.0491
  615MOL0     H82973   4.125   8.628   6.687  0.7366  0.0714  1.2045
  615MOL0     H82974   4.255   8.406   6.644  0.1326 -1.3952  2.4215
  615MOL0     H82975   4.121   8.325   6.713 -3.6571 -0.1444 -1.8195
  615MOL0     H82976   4.122   8.604   6.417 -0.2340 -0.2324 -0.3343
  615MOL0     H82977   3.814   8.597   6.254 -0.3899 -0.0331 -0.2653
  615MOL0     H82978   3.981   8.637   6.209  1.1500 -1.1289 -1.5735
  615MOL0     H82979   3.912   8.547   6.008  2.7954 -0.0689  0.1822
  615MOL0     H82980   3.985   8.405   6.070 -0.4171 -0.3852 -2.8113
  615MOL0     H82981   3.681   8.424   6.122 -0.1148 -1.3087  0.0053
  615MOL0     H82982   3.786   8.300   6.137  0.1463 -0.6625 -0.2846
  615MOL0     H82983   3.852   8.326   5.876 -1.7030 -1.3386  0.4380
  615MOL0     H82984   3.729   8.448   5.876 -1.9577  0.1082 -0.5415
  615MOL0     H82985   3.376   8.220   5.919  3.8155 -1.3362  2.3320
  615MOL0     H82986   3.248   8.237   5.725  0.5688 -3.3694 -0.7341
  615MOL0     H82987   3.162   8.115   5.275 -1.4348 -2.2042  0.7369
  615MOL0     H82988   2.989   8.112   5.119 -0.7009  1.1640 -0.4087
  615MOL0     H82989   2.586   8.304   5.219  0.1696 -1.2376  0.9200
  615MOL0     H82990   2.579   8.255   5.051  0.0414  0.6656 -1.1969
  615MOL0     H82991   2.599   8.039   5.090 -0.1740  3.2957 -1.7718
  615MOL0     H82992   2.688   8.065   5.248 -1.4650  2.4223  4.2311
  615MOL0     H82993   2.476   7.969   5.302  0.1352 -0.5338  0.3615
  615MOL0     H82994   2.462   8.129   5.357 -1.3820 -1.1092  0.6847
  615MOL0     H82995   2.373   8.024   5.086  1.1062 -0.0208 -0.0453
  615MOL0     H82996   2.363   8.189   5.118  0.6134 -1.3301 -3.1544
  615MOL0     H82997   2.142   8.124   5.164 -0.2307 -1.2788 -0.3462
  615MOL0     H82998   2.220   8.174   5.311 -1.0261 -1.3134  1.4770
  615MOL0     H82999   2.199   7.888   5.213  1.0635  1.2903  0.2786
  615MOL0     H83000   2.255   7.934   5.376  0.1027  2.5590  1.0457
  615MOL0     H83001   1.981   7.965   5.250  1.8837  0.7092 -1.0865
  615MOL0     H83002   2.029   8.051   5.399  2.0755 -1.2586  0.6268
  615MOL0     H83003   2.080   7.833   5.502 -0.2263 -0.6835 -0.9290
  615MOL0     H83004   1.905   7.862   5.479 -0.6037 -1.8264 -1.2743
  615MOL0     H83005   2.759   8.395   5.331 -0.1204 -0.1734  3.7878
  615MOL0     H83006   2.938   8.394   5.516 -3.7509 -1.9258  0.7574
  615MOL0     H83007   3.583   8.290   5.471 -1.6915  0.5009 -0.9129
  615MOL0     H83008   3.723   8.280   5.676 -0.9025 -1.1356 -0.3891
  615MOL0     H83009   3.648   8.885   7.358 -0.6524  2.2573  0.4216
  615MOL0     H83010   3.740   9.074   7.496  0.7084  0.1973 -1.5252
  615MOL0     H83011   4.172   9.201   7.526 -0.8946  0.5974  0.0769
  615MOL0     H83012   4.364   9.345   7.545 -1.7741  0.5769 -0.3015
  615MOL0     H83013   4.618   9.534   7.846  1.2279 -2.7524  3.5991
  615MOL0     H83014   4.560   9.413   7.938 -0.5309  1.3003  0.5881
  615MOL0     H83015   4.422   9.621   7.980 -1.7123 -1.4811  0.4569
  615MOL0     H83016   4.318   9.513   7.900 -0.4883  0.0829 -0.7133
  615MOL0     H83017   4.298   9.720   7.813 -2.4813 -0.7972 -2.1956
  615MOL0     H83018   4.356   9.614   7.686  2.9945 -0.7145  0.3772
  615MOL0     H83019   4.548   9.790   7.838 -0.3301  1.5779  0.8967
  615MOL0     H83020   4.571   9.700   7.685 -0.1341 -1.4039  1.3380
  615MOL0     H83021   4.384  10.054   7.552  1.7510 -3.0092 -4.1995
  615MOL0     H83022   4.389   9.264   7.964 -1.5775 -2.1033  0.9239
  615MOL0     H83023   4.088   9.127   8.009 -0.3234 -0.8325  1.1158
  615MOL0     H83024   4.197   8.993   7.974 -1.7688  0.0173 -1.9158
  615MOL0     H83025   4.255   9.125   8.067  1.4841  3.3199 -2.1099
  616MOL0     O83026   3.586   5.634   3.198  0.0840  0.1125  0.1282
  616MOL0     C83027   3.694   5.690   3.216 -0.0684 -0.2522 -0.6213
  616MOL0     O83028   3.775   5.753   3.114 -0.3563  0.5842  0.8782
  616MOL0     C83029   3.749   5.752   2.979  0.9248  0.4435 -0.4501
  616MOL0     C83030   3.862   5.746   2.889 -0.3992  0.1590  0.3794
  616MOL0     C83031   3.843   5.753   2.749 -0.6780 -0.2821  0.2041
  616MOL0     C83032   3.715   5.782   2.699 -0.0862 -0.0396  0.1141
  616MOL0     O83033   3.711   5.788   2.564  0.1653  0.3668  0.1295
  616MOL0     C83034   3.610   5.715   2.497 -0.5897  0.0382  0.8622
  616MOL0     C83035   3.638   5.568   2.484  0.0199  0.3819 -0.0794
  616MOL0     C83036   3.542   5.486   2.584 -0.0299  0.2453  0.2132
  616MOL0     C83037   3.518   5.348   2.530  0.4768  0.0697  0.6133
  616MOL0     C83038   3.440   5.338   2.396  0.6398  0.0189  0.0798
  616MOL0     C83039   3.373   5.201   2.359  0.3826  0.9738  0.9092
  616MOL0     C83040   3.339   5.217   2.206  0.9565  0.1753  0.2279
  616MOL0     C83041   3.320   5.074   2.147 -1.1329 -0.5207  0.4749
  616MOL0     N83042   3.193   5.020   2.186  0.3689 -0.4068  0.6537
  616MOL0     C83043   3.064   5.075   2.161 -0.3933 -0.5177 -0.0559
  616MOL0     C83044   2.978   4.965   2.171 -0.0478 -0.2644 -0.8017
  616MOL0     C83045   2.825   4.969   2.138 -0.7508  0.0303  0.2647
  616MOL0     C83046   2.755   4.840   2.170  0.3474  0.5246 -0.3117
  616MOL0     C83047   2.603   4.861   2.195 -0.0332  0.1755 -0.6761
  616MOL0     C83048   2.535   4.729   2.222 -0.0040  0.5414 -0.1952
  616MOL0     O83049   2.432   4.745   2.321 -0.5413 -0.1273 -0.0152
  616MOL0     C83050   2.368   4.639   2.364  0.8500  0.9746  0.7504
  616MOL0     C83051   2.290   4.654   2.479 -0.0722  0.4287 -0.4225
  616MOL0     C83052   2.203   4.553   2.536  0.9552 -0.8600  0.6609
  616MOL0     C83053   2.190   4.434   2.474 -1.1683 -0.0735 -0.4049
  616MOL0     C83054   2.103   4.328   2.530  0.2697  0.3914 -0.2674
  616MOL0     O83055   2.103   4.201   2.472  0.3880  1.1331 -0.2846
  616MOL0     C83056   2.046   4.094   2.546  0.6026 -0.4054 -0.9137
  616MOL0     C83057   2.101   4.060   2.665 -1.2658 -0.2637 -0.6440
  616MOL0     C83058   2.074   3.938   2.724  0.7311 -0.2185  0.2388
  616MOL0     C83059   1.986   3.844   2.666  0.1192 -0.4803  0.3245
  616MOL0     O83060   1.972   3.726   2.721  0.8412  0.5882  0.2818
  616MOL0     C83061   1.864   3.717   2.817  0.1313 -0.8145 -0.1898
  616MOL0     C83062   1.752   3.640   2.749  0.1119 -0.1509  0.0262
  616MOL0     C83063   1.632   3.601   2.831 -0.6652 -0.0845 -0.9857
  616MOL0     C83064   1.519   3.530   2.753 -0.1948  0.3350 -1.3496
  616MOL0     C83065   1.440   3.437   2.840 -0.1638  0.3269 -0.3600
  616MOL0     C83066   1.336   3.345   2.769 -0.1410  0.0911  0.3782
  616MOL0     C83067   1.406   3.266   2.653 -1.0228  0.7307  0.4316
  616MOL0     C83068   1.305   3.167   2.583 -1.0822  0.4220  0.0786
  616MOL0    Cl83069   1.157   3.127   2.677  0.2424  0.5622 -0.0488
  616MOL0     C83070   1.931   3.871   2.547  0.1478 -0.6974 -0.1679
  616MOL0     C83071   1.960   3.996   2.483 -0.2683 -0.1459  0.7271
  616MOL0     O83072   2.050   4.355   2.637 -0.2618  0.5057 -0.2438
  616MOL0     C83073   2.267   4.414   2.354  0.2852 -1.1557 -0.8193
  616MOL0     C83074   2.357   4.517   2.300  0.3411  0.6978  0.7366
  616MOL0     N83075   3.047   4.859   2.231 -0.6601 -0.5294  0.9670
  616MOL0     N83076   3.175   4.891   2.235  0.2714 -0.3093 -0.5269
  616MOL0     C83077   3.604   5.797   2.783  0.6394 -0.1943  0.1494
  616MOL0     C83078   3.622   5.779   2.925 -1.1973 -0.3903  0.2182
  616MOL0     C83079   3.740   5.706   3.354 -0.1932 -0.6054  0.6758
  616MOL0     C83080   3.875   5.705   3.368 -0.4756  0.2131 -0.1911
  616MOL0     C83081   3.930   5.727   3.495  0.6280  1.0373  0.6204
  616MOL0     C83082   3.844   5.732   3.609 -0.0786  0.2495  0.1035
  616MOL0     O83083   3.888   5.762   3.734  1.1284 -0.2028 -0.8907
  616MOL0     C83084   4.025   5.722   3.770  0.0802 -0.7688  0.2843
  616MOL0     C83085   4.050   5.700   3.925 -0.1339 -0.0455  0.5142
  616MOL0     C83086   3.937   5.607   3.981 -0.3066  0.0588  0.3167
  616MOL0     C83087   3.973   5.542   4.121 -0.2092 -0.4657 -0.5668
  616MOL0     C83088   3.978   5.657   4.218  0.1545  0.6840  0.6639
  616MOL0     C83089   3.980   5.761   4.275  0.9685 -0.4231 -0.4528
  616MOL0     C83090   3.702   5.710   3.586 -0.0347 -0.2414 -0.7582
  616MOL0     C83091   3.652   5.705   3.462  0.5460  0.3713  0.3031
  616MOL0     C83092   3.497   5.715   3.459 -1.1148 -0.3375  0.2147
  616MOL0     H83093   3.961   5.739   2.933 -1.2228  2.2731  2.8121
  616MOL0     H83094   3.932   5.750   2.686 -1.5264 -2.0673 -0.9915
  616MOL0     H83095   3.507   5.728   2.533 -2.1344 -1.4647 -2.5344
  616MOL0     H83096   3.608   5.756   2.396  3.1788  0.8925  0.9827
  616MOL0     H83097   3.738   5.550   2.524  0.2764  4.4232  1.6035
  616MOL0     H83098   3.623   5.555   2.377 -0.3610 -0.2699  0.0443
  616MOL0     H83099   3.446   5.534   2.603 -0.3246 -0.8558  1.6772
  616MOL0     H83100   3.595   5.473   2.679 -2.0322  2.3514  1.7379
  616MOL0     H83101   3.618   5.308   2.512  0.4674  0.0821  0.5346
  616MOL0     H83102   3.468   5.279   2.599  4.3018 -1.6336  1.9431
  616MOL0     H83103   3.359   5.412   2.394  0.9238  0.3151 -1.8248
  616MOL0     H83104   3.515   5.358   2.320  2.0851  0.5754  1.5926
  616MOL0     H83105   3.436   5.114   2.379 -0.9648 -0.9075 -2.2905
  616MOL0     H83106   3.277   5.183   2.406 -1.4869 -0.6988 -3.0357
  616MOL0     H83107   3.420   5.260   2.148  0.0063 -0.3216 -1.5441
  616MOL0     H83108   3.251   5.278   2.186  0.4384 -1.1756 -1.9581
  616MOL0     H83109   3.329   5.070   2.038  1.5091  3.1246  0.3931
  616MOL0     H83110   3.398   5.008   2.187 -0.7136 -1.2514 -1.4451
  616MOL0     H83111   3.045   5.167   2.107  2.1432  0.1091  0.0292
  616MOL0     H83112   2.776   5.047   2.197 -5.3109 -2.3867  0.0849
  616MOL0     H83113   2.820   4.984   2.029  3.0242  0.1843 -0.0149
  616MOL0     H83114   2.763   4.772   2.085  0.6142  0.6794 -0.4119
  616MOL0     H83115   2.804   4.789   2.254  1.6151 -0.6800 -1.7278
  616MOL0     H83116   2.548   4.890   2.105  0.5634 -2.1130 -1.8451
  616MOL0     H83117   2.584   4.939   2.269 -1.2783  1.7830 -2.5803
  616MOL0     H83118   2.605   4.655   2.262  0.8477  1.6417  0.4127
  616MOL0     H83119   2.491   4.693   2.128 -0.0486 -2.0429  0.7295
  616MOL0     H83120   2.296   4.757   2.512  2.8483  0.6774 -1.4514
  616MOL0     H83121   2.138   4.586   2.616 -0.6548  0.5813 -1.1191
  616MOL0     H83122   2.178   4.125   2.704 -1.1822 -1.4057  1.1836
  616MOL0     H83123   2.124   3.930   2.820  1.6286  0.5624 -0.1547
  616MOL0     H83124   1.897   3.654   2.900 -2.6403 -1.7827  0.2721
  616MOL0     H83125   1.835   3.816   2.854  1.8457 -0.6068  0.7422
  616MOL0     H83126   1.715   3.704   2.668  0.9343  1.8061  1.1131
  616MOL0     H83127   1.791   3.547   2.709  1.7985 -1.6063  4.4194
  616MOL0     H83128   1.680   3.554   2.917 -0.4103  1.7735 -0.0602
  616MOL0     H83129   1.596   3.700   2.859  0.8426 -0.5441  3.2825
  616MOL0     H83130   1.565   3.480   2.667  2.4152  2.3545 -1.2514
  616MOL0     H83131   1.455   3.611   2.715  3.5137  3.8907 -0.7813
  616MOL0     H83132   1.391   3.484   2.926 -2.6409  0.0360 -1.5449
  616MOL0     H83133   1.507   3.358   2.875  0.6634 -0.2054 -2.9098
  616MOL0     H83134   1.292   3.271   2.836 -2.6202  1.2914  0.1772
  616MOL0     H83135   1.257   3.405   2.723  0.7036  2.3971  1.7128
  616MOL0     H83136   1.498   3.224   2.695 -0.7693  0.2248 -0.5915
  616MOL0     H83137   1.422   3.331   2.568 -1.3052  1.3483  0.8441
  616MOL0     H83138   1.265   3.217   2.494 -2.8809  4.0890  2.6989
  616MOL0     H83139   1.367   3.081   2.557 -1.0387  0.0793  1.2867
  616MOL0     H83140   1.872   3.800   2.490 -0.0653 -1.2211  0.6950
  616MOL0     H83141   1.919   4.003   2.383  2.5135 -1.8204 -0.6480
  616MOL0     H83142   2.265   4.321   2.299  3.0876 -0.8542 -1.6145
  616MOL0     H83143   2.414   4.492   2.211  1.7629 -0.5323  1.9471
  616MOL0     H83144   3.512   5.833   2.738  0.7283  0.0381  0.1516
  616MOL0     H83145   3.538   5.811   2.987  3.3602  5.4712  4.5746
  616MOL0     H83146   3.942   5.679   3.286  0.6624  0.3568  0.6788
  616MOL0     H83147   4.036   5.748   3.506  1.0979  0.2330 -1.7236
  616MOL0     H83148   4.089   5.808   3.749  0.2858 -0.7413  1.0068
  616MOL0     H83149   4.063   5.632   3.721 -0.4093 -2.3422  2.6596
  616MOL0     H83150   4.046   5.794   3.980 -0.7903  0.1735  0.0927
  616MOL0     H83151   4.151   5.659   3.939 -0.0455  0.4835  1.5124
  616MOL0     H83152   3.916   5.528   3.909  1.9065 -0.3784  0.0830
  616MOL0     H83153   3.844   5.664   3.974  0.6711  1.5315 -1.7519
  616MOL0     H83154   3.895   5.472   4.154 -1.3195  1.8971  2.2333
  616MOL0     H83155   4.060   5.475   4.122 -1.1512 -1.7911 -2.1791
  616MOL0     H83156   3.983   5.851   4.334 -1.9951 -0.0380 -0.7369
  616MOL0     H83157   3.635   5.699   3.670 -1.8927 -1.4181 -2.3211
  616MOL0     H83158   3.458   5.737   3.559  1.0900 -2.0559  1.5440
  616MOL0     H83159   3.475   5.792   3.385 -3.1231 -2.1182 -1.1421
  616MOL0     H83160   3.460   5.620   3.420  0.6290 -1.9880  2.3225
  617MOL0     O83161   2.731   0.917   5.143 -0.7757  1.0665 -0.0219
  617MOL0     C83162   2.677   0.845   5.060  0.6994 -0.3998 -0.4604
  617MOL0     O83163   2.666   0.870   4.926  0.6927  0.5857  0.6942
  617MOL0     C83164   2.683   1.003   4.889 -0.4991 -0.4969 -0.5418
  617MOL0     C83165   2.582   1.063   4.811 -0.0428 -0.5655  0.7226
  617MOL0     C83166   2.594   1.199   4.767  0.0818  0.6304  0.6561
  617MOL0     C83167   2.713   1.273   4.792 -0.6673  0.2512  0.2650
  617MOL0     O83168   2.724   1.402   4.768  0.5860  0.5603  0.0184
  617MOL0     C83169   2.773   1.481   4.880 -0.4188 -0.7278  0.8239
  617MOL0     C83170   2.714   1.617   4.896 -0.7188  0.0961 -0.2303
  617MOL0     C83171   2.560   1.592   4.917  0.2464 -0.0872 -0.0848
  617MOL0     C83172   2.528   1.530   5.053  0.6200 -0.2700  0.1054
  617MOL0     C83173   2.378   1.558   5.088  0.6102  0.6414  0.0867
  617MOL0     C83174   2.271   1.524   4.967 -0.1825  0.5511 -0.7763
  617MOL0     C83175   2.124   1.530   5.016 -0.0323  0.2091 -0.0739
  617MOL0     C83176   2.077   1.676   5.018  0.1587  0.3230 -0.3185
  617MOL0     N83177   1.950   1.695   5.084 -0.4702 -0.1490 -0.7506
  617MOL0     C83178   1.941   1.713   5.214  0.9862  0.1936  0.1183
  617MOL0     C83179   1.809   1.702   5.257 -0.4379 -0.5416  0.3288
  617MOL0     C83180   1.767   1.711   5.394  0.2967  0.5029  0.2150
  617MOL0     C83181   1.796   1.853   5.446 -0.3798 -0.5496 -0.6053
  617MOL0     C83182   1.785   1.844   5.593 -0.4166  0.1131 -0.5948
  617MOL0     C83183   1.808   1.980   5.654 -0.1573 -0.2403 -0.5845
  617MOL0     O83184   1.698   2.074   5.632  0.0563 -1.1136  0.2627
  617MOL0     C83185   1.573   2.052   5.674 -0.0212 -0.8080  0.4792
  617MOL0     C83186   1.487   1.991   5.575 -1.2566 -1.4943 -0.5790
  617MOL0     C83187   1.358   1.948   5.602  0.1319  0.3811  0.3566
  617MOL0     C83188   1.312   1.961   5.735  0.8765 -0.6978 -0.5407
  617MOL0     C83189   1.165   1.931   5.766  0.3072 -0.3565 -0.0990
  617MOL0     O83190   1.110   2.002   5.873 -0.2078  0.5038  0.2028
  617MOL0     C83191   0.971   2.007   5.876  0.7503  0.3649 -1.0855
  617MOL0     C83192   0.908   2.120   5.838 -1.0134  0.1323  0.0813
  617MOL0     C83193   0.776   2.144   5.875 -1.2025 -0.1993 -0.1949
  617MOL0     C83194   0.712   2.052   5.956  0.7808  0.0815  0.6705
  617MOL0     O83195   0.587   2.076   5.989  0.1929 -0.4844  1.0965
  617MOL0     C83196   0.492   1.991   5.917  0.4194  0.2008  0.1093
  617MOL0     C83197   0.352   2.029   5.966 -0.3246 -0.1028  0.1240
  617MOL0     C83198   0.266   1.911   5.908 -1.2160 -0.0441  0.0058
  617MOL0     C83199   0.120   1.955   5.896  0.7810  0.4403 -0.7040
  617MOL0     C83200   0.036   1.839   5.953  0.2096  0.0096  0.1336
  617MOL0     C83201  -0.118   1.860   5.968  0.0515 -0.6696  1.0831
  617MOL0     C83202  -0.173   1.734   6.035  1.3878 -0.3567  0.2992
  617MOL0     C83203  -0.325   1.723   5.992  0.5226  0.5316  0.3371
  617MOL0    Cl83204  -0.352   1.710   5.814 -0.2352 -0.1076  0.1905
  617MOL0     C83205   0.773   1.928   5.979  0.6079  0.3924  0.5153
  617MOL0     C83206   0.908   1.906   5.944  1.0529  0.0403  0.0098
  617MOL0     O83207   1.094   1.869   5.692  0.0516 -0.9551  0.2803
  617MOL0     C83208   1.397   2.024   5.834  0.1635 -0.8799 -0.3011
  617MOL0     C83209   1.524   2.070   5.807 -0.2240 -0.4369  0.9378
  617MOL0     N83210   1.747   1.670   5.136  0.4376 -0.1051 -0.3781
  617MOL0     N83211   1.826   1.676   5.042 -0.2909 -0.8707 -0.5434
  617MOL0     C83212   2.820   1.202   4.852 -0.4512  0.6099 -0.0116
  617MOL0     C83213   2.800   1.070   4.896  0.7678 -0.7094 -0.0405
  617MOL0     C83214   2.631   0.716   5.111 -0.4508 -0.3583 -0.0055
  617MOL0     C83215   2.684   0.677   5.233  0.5850 -0.4923  0.7829
  617MOL0     C83216   2.655   0.554   5.288  0.9316  0.0562  1.0683
  617MOL0     C83217   2.588   0.451   5.217 -0.6261  0.3190 -0.3819
  617MOL0     O83218   2.584   0.329   5.275 -0.1313  0.8002 -0.5548
  617MOL0     C83219   2.546   0.209   5.212  0.1773 -0.2150  0.0496
  617MOL0     C83220   2.466   0.121   5.310 -0.3595 -0.8914  0.4464
  617MOL0     C83221   2.538   0.104   5.446  0.2716  0.5751  0.1239
  617MOL0     C83222   2.469   0.193   5.554 -0.0329  0.5500 -0.0835
  617MOL0     C83223   2.553   0.211   5.673 -0.0532 -0.2784 -0.3536
  617MOL0     C83224   2.622   0.218   5.780  0.3011 -0.6706  0.9950
  617MOL0     C83225   2.541   0.477   5.088 -0.1075 -0.2120  0.0485
  617MOL0     C83226   2.562   0.611   5.036  0.4788 -0.2833 -0.1539
  617MOL0     C83227   2.507   0.632   4.899 -0.2714 -0.1095  0.3039
  617MOL0     H83228   2.497   1.007   4.775  0.9665 -0.8840 -1.3141
  617MOL0     H83229   2.511   1.250   4.718  0.0018  0.1666  0.3001
  617MOL0     H83230   2.766   1.423   4.973  0.0419 -1.0626  0.6547
  617MOL0     H83231   2.882   1.495   4.877 -0.3141 -1.2660  1.6577
  617MOL0     H83232   2.737   1.673   4.805  0.5652  1.7233  1.0400
  617MOL0     H83233   2.758   1.666   4.983 -0.2986 -3.0171  1.4520
  617MOL0     H83234   2.515   1.533   4.836  0.2861  0.2714 -0.3686
  617MOL0     H83235   2.520   1.693   4.902  2.4769  0.7428 -0.8405
  617MOL0     H83236   2.553   1.425   5.066  1.6397 -0.4545 -2.6630
  617MOL0     H83237   2.587   1.591   5.122 -0.5782  0.5492  0.4555
  617MOL0     H83238   2.366   1.507   5.184 -1.3667 -2.0604 -1.4646
  617MOL0     H83239   2.370   1.666   5.101 -0.3456  0.6164 -0.2130
  617MOL0     H83240   2.295   1.579   4.876  1.0663  1.6530  0.1847
  617MOL0     H83241   2.284   1.418   4.945 -3.9755 -0.5733  1.3203
  617MOL0     H83242   2.120   1.486   5.116  0.3566 -1.0662 -0.5916
  617MOL0     H83243   2.068   1.465   4.947  2.5350  1.0460 -3.1898
  617MOL0     H83244   2.159   1.732   5.064  1.1506 -2.0806  1.0481
  617MOL0     H83245   2.065   1.691   4.910  2.1208 -2.7069 -1.1099
  617MOL0     H83246   2.026   1.725   5.280  1.3632  1.3752 -0.5559
  617MOL0     H83247   1.663   1.680   5.410  1.6355 -5.2568 -0.2324
  617MOL0     H83248   1.828   1.637   5.446  2.4442  1.5306 -0.7037
  617MOL0     H83249   1.898   1.880   5.419 -0.1392 -1.6185 -0.8034
  617MOL0     H83250   1.723   1.926   5.411  0.0340  0.2074  0.0977
  617MOL0     H83251   1.868   1.783   5.630 -0.7494  0.6186  1.0792
  617MOL0     H83252   1.689   1.808   5.632 -1.3396  1.4993 -1.5072
  617MOL0     H83253   1.905   2.023   5.625 -0.4997  1.1387  0.1944
  617MOL0     H83254   1.815   1.976   5.763 -1.5455  2.1868 -0.3200
  617MOL0     H83255   1.531   1.958   5.481  1.1080 -2.4131  0.7546
  617MOL0     H83256   1.294   1.908   5.524  0.6600 -1.4438  0.8073
  617MOL0     H83257   0.971   2.197   5.794 -0.2366 -1.6887 -2.1525
  617MOL0     H83258   0.742   2.247   5.866  1.8896  1.0577  1.0870
  617MOL0     H83259   0.499   1.996   5.808  4.0599 -4.0371 -0.1583
  617MOL0     H83260   0.504   1.888   5.953 -1.7096  0.8135  2.9710
  617MOL0     H83261   0.337   2.041   6.074 -1.0683  1.4635 -0.1268
  617MOL0     H83262   0.312   2.119   5.919  2.2987  1.6143  0.9612
  617MOL0     H83263   0.288   1.883   5.804 -0.6521 -0.2598  0.1782
  617MOL0     H83264   0.286   1.825   5.974  1.4861  0.5086  0.0409
  617MOL0     H83265   0.087   1.987   5.797  0.8676 -0.8905 -1.1933
  617MOL0     H83266   0.097   2.037   5.965 -5.7615 -0.5993 -1.0028
  617MOL0     H83267   0.077   1.822   6.053  1.8559  0.1148 -0.4990
  617MOL0     H83268   0.048   1.750   5.891  0.3527  0.0967  0.0377
  617MOL0     H83269  -0.144   1.947   6.029 -1.0326 -0.0187 -0.2556
  617MOL0     H83270  -0.155   1.879   5.866 -0.8595 -1.0655  1.3283
  617MOL0     H83271  -0.169   1.743   6.144  0.5037 -1.0270  0.3964
  617MOL0     H83272  -0.115   1.648   6.002  2.6839  0.3608  0.6217
  617MOL0     H83273  -0.371   1.636   6.040  1.6861 -0.2922  0.0054
  617MOL0     H83274  -0.372   1.813   6.032 -0.0786 -0.1581  1.2019
  617MOL0     H83275   0.703   1.856   6.021  2.2209 -1.2655  0.4943
  617MOL0     H83276   0.948   1.807   5.962 -1.9989 -1.5536 -1.2876
  617MOL0     H83277   1.367   2.029   5.939  1.4641  3.0998  0.0476
  617MOL0     H83278   1.566   2.114   5.896 -0.5745  2.2499 -0.1187
  617MOL0     H83279   2.914   1.246   4.882 -0.8459  0.1267  2.1090
  617MOL0     H83280   2.884   1.021   4.945  0.6057 -0.9519 -0.0033
  617MOL0     H83281   2.742   0.740   5.299 -2.2435  1.5767  1.4928
  617MOL0     H83282   2.687   0.519   5.385  1.0583 -1.6944  0.4198
  617MOL0     H83283   2.639   0.173   5.166  1.1539  0.4185  1.4307
  617MOL0     H83284   2.471   0.236   5.137  0.7270  2.8528  0.4626
  617MOL0     H83285   2.454   0.025   5.260  4.4774 -1.6952  0.4352
  617MOL0     H83286   2.370   0.165   5.342 -1.5463 -0.9025 -2.7137
  617MOL0     H83287   2.646   0.118   5.436  0.3217 -0.9155 -2.5357
  617MOL0     H83288   2.538   0.003   5.489 -1.5204  0.0112 -1.1057
  617MOL0     H83289   2.452   0.292   5.511 -0.3878 -1.1373 -4.2425
  617MOL0     H83290   2.373   0.153   5.588 -0.6306  1.1404 -1.0220
  617MOL0     H83291   2.684   0.250   5.861  1.6103 -1.1698  0.2250
  617MOL0     H83292   2.477   0.405   5.037 -0.2388 -0.2708  0.2965
  617MOL0     H83293   2.452   0.540   4.877  0.2265 -2.0418  5.6814
  617MOL0     H83294   2.440   0.717   4.885  0.2056  0.3378  0.6804
  617MOL0     H83295   2.582   0.661   4.825 -0.0382  1.2080  1.0221
  618MOL0     O83296   5.134   3.059  11.189 -0.7850  0.0039 -0.4979
  618MOL0     C83297   5.136   3.170  11.236  0.4901 -0.6937 -0.2901
  618MOL0     O83298   5.068   3.270  11.177  0.0679  0.3420  0.1423
  618MOL0     C83299   5.037   3.271  11.045  0.6785 -0.0187 -0.0183
  618MOL0     C83300   4.908   3.229  11.001 -0.4201  0.4570 -0.1608
  618MOL0     C83301   4.885   3.225  10.857 -0.6918  0.2637 -0.3741
  618MOL0     C83302   4.985   3.256  10.765  0.6088 -0.4886  0.2494
  618MOL0     O83303   4.950   3.266  10.630  0.5964  0.5354 -0.1450
  618MOL0     C83304   5.028   3.329  10.530 -0.1253  0.4264  0.7627
  618MOL0     C83305   5.146   3.253  10.484 -0.4904  0.0743  0.0475
  618MOL0     C83306   5.114   3.173  10.354  1.5193 -0.0860  0.6738
  618MOL0     C83307   5.205   3.058  10.318 -0.4659 -0.2648 -0.2042
  618MOL0     C83308   5.175   3.027  10.168  0.1702 -0.2275 -0.8104
  618MOL0     C83309   5.065   2.916  10.161 -1.1540 -0.4534  0.6076
  618MOL0     C83310   5.095   2.778  10.209  0.0599 -0.7392 -0.6641
  618MOL0     C83311   5.174   2.704  10.097 -0.4610 -1.0894  0.2527
  618MOL0     N83312   5.103   2.598  10.034 -0.1156  0.3839 -0.1973
  618MOL0     C83313   4.979   2.600   9.983  0.3251  0.3244 -0.0979
  618MOL0     C83314   4.963   2.474   9.942  0.2951  0.2366  0.8371
  618MOL0     C83315   4.858   2.420   9.854 -0.3211 -1.2473  0.2104
  618MOL0     C83316   4.848   2.510   9.724  0.1546  0.3335  0.2675
  618MOL0     C83317   4.983   2.538   9.649  0.0634  0.9664 -0.5225
  618MOL0     C83318   5.068   2.410   9.612  0.1274 -0.7478 -0.8537
  618MOL0     O83319   5.183   2.444   9.535 -0.0154 -0.0661 -0.3997
  618MOL0     C83320   5.246   2.342   9.472  0.3569 -0.0446 -0.4557
  618MOL0     C83321   5.364   2.376   9.403 -0.1481 -0.3746 -0.0265
  618MOL0     C83322   5.413   2.282   9.307  0.8260  1.2251  0.4784
  618MOL0     C83323   5.366   2.155   9.287 -0.7107 -0.2684  0.0291
  618MOL0     C83324   5.439   2.063   9.196 -0.1282 -0.3507  1.2303
  618MOL0     O83325   5.539   2.124   9.124 -0.4567  0.2697  0.3554
  618MOL0     C83326   5.624   2.035   9.070  0.4300  0.4902 -0.1783
  618MOL0     C83327   5.567   1.967   8.965  0.0058 -0.8981  1.0159
  618MOL0     C83328   5.636   1.871   8.883 -0.2534 -0.0817 -0.5417
  618MOL0     C83329   5.756   1.817   8.929  1.5134  0.0383  0.7656
  618MOL0     O83330   5.829   1.726   8.864  0.6613  0.3621  0.1611
  618MOL0     C83331   5.868   1.619   8.938 -0.5682 -0.0556  0.2204
  618MOL0     C83332   5.912   1.501   8.837 -0.3825  0.6465  0.1218
  618MOL0     C83333   5.775   1.458   8.769  0.3407  0.2912  0.2168
  618MOL0     C83334   5.795   1.330   8.686  0.4032 -0.1717 -1.1020
  618MOL0     C83335   5.675   1.328   8.588  0.0883 -0.5437  0.0243
  618MOL0     C83336   5.665   1.199   8.515  0.0773  0.0383  0.0741
  618MOL0     C83337   5.578   1.225   8.388  0.0701 -0.0097 -0.0888
  618MOL0     C83338   5.588   1.101   8.297  0.6083  0.7827  0.8292
  618MOL0    Cl83339   5.436   1.083   8.200  0.6799  0.2872 -0.5031
  618MOL0     C83340   5.812   1.888   9.038  0.5091  0.8330 -0.4532
  618MOL0     C83341   5.751   1.994   9.108  0.6960  0.3388 -0.5464
  618MOL0     O83342   5.414   1.940   9.198 -0.0049 -0.1696  0.4531
  618MOL0     C83343   5.266   2.114   9.376  0.1355  0.7180  0.2870
  618MOL0     C83344   5.198   2.201   9.464 -0.4695 -0.8949 -0.2335
  618MOL0     N83345   5.074   2.393   9.975 -0.2407 -0.7012  0.1071
  618MOL0     N83346   5.151   2.469  10.045 -0.1380  0.0906  0.0938
  618MOL0     C83347   5.113   3.283  10.811  0.8834 -0.2542 -0.7312
  618MOL0     C83348   5.138   3.299  10.951 -0.4369 -0.2152  0.2130
  618MOL0     C83349   5.232   3.207  11.345  0.2451 -0.1456  0.3710
  618MOL0     C83350   5.251   3.347  11.361  1.2429  0.5449 -0.0660
  618MOL0     C83351   5.333   3.406  11.462  0.3598  0.3131  0.6895
  618MOL0     C83352   5.411   3.318  11.538 -0.3271 -0.1230 -0.0417
  618MOL0     O83353   5.499   3.371  11.626  0.6264  0.3980  0.3539
  618MOL0     C83354   5.523   3.287  11.744  0.0559  0.5033  0.5300
  618MOL0     C83355   5.559   3.376  11.860  0.8232  0.6682  0.5849
  618MOL0     C83356   5.675   3.475  11.838 -0.3740 -0.3373 -1.1481
  618MOL0     C83357   5.785   3.471  11.947 -0.0922  0.2944  0.2247
  618MOL0     C83358   5.726   3.537  12.060 -0.2263  0.6535 -0.3731
  618MOL0     C83359   5.683   3.621  12.142 -1.0769  0.6018 -0.4672
  618MOL0     C83360   5.398   3.181  11.521 -0.7959 -0.5425  0.4783
  618MOL0     C83361   5.313   3.126  11.424 -0.5087  0.1714  0.3408
  618MOL0     C83362   5.310   2.966  11.416 -0.8963 -0.1823 -0.9923
  618MOL0     H83363   4.832   3.197  11.073 -0.0629  3.7087  1.8768
  618MOL0     H83364   4.788   3.189  10.824 -0.5554  1.9143 -2.7638
  618MOL0     H83365   4.969   3.345  10.439 -0.2705 -0.9433  0.5919
  618MOL0     H83366   5.054   3.427  10.571 -2.9923  2.8677 -2.5482
  618MOL0     H83367   5.178   3.179  10.558 -0.7155 -3.1476 -2.7731
  618MOL0     H83368   5.220   3.333  10.476  1.8263 -1.5676  3.0095
  618MOL0     H83369   5.106   3.247  10.274 -1.0937  0.3023  1.1904
  618MOL0     H83370   5.016   3.124  10.364  0.2428  2.5316  1.9465
  618MOL0     H83371   5.306   3.089  10.345 -0.9277  0.5569  0.6542
  618MOL0     H83372   5.180   2.975  10.384 -2.0179  0.1135 -0.2737
  618MOL0     H83373   5.152   3.110  10.100 -1.2686  0.7879  0.8356
  618MOL0     H83374   5.270   2.997  10.123 -0.5465 -1.2229 -1.7198
  618MOL0     H83375   4.981   2.962  10.215 -0.9689  1.5151 -0.6823
  618MOL0     H83376   5.032   2.905  10.057 -1.9271 -3.1545  1.0634
  618MOL0     H83377   4.995   2.736  10.223 -0.1164  0.1942  1.1435
  618MOL0     H83378   5.134   2.783  10.311 -1.1103  2.3627 -0.2631
  618MOL0     H83379   5.213   2.782  10.032 -2.2432  0.2863  0.7439
  618MOL0     H83380   5.261   2.664  10.149 -0.8500 -1.9322  0.2696
  618MOL0     H83381   4.924   2.689   9.951 -3.3132  0.1579  4.6558
  618MOL0     H83382   4.890   2.318   9.832  1.2314 -1.1536  1.7493
  618MOL0     H83383   4.766   2.423   9.913  0.7379  2.0584  2.0230
  618MOL0     H83384   4.796   2.445   9.653 -1.8565  1.6224  0.4811
  618MOL0     H83385   4.792   2.604   9.732 -0.9455 -0.2020 -0.8054
  618MOL0     H83386   5.038   2.607   9.714  2.8014 -0.1414 -1.5021
  618MOL0     H83387   4.953   2.605   9.569 -0.3954  0.8376 -0.4638
  618MOL0     H83388   5.002   2.346   9.553 -2.4676  2.6927 -2.0399
  618MOL0     H83389   5.093   2.360   9.706  2.3896 -0.4367 -1.2469
  618MOL0     H83390   5.406   2.475   9.396  2.3752 -1.3901 -0.0662
  618MOL0     H83391   5.492   2.318   9.242 -0.4866  1.1620 -1.2108
  618MOL0     H83392   5.474   2.006   8.925  0.9346  0.1610 -0.2231
  618MOL0     H83393   5.601   1.838   8.786 -1.9741 -1.8231  0.6099
  618MOL0     H83394   5.960   1.645   8.992 -0.0587 -2.2216  0.5219
  618MOL0     H83395   5.797   1.583   9.013 -2.8110  0.8517 -1.3818
  618MOL0     H83396   5.979   1.541   8.760 -0.0099 -1.4205 -0.7033
  618MOL0     H83397   5.953   1.425   8.904  0.7569  2.1006  1.1379
  618MOL0     H83398   5.694   1.452   8.842  2.2778  1.8401  2.6801
  618MOL0     H83399   5.750   1.550   8.715 -2.2436  0.4868  1.5878
  618MOL0     H83400   5.783   1.246   8.755  2.2372  2.3827  2.6587
  618MOL0     H83401   5.897   1.338   8.649  1.2514  2.1080  1.3532
  618MOL0     H83402   5.707   1.406   8.518  1.7334 -0.7344  0.5247
  618MOL0     H83403   5.582   1.360   8.635 -0.1568 -2.1086  0.6533
  618MOL0     H83404   5.767   1.176   8.483 -1.2238 -4.6809 -1.4335
  618MOL0     H83405   5.627   1.115   8.573  3.4076 -0.8215  1.2326
  618MOL0     H83406   5.611   1.312   8.331  0.9324 -1.2194 -1.5051
  618MOL0     H83407   5.470   1.234   8.403 -0.3095 -0.4870 -2.1691
  618MOL0     H83408   5.673   1.107   8.228 -1.2368  3.1908 -1.4429
  618MOL0     H83409   5.606   1.010   8.356 -0.9474 -1.7392 -2.2587
  618MOL0     H83410   5.911   1.867   9.075 -0.4306 -0.8299  1.2741
  618MOL0     H83411   5.796   2.037   9.197  2.7871  0.3572 -1.5422
  618MOL0     H83412   5.229   2.012   9.375  0.1890  0.6955 -0.8952
  618MOL0     H83413   5.112   2.168   9.522  1.3478 -4.3680  0.7608
  618MOL0     H83414   5.195   3.300  10.741  0.4504  2.7210 -0.6336
  618MOL0     H83415   5.235   3.335  10.985 -0.5703  0.8455 -0.4818
  618MOL0     H83416   5.226   3.418  11.282 -0.2348 -0.2838 -0.3779
  618MOL0     H83417   5.341   3.514  11.456  2.4959  0.2725  1.6539
  618MOL0     H83418   5.612   3.227  11.726 -0.0229  0.5379  0.0160
  618MOL0     H83419   5.446   3.219  11.784 -0.1855  0.1223 -0.5394
  618MOL0     H83420   5.575   3.315  11.949 -1.4562  0.0459  0.6462
  618MOL0     H83421   5.463   3.420  11.889  0.4955 -0.2558  0.9386
  618MOL0     H83422   5.623   3.571  11.844  1.4531  0.6114  1.5848
  618MOL0     H83423   5.712   3.455  11.737 -0.5645 -4.2114 -0.6048
  618MOL0     H83424   5.806   3.365  11.968  0.6724  0.7333  1.7922
  618MOL0     H83425   5.874   3.519  11.905  0.4341 -2.0967 -1.6295
  618MOL0     H83426   5.645   3.682  12.222  3.7966  0.7634  2.1327
  618MOL0     H83427   5.468   3.113  11.569 -1.4633 -1.1679  0.5773
  618MOL0     H83428   5.219   2.916  11.385 -1.7218  1.5351 -1.4762
  618MOL0     H83429   5.393   2.926  11.356  0.1637  0.1697  0.1900
  618MOL0     H83430   5.331   2.931  11.517 -2.0667  1.3837 -0.1593
  619MOL0     O83431   4.458   8.319   6.776  0.3551 -0.8710  0.1752
  619MOL0     C83432   4.493   8.261   6.674 -0.1979 -0.2143  0.5377
  619MOL0     O83433   4.554   8.320   6.564  0.1861 -0.5603 -0.4219
  619MOL0     C83434   4.583   8.451   6.566  0.7743  0.1504 -0.1670
  619MOL0     C83435   4.707   8.492   6.620  0.1347 -0.1163 -0.9235
  619MOL0     C83436   4.729   8.633   6.628 -0.6608 -0.3856 -0.0522
  619MOL0     C83437   4.641   8.728   6.588 -0.0851  0.6977  0.1661
  619MOL0     O83438   4.668   8.862   6.607  0.6638  0.1090  0.8549
  619MOL0     C83439   4.606   8.956   6.517 -0.1803 -0.8432  0.1934
  619MOL0     C83440   4.495   9.032   6.573  0.6994  0.1996 -0.5431
  619MOL0     C83441   4.374   8.950   6.612 -0.2611  0.4907  0.1369
  619MOL0     C83442   4.271   9.045   6.681 -0.3754  0.8086  0.2215
  619MOL0     C83443   4.152   8.960   6.741  0.3424 -0.3550  0.0678
  619MOL0     C83444   4.019   9.034   6.745 -0.3655  1.6254 -0.3966
  619MOL0     C83445   3.978   9.059   6.596 -1.2236  0.5676 -0.4354
  619MOL0     C83446   3.922   8.932   6.515  0.5864  0.6090  0.7364
  619MOL0     N83447   3.991   8.917   6.377 -0.0703  0.1260 -0.5422
  619MOL0     C83448   3.960   8.961   6.250  0.1021 -0.7496  0.0703
  619MOL0     C83449   4.055   8.916   6.168  0.0974 -0.0527  1.1022
  619MOL0     C83450   4.065   8.924   6.011  0.7212  0.0454 -0.0073
  619MOL0     C83451   4.154   8.818   5.949  0.0396  0.3873  0.4757
  619MOL0     C83452   4.168   8.821   5.797  0.1668  0.3412  0.0498
  619MOL0     C83453   4.232   8.693   5.737  0.4784 -0.1772  0.2671
  619MOL0     O83454   4.148   8.577   5.758  0.7838  0.0451  0.2226
  619MOL0     C83455   4.191   8.467   5.674  0.3878  0.3280  0.9630
  619MOL0     C83456   4.091   8.376   5.638  0.6591 -0.1220  0.3257
  619MOL0     C83457   4.109   8.266   5.551 -0.3018 -0.9622 -0.3720
  619MOL0     C83458   4.243   8.251   5.507 -0.9228 -0.1275 -0.2315
  619MOL0     C83459   4.258   8.128   5.410  0.3241 -0.5496 -1.0171
  619MOL0     O83460   4.380   8.116   5.355  0.6780  0.4119  0.3471
  619MOL0     C83461   4.421   8.004   5.288  0.9533  0.6698  0.3379
  619MOL0     C83462   4.350   7.930   5.191  0.0693 -0.1815  0.7354
  619MOL0     C83463   4.405   7.822   5.125 -0.5791  0.2019 -0.8941
  619MOL0     C83464   4.529   7.773   5.151 -0.3047 -0.1203 -0.5680
  619MOL0     O83465   4.573   7.666   5.073  0.7205 -0.0068  0.3598
  619MOL0     C83466   4.695   7.682   5.012  0.0933 -0.4602 -0.2454
  619MOL0     C83467   4.680   7.789   4.898  0.3088  0.8267  0.1765
  619MOL0     C83468   4.778   7.764   4.788 -0.6775 -0.5490  0.6735
  619MOL0     C83469   4.746   7.654   4.687 -0.1351  0.8603  0.2736
  619MOL0     C83470   4.857   7.666   4.576  0.2471  0.9305  0.4974
  619MOL0     C83471   4.979   7.595   4.625 -0.0150  0.4677 -0.2668
  619MOL0     C83472   5.121   7.653   4.575  1.1076 -0.3203  0.6526
  619MOL0     C83473   5.129   7.800   4.602 -0.4864  1.4828  0.1567
  619MOL0    Cl83474   5.291   7.849   4.650 -0.3055 -0.0574  0.5120
  619MOL0     C83475   4.598   7.834   5.250 -0.1805 -0.6059  0.2169
  619MOL0     C83476   4.550   7.954   5.312  0.9214 -0.3685  0.3760
  619MOL0     O83477   4.155   8.051   5.392  0.0164  0.4285  1.3300
  619MOL0     C83478   4.344   8.325   5.554 -0.1196  1.1752  0.4502
  619MOL0     C83479   4.314   8.441   5.619 -0.5033 -0.4034 -0.1486
  619MOL0     N83480   4.145   8.843   6.238 -0.6117 -0.4254  1.1250
  619MOL0     N83481   4.109   8.842   6.356  0.1679 -0.1087 -1.2130
  619MOL0     C83482   4.536   8.683   6.514 -0.1877 -0.1262 -0.6789
  619MOL0     C83483   4.503   8.546   6.502 -0.6682  0.0396 -0.0996
  619MOL0     C83484   4.448   8.117   6.657  0.2159 -1.9279  0.6585
  619MOL0     C83485   4.479   8.057   6.535 -0.3919  0.3267  0.9494
  619MOL0     C83486   4.469   7.915   6.510 -0.2452 -0.8650 -0.0029
  619MOL0     C83487   4.383   7.839   6.600 -0.6216 -0.3677  0.1178
  619MOL0     O83488   4.351   7.711   6.585 -1.1767 -0.2614  0.0253
  619MOL0     C83489   4.394   7.649   6.462  0.1387  0.3559  0.3749
  619MOL0     C83490   4.342   7.502   6.471  0.1721  0.3559 -0.0479
  619MOL0     C83491   4.386   7.425   6.344  0.0514  0.4099  0.2487
  619MOL0     C83492   4.334   7.282   6.351  0.2051  0.4029  0.3906
  619MOL0     C83493   4.374   7.201   6.238  0.6929 -0.2242 -0.7336
  619MOL0     C83494   4.404   7.133   6.145  0.2909  1.0772 -0.6939
  619MOL0     C83495   4.336   7.904   6.718 -1.4558 -0.3152  0.1358
  619MOL0     C83496   4.374   8.040   6.748  0.2642 -0.4614  0.3072
  619MOL0     C83497   4.348   8.079   6.888 -0.4918 -0.8350 -0.4285
  619MOL0     H83498   4.769   8.425   6.679 -0.1540  0.9852  0.6935
  619MOL0     H83499   4.822   8.655   6.679 -0.5208 -0.3327 -0.3270
  619MOL0     H83500   4.678   9.035   6.493 -1.3068  1.4937  3.7255
  619MOL0     H83501   4.580   8.914   6.419  1.7843  0.1649 -0.8165
  619MOL0     H83502   4.452   9.110   6.509 -0.5345  4.7174  5.0216
  619MOL0     H83503   4.523   9.091   6.661 -0.4615 -0.3045  0.1843
  619MOL0     H83504   4.401   8.867   6.678 -0.1745 -1.5891 -2.3586
  619MOL0     H83505   4.328   8.906   6.523  0.4580 -0.8024  0.3838
  619MOL0     H83506   4.313   9.084   6.775  0.9284 -0.6368  0.2868
  619MOL0     H83507   4.247   9.126   6.612  0.3940  0.2147 -0.7601
  619MOL0     H83508   4.139   8.872   6.678  0.7505 -0.2554 -0.1578
  619MOL0     H83509   4.179   8.924   6.841  0.0558 -2.3403 -0.5214
  619MOL0     H83510   3.939   8.987   6.803 -0.0751  3.1702  1.3682
  619MOL0     H83511   4.026   9.137   6.781 -2.8661  1.9646 -0.6746
  619MOL0     H83512   4.066   9.090   6.540  1.8978 -3.3963  1.7195
  619MOL0     H83513   3.902   9.137   6.607 -0.7044  0.9270  0.7087
  619MOL0     H83514   3.939   8.842   6.575 -2.0912 -0.2679  0.3383
  619MOL0     H83515   3.813   8.935   6.502  0.5283  1.1427  1.3191
  619MOL0     H83516   3.868   9.015   6.225  0.9385  0.9706  0.5333
  619MOL0     H83517   3.963   8.904   5.978  0.2474  0.2272  1.2979
  619MOL0     H83518   4.088   9.022   5.968 -2.0317  0.1601 -1.4076
  619MOL0     H83519   4.255   8.822   5.991  0.2498 -1.2126  0.1570
  619MOL0     H83520   4.121   8.717   5.973  1.6816 -0.7249 -1.6305
  619MOL0     H83521   4.222   8.909   5.761  0.9135  0.8236  2.1963
  619MOL0     H83522   4.070   8.825   5.750 -0.2721  1.6136  1.0031
  619MOL0     H83523   4.332   8.686   5.782 -0.6338 -1.8321  2.6941
  619MOL0     H83524   4.247   8.708   5.630 -0.9045  0.2861  0.1184
  619MOL0     H83525   3.993   8.399   5.679  0.3711 -0.1540 -0.3407
  619MOL0     H83526   4.027   8.207   5.510 -1.4560  1.6883 -2.1312
  619MOL0     H83527   4.255   7.966   5.154 -0.3333  0.3729  2.2355
  619MOL0     H83528   4.339   7.767   5.059 -2.7067 -0.0894  1.3524
  619MOL0     H83529   4.772   7.715   5.083  0.0237  2.9395 -1.5594
  619MOL0     H83530   4.728   7.588   4.968 -1.5622 -0.5588 -1.3593
  619MOL0     H83531   4.581   7.772   4.856 -0.0003 -4.4966  2.2424
  619MOL0     H83532   4.688   7.890   4.938  0.0459  0.3071  1.5878
  619MOL0     H83533   4.771   7.858   4.733  1.0191 -1.4944 -1.2710
  619MOL0     H83534   4.882   7.751   4.822  0.1567  1.7741 -0.7719
  619MOL0     H83535   4.649   7.679   4.643 -0.4656 -0.5448  0.1768
  619MOL0     H83536   4.735   7.557   4.736 -1.0867  0.6668 -0.2902
  619MOL0     H83537   4.874   7.771   4.549  0.6627  0.9775  0.9379
  619MOL0     H83538   4.825   7.613   4.486  0.1419 -0.3712  1.2779
  619MOL0     H83539   4.984   7.585   4.734  0.2684  4.2489  0.2230
  619MOL0     H83540   4.971   7.496   4.579 -2.4699  1.3947 -2.0191
  619MOL0     H83541   5.120   7.622   4.470  2.2113 -2.0057  1.1116
  619MOL0     H83542   5.197   7.590   4.623 -0.8068 -1.1716  2.7646
  619MOL0     H83543   5.098   7.859   4.516 -1.2455  2.2183  0.9078
  619MOL0     H83544   5.052   7.828   4.675 -0.7822 -2.4693  1.6168
  619MOL0     H83545   4.694   7.788   5.272 -1.3452 -2.5271  1.5887
  619MOL0     H83546   4.610   8.022   5.372  0.6134 -0.0100  0.2820
  619MOL0     H83547   4.445   8.299   5.523 -1.1018 -1.0272 -1.1390
  619MOL0     H83548   4.398   8.503   5.647 -0.5604  0.3364 -1.5240
  619MOL0     H83549   4.476   8.758   6.463  1.7514  1.5480 -0.6540
  619MOL0     H83550   4.434   8.514   6.424  0.3519 -0.1440 -0.9480
  619MOL0     H83551   4.533   8.104   6.453 -1.1808 -1.5889 -0.7567
  619MOL0     H83552   4.509   7.878   6.416 -2.8156 -3.1665 -0.3145
  619MOL0     H83553   4.503   7.647   6.472  0.3190  2.5877 -0.5045
  619MOL0     H83554   4.359   7.701   6.373 -0.8221 -1.2917 -0.2623
  619MOL0     H83555   4.234   7.503   6.485  0.2157  1.4160  0.2938
  619MOL0     H83556   4.376   7.462   6.567  2.8269  0.3498 -0.9029
  619MOL0     H83557   4.495   7.422   6.339  0.1787  0.7026  2.0876
  619MOL0     H83558   4.346   7.477   6.256 -0.2110  0.0147  0.1340
  619MOL0     H83559   4.350   7.233   6.448 -1.1473  1.0309  0.9671
  619MOL0     H83560   4.224   7.280   6.350  0.2105 -0.1301  0.5248
  619MOL0     H83561   4.434   7.073   6.061 -0.7534 -3.2299  1.7029
  619MOL0     H83562   4.268   7.857   6.788  0.1281 -0.5255  1.5935
  619MOL0     H83563   4.300   8.175   6.907  1.4835  0.6091 -2.2130
  619MOL0     H83564   4.308   8.007   6.960  0.7187  0.1902  1.3491
  619MOL0     H83565   4.451   8.100   6.919 -0.3428  1.1485 -2.0656
  620MOL0     O83566   4.055   5.243   5.115 -0.1734  0.6458 -0.5333
  620MOL0     C83567   4.099   5.173   5.028  0.2964 -0.3602 -0.5865
  620MOL0     O83568   4.141   5.043   5.048  0.6830 -0.1481 -0.5974
  620MOL0     C83569   4.172   5.004   5.174 -0.1458  0.6503  0.5644
  620MOL0     C83570   4.179   4.866   5.194 -0.6515 -0.6690 -0.3563
  620MOL0     C83571   4.216   4.818   5.324 -0.1339  0.7742  0.5396
  620MOL0     C83572   4.263   4.897   5.429  0.8459 -0.6304 -0.1486
  620MOL0     O83573   4.296   4.841   5.555  0.8062  0.6710  0.2326
  620MOL0     C83574   4.257   4.908   5.675  0.6273 -0.9791 -0.2090
  620MOL0     C83575   4.113   4.870   5.708  0.5487 -0.0441  0.2578
  620MOL0     C83576   4.120   4.753   5.808 -0.0661  1.1031 -1.0603
  620MOL0     C83577   3.993   4.746   5.900  0.2116 -0.6478  0.4649
  620MOL0     C83578   3.858   4.724   5.823  0.5281  0.2042  0.5324
  620MOL0     C83579   3.737   4.709   5.920  0.8827 -0.0064  0.4922
  620MOL0     C83580   3.608   4.670   5.847 -0.1509 -0.5029 -0.5892
  620MOL0     C83581   3.483   4.689   5.937  0.0644  0.6829  0.9097
  620MOL0     N83582   3.446   4.822   5.968  0.3093  0.0296 -0.4641
  620MOL0     C83583   3.441   4.865   6.098  0.0926  0.1566 -0.1230
  620MOL0     C83584   3.372   4.988   6.096 -0.9725  0.7430  0.9453
  620MOL0     C83585   3.333   5.084   6.208 -0.2715 -0.8764 -0.0839
  620MOL0     C83586   3.457   5.147   6.272  0.1321  1.0346 -0.4533
  620MOL0     C83587   3.480   5.088   6.413  0.1832 -0.0929 -0.3286
  620MOL0     C83588   3.599   5.159   6.477  0.1935  0.6048  0.2748
  620MOL0     O83589   3.559   5.299   6.485  0.4241  0.4445  0.6554
  620MOL0     C83590   3.640   5.380   6.565  0.2490 -0.5515 -0.0618
  620MOL0     C83591   3.740   5.348   6.669 -0.1670  0.0490  0.3217
  620MOL0     C83592   3.785   5.449   6.753 -1.3580  0.4349 -0.5921
  620MOL0     C83593   3.734   5.578   6.752 -0.7367  0.0321  0.5626
  620MOL0     C83594   3.771   5.666   6.861 -0.0582  0.5069 -0.4926
  620MOL0     O83595   3.868   5.619   6.951  0.4595  0.8264  0.6974
  620MOL0     C83596   3.913   5.692   7.043 -0.0431  0.5502 -0.8869
  620MOL0     C83597   3.841   5.771   7.128  0.8983 -0.2081 -0.9693
  620MOL0     C83598   3.900   5.855   7.223 -0.5129  0.0521 -0.6041
  620MOL0     C83599   4.044   5.855   7.246  0.4383  0.8317 -0.0765
  620MOL0     O83600   4.110   5.918   7.358  0.0795 -0.2828 -0.0504
  620MOL0     C83601   4.028   5.900   7.475  0.6828  0.0045  0.2961
  620MOL0     C83602   4.116   5.954   7.590 -0.1001 -0.1611 -0.7050
  620MOL0     C83603   4.087   5.898   7.730 -0.8246 -0.2776  0.5406
  620MOL0     C83604   3.956   5.951   7.781  0.2084 -0.2687  1.1101
  620MOL0     C83605   3.934   5.901   7.920 -0.4517  0.2757 -0.1688
  620MOL0     C83606   3.809   5.957   7.972 -0.1942  0.7773 -0.2261
  620MOL0     C83607   3.780   5.882   8.113 -0.3208  0.8400  1.2805
  620MOL0     C83608   3.640   5.895   8.168 -0.5475 -0.0642 -0.2409
  620MOL0    Cl83609   3.581   6.068   8.181  0.1499 -0.1415  0.3266
  620MOL0     C83610   4.119   5.777   7.153  0.1485  0.5820  0.1898
  620MOL0     C83611   4.048   5.698   7.056  0.0529 -1.2126  0.6493
  620MOL0     O83612   3.726   5.782   6.866 -0.4384  0.1511  0.5121
  620MOL0     C83613   3.632   5.606   6.651 -1.0143 -0.7120  0.1269
  620MOL0     C83614   3.588   5.511   6.556 -0.1514 -0.4802 -0.2459
  620MOL0     N83615   3.355   5.007   5.952  0.0003  0.6657 -0.3510
  620MOL0     N83616   3.397   4.911   5.878 -0.2085  0.1367  0.3981
  620MOL0     C83617   4.270   5.035   5.397 -0.4691 -0.1998 -0.5062
  620MOL0     C83618   4.230   5.085   5.270 -0.3789 -0.5699 -0.7860
  620MOL0     C83619   4.158   5.232   4.907  0.2568  0.3937  0.1183
  620MOL0     C83620   4.281   5.178   4.846  1.2409  0.4927 -0.0162
  620MOL0     C83621   4.328   5.226   4.732 -0.7138 -1.0260 -0.3319
  620MOL0     C83622   4.269   5.329   4.665 -0.5677 -0.4036 -0.1678
  620MOL0     O83623   4.318   5.370   4.547 -0.2037 -0.4265  0.5169
  620MOL0     C83624   4.273   5.502   4.496  0.2586 -0.8237 -0.8119
  620MOL0     C83625   4.371   5.574   4.400  0.3072 -0.7233 -0.2442
  620MOL0     C83626   4.508   5.623   4.453  1.3558  0.3529  0.2331
  620MOL0     C83627   4.578   5.515   4.547 -0.1483 -0.0019  0.5655
  620MOL0     C83628   4.716   5.562   4.552  0.2092 -0.3862 -0.8263
  620MOL0     C83629   4.823   5.603   4.556 -1.1275  0.1344  0.4263
  620MOL0     C83630   4.160   5.394   4.723  0.6841  0.5542 -0.0097
  620MOL0     C83631   4.102   5.342   4.834  0.7286 -0.0836  0.0774
  620MOL0     C83632   3.970   5.405   4.882 -0.6545 -0.3583 -0.4912
  620MOL0     H83633   4.150   4.807   5.108 -2.1744  4.0416 -3.4420
  620MOL0     H83634   4.218   4.710   5.337  0.5860  0.4007 -2.1255
  620MOL0     H83635   4.326   4.862   5.747 -0.8591 -0.2466  1.7937
  620MOL0     H83636   4.267   5.017   5.670  1.5227 -0.9583  1.2941
  620MOL0     H83637   4.049   4.850   5.622  1.8714  1.9434 -1.2814
  620MOL0     H83638   4.060   4.952   5.757 -0.0552 -1.2925  1.7842
  620MOL0     H83639   4.206   4.759   5.875  1.0785  3.3326 -2.5849
  620MOL0     H83640   4.132   4.664   5.745  0.8562  0.7288 -0.3819
  620MOL0     H83641   4.006   4.672   5.980 -0.2593  0.6858  1.8319
  620MOL0     H83642   3.967   4.837   5.955 -1.9747 -1.0105  0.1204
  620MOL0     H83643   3.828   4.810   5.762 -0.1808  0.8243  1.7173
  620MOL0     H83644   3.872   4.637   5.759 -1.4069  2.1477 -2.8487
  620MOL0     H83645   3.742   4.619   5.981 -1.8782 -0.8062 -0.2943
  620MOL0     H83646   3.708   4.798   5.976 -0.2911  0.7397 -1.2021
  620MOL0     H83647   3.638   4.571   5.812  2.7748  0.9897 -2.7194
  620MOL0     H83648   3.600   4.714   5.747  0.4919 -2.6305 -1.6319
  620MOL0     H83649   3.398   4.643   5.887  0.5363  0.7238  0.0453
  620MOL0     H83650   3.507   4.636   6.030 -1.8101 -0.6478  0.6873
  620MOL0     H83651   3.475   4.823   6.191 -2.4234 -0.1429  0.7453
  620MOL0     H83652   3.285   5.171   6.162  0.2009 -0.3427  0.4136
  620MOL0     H83653   3.258   5.035   6.270 -0.0365  0.7527  1.5871
  620MOL0     H83654   3.542   5.120   6.210 -1.1451  1.6687 -2.5917
  620MOL0     H83655   3.462   5.256   6.276 -0.1829  1.1781 -2.6553
  620MOL0     H83656   3.517   4.986   6.397  2.1211  0.8336 -2.3056
  620MOL0     H83657   3.392   5.090   6.478 -0.0168 -1.1072 -0.5527
  620MOL0     H83658   3.688   5.150   6.413  0.7983  1.7394  0.9168
  620MOL0     H83659   3.623   5.119   6.576 -0.7512 -1.5671 -0.3071
  620MOL0     H83660   3.769   5.245   6.688  1.8159  0.5513  0.2787
  620MOL0     H83661   3.859   5.417   6.825 -2.8136 -1.1018  0.2868
  620MOL0     H83662   3.733   5.761   7.134  1.2084 -4.3806  1.7215
  620MOL0     H83663   3.843   5.916   7.291  0.3744  0.3265 -0.0925
  620MOL0     H83664   3.938   5.961   7.478 -0.7449 -1.9170 -1.0902
  620MOL0     H83665   4.005   5.793   7.480 -1.6631  0.5123  2.6316
  620MOL0     H83666   4.222   5.927   7.576 -0.2868 -1.4368  0.1329
  620MOL0     H83667   4.095   6.061   7.599  0.2611 -0.2539  4.0757
  620MOL0     H83668   4.066   5.791   7.713 -3.3747  0.5203 -2.4337
  620MOL0     H83669   4.166   5.918   7.802 -0.6174  1.0432 -0.0397
  620MOL0     H83670   3.887   5.904   7.710  1.7748 -0.4319 -0.3631
  620MOL0     H83671   3.959   6.060   7.790  3.8032 -0.3031  1.7739
  620MOL0     H83672   4.015   5.925   7.990  0.1764 -4.2954  1.0375
  620MOL0     H83673   3.920   5.792   7.915  0.8158 -0.0146  1.4581
  620MOL0     H83674   3.806   6.067   7.972 -2.2046  0.7614 -0.5431
  620MOL0     H83675   3.720   5.940   7.910  0.8489 -0.6668 -1.3919
  620MOL0     H83676   3.845   5.931   8.186  1.7122 -0.5724  0.5189
  620MOL0     H83677   3.803   5.776   8.100 -1.8731  0.5308  0.8903
  620MOL0     H83678   3.578   5.831   8.105 -2.3197 -1.6860  2.9035
  620MOL0     H83679   3.644   5.848   8.267  0.0644  2.7112  1.1511
  620MOL0     H83680   4.227   5.766   7.157  0.4863  2.4508 -2.0972
  620MOL0     H83681   4.120   5.647   6.993  2.5124  3.9204 -1.3275
  620MOL0     H83682   3.603   5.711   6.645  1.6175  0.0834  0.3470
  620MOL0     H83683   3.521   5.539   6.476 -1.2672  2.3308  1.5272
  620MOL0     H83684   4.325   5.105   5.459 -2.7727  1.5581 -0.3130
  620MOL0     H83685   4.254   5.188   5.246  1.0428 -0.4943  0.7282
  620MOL0     H83686   4.330   5.094   4.893 -0.2167 -2.4495 -3.3295
  620MOL0     H83687   4.421   5.182   4.698 -1.7987 -1.3313 -3.1600
  620MOL0     H83688   4.274   5.575   4.577 -0.8825 -1.0450 -0.5934
  620MOL0     H83689   4.171   5.492   4.459  0.3799  1.3666 -1.9433
  620MOL0     H83690   4.320   5.662   4.360 -1.0966 -2.1543 -1.7724
  620MOL0     H83691   4.381   5.507   4.314 -0.9162 -0.1637 -0.8399
  620MOL0     H83692   4.495   5.714   4.512 -1.8177  2.0505 -2.7472
  620MOL0     H83693   4.574   5.649   4.370  1.6964 -2.6500 -0.5616
  620MOL0     H83694   4.534   5.525   4.646  1.5933  0.6462  1.3266
  620MOL0     H83695   4.584   5.415   4.503  1.1651  1.0469 -1.8604
  620MOL0     H83696   4.919   5.644   4.579 -1.6078  0.8152  1.2724
  620MOL0     H83697   4.109   5.476   4.674 -5.5543 -2.8966 -0.3557
  620MOL0     H83698   3.933   5.479   4.810  1.6884  0.7641 -0.6344
  620MOL0     H83699   3.895   5.328   4.901 -0.6499  0.1620  1.9125
  620MOL0     H83700   3.987   5.451   4.980 -1.1556 -1.2008  0.0004
  621MOL0     O83701   9.823  11.154   6.035 -0.4150 -0.8839 -0.0552
  621MOL0     C83702   9.814  11.197   5.921 -0.4136 -1.2869  0.8059
  621MOL0     O83703   9.897  11.288   5.868 -0.3041  0.4877  0.6759
  621MOL0     C83704   9.975  11.354   5.954 -0.6076  0.0378  0.7833
  621MOL0     C83705  10.111  11.321   5.968  0.7227  0.6907  0.0145
  621MOL0     C83706  10.194  11.396   6.051  1.0497  0.7142 -0.0609
  621MOL0     C83707  10.153  11.497   6.129 -0.2412 -0.1639  1.1891
  621MOL0     O83708  10.245  11.555   6.220 -0.4740 -0.4537  0.4440
  621MOL0     C83709  10.210  11.674   6.285 -0.6842 -0.1249 -1.1795
  621MOL0     C83710  10.339  11.735   6.348 -0.0069 -0.0873 -1.4899
  621MOL0     C83711  10.306  11.868   6.413 -0.3187 -0.5842 -0.2148
  621MOL0     C83712  10.439  11.917   6.491  0.3501 -0.3074  0.1747
  621MOL0     C83713  10.421  12.057   6.538 -0.2313 -1.5737 -0.8935
  621MOL0     C83714  10.551  12.115   6.609  0.6149 -0.2587  0.3439
  621MOL0     C83715  10.494  12.231   6.704 -0.4535  0.0483  0.1042
  621MOL0     C83716  10.425  12.346   6.635 -0.1255  0.4943 -0.4178
  621MOL0     N83717  10.514  12.448   6.570  0.0443 -0.3103  0.0145
  621MOL0     C83718  10.593  12.424   6.462  0.4102 -0.4084  0.5151
  621MOL0     C83719  10.674  12.525   6.453 -0.2791 -0.3906  0.4900
  621MOL0     C83720  10.789  12.552   6.351  0.6060 -0.1636 -0.3850
  621MOL0     C83721  10.780  12.678   6.262 -0.3002 -0.5390  0.6546
  621MOL0     C83722  10.645  12.702   6.192 -0.0985 -0.9268  0.0566
  621MOL0     C83723  10.620  12.602   6.077 -0.5690 -0.2289  0.2557
  621MOL0     O83724  10.520  12.667   5.989 -0.3508 -0.0049 -0.0084
  621MOL0     C83725  10.470  12.596   5.884  0.1586  0.2603 -0.8414
  621MOL0     C83726  10.347  12.638   5.833  0.2135 -0.3191 -0.7314
  621MOL0     C83727  10.281  12.576   5.725  0.2931  0.7178 -0.2753
  621MOL0     C83728  10.336  12.466   5.670  0.6145 -0.5393  0.1294
  621MOL0     C83729  10.266  12.388   5.567  0.4070 -0.2806  0.0892
  621MOL0     O83730  10.149  12.435   5.507 -0.2072  0.5705 -0.5314
  621MOL0     C83731  10.104  12.365   5.403  0.1742  0.2817 -0.3575
  621MOL0     C83732   9.979  12.303   5.430  0.4434  1.2007 -0.2982
  621MOL0     C83733   9.914  12.234   5.328 -0.8280  0.7487 -0.5678
  621MOL0     C83734   9.985  12.209   5.207  0.8156  1.1529  0.0988
  621MOL0     O83735   9.931  12.139   5.099 -0.5017 -0.8177 -0.2586
  621MOL0     C83736   9.995  12.017   5.057  0.6395  0.3707  0.1177
  621MOL0     C83737   9.970  11.914   5.163  0.1756  0.2851 -0.7129
  621MOL0     C83738  10.003  11.776   5.104  0.2001 -1.6571 -0.2650
  621MOL0     C83739   9.958  11.673   5.212  0.4766 -0.4556  0.2859
  621MOL0     C83740   9.826  11.603   5.182  0.7540  0.1738  0.3733
  621MOL0     C83741   9.815  11.465   5.244  0.6005 -0.0904 -0.0149
  621MOL0     C83742   9.677  11.418   5.240 -0.4302  0.0267 -0.1767
  621MOL0     C83743   9.562  11.484   5.317 -0.4008  0.5329 -0.0043
  621MOL0    Cl83744   9.418  11.376   5.333  0.0744  0.5213 -0.0658
  621MOL0     C83745  10.110  12.261   5.192 -0.1369 -0.6138  0.2304
  621MOL0     C83746  10.173  12.333   5.290 -0.9705 -0.2241  0.2181
  621MOL0     O83747  10.328  12.295   5.518  0.1931  0.1800 -0.5738
  621MOL0     C83748  10.451  12.412   5.730 -1.5139  0.0748  0.3724
  621MOL0     C83749  10.519  12.479   5.837 -0.4658  0.5496  0.1123
  621MOL0     N83750  10.656  12.601   6.566  0.2672 -0.5862 -0.1363
  621MOL0     N83751  10.551  12.568   6.632  0.8638 -0.6757  0.4227
  621MOL0     C83752  10.018  11.536   6.114 -0.4046  0.6144  0.2577
  621MOL0     C83753   9.935  11.467   6.028 -0.0085  1.0531 -0.4874
  621MOL0     C83754   9.689  11.181   5.831 -0.3528 -0.3232  0.2893
  621MOL0     C83755   9.690  11.235   5.701  0.3996 -0.2501 -0.1650
  621MOL0     C83756   9.588  11.213   5.611 -0.4832  0.2007  0.3077
  621MOL0     C83757   9.474  11.138   5.636 -0.1973  0.8563  0.5867
  621MOL0     O83758   9.383  11.113   5.539 -0.2597  0.6869  0.2336
  621MOL0     C83759   9.274  11.025   5.576  0.2658 -0.1946  0.0535
  621MOL0     C83760   9.167  11.017   5.476 -0.2294  0.0401 -0.1596
  621MOL0     C83761   9.097  11.162   5.465 -0.3912 -0.0225 -0.5822
  621MOL0     C83762   9.028  11.187   5.335 -0.3025 -0.3010 -0.8474
  621MOL0     C83763   9.114  11.194   5.215 -0.1859 -0.4686 -0.5872
  621MOL0     C83764   9.180  11.194   5.115 -0.9039 -0.3924 -0.2528
  621MOL0     C83765   9.477  11.086   5.770 -0.0521 -0.7664  0.5121
  621MOL0     C83766   9.580  11.107   5.865  0.1095 -0.2530  0.4489
  621MOL0     C83767   9.571  11.025   5.984  0.4778  0.0947 -0.7447
  621MOL0     H83768  10.158  11.237   5.919  1.9834 -0.0420  2.3053
  621MOL0     H83769  10.296  11.361   6.056  0.6410 -0.4307  0.4549
  621MOL0     H83770  10.190  11.751   6.209  0.6062  0.8537 -0.5739
  621MOL0     H83771  10.125  11.662   6.353 -0.4924  1.1818 -0.6679
  621MOL0     H83772  10.411  11.746   6.266  0.9022 -1.6344 -0.9292
  621MOL0     H83773  10.368  11.669   6.429 -0.2811  2.5388  0.9074
  621MOL0     H83774  10.217  11.868   6.477 -1.8332 -1.4146 -2.2193
  621MOL0     H83775  10.278  11.943   6.338 -2.9483  1.6906  2.7428
  621MOL0     H83776  10.463  11.849   6.574 -0.4967 -0.8032  0.0234
  621MOL0     H83777  10.516  11.924   6.414 -2.5379 -0.5658 -2.9492
  621MOL0     H83778  10.395  12.126   6.457  0.4510  0.1813  0.3183
  621MOL0     H83779  10.342  12.057   6.613 -0.0558  2.5681 -0.4268
  621MOL0     H83780  10.604  12.038   6.666  0.7944 -0.8909 -0.6528
  621MOL0     H83781  10.620  12.151   6.532  0.1770 -1.2567 -0.5470
  621MOL0     H83782  10.571  12.268   6.772 -0.6641 -0.4104  0.6028
  621MOL0     H83783  10.434  12.175   6.776  2.4747 -3.9473 -0.2251
  621MOL0     H83784  10.345  12.316   6.568 -0.0277 -0.3881 -0.1550
  621MOL0     H83785  10.375  12.401   6.716 -0.1927 -0.9501  0.5658
  621MOL0     H83786  10.598  12.342   6.391  2.7451  0.4543 -0.4008
  621MOL0     H83787  10.879  12.569   6.412  0.4432  1.0665 -0.4598
  621MOL0     H83788  10.808  12.456   6.303 -0.8965 -1.3776  1.3035
  621MOL0     H83789  10.801  12.768   6.320  1.8891 -2.2544  2.7537
  621MOL0     H83790  10.858  12.678   6.185 -1.6301  0.6990 -0.7592
  621MOL0     H83791  10.653  12.808   6.165 -1.4016 -0.3189  1.8740
  621MOL0     H83792  10.562  12.691   6.263 -0.7795 -0.4629 -0.6508
  621MOL0     H83793  10.577  12.512   6.122  1.3149 -1.9762 -1.3007
  621MOL0     H83794  10.710  12.581   6.020  1.6363 -0.5077  3.5568
  621MOL0     H83795  10.305  12.733   5.867 -3.9505 -2.5222  1.1409
  621MOL0     H83796  10.185  12.620   5.703  0.2052  0.9787  0.5867
  621MOL0     H83797   9.929  12.304   5.527  1.8622 -0.9009  0.5256
  621MOL0     H83798   9.813  12.204   5.352  0.2542 -0.4364  3.2199
  621MOL0     H83799   9.963  11.980   4.959  3.9628  0.2059 -1.0333
  621MOL0     H83800  10.100  12.034   5.030  0.8838 -3.5060 -2.1630
  621MOL0     H83801  10.028  11.934   5.254 -1.1783 -0.5005  0.3690
  621MOL0     H83802   9.869  11.940   5.197  1.6482  1.6683  3.1508
  621MOL0     H83803   9.952  11.759   5.009  2.8759 -0.0500 -2.1423
  621MOL0     H83804  10.111  11.771   5.086 -0.0543 -2.4394 -1.6238
  621MOL0     H83805   9.958  11.720   5.311  0.5187 -0.9164  0.5069
  621MOL0     H83806  10.035  11.596   5.219  0.6737 -0.1546  1.8298
  621MOL0     H83807   9.829  11.588   5.074 -0.7595  1.0671  0.1831
  621MOL0     H83808   9.744  11.672   5.203  0.4899  0.7847 -2.3498
  621MOL0     H83809   9.873  11.390   5.188  0.6270 -0.6831  0.7799
  621MOL0     H83810   9.834  11.466   5.352  1.0341  0.1698 -0.0934
  621MOL0     H83811   9.688  11.321   5.289  0.3878  0.2478  0.0949
  621MOL0     H83812   9.653  11.398   5.135  1.1724 -2.1622 -0.1819
  621MOL0     H83813   9.597  11.509   5.417 -0.2805 -0.4734  0.2158
  621MOL0     H83814   9.536  11.577   5.266  0.7377  0.9367  0.1317
  621MOL0     H83815  10.145  12.251   5.089 -0.7754 -1.3382  0.0769
  621MOL0     H83816  10.270  12.376   5.266  1.7275 -5.9633 -0.9182
  621MOL0     H83817  10.490  12.323   5.680 -2.6629 -0.4710  0.4299
  621MOL0     H83818  10.615  12.434   5.859 -0.5791 -0.2665 -0.9531
  621MOL0     H83819   9.973  11.614   6.175  0.0035  0.9665  0.1189
  621MOL0     H83820   9.834  11.496   5.999  0.3367  1.2363 -1.5469
  621MOL0     H83821   9.768  11.301   5.664  2.1313 -2.7252 -1.2651
  621MOL0     H83822   9.591  11.261   5.514 -0.3029  3.0086  1.5826
  621MOL0     H83823   9.233  11.043   5.676  2.5565 -1.1605  1.2540
  621MOL0     H83824   9.311  10.922   5.570 -0.6875 -0.7936  2.8552
  621MOL0     H83825   9.087  10.949   5.507  0.5345 -0.3363  1.0066
  621MOL0     H83826   9.192  10.977   5.377  0.0955 -0.8410  0.2773
  621MOL0     H83827   9.175  11.239   5.471  0.4423 -0.6991 -2.1366
  621MOL0     H83828   9.035  11.192   5.550  1.9501  2.5488  0.3644
  621MOL0     H83829   8.940  11.123   5.323 -1.0892  0.7056 -0.6758
  621MOL0     H83830   8.993  11.290   5.345 -0.0721 -0.2641 -0.3662
  621MOL0     H83831   9.249  11.203   5.033  2.3219 -2.0527  2.0928
  621MOL0     H83832   9.401  11.020   5.810  0.5644 -0.9141  1.4584
  621MOL0     H83833   9.555  11.099   6.063 -0.1702 -1.0815  0.2612
  621MOL0     H83834   9.482  10.961   5.975 -1.4884  2.5974 -0.2667
  621MOL0     H83835   9.655  10.968   6.026  0.1339 -1.6616 -2.2682
  622MOL0     O83836   7.695   9.934   7.407  0.4766  0.0536 -0.7695
  622MOL0     C83837   7.719   9.905   7.523  0.5337  0.5678 -0.1502
  622MOL0     O83838   7.636   9.853   7.603 -0.1763  0.3987  0.0225
  622MOL0     C83839   7.527   9.790   7.549 -0.1179  0.9108  0.5601
  622MOL0     C83840   7.524   9.691   7.453  0.7954 -0.9115 -0.1240
  622MOL0     C83841   7.403   9.645   7.396  0.5152  0.6904 -0.0507
  622MOL0     C83842   7.273   9.686   7.449 -0.8651  0.3425  1.2648
  622MOL0     O83843   7.165   9.650   7.381  0.7998 -0.1137 -0.1147
  622MOL0     C83844   7.056   9.595   7.449  0.2837  0.4727 -0.2233
  622MOL0     C83845   6.939   9.691   7.449 -1.7664  0.7200  0.1262
  622MOL0     C83846   6.839   9.686   7.332 -0.0908  0.1182 -0.5137
  622MOL0     C83847   6.897   9.764   7.214 -1.0515  0.8915 -0.2454
  622MOL0     C83848   6.798   9.802   7.098 -0.0664  0.2980  0.0796
  622MOL0     C83849   6.870   9.856   6.978  0.0458 -0.4855  0.0346
  622MOL0     C83850   6.765   9.903   6.889  0.0247 -0.0209  0.2107
  622MOL0     C83851   6.811  10.016   6.801 -0.1624  0.2603 -0.1551
  622MOL0     N83852   6.916   9.987   6.711 -0.0700 -0.3288  0.3997
  622MOL0     C83853   6.919   9.913   6.595 -0.1358  0.9026  0.4185
  622MOL0     C83854   7.044   9.933   6.541  0.3383 -1.1342  0.0295
  622MOL0     C83855   7.092   9.867   6.417  0.2617 -0.7451  0.3704
  622MOL0     C83856   7.150   9.726   6.446 -0.0310 -0.1465 -0.4535
  622MOL0     C83857   7.300   9.708   6.433 -1.1901 -0.4698  0.8947
  622MOL0     C83858   7.329   9.572   6.501 -0.2171 -0.0042  0.2460
  622MOL0     O83859   7.268   9.468   6.416 -0.6191 -0.5778  0.8297
  622MOL0     C83860   7.263   9.339   6.471 -0.5666  0.0858  0.4427
  622MOL0     C83861   7.349   9.280   6.564  0.0806 -0.0044 -0.0370
  622MOL0     C83862   7.322   9.151   6.616 -0.6068 -1.0108  0.5552
  622MOL0     C83863   7.232   9.074   6.551 -0.0035  0.1920 -0.8904
  622MOL0     C83864   7.210   8.932   6.586 -0.3791 -0.3722  0.2121
  622MOL0     O83865   7.082   8.887   6.575  0.2255 -0.4965 -0.1232
  622MOL0     C83866   7.058   8.759   6.599 -0.5620 -0.2394  0.7472
  622MOL0     C83867   6.975   8.689   6.518  0.3500  0.9134 -0.1081
  622MOL0     C83868   6.935   8.558   6.535  0.1407  0.1369 -0.7479
  622MOL0     C83869   6.991   8.491   6.642  0.0719 -0.2356  0.0566
  622MOL0     O83870   6.955   8.360   6.652 -0.1710  0.0921 -0.0092
  622MOL0     C83871   7.059   8.261   6.678 -0.0274  0.1769 -0.1876
  622MOL0     C83872   7.080   8.234   6.830  0.2364 -0.3944  0.0785
  622MOL0     C83873   6.953   8.197   6.904  0.2878  0.6914 -0.4393
  622MOL0     C83874   6.860   8.106   6.829 -0.6152  0.3760  0.0704
  622MOL0     C83875   6.718   8.105   6.906 -0.5623 -1.1655  1.0323
  622MOL0     C83876   6.642   7.986   6.848  0.7764  0.0063  0.1940
  622MOL0     C83877   6.615   7.989   6.698 -0.4969 -0.6350  0.5669
  622MOL0     C83878   6.492   7.913   6.655  0.3630 -0.2877 -0.7650
  622MOL0    Cl83879   6.496   7.881   6.468  0.0962 -0.0157  0.1363
  622MOL0     C83880   7.058   8.566   6.741 -0.5730  0.4654  0.0423
  622MOL0     C83881   7.098   8.699   6.718 -0.7801  0.9628 -0.5551
  622MOL0     O83882   7.303   8.872   6.634 -1.0615 -0.8304  0.0184
  622MOL0     C83883   7.154   9.130   6.447  0.2899 -0.4586  0.3278
  622MOL0     C83884   7.170   9.255   6.417  0.0852  0.3182  0.6596
  622MOL0     N83885   7.114  10.024   6.616  0.4693  0.1555  0.2741
  622MOL0     N83886   7.034  10.053   6.713 -0.0220 -0.0096  0.0177
  622MOL0     C83887   7.278   9.786   7.548  0.2178 -0.3871  0.4781
  622MOL0     C83888   7.403   9.825   7.600  0.8739 -0.7494  0.2861
  622MOL0     C83889   7.858   9.943   7.574  0.5776  0.1423 -0.7873
  622MOL0     C83890   7.873  10.045   7.679 -0.1007  0.2730  0.0872
  622MOL0     C83891   7.989  10.098   7.728 -0.3496  0.5898  0.2647
  622MOL0     C83892   8.114  10.062   7.659  0.5063 -0.3337 -1.1049
  622MOL0     O83893   8.236  10.119   7.689  0.0514 -0.5475  0.2247
  622MOL0     C83894   8.257  10.169   7.827  0.5462 -0.2655  0.6245
  622MOL0     C83895   8.261  10.051   7.924  0.2522  0.6269 -0.2290
  622MOL0     C83896   8.396   9.981   7.920  0.0640  0.3505  0.3107
  622MOL0     C83897   8.499  10.046   8.017 -0.7531 -0.3293 -0.5022
  622MOL0     C83898   8.481  10.022   8.164  0.1274 -0.8003  0.5841
  622MOL0     C83899   8.459  10.019   8.284 -0.4352  0.0506  0.8255
  622MOL0     C83900   8.104   9.968   7.549 -0.3623 -0.7573  0.0034
  622MOL0     C83901   7.977   9.911   7.514 -0.3601 -0.4716  0.5009
  622MOL0     C83902   7.972   9.793   7.412  1.0791 -1.2033 -0.4973
  622MOL0     H83903   7.621   9.654   7.420  0.8753 -1.7695  1.0100
  622MOL0     H83904   7.390   9.573   7.315 -7.0612  0.2817  0.8645
  622MOL0     H83905   7.021   9.502   7.403  0.9150  0.9457 -1.6955
  622MOL0     H83906   7.093   9.558   7.546 -1.5517 -0.2421  0.2402
  622MOL0     H83907   6.981   9.792   7.461 -0.5015 -0.0285  2.5526
  622MOL0     H83908   6.873   9.663   7.530 -0.4737  2.1982  1.7741
  622MOL0     H83909   6.747   9.734   7.365  0.3985  0.9934 -0.3948
  622MOL0     H83910   6.806   9.585   7.305 -4.0061  0.7413  1.2505
  622MOL0     H83911   6.936   9.861   7.248 -3.2129  1.9306 -0.5590
  622MOL0     H83912   6.980   9.699   7.184  0.6665  2.5530  0.6506
  622MOL0     H83913   6.739   9.717   7.064 -1.5677  1.2796  0.1141
  622MOL0     H83914   6.736   9.876   7.149 -0.4974  0.6744 -0.9607
  622MOL0     H83915   6.914   9.948   7.019  0.0025 -0.6958  0.5465
  622MOL0     H83916   6.948   9.795   6.931 -1.7150 -1.2241 -2.0796
  622MOL0     H83917   6.682   9.953   6.939  0.9068  3.9302 -1.9165
  622MOL0     H83918   6.741   9.817   6.825  3.0100 -1.0980  0.3363
  622MOL0     H83919   6.727  10.046   6.737  0.7109 -2.5929 -2.9019
  622MOL0     H83920   6.852  10.099   6.859  1.7033 -0.4444 -0.4134
  622MOL0     H83921   6.842   9.845   6.561  1.4179  0.4055 -2.4410
  622MOL0     H83922   7.006   9.874   6.351  0.3585  5.6325  0.2755
  622MOL0     H83923   7.175   9.928   6.381 -0.9381  1.1142  0.6111
  622MOL0     H83924   7.122   9.695   6.547  1.1375  1.0446  0.2718
  622MOL0     H83925   7.103   9.656   6.377  1.2943  0.4524 -2.0410
  622MOL0     H83926   7.362   9.792   6.467 -0.6096  1.6773 -4.4667
  622MOL0     H83927   7.326   9.696   6.327 -1.4105 -1.6468  0.9578
  622MOL0     H83928   7.292   9.578   6.604 -2.0241 -1.8784 -0.2400
  622MOL0     H83929   7.437   9.550   6.500 -0.8094 -3.3136  0.2760
  622MOL0     H83930   7.433   9.342   6.594 -1.2555  1.4841  0.7982
  622MOL0     H83931   7.394   9.106   6.684  1.5871  2.8594  1.1316
  622MOL0     H83932   6.919   8.746   6.445 -1.7287  0.0490  0.7471
  622MOL0     H83933   6.862   8.508   6.472  0.5725  0.1881 -1.2921
  622MOL0     H83934   7.038   8.165   6.629  1.9747 -0.3243 -0.1619
  622MOL0     H83935   7.151   8.307   6.641 -0.7088  0.3991 -1.6991
  622MOL0     H83936   7.150   8.152   6.847 -0.2188 -0.8132 -0.0721
  622MOL0     H83937   7.121   8.320   6.885  0.1120 -0.3753  0.1426
  622MOL0     H83938   6.968   8.158   7.005 -2.1583 -4.0782 -1.6553
  622MOL0     H83939   6.904   8.295   6.915 -1.1124 -0.1440  1.3551
  622MOL0     H83940   6.898   8.004   6.831 -3.8021 -0.9240 -0.2291
  622MOL0     H83941   6.850   8.142   6.726  2.3049  0.5634 -0.2409
  622MOL0     H83942   6.672   8.201   6.879  1.1311 -0.4722  0.4557
  622MOL0     H83943   6.723   8.102   7.016 -0.5538 -2.7257  1.0077
  622MOL0     H83944   6.695   7.894   6.875 -0.1334 -0.3321  0.8711
  622MOL0     H83945   6.553   7.973   6.910  0.6424  0.6818  0.1481
  622MOL0     H83946   6.703   7.943   6.652 -0.5775  1.5154 -1.9683
  622MOL0     H83947   6.610   8.095   6.673 -0.3840 -0.5096  1.0592
  622MOL0     H83948   6.501   7.814   6.701  4.8361 -0.1819 -1.0152
  622MOL0     H83949   6.397   7.963   6.678  0.5314  0.2441 -1.2149
  622MOL0     H83950   7.077   8.520   6.837 -0.3658 -0.4724 -0.4292
  622MOL0     H83951   7.153   8.748   6.797 -1.0077  1.1548 -0.5147
  622MOL0     H83952   7.077   9.076   6.393 -0.0706  3.1221 -3.2263
  622MOL0     H83953   7.104   9.303   6.346  2.2068  2.1516 -0.1931
  622MOL0     H83954   7.187   9.829   7.591  0.8225 -1.1504  2.6765
  622MOL0     H83955   7.409   9.902   7.676  2.0992  0.8790 -1.3674
  622MOL0     H83956   7.780  10.083   7.719 -0.0570  1.3424 -0.7790
  622MOL0     H83957   7.981  10.165   7.813 -1.1842 -0.8657  1.4015
  622MOL0     H83958   8.179  10.240   7.856 -0.0593  0.8346 -3.1477
  622MOL0     H83959   8.354  10.219   7.840  0.0360  0.0110  4.2967
  622MOL0     H83960   8.180   9.979   7.912  1.6723 -1.1191  0.2973
  622MOL0     H83961   8.251  10.092   8.025  0.2227  0.5687 -0.2084
  622MOL0     H83962   8.441   9.974   7.820  0.8168  0.0890  0.6692
  622MOL0     H83963   8.382   9.879   7.956 -1.3456  1.2288  2.4951
  622MOL0     H83964   8.591   9.991   8.000  1.9328  3.1478  1.3759
  622MOL0     H83965   8.518  10.150   7.990 -0.4437 -0.9033 -2.6001
  622MOL0     H83966   8.425  10.010   8.385  1.5522  0.3337  1.5656
  622MOL0     H83967   8.202   9.946   7.507 -0.8415  0.6741 -2.0039
  622MOL0     H83968   7.929   9.822   7.316  1.1122  0.1893 -0.1048
  622MOL0     H83969   8.070   9.750   7.389  1.9545  1.4519 -2.1230
  622MOL0     H83970   7.914   9.707   7.448  0.7154 -0.8601 -0.2523
  623MOL0     O83971   2.950   1.514   8.288 -0.1924 -0.1971  0.1165
  623MOL0     C83972   2.843   1.560   8.244 -0.0185  1.0215 -0.0609
  623MOL0     O83973   2.811   1.689   8.216  0.1141 -0.1730  0.2979
  623MOL0     C83974   2.900   1.786   8.238  0.2518 -0.9218 -1.3198
  623MOL0     C83975   2.985   1.800   8.353 -0.4669 -1.0249 -1.0154
  623MOL0     C83976   3.080   1.905   8.376  0.2544 -0.7049 -1.0321
  623MOL0     C83977   3.104   1.994   8.265  0.8132  0.1655 -1.0081
  623MOL0     O83978   3.198   2.093   8.266  0.1982 -0.3850 -0.8388
  623MOL0     C83979   3.268   2.119   8.386 -0.3929 -0.6405  0.9473
  623MOL0     C83980   3.367   2.238   8.360 -0.7617  0.0172  0.4167
  623MOL0     C83981   3.286   2.366   8.347 -0.4279  0.0851  0.2956
  623MOL0     C83982   3.377   2.492   8.311  0.2676 -0.0058 -0.2878
  623MOL0     C83983   3.291   2.620   8.302 -0.0075 -1.2804 -0.0389
  623MOL0     C83984   3.362   2.730   8.231  0.2808 -0.5813 -0.1799
  623MOL0     C83985   3.498   2.768   8.287 -0.7760 -0.0976 -0.9106
  623MOL0     C83986   3.584   2.834   8.181 -0.8109  0.3127  0.2987
  623MOL0     N83987   3.722   2.855   8.217 -0.1159 -0.3650  0.2109
  623MOL0     C83988   3.838   2.810   8.155  0.5316 -0.6451  0.5848
  623MOL0     C83989   3.947   2.879   8.215  0.5574  0.6360  0.2659
  623MOL0     C83990   4.092   2.873   8.177 -0.3194  0.0206  0.4342
  623MOL0     C83991   4.123   2.932   8.046 -0.0477  0.0147  1.0277
  623MOL0     C83992   4.092   3.083   8.027 -0.0679  0.6709 -0.2576
  623MOL0     C83993   3.965   3.095   7.945  0.5095 -1.2688  0.0220
  623MOL0     O83994   3.955   3.231   7.895 -0.6791 -0.3072 -0.9790
  623MOL0     C83995   3.842   3.272   7.826 -1.1394  0.5883 -0.1748
  623MOL0     C83996   3.862   3.401   7.769  0.2236  0.6120 -0.4980
  623MOL0     C83997   3.755   3.451   7.689 -0.5903  0.3212  0.7159
  623MOL0     C83998   3.639   3.382   7.676  0.7033 -0.8907  0.1147
  623MOL0     C83999   3.534   3.428   7.587 -0.3233  0.5780 -0.2070
  623MOL0     O84000   3.410   3.371   7.587 -0.2171 -0.0011  0.3132
  623MOL0     C84001   3.318   3.407   7.494  0.2549 -0.1318  0.1316
  623MOL0     C84002   3.255   3.301   7.428  0.1076  0.8498  0.0086
  623MOL0     C84003   3.148   3.328   7.340 -1.1266  0.1922 -0.8102
  623MOL0     C84004   3.120   3.456   7.294 -0.0170 -0.0021  0.2390
  623MOL0     O84005   3.025   3.478   7.201 -0.1290 -0.1118 -0.0600
  623MOL0     C84006   2.889   3.434   7.229 -0.0667 -0.7653  1.1800
  623MOL0     C84007   2.793   3.500   7.123 -0.1910  0.4693 -0.2443
  623MOL0     C84008   2.812   3.432   6.982 -0.2291  0.0382  0.2886
  623MOL0     C84009   2.722   3.474   6.863  1.0759 -0.8912  0.4908
  623MOL0     C84010   2.724   3.393   6.729  0.1181  0.4451  0.2239
  623MOL0     C84011   2.630   3.271   6.732 -0.3634 -0.5920 -0.5689
  623MOL0     C84012   2.597   3.205   6.600 -0.2980 -1.1994 -0.6184
  623MOL0     C84013   2.673   3.081   6.569  0.1222 -0.1025  0.3480
  623MOL0    Cl84014   2.844   3.132   6.563 -0.1985  0.7057 -0.4455
  623MOL0     C84015   3.182   3.563   7.354 -0.6495 -0.5448  0.0094
  623MOL0     C84016   3.281   3.539   7.451  0.3058  0.1430 -0.4290
  623MOL0     O84017   3.563   3.524   7.513  0.5801  0.1478  0.2811
  623MOL0     C84018   3.627   3.257   7.730  1.3602 -0.2749  0.4143
  623MOL0     C84019   3.728   3.201   7.803 -0.3173 -0.0920 -0.2937
  623MOL0     N84020   3.889   2.955   8.319  0.5596 -0.0973  0.1021
  623MOL0     N84021   3.767   2.929   8.330  0.2456  0.0491 -0.0572
  623MOL0     C84022   3.011   1.990   8.163 -0.9329 -0.7034  1.0128
  623MOL0     C84023   2.912   1.895   8.144 -0.3153  0.4562 -0.0891
  623MOL0     C84024   2.752   1.452   8.205  0.6701  1.4912  0.0626
  623MOL0     C84025   2.800   1.324   8.155 -0.3465 -1.0220  0.2069
  623MOL0     C84026   2.716   1.219   8.123 -0.6801  0.5004 -0.7086
  623MOL0     C84027   2.581   1.250   8.130  0.3134 -0.0866  1.0230
  623MOL0     O84028   2.492   1.156   8.081  0.1824 -0.1465 -0.0645
  623MOL0     C84029   2.391   1.190   7.980 -0.3906 -0.2131 -0.2366
  623MOL0     C84030   2.372   1.086   7.860 -0.7139 -0.8245 -0.8274
  623MOL0     C84031   2.510   1.050   7.792  0.7869 -0.2119 -0.2706
  623MOL0     C84032   2.506   1.036   7.635  0.4803 -0.6299 -1.2698
  623MOL0     C84033   2.520   1.159   7.567 -0.6002  0.2193  0.0534
  623MOL0     C84034   2.525   1.260   7.508 -0.5679 -0.2200  0.6355
  623MOL0     C84035   2.534   1.374   8.172  0.1866 -0.5536 -0.1373
  623MOL0     C84036   2.615   1.471   8.213  0.0783 -0.3522 -0.2554
  623MOL0     C84037   2.557   1.605   8.268  0.1884 -0.0992  0.6026
  623MOL0     H84038   2.987   1.734   8.438  2.8420  0.0627 -0.0954
  623MOL0     H84039   3.127   1.918   8.473 -0.7153 -2.3735 -0.2787
  623MOL0     H84040   3.204   2.130   8.474 -0.9080 -1.7798  0.7450
  623MOL0     H84041   3.330   2.032   8.409  2.6080  0.5474 -1.9592
  623MOL0     H84042   3.432   2.223   8.273 -1.6080 -0.7616 -0.1179
  623MOL0     H84043   3.445   2.248   8.435  3.5368 -2.0139 -3.2713
  623MOL0     H84044   3.253   2.372   8.451  0.4108 -2.8336  0.8189
  623MOL0     H84045   3.202   2.359   8.277 -1.6298  0.2174  1.6752
  623MOL0     H84046   3.451   2.498   8.392 -2.1435  1.6893  1.9962
  623MOL0     H84047   3.417   2.475   8.211 -2.3709  1.1191 -1.6048
  623MOL0     H84048   3.190   2.615   8.260 -1.4569  0.9433  2.7936
  623MOL0     H84049   3.259   2.658   8.400  0.7712  1.4390 -0.7594
  623MOL0     H84050   3.365   2.701   8.126 -0.2343  0.8542 -0.6153
  623MOL0     H84051   3.304   2.823   8.229  1.2903  0.0601 -0.4581
  623MOL0     H84052   3.560   2.688   8.328 -0.5844  0.9273  0.9220
  623MOL0     H84053   3.485   2.837   8.372 -2.1936  1.2017 -2.1224
  623MOL0     H84054   3.583   2.759   8.102 -2.8089 -0.7191  1.2292
  623MOL0     H84055   3.546   2.929   8.142  0.9179  0.1629 -2.0002
  623MOL0     H84056   3.838   2.733   8.079  1.1208 -3.5317  3.3030
  623MOL0     H84057   4.135   2.931   8.259 -1.2289 -3.1934  3.4360
  623MOL0     H84058   4.127   2.769   8.171 -1.5364 -0.3533 -3.7430
  623MOL0     H84059   4.230   2.916   8.028 -0.1692 -2.7815  2.3024
  623MOL0     H84060   4.084   2.872   7.964  3.9998 -1.9804  0.2620
  623MOL0     H84061   4.172   3.138   7.977  2.1313 -1.0831  1.1811
  623MOL0     H84062   4.079   3.146   8.116  1.6159 -1.2013  1.3996
  623MOL0     H84063   3.884   3.071   8.015  0.8847 -4.6509 -0.5468
  623MOL0     H84064   3.956   3.039   7.851  2.8855  0.5383 -1.4083
  623MOL0     H84065   3.949   3.457   7.801 -1.5569  2.3824  1.5381
  623MOL0     H84066   3.774   3.542   7.633 -2.7922  1.0077  0.9828
  623MOL0     H84067   3.295   3.206   7.464  0.5419  1.6293  1.6697
  623MOL0     H84068   3.078   3.246   7.331  0.3772 -1.1635 -0.6353
  623MOL0     H84069   2.865   3.327   7.221  0.8661 -0.8736 -0.9746
  623MOL0     H84070   2.864   3.481   7.325  1.8330  0.0314  1.3456
  623MOL0     H84071   2.689   3.489   7.154 -0.0465 -1.4991 -0.3335
  623MOL0     H84072   2.826   3.603   7.137  2.4573 -0.6001  2.6830
  623MOL0     H84073   2.916   3.445   6.950 -0.3525 -1.5766 -0.8723
  623MOL0     H84074   2.793   3.324   6.994  0.0700 -0.3087 -1.9041
  623MOL0     H84075   2.733   3.580   6.840 -1.0334 -0.4265  1.3352
  623MOL0     H84076   2.621   3.473   6.906  0.3287  0.7996 -1.0639
  623MOL0     H84077   2.829   3.367   6.715  0.4080  0.5205  1.9371
  623MOL0     H84078   2.714   3.459   6.642 -0.3155  2.3091  1.6145
  623MOL0     H84079   2.655   3.204   6.815  0.0487  2.1985  1.7113
  623MOL0     H84080   2.536   3.313   6.768 -0.1223 -1.4698  1.1345
  623MOL0     H84081   2.620   3.287   6.531  0.1504  0.3232  1.2552
  623MOL0     H84082   2.492   3.174   6.596 -0.2148 -1.5126 -0.3261
  623MOL0     H84083   2.670   3.003   6.646  1.0468 -0.9794 -0.4693
  623MOL0     H84084   2.648   3.048   6.467 -2.2216 -0.2258  0.9225
  623MOL0     H84085   3.157   3.667   7.334 -0.6847 -0.0051  2.6288
  623MOL0     H84086   3.337   3.617   7.502  1.1345 -0.8452  0.1974
  623MOL0     H84087   3.532   3.207   7.717  1.9880 -1.7829  1.3373
  623MOL0     H84088   3.725   3.105   7.853 -0.8690 -0.9794 -1.9533
  623MOL0     H84089   3.035   2.064   8.087  1.6215 -2.9668 -0.5484
  623MOL0     H84090   2.843   1.887   8.060 -1.7606 -1.2299  1.1691
  623MOL0     H84091   2.903   1.311   8.124 -0.0445  1.8505 -0.2562
  623MOL0     H84092   2.741   1.122   8.081 -1.1094  0.5757 -1.1447
  623MOL0     H84093   2.420   1.284   7.933 -0.2463 -0.2507 -0.2242
  623MOL0     H84094   2.299   1.203   8.038  0.2956 -0.2255  0.8851
  623MOL0     H84095   2.323   1.139   7.778  2.4289  1.2069 -1.5858
  623MOL0     H84096   2.311   1.000   7.886  1.0779 -1.1059  3.2452
  623MOL0     H84097   2.531   0.947   7.823  1.5752  0.1188  0.3635
  623MOL0     H84098   2.596   1.113   7.819 -1.0225  1.9558  0.7840
  623MOL0     H84099   2.601   0.989   7.606  1.5638  0.3358  0.4976
  623MOL0     H84100   2.426   0.977   7.590  0.0013  1.3791 -3.2242
  623MOL0     H84101   2.527   1.357   7.462  1.1730 -1.1944 -1.5476
  623MOL0     H84102   2.427   1.389   8.161  0.2404 -1.0253 -1.6145
  623MOL0     H84103   2.569   1.690   8.200 -2.5685 -2.6659 -3.5033
  623MOL0     H84104   2.450   1.598   8.288 -0.1959 -0.9482 -1.4359
  623MOL0     H84105   2.600   1.625   8.367 -1.5838  3.2438  0.8463
  624MOL0     O84106   6.861  10.247   4.790  0.1468 -0.5430  0.5085
  624MOL0     C84107   6.879  10.311   4.682 -0.1086 -0.2398 -0.0189
  624MOL0     O84108   6.874  10.450   4.676 -0.1005  0.6836  0.7050
  624MOL0     C84109   6.830  10.521   4.778 -0.5742  0.4892 -0.4200
  624MOL0     C84110   6.919  10.593   4.848 -0.9750 -0.1382 -0.8617
  624MOL0     C84111   6.886  10.683   4.952 -0.2215 -0.5791  0.0769
  624MOL0     C84112   6.749  10.690   4.987 -0.1979 -0.6265  0.0492
  624MOL0     O84113   6.689  10.793   5.067  0.0440 -0.9125  0.3982
  624MOL0     C84114   6.762  10.912   5.095  0.2455 -0.7673  0.0462
  624MOL0     C84115   6.676  11.022   5.133  0.4886  0.1806 -0.0999
  624MOL0     C84116   6.650  11.011   5.293 -0.0094  0.2032  0.1502
  624MOL0     C84117   6.527  10.929   5.312  0.5627 -1.0528  0.0205
  624MOL0     C84118   6.485  10.883   5.453 -0.2040  1.3660  0.1815
  624MOL0     C84119   6.346  10.817   5.448 -0.0964  0.8075  0.9530
  624MOL0     C84120   6.294  10.758   5.577  0.8308 -0.8039  0.8941
  624MOL0     C84121   6.157  10.702   5.546 -0.9246 -1.1772 -0.0425
  624MOL0     N84122   6.061  10.806   5.509  0.1392 -0.1193  0.1073
  624MOL0     C84123   6.028  10.909   5.603  0.7378  0.2198 -0.8917
  624MOL0     C84124   5.951  10.998   5.537  0.0316 -1.0311  0.7741
  624MOL0     C84125   5.883  11.125   5.594  0.1364  0.0695  0.0640
  624MOL0     C84126   5.735  11.126   5.555  0.2685 -0.0174  0.4268
  624MOL0     C84127   5.669  11.247   5.611 -0.2248 -1.1386 -0.3224
  624MOL0     C84128   5.520  11.220   5.632  0.4282 -0.1031 -0.5710
  624MOL0     O84129   5.467  11.342   5.686  0.1716  0.1404  0.4603
  624MOL0     C84130   5.340  11.323   5.734 -0.5804  0.1213  0.3109
  624MOL0     C84131   5.254  11.218   5.707 -0.0150  1.1528  0.2846
  624MOL0     C84132   5.132  11.198   5.781  0.0948 -0.7550  0.3000
  624MOL0     C84133   5.082  11.300   5.871 -1.4764  0.3095  0.4656
  624MOL0     C84134   4.943  11.288   5.914  0.8136 -0.2854 -0.8402
  624MOL0     O84135   4.852  11.227   5.845 -0.6352  0.8109  0.0178
  624MOL0     C84136   4.725  11.205   5.888 -0.0452 -0.0445 -0.5488
  624MOL0     C84137   4.631  11.221   5.794  0.2846  0.5584  0.1160
  624MOL0     C84138   4.493  11.198   5.818 -1.2469  0.3879 -0.9122
  624MOL0     C84139   4.455  11.168   5.946  0.0044  0.7174 -0.3362
  624MOL0     O84140   4.323  11.156   5.964 -0.0016  0.7136 -0.5145
  624MOL0     C84141   4.263  11.202   6.087  0.2503  0.0119  0.4820
  624MOL0     C84142   4.127  11.254   6.054  0.1464  0.8228  0.4404
  624MOL0     C84143   4.035  11.294   6.177 -0.9465  0.0127 -0.1570
  624MOL0     C84144   3.963  11.420   6.144 -0.2471 -0.0395 -0.5002
  624MOL0     C84145   3.875  11.397   6.021 -1.0884  0.3451 -0.7608
  624MOL0     C84146   3.798  11.523   5.984  0.9351 -0.8910  0.5632
  624MOL0     C84147   3.694  11.485   5.880  0.2681 -0.3259 -0.6269
  624MOL0     C84148   3.619  11.608   5.829 -1.4653 -0.3555  0.2518
  624MOL0    Cl84149   3.737  11.737   5.773  0.3389 -0.5107 -0.0947
  624MOL0     C84150   4.551  11.154   6.043  1.1038 -0.1888  0.2729
  624MOL0     C84151   4.684  11.166   6.017 -0.2100  0.2946  0.1333
  624MOL0     O84152   4.918  11.349   6.020  0.6930  0.1334  0.6918
  624MOL0     C84153   5.162  11.418   5.883 -0.1094  0.9708  1.0330
  624MOL0     C84154   5.294  11.428   5.818 -0.6242  0.3109 -0.3676
  624MOL0     N84155   5.944  10.946   5.407 -0.2506  0.0255 -1.1929
  624MOL0     N84156   6.003  10.833   5.386  0.2190  1.1863 -0.0365
  624MOL0     C84157   6.654  10.620   4.916  1.1037 -0.8778  0.0399
  624MOL0     C84158   6.697  10.527   4.815  0.6695 -1.1573  0.1684
  624MOL0     C84159   6.909  10.230   4.557  0.3915  0.5945  0.2749
  624MOL0     C84160   6.868  10.089   4.559  0.8807  0.1599 -0.7446
  624MOL0     C84161   6.891  10.003   4.452 -0.1507  0.1926 -1.0883
  624MOL0     C84162   6.940  10.048   4.332 -1.1227 -0.4600  0.1882
  624MOL0     O84163   6.963   9.973   4.222  0.4000  0.0140  0.4896
  624MOL0     C84164   6.850   9.923   4.149 -0.2038  0.3492 -0.0565
  624MOL0     C84165   6.810   9.773   4.184 -0.2252  0.2674 -0.4043
  624MOL0     C84166   6.660   9.739   4.142  0.1182 -1.0739  0.7310
  624MOL0     C84167   6.667   9.614   4.057 -0.3711 -0.3356 -0.2086
  624MOL0     C84168   6.534   9.572   4.030  0.6807 -0.4175 -0.0416
  624MOL0     C84169   6.425   9.524   4.008  1.0803  0.2302  0.3500
  624MOL0     C84170   6.987  10.186   4.330 -0.1210  0.3212  0.0817
  624MOL0     C84171   6.977  10.266   4.439  0.1668 -0.7293  0.3702
  624MOL0     C84172   7.036  10.409   4.438  0.6646 -0.0138  0.0960
  624MOL0     H84173   7.023  10.584   4.819 -0.9910  2.7087 -2.1578
  624MOL0     H84174   6.963  10.737   5.005  0.2267 -0.9658 -0.1632
  624MOL0     H84175   6.845  10.900   5.165  2.4833 -0.1701 -2.3599
  624MOL0     H84176   6.799  10.928   4.994 -2.7857 -3.3653 -1.6477
  624MOL0     H84177   6.578  11.026   5.084  1.8666 -0.3574 -3.1134
  624MOL0     H84178   6.733  11.112   5.110 -0.0108  0.6751  0.5466
  624MOL0     H84179   6.643  11.113   5.333  3.4895 -0.1330  1.9682
  624MOL0     H84180   6.723  10.949   5.346  0.6423  1.4091  0.7003
  624MOL0     H84181   6.448  10.997   5.281  1.3105 -1.1348 -2.2682
  624MOL0     H84182   6.527  10.846   5.242  2.6530 -0.1915 -1.0980
  624MOL0     H84183   6.557  10.814   5.498 -0.8688  0.3663 -0.2414
  624MOL0     H84184   6.468  10.966   5.522 -2.6133 -1.0272  2.7935
  624MOL0     H84185   6.276  10.897   5.421  0.2917  1.8285  2.8015
  624MOL0     H84186   6.353  10.739   5.372 -1.0530 -2.0287  3.5853
  624MOL0     H84187   6.276  10.837   5.650  0.1986 -0.8578  0.7977
  624MOL0     H84188   6.359  10.682   5.622 -0.3825 -3.0137 -0.8713
  624MOL0     H84189   6.171  10.634   5.461  0.0990 -0.4427 -0.4896
  624MOL0     H84190   6.111  10.649   5.629 -1.8426  0.2886  0.4225
  624MOL0     H84191   6.057  10.906   5.708 -1.0966 -1.1478 -0.3904
  624MOL0     H84192   5.893  11.115   5.702  0.9245  1.0740  0.0940
  624MOL0     H84193   5.935  11.217   5.566  0.5890  0.4233  1.9419
  624MOL0     H84194   5.722  11.132   5.447  1.8990 -1.0737  0.1425
  624MOL0     H84195   5.690  11.038   5.602  0.9286 -1.3561 -1.3394
  624MOL0     H84196   5.682  11.320   5.530 -0.3530 -0.8925 -0.1241
  624MOL0     H84197   5.719  11.284   5.701  0.7889 -0.5382 -1.1056
  624MOL0     H84198   5.504  11.137   5.702 -0.3284  0.9051  0.5071
  624MOL0     H84199   5.462  11.193   5.543  1.5035  2.1140 -2.0310
  624MOL0     H84200   5.285  11.140   5.638 -3.0693 -1.3420  1.5193
  624MOL0     H84201   5.077  11.107   5.757 -0.7532  0.2662 -1.9664
  624MOL0     H84202   4.656  11.253   5.693 -0.5005  1.4932  0.2023
  624MOL0     H84203   4.420  11.203   5.737 -3.1786  1.1757  0.7872
  624MOL0     H84204   4.256  11.134   6.173  0.6891 -1.5967 -0.7069
  624MOL0     H84205   4.315  11.292   6.122 -0.5699  1.7255 -2.3907
  624MOL0     H84206   4.157  11.351   6.014 -1.2496  2.1357  2.3994
  624MOL0     H84207   4.078  11.193   5.977  1.1485  2.2189 -1.4065
  624MOL0     H84208   3.977  11.203   6.193  1.3116 -1.3768  0.6100
  624MOL0     H84209   4.089  11.307   6.272  2.0965  0.4717 -1.8225
  624MOL0     H84210   4.028  11.507   6.138 -0.2697  0.3037  2.4689
  624MOL0     H84211   3.891  11.446   6.222  1.5122  1.8948  0.5811
  624MOL0     H84212   3.815  11.308   6.044  0.0072 -0.9856 -2.7398
  624MOL0     H84213   3.949  11.379   5.943 -0.8564 -0.1176 -0.4442
  624MOL0     H84214   3.752  11.563   6.075  1.2047  2.2209 -0.5484
  624MOL0     H84215   3.860  11.601   5.940 -0.7790  0.6580  0.7427
  624MOL0     H84216   3.628  11.411   5.925 -1.5103  0.7990 -1.3031
  624MOL0     H84217   3.722  11.441   5.784  0.5392 -3.6813  0.8505
  624MOL0     H84218   3.550  11.580   5.748 -1.1004 -1.8605  0.4387
  624MOL0     H84219   3.559  11.660   5.905 -0.8063 -0.2951  0.7353
  624MOL0     H84220   4.514  11.145   6.145 -0.5431  3.6266  0.2015
  624MOL0     H84221   4.750  11.153   6.101 -0.2277 -0.2515  0.0701
  624MOL0     H84222   5.127  11.489   5.958 -2.8386  0.8328  0.0215
  624MOL0     H84223   5.352  11.519   5.816 -2.7683  1.8139 -3.9264
  624MOL0     H84224   6.549  10.642   4.927  1.8856  1.9478  3.6298
  624MOL0     H84225   6.621  10.466   4.769  0.4698 -2.2712  1.8705
  624MOL0     H84226   6.799  10.056   4.637  1.1680 -0.2709 -0.6639
  624MOL0     H84227   6.868   9.897   4.450 -1.2492  0.4120 -3.1833
  624MOL0     H84228   6.863   9.923   4.041  1.8130 -3.1180  0.0424
  624MOL0     H84229   6.769   9.993   4.172  0.9091  1.8162 -0.4381
  624MOL0     H84230   6.815   9.754   4.292  3.7219 -1.1600 -0.6744
  624MOL0     H84231   6.882   9.712   4.128 -2.2359 -1.0449 -1.6923
  624MOL0     H84232   6.616   9.823   4.087  0.9721 -0.9257  0.2670
  624MOL0     H84233   6.598   9.734   4.232  0.9357 -0.5927  1.3348
  624MOL0     H84234   6.718   9.628   3.961 -1.7609  1.7906 -0.7045
  624MOL0     H84235   6.717   9.543   4.123 -4.1942 -1.6524  1.5695
  624MOL0     H84236   6.327   9.490   3.983  0.3500  1.3088  1.5947
  624MOL0     H84237   7.025  10.211   4.231  0.7450 -1.3130 -0.0210
  624MOL0     H84238   6.962  10.483   4.406  1.5049  1.1310  0.7384
  624MOL0     H84239   7.084  10.431   4.534  2.1538 -0.8607 -0.4171
  624MOL0     H84240   7.119  10.427   4.369 -0.2477  1.0647 -0.7494
  625MOL0     O84241   9.751   0.564   3.078 -0.4723 -0.0603 -0.1163
  625MOL0     C84242   9.850   0.491   3.085 -0.3977  0.0119 -0.2308
  625MOL0     O84243   9.984   0.528   3.058 -0.4495  0.6710 -0.1911
  625MOL0     C84244  10.018   0.654   3.012 -0.3995  0.0829  0.4009
  625MOL0     C84245   9.989   0.695   2.879 -0.4924 -0.3812 -0.6855
  625MOL0     C84246  10.039   0.806   2.821 -0.5627 -0.3805 -0.2222
  625MOL0     C84247  10.111   0.888   2.898  0.5951  0.2697  0.4524
  625MOL0     O84248  10.171   0.991   2.842 -0.4779  0.3660  0.0727
  625MOL0     C84249  10.272   0.952   2.748  0.9443  0.0856  0.3092
  625MOL0     C84250  10.383   1.057   2.764  0.3525 -0.3303  0.8910
  625MOL0     C84251  10.476   1.044   2.639  0.2911 -0.8904 -0.6340
  625MOL0     C84252  10.577   1.151   2.627  0.4312 -0.6817  0.2735
  625MOL0     C84253  10.699   1.114   2.705 -0.4745  0.0732  0.7532
  625MOL0     C84254  10.792   1.238   2.717 -0.6270  1.0809 -0.3556
  625MOL0     C84255  10.915   1.215   2.805  0.9301  1.0090 -0.3952
  625MOL0     C84256  11.029   1.301   2.767 -0.2358  0.1711 -0.0616
  625MOL0     N84257  10.983   1.444   2.779 -0.1900 -0.6960 -0.5525
  625MOL0     C84258  10.915   1.497   2.900  0.6741  0.4423  0.8494
  625MOL0     C84259  10.880   1.625   2.858 -0.4518  0.4343  0.9160
  625MOL0     C84260  10.828   1.734   2.950  0.8099  0.3384 -0.3341
  625MOL0     C84261  10.913   1.756   3.071 -1.0353  0.2697  0.8978
  625MOL0     C84262  10.898   1.903   3.127 -0.3824  0.7833  0.9430
  625MOL0     C84263  10.988   1.933   3.241 -0.1348 -0.2990  0.6267
  625MOL0     O84264  11.123   1.915   3.192  0.4687  0.4875  0.1527
  625MOL0     C84265  11.206   2.003   3.243  0.1092 -0.2997  0.4488
  625MOL0     C84266  11.274   1.970   3.358 -0.4720 -0.6806  1.1555
  625MOL0     C84267  11.378   2.049   3.401  0.3693  0.2443  0.2049
  625MOL0     C84268  11.416   2.163   3.332 -0.5618 -0.2276  0.0171
  625MOL0     C84269  11.532   2.249   3.384  0.2687 -0.5247  0.0547
  625MOL0     O84270  11.542   2.377   3.329 -0.0447 -0.1198 -0.6095
  625MOL0     C84271  11.613   2.471   3.401 -0.6077  0.0384  0.2001
  625MOL0     C84272  11.662   2.573   3.327 -0.5272  0.9559 -1.3115
  625MOL0     C84273  11.736   2.665   3.392 -1.0134  0.3642  0.0736
  625MOL0     C84274  11.766   2.661   3.526  0.3095 -0.7826  0.4030
  625MOL0     O84275  11.849   2.763   3.572 -0.7242 -0.0542 -0.1802
  625MOL0     C84276  11.908   2.742   3.699 -0.4344 -0.0743  0.5248
  625MOL0     C84277  12.019   2.843   3.729  0.6775 -0.8921  0.4654
  625MOL0     C84278  11.942   2.977   3.707 -0.0378 -0.1009 -0.2400
  625MOL0     C84279  12.054   3.079   3.711  0.1774  1.3149 -0.8885
  625MOL0     C84280  12.003   3.222   3.710  0.3468 -1.0993 -0.4883
  625MOL0     C84281  12.119   3.323   3.707  1.1190  0.1914 -0.3699
  625MOL0     C84282  12.054   3.464   3.716 -0.1581  0.9033  0.1572
  625MOL0     C84283  12.155   3.577   3.756 -0.5805  0.2403  0.6738
  625MOL0    Cl84284  12.277   3.572   3.625 -0.3448 -0.2931 -0.1663
  625MOL0     C84285  11.710   2.561   3.600 -0.4701  0.5219  0.0559
  625MOL0     C84286  11.635   2.465   3.537 -1.1160  0.0523  0.2183
  625MOL0     O84287  11.611   2.194   3.465 -0.0981 -0.1610  0.3131
  625MOL0     C84288  11.354   2.204   3.212  0.0896  0.7361 -0.3796
  625MOL0     C84289  11.248   2.113   3.172  0.2205 -0.3376  0.0115
  625MOL0     N84290  10.920   1.647   2.729  0.2115  0.1640 -0.0393
  625MOL0     N84291  10.977   1.544   2.676  0.9707 -0.3905 -0.8596
  625MOL0     C84292  10.129   0.862   3.032 -0.1895 -0.7895  0.2784
  625MOL0     C84293  10.092   0.745   3.092  0.2030 -0.3573  0.7934
  625MOL0     C84294   9.823   0.349   3.128 -0.6699 -0.8400 -0.1261
  625MOL0     C84295   9.934   0.271   3.154 -0.1399  0.3967 -0.7409
  625MOL0     C84296   9.905   0.147   3.207  0.7833 -0.0399 -0.4109
  625MOL0     C84297   9.781   0.099   3.238  0.0678 -0.8111  1.1477
  625MOL0     O84298   9.755  -0.030   3.270  0.0841 -0.3724  0.0248
  625MOL0     C84299   9.841  -0.129   3.200 -0.1765 -0.8171  0.1675
  625MOL0     C84300   9.804  -0.268   3.242 -0.6465  0.3281  0.0328
  625MOL0     C84301   9.660  -0.299   3.195 -0.1505 -0.3844 -0.9890
  625MOL0     C84302   9.630  -0.452   3.219 -0.4107  0.5957  0.1933
  625MOL0     C84303   9.734  -0.550   3.171 -0.0862  0.7796 -0.5726
  625MOL0     C84304   9.822  -0.608   3.113 -0.0724  0.0041 -1.1634
  625MOL0     C84305   9.667   0.179   3.216  0.3227 -0.0564  0.5495
  625MOL0     C84306   9.689   0.302   3.153 -0.1942 -0.1139 -0.5134
  625MOL0     C84307   9.566   0.371   3.102 -0.6964 -0.3012 -0.3519
  625MOL0     H84308   9.919   0.630   2.827  2.0279 -0.0789 -4.8898
  625MOL0     H84309  10.045   0.832   2.716  1.0667 -0.5643 -0.1995
  625MOL0     H84310  10.322   0.857   2.769  0.2418 -0.6344 -1.1186
  625MOL0     H84311  10.231   0.955   2.647 -0.7437 -0.1446  0.9396
  625MOL0     H84312  10.445   1.046   2.854 -0.6530 -1.7146  1.4648
  625MOL0     H84313  10.336   1.155   2.759 -1.1905 -1.0593  0.4221
  625MOL0     H84314  10.419   1.061   2.547  0.6626 -3.2679 -1.3720
  625MOL0     H84315  10.513   0.942   2.626 -1.6285 -1.6702 -0.3621
  625MOL0     H84316  10.598   1.171   2.522  0.0281  0.1393  0.3357
  625MOL0     H84317  10.542   1.246   2.669  1.6111 -0.0110 -0.2091
  625MOL0     H84318  10.670   1.093   2.808  2.0185  0.7603  1.6794
  625MOL0     H84319  10.758   1.031   2.665 -0.3216  0.6441 -0.2352
  625MOL0     H84320  10.830   1.253   2.616  1.5048  2.9307  0.6218
  625MOL0     H84321  10.729   1.320   2.754 -1.2252 -0.0733  1.3106
  625MOL0     H84322  10.942   1.109   2.810 -1.2278  0.3711 -0.9417
  625MOL0     H84323  10.901   1.242   2.910  4.0724  0.7380  0.2012
  625MOL0     H84324  11.116   1.284   2.832 -0.0517 -3.0838 -0.9966
  625MOL0     H84325  11.069   1.288   2.666 -0.8184  0.4233 -0.3279
  625MOL0     H84326  10.894   1.448   2.994  3.9161 -0.5736  1.1609
  625MOL0     H84327  10.823   1.820   2.883 -2.0029 -0.8195 -1.7724
  625MOL0     H84328  10.733   1.729   3.004  2.4589 -0.8938  2.6407
  625MOL0     H84329  10.895   1.688   3.154  2.3483  1.0453  2.4671
  625MOL0     H84330  11.019   1.732   3.055 -1.2549 -0.6391  0.7626
  625MOL0     H84331  10.798   1.925   3.167 -1.5336  1.2992 -1.9976
  625MOL0     H84332  10.915   1.966   3.040 -3.4992 -1.2057 -1.3281
  625MOL0     H84333  10.977   1.853   3.315  0.4851 -1.8372 -0.8861
  625MOL0     H84334  10.977   2.034   3.281  0.9158 -0.3859  1.1917
  625MOL0     H84335  11.225   1.887   3.408 -1.5926  0.8902  2.7857
  625MOL0     H84336  11.425   2.019   3.493  2.8772 -0.1226 -1.1112
  625MOL0     H84337  11.623   2.581   3.226  0.6628 -1.6996 -2.0626
  625MOL0     H84338  11.786   2.748   3.343  0.1147  0.1814  0.8943
  625MOL0     H84339  11.824   2.765   3.765 -0.4004  4.5742 -0.7320
  625MOL0     H84340  11.953   2.643   3.714  0.8902 -0.1491 -2.9506
  625MOL0     H84341  12.063   2.844   3.829 -0.0455  2.0611  0.8375
  625MOL0     H84342  12.097   2.843   3.652  0.1924  2.0010 -0.1450
  625MOL0     H84343  11.895   2.972   3.608 -3.6601 -0.9163  1.3668
  625MOL0     H84344  11.863   2.996   3.780  0.4276 -3.2050  1.2208
  625MOL0     H84345  12.118   3.056   3.625  0.5682 -1.5888  0.0765
  625MOL0     H84346  12.104   3.077   3.808 -2.9796  2.4389  0.9255
  625MOL0     H84347  11.936   3.248   3.791  0.6806 -2.9047  0.4198
  625MOL0     H84348  11.944   3.235   3.619 -2.2956 -4.2244  0.6103
  625MOL0     H84349  12.179   3.302   3.796  0.1309  0.5342  0.3947
  625MOL0     H84350  12.166   3.312   3.609 -1.0490  0.5905 -1.5033
  625MOL0     H84351  11.965   3.452   3.780 -1.5432 -2.0061 -2.0638
  625MOL0     H84352  12.030   3.478   3.611 -1.2019  1.5451  0.4644
  625MOL0     H84353  12.104   3.674   3.761  0.1783  0.6523  0.5570
  625MOL0     H84354  12.206   3.551   3.849  0.3643  0.7463  0.3151
  625MOL0     H84355  11.731   2.565   3.707 -0.2084  1.1531 -0.0147
  625MOL0     H84356  11.586   2.391   3.600 -4.8624  2.1291  0.0180
  625MOL0     H84357  11.375   2.293   3.154  0.2484 -1.6391 -4.3323
  625MOL0     H84358  11.184   2.146   3.089  2.2507 -1.4520 -2.1061
  625MOL0     H84359  10.192   0.931   3.087 -1.6006  1.4542 -0.8062
  625MOL0     H84360  10.120   0.723   3.195 -0.1932  2.0682  1.4889
  625MOL0     H84361  10.035   0.307   3.141  0.6310 -0.8206  1.3095
  625MOL0     H84362   9.994   0.087   3.224  0.9399  0.2079 -0.3515
  625MOL0     H84363   9.944  -0.112   3.232 -0.4866  0.8498  0.3845
  625MOL0     H84364   9.837  -0.118   3.091 -0.5449 -0.7556  0.1865
  625MOL0     H84365   9.809  -0.269   3.352 -0.6942  1.1905  0.0534
  625MOL0     H84366   9.872  -0.340   3.196 -3.7502 -3.0524  0.3064
  625MOL0     H84367   9.654  -0.274   3.089  0.4495  2.0659 -0.5041
  625MOL0     H84368   9.594  -0.233   3.251  0.8472 -0.1243 -0.0992
  625MOL0     H84369   9.601  -0.478   3.321  0.5029 -0.3125  0.2297
  625MOL0     H84370   9.539  -0.469   3.160  0.4008  0.2891 -1.0143
  625MOL0     H84371   9.893  -0.674   3.066  1.3166  0.3423  0.3799
  625MOL0     H84372   9.568   0.135   3.224 -1.4911  3.7032  1.0681
  625MOL0     H84373   9.475   0.311   3.113  1.7119 -3.7553  3.1461
  625MOL0     H84374   9.554   0.473   3.138  0.7504  0.0667 -0.8673
  625MOL0     H84375   9.576   0.390   2.994 -0.1331 -0.2073 -0.2841
  626MOL0     O84376   9.517   0.658   3.573 -0.5351  0.6111 -0.1985
  626MOL0     C84377   9.401   0.628   3.536 -0.0217 -0.2774 -0.0831
  626MOL0     O84378   9.299   0.588   3.620 -0.7899  0.0650 -0.4733
  626MOL0     C84379   9.308   0.601   3.760  0.0657  0.9999  0.3602
  626MOL0     C84380   9.402   0.533   3.830 -0.1546  0.3425 -0.0304
  626MOL0     C84381   9.407   0.543   3.968 -0.1176  0.0214  0.5991
  626MOL0     C84382   9.337   0.639   4.037 -0.9337 -1.2928 -0.1676
  626MOL0     O84383   9.362   0.651   4.170  0.5924 -0.6990  0.0446
  626MOL0     C84384   9.353   0.784   4.235  0.2794 -0.6722  0.3216
  626MOL0     C84385   9.356   0.770   4.388 -0.5854  0.9526  0.0362
  626MOL0     C84386   9.502   0.723   4.419 -0.6022 -0.2970  0.7867
  626MOL0     C84387   9.534   0.720   4.569  1.0091 -0.0059 -0.4319
  626MOL0     C84388   9.678   0.656   4.581 -0.5037 -0.9650 -1.3541
  626MOL0     C84389   9.753   0.651   4.712 -0.6138 -0.4675  0.0004
  626MOL0     C84390   9.793   0.799   4.760 -1.0862 -0.1207  0.3688
  626MOL0     C84391   9.742   0.829   4.899  0.1176  0.7103 -0.9440
  626MOL0     N84392   9.792   0.963   4.930  0.7483 -0.0732 -0.2533
  626MOL0     C84393   9.905   1.003   4.992  0.5721 -0.3664  0.2789
  626MOL0     C84394   9.888   1.130   5.011 -0.5047 -0.5281 -0.3660
  626MOL0     C84395   9.977   1.231   5.083 -0.5178 -0.4656  0.9561
  626MOL0     C84396   9.893   1.291   5.198 -0.0191 -1.0384 -0.7582
  626MOL0     C84397   9.970   1.382   5.298  0.3942 -0.3474 -0.4084
  626MOL0     C84398  10.089   1.314   5.367 -0.2649 -0.4580 -0.2216
  626MOL0     O84399  10.194   1.330   5.278  0.0301  0.4596  0.0698
  626MOL0     C84400  10.320   1.323   5.319 -0.0286 -0.1342 -0.0635
  626MOL0     C84401  10.413   1.341   5.219 -0.1608 -0.0031  0.0096
  626MOL0     C84402  10.552   1.340   5.247  0.4492  0.1022 -0.4018
  626MOL0     C84403  10.599   1.294   5.373 -0.1858 -0.2517 -0.0193
  626MOL0     C84404  10.738   1.267   5.397  0.4288  0.7905 -0.1586
  626MOL0     O84405  10.779   1.241   5.530 -0.0264 -0.0485  0.2251
  626MOL0     C84406  10.897   1.178   5.549  0.6978 -0.2596  0.3220
  626MOL0     C84407  11.016   1.219   5.487 -0.7799 -0.5819  0.1144
  626MOL0     C84408  11.144   1.170   5.529 -0.0847 -0.0736 -0.6358
  626MOL0     C84409  11.142   1.076   5.630  0.2012 -0.7172  1.1093
  626MOL0     O84410  11.269   1.039   5.669 -0.0231 -0.0352  0.3189
  626MOL0     C84411  11.282   0.931   5.765 -0.5709  0.0763  0.2531
  626MOL0     C84412  11.297   0.979   5.913  0.6496  0.1792 -0.1182
  626MOL0     C84413  11.188   0.929   6.005 -0.2133 -0.2899 -1.5629
  626MOL0     C84414  11.204   0.979   6.158 -0.2466  0.1232 -0.3382
  626MOL0     C84415  11.327   0.909   6.231 -0.1222 -0.5408 -0.4121
  626MOL0     C84416  11.317   0.754   6.216 -0.1450  0.0751  1.0473
  626MOL0     C84417  11.407   0.684   6.309 -0.4085  0.5806 -0.3637
  626MOL0     C84418  11.436   0.537   6.253  0.9943 -0.2669 -0.6412
  626MOL0    Cl84419  11.273   0.465   6.195  0.8491 -0.2404  0.1476
  626MOL0     C84420  11.021   1.027   5.687 -0.1886 -0.4368 -0.8045
  626MOL0     C84421  10.897   1.090   5.656  0.1181  0.0029  0.2945
  626MOL0     O84422  10.809   1.256   5.298 -1.1874 -0.4008 -0.4021
  626MOL0     C84423  10.506   1.273   5.473  0.0152  0.5731 -0.2210
  626MOL0     C84424  10.368   1.283   5.449 -0.2787  0.6305 -0.4892
  626MOL0     N84425   9.762   1.163   4.961  0.4161 -0.4674 -0.5903
  626MOL0     N84426   9.710   1.064   4.905  0.6974  0.2021  0.7132
  626MOL0     C84427   9.231   0.701   3.968 -0.7624  0.5502  0.5135
  626MOL0     C84428   9.214   0.682   3.829  0.2119  0.8849  0.1391
  626MOL0     C84429   9.380   0.635   3.392 -0.6400 -0.4540  0.3063
  626MOL0     C84430   9.475   0.712   3.319 -1.6750 -0.6567 -0.4155
  626MOL0     C84431   9.477   0.725   3.184  0.4385  0.5336  1.0664
  626MOL0     C84432   9.372   0.674   3.105 -0.7907 -0.7069 -0.6666
  626MOL0     O84433   9.372   0.691   2.967  0.5277 -0.3511  0.5962
  626MOL0     C84434   9.451   0.794   2.901  1.1298  0.3265  0.1078
  626MOL0     C84435   9.387   0.837   2.770 -0.7654  0.4963  0.8182
  626MOL0     C84436   9.242   0.898   2.790 -0.9553  0.7552  0.2392
  626MOL0     C84437   9.171   0.960   2.663  0.0435  0.7336  0.1584
  626MOL0     C84438   9.054   1.027   2.718  0.1007  0.7153 -0.7079
  626MOL0     C84439   8.950   1.071   2.771  0.4201 -1.0143 -0.5397
  626MOL0     C84440   9.281   0.598   3.172  0.2338  0.3285  0.2012
  626MOL0     C84441   9.282   0.582   3.309  0.4333  0.1039 -0.4433
  626MOL0     C84442   9.160   0.506   3.361  0.3440 -0.5029 -0.2241
  626MOL0     H84443   9.471   0.476   3.769  1.4956  0.0344  2.0391
  626MOL0     H84444   9.481   0.477   4.012 -1.8697 -3.0702 -0.8079
  626MOL0     H84445   9.445   0.836   4.207 -0.5933 -0.0810 -1.6596
  626MOL0     H84446   9.267   0.839   4.196 -0.6548 -2.0444  0.4135
  626MOL0     H84447   9.278   0.704   4.427 -1.2504  3.0313  2.4586
  626MOL0     H84448   9.348   0.868   4.435  1.0986  1.6243 -0.9636
  626MOL0     H84449   9.570   0.793   4.369 -0.7957 -1.5699 -1.3909
  626MOL0     H84450   9.512   0.625   4.372  0.9315  0.1316  0.1419
  626MOL0     H84451   9.531   0.825   4.601  0.9451  0.3106 -1.4422
  626MOL0     H84452   9.445   0.675   4.613  0.9401  0.6728  0.1391
  626MOL0     H84453   9.669   0.553   4.545  2.2517 -1.7631 -0.0435
  626MOL0     H84454   9.748   0.691   4.504 -1.0205  1.1430 -0.9306
  626MOL0     H84455   9.695   0.592   4.784  2.1409 -2.2081  0.9586
  626MOL0     H84456   9.843   0.594   4.690  0.8199  2.4970 -2.5934
  626MOL0     H84457   9.764   0.874   4.686 -1.6898 -0.8824 -0.1936
  626MOL0     H84458   9.901   0.806   4.774 -1.1349  4.8777 -0.0837
  626MOL0     H84459   9.633   0.819   4.902  0.2616 -1.3701 -1.4515
  626MOL0     H84460   9.775   0.749   4.966  0.3110  0.4155 -1.3904
  626MOL0     H84461   9.987   0.934   5.009 -1.5107 -2.9478  0.5709
  626MOL0     H84462  10.074   1.193   5.116  1.2877 -0.7066 -3.8181
  626MOL0     H84463   9.995   1.315   5.016  2.0921 -1.9003 -0.2682
  626MOL0     H84464   9.801   1.335   5.159  0.0777  1.9470  1.9954
  626MOL0     H84465   9.864   1.200   5.251  0.5560  0.7156  2.8572
  626MOL0     H84466   9.914   1.433   5.376  2.3933 -1.3913  1.8453
  626MOL0     H84467  10.012   1.469   5.247 -0.3617  1.4247  1.8366
  626MOL0     H84468  10.071   1.206   5.373 -1.7053 -0.2947 -1.1883
  626MOL0     H84469  10.115   1.355   5.465 -1.2104  2.8231 -1.2202
  626MOL0     H84470  10.378   1.370   5.120 -0.0017 -0.1675 -0.0975
  626MOL0     H84471  10.635   1.365   5.181  1.8145 -1.3527  0.6869
  626MOL0     H84472  11.011   1.301   5.417 -0.7721 -0.3681  0.3652
  626MOL0     H84473  11.235   1.208   5.485 -0.2934  1.0919 -0.0792
  626MOL0     H84474  11.200   0.860   5.747  0.2130 -0.2543 -2.4127
  626MOL0     H84475  11.372   0.874   5.738 -0.3671  1.1985 -1.5337
  626MOL0     H84476  11.394   0.956   5.958 -0.2080 -1.0993  1.1731
  626MOL0     H84477  11.285   1.088   5.916 -0.2264  0.0965 -0.2939
  626MOL0     H84478  11.090   0.956   5.964 -0.0081 -1.2068 -2.7105
  626MOL0     H84479  11.193   0.820   6.014  2.5854 -0.2169 -1.4574
  626MOL0     H84480  11.117   0.947   6.215 -0.5939  2.8891  0.8568
  626MOL0     H84481  11.215   1.088   6.166  0.5833 -0.0990  3.5914
  626MOL0     H84482  11.330   0.947   6.333  1.1406  1.1863 -1.0380
  626MOL0     H84483  11.423   0.942   6.190 -0.2240  1.1273  0.5945
  626MOL0     H84484  11.212   0.726   6.225  0.0515 -2.9351 -3.2010
  626MOL0     H84485  11.364   0.725   6.122  0.6875  0.3106  1.3779
  626MOL0     H84486  11.363   0.669   6.408  1.6328 -2.1882  0.2444
  626MOL0     H84487  11.497   0.743   6.328 -0.2729 -0.0635  1.1094
  626MOL0     H84488  11.503   0.522   6.167  1.2372 -2.1217 -0.1744
  626MOL0     H84489  11.484   0.493   6.341  3.3447  2.4026 -0.4493
  626MOL0     H84490  11.035   0.954   5.767  2.2377 -0.6815 -1.3722
  626MOL0     H84491  10.815   1.059   5.719  0.9218  0.1268  1.4304
  626MOL0     H84492  10.531   1.238   5.573  0.8767 -0.6898 -0.8541
  626MOL0     H84493  10.306   1.271   5.537  2.0672  1.2679  1.3580
  626MOL0     H84494   9.164   0.759   4.031 -0.3025  1.1477  0.4615
  626MOL0     H84495   9.130   0.732   3.783  0.3965 -0.9623 -2.4388
  626MOL0     H84496   9.561   0.746   3.376 -0.4973 -3.3986 -0.4096
  626MOL0     H84497   9.551   0.774   3.121  0.6090 -2.3516 -1.1898
  626MOL0     H84498   9.552   0.751   2.892  0.5034 -1.1525 -0.2129
  626MOL0     H84499   9.455   0.881   2.966  1.2796  0.1037  0.4001
  626MOL0     H84500   9.391   0.753   2.700  3.9475  2.2997 -1.5019
  626MOL0     H84501   9.449   0.920   2.733 -2.7046  1.2658 -0.9529
  626MOL0     H84502   9.243   0.977   2.866 -0.0159  3.3430 -2.2704
  626MOL0     H84503   9.185   0.818   2.838  1.9494 -0.3870  1.9931
  626MOL0     H84504   9.239   1.029   2.612  1.6810 -1.0145 -0.1220
  626MOL0     H84505   9.153   0.873   2.601  2.5112 -0.5476  1.1016
  626MOL0     H84506   8.859   1.117   2.802  0.3601 -0.2538 -1.7767
  626MOL0     H84507   9.209   0.540   3.115  0.3141 -0.0477  0.4808
  626MOL0     H84508   9.176   0.466   3.461 -1.2084 -1.3378 -0.2849
  626MOL0     H84509   9.075   0.575   3.366 -0.3581 -1.3990  0.4985
  626MOL0     H84510   9.131   0.425   3.293 -1.8580 -0.8600  1.0310
  627MOL0     O84511   7.201  10.197   2.095 -0.1898  0.3664  0.0253
  627MOL0     C84512   7.254  10.213   2.205 -0.0441  0.4300 -0.0916
  627MOL0     O84513   7.186  10.242   2.318  0.0570  0.4624 -0.3082
  627MOL0     C84514   7.053  10.257   2.288 -0.1367 -0.8361 -0.0027
  627MOL0     C84515   6.961  10.151   2.296 -0.4804 -0.4820 -0.7705
  627MOL0     C84516   6.824  10.168   2.267  0.9255 -1.0821 -0.2122
  627MOL0     C84517   6.775  10.288   2.226  0.1421  0.1400  0.2858
  627MOL0     O84518   6.644  10.309   2.177  0.1413 -0.3496  0.2265
  627MOL0     C84519   6.551  10.203   2.189  0.1721  0.2889  0.4825
  627MOL0     C84520   6.431  10.249   2.104  0.7357  0.2624 -0.5147
  627MOL0     C84521   6.310  10.167   2.138 -0.7014  0.8120 -0.1934
  627MOL0     C84522   6.298  10.045   2.053  0.1290  0.5658 -0.1569
  627MOL0     C84523   6.206   9.939   2.133  0.0425 -0.6362 -0.4836
  627MOL0     C84524   6.180   9.811   2.045  0.0581 -0.6805 -1.2170
  627MOL0     C84525   6.115   9.691   2.130 -0.5697 -0.0312  0.9893
  627MOL0     C84526   6.113   9.555   2.054 -0.2869 -0.2890 -0.0925
  627MOL0     N84527   6.006   9.458   2.077  0.3426 -0.0020  0.0437
  627MOL0     C84528   5.920   9.464   2.185 -0.6219  0.4635 -0.1042
  627MOL0     C84529   5.845   9.350   2.177  0.6839  0.5134  0.2678
  627MOL0     C84530   5.726   9.322   2.262 -0.1138 -0.2661 -0.1738
  627MOL0     C84531   5.603   9.272   2.187 -0.2364  0.4579 -0.2861
  627MOL0     C84532   5.602   9.127   2.142 -0.0012  0.6669  0.1062
  627MOL0     C84533   5.463   9.077   2.112  0.4355  0.0788  0.9707
  627MOL0     O84534   5.423   9.126   1.982  0.0385  0.1591 -0.6317
  627MOL0     C84535   5.289   9.118   1.959 -0.3819 -0.6712 -0.7735
  627MOL0     C84536   5.200   9.034   2.024  0.4554 -0.2322  0.0065
  627MOL0     C84537   5.064   9.051   2.013 -0.3089 -0.3498 -0.1313
  627MOL0     C84538   5.010   9.149   1.926  0.2144  0.4557  0.7882
  627MOL0     C84539   4.865   9.162   1.906  0.7544  0.6289 -0.0710
  627MOL0     O84540   4.817   9.267   1.826 -0.0739 -0.2798 -1.1149
  627MOL0     C84541   4.682   9.257   1.790 -0.5396 -0.0984 -0.2276
  627MOL0     C84542   4.575   9.226   1.874  0.0250 -0.1576  0.2367
  627MOL0     C84543   4.442   9.220   1.822  0.1745 -0.2797 -0.1565
  627MOL0     C84544   4.412   9.275   1.697 -0.1499 -0.0376  0.7302
  627MOL0     O84545   4.288   9.305   1.640  0.1122  0.0360  0.1262
  627MOL0     C84546   4.167   9.283   1.720 -0.9730 -0.3952 -0.4288
  627MOL0     C84547   4.037   9.333   1.650 -0.5746 -0.6234  0.3403
  627MOL0     C84548   4.018   9.253   1.521 -0.3488  0.3467  0.1034
  627MOL0     C84549   3.979   9.107   1.549  0.7151 -0.0732  0.4556
  627MOL0     C84550   3.967   9.023   1.422 -0.1446  0.3339 -0.4447
  627MOL0     C84551   3.836   9.034   1.353  1.0772 -0.9662  0.0625
  627MOL0     C84552   3.824   8.921   1.262 -0.4883 -0.1190  0.7101
  627MOL0     C84553   3.709   8.945   1.174  0.3020  0.3164  0.3660
  627MOL0    Cl84554   3.537   8.953   1.276  0.0255 -0.6725  0.4202
  627MOL0     C84555   4.518   9.311   1.618 -0.3642 -0.0792  0.2278
  627MOL0     C84556   4.648   9.299   1.660  0.7690 -0.3148  0.1041
  627MOL0     O84557   4.795   9.073   1.956 -0.0800 -0.2511  0.1376
  627MOL0     C84558   5.099   9.216   1.843 -1.2887 -0.1276 -0.1388
  627MOL0     C84559   5.239   9.208   1.870 -0.4249 -0.1173  0.0501
  627MOL0     N84560   5.897   9.274   2.071  0.1883  0.1017  0.1777
  627MOL0     N84561   5.985   9.342   2.009 -0.9171 -0.0504 -0.1669
  627MOL0     C84562   6.863  10.399   2.219 -0.1736 -0.1232  1.2379
  627MOL0     C84563   6.999  10.384   2.254  0.1416 -0.4972  0.3533
  627MOL0     C84564   7.386  10.192   2.232 -0.9124  0.7481  1.6986
  627MOL0     C84565   7.433  10.135   2.349  0.4260  0.7443 -0.4594
  627MOL0     C84566   7.567  10.121   2.383 -0.9449 -0.4661  0.8818
  627MOL0     C84567   7.655  10.186   2.301 -0.6717  1.4668  0.5279
  627MOL0     O84568   7.788  10.204   2.339  0.1043  0.7071  0.2990
  627MOL0     C84569   7.825  10.155   2.471 -1.2301 -0.2610 -0.2781
  627MOL0     C84570   7.971  10.109   2.468 -0.0692 -0.0807 -0.7689
  627MOL0     C84571   7.996   9.965   2.431 -0.0335 -0.8923 -0.3089
  627MOL0     C84572   8.143   9.928   2.458  1.0004 -0.5007 -0.2847
  627MOL0     C84573   8.150   9.895   2.602  0.4092  0.4882  0.8677
  627MOL0     C84574   8.165   9.871   2.720  0.0320  0.2138  0.0153
  627MOL0     C84575   7.620  10.233   2.175  0.6342  0.6192 -0.0817
  627MOL0     C84576   7.482  10.238   2.134 -0.3241  0.3924 -0.1331
  627MOL0     C84577   7.455  10.302   2.005  0.8788 -0.7256 -0.8580
  627MOL0     H84578   7.016  10.060   2.317  0.7471  0.3493 -0.2101
  627MOL0     H84579   6.774  10.071   2.261  0.1793 -0.7566  0.4752
  627MOL0     H84580   6.583  10.101   2.164  0.7404  0.4305  0.6117
  627MOL0     H84581   6.518  10.197   2.293 -0.3443 -0.5881  0.2791
  627MOL0     H84582   6.445  10.248   1.995  1.3702  2.0809 -0.4767
  627MOL0     H84583   6.421  10.353   2.136 -0.4795 -0.1470  0.5283
  627MOL0     H84584   6.223  10.232   2.121 -0.1299  1.2338 -1.6560
  627MOL0     H84585   6.298  10.137   2.243  0.1094 -0.6235 -0.4816
  627MOL0     H84586   6.264  10.078   1.955  0.7456  0.4944 -0.4029
  627MOL0     H84587   6.398  10.008   2.029  0.3312  0.9818  0.0247
  627MOL0     H84588   6.267   9.915   2.220 -0.7648  4.5920  1.9398
  627MOL0     H84589   6.114   9.979   2.177  0.5728 -2.1696  2.2075
  627MOL0     H84590   6.109   9.835   1.966 -1.3651 -1.7021 -0.2896
  627MOL0     H84591   6.277   9.777   2.006  2.5261 -2.4612  5.2074
  627MOL0     H84592   6.010   9.721   2.142 -0.6411 -0.6326  1.9916
  627MOL0     H84593   6.168   9.687   2.225  0.0915  2.5275  0.8196
  627MOL0     H84594   6.124   9.567   1.946  3.2438 -0.7838  0.0926
  627MOL0     H84595   6.207   9.510   2.090  1.2309  1.7164 -1.3629
  627MOL0     H84596   5.907   9.545   2.256 -2.9882 -1.1536  1.4483
  627MOL0     H84597   5.756   9.239   2.327 -1.9647 -1.6401 -0.9869
  627MOL0     H84598   5.706   9.421   2.304  1.1900  0.6345 -1.5397
  627MOL0     H84599   5.530   9.285   2.268  2.7911 -2.5277  3.3024
  627MOL0     H84600   5.578   9.339   2.104 -2.1290 -3.2383 -3.0109
  627MOL0     H84601   5.648   9.061   2.216 -1.4496  0.3963  0.7979
  627MOL0     H84602   5.659   9.114   2.049  0.6908 -1.6554  0.7976
  627MOL0     H84603   5.391   9.118   2.184  0.3007  1.3989  0.1011
  627MOL0     H84604   5.468   8.968   2.124 -0.6979  0.1628  2.5789
  627MOL0     H84605   5.240   8.952   2.082  0.7466 -0.1019 -0.0078
  627MOL0     H84606   5.005   8.991   2.082 -0.5472  0.9770  0.8522
  627MOL0     H84607   4.584   9.185   1.974  0.2063 -2.5804 -0.7074
  627MOL0     H84608   4.365   9.196   1.894  2.3798  0.7925  2.7723
  627MOL0     H84609   4.170   9.179   1.753  1.1105 -0.2855 -0.1507
  627MOL0     H84610   4.176   9.340   1.813 -3.1058 -1.7808  0.7266
  627MOL0     H84611   3.946   9.320   1.709 -2.2954  0.6712 -1.8409
  627MOL0     H84612   4.059   9.437   1.623 -0.1490 -0.0475  2.7039
  627MOL0     H84613   3.938   9.301   1.463  0.1164  1.6708  0.5267
  627MOL0     H84614   4.113   9.254   1.467 -0.7235  0.1347 -0.5778
  627MOL0     H84615   3.893   9.095   1.616  1.2433  0.0914  1.1799
  627MOL0     H84616   4.058   9.064   1.612 -0.6771 -0.5206  1.9625
  627MOL0     H84617   3.968   8.920   1.456 -1.0193  0.8731  1.3302
  627MOL0     H84618   4.045   9.045   1.348 -3.0099  2.9064 -3.0058
  627MOL0     H84619   3.765   9.016   1.434  0.9906 -1.0631 -0.0341
  627MOL0     H84620   3.830   9.130   1.299  3.5196 -1.6152 -1.5052
  627MOL0     H84621   3.817   8.824   1.313 -2.0535  0.3855  1.5097
  627MOL0     H84622   3.913   8.929   1.199 -2.6779 -2.2786 -3.0963
  627MOL0     H84623   3.734   9.037   1.120  0.8865  0.2570  0.5324
  627MOL0     H84624   3.700   8.871   1.094 -2.4907  0.5641  0.3608
  627MOL0     H84625   4.500   9.330   1.513  0.9968 -0.4286 -0.0843
  627MOL0     H84626   4.739   9.318   1.605  0.9124  0.3351  0.5548
  627MOL0     H84627   5.067   9.277   1.759  0.7193  2.2613  0.6946
  627MOL0     H84628   5.314   9.262   1.813 -0.4426 -0.3311 -0.1759
  627MOL0     H84629   6.824  10.495   2.186  2.0659  0.6309  0.5854
  627MOL0     H84630   7.069  10.467   2.251 -0.3973 -0.0315  0.5330
  627MOL0     H84631   7.368  10.123   2.434 -1.2779  1.7057 -1.5820
  627MOL0     H84632   7.591  10.081   2.481  1.5402  0.5206  0.7515
  627MOL0     H84633   7.790  10.057   2.504 -0.0108 -0.7489 -0.3790
  627MOL0     H84634   7.804  10.234   2.543  1.4006  1.3132 -1.1100
  627MOL0     H84635   8.004  10.133   2.569 -0.2139 -0.4633 -0.6290
  627MOL0     H84636   8.032  10.168   2.399 -0.8588 -0.3882 -1.7677
  627MOL0     H84637   7.964   9.956   2.327 -2.0090  0.2172  0.1504
  627MOL0     H84638   7.920   9.894   2.464  1.2449 -2.0233  0.3504
  627MOL0     H84639   8.171   9.840   2.399  0.9003  0.3782 -1.7047
  627MOL0     H84640   8.220   9.996   2.421  2.6602 -2.7512 -1.1928
  627MOL0     H84641   8.188   9.865   2.824 -0.7162 -1.5675  0.1092
  627MOL0     H84642   7.716  10.261   2.134  0.7028  1.3527  0.5653
  627MOL0     H84643   7.431  10.223   1.934  0.1445 -0.4939 -0.8801
  627MOL0     H84644   7.382  10.383   2.015  2.9357  1.6802 -3.6121
  627MOL0     H84645   7.540  10.361   1.969  0.7561 -0.2546 -0.3998
  628MOL0     O84646   3.281   2.447   6.191  0.4653 -0.0124  0.6227
  628MOL0     C84647   3.293   2.356   6.103  0.3831 -0.9164 -0.0970
  628MOL0     O84648   3.381   2.362   6.001  0.0957  0.8888 -0.0245
  628MOL0     C84649   3.432   2.485   5.979 -0.4417  0.8200 -0.4494
  628MOL0     C84650   3.562   2.521   6.026 -0.3224 -0.0688  0.7930
  628MOL0     C84651   3.629   2.628   5.961  0.6866  0.1661 -0.3256
  628MOL0     C84652   3.568   2.707   5.873  0.1778 -0.9070 -0.3968
  628MOL0     O84653   3.633   2.813   5.819 -0.4390  0.5625 -0.5626
  628MOL0     C84654   3.716   2.900   5.908  0.6028 -0.0281 -0.2191
  628MOL0     C84655   3.778   3.008   5.821 -0.1335  0.2378 -0.8678
  628MOL0     C84656   3.859   3.111   5.893  0.0664  0.0331 -0.8651
  628MOL0     C84657   3.909   3.230   5.810 -0.1862  0.5343 -0.3035
  628MOL0     C84658   3.964   3.351   5.884 -0.3015 -0.1382 -0.4895
  628MOL0     C84659   3.991   3.459   5.784  0.4671 -0.3208  0.7004
  628MOL0     C84660   4.104   3.548   5.831  0.5225  0.9282  0.6851
  628MOL0     C84661   4.122   3.660   5.724  0.1376 -0.1891  0.1720
  628MOL0     N84662   4.227   3.756   5.764 -0.3802 -0.1113  0.9378
  628MOL0     C84663   4.223   3.848   5.870 -0.1076 -0.1854 -0.3781
  628MOL0     C84664   4.340   3.919   5.867  0.5445  0.3650  0.1123
  628MOL0     C84665   4.373   4.038   5.964 -0.9583 -0.2099 -0.7895
  628MOL0     C84666   4.526   4.035   5.997 -0.2669  0.4270 -0.2884
  628MOL0     C84667   4.578   4.118   6.110  0.2085 -0.0958 -0.2844
  628MOL0     C84668   4.706   4.064   6.179 -0.3427  0.5130 -0.0974
  628MOL0     O84669   4.746   4.160   6.277 -0.1592 -0.1136  0.1324
  628MOL0     C84670   4.853   4.134   6.358 -0.4938  0.8835 -0.1371
  628MOL0     C84671   4.867   4.216   6.475 -0.3187  0.4823  0.3850
  628MOL0     C84672   4.967   4.199   6.581  0.1852 -0.0433  0.0549
  628MOL0     C84673   5.067   4.096   6.558  0.3147  0.6015  0.3162
  628MOL0     C84674   5.168   4.072   6.665  0.3389  0.5710 -0.0673
  628MOL0     O84675   5.141   4.134   6.783 -0.0480  0.5440 -0.0411
  628MOL0     C84676   5.256   4.133   6.866 -0.3847  0.4004  0.2887
  628MOL0     C84677   5.304   4.020   6.937  0.0590  0.6930  0.1557
  628MOL0     C84678   5.422   4.026   7.011 -0.1221  0.5999  0.6086
  628MOL0     C84679   5.497   4.147   7.016  0.9007 -0.9221 -0.5675
  628MOL0     O84680   5.608   4.135   7.093 -0.2261  0.5246 -0.9255
  628MOL0     C84681   5.683   4.254   7.111  0.0851  0.1550 -0.0155
  628MOL0     C84682   5.812   4.227   7.180  0.2242 -0.3195  1.0775
  628MOL0     C84683   5.816   4.220   7.325 -0.9200 -0.3015 -0.0570
  628MOL0     C84684   5.832   4.070   7.369 -0.2567  0.1185 -0.1426
  628MOL0     C84685   5.963   3.998   7.359 -1.1588  0.3599 -0.1180
  628MOL0     C84686   6.076   4.036   7.457 -0.0683 -0.0319 -0.2077
  628MOL0     C84687   6.142   3.904   7.510 -0.2207  0.6190 -0.0837
  628MOL0     C84688   6.249   3.946   7.603  1.0364 -1.2743 -0.2440
  628MOL0    Cl84689   6.379   3.830   7.619 -0.0675 -0.2570  0.1824
  628MOL0     C84690   5.447   4.261   6.947 -0.3311 -1.2119 -1.1049
  628MOL0     C84691   5.329   4.252   6.872 -1.4131  0.5398  0.2717
  628MOL0     O84692   5.276   4.030   6.625 -0.2176  0.2304 -0.5428
  628MOL0     C84693   5.069   4.028   6.429  0.5149 -0.6721 -0.1687
  628MOL0     C84694   4.959   4.039   6.342  0.1908  0.4959  0.2807
  628MOL0     N84695   4.417   3.868   5.763  0.0236 -0.3317  0.1594
  628MOL0     N84696   4.354   3.772   5.703  0.4670  0.1270 -0.5867
  628MOL0     C84697   3.437   2.688   5.848 -0.1385 -0.5968  0.8565
  628MOL0     C84698   3.363   2.586   5.914 -0.1466 -0.3713  0.0633
  628MOL0     C84699   3.223   2.234   6.135 -0.0190  0.3199  1.2756
  628MOL0     C84700   3.088   2.236   6.168  0.2273  0.1941  0.2255
  628MOL0     C84701   3.009   2.119   6.177 -0.5517 -0.2092  0.8413
  628MOL0     C84702   3.069   1.991   6.150 -0.0820 -0.3904 -0.8829
  628MOL0     O84703   2.995   1.870   6.151 -0.5211 -0.0895 -0.3014
  628MOL0     C84704   2.895   1.877   6.050  0.2224 -0.2491  0.4000
  628MOL0     C84705   2.785   1.796   6.106  0.4850  0.7138  0.7382
  628MOL0     C84706   2.674   1.745   6.005  0.5146  0.1028 -0.4884
  628MOL0     C84707   2.557   1.676   6.080  0.2494 -1.8320 -0.5274
  628MOL0     C84708   2.583   1.554   6.158 -0.5715  0.8373  0.7312
  628MOL0     C84709   2.612   1.470   6.252  0.1616 -0.1518  1.1829
  628MOL0     C84710   3.205   1.984   6.133 -0.0210  0.3742 -0.6323
  628MOL0     C84711   3.285   2.101   6.121  0.2486  0.6241 -0.1173
  628MOL0     C84712   3.425   2.084   6.070 -0.6537 -0.1584 -0.3563
  628MOL0     H84713   3.630   2.461   6.086 -1.4622  0.2426  2.4653
  628MOL0     H84714   3.733   2.639   5.993  0.1177 -1.2605  2.2728
  628MOL0     H84715   3.654   2.944   5.986 -0.3093 -0.6862 -0.5520
  628MOL0     H84716   3.797   2.850   5.963 -0.5993 -2.9924 -0.9414
  628MOL0     H84717   3.693   3.054   5.770  1.3238  3.3757 -0.7177
  628MOL0     H84718   3.853   2.971   5.752 -1.0020 -0.1175 -1.6461
  628MOL0     H84719   3.936   3.054   5.945 -1.5987 -0.4070  1.2714
  628MOL0     H84720   3.794   3.151   5.971 -1.5338 -1.8977 -1.1299
  628MOL0     H84721   3.991   3.193   5.747  2.4230  1.8678  2.1118
  628MOL0     H84722   3.823   3.260   5.749 -2.3338 -1.9580  1.2659
  628MOL0     H84723   3.898   3.381   5.966 -0.8473  0.9583 -1.3038
  628MOL0     H84724   4.057   3.313   5.927 -1.3145 -3.8057 -1.2079
  628MOL0     H84725   4.030   3.423   5.688  0.2310  1.3739 -0.0692
  628MOL0     H84726   3.903   3.523   5.769  0.8400  0.2887  1.0464
  628MOL0     H84727   4.190   3.483   5.847  0.0935  0.7707  2.5693
  628MOL0     H84728   4.093   3.583   5.933 -3.4653 -2.4974  1.7140
  628MOL0     H84729   4.127   3.617   5.623 -0.8554  0.4369 -0.1525
  628MOL0     H84730   4.029   3.717   5.730  0.4982  0.2357  2.7989
  628MOL0     H84731   4.146   3.870   5.944  2.1872  1.9511  1.5673
  628MOL0     H84732   4.379   4.141   5.926  0.7488  0.2334  0.5050
  628MOL0     H84733   4.316   4.027   6.056  0.4032 -0.2298  0.0918
  628MOL0     H84734   4.550   3.929   6.008 -1.6090  0.0508 -0.7437
  628MOL0     H84735   4.575   4.064   5.904 -1.6750  2.3565 -0.5016
  628MOL0     H84736   4.495   4.137   6.178 -2.4448  0.0598 -3.3499
  628MOL0     H84737   4.586   4.221   6.075 -3.6054 -0.0155 -1.3700
  628MOL0     H84738   4.775   4.054   6.094 -0.0966 -3.6837  0.3510
  628MOL0     H84739   4.676   3.967   6.220  2.5083  0.0285  1.0766
  628MOL0     H84740   4.794   4.292   6.500 -1.6715 -0.1699 -1.3008
  628MOL0     H84741   4.955   4.270   6.662 -0.4793  1.4401 -1.2923
  628MOL0     H84742   5.245   3.928   6.935 -1.5655  1.6958 -1.0347
  628MOL0     H84743   5.443   3.947   7.082 -1.0014  1.4752  1.8968
  628MOL0     H84744   5.703   4.278   7.006 -1.0188  1.2019  0.0052
  628MOL0     H84745   5.626   4.336   7.155 -1.5965 -1.8268  1.7067
  628MOL0     H84746   5.858   4.135   7.141 -1.3511 -0.3358 -0.8846
  628MOL0     H84747   5.876   4.308   7.144  0.6856 -1.2345 -0.2611
  628MOL0     H84748   5.904   4.282   7.349 -1.5851  0.2132  1.1491
  628MOL0     H84749   5.731   4.258   7.382 -0.7013 -0.0007  0.0730
  628MOL0     H84750   5.749   4.021   7.317 -2.7880  2.5234  1.3471
  628MOL0     H84751   5.801   4.058   7.473  1.1122 -2.0638  0.0916
  628MOL0     H84752   5.996   4.017   7.256 -2.1874  0.6606 -0.4073
  628MOL0     H84753   5.940   3.891   7.368 -1.6963  0.2752 -2.0243
  628MOL0     H84754   6.146   4.098   7.400 -0.7147 -0.7115 -1.7980
  628MOL0     H84755   6.036   4.091   7.543  2.9839 -0.7544  1.8453
  628MOL0     H84756   6.190   3.845   7.432  2.2269  0.5283  1.3740
  628MOL0     H84757   6.069   3.841   7.562  0.6261 -1.1610 -0.9886
  628MOL0     H84758   6.300   4.036   7.568  1.0628 -2.0537 -2.3107
  628MOL0     H84759   6.203   3.971   7.699 -1.3529 -0.6882 -1.4563
  628MOL0     H84760   5.494   4.359   6.938 -0.6994 -1.1209 -2.1239
  628MOL0     H84761   5.298   4.334   6.808  0.9165  1.1980 -0.0924
  628MOL0     H84762   5.143   3.957   6.393 -0.9413 -0.7189 -3.5074
  628MOL0     H84763   4.959   3.975   6.254 -3.3938  2.6394 -1.5431
  628MOL0     H84764   3.377   2.758   5.791 -1.9481 -3.2081 -0.6504
  628MOL0     H84765   3.264   2.555   5.886 -0.9913  0.0478  2.3429
  628MOL0     H84766   3.043   2.334   6.177  1.4169  0.8455 -0.6433
  628MOL0     H84767   2.905   2.114   6.208 -1.5797  3.6158 -1.2853
  628MOL0     H84768   2.916   1.829   5.954 -0.0945  2.5635 -1.1956
  628MOL0     H84769   2.852   1.975   6.027  0.1406 -0.5385 -0.7218
  628MOL0     H84770   2.724   1.858   6.173 -2.4061 -2.5416  1.4018
  628MOL0     H84771   2.821   1.707   6.159 -1.3253 -2.1899 -2.4777
  628MOL0     H84772   2.711   1.665   5.939 -0.2639  0.9112 -1.9594
  628MOL0     H84773   2.635   1.832   5.953  3.8127  1.9165 -0.1679
  628MOL0     H84774   2.503   1.742   6.148 -2.5737 -1.5135 -2.8735
  628MOL0     H84775   2.481   1.643   6.007  0.4738 -0.8385 -1.2231
  628MOL0     H84776   2.638   1.411   6.337  3.3503  1.3504  1.3721
  628MOL0     H84777   3.248   1.888   6.104 -0.6532 -0.0801 -0.0960
  628MOL0     H84778   3.458   1.981   6.087 -0.8042  0.2907  3.9308
  628MOL0     H84779   3.420   2.098   5.962 -2.4048 -1.5297 -0.4875
  628MOL0     H84780   3.499   2.147   6.121  0.9807 -3.1170  1.2337
  629MOL0     O84781  10.854   1.883   8.140 -0.0305  0.3683 -0.2944
  629MOL0     C84782  10.868   1.768   8.183 -0.2842 -0.5209 -0.1265
  629MOL0     O84783  10.989   1.728   8.226  0.1818 -0.0344 -0.9689
  629MOL0     C84784  11.106   1.813   8.234  0.5021 -0.1027  0.4142
  629MOL0     C84785  11.193   1.787   8.339  0.7884 -0.7112 -0.2848
  629MOL0     C84786  11.318   1.844   8.338  0.2801  0.0618 -0.5179
  629MOL0     C84787  11.345   1.946   8.246  0.5096 -0.4415 -0.9647
  629MOL0     O84788  11.471   2.002   8.245 -0.0621 -0.5415 -0.2572
  629MOL0     C84789  11.493   2.087   8.353  0.7689 -0.5316 -0.3186
  629MOL0     C84790  11.382   2.191   8.393 -0.4482 -0.1606 -0.1304
  629MOL0     C84791  11.348   2.291   8.287  0.0709  0.2722 -0.1298
  629MOL0     C84792  11.207   2.340   8.278 -0.4723 -0.1931  0.0900
  629MOL0     C84793  11.171   2.408   8.145 -0.0592  0.2083  1.3470
  629MOL0     C84794  11.036   2.479   8.141  0.2014 -0.8287  0.0563
  629MOL0     C84795  10.994   2.562   8.263 -0.6441 -0.0503  0.8495
  629MOL0     C84796  10.862   2.626   8.264  0.0350 -0.1435  0.3255
  629MOL0     N84797  10.850   2.710   8.388 -0.8775 -0.1432  0.5116
  629MOL0     C84798  10.762   2.676   8.487  0.0327 -0.1343  0.5837
  629MOL0     C84799  10.757   2.790   8.562 -0.3648 -1.3733 -0.1917
  629MOL0     C84800  10.671   2.815   8.677 -0.0759 -0.7878 -0.5666
  629MOL0     C84801  10.694   2.701   8.771  0.0418 -0.0074  0.2625
  629MOL0     C84802  10.814   2.719   8.865  0.4168 -0.0398  0.4569
  629MOL0     C84803  10.840   2.599   8.951  0.5589  0.3946  0.2091
  629MOL0     O84804  10.888   2.496   8.865  0.3761 -0.6123 -0.2163
  629MOL0     C84805  11.020   2.486   8.835  0.0464 -0.2185 -0.9286
  629MOL0     C84806  11.124   2.477   8.933 -0.4830 -0.3723  0.0842
  629MOL0     C84807  11.265   2.450   8.900  0.2793 -0.5445  0.9658
  629MOL0     C84808  11.296   2.455   8.763  0.4457 -0.2060  0.1950
  629MOL0     C84809  11.439   2.452   8.733  0.2795 -0.5686  0.2139
  629MOL0     O84810  11.467   2.461   8.600  1.0021 -0.8100  0.7047
  629MOL0     C84811  11.588   2.500   8.572 -0.2430  0.3502  0.1813
  629MOL0     C84812  11.666   2.401   8.510 -0.7186  0.4765 -0.0726
  629MOL0     C84813  11.797   2.428   8.487 -0.1329 -0.0540  0.9275
  629MOL0     C84814  11.862   2.543   8.523  0.2031  0.0352 -0.1432
  629MOL0     O84815  11.990   2.549   8.482 -0.4120  0.2777 -0.2024
  629MOL0     C84816  12.076   2.607   8.580 -1.3879  0.2638 -0.6534
  629MOL0     C84817  12.222   2.574   8.538  0.2168  0.0536  0.4387
  629MOL0     C84818  12.331   2.643   8.629  0.7071 -0.6767 -0.0140
  629MOL0     C84819  12.349   2.793   8.601 -0.6272 -0.3142 -0.4733
  629MOL0     C84820  12.444   2.861   8.702 -0.5832 -0.2098  1.3599
  629MOL0     C84821  12.593   2.875   8.658  0.2983 -0.5285 -0.3360
  629MOL0     C84822  12.678   2.966   8.753  0.5083  0.0201  0.4746
  629MOL0     C84823  12.643   3.110   8.732  0.4377 -0.1513 -0.4081
  629MOL0    Cl84824  12.713   3.165   8.565 -0.2836  0.3225 -0.1871
  629MOL0     C84825  11.784   2.642   8.564  0.2811 -0.2243 -0.6305
  629MOL0     C84826  11.643   2.626   8.596 -1.8892  0.2759 -0.0672
  629MOL0     O84827  11.524   2.439   8.820  0.7694  0.3331 -0.0722
  629MOL0     C84828  11.192   2.469   8.668 -0.1451 -0.1042  0.0312
  629MOL0     C84829  11.057   2.485   8.708  0.0182  0.1938  0.0171
  629MOL0     N84830  10.865   2.877   8.526  0.4154 -0.0040 -0.6125
  629MOL0     N84831  10.902   2.833   8.407 -0.4860  0.0091  0.9098
  629MOL0     C84832  11.256   1.983   8.150  0.9313  0.4455 -0.2998
  629MOL0     C84833  11.142   1.907   8.135  0.2578  0.5148 -0.3663
  629MOL0     C84834  10.760   1.676   8.168  0.1661 -0.5004  0.2929
  629MOL0     C84835  10.786   1.544   8.208 -0.7087 -0.8908 -0.5844
  629MOL0     C84836  10.695   1.439   8.202  0.4542 -0.1750  0.5029
  629MOL0     C84837  10.560   1.469   8.169 -0.6725  0.4313 -0.1505
  629MOL0     O84838  10.455   1.383   8.168  0.4882  0.4132 -0.1615
  629MOL0     C84839  10.453   1.273   8.255  0.5690 -0.2517 -0.3633
  629MOL0     C84840  10.452   1.323   8.404  0.3563  0.3093  0.0870
  629MOL0     C84841  10.429   1.202   8.499 -0.1148 -0.3246 -0.5600
  629MOL0     C84842  10.349   1.248   8.622 -0.1774 -0.5139  0.1098
  629MOL0     C84843  10.335   1.139   8.715 -0.6760 -0.2392  0.4489
  629MOL0     C84844  10.322   1.054   8.799 -0.9368 -0.7811 -0.4817
  629MOL0     C84845  10.528   1.601   8.139 -0.0168  0.5038 -1.1050
  629MOL0     C84846  10.618   1.703   8.138  0.3436  0.3993 -0.4255
  629MOL0     C84847  10.567   1.841   8.115  0.1572 -0.0053 -0.4568
  629MOL0     H84848  11.162   1.714   8.413 -2.8102 -0.0974 -1.0270
  629MOL0     H84849  11.399   1.813   8.404  0.3404  1.2051 -0.0410
  629MOL0     H84850  11.521   2.026   8.440  0.5374  2.3566  1.9616
  629MOL0     H84851  11.589   2.134   8.329  1.9237 -2.9056 -0.6066
  629MOL0     H84852  11.412   2.248   8.482  0.9541  2.2435 -2.0390
  629MOL0     H84853  11.296   2.129   8.421  0.0476 -3.1476 -4.3090
  629MOL0     H84854  11.366   2.239   8.192 -1.2611  0.1994 -0.3503
  629MOL0     H84855  11.417   2.375   8.300 -0.5348  1.1770 -2.3566
  629MOL0     H84856  11.145   2.255   8.309  0.0833 -0.7273 -0.2420
  629MOL0     H84857  11.209   2.412   8.359  1.5834 -1.3046  1.1013
  629MOL0     H84858  11.246   2.480   8.110  1.8518 -2.0645  0.4689
  629MOL0     H84859  11.167   2.333   8.064  0.3193 -0.8935  2.3119
  629MOL0     H84860  11.029   2.549   8.057 -3.7099  0.3189  1.1193
  629MOL0     H84861  10.963   2.404   8.110 -2.0287  0.8339  1.0308
  629MOL0     H84862  11.072   2.638   8.272  0.4716 -0.6116 -2.6249
  629MOL0     H84863  10.995   2.491   8.346  1.8228 -1.9795 -0.6612
  629MOL0     H84864  10.849   2.693   8.178  1.1637 -0.1551  0.1329
  629MOL0     H84865  10.788   2.545   8.263 -0.4791  0.2749  1.5877
  629MOL0     H84866  10.715   2.581   8.509 -3.4040  0.4582 -3.0060
  629MOL0     H84867  10.696   2.914   8.716 -1.5877 -0.6553  0.1565
  629MOL0     H84868  10.566   2.804   8.647 -0.6764  0.6287  0.8429
  629MOL0     H84869  10.605   2.686   8.833 -0.0658  0.9831  0.3624
  629MOL0     H84870  10.707   2.608   8.715 -2.3095 -1.5496  2.0848
  629MOL0     H84871  10.802   2.810   8.923 -0.0215 -1.1618  2.2130
  629MOL0     H84872  10.900   2.738   8.801 -0.6375  2.0253 -0.4470
  629MOL0     H84873  10.746   2.560   8.993  2.2103  0.8572  4.8772
  629MOL0     H84874  10.901   2.610   9.040 -4.0030 -0.3875  3.8159
  629MOL0     H84875  11.098   2.479   9.039 -0.9905  4.2613  0.0693
  629MOL0     H84876  11.323   2.430   8.989  0.8871  0.6260  0.8526
  629MOL0     H84877  11.628   2.307   8.471  2.5772 -0.2565 -1.9173
  629MOL0     H84878  11.856   2.370   8.417  0.2869  2.3334 -0.8636
  629MOL0     H84879  12.060   2.715   8.581 -2.4969  0.1177  1.1865
  629MOL0     H84880  12.057   2.571   8.681 -1.1179 -3.9616 -1.9003
  629MOL0     H84881  12.238   2.466   8.545  3.9840  0.3925 -0.6250
  629MOL0     H84882  12.237   2.614   8.437 -2.4281  0.3309  0.0689
  629MOL0     H84883  12.293   2.629   8.731  0.4026  0.6019  0.0607
  629MOL0     H84884  12.423   2.586   8.612  0.3675 -1.0111 -0.7587
  629MOL0     H84885  12.254   2.847   8.612 -1.2224 -1.5907  0.8596
  629MOL0     H84886  12.391   2.810   8.501  1.5398  0.7248  0.5663
  629MOL0     H84887  12.440   2.824   8.805  2.5908  1.5502  2.2442
  629MOL0     H84888  12.408   2.964   8.696  0.8735  0.2391 -1.3789
  629MOL0     H84889  12.648   2.781   8.650  1.5164  0.2538 -2.0589
  629MOL0     H84890  12.586   2.914   8.556 -1.3236 -0.9080 -0.3870
  629MOL0     H84891  12.784   2.960   8.728  0.1668 -0.9280 -0.8707
  629MOL0     H84892  12.678   2.943   8.861  0.8339 -0.5992  0.3519
  629MOL0     H84893  12.538   3.140   8.740 -0.3099 -2.3509 -1.0972
  629MOL0     H84894  12.685   3.173   8.810 -2.9129  3.5959 -1.3308
  629MOL0     H84895  11.832   2.739   8.571  4.6715 -2.1787 -0.4214
  629MOL0     H84896  11.590   2.709   8.642  2.2347  1.0608  4.0173
  629MOL0     H84897  11.219   2.477   8.564  3.3746  3.4189  0.9837
  629MOL0     H84898  10.976   2.510   8.640  1.3143 -1.5546 -2.3096
  629MOL0     H84899  11.274   2.060   8.076 -6.6035  1.7262 -1.6696
  629MOL0     H84900  11.080   1.933   8.050 -1.1962  0.4904  0.6608
  629MOL0     H84901  10.884   1.512   8.242 -1.8866 -3.3755  0.7493
  629MOL0     H84902  10.733   1.339   8.218  3.0104 -0.3347 -4.5944
  629MOL0     H84903  10.539   1.207   8.243  0.3183 -0.6823  0.1385
  629MOL0     H84904  10.373   1.199   8.245  1.2036 -1.2080  1.2336
  629MOL0     H84905  10.379   1.404   8.408  0.6381  0.5083  2.1440
  629MOL0     H84906  10.540   1.382   8.434 -0.0364  0.1968  1.5368
  629MOL0     H84907  10.525   1.155   8.523  3.2048  4.8979 -1.8442
  629MOL0     H84908  10.357   1.133   8.455 -1.7856  0.3217  1.0076
  629MOL0     H84909  10.404   1.332   8.666  1.1175 -1.3137  0.0839
  629MOL0     H84910  10.250   1.280   8.590  1.6795  3.1668 -2.7028
  629MOL0     H84911  10.329   0.982   8.878 -0.3416  1.2254  1.4108
  629MOL0     H84912  10.422   1.613   8.124 -0.0029  1.6906 -0.3525
  629MOL0     H84913  10.633   1.892   8.044  0.8348  1.3719  1.0833
  629MOL0     H84914  10.466   1.836   8.072  0.4653 -0.9915 -1.0857
  629MOL0     H84915  10.566   1.893   8.212  3.8212 -0.7212  0.1164
  630MOL0     O84916   3.137   0.644   5.226  0.0054  0.6188 -0.1267
  630MOL0     C84917   3.234   0.619   5.154  0.2975  0.5671  1.3384
  630MOL0     O84918   3.309   0.709   5.085  0.6116 -0.6237  0.0721
  630MOL0     C84919   3.299   0.843   5.121  0.2927  0.6560 -0.1254
  630MOL0     C84920   3.199   0.920   5.076  0.6611  0.1618  0.8630
  630MOL0     C84921   3.200   1.062   5.086  0.4494 -0.0001 -0.9067
  630MOL0     C84922   3.313   1.123   5.136 -0.0690 -0.4010  0.4164
  630MOL0     O84923   3.314   1.262   5.155  0.0767  0.1781 -0.0114
  630MOL0     C84924   3.426   1.346   5.151  0.3048  0.2813  0.2194
  630MOL0     C84925   3.373   1.489   5.149  0.4784  0.9198  0.2709
  630MOL0     C84926   3.245   1.509   5.074  0.2589 -0.2885  0.6610
  630MOL0     C84927   3.185   1.651   5.059  0.2077  0.6207 -0.3985
  630MOL0     C84928   3.080   1.683   5.161 -0.5819  0.0404  0.8346
  630MOL0     C84929   3.008   1.822   5.147  0.4088 -0.0227 -0.2244
  630MOL0     C84930   2.901   1.848   5.253  0.2969 -0.8142 -0.4137
  630MOL0     C84931   2.845   1.985   5.231  0.4631  0.2101 -0.3205
  630MOL0     N84932   2.721   1.976   5.144 -0.3162  0.5821 -0.4219
  630MOL0     C84933   2.708   1.996   5.005  0.3255 -1.6678 -1.3819
  630MOL0     C84934   2.575   1.977   4.976  0.1542  0.6483 -0.9635
  630MOL0     C84935   2.489   2.000   4.852 -1.2526  0.2607  0.3858
  630MOL0     C84936   2.344   1.968   4.855 -0.3708  0.2648  0.6102
  630MOL0     C84937   2.251   2.060   4.917 -0.8079  0.2410  0.1920
  630MOL0     C84938   2.105   2.025   4.908  0.6000 -0.7736 -0.0744
  630MOL0     O84939   2.058   2.044   4.773 -0.6503 -0.4847 -0.0778
  630MOL0     C84940   1.926   2.008   4.753 -0.5210  0.1971  0.5724
  630MOL0     C84941   1.831   1.975   4.854  0.8178 -0.7218  0.3210
  630MOL0     C84942   1.694   1.971   4.832 -0.9132 -0.8153  0.4227
  630MOL0     C84943   1.648   1.977   4.695  0.4281  0.3997 -0.7881
  630MOL0     C84944   1.509   1.984   4.659  0.9179 -0.3271  0.0851
  630MOL0     O84945   1.421   1.968   4.757 -0.2000  0.1516  0.6008
  630MOL0     C84946   1.304   1.906   4.707  0.6049 -0.0276 -0.8288
  630MOL0     C84947   1.187   1.986   4.713 -0.3325  0.1032  0.2239
  630MOL0     C84948   1.070   1.936   4.647  0.1202  0.3191  0.3420
  630MOL0     C84949   1.066   1.815   4.578  0.0001  0.3509  0.0728
  630MOL0     O84950   0.948   1.782   4.507 -0.0188  0.9709 -0.3503
  630MOL0     C84951   0.918   1.634   4.515 -0.5337  0.2223 -0.1143
  630MOL0     C84952   0.767   1.621   4.501 -0.0095 -0.1712  0.7025
  630MOL0     C84953   0.692   1.699   4.606  0.7509 -0.1346 -0.1478
  630MOL0     C84954   0.542   1.671   4.585 -0.5416  0.2300  0.2605
  630MOL0     C84955   0.466   1.762   4.685  0.1528 -0.8439 -0.0871
  630MOL0     C84956   0.315   1.774   4.644  0.6504  0.5947 -0.3313
  630MOL0     C84957   0.240   1.867   4.738 -0.1661  0.0941  0.4137
  630MOL0     C84958   0.185   1.792   4.861 -0.3780 -0.4634 -0.5114
  630MOL0    Cl84959   0.093   1.906   4.971  0.6069 -0.1638  0.2814
  630MOL0     C84960   1.179   1.736   4.583  0.0082 -0.4046 -0.6273
  630MOL0     C84961   1.299   1.773   4.647  0.5977 -0.4482  0.2310
  630MOL0     O84962   1.492   2.004   4.546  0.1750  0.2695  0.7114
  630MOL0     C84963   1.748   2.003   4.599  0.6945 -0.1310  1.0904
  630MOL0     C84964   1.891   2.021   4.626  0.7821  0.5039  0.2161
  630MOL0     N84965   2.510   1.950   5.097  0.3971 -0.0820  0.3420
  630MOL0     N84966   2.597   1.960   5.192  1.2881  0.1671  0.1268
  630MOL0     C84967   3.421   1.049   5.174 -0.3913  0.3332  0.5985
  630MOL0     C84968   3.410   0.910   5.170  0.0706 -0.9131 -0.5238
  630MOL0     C84969   3.261   0.474   5.119  0.1386 -0.1437 -0.7680
  630MOL0     C84970   3.154   0.391   5.121 -0.3465 -0.2383  0.1029
  630MOL0     C84971   3.161   0.270   5.053  0.4304  0.1813  0.2700
  630MOL0     C84972   3.280   0.221   5.007  0.6565 -0.0470 -0.0637
  630MOL0     O84973   3.267   0.100   4.933 -0.2390 -0.1843 -0.1974
  630MOL0     C84974   3.383   0.020   4.904  1.0984  1.0923  0.4611
  630MOL0     C84975   3.349  -0.124   4.870  0.4493 -0.1386  1.4154
  630MOL0     C84976   3.475  -0.206   4.862  0.1462 -0.0810  0.2152
  630MOL0     C84977   3.529  -0.257   4.983 -0.0050  0.6372 -0.1681
  630MOL0     C84978   3.608  -0.146   5.040  0.5465 -0.0639 -1.4056
  630MOL0     C84979   3.681  -0.064   5.077 -0.3299 -1.3378 -0.9473
  630MOL0     C84980   3.395   0.300   5.016 -0.5837  0.1386 -0.6758
  630MOL0     C84981   3.388   0.428   5.078  0.7347  0.2046 -0.6318
  630MOL0     C84982   3.509   0.512   5.100 -1.0446 -0.8198 -0.2902
  630MOL0     H84983   3.114   0.869   5.031  2.4625 -3.0149  0.8276
  630MOL0     H84984   3.124   1.130   5.051  1.1333  1.2069 -0.1181
  630MOL0     H84985   3.508   1.333   5.222  0.2375 -1.4437  0.0244
  630MOL0     H84986   3.478   1.331   5.057 -0.3438  0.6903 -0.2165
  630MOL0     H84987   3.453   1.554   5.111 -1.7005  2.4135 -2.0492
  630MOL0     H84988   3.353   1.515   5.253 -0.3261 -0.7420  0.5608
  630MOL0     H84989   3.161   1.446   5.106 -1.4350  0.6645 -1.6196
  630MOL0     H84990   3.256   1.477   4.969 -0.1733  2.0190 -0.1444
  630MOL0     H84991   3.266   1.724   5.062 -0.5671  1.5093 -0.5397
  630MOL0     H84992   3.133   1.662   4.964  0.2208  2.8890 -0.1890
  630MOL0     H84993   3.005   1.604   5.160  1.1191 -1.6407 -0.3536
  630MOL0     H84994   3.128   1.666   5.258  1.0420  0.7034  0.1767
  630MOL0     H84995   3.081   1.901   5.167 -0.1561  0.9848 -1.8773
  630MOL0     H84996   2.966   1.852   5.050 -0.3011  1.4217  0.4957
  630MOL0     H84997   2.956   1.852   5.347  2.0383 -0.6184 -1.4031
  630MOL0     H84998   2.826   1.769   5.262  0.6149 -0.9128  2.0063
  630MOL0     H84999   2.822   2.028   5.329 -1.7668 -3.9669  1.2178
  630MOL0     H85000   2.910   2.056   5.178  0.4777 -0.3673 -1.0940
  630MOL0     H85001   2.770   2.041   4.927  0.4697 -0.9461 -0.8580
  630MOL0     H85002   2.490   2.104   4.819 -0.4618  0.2464  0.3392
  630MOL0     H85003   2.535   1.939   4.774  4.5150  2.6340  1.3621
  630MOL0     H85004   2.304   1.969   4.754  1.6962  2.9059 -0.2659
  630MOL0     H85005   2.325   1.865   4.887  0.7662 -0.2217 -0.2147
  630MOL0     H85006   2.271   2.161   4.882 -0.2344  0.4160  1.0169
  630MOL0     H85007   2.273   2.062   5.024 -0.8291 -0.0643  0.2047
  630MOL0     H85008   2.048   2.084   4.980 -0.4794 -1.0748 -0.6600
  630MOL0     H85009   2.089   1.918   4.923  0.4716 -0.5729  1.3191
  630MOL0     H85010   1.854   1.957   4.959 -2.4064  1.7578  1.6159
  630MOL0     H85011   1.632   1.976   4.921 -2.0947 -4.2082 -0.0673
  630MOL0     H85012   1.187   2.082   4.763  0.7231  0.7856 -1.0130
  630MOL0     H85013   0.981   1.999   4.644 -0.7328 -0.8918 -0.3787
  630MOL0     H85014   0.967   1.575   4.436  2.0462  0.1354  1.4380
  630MOL0     H85015   0.944   1.601   4.615 -3.1990 -1.6011  0.0586
  630MOL0     H85016   0.751   1.668   4.404  2.6633 -2.6642 -1.1275
  630MOL0     H85017   0.747   1.514   4.487  0.1606  0.0818 -1.9782
  630MOL0     H85018   0.718   1.691   4.712 -1.1264  3.4352  0.7478
  630MOL0     H85019   0.698   1.800   4.566 -2.8869 -1.3191 -4.5748
  630MOL0     H85020   0.521   1.567   4.615  4.0514 -1.0358 -0.1857
  630MOL0     H85021   0.521   1.695   4.481  2.2098  2.0517  0.0412
  630MOL0     H85022   0.516   1.859   4.694  0.3965 -1.0949  1.7042
  630MOL0     H85023   0.486   1.704   4.776 -2.0541  0.8868  1.6064
  630MOL0     H85024   0.309   1.805   4.539  0.5256 -0.8462 -0.7668
  630MOL0     H85025   0.265   1.678   4.661 -1.0969  2.0281  4.2271
  630MOL0     H85026   0.155   1.900   4.679 -0.3948 -0.4350  0.4412
  630MOL0     H85027   0.313   1.936   4.780  2.3587 -2.7558  1.1101
  630MOL0     H85028   0.126   1.703   4.836  0.5826 -1.0126 -0.8458
  630MOL0     H85029   0.265   1.755   4.925  0.4217 -0.3081 -1.3979
  630MOL0     H85030   1.180   1.637   4.539 -0.1062 -1.3373  1.3670
  630MOL0     H85031   1.384   1.706   4.655  2.7170  1.9725 -0.6012
  630MOL0     H85032   1.732   1.999   4.492  1.8818  1.8553  0.7902
  630MOL0     H85033   1.975   2.034   4.559  1.6243  1.8206  1.4624
  630MOL0     H85034   3.518   1.080   5.211  0.5009 -0.5414 -0.9212
  630MOL0     H85035   3.491   0.838   5.180  1.4732  0.2130 -2.8443
  630MOL0     H85036   3.049   0.418   5.131 -0.8902 -2.2519  0.1970
  630MOL0     H85037   3.069   0.219   5.028 -0.8085  1.4608  1.9178
  630MOL0     H85038   3.444   0.014   4.994  1.7115 -0.1954 -0.0222
  630MOL0     H85039   3.441   0.067   4.824 -0.4843 -1.2461 -2.2415
  630MOL0     H85040   3.302  -0.138   4.772  2.0623  1.8158  0.2664
  630MOL0     H85041   3.279  -0.168   4.942 -0.7564 -3.0618 -1.3262
  630MOL0     H85042   3.556  -0.156   4.810 -0.3247  2.1978  1.5173
  630MOL0     H85043   3.436  -0.285   4.798 -0.6239  1.1731 -0.9287
  630MOL0     H85044   3.458  -0.280   5.062 -0.7406  3.2122  0.0262
  630MOL0     H85045   3.594  -0.343   4.968  0.5863  0.8511  1.0539
  630MOL0     H85046   3.738   0.021   5.108 -2.0878 -0.8612  1.2594
  630MOL0     H85047   3.487   0.255   4.979  0.5632  0.9916  0.9995
  630MOL0     H85048   3.512   0.547   5.204  0.4289 -0.1538 -0.5299
  630MOL0     H85049   3.596   0.451   5.073 -0.3526  0.7827 -1.8416
  630MOL0     H85050   3.520   0.602   5.038 -0.7848 -0.9429 -0.4253
  631MOL0     O85051   2.998   0.875   2.249 -0.0515  0.4760 -0.5354
  631MOL0     C85052   3.073   0.963   2.212 -0.0745 -0.1294  0.2505
  631MOL0     O85053   3.089   1.001   2.075  0.3964  0.5458 -0.9072
  631MOL0     C85054   3.078   0.898   1.983  0.2946 -0.4323 -0.1499
  631MOL0     C85055   3.089   0.764   2.003  0.1459  0.3908 -0.0676
  631MOL0     C85056   3.091   0.673   1.898 -0.1412  0.1003  0.0427
  631MOL0     C85057   3.064   0.712   1.774  0.9167  0.0053 -0.6881
  631MOL0     O85058   3.058   0.622   1.671  1.2887 -0.1754  0.4798
  631MOL0     C85059   3.145   0.510   1.667  1.2738 -0.7325 -0.7138
  631MOL0     C85060   3.168   0.465   1.509  0.2615  0.2386  0.1187
  631MOL0     C85061   3.282   0.361   1.498  0.8854 -1.1064  0.4195
  631MOL0     C85062   3.266   0.243   1.586  0.0831  0.2332  0.3404
  631MOL0     C85063   3.390   0.150   1.587 -0.1983  0.3104  0.4767
  631MOL0     C85064   3.370   0.022   1.674 -0.3860 -0.2532 -0.5575
  631MOL0     C85065   3.487  -0.074   1.693  0.2857 -1.0353 -0.5170
  631MOL0     C85066   3.525  -0.130   1.556  0.6846 -0.2088 -0.4590
  631MOL0     N85067   3.620  -0.240   1.567 -0.7017 -0.1517 -0.4221
  631MOL0     C85068   3.750  -0.209   1.601 -0.3784  0.0636  1.3695
  631MOL0     C85069   3.804  -0.329   1.643  0.4050  0.6792  0.3738
  631MOL0     C85070   3.941  -0.362   1.696  0.1289 -0.6224 -0.2076
  631MOL0     C85071   4.005  -0.239   1.770  0.9212  0.8956  0.5723
  631MOL0     C85072   4.106  -0.291   1.867 -0.8161  0.1827 -0.3862
  631MOL0     C85073   4.242  -0.331   1.798  0.4361  0.3493 -0.4807
  631MOL0     O85074   4.339  -0.369   1.897  0.5675 -0.0750  0.4144
  631MOL0     C85075   4.459  -0.297   1.888 -0.3883 -0.8393 -0.3400
  631MOL0     C85076   4.571  -0.357   1.844 -0.7437 -0.3551 -1.1643
  631MOL0     C85077   4.690  -0.281   1.838 -0.4339  0.3833 -0.2166
  631MOL0     C85078   4.696  -0.152   1.890 -0.4955 -0.2626  0.4484
  631MOL0     C85079   4.830  -0.083   1.896  0.5181  0.1287 -0.1539
  631MOL0     O85080   4.945  -0.154   1.872 -0.5697 -0.8005 -0.4901
  631MOL0     C85081   5.060  -0.096   1.925 -0.1436 -1.2818  1.2919
  631MOL0     C85082   5.070  -0.055   2.060 -1.1966 -0.6616  0.2751
  631MOL0     C85083   5.187   0.009   2.103  0.5298 -0.5998  0.1660
  631MOL0     C85084   5.294   0.032   2.019  0.5717 -0.0708  0.2134
  631MOL0     O85085   5.421   0.067   2.062 -0.0185 -0.2267 -0.4168
  631MOL0     C85086   5.421   0.209   2.105 -0.1645 -0.0013 -0.1351
  631MOL0     C85087   5.536   0.238   2.201 -0.6024  0.3092  0.3241
  631MOL0     C85088   5.512   0.170   2.341  1.3354  0.1257 -0.2125
  631MOL0     C85089   5.548   0.258   2.466 -0.4612 -0.2688 -0.4254
  631MOL0     C85090   5.678   0.204   2.527 -0.1611 -0.2503 -0.0513
  631MOL0     C85091   5.724   0.262   2.658  0.9292  0.1285 -0.0003
  631MOL0     C85092   5.849   0.189   2.713 -1.7981  0.1706  0.1085
  631MOL0     C85093   5.820   0.049   2.777  0.5401 -0.0707  0.8689
  631MOL0    Cl85094   5.924   0.025   2.917 -0.3307 -0.3002 -0.6361
  631MOL0     C85095   5.284  -0.011   1.886  0.0984 -0.8892  0.7465
  631MOL0     C85096   5.167  -0.075   1.837  0.0162 -0.2876 -0.2011
  631MOL0     O85097   4.820   0.038   1.912  0.3802 -1.3185 -0.3737
  631MOL0     C85098   4.577  -0.092   1.944  0.1269  0.5185  0.0388
  631MOL0     C85099   4.463  -0.171   1.941 -0.3388  0.8405  0.6603
  631MOL0     N85100   3.704  -0.431   1.617 -0.9678  1.1314  0.6659
  631MOL0     N85101   3.595  -0.374   1.573 -0.3723  0.6599  0.0633
  631MOL0     C85102   3.070   0.850   1.740  0.5564  0.7773 -0.4368
  631MOL0     C85103   3.057   0.944   1.849  0.2455  0.4548  0.0283
  631MOL0     C85104   3.140   1.061   2.306  0.6348  0.3343  0.2100
  631MOL0     C85105   3.150   1.201   2.256 -0.7591  0.1793 -0.0930
  631MOL0     C85106   3.198   1.293   2.351 -0.1946  0.6409  1.2482
  631MOL0     C85107   3.252   1.258   2.471  0.7835 -0.1590 -0.9278
  631MOL0     O85108   3.305   1.361   2.547 -0.1713  0.5468 -0.0665
  631MOL0     C85109   3.245   1.376   2.679  0.5330  0.0091 -0.3345
  631MOL0     C85110   3.314   1.477   2.767  0.3440 -0.1112  0.3251
  631MOL0     C85111   3.223   1.519   2.878 -0.5959 -0.6214 -0.2801
  631MOL0     C85112   3.292   1.599   3.000  0.5726 -0.2109  0.3324
  631MOL0     C85113   3.333   1.741   2.977 -0.2092  1.0390  0.0456
  631MOL0     C85114   3.371   1.855   2.960 -0.1018  0.7486  0.3837
  631MOL0     C85115   3.252   1.123   2.512 -0.0836 -0.9211 -0.8119
  631MOL0     C85116   3.208   1.021   2.419 -0.5778 -0.3822  0.7114
  631MOL0     C85117   3.217   0.870   2.456  0.3625 -0.0800 -1.0168
  631MOL0     H85118   3.092   0.722   2.103 -0.1199  0.7502  0.0963
  631MOL0     H85119   3.109   0.570   1.925  1.2514  0.5144  0.7984
  631MOL0     H85120   3.238   0.536   1.719  1.3709  1.1040 -1.6890
  631MOL0     H85121   3.098   0.426   1.719  0.0569  0.8680  0.8994
  631MOL0     H85122   3.193   0.547   1.442 -3.1273  1.6683  0.4012
  631MOL0     H85123   3.081   0.416   1.465  2.0862 -2.6317 -0.5339
  631MOL0     H85124   3.362   0.428   1.531  1.2671 -1.2153 -0.2674
  631MOL0     H85125   3.301   0.327   1.396  1.5788 -2.2462  0.9000
  631MOL0     H85126   3.246   0.268   1.691  0.9829 -0.2067  0.6356
  631MOL0     H85127   3.179   0.192   1.544 -0.4617  1.5363 -0.1286
  631MOL0     H85128   3.427   0.118   1.489  1.5329  0.1025  1.1589
  631MOL0     H85129   3.474   0.202   1.633 -0.2973  1.3761 -0.5142
  631MOL0     H85130   3.337   0.051   1.774  1.3733  0.0413 -0.0218
  631MOL0     H85131   3.285  -0.031   1.630 -0.1617  1.0760 -2.7227
  631MOL0     H85132   3.456  -0.147   1.768  1.4929 -0.6023  0.4407
  631MOL0     H85133   3.572  -0.022   1.738 -1.5526  0.7450  1.0758
  631MOL0     H85134   3.442  -0.179   1.504 -0.4477 -0.9024  1.8453
  631MOL0     H85135   3.567  -0.043   1.503 -0.9751  0.0060 -1.5121
  631MOL0     H85136   3.809  -0.118   1.591 -1.8265  0.7999 -1.4460
  631MOL0     H85137   3.927  -0.450   1.760  0.4289 -1.3683 -1.1456
  631MOL0     H85138   4.007  -0.390   1.613  0.5008  0.8632 -0.4431
  631MOL0     H85139   4.052  -0.169   1.700 -0.0194  2.3313  1.3365
  631MOL0     H85140   3.927  -0.189   1.827 -0.7885  0.6239 -1.4252
  631MOL0     H85141   4.065  -0.380   1.914 -0.0801 -0.3109 -0.6540
  631MOL0     H85142   4.120  -0.221   1.950  1.7509 -1.0358  0.3375
  631MOL0     H85143   4.274  -0.252   1.729  0.5944 -1.1014 -2.1667
  631MOL0     H85144   4.232  -0.424   1.741 -0.3541 -0.3391  0.7468
  631MOL0     H85145   4.575  -0.454   1.797 -0.5302 -0.1775 -1.5202
  631MOL0     H85146   4.770  -0.314   1.774  0.1874  3.1828 -1.0103
  631MOL0     H85147   4.982  -0.063   2.122 -0.7416 -1.2153  0.8613
  631MOL0     H85148   5.210   0.042   2.204 -0.8314  0.4780  0.1598
  631MOL0     H85149   5.443   0.265   2.014  0.6895 -1.4779 -0.8881
  631MOL0     H85150   5.321   0.233   2.142 -0.4101 -2.9276  1.4793
  631MOL0     H85151   5.630   0.199   2.162 -1.0232 -0.8218  0.3819
  631MOL0     H85152   5.549   0.345   2.216 -0.3034  0.2018  0.8911
  631MOL0     H85153   5.404   0.151   2.352  1.7156 -1.9358  0.5277
  631MOL0     H85154   5.555   0.070   2.353  0.9139 -0.0954 -0.5031
  631MOL0     H85155   5.463   0.249   2.535  1.3203 -0.7173  1.8108
  631MOL0     H85156   5.541   0.362   2.433 -0.2208  0.7918  2.5847
  631MOL0     H85157   5.757   0.209   2.452  2.0826 -2.7914  1.9296
  631MOL0     H85158   5.655   0.098   2.538 -0.4453 -0.1213  0.6506
  631MOL0     H85159   5.746   0.368   2.642  2.0897 -0.4077 -2.3335
  631MOL0     H85160   5.648   0.238   2.733  0.9201 -6.5370 -1.5156
  631MOL0     H85161   5.887   0.246   2.799  2.0074 -0.5105 -0.9523
  631MOL0     H85162   5.928   0.193   2.638 -3.3099 -0.3493 -1.5921
  631MOL0     H85163   5.713   0.028   2.790  0.4833 -0.3932 -0.0103
  631MOL0     H85164   5.849  -0.022   2.699 -1.2942 -1.9531  1.7742
  631MOL0     H85165   5.368   0.001   1.818 -0.0568 -1.7412  0.4005
  631MOL0     H85166   5.182  -0.116   1.738 -2.8537 -0.1702 -0.7735
  631MOL0     H85167   4.569   0.004   1.993 -1.0954  0.4641 -0.0195
  631MOL0     H85168   4.366  -0.130   1.967 -1.7541 -2.3745  0.8834
  631MOL0     H85169   3.061   0.862   1.632  4.4735 -1.7026 -1.2338
  631MOL0     H85170   3.043   1.046   1.813 -2.3290 -0.2902 -1.3401
  631MOL0     H85171   3.110   1.235   2.161 -2.8128 -0.3083  0.5503
  631MOL0     H85172   3.190   1.395   2.313 -1.7215  0.1213  0.0713
  631MOL0     H85173   3.243   1.276   2.722 -0.3459 -1.6267 -3.8057
  631MOL0     H85174   3.142   1.411   2.669  1.5366  4.0620  1.1537
  631MOL0     H85175   3.334   1.562   2.702 -0.6231  0.5060  0.8179
  631MOL0     H85176   3.409   1.437   2.804  0.6265 -0.1846 -0.4580
  631MOL0     H85177   3.168   1.436   2.924 -1.7018 -0.8901 -2.0305
  631MOL0     H85178   3.147   1.579   2.830  0.5474  0.1776 -1.1421
  631MOL0     H85179   3.215   1.600   3.077  0.3314 -0.7859  0.1041
  631MOL0     H85180   3.371   1.535   3.040 -0.2474 -0.6754  1.2344
  631MOL0     H85181   3.414   1.945   2.921 -2.5643  2.3667  1.2227
  631MOL0     H85182   3.286   1.100   2.613 -1.6735 -0.5546 -0.1554
  631MOL0     H85183   3.124   0.846   2.508 -0.1037  3.3171 -0.0170
  631MOL0     H85184   3.219   0.809   2.364 -4.9260 -1.2712 -0.6911
  631MOL0     H85185   3.299   0.853   2.526  0.1384  1.1825 -0.4175
  632MOL0     O85186   2.018   0.083   7.428  0.8925  0.6270  0.4412
  632MOL0     C85187   1.896   0.061   7.411  0.4888 -1.3397  0.1461
  632MOL0     O85188   1.815  -0.041   7.477 -0.4566  0.2673  0.3228
  632MOL0     C85189   1.878  -0.121   7.569 -0.4222 -0.1722 -0.3886
  632MOL0     C85190   1.830  -0.114   7.696 -1.4112  0.4912  0.1569
  632MOL0     C85191   1.890  -0.192   7.792 -0.0625 -0.3603 -0.4687
  632MOL0     C85192   2.011  -0.269   7.760  0.5676 -0.9763  0.0311
  632MOL0     O85193   2.077  -0.328   7.862 -0.6356 -0.0952 -0.0142
  632MOL0     C85194   2.141  -0.456   7.832 -0.3736  0.3486  0.7599
  632MOL0     C85195   2.112  -0.551   7.952  0.6329  0.9810  0.0063
  632MOL0     C85196   2.154  -0.701   7.914 -0.2367 -0.4939  0.3244
  632MOL0     C85197   2.109  -0.806   8.012 -0.7303 -0.5423  0.4420
  632MOL0     C85198   2.175  -0.938   8.014 -0.0308 -0.6589 -0.4387
  632MOL0     C85199   2.319  -0.936   8.053  0.0337 -0.1236 -0.9235
  632MOL0     C85200   2.385  -1.074   8.064 -0.2526  0.1972 -0.7866
  632MOL0     C85201   2.537  -1.063   8.092  0.1619 -0.0498  0.0447
  632MOL0     N85202   2.578  -1.176   8.169  0.0346 -0.3180 -0.2237
  632MOL0     C85203   2.561  -1.193   8.309 -0.4237 -0.5824 -0.3879
  632MOL0     C85204   2.610  -1.319   8.331  0.3812 -0.1075 -1.4809
  632MOL0     C85205   2.624  -1.388   8.460  0.0940  0.1771 -0.2171
  632MOL0     C85206   2.769  -1.378   8.507  0.1462 -0.0048 -0.9103
  632MOL0     C85207   2.782  -1.331   8.649 -0.6519 -0.4644 -0.8277
  632MOL0     C85208   2.857  -1.439   8.749  0.6638  0.2584  0.5060
  632MOL0     O85209   2.763  -1.558   8.769 -0.3541 -0.8777 -0.7479
  632MOL0     C85210   2.791  -1.641   8.875  0.3074  0.0539  0.1530
  632MOL0     C85211   2.919  -1.661   8.922 -1.1745  1.1279 -0.2022
  632MOL0     C85212   2.947  -1.746   9.036 -0.4672 -0.7896  0.1988
  632MOL0     C85213   2.835  -1.790   9.110 -0.2104  0.9034 -0.5837
  632MOL0     C85214   2.843  -1.834   9.255 -0.4146  0.2252 -0.3953
  632MOL0     O85215   2.725  -1.871   9.327 -0.2549  0.9280  0.9834
  632MOL0     C85216   2.735  -1.894   9.469 -0.4842 -0.8486  0.6476
  632MOL0     C85217   2.785  -1.792   9.553 -0.1779  0.6476  0.6153
  632MOL0     C85218   2.791  -1.817   9.686 -0.0823  0.7129 -0.9369
  632MOL0     C85219   2.763  -1.946   9.739  0.4976 -1.1107  0.1948
  632MOL0     O85220   2.766  -1.978   9.871  0.2504  0.2451 -0.7311
  632MOL0     C85221   2.885  -1.970   9.940  0.4191 -0.0875  0.4021
  632MOL0     C85222   2.856  -2.013  10.088  0.6664  0.0784  0.2453
  632MOL0     C85223   2.754  -2.129  10.102  0.4105 -0.2925 -0.6364
  632MOL0     C85224   2.767  -2.196  10.234  0.0394  1.0447 -0.1932
  632MOL0     C85225   2.672  -2.321  10.257 -0.0844  0.2569  0.1046
  632MOL0     C85226   2.667  -2.372  10.404  0.2632 -1.3612 -0.7412
  632MOL0     C85227   2.596  -2.260  10.490  0.0895 -0.5514 -0.2522
  632MOL0     C85228   2.474  -2.289  10.567 -1.3899  0.2032 -1.1439
  632MOL0    Cl85229   2.329  -2.340  10.470  0.2182  0.0620  0.3088
  632MOL0     C85230   2.726  -2.047   9.655 -0.7672 -0.4764  0.5468
  632MOL0     C85231   2.711  -2.017   9.519  0.5588 -0.9550  0.2144
  632MOL0     O85232   2.956  -1.827   9.302 -0.2592 -0.0361  0.0174
  632MOL0     C85233   2.706  -1.776   9.049 -0.1357  0.3424  0.3275
  632MOL0     C85234   2.679  -1.698   8.938  0.0236  0.2869 -0.0836
  632MOL0     N85235   2.666  -1.371   8.219  0.0602 -0.2716 -0.0987
  632MOL0     N85236   2.642  -1.288   8.122  0.3467 -0.4328  0.1456
  632MOL0     C85237   2.054  -0.265   7.631 -0.3046 -0.0682 -1.0257
  632MOL0     C85238   1.991  -0.189   7.537  0.7873  0.4958 -0.2438
  632MOL0     C85239   1.829   0.141   7.303 -0.2214 -0.6573  0.3438
  632MOL0     C85240   1.754   0.072   7.206  0.1093  0.5037  0.2455
  632MOL0     C85241   1.672   0.131   7.102 -0.5452 -1.1508  0.0309
  632MOL0     C85242   1.682   0.272   7.101 -0.1327  1.2032 -0.5388
  632MOL0     O85243   1.602   0.353   7.021  0.0939  0.1481  0.3628
  632MOL0     C85244   1.529   0.301   6.911  0.6114 -0.0488 -0.6261
  632MOL0     C85245   1.442   0.411   6.842 -0.9203  1.0106  0.1415
  632MOL0     C85246   1.523   0.531   6.811 -0.9514  0.0247 -0.8573
  632MOL0     C85247   1.447   0.623   6.733  1.3487 -1.0264  0.5083
  632MOL0     C85248   1.527   0.734   6.674  0.7096 -1.8491  1.0958
  632MOL0     C85249   1.597   0.813   6.612  0.1117 -0.2042 -0.1111
  632MOL0     C85250   1.742   0.341   7.197 -0.0257 -0.3345  0.4737
  632MOL0     C85251   1.815   0.277   7.302  0.0886 -0.1430  0.5791
  632MOL0     C85252   1.872   0.366   7.414 -0.1876  0.3938 -0.3725
  632MOL0     H85253   1.738  -0.059   7.709 -1.7591  0.1841 -0.9014
  632MOL0     H85254   1.861  -0.206   7.896  2.4434 -1.8216  0.1419
  632MOL0     H85255   2.088  -0.505   7.750 -0.4589  0.1865  0.9126
  632MOL0     H85256   2.248  -0.444   7.810  0.0187 -0.0696  2.3271
  632MOL0     H85257   2.004  -0.549   7.971 -0.5247 -0.0500 -5.0732
  632MOL0     H85258   2.167  -0.522   8.042 -0.7756  1.1989  0.8264
  632MOL0     H85259   2.262  -0.716   7.904 -0.5755 -2.9535 -0.2533
  632MOL0     H85260   2.125  -0.721   7.811 -4.0219 -3.4155  1.7119
  632MOL0     H85261   2.130  -0.761   8.110  0.9574  1.3921 -0.6985
  632MOL0     H85262   2.000  -0.810   8.012 -0.7112 -1.2163  0.0553
  632MOL0     H85263   2.130  -1.001   8.091 -1.7857 -0.3631 -1.1788
  632MOL0     H85264   2.159  -0.982   7.915  0.1820  1.4072 -1.4453
  632MOL0     H85265   2.373  -0.868   7.987 -0.9745  3.5580  1.7208
  632MOL0     H85266   2.324  -0.877   8.145  6.1926  2.8320 -2.6306
  632MOL0     H85267   2.368  -1.129   7.971 -1.2826 -2.0837  0.6779
  632MOL0     H85268   2.333  -1.129   8.143  1.2039 -1.7771 -1.1488
  632MOL0     H85269   2.592  -1.067   7.997  0.8133  1.4174  0.3211
  632MOL0     H85270   2.561  -0.969   8.143 -2.6127  0.0808  1.2845
  632MOL0     H85271   2.505  -1.128   8.375 -2.8524 -2.0105 -0.9432
  632MOL0     H85272   2.558  -1.330   8.525  1.1900  1.2232 -0.0154
  632MOL0     H85273   2.595  -1.493   8.449  1.8468 -0.1352 -2.3035
  632MOL0     H85274   2.797  -1.483   8.501 -0.2571 -0.0396 -3.9603
  632MOL0     H85275   2.825  -1.319   8.433  0.3988 -2.9321 -3.2174
  632MOL0     H85276   2.683  -1.307   8.689  0.3568  1.1689  0.8477
  632MOL0     H85277   2.837  -1.236   8.651  0.3108 -1.0094 -0.6439
  632MOL0     H85278   2.879  -1.377   8.836  1.4657  0.4872  0.1448
  632MOL0     H85279   2.953  -1.471   8.707 -0.4213 -1.1734 -1.0340
  632MOL0     H85280   2.999  -1.614   8.865 -1.2547  4.3021  2.0680
  632MOL0     H85281   3.049  -1.763   9.069 -0.5068  1.4127  1.6671
  632MOL0     H85282   2.805  -1.688   9.529  2.6755 -0.0252 -0.3831
  632MOL0     H85283   2.803  -1.741   9.762 -2.9334  0.7107 -0.3883
  632MOL0     H85284   2.956  -2.039   9.894 -1.0810  0.0095 -2.2198
  632MOL0     H85285   2.924  -1.869   9.929 -0.0559 -0.2037 -4.3425
  632MOL0     H85286   2.952  -2.051  10.122  2.3075 -1.8909 -5.4631
  632MOL0     H85287   2.822  -1.925  10.143  2.7184  0.2107  1.3770
  632MOL0     H85288   2.653  -2.087  10.107  0.1022 -1.1092  3.5759
  632MOL0     H85289   2.747  -2.194  10.014 -1.1521  2.4295 -2.6968
  632MOL0     H85290   2.743  -2.115  10.303 -0.1870  2.0698 -1.4327
  632MOL0     H85291   2.872  -2.223  10.250 -0.6223 -1.6100  0.2333
  632MOL0     H85292   2.710  -2.398  10.189  2.4262  1.7266 -0.2527
  632MOL0     H85293   2.576  -2.293  10.212  0.5532  2.8725  0.1984
  632MOL0     H85294   2.617  -2.469  10.403 -1.8520 -0.3341 -0.7352
  632MOL0     H85295   2.769  -2.375  10.442  0.0561  1.1860  0.2029
  632MOL0     H85296   2.573  -2.176  10.423 -0.3986 -0.7295 -0.3119
  632MOL0     H85297   2.663  -2.213  10.563 -2.0450  2.1970  0.1083
  632MOL0     H85298   2.490  -2.368  10.642 -2.0733 -1.1466 -2.3715
  632MOL0     H85299   2.446  -2.201  10.626 -0.0605 -0.6708  0.9093
  632MOL0     H85300   2.720  -2.151   9.684 -1.5031 -3.0668 -6.8055
  632MOL0     H85301   2.687  -2.092   9.444  3.3792 -2.1926  0.4320
  632MOL0     H85302   2.622  -1.814   9.107  2.3585 -1.9565  2.7263
  632MOL0     H85303   2.584  -1.674   8.891 -0.4861  2.2821  1.8049
  632MOL0     H85304   2.143  -0.322   7.607  0.0809 -1.2911  2.7334
  632MOL0     H85305   2.039  -0.182   7.440  1.3079  6.3764  0.1028
  632MOL0     H85306   1.746  -0.036   7.208 -0.5277  0.5448  1.8303
  632MOL0     H85307   1.618   0.065   7.035 -0.1827 -0.2920 -1.1260
  632MOL0     H85308   1.460   0.224   6.946  0.5471 -0.2054 -1.0879
  632MOL0     H85309   1.586   0.260   6.827  0.4925 -3.3448  0.7358
  632MOL0     H85310   1.360   0.434   6.911 -0.1838  0.0743  1.3774
  632MOL0     H85311   1.398   0.370   6.751  0.5288  2.2557 -1.1659
  632MOL0     H85312   1.612   0.496   6.757  0.8301  3.7703 -0.7097
  632MOL0     H85313   1.575   0.577   6.896 -0.9471 -0.7746 -0.4168
  632MOL0     H85314   1.396   0.583   6.645 -1.2165  2.1618  0.3805
  632MOL0     H85315   1.368   0.659   6.800 -1.7784 -0.9907 -2.8804
  632MOL0     H85316   1.650   0.885   6.552  1.2322 -0.1753  0.8913
  632MOL0     H85317   1.746   0.449   7.205  2.2223 -0.3957  0.9371
  632MOL0     H85318   1.850   0.473   7.406  1.9409  0.8373 -1.1511
  632MOL0     H85319   1.826   0.334   7.508  0.1411  2.8378  0.6780
  632MOL0     H85320   1.982   0.364   7.410 -0.1146  0.1126  1.1211
  633MOL0     O85321   1.231   9.131   7.090 -0.7923  0.6994 -0.4153
  633MOL0     C85322   1.200   9.081   6.980 -1.0631 -0.3015 -0.3910
  633MOL0     O85323   1.115   8.983   6.970  0.7948  0.4332  0.5151
  633MOL0     C85324   1.065   8.917   7.081 -0.6465 -0.3543  0.2291
  633MOL0     C85325   1.064   8.780   7.087 -0.2550  0.0622  0.5385
  633MOL0     C85326   1.012   8.705   7.187 -0.7151 -0.9888 -0.1309
  633MOL0     C85327   0.950   8.779   7.289 -0.0555  0.8778 -0.3110
  633MOL0     O85328   0.890   8.729   7.406 -0.8561 -0.3242  0.3045
  633MOL0     C85329   0.840   8.598   7.408  1.0102  0.0062  0.6430
  633MOL0     C85330   0.696   8.600   7.355 -0.5110  0.3436 -0.9368
  633MOL0     C85331   0.607   8.712   7.420  0.0688 -0.2357  0.4059
  633MOL0     C85332   0.596   8.698   7.576  0.3356  0.9006 -0.4529
  633MOL0     C85333   0.518   8.807   7.638  0.0980  0.1076  0.3372
  633MOL0     C85334   0.363   8.788   7.602 -0.3388 -0.1065  1.1215
  633MOL0     C85335   0.296   8.877   7.708 -0.4255 -0.4219  0.0082
  633MOL0     C85336   0.254   8.790   7.822  0.3263 -0.5702  0.2325
  633MOL0     N85337   0.163   8.864   7.915 -1.5511  0.4767 -0.7225
  633MOL0     C85338   0.024   8.869   7.895  0.0306 -0.5156  0.6263
  633MOL0     C85339  -0.019   8.971   7.975 -0.7046  0.0857 -0.0269
  633MOL0     C85340  -0.154   9.039   7.975 -0.2893  0.2425 -0.6282
  633MOL0     C85341  -0.206   9.082   7.839 -0.4103 -0.9849 -0.2570
  633MOL0     C85342  -0.287   9.221   7.834  0.2707  0.3658  0.0345
  633MOL0     C85343  -0.401   9.210   7.937  0.6299  0.0366 -0.3238
  633MOL0     O85344  -0.514   9.293   7.896  0.1263 -0.2424 -0.6687
  633MOL0     C85345  -0.598   9.250   7.803  0.0502  0.9045 -0.0044
  633MOL0     C85346  -0.694   9.337   7.758 -0.5097 -0.5239  0.3319
  633MOL0     C85347  -0.773   9.304   7.649 -0.2198  1.3646 -0.1472
  633MOL0     C85348  -0.768   9.192   7.577 -0.7788  0.2607 -0.1971
  633MOL0     C85349  -0.865   9.158   7.469  0.4586 -0.4168  0.0766
  633MOL0     O85350  -0.858   9.031   7.417  0.0073 -0.5243  0.6882
  633MOL0     C85351  -0.943   8.997   7.321 -0.2334 -0.1610  0.4368
  633MOL0     C85352  -1.062   8.919   7.347 -0.3683 -0.8460 -0.9217
  633MOL0     C85353  -1.133   8.872   7.238  0.7715  0.2586 -0.2716
  633MOL0     C85354  -1.110   8.918   7.104  0.3295  0.4621  0.1155
  633MOL0     O85355  -1.202   8.875   7.017  0.0267 -0.3756 -0.5879
  633MOL0     C85356  -1.173   8.896   6.882 -1.5352 -0.0062 -0.8422
  633MOL0     C85357  -1.269   8.830   6.788 -0.3407  0.7686  0.9820
  633MOL0     C85358  -1.225   8.833   6.635 -0.3032 -0.1670 -0.5681
  633MOL0     C85359  -1.141   8.717   6.600 -0.3036 -1.0916  0.1512
  633MOL0     C85360  -1.109   8.728   6.450  0.3385 -0.0606  0.2707
  633MOL0     C85361  -0.998   8.629   6.418  0.0458 -0.4950  1.2741
  633MOL0     C85362  -1.007   8.614   6.264 -0.0522 -0.7227  0.5219
  633MOL0     C85363  -0.930   8.480   6.223 -0.4392  0.2020 -1.1792
  633MOL0    Cl85364  -0.926   8.474   6.046 -0.0234  0.0465 -0.0004
  633MOL0     C85365  -1.007   9.008   7.075 -0.2781  0.9059 -0.6540
  633MOL0     C85366  -0.930   9.045   7.187  0.3389 -0.8297 -0.4195
  633MOL0     O85367  -0.957   9.234   7.445  0.3987 -0.2390  0.8703
  633MOL0     C85368  -0.677   9.092   7.634  0.5869 -0.2040  0.1344
  633MOL0     C85369  -0.591   9.116   7.734 -0.4977  0.1164 -1.0845
  633MOL0     N85370   0.093   9.016   8.048  0.1947  0.6695  0.8839
  633MOL0     N85371   0.203   8.953   8.016 -0.0034  0.7754  0.4280
  633MOL0     C85372   0.949   8.920   7.288 -0.0415 -0.8468  0.3254
  633MOL0     C85373   0.997   8.996   7.182  0.1054  0.6144  0.8454
  633MOL0     C85374   1.279   9.121   6.859  0.1659  0.6268  0.5645
  633MOL0     C85375   1.203   9.129   6.735  0.7943  0.6233 -0.1216
  633MOL0     C85376   1.250   9.181   6.621 -0.0644 -1.3634 -0.4446
  633MOL0     C85377   1.387   9.228   6.615  0.0486  0.0779 -1.0757
  633MOL0     O85378   1.447   9.275   6.507  0.8074 -0.1836 -0.3084
  633MOL0     C85379   1.387   9.373   6.431 -0.9449 -0.5941 -0.1389
  633MOL0     C85380   1.453   9.387   6.298  0.2684  0.2117  0.7599
  633MOL0     C85381   1.431   9.531   6.248 -0.8688 -0.9299  0.0984
  633MOL0     C85382   1.297   9.552   6.179  1.0484  0.3657 -0.1590
  633MOL0     C85383   1.263   9.695   6.162 -0.4289  1.1301  0.1485
  633MOL0     C85384   1.235   9.812   6.142  0.7303  0.1921  0.3680
  633MOL0     C85385   1.462   9.226   6.732  1.0208  0.1256  0.7609
  633MOL0     C85386   1.414   9.171   6.853 -0.4315  0.2081 -0.1139
  633MOL0     C85387   1.521   9.159   6.956 -0.8703 -0.2787  0.1200
  633MOL0     H85388   1.115   8.729   7.006 -1.7841  0.4476 -0.7174
  633MOL0     H85389   1.016   8.598   7.169  0.0640 -0.6260 -2.3745
  633MOL0     H85390   0.910   8.534   7.353  0.8209 -0.3810  0.8496
  633MOL0     H85391   0.842   8.572   7.514 -2.3127  1.9330  1.3334
  633MOL0     H85392   0.651   8.502   7.369  0.3144  0.2553  1.6739
  633MOL0     H85393   0.711   8.631   7.251  3.5627  0.8953 -0.3725
  633MOL0     H85394   0.508   8.710   7.373 -0.5437 -1.4048  1.6719
  633MOL0     H85395   0.645   8.809   7.388  3.4224 -2.2200 -2.2527
  633MOL0     H85396   0.549   8.604   7.605 -0.5064 -0.2947 -4.9665
  633MOL0     H85397   0.696   8.709   7.619 -0.0322  2.2301  0.1287
  633MOL0     H85398   0.523   8.801   7.747 -4.8620  3.1687  1.0495
  633MOL0     H85399   0.554   8.909   7.617 -3.8021  1.8243  1.1322
  633MOL0     H85400   0.345   8.838   7.506  1.8969 -0.9629  0.1738
  633MOL0     H85401   0.315   8.689   7.598  1.0616 -0.8409 -2.9665
  633MOL0     H85402   0.213   8.928   7.659  0.6324  1.4954  0.1255
  633MOL0     H85403   0.353   8.959   7.753 -2.0443  1.2801 -0.9066
  633MOL0     H85404   0.188   8.710   7.787 -3.7588  1.4998  2.4628
  633MOL0     H85405   0.337   8.754   7.884 -0.6863 -2.1256  0.7610
  633MOL0     H85406  -0.024   8.806   7.822  0.0293 -0.3282  0.4653
  633MOL0     H85407  -0.224   8.969   8.023  1.0819  0.9836  2.7325
  633MOL0     H85408  -0.140   9.124   8.042  1.9160 -0.8692  0.4353
  633MOL0     H85409  -0.124   9.108   7.772 -2.0569  0.9006 -1.6818
  633MOL0     H85410  -0.259   9.001   7.787  3.3875 -2.3030 -2.4312
  633MOL0     H85411  -0.319   9.237   7.731  1.8629  0.0007 -0.5523
  633MOL0     H85412  -0.212   9.291   7.870 -0.3183  0.5621  0.9001
  633MOL0     H85413  -0.365   9.243   8.035  1.4713 -1.1931 -0.1978
  633MOL0     H85414  -0.426   9.104   7.946 -0.7548  0.2310 -1.5398
  633MOL0     H85415  -0.699   9.442   7.785  1.7906 -0.2872  0.0272
  633MOL0     H85416  -0.839   9.379   7.607  0.5332  0.5511 -2.9686
  633MOL0     H85417  -1.088   8.868   7.440 -0.0932 -1.2513 -1.0626
  633MOL0     H85418  -1.217   8.812   7.271 -0.3356  2.7580  1.8761
  633MOL0     H85419  -1.185   9.003   6.865 -2.1038  0.2190  0.7866
  633MOL0     H85420  -1.073   8.854   6.866 -0.9514  0.0896  1.9599
  633MOL0     H85421  -1.282   8.724   6.811 -0.0759  0.3057 -0.8233
  633MOL0     H85422  -1.367   8.876   6.798 -1.9331 -2.4732  1.5710
  633MOL0     H85423  -1.317   8.827   6.577 -0.4674  1.1662 -0.4703
  633MOL0     H85424  -1.172   8.928   6.628 -0.9184  0.3190  1.0164
  633MOL0     H85425  -1.190   8.621   6.619 -0.7930 -1.2336 -1.6149
  633MOL0     H85426  -1.056   8.719   6.668 -0.3619 -2.3469  0.2788
  633MOL0     H85427  -1.076   8.824   6.410  0.7873  0.5484  1.9990
  633MOL0     H85428  -1.207   8.712   6.405 -0.0913  1.1913  0.7125
  633MOL0     H85429  -0.897   8.666   6.437  0.2042  2.2562 -3.4272
  633MOL0     H85430  -1.022   8.533   6.465 -2.0870 -0.2273  0.8215
  633MOL0     H85431  -0.958   8.701   6.218  2.5698 -1.1339  2.3223
  633MOL0     H85432  -1.109   8.606   6.225  0.2730 -0.5241 -0.3937
  633MOL0     H85433  -0.825   8.478   6.252 -0.8403 -0.3684  0.3319
  633MOL0     H85434  -0.977   8.397   6.276  1.7376 -1.0166 -1.0397
  633MOL0     H85435  -0.985   9.047   6.976  1.5115 -0.3556 -0.7984
  633MOL0     H85436  -0.849   9.114   7.168 -0.1755 -0.6099 -1.9174
  633MOL0     H85437  -0.673   8.987   7.605  1.9315 -0.6270  1.6440
  633MOL0     H85438  -0.514   9.040   7.745 -1.0598 -0.5907 -1.8643
  633MOL0     H85439   0.917   8.965   7.382  1.4722 -0.9145  0.8982
  633MOL0     H85440   1.011   9.104   7.174  1.6731  0.3195 -1.3358
  633MOL0     H85441   1.107   9.078   6.734  2.5684 -3.0170 -0.4127
  633MOL0     H85442   1.187   9.200   6.534  1.3206  3.3926 -0.6819
  633MOL0     H85443   1.403   9.470   6.478  0.1765  1.1120 -3.6517
  633MOL0     H85444   1.279   9.366   6.420 -1.1312 -1.4325  1.9207
  633MOL0     H85445   1.408   9.311   6.233  0.2891  0.7544  0.1050
  633MOL0     H85446   1.557   9.357   6.314  0.2145 -2.1732 -2.2654
  633MOL0     H85447   1.518   9.543   6.184 -0.6260 -0.7713  0.4571
  633MOL0     H85448   1.444   9.604   6.329 -1.9304 -1.5776  0.8853
  633MOL0     H85449   1.289   9.509   6.079 -0.7157 -1.0070  0.5235
  633MOL0     H85450   1.224   9.504   6.245  1.1690 -0.1331 -0.3903
  633MOL0     H85451   1.214   9.916   6.130 -2.5195 -0.4536 -0.4487
  633MOL0     H85452   1.558   9.272   6.713  0.9179  1.5738  3.2217
  633MOL0     H85453   1.613   9.211   6.928 -2.2823  0.8939 -2.6912
  633MOL0     H85454   1.481   9.211   7.044  1.3454  1.9411 -0.0852
  633MOL0     H85455   1.534   9.053   6.982  1.4950  0.3169  1.6554
  634MOL0     O85456   7.476   2.657   4.874  0.2440 -0.2438 -0.3709
  634MOL0     C85457   7.580   2.626   4.813 -0.5880 -0.7806 -0.2207
  634MOL0     O85458   7.706   2.658   4.853  0.3104 -0.0182  0.3932
  634MOL0     C85459   7.731   2.711   4.979  0.1463  1.4557 -0.4412
  634MOL0     C85460   7.670   2.662   5.106  0.0904  0.0552  0.7072
  634MOL0     C85461   7.703   2.727   5.223  0.6622 -0.8025  0.4973
  634MOL0     C85462   7.790   2.831   5.230  0.1481 -0.4541  0.1543
  634MOL0     O85463   7.815   2.882   5.357 -0.2024 -0.3440  0.3557
  634MOL0     C85464   7.913   2.978   5.381 -0.4094  0.4017  0.1005
  634MOL0     C85465   7.882   3.000   5.532 -0.3945  0.8193  0.3143
  634MOL0     C85466   7.913   3.146   5.575  0.5011  1.2183  0.0657
  634MOL0     C85467   7.860   3.173   5.726  1.0092  0.5497 -0.0589
  634MOL0     C85468   7.879   3.320   5.778 -0.2682  0.2040  0.2729
  634MOL0     C85469   7.903   3.335   5.928  0.8364 -0.1736  0.5823
  634MOL0     C85470   7.802   3.256   6.010  0.4203  0.7008  0.1915
  634MOL0     C85471   7.794   3.277   6.161 -0.1953 -0.4174 -0.2328
  634MOL0     N85472   7.741   3.417   6.189  0.4852 -0.7262  0.3584
  634MOL0     C85473   7.605   3.438   6.199  0.0501  0.0016 -0.3365
  634MOL0     C85474   7.604   3.561   6.257 -0.6524  0.5139 -0.0212
  634MOL0     C85475   7.481   3.631   6.310 -0.2732 -0.6423  0.2225
  634MOL0     C85476   7.475   3.774   6.260  0.3155  0.5856  0.4482
  634MOL0     C85477   7.426   3.806   6.108 -0.7485  0.1782 -0.5771
  634MOL0     C85478   7.493   3.926   6.044 -0.0390  0.4009 -0.6466
  634MOL0     O85479   7.490   4.041   6.131  0.5527 -0.1311 -0.0600
  634MOL0     C85480   7.539   4.160   6.073  0.6367  0.1239  0.4218
  634MOL0     C85481   7.557   4.189   5.935 -0.4205 -0.2931  0.4062
  634MOL0     C85482   7.616   4.305   5.888 -0.4869 -0.3619  0.4800
  634MOL0     C85483   7.673   4.396   5.978  0.6460 -0.2783  0.4395
  634MOL0     C85484   7.743   4.519   5.924  0.0836 -0.0962 -0.3755
  634MOL0     O85485   7.764   4.613   6.008  0.3561  0.1010 -0.2442
  634MOL0     C85486   7.839   4.724   5.987 -0.8340  0.0524 -0.7978
  634MOL0     C85487   7.801   4.830   6.069  1.1032 -0.6533  0.6664
  634MOL0     C85488   7.879   4.950   6.071 -0.0442  0.1360 -1.0439
  634MOL0     C85489   7.991   4.964   5.989  0.9231 -0.1253 -1.0990
  634MOL0     O85490   8.061   5.080   5.983  0.2434 -0.0483  0.7766
  634MOL0     C85491   8.201   5.055   5.975  0.6913  0.0327  0.5735
  634MOL0     C85492   8.268   5.190   6.000 -1.3389 -0.9668  0.4685
  634MOL0     C85493   8.415   5.190   5.953 -0.0594 -0.7340  0.1793
  634MOL0     C85494   8.499   5.317   5.988 -0.6403 -0.2288  1.1328
  634MOL0     C85495   8.493   5.435   5.884  0.5516 -0.8685 -0.0371
  634MOL0     C85496   8.508   5.386   5.736  0.3166  1.0822 -0.8290
  634MOL0     C85497   8.497   5.500   5.629  0.2638  0.1800 -0.3596
  634MOL0     C85498   8.385   5.607   5.662 -0.9007  1.0142 -0.5515
  634MOL0    Cl85499   8.226   5.520   5.670 -0.4824 -0.5497  0.2416
  634MOL0     C85500   8.026   4.854   5.903 -1.1020  0.3621 -0.3840
  634MOL0     C85501   7.943   4.745   5.896  0.2963  0.8322 -0.7275
  634MOL0     O85502   7.776   4.518   5.806  0.0476  0.3236 -0.3018
  634MOL0     C85503   7.659   4.371   6.111 -0.2175 -0.1073  0.7142
  634MOL0     C85504   7.586   4.262   6.162 -0.9115  0.6842  0.1612
  634MOL0     N85505   7.731   3.618   6.247  0.6699  0.1213  0.5807
  634MOL0     N85506   7.811   3.531   6.211  0.2494  0.0249  0.1144
  634MOL0     C85507   7.851   2.873   5.115 -0.6621 -0.4648  1.0076
  634MOL0     C85508   7.816   2.824   4.989 -0.7831  0.2583  0.3644
  634MOL0     C85509   7.573   2.586   4.676  0.3413  0.5711  0.7950
  634MOL0     C85510   7.454   2.621   4.608 -0.4357 -0.2498  0.5438
  634MOL0     C85511   7.427   2.558   4.484  0.1522  0.1821 -0.3066
  634MOL0     C85512   7.510   2.453   4.433 -0.3012  0.3534  0.0272
  634MOL0     O85513   7.478   2.395   4.314 -0.0827  0.2832 -0.0861
  634MOL0     C85514   7.564   2.306   4.247 -0.1797 -0.3938 -0.7803
  634MOL0     C85515   7.497   2.275   4.116  0.5725 -0.2790  0.4182
  634MOL0     C85516   7.368   2.184   4.144 -0.5505  0.6390 -0.0952
  634MOL0     C85517   7.293   2.174   4.012  0.7434  1.0170 -0.3889
  634MOL0     C85518   7.362   2.088   3.912 -1.1738  0.6719 -0.4049
  634MOL0     C85519   7.425   2.014   3.835 -0.5044 -1.4444  1.2077
  634MOL0     C85520   7.631   2.431   4.498 -0.2244 -0.7939 -0.7616
  634MOL0     C85521   7.666   2.499   4.613 -0.3008  0.7339 -0.1956
  634MOL0     C85522   7.810   2.465   4.654  0.2576 -0.3326 -0.6494
  634MOL0     H85523   7.607   2.573   5.105  1.0814 -0.7588 -2.3915
  634MOL0     H85524   7.661   2.699   5.319 -0.1659 -1.5729 -0.0855
  634MOL0     H85525   8.010   2.933   5.356 -1.3172 -1.1946 -0.6886
  634MOL0     H85526   7.904   3.065   5.314  2.0322  1.0837  0.5358
  634MOL0     H85527   7.936   2.928   5.593 -1.3888 -0.3852 -0.1769
  634MOL0     H85528   7.775   2.994   5.553 -0.2606 -2.7567  0.4677
  634MOL0     H85529   7.879   3.217   5.500 -0.3728 -0.7225 -1.4799
  634MOL0     H85530   8.022   3.156   5.579  0.6762 -0.3095 -0.1691
  634MOL0     H85531   7.754   3.147   5.738  0.7609  1.7701  0.4852
  634MOL0     H85532   7.919   3.101   5.782 -0.8461 -1.8878 -1.0505
  634MOL0     H85533   7.965   3.367   5.729  1.7092 -2.8856  0.5285
  634MOL0     H85534   7.800   3.391   5.754 -0.4404  0.6812  2.0839
  634MOL0     H85535   8.006   3.298   5.940  1.5298  2.0731  2.2805
  634MOL0     H85536   7.896   3.443   5.944 -3.3213 -0.1875 -0.0445
  634MOL0     H85537   7.826   3.150   5.996  2.1442  1.0767  0.1386
  634MOL0     H85538   7.703   3.285   5.974 -0.7283 -1.0991  1.6694
  634MOL0     H85539   7.732   3.197   6.203  0.4019 -0.3659  0.7730
  634MOL0     H85540   7.892   3.263   6.207 -0.3202  0.1170  0.2013
  634MOL0     H85541   7.526   3.368   6.175 -0.5700 -0.7327  3.2659
  634MOL0     H85542   7.390   3.578   6.283 -0.5997  1.1422 -2.5990
  634MOL0     H85543   7.483   3.639   6.419 -0.1066  0.2593  0.1611
  634MOL0     H85544   7.406   3.820   6.332  0.7874  1.3958  0.3956
  634MOL0     H85545   7.571   3.818   6.287  0.6214 -0.2385  0.7344
  634MOL0     H85546   7.318   3.823   6.105 -1.1047 -1.8595 -0.7365
  634MOL0     H85547   7.443   3.723   6.038 -2.0364  1.1333 -2.1107
  634MOL0     H85548   7.434   3.938   5.953  1.7911  0.5386 -1.8878
  634MOL0     H85549   7.593   3.895   6.011 -0.5408 -0.8882 -1.0072
  634MOL0     H85550   7.522   4.116   5.862  0.8028  0.2209 -0.7330
  634MOL0     H85551   7.615   4.319   5.780 -2.3248 -0.4057  0.4728
  634MOL0     H85552   7.724   4.824   6.145 -1.3610 -2.3250 -1.7446
  634MOL0     H85553   7.846   5.035   6.131 -2.4106 -1.2095 -0.2882
  634MOL0     H85554   8.216   4.981   6.055 -2.1519 -1.3493 -0.0163
  634MOL0     H85555   8.224   5.024   5.873 -2.5629  3.9571 -1.6777
  634MOL0     H85556   8.206   5.269   5.956 -0.5023 -2.2886 -3.5059
  634MOL0     H85557   8.275   5.187   6.109 -3.4898 -0.3076  0.6683
  634MOL0     H85558   8.470   5.110   6.003  1.8172  1.0815  1.1910
  634MOL0     H85559   8.410   5.174   5.845 -1.6254  1.9520 -0.2326
  634MOL0     H85560   8.604   5.284   5.982 -0.5103  0.2140  0.8940
  634MOL0     H85561   8.472   5.360   6.085  4.0106  4.4814  0.8693
  634MOL0     H85562   8.565   5.508   5.921 -2.5178  0.7564  3.3532
  634MOL0     H85563   8.394   5.481   5.884  1.4266  1.1244  0.4962
  634MOL0     H85564   8.596   5.324   5.721 -0.7091 -0.8224  0.6047
  634MOL0     H85565   8.428   5.318   5.706  0.2338  1.3328 -1.1829
  634MOL0     H85566   8.472   5.451   5.534  1.3461  0.7917 -0.9800
  634MOL0     H85567   8.591   5.553   5.616  1.4294 -0.9654  2.4867
  634MOL0     H85568   8.394   5.671   5.749 -2.2348  1.4598 -0.7188
  634MOL0     H85569   8.381   5.676   5.577 -0.2708 -0.6680 -2.0238
  634MOL0     H85570   8.119   4.844   5.849 -0.5106 -1.4173  0.8544
  634MOL0     H85571   7.965   4.656   5.839 -0.5868 -0.6928  1.2044
  634MOL0     H85572   7.703   4.442   6.180  1.9770  0.2299 -0.9409
  634MOL0     H85573   7.578   4.261   6.270  0.3533 -2.0809  0.3205
  634MOL0     H85574   7.922   2.955   5.118 -0.1662 -0.9190  2.2627
  634MOL0     H85575   7.858   2.878   4.905 -0.7972  1.1740  0.9376
  634MOL0     H85576   7.391   2.703   4.639  2.3948  1.5055  2.0701
  634MOL0     H85577   7.341   2.590   4.425  0.6444 -1.2448 -1.8898
  634MOL0     H85578   7.564   2.212   4.302 -1.0286  1.2279  2.1725
  634MOL0     H85579   7.660   2.357   4.238 -1.1973  1.6951 -0.3651
  634MOL0     H85580   7.568   2.214   4.061  1.1436 -1.0885  2.0063
  634MOL0     H85581   7.460   2.371   4.078  1.0939 -0.6235 -1.0303
  634MOL0     H85582   7.296   2.224   4.216 -1.8638  2.1262 -2.1206
  634MOL0     H85583   7.397   2.083   4.174 -4.2049 -0.6510 -0.5093
  634MOL0     H85584   7.191   2.145   4.038  1.0289 -1.4342 -1.6842
  634MOL0     H85585   7.277   2.273   3.968 -1.2920  1.5770  1.4587
  634MOL0     H85586   7.484   1.951   3.771 -2.1008 -3.0503  1.2431
  634MOL0     H85587   7.698   2.362   4.448  1.2030 -0.0759  0.0978
  634MOL0     H85588   7.848   2.517   4.743 -2.0151 -0.1149  0.2634
  634MOL0     H85589   7.806   2.359   4.683  0.9452  0.3406  2.2076
  634MOL0     H85590   7.874   2.492   4.570 -0.2238 -0.0463 -0.9267
  635MOL0     O85591   9.147   7.158   7.847  0.0890  0.2753 -0.4513
  635MOL0     C85592   9.178   7.102   7.744  0.6550 -0.1089  0.0335
  635MOL0     O85593   9.166   7.157   7.607 -0.4631 -0.0316  0.0664
  635MOL0     C85594   9.099   7.280   7.595  0.5168  0.4592  0.2497
  635MOL0     C85595   8.990   7.319   7.672  0.0144  0.3072 -0.4150
  635MOL0     C85596   8.925   7.432   7.648 -0.1736  0.1651  0.0409
  635MOL0     C85597   8.960   7.528   7.555  0.8420 -0.1800 -0.1162
  635MOL0     O85598   8.896   7.645   7.534  0.6488 -0.3405  0.0205
  635MOL0     C85599   8.779   7.678   7.612 -0.3009  0.2832  0.2283
  635MOL0     C85600   8.729   7.821   7.596  0.5041 -0.3906 -0.1844
  635MOL0     C85601   8.627   7.851   7.713  0.3917 -0.5267 -0.2786
  635MOL0     C85602   8.696   7.904   7.835  0.9053  0.4174 -0.5796
  635MOL0     C85603   8.622   7.859   7.959 -0.3370  0.0779  0.0979
  635MOL0     C85604   8.475   7.902   7.957 -0.0300 -0.8396 -0.7023
  635MOL0     C85605   8.407   7.855   8.086  0.1599 -0.2677 -0.4963
  635MOL0     C85606   8.421   7.958   8.194 -0.3644  0.1314  0.5129
  635MOL0     N85607   8.381   7.906   8.322 -0.3929 -0.2988  0.1653
  635MOL0     C85608   8.452   7.843   8.416  0.6147  0.6236 -0.5871
  635MOL0     C85609   8.377   7.823   8.529  0.4669 -1.1574 -0.2842
  635MOL0     C85610   8.411   7.743   8.655  0.1638 -0.4313  0.1624
  635MOL0     C85611   8.384   7.597   8.624 -0.2507 -0.2602  0.0700
  635MOL0     C85612   8.376   7.505   8.750 -0.6196  0.3762 -1.0639
  635MOL0     C85613   8.311   7.370   8.714 -0.2081  0.4768  1.0016
  635MOL0     O85614   8.326   7.285   8.828  0.2013 -0.1816 -0.2127
  635MOL0     C85615   8.356   7.152   8.819 -0.2225  0.5758 -0.2414
  635MOL0     C85616   8.316   7.068   8.705 -1.0588 -0.0676 -1.0515
  635MOL0     C85617   8.367   6.936   8.710  0.8018 -0.0484 -0.0193
  635MOL0     C85618   8.398   6.863   8.828  0.0655 -1.5137  0.3676
  635MOL0     C85619   8.438   6.724   8.829 -0.0897  0.4538  0.2879
  635MOL0     O85620   8.485   6.681   8.708  0.2365 -0.3746 -0.2184
  635MOL0     C85621   8.513   6.546   8.701  0.7202 -0.2768  0.0148
  635MOL0     C85622   8.421   6.453   8.655  0.5424 -0.4877  0.1104
  635MOL0     C85623   8.439   6.328   8.647  0.5573  0.1794 -1.0420
  635MOL0     C85624   8.560   6.265   8.695 -1.3843  0.1584  0.4532
  635MOL0     O85625   8.607   6.136   8.670  0.5055  0.4718  0.2799
  635MOL0     C85626   8.509   6.028   8.655 -0.6730  0.2013 -0.1163
  635MOL0     C85627   8.455   5.991   8.793 -0.5351 -0.4651  0.4330
  635MOL0     C85628   8.552   5.923   8.885  0.7810  0.5089  0.1591
  635MOL0     C85629   8.643   6.030   8.950 -1.0078 -0.1569 -0.9968
  635MOL0     C85630   8.710   5.963   9.068 -0.5372 -0.4703 -0.0899
  635MOL0     C85631   8.785   6.063   9.163  0.2833  0.1562  1.1528
  635MOL0     C85632   8.774   6.013   9.296  0.8680  0.5392 -0.1451
  635MOL0     C85633   8.868   6.091   9.385  0.1636  0.0389  0.5826
  635MOL0    Cl85634   8.855   6.029   9.553  0.8808 -0.1132 -0.0840
  635MOL0     C85635   8.651   6.352   8.758 -0.1331  0.1152  0.6826
  635MOL0     C85636   8.632   6.491   8.755  0.1150  0.0427  0.6150
  635MOL0     O85637   8.422   6.655   8.931  0.3211 -0.6587  0.2504
  635MOL0     C85638   8.436   6.948   8.942 -0.0841 -0.2136  0.0412
  635MOL0     C85639   8.422   7.088   8.931 -0.4370  0.3097  0.2116
  635MOL0     N85640   8.269   7.901   8.516  0.7730  1.1531  0.5178
  635MOL0     N85641   8.266   7.949   8.396  0.3582 -0.3285  0.8248
  635MOL0     C85642   9.061   7.488   7.468  0.7305  0.2055  0.0693
  635MOL0     C85643   9.125   7.365   7.484 -0.3784 -0.6373  0.9235
  635MOL0     C85644   9.216   6.953   7.736  0.2014  0.4037 -0.4638
  635MOL0     C85645   9.196   6.885   7.609 -0.1421 -0.5944 -0.2764
  635MOL0     C85646   9.192   6.749   7.615 -0.1376 -0.3703 -0.0450
  635MOL0     C85647   9.207   6.675   7.733  0.1851  0.4526  0.1563
  635MOL0     O85648   9.199   6.535   7.723  0.7677 -0.3636 -0.4214
  635MOL0     C85649   9.315   6.470   7.779 -0.4157 -0.6233 -0.1029
  635MOL0     C85650   9.315   6.317   7.755  0.1889 -0.5427  0.3786
  635MOL0     C85651   9.424   6.235   7.826 -0.1750 -0.0827  0.2277
  635MOL0     C85652   9.568   6.284   7.787  1.1267  1.1109 -0.7188
  635MOL0     C85653   9.666   6.176   7.805 -0.1834  0.5820 -0.5280
  635MOL0     C85654   9.743   6.081   7.804  0.2074 -0.0908  0.2220
  635MOL0     C85655   9.242   6.743   7.845 -0.3800  0.2883  0.6684
  635MOL0     C85656   9.245   6.883   7.858 -0.4713 -0.1878  0.1300
  635MOL0     C85657   9.277   6.952   7.986 -0.0492 -0.3415 -1.0178
  635MOL0     H85658   8.953   7.256   7.752  1.7242 -0.0843  0.1079
  635MOL0     H85659   8.834   7.451   7.704 -1.2733  2.0435 -2.2401
  635MOL0     H85660   8.701   7.608   7.582  0.9456 -2.0599  2.0710
  635MOL0     H85661   8.802   7.659   7.717  0.6086 -3.0103 -0.4546
  635MOL0     H85662   8.677   7.821   7.500  1.0288  0.8233 -0.4958
  635MOL0     H85663   8.811   7.893   7.605  0.3205 -0.1259 -0.6129
  635MOL0     H85664   8.577   7.755   7.729  2.0838 -1.3630  0.1943
  635MOL0     H85665   8.553   7.922   7.676 -0.1028 -1.5925 -1.3867
  635MOL0     H85666   8.803   7.881   7.843  0.6985  0.0305  1.9167
  635MOL0     H85667   8.695   8.014   7.836  3.0249  0.4943  1.3539
  635MOL0     H85668   8.632   7.750   7.959  1.4606  0.1932 -1.4126
  635MOL0     H85669   8.661   7.897   8.054  1.4548 -3.0093  0.7399
  635MOL0     H85670   8.477   8.011   7.959 -2.5059 -0.6689  3.0441
  635MOL0     H85671   8.410   7.857   7.882 -2.2616  0.1532  0.5443
  635MOL0     H85672   8.460   7.762   8.109  2.6770  0.7695 -1.7099
  635MOL0     H85673   8.303   7.820   8.080 -0.0082 -0.3816  2.1433
  635MOL0     H85674   8.527   7.983   8.203  0.3593 -2.6808  0.9413
  635MOL0     H85675   8.372   8.050   8.162  3.5070  1.9542 -0.7722
  635MOL0     H85676   8.552   7.800   8.409  0.3684 -0.0031 -0.2725
  635MOL0     H85677   8.514   7.768   8.683  0.0790 -0.4722  0.5179
  635MOL0     H85678   8.351   7.792   8.732  0.8785 -1.2558  1.2841
  635MOL0     H85679   8.285   7.587   8.577  1.4985 -1.3382 -3.7929
  635MOL0     H85680   8.454   7.570   8.545  0.7446 -3.9813  1.9881
  635MOL0     H85681   8.307   7.552   8.821 -1.3729 -2.1559 -0.0063
  635MOL0     H85682   8.475   7.499   8.798 -0.5861 -1.0235 -1.2818
  635MOL0     H85683   8.360   7.329   8.626  0.6082  3.7403 -0.2184
  635MOL0     H85684   8.204   7.373   8.692  0.1465 -2.5685 -1.7064
  635MOL0     H85685   8.272   7.111   8.615  0.0029  3.5589 -0.0213
  635MOL0     H85686   8.330   6.875   8.628  2.9962 -1.2001 -0.2005
  635MOL0     H85687   8.331   6.504   8.623  0.8251  0.3435  0.6065
  635MOL0     H85688   8.362   6.278   8.589 -0.4120 -0.0910  0.4211
  635MOL0     H85689   8.431   6.064   8.587  0.0760  1.4206 -0.3472
  635MOL0     H85690   8.558   5.945   8.601  2.0200  1.0035  0.9518
  635MOL0     H85691   8.418   6.077   8.850 -0.9526  0.0858 -0.6597
  635MOL0     H85692   8.370   5.925   8.774 -1.8528  1.6840 -1.4832
  635MOL0     H85693   8.490   5.867   8.956 -0.1457  0.6689 -0.5071
  635MOL0     H85694   8.616   5.847   8.839  1.4984  1.3075 -0.1684
  635MOL0     H85695   8.589   6.118   8.986  0.2487  0.0888  0.3992
  635MOL0     H85696   8.720   6.070   8.883 -1.4142  0.3671 -1.1557
  635MOL0     H85697   8.780   5.888   9.029 -0.6197 -0.1491 -0.8615
  635MOL0     H85698   8.635   5.916   9.132 -2.9547  1.3008 -1.4735
  635MOL0     H85699   8.888   6.065   9.126 -0.2121  0.1532 -0.3233
  635MOL0     H85700   8.736   6.159   9.143  0.1142 -0.2850 -0.7727
  635MOL0     H85701   8.793   5.906   9.306 -2.6049 -0.1724  0.3184
  635MOL0     H85702   8.673   6.034   9.333  0.9895  0.3432  0.3076
  635MOL0     H85703   8.967   6.062   9.349  1.2519 -0.2922  3.5369
  635MOL0     H85704   8.854   6.200   9.379 -0.5325 -0.1234 -1.3343
  635MOL0     H85705   8.741   6.310   8.800  0.0340 -1.3869 -1.0604
  635MOL0     H85706   8.704   6.564   8.791  0.1556  1.7541 -2.5880
  635MOL0     H85707   8.499   6.906   9.019 -1.6397 -1.8946  0.4579
  635MOL0     H85708   8.465   7.149   9.009  2.1954 -2.8079  1.4434
  635MOL0     H85709   9.096   7.542   7.380 -4.7739 -1.5922 -3.7805
  635MOL0     H85710   9.206   7.340   7.417  2.1949  2.1441  2.7704
  635MOL0     H85711   9.169   6.933   7.515 -3.2275  0.5046  1.0337
  635MOL0     H85712   9.181   6.693   7.522  2.0239 -1.1535  0.1168
  635MOL0     H85713   9.318   6.491   7.886 -1.2743  1.1469 -0.3868
  635MOL0     H85714   9.406   6.512   7.734 -0.7061 -0.8860 -0.9580
  635MOL0     H85715   9.312   6.312   7.646 -0.5954  1.4707  0.2678
  635MOL0     H85716   9.219   6.292   7.802 -1.1386  1.2417 -1.2201
  635MOL0     H85717   9.421   6.129   7.801  0.8531 -0.6371  2.2834
  635MOL0     H85718   9.397   6.228   7.932 -2.6308 -3.2458 -0.4533
  635MOL0     H85719   9.578   6.308   7.680  2.9601 -0.3998 -0.9530
  635MOL0     H85720   9.588   6.369   7.853 -0.3766 -0.3799  1.7978
  635MOL0     H85721   9.810   5.998   7.795  2.2101  1.5319 -0.6693
  635MOL0     H85722   9.277   6.685   7.930  1.8259 -2.4465 -1.9013
  635MOL0     H85723   9.211   7.036   8.009  1.1794  0.5671 -0.6889
  635MOL0     H85724   9.270   6.900   8.082  3.3168  2.7166  1.1833
  635MOL0     H85725   9.381   6.982   7.968  0.1530 -1.3910 -1.6962
  636MOL0     O85726   9.997   5.467   3.373  0.3952  0.5549 -0.3703
  636MOL0     C85727  10.078   5.549   3.412 -0.8789 -0.3286  0.1957
  636MOL0     O85728  10.055   5.666   3.491 -0.7106  0.2644  0.4332
  636MOL0     C85729   9.921   5.703   3.498 -0.1336  0.1410 -0.2711
  636MOL0     C85730   9.841   5.670   3.609  0.0509  0.0987  0.5045
  636MOL0     C85731   9.703   5.696   3.603 -1.0614  0.0072  0.1070
  636MOL0     C85732   9.635   5.749   3.489  0.3749 -0.3602 -0.1158
  636MOL0     O85733   9.509   5.795   3.485  0.3305  0.8169 -1.2346
  636MOL0     C85734   9.409   5.700   3.536 -0.3013  1.1113 -0.4128
  636MOL0     C85735   9.264   5.741   3.507 -0.3340 -0.5209 -0.3943
  636MOL0     C85736   9.244   5.767   3.357 -0.5884  0.1985  0.0736
  636MOL0     C85737   9.236   5.635   3.279 -0.3074 -0.4535  0.1282
  636MOL0     C85738   9.090   5.603   3.256 -0.3808 -0.3779  1.2276
  636MOL0     C85739   9.088   5.457   3.192  0.2030 -0.2786  0.2703
  636MOL0     C85740   8.952   5.430   3.120  0.3490 -0.8416  0.8499
  636MOL0     C85741   8.832   5.467   3.198 -0.1069 -0.1283 -0.0045
  636MOL0     N85742   8.711   5.441   3.119  0.0229  0.1945 -0.5202
  636MOL0     C85743   8.644   5.529   3.025 -0.6570  0.0191 -0.1798
  636MOL0     C85744   8.584   5.445   2.942  0.3942  0.1789  0.4838
  636MOL0     C85745   8.485   5.465   2.828 -0.7330 -0.6250 -0.3927
  636MOL0     C85746   8.559   5.458   2.695  0.6544 -0.3460 -0.3343
  636MOL0     C85747   8.623   5.324   2.658 -0.0557  0.1374  0.3098
  636MOL0     C85748   8.510   5.211   2.646 -0.1830  0.0647 -0.0730
  636MOL0     O85749   8.385   5.231   2.579  0.0383 -0.4144 -0.3235
  636MOL0     C85750   8.388   5.227   2.448  0.4836 -0.0161  0.2183
  636MOL0     C85751   8.501   5.210   2.373 -2.0058  1.8553  0.7892
  636MOL0     C85752   8.492   5.212   2.232 -0.3463  0.9411 -0.4149
  636MOL0     C85753   8.372   5.244   2.162  0.1514 -0.9061  0.2588
  636MOL0     C85754   8.379   5.254   2.020 -0.1024  0.4164  0.5603
  636MOL0     O85755   8.474   5.336   1.960 -1.1559  0.3841  0.8955
  636MOL0     C85756   8.486   5.354   1.823  0.3316 -0.3992  0.2111
  636MOL0     C85757   8.406   5.304   1.719  0.1357 -0.8140  0.6050
  636MOL0     C85758   8.435   5.343   1.579  0.4572  0.4369 -0.2684
  636MOL0     C85759   8.546   5.428   1.547 -0.3237 -0.1148  0.2465
  636MOL0     O85760   8.594   5.471   1.432  0.4136  0.6189  0.3825
  636MOL0     C85761   8.590   5.376   1.322  0.2812 -0.0695  0.0913
  636MOL0     C85762   8.662   5.429   1.202 -0.8500  0.1309 -0.3954
  636MOL0     C85763   8.621   5.358   1.073 -0.1141 -0.8219 -0.0760
  636MOL0     C85764   8.705   5.393   0.952  0.0197  0.5214  0.4839
  636MOL0     C85765   8.689   5.323   0.814 -0.4564  0.3989 -0.6948
  636MOL0     C85766   8.582   5.389   0.740 -0.2749  0.7021  0.3904
  636MOL0     C85767   8.528   5.313   0.618  0.0557 -0.3476  0.1272
  636MOL0     C85768   8.440   5.190   0.651  0.5323 -0.2401 -0.1075
  636MOL0    Cl85769   8.292   5.244   0.739 -0.3446 -0.1313 -0.4899
  636MOL0     C85770   8.611   5.482   1.655  0.5818  0.5187 -0.0478
  636MOL0     C85771   8.588   5.441   1.784 -0.5055  0.4020  0.6511
  636MOL0     O85772   8.290   5.197   1.961  0.0513  0.1318 -0.4325
  636MOL0     C85773   8.250   5.258   2.243 -0.9304  0.0079  0.1874
  636MOL0     C85774   8.260   5.244   2.380  0.1511 -0.2236 -0.4237
  636MOL0     N85775   8.614   5.319   2.970 -0.3691  0.1045 -0.0937
  636MOL0     N85776   8.683   5.318   3.081  0.1069  0.7745  0.3223
  636MOL0     C85777   9.723   5.787   3.383  0.3632  0.0834 -1.0433
  636MOL0     C85778   9.859   5.768   3.386 -0.6967 -0.0128  0.1020
  636MOL0     C85779  10.212   5.508   3.367 -0.5290 -0.2119  0.1177
  636MOL0     C85780  10.225   5.453   3.234  0.7330 -0.9043 -0.8001
  636MOL0     C85781  10.351   5.408   3.197 -1.3461  0.1994  1.1364
  636MOL0     C85782  10.467   5.430   3.278  0.0512  0.0817 -0.3910
  636MOL0     O85783  10.600   5.420   3.249  0.3134 -0.1878 -0.1844
  636MOL0     C85784  10.638   5.441   3.109  0.2617  0.8474 -0.0993
  636MOL0     C85785  10.662   5.305   3.058 -0.2652  0.5306  0.4855
  636MOL0     C85786  10.724   5.312   2.913  0.1976 -0.1162 -0.0092
  636MOL0     C85787  10.738   5.172   2.860 -0.1437  0.0352 -0.0129
  636MOL0     C85788  10.824   5.161   2.743 -0.9931  0.1423 -0.5127
  636MOL0     C85789  10.910   5.168   2.649  0.0577  0.0818 -0.6220
  636MOL0     C85790  10.450   5.481   3.406  0.4131 -0.6522 -0.2852
  636MOL0     C85791  10.327   5.512   3.451 -0.6547  0.5368 -0.3183
  636MOL0     C85792  10.333   5.549   3.595  0.0960  0.7043  0.1166
  636MOL0     H85793   9.887   5.630   3.699  3.5288 -1.9773 -1.9319
  636MOL0     H85794   9.659   5.667   3.698 -3.5526  1.0479 -0.6455
  636MOL0     H85795   9.438   5.606   3.489  0.7505  0.1307  2.0428
  636MOL0     H85796   9.422   5.685   3.644  0.9218 -0.7127 -0.7593
  636MOL0     H85797   9.254   5.833   3.566  0.8347  0.3098 -1.4470
  636MOL0     H85798   9.199   5.665   3.553  1.0641 -0.1498  2.4399
  636MOL0     H85799   9.330   5.822   3.317  0.7792 -1.2447  0.9434
  636MOL0     H85800   9.149   5.822   3.349 -0.4456  0.7441  1.8867
  636MOL0     H85801   9.281   5.647   3.180 -1.9690  1.7227 -0.4351
  636MOL0     H85802   9.286   5.564   3.346  2.1230  2.0238  1.1443
  636MOL0     H85803   9.025   5.604   3.344 -0.5974  1.1947  1.0787
  636MOL0     H85804   9.054   5.673   3.180 -0.2052 -2.3365 -0.8002
  636MOL0     H85805   9.158   5.439   3.110 -1.1522  0.1901 -1.0292
  636MOL0     H85806   9.106   5.379   3.267 -0.7116 -0.0045  0.7960
  636MOL0     H85807   8.950   5.325   3.090 -0.8787 -0.1605 -1.7821
  636MOL0     H85808   8.942   5.498   3.035 -3.0132 -0.2670  1.5792
  636MOL0     H85809   8.833   5.388   3.274 -1.9457 -2.7471 -2.4841
  636MOL0     H85810   8.825   5.570   3.235  0.9030 -0.6093  1.6385
  636MOL0     H85811   8.630   5.636   3.039 -1.1980 -0.2952  2.3351
  636MOL0     H85812   8.406   5.390   2.831 -0.3580 -1.0462 -0.7652
  636MOL0     H85813   8.436   5.562   2.836 -2.9708 -1.8494  1.9958
  636MOL0     H85814   8.485   5.490   2.621 -1.3528 -1.8450  0.9004
  636MOL0     H85815   8.645   5.525   2.693  2.0028 -1.9679 -2.2397
  636MOL0     H85816   8.698   5.295   2.732  2.6394  1.1216 -1.8851
  636MOL0     H85817   8.678   5.335   2.564 -0.6441  0.3484 -0.0140
  636MOL0     H85818   8.473   5.182   2.744 -0.4824  1.0618  0.1175
  636MOL0     H85819   8.564   5.124   2.605 -0.9070  0.3801 -1.7730
  636MOL0     H85820   8.603   5.201   2.411 -1.7755  3.6861  0.7323
  636MOL0     H85821   8.580   5.181   2.177 -0.6333 -1.3257  0.3113
  636MOL0     H85822   8.319   5.240   1.726  0.2806 -1.1813 -0.7648
  636MOL0     H85823   8.361   5.296   1.515  0.4823 -0.3836  0.2830
  636MOL0     H85824   8.644   5.284   1.345  1.4079  0.7875  0.9553
  636MOL0     H85825   8.486   5.354   1.297  0.3349  1.0477 -1.2422
  636MOL0     H85826   8.649   5.537   1.192 -0.7542  0.2259  0.4218
  636MOL0     H85827   8.767   5.407   1.220 -0.5711  1.4790 -0.2792
  636MOL0     H85828   8.632   5.250   1.090  0.6193 -1.2440 -2.7037
  636MOL0     H85829   8.517   5.377   1.047  0.5203 -0.3179 -2.5850
  636MOL0     H85830   8.813   5.382   0.967  0.2751  0.4524 -1.2424
  636MOL0     H85831   8.684   5.497   0.926 -0.6169  0.0783 -0.8546
  636MOL0     H85832   8.681   5.214   0.818 -0.4086  0.4241  0.6701
  636MOL0     H85833   8.781   5.337   0.755 -0.8496  0.1972 -1.3687
  636MOL0     H85834   8.501   5.412   0.810 -0.9620  1.6746 -0.6908
  636MOL0     H85835   8.619   5.487   0.708  2.8228  0.8245  3.6859
  636MOL0     H85836   8.613   5.284   0.555  0.3172  1.9719 -0.6886
  636MOL0     H85837   8.468   5.380   0.556 -0.7180 -1.3783 -0.2569
  636MOL0     H85838   8.409   5.132   0.564 -0.0169 -2.5099  1.5185
  636MOL0     H85839   8.501   5.127   0.716  0.1098  1.2371  1.8359
  636MOL0     H85840   8.695   5.549   1.634  1.5010 -1.0913 -1.8972
  636MOL0     H85841   8.655   5.481   1.859 -2.2457  1.0532  1.9258
  636MOL0     H85842   8.159   5.271   2.184 -1.9185  0.6835  1.8045
  636MOL0     H85843   8.172   5.274   2.436  1.7696  3.0701  0.6169
  636MOL0     H85844   9.672   5.837   3.301 -0.8277  2.2562  0.8752
  636MOL0     H85845   9.935   5.791   3.312  1.7303 -0.8662  2.1755
  636MOL0     H85846  10.129   5.437   3.186  1.6184 -0.3845 -2.8467
  636MOL0     H85847  10.365   5.363   3.099 -1.3810  0.6416  0.9275
  636MOL0     H85848  10.733   5.496   3.104  0.4338  0.7879  1.6756
  636MOL0     H85849  10.570   5.498   3.045  0.1344  1.0845  0.2444
  636MOL0     H85850  10.572   5.243   3.051 -1.2173  1.9680 -0.6341
  636MOL0     H85851  10.736   5.259   3.124 -0.5348 -1.8512 -0.8012
  636MOL0     H85852  10.826   5.350   2.918  0.0739  0.3087 -0.5365
  636MOL0     H85853  10.665   5.376   2.847 -1.5573  1.1202  2.5680
  636MOL0     H85854  10.779   5.105   2.937 -0.1796 -1.2314 -1.0440
  636MOL0     H85855  10.641   5.125   2.838 -0.3287  0.4867 -0.1734
  636MOL0     H85856  10.960   5.176   2.555  2.1336 -0.5687  0.3719
  636MOL0     H85857  10.541   5.503   3.460  0.9105  0.1128 -1.4002
  636MOL0     H85858  10.360   5.462   3.655 -2.3950 -0.7906 -0.7897
  636MOL0     H85859  10.411   5.622   3.619  1.0358  0.1387 -1.1042
  636MOL0     H85860  10.235   5.579   3.635 -0.2824 -0.0947 -0.1889
  637MOL0     O85861   7.302   6.598  10.923 -0.4911 -0.8289  0.0103
  637MOL0     C85862   7.302   6.531  10.821  0.1234 -0.6911  0.3247
  637MOL0     O85863   7.413   6.508  10.741  0.9231  0.4451 -0.5700
  637MOL0     C85864   7.543   6.540  10.780 -0.9143 -0.3564 -0.0120
  637MOL0     C85865   7.574   6.681  10.787 -0.1565  0.5503 -0.0749
  637MOL0     C85866   7.696   6.732  10.808 -0.3732  0.3209  0.3932
  637MOL0     C85867   7.799   6.642  10.847 -0.3445 -0.3759 -1.0109
  637MOL0     O85868   7.931   6.672  10.873  0.0675  0.1714  0.6135
  637MOL0     C85869   7.972   6.804  10.879 -0.3275 -1.6838 -0.4991
  637MOL0     C85870   7.936   6.884  11.007 -0.5790  0.6649 -0.6187
  637MOL0     C85871   7.972   6.805  11.137  0.0490  0.4158 -0.2497
  637MOL0     C85872   7.863   6.709  11.181  0.4125 -0.5180  0.5158
  637MOL0     C85873   7.861   6.698  11.331 -0.1083 -0.9685 -0.6616
  637MOL0     C85874   7.723   6.658  11.379 -0.0697  0.0818 -0.1361
  637MOL0     C85875   7.687   6.515  11.353  0.3340  0.3317  0.1357
  637MOL0     C85876   7.591   6.496  11.238 -1.1805  1.2098 -0.5378
  637MOL0     N85877   7.457   6.553  11.279  0.2447 -0.0770  0.4399
  637MOL0     C85878   7.389   6.652  11.210 -0.7069  0.2233 -0.4832
  637MOL0     C85879   7.276   6.683  11.276  1.2250  0.8017  0.1190
  637MOL0     C85880   7.184   6.791  11.231  0.1305  0.2333  1.0752
  637MOL0     C85881   7.201   6.947  11.272  0.6357 -0.3789 -0.1897
  637MOL0     C85882   7.113   7.043  11.190 -0.3479  0.1836  0.0202
  637MOL0     C85883   6.967   6.987  11.189 -0.3177 -0.4814  0.0047
  637MOL0     O85884   6.897   7.018  11.308 -0.0591 -0.8364 -0.2872
  637MOL0     C85885   6.760   7.034  11.297 -0.0804 -1.0825 -0.3516
  637MOL0     C85886   6.675   7.034  11.191 -0.6046  0.5839 -0.0929
  637MOL0     C85887   6.537   7.038  11.202 -1.0189  0.2555 -0.0371
  637MOL0     C85888   6.474   7.054  11.325 -0.1987  1.0229 -0.9511
  637MOL0     C85889   6.328   7.056  11.349  0.2784 -0.4304  1.3385
  637MOL0     O85890   6.275   7.075  11.469 -0.1881  1.0728  0.3086
  637MOL0     C85891   6.141   7.086  11.484  1.1380 -0.1555  0.4383
  637MOL0     C85892   6.061   6.979  11.484 -0.1073  0.5367 -0.6653
  637MOL0     C85893   5.927   7.005  11.474 -0.5793  0.2213  0.1375
  637MOL0     C85894   5.866   7.127  11.479 -0.3713  0.0637  0.2468
  637MOL0     O85895   5.727   7.146  11.493 -0.4770 -0.0842  0.3122
  637MOL0     C85896   5.643   7.065  11.420 -0.4043  0.6181 -0.3827
  637MOL0     C85897   5.531   7.148  11.365  1.0493  0.3908 -0.2952
  637MOL0     C85898   5.427   7.170  11.470  0.2709 -0.1677  0.2887
  637MOL0     C85899   5.285   7.146  11.426 -0.6731 -0.2920 -0.0620
  637MOL0     C85900   5.218   7.139  11.567 -0.4267  0.0681 -0.5858
  637MOL0     C85901   5.062   7.114  11.567 -0.3343  0.0709  0.1670
  637MOL0     C85902   4.977   7.234  11.521 -0.1088  0.1725 -0.3737
  637MOL0     C85903   4.826   7.207  11.539 -0.2751  0.0093  0.4459
  637MOL0    Cl85904   4.767   7.077  11.429  0.0843 -0.3411  0.0646
  637MOL0     C85905   5.956   7.235  11.498 -0.2566 -0.4334  0.7808
  637MOL0     C85906   6.092   7.217  11.496  0.2004 -0.8110 -0.2681
  637MOL0     O85907   6.265   7.018  11.248 -0.2987 -0.2132 -0.6277
  637MOL0     C85908   6.565   7.050  11.440  0.3511 -0.5398  0.6462
  637MOL0     C85909   6.702   7.039  11.420  1.0807 -0.1036 -0.7255
  637MOL0     N85910   7.273   6.596  11.384 -0.8049  0.0223  0.7938
  637MOL0     N85911   7.374   6.517  11.378 -0.0779  0.7050  0.2759
  637MOL0     C85912   7.773   6.503  10.845 -0.8081 -0.4398  0.2866
  637MOL0     C85913   7.646   6.449  10.816 -0.1322  0.5779 -0.4022
  637MOL0     C85914   7.172   6.475  10.800  0.2011 -0.9526  1.3853
  637MOL0     C85915   7.110   6.419  10.911  0.9596  0.3892 -1.6999
  637MOL0     C85916   6.979   6.356  10.901  0.7043  0.4111  0.3707
  637MOL0     C85917   6.918   6.357  10.776  0.3996 -0.1686  0.3012
  637MOL0     O85918   6.795   6.298  10.758  0.5209  0.5169  0.8402
  637MOL0     C85919   6.713   6.231  10.858  0.8008 -0.0415 -0.2988
  637MOL0     C85920   6.621   6.326  10.929  0.2095 -0.7228  0.3245
  637MOL0     C85921   6.553   6.248  11.044 -0.1095 -0.2394 -0.2650
  637MOL0     C85922   6.420   6.327  11.095 -1.0515  0.3982 -0.8484
  637MOL0     C85923   6.339   6.347  10.982 -0.5106 -0.3777  0.3571
  637MOL0     C85924   6.270   6.367  10.892  1.1726 -1.0222 -0.0522
  637MOL0     C85925   6.986   6.402  10.664 -0.3183  0.0945  1.0130
  637MOL0     C85926   7.114   6.449  10.672  0.3883  0.8324  0.0665
  637MOL0     C85927   7.170   6.489  10.541  0.4893  0.0196 -0.0248
  637MOL0     H85928   7.493   6.751  10.765 -1.3409 -0.2500  1.5262
  637MOL0     H85929   7.718   6.837  10.790 -1.6717  0.6067  0.4288
  637MOL0     H85930   8.081   6.811  10.879 -0.3683  0.3319 -3.0116
  637MOL0     H85931   7.938   6.868  10.797 -0.1846 -1.7590 -0.6198
  637MOL0     H85932   7.835   6.926  11.017  0.1219  2.2281  0.3306
  637MOL0     H85933   8.008   6.967  11.006  1.7736 -0.8905  4.4706
  637MOL0     H85934   7.997   6.874  11.218  1.2149 -1.2933  0.9171
  637MOL0     H85935   8.059   6.741  11.118  0.2060  0.6428 -0.2979
  637MOL0     H85936   7.771   6.765  11.169  0.9382  0.5685  1.4261
  637MOL0     H85937   7.855   6.613  11.128 -2.4426 -0.3280  0.4493
  637MOL0     H85938   7.935   6.630  11.374  0.1844 -0.3252 -0.1202
  637MOL0     H85939   7.873   6.793  11.385 -0.5482  0.2714 -2.6488
  637MOL0     H85940   7.733   6.674  11.487  0.4915  0.3777 -0.2294
  637MOL0     H85941   7.646   6.730  11.352  1.8445  3.1651  2.0286
  637MOL0     H85942   7.629   6.481  11.439 -0.5435 -0.6790 -0.8192
  637MOL0     H85943   7.772   6.448  11.343 -0.2638 -0.3394 -0.5626
  637MOL0     H85944   7.631   6.541  11.146 -0.7495 -2.3468 -2.2895
  637MOL0     H85945   7.588   6.389  11.215  4.8090  0.6771 -0.3244
  637MOL0     H85946   7.422   6.695  11.116 -4.1416  1.9719 -1.0258
  637MOL0     H85947   7.189   6.775  11.123 -3.2283  4.9905 -0.0944
  637MOL0     H85948   7.084   6.750  11.254  0.2302 -0.1375  0.8634
  637MOL0     H85949   7.170   6.962  11.376 -0.6856  4.5157 -0.9994
  637MOL0     H85950   7.306   6.974  11.265  0.3836  2.0269  2.7867
  637MOL0     H85951   7.163   7.064  11.096  1.8982 -3.3884  0.2176
  637MOL0     H85952   7.109   7.134  11.251  1.3145  0.9034 -0.8998
  637MOL0     H85953   6.958   6.879  11.175 -0.9798 -0.3372 -0.7212
  637MOL0     H85954   6.910   7.029  11.105 -1.0337  1.2586  1.2906
  637MOL0     H85955   6.714   7.040  11.090 -0.6934 -1.2725 -0.2576
  637MOL0     H85956   6.479   7.033  11.110 -0.5121 -2.0079 -0.2902
  637MOL0     H85957   6.092   6.875  11.484 -2.5001 -0.2748 -2.4033
  637MOL0     H85958   5.868   6.914  11.471 -2.9740  1.6836 -1.7196
  637MOL0     H85959   5.700   7.022  11.338  0.1488  0.5342  0.0399
  637MOL0     H85960   5.612   6.983  11.486  1.4815  0.1979  0.0433
  637MOL0     H85961   5.578   7.238  11.326 -3.1576  3.0667  0.2356
  637MOL0     H85962   5.484   7.096  11.280 -0.7272  1.0323  0.2565
  637MOL0     H85963   5.449   7.115  11.562 -0.7085 -2.2181 -0.6545
  637MOL0     H85964   5.420   7.274  11.504 -2.1748  0.6302 -2.2385
  637MOL0     H85965   5.275   7.047  11.380  0.0070 -0.1591 -0.5054
  637MOL0     H85966   5.240   7.226  11.366 -0.6683  0.8281  1.3729
  637MOL0     H85967   5.240   7.232  11.620  1.7855 -1.4034  1.2769
  637MOL0     H85968   5.264   7.056  11.623  0.3215 -0.2339 -1.6259
  637MOL0     H85969   5.030   7.029  11.505 -2.7421  1.4103 -0.5464
  637MOL0     H85970   5.039   7.088  11.671 -0.4622 -0.5018  0.0031
  637MOL0     H85971   4.986   7.250  11.414  1.8267 -2.4665 -0.6991
  637MOL0     H85972   5.000   7.322  11.582  1.5591 -0.5100  0.0261
  637MOL0     H85973   4.807   7.182  11.644  1.1208 -1.6923  0.3507
  637MOL0     H85974   4.768   7.295  11.510  1.7069  1.4402  0.6017
  637MOL0     H85975   5.916   7.336  11.501 -1.0523 -0.7545  1.2939
  637MOL0     H85976   6.157   7.301  11.474  2.2022 -2.5923 -1.6974
  637MOL0     H85977   6.527   7.070  11.539  0.3437  3.4550 -0.0059
  637MOL0     H85978   6.761   7.029  11.511 -0.8821  1.6524  0.8216
  637MOL0     H85979   7.851   6.428  10.849 -1.8003 -1.6394 -1.4018
  637MOL0     H85980   7.630   6.342  10.821  3.0775  0.0718  2.2042
  637MOL0     H85981   7.149   6.423  11.012 -0.7121 -3.5743 -0.7023
  637MOL0     H85982   6.941   6.302  10.986  0.1273 -0.6154 -0.5205
  637MOL0     H85983   6.769   6.183  10.940 -1.3874 -1.4767  0.4487
  637MOL0     H85984   6.662   6.146  10.812  2.2083  1.2000 -4.6093
  637MOL0     H85985   6.553   6.359  10.851  2.7671  1.7799 -1.0325
  637MOL0     H85986   6.667   6.412  10.978 -1.7725 -1.1892  3.2700
  637MOL0     H85987   6.615   6.260  11.133  0.8425  1.7712 -1.1359
  637MOL0     H85988   6.533   6.141  11.029  2.1521 -0.6512 -0.7019
  637MOL0     H85989   6.363   6.273  11.170  1.7303 -1.5100  0.0717
  637MOL0     H85990   6.445   6.421  11.145 -1.1311 -0.9919  1.9874
  637MOL0     H85991   6.192   6.393  10.823  0.9181 -0.1446  0.5430
  637MOL0     H85992   6.930   6.384  10.574  1.7429 -0.9850 -0.1215
  637MOL0     H85993   7.114   6.579  10.512 -1.7813 -0.2929  2.9374
  637MOL0     H85994   7.275   6.513  10.561  1.6319 -4.0292 -0.3160
  637MOL0     H85995   7.167   6.398  10.480 -1.0973  0.6740 -0.9695
  638MOL0     O85996   8.611   0.239  10.521 -0.0164  0.0982 -0.7834
  638MOL0     C85997   8.565   0.249  10.632 -0.5123  0.3797 -0.9594
  638MOL0     O85998   8.435   0.251  10.667  0.1200  0.0679 -0.3034
  638MOL0     C85999   8.336   0.214  10.583  0.2127  0.9554 -0.2782
  638MOL0     C86000   8.287   0.316  10.500  0.1661  1.2411 -0.5904
  638MOL0     C86001   8.175   0.281  10.414 -0.0078 -0.6918 -0.1801
  638MOL0     C86002   8.120   0.149  10.418  0.3453  0.4143 -0.4570
  638MOL0     O86003   8.001   0.109  10.351  0.6092  0.0158 -0.3443
  638MOL0     C86004   7.982   0.164  10.223 -0.1811 -0.4580 -0.3000
  638MOL0     C86005   7.849   0.113  10.168 -1.0696 -0.7595 -0.0792
  638MOL0     C86006   7.788   0.227  10.085  0.1445 -0.8461 -0.3664
  638MOL0     C86007   7.685   0.195   9.978  0.6734 -0.8831  0.1219
  638MOL0     C86008   7.682   0.319   9.893  0.1407 -0.0646  0.5480
  638MOL0     C86009   7.568   0.297   9.794  0.0512 -1.5836  0.6194
  638MOL0     C86010   7.544   0.417   9.692  0.8122 -0.0217 -0.1386
  638MOL0     C86011   7.656   0.465   9.593  0.2902  0.2853  0.1854
  638MOL0     N86012   7.609   0.590   9.534 -0.5175  0.1651  0.5262
  638MOL0     C86013   7.668   0.712   9.540 -0.1214 -0.3040 -0.3127
  638MOL0     C86014   7.583   0.793   9.473 -0.2901  1.1524  0.6930
  638MOL0     C86015   7.601   0.945   9.468 -0.3798 -0.7776 -0.0277
  638MOL0     C86016   7.482   1.016   9.529  0.9757 -0.1347 -0.8724
  638MOL0     C86017   7.498   1.174   9.532 -0.9242 -0.2579  1.4413
  638MOL0     C86018   7.390   1.242   9.609  0.1695 -0.4849  0.1819
  638MOL0     O86019   7.416   1.216   9.748  0.1796  0.1212  0.8636
  638MOL0     C86020   7.313   1.185   9.830 -0.2447  0.1775 -0.8802
  638MOL0     C86021   7.336   1.096   9.931 -0.8393  0.3900  0.1163
  638MOL0     C86022   7.226   1.045  10.007 -0.7128  1.0232  0.0093
  638MOL0     C86023   7.096   1.068   9.973  0.2947  0.0179  0.3794
  638MOL0     C86024   6.979   1.004  10.041 -0.4888 -0.5263  0.9820
  638MOL0     O86025   6.861   1.020   9.978  0.1719  0.3636 -0.0574
  638MOL0     C86026   6.745   0.949  10.008 -1.2699  0.5959  0.0876
  638MOL0     C86027   6.635   0.971   9.921 -0.0428  0.7565  1.1558
  638MOL0     C86028   6.514   0.894   9.946 -0.0261 -0.0981 -0.2422
  638MOL0     C86029   6.498   0.831  10.073 -0.4320  0.0433 -0.0930
  638MOL0     O86030   6.379   0.771  10.109 -0.8630 -0.5101  1.3056
  638MOL0     C86031   6.292   0.721  10.004  0.6032  0.0103  0.0529
  638MOL0     C86032   6.161   0.805   9.992 -0.4204  0.3163  0.4945
  638MOL0     C86033   6.100   0.881  10.114 -0.1386 -0.5043 -0.3865
  638MOL0     C86034   6.027   1.013  10.076  1.1374 -1.0965 -0.5215
  638MOL0     C86035   6.108   1.134  10.038 -0.0241 -0.4351  0.3563
  638MOL0     C86036   6.027   1.243   9.960 -0.1874  0.0334 -0.4833
  638MOL0     C86037   5.974   1.205   9.814 -0.2826 -0.3103 -0.8701
  638MOL0     C86038   6.084   1.225   9.715  0.0556  1.0455 -0.3982
  638MOL0    Cl86039   6.037   1.147   9.566 -0.0768 -0.0629 -0.0859
  638MOL0     C86040   6.605   0.823  10.156 -0.6406 -0.0606  0.0815
  638MOL0     C86041   6.733   0.864  10.124  0.3064 -0.0887 -0.9033
  638MOL0     O86042   7.003   0.949  10.147  0.4483  0.2413  0.6372
  638MOL0     C86043   7.069   1.161   9.864 -0.0993 -0.3666 -0.1081
  638MOL0     C86044   7.179   1.213   9.801  0.0635  0.8699 -0.5317
  638MOL0     N86045   7.484   0.720   9.403 -0.4087 -0.4164 -0.3096
  638MOL0     N86046   7.511   0.601   9.435  0.7090  0.1793  0.3556
  638MOL0     C86047   8.168   0.053  10.506  0.0223  0.8041 -0.0346
  638MOL0     C86048   8.277   0.086  10.585  0.2857 -0.1496 -0.0254
  638MOL0     C86049   8.649   0.259  10.749  0.0546 -1.6395  0.0660
  638MOL0     C86050   8.603   0.330  10.861 -0.1952  1.0262 -0.2278
  638MOL0     C86051   8.679   0.331  10.983  0.8998 -0.1646 -0.0919
  638MOL0     C86052   8.797   0.260  10.994 -0.0439 -1.2004 -0.6649
  638MOL0     O86053   8.866   0.251  11.107 -0.5955 -0.0147  0.1880
  638MOL0     C86054   8.785   0.267  11.229 -0.2580  0.0620  0.0068
  638MOL0     C86055   8.878   0.213  11.341 -0.3509  0.1868  0.3259
  638MOL0     C86056   8.807   0.140  11.451  0.8358 -0.1177 -0.6245
  638MOL0     C86057   8.901   0.115  11.570  0.1836 -0.1633 -0.4522
  638MOL0     C86058   8.838   0.009  11.659 -0.7653  0.3587 -0.0927
  638MOL0     C86059   8.778  -0.073  11.728 -0.2336  0.0207  0.1608
  638MOL0     C86060   8.843   0.190  10.889  0.0323  0.8592  0.5233
  638MOL0     C86061   8.765   0.188  10.767  0.0570  0.3407 -0.5204
  638MOL0     C86062   8.811   0.093  10.667  0.0303 -0.4215  0.5226
  638MOL0     H86063   8.336   0.413  10.500 -1.4834  2.1380  0.5731
  638MOL0     H86064   8.146   0.359  10.345  2.0799  0.6945  0.4239
  638MOL0     H86065   7.973   0.273  10.230  1.0674 -0.4588  2.8603
  638MOL0     H86066   8.062   0.137  10.153  0.8701 -2.1190  1.4342
  638MOL0     H86067   7.771   0.089  10.242 -2.0601  2.0884 -0.0720
  638MOL0     H86068   7.861   0.029  10.099 -0.3424  0.9388 -2.1195
  638MOL0     H86069   7.870   0.283  10.040 -0.3697  0.2765  0.0582
  638MOL0     H86070   7.750   0.302  10.155  2.4053 -0.8584  0.9540
  638MOL0     H86071   7.711   0.107   9.918 -1.8246 -1.2039 -0.6175
  638MOL0     H86072   7.585   0.175  10.016 -0.4912 -0.1277 -2.3361
  638MOL0     H86073   7.654   0.414   9.939 -2.8094  1.1540 -3.2212
  638MOL0     H86074   7.780   0.331   9.846  0.5901  0.5988  1.6139
  638MOL0     H86075   7.590   0.200   9.747  3.1646 -1.5081  1.7429
  638MOL0     H86076   7.475   0.273   9.847  0.4741  1.6050  3.1113
  638MOL0     H86077   7.524   0.506   9.752 -0.1224 -2.0878  2.8263
  638MOL0     H86078   7.454   0.402   9.632  1.8141 -0.2372 -1.6336
  638MOL0     H86079   7.750   0.491   9.643 -0.7481  1.9572  1.3992
  638MOL0     H86080   7.663   0.389   9.515 -0.8959 -0.9844  1.2555
  638MOL0     H86081   7.757   0.731   9.599 -1.0133 -2.5940  1.9418
  638MOL0     H86082   7.692   0.969   9.525 -0.7447  0.3552  0.0993
  638MOL0     H86083   7.616   0.976   9.365 -1.6075  1.0109  0.2877
  638MOL0     H86084   7.396   1.002   9.463 -0.6177 -2.4318  1.4866
  638MOL0     H86085   7.472   0.970   9.628  2.0600 -2.5932 -1.8315
  638MOL0     H86086   7.482   1.207   9.429 -2.0805 -2.0856  0.9845
  638MOL0     H86087   7.600   1.190   9.567  0.4746 -1.8939 -1.4829
  638MOL0     H86088   7.304   1.193   9.563 -1.0843 -0.0639  1.9759
  638MOL0     H86089   7.379   1.349   9.591 -0.7998 -0.4573  0.8865
  638MOL0     H86090   7.439   1.074   9.960 -1.4538  1.2596  3.4014
  638MOL0     H86091   7.233   0.983  10.096 -1.4644  2.0395  0.8008
  638MOL0     H86092   6.647   1.036   9.835  0.1635  1.2302  1.5336
  638MOL0     H86093   6.433   0.905   9.875 -0.2073  0.1160 -0.0059
  638MOL0     H86094   6.342   0.721   9.907 -4.2552  1.7040 -2.8309
  638MOL0     H86095   6.257   0.623  10.039 -0.4356  0.5509  0.5964
  638MOL0     H86096   6.200   0.883   9.926 -0.0819 -0.6650 -0.4784
  638MOL0     H86097   6.090   0.747   9.933 -0.2524  1.8468 -1.2941
  638MOL0     H86098   6.022   0.820  10.162  1.3035 -1.2892  1.0638
  638MOL0     H86099   6.179   0.901  10.187 -0.8456  3.6462 -0.5263
  638MOL0     H86100   5.968   1.033  10.165  2.7065 -3.6176  1.2446
  638MOL0     H86101   5.953   0.999   9.997 -0.8865  2.6540  0.4617
  638MOL0     H86102   6.201   1.112   9.985  0.8308  3.5711 -0.0960
  638MOL0     H86103   6.158   1.185  10.120  0.1930  1.3558 -0.8268
  638MOL0     H86104   5.940   1.281  10.014 -0.4310  0.7092 -1.3328
  638MOL0     H86105   6.083   1.336   9.952  1.4580 -0.9660 -1.0568
  638MOL0     H86106   5.888   1.267   9.788  0.0751  0.2035 -0.8584
  638MOL0     H86107   5.932   1.105   9.811 -2.6258  0.6140 -0.7514
  638MOL0     H86108   6.103   1.330   9.690  3.1025  0.0819 -2.6343
  638MOL0     H86109   6.179   1.186   9.752  1.0468  1.5610 -2.2585
  638MOL0     H86110   6.580   0.772  10.249  0.1288  0.2099  0.4426
  638MOL0     H86111   6.818   0.836  10.186  0.9785  3.2771 -0.1374
  638MOL0     H86112   6.977   1.199   9.822  0.6011  1.8767  0.2816
  638MOL0     H86113   7.164   1.277   9.715  0.9183  0.2742 -1.1502
  638MOL0     H86114   8.127  -0.045  10.483  2.1088 -0.0856 -0.2208
  638MOL0     H86115   8.328   0.019  10.654  0.0636  1.4273  1.7168
  638MOL0     H86116   8.502   0.368  10.861  0.6636  3.5065  0.4336
  638MOL0     H86117   8.638   0.384  11.068 -2.0373 -0.6703 -1.0688
  638MOL0     H86118   8.694   0.207  11.225 -2.1751  2.1926  4.2978
  638MOL0     H86119   8.748   0.367  11.256 -0.4517 -0.6869  2.8196
  638MOL0     H86120   8.927   0.300  11.384 -1.0372  0.5047  0.4775
  638MOL0     H86121   8.943   0.139  11.293 -0.2722  1.3469 -1.4428
  638MOL0     H86122   8.750   0.050  11.426 -1.6696  1.4020 -0.7780
  638MOL0     H86123   8.723   0.207  11.470 -0.1288 -1.2229 -0.8611
  638MOL0     H86124   8.999   0.079  11.537  1.2927  1.2128  1.1702
  638MOL0     H86125   8.924   0.208  11.624  1.5231 -0.1593 -0.9830
  638MOL0     H86126   8.705  -0.147  11.753  0.0422 -0.3347 -0.0707
  638MOL0     H86127   8.931   0.130  10.909 -1.3768 -0.7528  2.2841
  638MOL0     H86128   8.731   0.024  10.641  0.2816 -0.4409 -0.2296
  638MOL0     H86129   8.843   0.143  10.575 -1.6988 -1.0310 -0.4661
  638MOL0     H86130   8.890   0.034  10.715 -0.4468  1.5848  4.1592
  639MOL0     O86131  10.912   2.218  10.856  0.9310 -0.2190  0.7193
  639MOL0     C86132  10.898   2.316  10.774  0.2709 -0.3457  0.3720
  639MOL0     O86133  10.785   2.376  10.749 -0.1795 -1.3799  0.2961
  639MOL0     C86134  10.675   2.320  10.797 -0.3272  0.4661  0.1028
  639MOL0     C86135  10.599   2.394  10.877  0.1472 -0.1861  0.7283
  639MOL0     C86136  10.482   2.343  10.938 -0.1327 -0.2370  1.1584
  639MOL0     C86137  10.436   2.211  10.904 -0.1978 -0.8794 -0.2114
  639MOL0     O86138  10.317   2.172  10.943 -0.0609 -0.0387 -0.5440
  639MOL0     C86139  10.265   2.221  11.077  0.3567  0.9750 -0.8676
  639MOL0     C86140  10.175   2.108  11.146 -0.8038 -0.3864 -0.1358
  639MOL0     C86141  10.255   1.980  11.160  0.1542 -0.1180  0.1849
  639MOL0     C86142  10.164   1.870  11.209 -0.2479 -1.4104  0.0494
  639MOL0     C86143  10.234   1.736  11.250 -0.4118  0.1928 -0.0278
  639MOL0     C86144  10.143   1.614  11.246 -0.0380  0.4364 -0.2880
  639MOL0     C86145  10.070   1.581  11.375  0.1912  0.1210  0.4924
  639MOL0     C86146   9.963   1.474  11.342 -0.3060  0.4948 -0.0743
  639MOL0     N86147  10.022   1.341  11.318  0.0225 -0.6438 -0.8186
  639MOL0     C86148  10.022   1.279  11.192  0.7034 -0.0960 -0.3764
  639MOL0     C86149  10.114   1.180  11.207 -0.1026 -0.5014 -0.2647
  639MOL0     C86150  10.161   1.102  11.086  0.1428  0.2207 -0.4024
  639MOL0     C86151  10.108   0.962  11.108  0.5227  0.6208 -0.3936
  639MOL0     C86152  10.159   0.876  11.222  0.8379 -0.0815 -0.5293
  639MOL0     C86153  10.299   0.827  11.200  0.0993 -0.7323 -0.8295
  639MOL0     O86154  10.335   0.767  11.077  0.8408  0.1879 -0.3885
  639MOL0     C86155  10.362   0.633  11.085 -0.1457 -0.0675  0.8541
  639MOL0     C86156  10.266   0.527  11.101 -0.0470 -1.0320  0.8568
  639MOL0     C86157  10.293   0.390  11.091 -0.1119 -0.0442 -0.5019
  639MOL0     C86158  10.430   0.352  11.071  0.0715 -0.0434 -0.2155
  639MOL0     C86159  10.476   0.219  11.065 -0.3793 -0.2477  0.3213
  639MOL0     O86160  10.612   0.201  11.060 -0.2784  0.6816  0.3476
  639MOL0     C86161  10.660   0.077  11.043 -0.4194  0.6822 -1.3592
  639MOL0     C86162  10.702  -0.006  11.149 -0.0165  0.3511 -0.5010
  639MOL0     C86163  10.724  -0.144  11.137 -0.0138 -0.0505  0.4252
  639MOL0     C86164  10.704  -0.206  11.012 -0.5700  1.5340 -0.2857
  639MOL0     O86165  10.710  -0.337  11.006 -0.6586  0.0559 -0.8563
  639MOL0     C86166  10.777  -0.397  10.892 -0.2397 -0.0701  0.0032
  639MOL0     C86167  10.770  -0.552  10.883  0.1061 -0.6525 -0.0181
  639MOL0     C86168  10.891  -0.616  10.812  0.3009  0.4977 -0.2273
  639MOL0     C86169  10.932  -0.566  10.678  0.6448 -0.5898  0.4507
  639MOL0     C86170  11.055  -0.654  10.631  0.1537 -0.1236  0.6022
  639MOL0     C86171  11.183  -0.564  10.635  0.5519  0.0976  0.5346
  639MOL0     C86172  11.222  -0.504  10.776  0.4960 -0.3324  0.1511
  639MOL0     C86173  11.336  -0.411  10.747 -0.5001 -0.0156 -0.7702
  639MOL0    Cl86174  11.466  -0.482  10.646 -0.7854  0.1459 -0.1819
  639MOL0     C86175  10.672  -0.120  10.899 -0.3438  0.1942 -0.5588
  639MOL0     C86176  10.643   0.015  10.925  0.6512  1.0594 -0.5239
  639MOL0     O86177  10.392   0.136  11.088 -0.3486 -0.4773 -0.0397
  639MOL0     C86178  10.522   0.452  11.049 -0.1080 -0.1305  0.0179
  639MOL0     C86179  10.486   0.589  11.044  0.4397 -0.7242 -0.6951
  639MOL0     N86180  10.176   1.182  11.333 -0.2458  0.9033 -0.5090
  639MOL0     N86181  10.119   1.280  11.395 -0.0792  0.5369 -0.0310
  639MOL0     C86182  10.517   2.132  10.816 -0.1771 -0.1578  0.6153
  639MOL0     C86183  10.635   2.198  10.759 -0.0573 -0.4073  0.4389
  639MOL0     C86184  11.019   2.387  10.727 -0.5038  0.1966 -0.8826
  639MOL0     C86185  11.032   2.407  10.593 -0.1288 -0.9646 -0.5211
  639MOL0     C86186  11.158   2.456  10.540 -0.1372 -0.0797  0.3541
  639MOL0     C86187  11.274   2.485  10.618 -0.8043 -0.3319  0.2763
  639MOL0     O86188  11.401   2.494  10.572  0.2071 -0.1560  0.1318
  639MOL0     C86189  11.396   2.553  10.440  0.9596 -0.7684 -0.9054
  639MOL0     C86190  11.545   2.594  10.430 -0.4465 -0.4512 -0.2354
  639MOL0     C86191  11.557   2.702  10.315  0.1699  0.2535 -0.0194
  639MOL0     C86192  11.546   2.660  10.169  0.0338  1.5000 -0.0499
  639MOL0     C86193  11.600   2.749  10.064 -0.7866  0.7589 -0.8148
  639MOL0     C86194  11.635   2.815   9.971  0.5521  0.8575 -1.0537
  639MOL0     C86195  11.257   2.474  10.758  0.1101  0.1521  0.2454
  639MOL0     C86196  11.132   2.408  10.808 -0.8704  0.1740  0.2201
  639MOL0     C86197  11.137   2.368  10.951 -0.0646 -0.0034  0.6473
  639MOL0     H86198  10.635   2.491  10.907 -1.2591  0.0392  1.7684
  639MOL0     H86199  10.419   2.414  10.990  1.0825  2.3763 -0.7753
  639MOL0     H86200  10.344   2.237  11.151  2.0920  0.3747 -2.5060
  639MOL0     H86201  10.202   2.308  11.055 -1.3129  0.4620  1.4847
  639MOL0     H86202  10.086   2.092  11.084 -2.2723 -0.0411  1.8018
  639MOL0     H86203  10.147   2.142  11.246 -1.5434  0.0690 -0.4894
  639MOL0     H86204  10.344   1.986  11.224  1.4828  1.3844 -1.7226
  639MOL0     H86205  10.285   1.949  11.060 -1.7119 -0.8049 -0.2068
  639MOL0     H86206  10.117   1.903  11.302 -1.3646 -1.4712 -0.4661
  639MOL0     H86207  10.095   1.845  11.127  0.5637  0.2835 -1.1934
  639MOL0     H86208  10.318   1.709  11.185 -0.6340  2.5667 -1.3948
  639MOL0     H86209  10.276   1.744  11.351  2.1637  0.0597 -0.9991
  639MOL0     H86210  10.065   1.643  11.175  2.0806 -2.0754 -3.9806
  639MOL0     H86211  10.205   1.536  11.201  1.3257  2.1197 -1.4860
  639MOL0     H86212  10.012   1.668  11.409  0.8995  0.3607  1.1120
  639MOL0     H86213  10.129   1.554  11.464  4.5043  2.4698 -1.3522
  639MOL0     H86214   9.894   1.474  11.427 -1.0791  1.4586 -0.6793
  639MOL0     H86215   9.916   1.501  11.247  0.2844 -0.7188 -0.7349
  639MOL0     H86216   9.982   1.321  11.100 -0.9539  3.1515  1.6503
  639MOL0     H86217  10.123   1.150  10.996 -2.0770  1.4468  1.0899
  639MOL0     H86218  10.270   1.094  11.081  0.1508 -2.1982  1.5687
  639MOL0     H86219  10.000   0.960  11.122  0.4992 -1.3262 -0.5608
  639MOL0     H86220  10.127   0.899  11.021 -5.2506 -3.0484  0.4583
  639MOL0     H86221  10.090   0.792  11.223  1.7115 -1.0419  3.8089
  639MOL0     H86222  10.139   0.931  11.315 -0.6560  2.1973 -2.1045
  639MOL0     H86223  10.315   0.758  11.283 -0.6447 -1.1211 -1.0027
  639MOL0     H86224  10.369   0.912  11.205 -0.9514  0.1062  2.0306
  639MOL0     H86225  10.163   0.557  11.121 -0.5279 -1.3657 -0.9360
  639MOL0     H86226  10.231   0.305  11.119 -0.3135  1.2779  3.8683
  639MOL0     H86227  10.687   0.027  11.251  1.5260 -2.9556  0.9297
  639MOL0     H86228  10.742  -0.215  11.217  2.2831  0.7680  0.7221
  639MOL0     H86229  10.747  -0.363  10.792  4.1715  0.6661 -1.2639
  639MOL0     H86230  10.884  -0.376  10.893 -0.4001  1.3275 -2.6613
  639MOL0     H86231  10.755  -0.596  10.982 -3.6814 -2.6029 -1.2944
  639MOL0     H86232  10.687  -0.582  10.819 -0.0219 -0.0665 -0.1378
  639MOL0     H86233  10.981  -0.605  10.873  1.6519 -2.2004 -1.5844
  639MOL0     H86234  10.869  -0.723  10.807  2.3628  0.1140 -3.3650
  639MOL0     H86235  10.963  -0.462  10.673  0.8122 -0.5944  1.2260
  639MOL0     H86236  10.840  -0.579  10.620 -1.7383  3.4032  2.8550
  639MOL0     H86237  11.040  -0.669  10.523  0.5145  0.4501  0.4681
  639MOL0     H86238  11.077  -0.752  10.675  1.8115  1.0478  2.5664
  639MOL0     H86239  11.262  -0.633  10.603  2.1393  1.6152  0.9840
  639MOL0     H86240  11.176  -0.481  10.563 -1.0014 -0.9630 -0.5934
  639MOL0     H86241  11.256  -0.584  10.843 -1.3687  1.0590  2.9575
  639MOL0     H86242  11.132  -0.455  10.813 -0.0995  0.3650 -2.0692
  639MOL0     H86243  11.283  -0.331  10.695 -1.9817  0.1480  0.8949
  639MOL0     H86244  11.380  -0.381  10.843 -1.7489 -1.0578  0.1588
  639MOL0     H86245  10.634  -0.153  10.803 -1.9334 -0.7373  0.3294
  639MOL0     H86246  10.599   0.080  10.849 -0.7569  1.1542  0.3341
  639MOL0     H86247  10.627   0.440  11.022  1.4256 -0.4078  5.1118
  639MOL0     H86248  10.565   0.663  11.036  0.4544 -0.9091 -2.9868
  639MOL0     H86249  10.475   2.034  10.795  0.0582  0.2543 -2.1975
  639MOL0     H86250  10.701   2.148  10.689  0.0894 -2.0546  1.7003
  639MOL0     H86251  10.947   2.403  10.525 -0.0341  1.8239 -0.9453
  639MOL0     H86252  11.160   2.459  10.431 -0.1578 -0.7923  0.3322
  639MOL0     H86253  11.341   2.648  10.445  2.5532  0.1835 -0.4908
  639MOL0     H86254  11.355   2.483  10.367 -1.1647  1.7034 -2.2397
  639MOL0     H86255  11.621   2.521  10.401  1.6466  1.5323 -0.0494
  639MOL0     H86256  11.574   2.646  10.522  2.2783 -1.1741 -0.5929
  639MOL0     H86257  11.654   2.751  10.323  0.8645 -1.0254 -0.2733
  639MOL0     H86258  11.489   2.782  10.344  0.1276 -0.1969  1.1826
  639MOL0     H86259  11.584   2.558  10.157  0.9424  1.4810  2.4815
  639MOL0     H86260  11.439   2.654  10.148  0.3446  2.2411 -2.0750
  639MOL0     H86261  11.677   2.861   9.883 -0.0951  0.5561 -1.5263
  639MOL0     H86262  11.331   2.510  10.830  0.6332  2.8102 -1.4732
  639MOL0     H86263  11.232   2.410  10.987  1.3402  0.4229 -3.0791
  639MOL0     H86264  11.056   2.421  11.002 -0.1337  1.3420 -0.8011
  639MOL0     H86265  11.124   2.262  10.975 -1.3845  0.3495  1.6361
  640MOL0     O86266   5.647   8.083   0.006 -0.6162 -0.1084 -0.5528
  640MOL0     C86267   5.607   8.007   0.098  0.7148 -0.7290  0.3888
  640MOL0     O86268   5.485   8.026   0.164  0.4399  0.5036 -0.5292
  640MOL0     C86269   5.388   8.114   0.123 -0.0346  0.2410  0.0897
  640MOL0     C86270   5.413   8.246   0.081 -0.3992  0.4121  0.5164
  640MOL0     C86271   5.313   8.326   0.025  0.2952 -0.1929 -0.2558
  640MOL0     C86272   5.183   8.288   0.008  0.3535  0.0590  0.3298
  640MOL0     O86273   5.083   8.377  -0.040 -0.4302 -0.0679  0.1384
  640MOL0     C86274   5.103   8.419  -0.179  0.6990 -0.1000  0.0610
  640MOL0     C86275   5.084   8.296  -0.278  1.2523  0.0238 -0.1907
  640MOL0     C86276   4.944   8.241  -0.271  0.5216  0.6993 -0.4201
  640MOL0     C86277   4.918   8.127  -0.374  0.0049 -0.0727 -0.4597
  640MOL0     C86278   4.772   8.118  -0.427  0.9244  0.2512  0.5940
  640MOL0     C86279   4.682   8.046  -0.326  1.0458  0.1246 -0.3378
  640MOL0     C86280   4.539   8.014  -0.370 -0.4958  1.1783 -0.9925
  640MOL0     C86281   4.535   7.907  -0.484 -0.6131  0.6087  0.2140
  640MOL0     N86282   4.643   7.803  -0.481 -0.0573  0.9007 -0.7441
  640MOL0     C86283   4.654   7.717  -0.380  0.1850 -0.5046  0.3196
  640MOL0     C86284   4.754   7.635  -0.414  0.0865  1.0700 -0.4107
  640MOL0     C86285   4.816   7.529  -0.332 -0.2980  0.4517 -0.1463
  640MOL0     C86286   4.962   7.543  -0.296  0.0739  0.2435  0.4077
  640MOL0     C86287   5.052   7.581  -0.412 -0.5672  0.4070 -1.2278
  640MOL0     C86288   5.196   7.557  -0.363  0.0410  0.1335 -0.1275
  640MOL0     O86289   5.243   7.663  -0.281 -0.5943  0.4237 -0.1328
  640MOL0     C86290   5.257   7.787  -0.336  0.3184  0.8113 -0.6021
  640MOL0     C86291   5.256   7.808  -0.469  0.0940  0.6622  0.4313
  640MOL0     C86292   5.298   7.928  -0.519 -0.3396 -0.0279 -0.7030
  640MOL0     C86293   5.329   8.033  -0.434 -0.3838 -0.3449  0.4873
  640MOL0     C86294   5.400   8.154  -0.490 -0.8717 -0.8809 -0.0941
  640MOL0     O86295   5.367   8.270  -0.419 -0.0354  0.2601  0.1575
  640MOL0     C86296   5.446   8.387  -0.442 -0.2304  0.3260 -0.0904
  640MOL0     C86297   5.579   8.381  -0.412 -0.4923  0.0357 -0.2536
  640MOL0     C86298   5.656   8.502  -0.410  0.1262 -0.3016  0.4860
  640MOL0     C86299   5.595   8.626  -0.441  0.5692 -0.1547  0.2045
  640MOL0     O86300   5.671   8.744  -0.438  0.0223  0.4453 -0.6883
  640MOL0     C86301   5.678   8.818  -0.564  0.2195  0.5704  0.4791
  640MOL0     C86302   5.764   8.930  -0.533 -0.0561 -0.4033  0.0149
  640MOL0     C86303   5.917   8.902  -0.522 -0.1695  0.1589 -0.1605
  640MOL0     C86304   6.014   9.021  -0.471 -0.7394 -0.0458  0.3834
  640MOL0     C86305   6.164   8.976  -0.480 -0.3143  0.0979  0.1968
  640MOL0     C86306   6.259   9.095  -0.481  0.4187 -0.5226  0.2724
  640MOL0     C86307   6.245   9.186  -0.361 -0.0954  0.2268  0.0665
  640MOL0     C86308   6.350   9.277  -0.329 -0.9564  0.2142 -0.0635
  640MOL0    Cl86309   6.383   9.396  -0.457  0.3894  0.2973  0.5968
  640MOL0     C86310   5.458   8.628  -0.470  0.4629  1.4080 -0.0706
  640MOL0     C86311   5.377   8.505  -0.479 -0.9876  0.4824 -0.2818
  640MOL0     O86312   5.472   8.160  -0.586 -0.5309  0.5226  0.1759
  640MOL0     C86313   5.315   8.020  -0.300 -0.9728  0.9696  0.5280
  640MOL0     C86314   5.273   7.899  -0.253 -0.4599  0.2418 -0.2525
  640MOL0     N86315   4.783   7.660  -0.545  0.0166 -0.0610  0.2243
  640MOL0     N86316   4.714   7.759  -0.586  0.7032  0.0383  0.9403
  640MOL0     C86317   5.153   8.158   0.071 -0.3848 -0.4629  0.0036
  640MOL0     C86318   5.253   8.074   0.124  0.0965 -0.0499 -0.1686
  640MOL0     C86319   5.686   7.891   0.137 -0.1194 -0.2490  0.1874
  640MOL0     C86320   5.636   7.808   0.244  0.4725  0.2037 -0.2629
  640MOL0     C86321   5.716   7.706   0.290  0.9187  0.1459 -0.1831
  640MOL0     C86322   5.839   7.669   0.236 -0.5662  0.5379  0.4208
  640MOL0     O86323   5.909   7.556   0.274  0.1191  0.1105 -0.1146
  640MOL0     C86324   5.919   7.518   0.411  0.2841 -1.1367  0.6890
  640MOL0     C86325   6.010   7.404   0.441  0.1649 -0.5989 -0.0532
  640MOL0     C86326   5.947   7.281   0.372 -0.2467 -0.2730 -0.0225
  640MOL0     C86327   6.055   7.182   0.326 -0.0029 -0.6172  1.1306
  640MOL0     C86328   6.119   7.132   0.450 -0.5082  0.0709 -0.2765
  640MOL0     C86329   6.178   7.081   0.547  0.5206  0.1739  0.6711
  640MOL0     C86330   5.894   7.746   0.134 -1.5450  0.5045 -0.4426
  640MOL0     C86331   5.820   7.864   0.088 -0.0304 -0.1857  0.2252
  640MOL0     C86332   5.898   7.942  -0.015 -0.4062  0.7083  0.1647
  640MOL0     H86333   5.510   8.296   0.080 -0.5270  0.6712  0.7068
  640MOL0     H86334   5.342   8.418  -0.024 -0.9351  1.1747  1.4748
  640MOL0     H86335   5.029   8.493  -0.211  1.0046 -0.2772 -1.1219
  640MOL0     H86336   5.195   8.476  -0.198  2.3738 -2.8525 -0.6250
  640MOL0     H86337   5.152   8.211  -0.266 -0.0718 -1.1155 -0.5674
  640MOL0     H86338   5.109   8.334  -0.377  2.3267 -0.0204  0.0405
  640MOL0     H86339   4.877   8.324  -0.290  1.3406  1.7937  1.2133
  640MOL0     H86340   4.926   8.204  -0.169 -0.7420 -0.8058 -1.1558
  640MOL0     H86341   4.970   8.153  -0.467 -2.1801 -0.4322 -1.8494
  640MOL0     H86342   4.939   8.029  -0.332 -2.3942 -0.2877  0.4004
  640MOL0     H86343   4.739   8.220  -0.446  0.6785  0.1589  0.5351
  640MOL0     H86344   4.771   8.067  -0.524  2.4933 -1.6560  1.4914
  640MOL0     H86345   4.734   7.953  -0.301  2.0306 -0.2267 -3.2042
  640MOL0     H86346   4.694   8.099  -0.231 -2.0006 -1.7765  1.2482
  640MOL0     H86347   4.486   8.109  -0.380  0.2854  2.4496  4.2434
  640MOL0     H86348   4.484   7.957  -0.295  0.9974  2.4174  1.1386
  640MOL0     H86349   4.436   7.860  -0.490  0.3662 -1.5435  0.0255
  640MOL0     H86350   4.558   7.958  -0.578 -1.3785  0.3573 -0.1177
  640MOL0     H86351   4.606   7.700  -0.284  0.4271 -0.6151  0.4236
  640MOL0     H86352   4.758   7.516  -0.241  0.5471 -1.4376  0.1783
  640MOL0     H86353   4.804   7.430  -0.378  0.6314  1.1052 -1.9010
  640MOL0     H86354   4.968   7.628  -0.228  2.2001  0.6613 -0.2118
  640MOL0     H86355   4.990   7.451  -0.244  1.6716  1.4328  1.7841
  640MOL0     H86356   5.033   7.676  -0.464 -1.2319 -0.3270 -2.3506
  640MOL0     H86357   5.046   7.514  -0.498 -0.1314 -0.6452 -0.4491
  640MOL0     H86358   5.254   7.539  -0.453 -1.1117  1.1791 -1.1201
  640MOL0     H86359   5.199   7.465  -0.304 -0.8089  1.1826  1.6508
  640MOL0     H86360   5.244   7.731  -0.544  0.4756  0.9887  0.0335
  640MOL0     H86361   5.323   7.952  -0.622  3.0852 -0.9824 -0.2435
  640MOL0     H86362   5.607   8.277  -0.400  2.0782  0.8752  1.7932
  640MOL0     H86363   5.757   8.494  -0.371  0.6561  1.9109 -0.2873
  640MOL0     H86364   5.703   8.742  -0.639 -0.2636 -0.5130  1.3838
  640MOL0     H86365   5.577   8.848  -0.589 -0.1882 -2.2965 -1.8484
  640MOL0     H86366   5.744   9.002  -0.613  0.2903  2.4580  2.3287
  640MOL0     H86367   5.725   8.979  -0.443  2.3784  0.4803  0.6726
  640MOL0     H86368   5.926   8.818  -0.452 -0.5550  0.3599  0.1337
  640MOL0     H86369   5.944   8.867  -0.622  0.9248  2.5121 -0.7484
  640MOL0     H86370   5.981   9.052  -0.372 -2.8034  0.0020 -0.2634
  640MOL0     H86371   6.000   9.110  -0.533 -0.6295  0.1595  0.6564
  640MOL0     H86372   6.183   8.912  -0.567  1.5165 -2.1297  2.1068
  640MOL0     H86373   6.185   8.914  -0.393  0.4836  1.3546  0.9237
  640MOL0     H86374   6.365   9.065  -0.479  1.0851  1.5525 -1.0066
  640MOL0     H86375   6.247   9.146  -0.576  3.0431 -0.4821 -0.1052
  640MOL0     H86376   6.228   9.126  -0.271 -1.4477  0.5298  0.0421
  640MOL0     H86377   6.150   9.240  -0.369 -0.2087 -0.0465 -0.4856
  640MOL0     H86378   6.341   9.328  -0.233  2.0528 -0.7900  0.8506
  640MOL0     H86379   6.442   9.218  -0.317 -1.7026 -0.6978  1.5056
  640MOL0     H86380   5.417   8.722  -0.507  1.9753  2.4582  0.8236
  640MOL0     H86381   5.270   8.510  -0.501 -1.1154 -3.4798 -1.1828
  640MOL0     H86382   5.351   8.093  -0.228 -0.1044 -2.1855  3.5780
  640MOL0     H86383   5.263   7.892  -0.145  0.3270  1.5443 -0.0685
  640MOL0     H86384   5.054   8.115   0.083 -1.5786  1.5169 -1.9121
  640MOL0     H86385   5.237   7.977   0.169 -0.5672 -0.1962 -0.7078
  640MOL0     H86386   5.535   7.826   0.278 -1.0854 -2.9094 -2.6904
  640MOL0     H86387   5.668   7.648   0.369  1.5522 -0.1372 -0.0011
  640MOL0     H86388   5.821   7.491   0.452  1.5435 -2.7766  2.8923
  640MOL0     H86389   5.946   7.608   0.467 -1.2007 -0.4201  0.3156
  640MOL0     H86390   6.014   7.393   0.550 -0.2284  4.0615  0.6644
  640MOL0     H86391   6.115   7.413   0.411  0.6890 -0.6012  1.6524
  640MOL0     H86392   5.885   7.314   0.288 -0.7051  2.4453  1.2737
  640MOL0     H86393   5.893   7.242   0.459  0.1257  1.4679  1.0534
  640MOL0     H86394   6.024   7.101   0.260 -0.1307  0.0413  0.3595
  640MOL0     H86395   6.133   7.227   0.265 -1.1682 -2.4522 -1.9106
  640MOL0     H86396   6.249   7.034   0.612  1.2433 -2.7475 -1.9250
  640MOL0     H86397   5.991   7.723   0.092 -0.6641  2.9584  0.0754
  640MOL0     H86398   6.006   7.941   0.000 -0.1947  0.0509 -1.2227
  640MOL0     H86399   5.873   7.895  -0.111  0.9737  0.0600  0.0989
  640MOL0     H86400   5.867   8.046  -0.027 -4.5342 -0.6171 -2.7781
  641MOL0     O86401   0.001   5.588  10.949  0.6338 -0.3674 -0.2837
  641MOL0     C86402   0.077   5.488  10.949 -1.0435 -1.4830 -1.0454
  641MOL0     O86403   0.045   5.356  10.945  0.0075  0.0571  0.7262
  641MOL0     C86404  -0.094   5.322  10.920 -0.0828 -0.1690  1.0611
  641MOL0     C86405  -0.187   5.329  11.020 -0.1142  0.0144  0.6520
  641MOL0     C86406  -0.317   5.290  11.001  0.2831  0.0284 -0.0636
  641MOL0     C86407  -0.354   5.229  10.872  0.4804  0.0483 -0.6220
  641MOL0     O86408  -0.477   5.180  10.826  0.0019 -0.5195 -1.0966
  641MOL0     C86409  -0.589   5.166  10.918 -0.3113  0.7332  0.7993
  641MOL0     C86410  -0.713   5.195  10.832 -0.4922 -0.1409 -0.3002
  641MOL0     C86411  -0.839   5.196  10.907  0.3047  0.5939 -0.5526
  641MOL0     C86412  -0.977   5.187  10.830 -0.0295  1.1843  0.0025
  641MOL0     C86413  -1.088   5.104  10.892 -0.2609 -0.5221 -0.3707
  641MOL0     C86414  -1.049   4.955  10.893  0.3963 -0.0125 -0.5045
  641MOL0     C86415  -1.062   4.890  10.757 -0.6699 -0.2440  0.3741
  641MOL0     C86416  -1.187   4.802  10.735 -0.0142 -0.7525 -0.0070
  641MOL0     N86417  -1.146   4.695  10.636 -0.2146 -0.8319 -0.3781
  641MOL0     C86418  -1.121   4.561  10.668  0.2526  0.7211 -0.1146
  641MOL0     C86419  -1.114   4.500  10.546 -0.0646  1.0812  0.8907
  641MOL0     C86420  -1.086   4.353  10.521  0.1894 -0.3154 -1.8605
  641MOL0     C86421  -1.134   4.297  10.396 -0.3736 -0.2391 -0.0850
  641MOL0     C86422  -1.080   4.153  10.381  0.2112  0.3588 -0.7929
  641MOL0     C86423  -1.178   4.072  10.304  0.0814 -0.1581 -0.3823
  641MOL0     O86424  -1.168   3.930  10.330  0.8698 -0.3201 -0.4189
  641MOL0     C86425  -1.245   3.836  10.254  0.6167 -0.2934  0.8316
  641MOL0     C86426  -1.327   3.862  10.139  0.1644 -0.2753  0.4855
  641MOL0     C86427  -1.399   3.754  10.074 -0.7859  0.0771  0.0329
  641MOL0     C86428  -1.379   3.624  10.122 -0.1009  0.2959  0.7435
  641MOL0     C86429  -1.450   3.511  10.055  0.6201 -0.3407 -0.7321
  641MOL0     O86430  -1.453   3.399  10.123 -0.7978  0.0311  0.7920
  641MOL0     C86431  -1.513   3.290  10.081  0.4088 -0.2884  0.7738
  641MOL0     C86432  -1.633   3.284  10.007  0.7049  0.7082  0.7844
  641MOL0     C86433  -1.697   3.158   9.981 -0.4720  0.8244  0.3513
  641MOL0     C86434  -1.639   3.039  10.033 -0.0953 -0.5514  0.1039
  641MOL0     O86435  -1.691   2.916  10.015  0.1823 -0.2359  0.7171
  641MOL0     C86436  -1.826   2.900  10.040  0.0606 -0.4192 -0.2681
  641MOL0     C86437  -1.872   2.760  10.051  0.6943  0.2048 -0.1415
  641MOL0     C86438  -1.865   2.678   9.925 -0.4292  0.2117  0.3977
  641MOL0     C86439  -1.953   2.558   9.918  0.2046  0.0368  0.2820
  641MOL0     C86440  -1.887   2.442   9.980 -0.1864  1.1603  0.1624
  641MOL0     C86441  -1.981   2.321   9.990 -0.7509 -0.5738 -0.6440
  641MOL0     C86442  -1.983   2.228   9.873  0.2751  0.2395 -0.2832
  641MOL0     C86443  -1.856   2.141   9.864 -0.3115  0.9990 -0.6119
  641MOL0    Cl86444  -1.862   1.987   9.774 -0.0316  0.0924 -0.2936
  641MOL0     C86445  -1.515   3.047  10.097 -0.0588  0.5470  0.3085
  641MOL0     C86446  -1.458   3.173  10.127 -0.1709  0.9649 -0.0399
  641MOL0     O86447  -1.497   3.537   9.945 -0.3049  0.3515 -0.1605
  641MOL0     C86448  -1.291   3.599  10.229 -0.2631  0.3591 -0.7081
  641MOL0     C86449  -1.227   3.707  10.295 -0.0856 -0.3954  0.2001
  641MOL0     N86450  -1.146   4.595  10.446  0.1064 -0.5789 -0.2174
  641MOL0     N86451  -1.171   4.708  10.502 -0.1482 -0.4730 -0.6849
  641MOL0     C86452  -0.250   5.219  10.773  0.9368 -0.1109  0.6326
  641MOL0     C86453  -0.120   5.266  10.793  0.4067  0.8922 -0.9780
  641MOL0     C86454   0.223   5.521  10.967 -0.9048  0.5447 -0.2411
  641MOL0     C86455   0.309   5.411  10.941  0.4817  0.6658 -0.6996
  641MOL0     C86456   0.447   5.424  10.970 -0.1508 -0.4111  0.0036
  641MOL0     C86457   0.503   5.543  11.022  0.4085  0.0467 -0.2990
  641MOL0     O86458   0.637   5.542  11.044 -0.2139  0.0982  0.8731
  641MOL0     C86459   0.711   5.659  11.010 -0.4815  0.0560 -1.4418
  641MOL0     C86460   0.854   5.625  10.961  0.0324  0.1753  0.4542
  641MOL0     C86461   0.845   5.596  10.805  0.0799  0.5654 -0.6499
  641MOL0     C86462   0.979   5.525  10.766 -1.0161  0.4910 -0.2246
  641MOL0     C86463   1.100   5.616  10.754  0.5986  0.6467  0.1390
  641MOL0     C86464   1.205   5.667  10.759 -0.4525  0.5686  0.6302
  641MOL0     C86465   0.410   5.655  11.040 -0.1918  0.1994 -1.0875
  641MOL0     C86466   0.274   5.648  11.007 -0.2420 -0.4134  0.3411
  641MOL0     C86467   0.200   5.779  11.024 -0.8157  0.0662  0.2638
  641MOL0     H86468  -0.153   5.361  11.118  1.1713  0.0903  0.1989
  641MOL0     H86469  -0.389   5.314  11.079 -0.4404 -1.2331 -0.3062
  641MOL0     H86470  -0.599   5.067  10.964 -0.9681 -0.3464 -1.5139
  641MOL0     H86471  -0.581   5.238  11.000  0.9939  2.0456 -0.4208
  641MOL0     H86472  -0.737   5.119  10.756 -1.9561  0.0501 -0.0708
  641MOL0     H86473  -0.707   5.291  10.779 -1.4228 -1.0248 -2.1278
  641MOL0     H86474  -0.837   5.283  10.974 -2.3191 -0.1494  0.6152
  641MOL0     H86475  -0.829   5.112  10.977  2.4080 -0.9240 -2.5080
  641MOL0     H86476  -1.009   5.291  10.837  3.6020  2.3591  1.1354
  641MOL0     H86477  -0.962   5.163  10.724  1.2509 -0.2165  0.4617
  641MOL0     H86478  -1.104   5.157  10.986 -0.1938 -0.7189 -0.2456
  641MOL0     H86479  -1.178   5.124  10.835  0.6439  1.9287 -1.0535
  641MOL0     H86480  -0.943   4.940  10.916  1.2376  1.8369 -2.8139
  641MOL0     H86481  -1.110   4.903  10.967 -0.0052 -0.2985 -1.0281
  641MOL0     H86482  -0.966   4.837  10.761 -0.9267 -0.9852 -1.7086
  641MOL0     H86483  -1.051   4.967  10.680 -1.2560  0.1026  0.6314
  641MOL0     H86484  -1.212   4.747  10.826 -1.2939  1.9397  1.3662
  641MOL0     H86485  -1.266   4.871  10.704  2.3715  3.0438  1.7363
  641MOL0     H86486  -1.099   4.507  10.759 -3.1068  0.0682  0.4115
  641MOL0     H86487  -0.978   4.334  10.526 -0.5788 -6.0749  1.0794
  641MOL0     H86488  -1.119   4.290  10.604  4.3233  2.3127  2.2441
  641MOL0     H86489  -1.243   4.307  10.401 -0.2181  1.5404  0.5038
  641MOL0     H86490  -1.090   4.358  10.317 -1.1939 -0.3382 -0.6249
  641MOL0     H86491  -1.076   4.108  10.481 -0.8454  1.4018 -0.2550
  641MOL0     H86492  -0.985   4.150  10.328 -0.8551  1.2961 -2.8731
  641MOL0     H86493  -1.189   4.099  10.199  0.3401  0.3949 -0.2711
  641MOL0     H86494  -1.274   4.106  10.345  0.4319  2.4470 -1.5386
  641MOL0     H86495  -1.326   3.962  10.098 -1.0127  0.5553  2.3294
  641MOL0     H86496  -1.454   3.783   9.986 -1.2079  1.9164  0.8545
  641MOL0     H86497  -1.668   3.375   9.960  0.3976  0.5723  0.7466
  641MOL0     H86498  -1.788   3.160   9.922  0.1306  0.8157 -0.5985
  641MOL0     H86499  -1.848   2.950  10.135  1.4333 -0.6994  0.2134
  641MOL0     H86500  -1.880   2.950   9.960 -0.8959  0.1118  0.6824
  641MOL0     H86501  -1.820   2.708  10.132  3.2103  2.2874 -0.2798
  641MOL0     H86502  -1.978   2.768  10.078  0.4185 -1.0650 -0.7544
  641MOL0     H86503  -1.897   2.758   9.858 -2.8390 -1.2393 -0.3203
  641MOL0     H86504  -1.761   2.654   9.899 -1.1505 -2.7644 -0.1839
  641MOL0     H86505  -1.970   2.547   9.810  0.7156  1.1111  0.0800
  641MOL0     H86506  -2.051   2.569   9.964  0.0170 -0.2547 -0.0385
  641MOL0     H86507  -1.852   2.468  10.080  1.4711 -0.5651  0.0852
  641MOL0     H86508  -1.791   2.419   9.933 -0.8581  0.0935 -0.7413
  641MOL0     H86509  -1.942   2.263  10.075 -0.2154 -0.2750 -0.6778
  641MOL0     H86510  -2.084   2.355  10.006 -0.3224  0.4985 -0.0034
  641MOL0     H86511  -1.985   2.286   9.780 -3.1028  0.8871  0.0622
  641MOL0     H86512  -2.070   2.162   9.876  2.2533 -2.5329  0.1681
  641MOL0     H86513  -1.777   2.202   9.819 -1.7015  1.2618 -2.8129
  641MOL0     H86514  -1.843   2.115   9.970 -2.4719  0.8319 -0.3424
  641MOL0     H86515  -1.468   2.956  10.131 -0.2257  1.5215  3.5276
  641MOL0     H86516  -1.377   3.161  10.198 -2.0718 -4.7087  1.6930
  641MOL0     H86517  -1.272   3.496  10.257  1.4477  0.9533  0.4504
  641MOL0     H86518  -1.165   3.681  10.380  0.0106 -0.2720  0.1684
  641MOL0     H86519  -0.270   5.195  10.669  3.8103  1.8505 -0.4972
  641MOL0     H86520  -0.048   5.268  10.711  0.6887  2.4414 -0.7171
  641MOL0     H86521   0.281   5.306  10.930  0.2039  0.5452  0.8811
  641MOL0     H86522   0.516   5.353  10.925  1.2056  0.6872  0.2813
  641MOL0     H86523   0.722   5.714  11.104 -0.2508 -1.3257 -0.6294
  641MOL0     H86524   0.654   5.720  10.940 -4.8351 -4.0726 -2.0139
  641MOL0     H86525   0.878   5.528  11.007  2.7381  0.3996 -0.3194
  641MOL0     H86526   0.924   5.706  10.984 -0.7288  1.5725 -1.7775
  641MOL0     H86527   0.848   5.688  10.746  1.0149  1.6585  1.0190
  641MOL0     H86528   0.758   5.542  10.769 -3.1485  2.0784  3.9991
  641MOL0     H86529   1.013   5.440  10.825 -0.0529  0.7348 -0.4017
  641MOL0     H86530   0.970   5.471  10.672  0.6935 -0.1489 -0.0584
  641MOL0     H86531   1.304   5.710  10.753 -1.6126  3.9607  2.6010
  641MOL0     H86532   0.464   5.734  11.091 -1.4282  0.8212 -0.7210
  641MOL0     H86533   0.262   5.867  11.002  1.8664 -1.9301 -0.6871
  641MOL0     H86534   0.122   5.790  10.948  0.8695  0.3533 -1.5147
  641MOL0     H86535   0.148   5.786  11.120  0.7469  2.7662  1.0344
  642MOL0     O86536   5.287   5.748   7.626  0.2944 -0.0997 -0.4456
  642MOL0     C86537   5.289   5.862   7.589 -0.5903  0.1370 -0.1058
  642MOL0     O86538   5.384   5.921   7.516 -0.4325  0.4688 -0.9663
  642MOL0     C86539   5.501   5.850   7.506  0.3875 -0.1621 -0.3882
  642MOL0     C86540   5.509   5.740   7.427 -0.1283  0.0987 -0.6447
  642MOL0     C86541   5.630   5.682   7.411 -0.7169  0.0945 -1.0216
  642MOL0     C86542   5.754   5.730   7.460 -0.5948  0.0386 -0.5612
  642MOL0     O86543   5.868   5.660   7.438 -0.2505  0.1493  0.0844
  642MOL0     C86544   5.995   5.731   7.428 -0.0125 -0.2426  0.9957
  642MOL0     C86545   6.001   5.817   7.300 -0.0844 -0.5304 -0.0115
  642MOL0     C86546   6.126   5.896   7.295 -0.6745 -0.3817  0.5563
  642MOL0     C86547   6.255   5.802   7.304  0.0142 -0.7980 -0.4031
  642MOL0     C86548   6.365   5.861   7.222 -0.3273  0.5408  0.6945
  642MOL0     C86549   6.472   5.755   7.199  0.2210  1.0724 -1.1424
  642MOL0     C86550   6.611   5.821   7.168 -0.5235 -0.1952  0.2303
  642MOL0     C86551   6.720   5.713   7.200 -0.3365 -0.2053  0.4645
  642MOL0     N86552   6.733   5.617   7.088  0.1099  0.1931 -0.8164
  642MOL0     C86553   6.794   5.661   6.975  0.8956 -0.4327  0.7520
  642MOL0     C86554   6.806   5.546   6.904  0.1751  0.0275  0.0242
  642MOL0     C86555   6.866   5.529   6.770 -0.1328 -1.3559  0.1652
  642MOL0     C86556   6.759   5.532   6.666  0.2621  0.5043  0.3166
  642MOL0     C86557   6.662   5.410   6.655  0.3653  0.0428  0.3323
  642MOL0     C86558   6.524   5.448   6.710 -0.9899 -0.0540 -0.2381
  642MOL0     O86559   6.460   5.521   6.606 -0.9367  0.3404 -0.0210
  642MOL0     C86560   6.381   5.468   6.509 -0.7229  0.6648 -0.3806
  642MOL0     C86561   6.320   5.553   6.424 -0.2597 -0.6745  0.9099
  642MOL0     C86562   6.231   5.502   6.332  0.4269  0.2038  0.1634
  642MOL0     C86563   6.189   5.371   6.337  0.0950  0.3127  0.4019
  642MOL0     C86564   6.088   5.327   6.234  0.8504  0.1190 -0.1283
  642MOL0     O86565   6.086   5.400   6.117 -0.7942 -1.0344  0.2036
  642MOL0     C86566   5.981   5.393   6.032 -0.3635  0.4590 -0.2416
  642MOL0     C86567   5.861   5.460   6.048 -0.3040 -1.0320  0.2045
  642MOL0     C86568   5.753   5.443   5.955 -0.3235  0.1248 -0.1848
  642MOL0     C86569   5.767   5.372   5.836 -1.0976  0.5213 -0.4141
  642MOL0     O86570   5.675   5.342   5.744 -0.2702  0.1527 -0.3163
  642MOL0     C86571   5.537   5.372   5.773 -0.9059 -0.8356  0.5880
  642MOL0     C86572   5.435   5.341   5.657  0.5840 -0.0940  0.0993
  642MOL0     C86573   5.487   5.376   5.517 -0.2738  0.5652 -0.1029
  642MOL0     C86574   5.372   5.362   5.423  0.0786 -0.1228  0.1097
  642MOL0     C86575   5.328   5.506   5.384 -0.9296 -0.3317 -0.3339
  642MOL0     C86576   5.276   5.588   5.499 -0.2625  0.1744  0.2222
  642MOL0     C86577   5.239   5.732   5.477 -0.2625 -0.3673 -0.3003
  642MOL0     C86578   5.161   5.761   5.349 -0.5282 -0.7966 -0.3780
  642MOL0    Cl86579   5.005   5.665   5.363 -0.2582  0.0500  0.4253
  642MOL0     C86580   5.893   5.318   5.810  1.0316 -0.2018 -1.0330
  642MOL0     C86581   6.000   5.332   5.907  0.2540 -0.2747  0.4352
  642MOL0     O86582   6.015   5.229   6.251 -0.6546  0.4166 -0.4695
  642MOL0     C86583   6.240   5.284   6.426  0.5077  0.2806 -0.0503
  642MOL0     C86584   6.342   5.337   6.509 -0.7378 -0.0123  0.3493
  642MOL0     N86585   6.740   5.445   6.966  1.0373  0.6822 -1.2122
  642MOL0     N86586   6.691   5.483   7.086  0.4218  0.4289 -0.0189
  642MOL0     C86587   5.743   5.849   7.528  0.0009 -0.2449  1.0253
  642MOL0     C86588   5.618   5.903   7.563  1.0364  0.2024 -1.4773
  642MOL0     C86589   5.178   5.943   7.643 -0.3781  0.7104 -0.3317
  642MOL0     C86590   5.188   6.078   7.607  0.1797 -0.8900 -0.6774
  642MOL0     C86591   5.083   6.165   7.634  0.1398  0.3611  0.0148
  642MOL0     C86592   4.975   6.118   7.708  0.7840 -0.9387 -0.3608
  642MOL0     O86593   4.874   6.205   7.732  1.0168  1.0072  0.1456
  642MOL0     C86594   4.747   6.169   7.809 -0.5359 -0.0077  0.4389
  642MOL0     C86595   4.649   6.283   7.817 -0.1799 -0.7872  0.0892
  642MOL0     C86596   4.681   6.398   7.913  0.1617  0.0305  0.4375
  642MOL0     C86597   4.569   6.500   7.927  0.3473 -0.0645  0.9705
  642MOL0     C86598   4.607   6.601   8.021  0.5923  0.1181 -0.8074
  642MOL0     C86599   4.641   6.685   8.107  0.0321  0.0089  0.4502
  642MOL0     C86600   4.962   5.986   7.746  0.8086  0.3027 -0.0593
  642MOL0     C86601   5.068   5.900   7.718  1.1759  0.2681  0.7500
  642MOL0     C86602   5.034   5.755   7.777  0.7250 -0.3089 -0.5490
  642MOL0     H86603   5.423   5.700   7.375  0.4062 -2.4107  0.2671
  642MOL0     H86604   5.627   5.584   7.364  1.2885 -0.8036  0.5529
  642MOL0     H86605   6.027   5.781   7.520 -1.2824 -1.2284  2.0184
  642MOL0     H86606   6.061   5.644   7.418 -2.9456 -2.6342  0.6637
  642MOL0     H86607   5.920   5.889   7.315  0.5850 -0.4832  5.4124
  642MOL0     H86608   5.988   5.770   7.202 -0.4191  0.2282 -0.3451
  642MOL0     H86609   6.128   5.973   7.373  2.6629  1.8505 -1.4975
  642MOL0     H86610   6.132   5.962   7.208  2.3061 -0.5116  0.5343
  642MOL0     H86611   6.294   5.797   7.406  0.7829  2.8400 -0.4083
  642MOL0     H86612   6.235   5.701   7.266  3.6439 -1.8344  0.0994
  642MOL0     H86613   6.330   5.913   7.133 -0.7764  0.8057  1.0211
  642MOL0     H86614   6.403   5.949   7.275 -0.2776  1.5236 -0.9179
  642MOL0     H86615   6.475   5.682   7.280 -2.3692  0.9819 -1.0623
  642MOL0     H86616   6.450   5.701   7.106  2.4214  1.0760 -1.7254
  642MOL0     H86617   6.616   5.906   7.237 -1.2905  0.7910 -0.8890
  642MOL0     H86618   6.625   5.858   7.066 -1.0750  0.5154  0.3965
  642MOL0     H86619   6.819   5.754   7.223 -1.2398  1.2760  1.8187
  642MOL0     H86620   6.690   5.653   7.286  0.7407 -3.1282 -1.0446
  642MOL0     H86621   6.805   5.766   6.950 -2.3018  0.0561  1.0305
  642MOL0     H86622   6.925   5.616   6.738  2.0902 -1.9720  2.3031
  642MOL0     H86623   6.939   5.448   6.770  3.0050  1.2334 -0.3965
  642MOL0     H86624   6.700   5.624   6.658 -0.7893 -0.1872 -0.0341
  642MOL0     H86625   6.809   5.512   6.570 -1.9400  1.8088 -1.1945
  642MOL0     H86626   6.711   5.337   6.720  1.2677 -0.2827 -0.6998
  642MOL0     H86627   6.647   5.366   6.556 -1.9976  1.1973  0.1033
  642MOL0     H86628   6.533   5.519   6.793 -1.4546 -0.7897  0.4497
  642MOL0     H86629   6.473   5.358   6.744 -0.7436  0.6811  2.2728
  642MOL0     H86630   6.361   5.653   6.419 -0.3307 -0.6536  0.7011
  642MOL0     H86631   6.185   5.573   6.264 -0.6542 -0.1728  0.4662
  642MOL0     H86632   5.846   5.516   6.140  0.0347 -0.2455 -0.2143
  642MOL0     H86633   5.658   5.492   5.978 -1.3668 -2.5042  1.6536
  642MOL0     H86634   5.516   5.321   5.868  0.4545 -1.8286  0.3921
  642MOL0     H86635   5.524   5.477   5.797 -0.3963 -0.6260 -0.0131
  642MOL0     H86636   5.399   5.238   5.659 -0.8373  0.3556  3.1992
  642MOL0     H86637   5.343   5.396   5.678  0.3695 -0.2616 -0.3885
  642MOL0     H86638   5.531   5.477   5.518  0.4695  0.2553  1.1095
  642MOL0     H86639   5.571   5.312   5.487  0.2699  1.3650 -0.3489
  642MOL0     H86640   5.288   5.307   5.466  0.8923  0.3467  2.4489
  642MOL0     H86641   5.405   5.314   5.330  1.5160 -0.8116  0.9417
  642MOL0     H86642   5.243   5.491   5.317 -0.3308 -0.5111 -1.0668
  642MOL0     H86643   5.410   5.564   5.339 -0.0600  1.3382  3.0405
  642MOL0     H86644   5.189   5.541   5.547  0.5148 -0.2733  1.2506
  642MOL0     H86645   5.346   5.589   5.584 -1.6066  2.3501  1.3869
  642MOL0     H86646   5.335   5.783   5.476 -0.4998  0.1983  1.7005
  642MOL0     H86647   5.198   5.776   5.569 -1.1957  0.2426 -0.9914
  642MOL0     H86648   5.137   5.868   5.344 -3.1962 -1.2894  0.6916
  642MOL0     H86649   5.218   5.729   5.261 -1.7617 -0.4520 -1.3217
  642MOL0     H86650   5.900   5.265   5.716 -6.2444 -1.3634 -1.4697
  642MOL0     H86651   6.099   5.295   5.881  0.4761 -0.0091  0.8984
  642MOL0     H86652   6.221   5.178   6.432  0.5363  0.3488  1.8609
  642MOL0     H86653   6.395   5.268   6.573 -2.0303 -2.8065 -1.3986
  642MOL0     H86654   5.823   5.884   7.592  3.1010 -3.9148 -0.5157
  642MOL0     H86655   5.613   5.992   7.626 -1.7684 -0.7461 -0.1744
  642MOL0     H86656   5.272   6.124   7.555 -0.0919  1.3770  0.7231
  642MOL0     H86657   5.089   6.269   7.606  1.2429  0.7680  1.6284
  642MOL0     H86658   4.774   6.128   7.907  0.9467 -1.4364 -0.5350
  642MOL0     H86659   4.697   6.084   7.762 -0.9806  0.7273 -0.4466
  642MOL0     H86660   4.550   6.241   7.838 -0.0587  0.5451  4.2134
  642MOL0     H86661   4.644   6.335   7.720 -2.8684  1.9298  1.5012
  642MOL0     H86662   4.774   6.437   7.869  0.4423 -1.7058 -0.5663
  642MOL0     H86663   4.711   6.357   8.009  4.0582 -1.8298 -1.3463
  642MOL0     H86664   4.542   6.552   7.835 -3.0896  1.4597  2.6704
  642MOL0     H86665   4.482   6.440   7.956  1.6448 -2.3804  0.3334
  642MOL0     H86666   4.676   6.749   8.186 -0.9135  1.7448 -0.4802
  642MOL0     H86667   4.883   5.948   7.810  0.2126  0.0873 -0.9050
  642MOL0     H86668   5.028   5.768   7.885  0.7631  2.1228 -0.7783
  642MOL0     H86669   4.932   5.729   7.750 -0.9067  2.6246  2.2054
  642MOL0     H86670   5.087   5.670   7.733 -2.3955 -0.7608 -3.9730
  643MOL0     O86671   7.852   4.426   0.611  0.0412 -0.2920 -0.0335
  643MOL0     C86672   7.835   4.540   0.567 -0.0312 -0.1959  0.2542
  643MOL0     O86673   7.922   4.643   0.582 -0.3042 -0.0139 -0.1554
  643MOL0     C86674   8.043   4.618   0.644 -0.0451  0.0351  0.3773
  643MOL0     C86675   8.126   4.515   0.609  0.2690  1.1109 -0.0292
  643MOL0     C86676   8.252   4.505   0.678 -0.1846 -0.5695  0.4644
  643MOL0     C86677   8.304   4.600   0.766  0.1147 -0.1678 -0.8294
  643MOL0     O86678   8.419   4.591   0.842  0.0830  0.7323 -0.4510
  643MOL0     C86679   8.496   4.472   0.827 -0.5443 -0.6300 -1.1027
  643MOL0     C86680   8.632   4.475   0.910  0.7148 -0.4732 -0.3114
  643MOL0     C86681   8.751   4.545   0.864 -0.0190  1.0303  0.2380
  643MOL0     C86682   8.749   4.683   0.913 -0.0127 -0.9802  0.1082
  643MOL0     C86683   8.852   4.765   0.834  0.9279  0.5558 -0.1686
  643MOL0     C86684   8.895   4.899   0.896 -0.1740 -0.3132  0.1084
  643MOL0     C86685   8.993   4.988   0.813 -0.0394  0.2100  0.4537
  643MOL0     C86686   8.990   5.132   0.855  0.3075 -0.4516 -0.2404
  643MOL0     N86687   9.062   5.150   0.980 -0.3938 -0.0977 -1.0509
  643MOL0     C86688   9.197   5.155   0.985 -0.8312 -0.7695  0.6788
  643MOL0     C86689   9.229   5.147   1.117  0.6636 -0.1960  0.5863
  643MOL0     C86690   9.366   5.155   1.173  0.1421 -0.6229 -0.8187
  643MOL0     C86691   9.401   5.043   1.279  0.3001  0.4926  0.6053
  643MOL0     C86692   9.557   5.033   1.288 -0.1856  0.2194  0.0423
  643MOL0     C86693   9.610   4.936   1.401  0.9751 -0.1504 -0.4265
  643MOL0     O86694   9.571   4.804   1.364  0.3998 -1.0477  0.0851
  643MOL0     C86695   9.622   4.691   1.424  0.2966 -0.3692  0.0078
  643MOL0     C86696   9.614   4.570   1.347  0.2147 -0.0270 -0.5100
  643MOL0     C86697   9.664   4.454   1.397 -0.2384  0.2173  0.8158
  643MOL0     C86698   9.727   4.449   1.524  0.4260 -0.7302 -0.5505
  643MOL0     C86699   9.784   4.324   1.569  0.4802  0.0424 -0.4262
  643MOL0     O86700   9.815   4.321   1.706 -1.0427  0.0617 -0.9496
  643MOL0     C86701   9.879   4.212   1.757 -0.7667 -0.2894 -0.5847
  643MOL0     C86702   9.824   4.078   1.736 -0.4955  0.2564  0.0183
  643MOL0     C86703   9.865   3.974   1.805 -0.4734  0.6538 -0.0533
  643MOL0     C86704   9.971   3.986   1.903  0.2584  0.4329 -0.2468
  643MOL0     O86705  10.009   3.871   1.977 -0.7319  0.0804  0.0154
  643MOL0     C86706  10.071   3.765   1.900  0.3360  1.1801 -0.0140
  643MOL0     C86707  10.063   3.640   1.987 -0.6026  0.1045  0.5857
  643MOL0     C86708  10.147   3.518   1.935 -0.3507  0.3176 -0.7710
  643MOL0     C86709  10.127   3.412   2.049  0.2202  0.0851 -0.1214
  643MOL0     C86710  10.142   3.264   2.020  0.1702 -0.1947  0.7195
  643MOL0     C86711  10.266   3.229   1.939  0.5738 -0.1745  0.6619
  643MOL0     C86712  10.272   3.077   1.934  0.0854  0.5137  0.1347
  643MOL0     C86713  10.376   3.014   1.839  0.1304 -0.4576 -0.3561
  643MOL0    Cl86714  10.335   2.832   1.835 -0.0869 -0.3667 -0.0853
  643MOL0     C86715  10.033   4.108   1.914  0.1611  0.1277 -0.4257
  643MOL0     C86716   9.981   4.222   1.845 -0.0901  0.0719  0.6145
  643MOL0     O86717   9.806   4.236   1.485 -0.0117 -0.1607  0.3209
  643MOL0     C86718   9.732   4.568   1.603 -1.0627 -0.5312 -0.7585
  643MOL0     C86719   9.674   4.687   1.553  1.2676  0.3989 -0.2503
  643MOL0     N86720   9.111   5.135   1.192 -0.1502  0.4282  0.4106
  643MOL0     N86721   9.016   5.145   1.104 -0.4800  0.4199 -0.2731
  643MOL0     C86722   8.216   4.702   0.796 -0.5042  0.0976  0.0289
  643MOL0     C86723   8.084   4.712   0.737 -0.3785  0.7300 -0.5210
  643MOL0     C86724   7.704   4.575   0.509  0.6501  0.2923 -0.2830
  643MOL0     C86725   7.658   4.711   0.517  0.3708 -0.4782 -1.3772
  643MOL0     C86726   7.560   4.776   0.450  0.1249 -0.4718 -0.0305
  643MOL0     C86727   7.481   4.696   0.370 -0.2149 -0.4672  0.1376
  643MOL0     O86728   7.366   4.745   0.296 -0.1810  0.9954 -0.0206
  643MOL0     C86729   7.356   4.886   0.272  0.0973 -0.4060  0.1657
  643MOL0     C86730   7.406   4.915   0.133  0.1335 -0.6868  0.1737
  643MOL0     C86731   7.321   5.022   0.070 -0.6998 -0.9843 -0.0881
  643MOL0     C86732   7.325   5.026  -0.081 -0.5447 -0.1512 -0.4272
  643MOL0     C86733   7.470   5.034  -0.123 -0.2623 -0.3289  1.1014
  643MOL0     C86734   7.588   5.044  -0.169 -0.2033  0.1681  0.9284
  643MOL0     C86735   7.514   4.561   0.355  0.2367  0.0334  0.3172
  643MOL0     C86736   7.625   4.499   0.414  0.0078 -1.4567 -0.4854
  643MOL0     C86737   7.671   4.359   0.382 -0.2031 -0.2556  0.7475
  643MOL0     H86738   8.096   4.451   0.527 -3.1370  0.1453  1.7756
  643MOL0     H86739   8.313   4.416   0.672  0.0391 -0.3524 -0.7505
  643MOL0     H86740   8.439   4.381   0.846 -0.9012  0.2441  2.8093
  643MOL0     H86741   8.525   4.468   0.721  1.6082 -2.2866 -0.5380
  643MOL0     H86742   8.664   4.371   0.919 -0.3480 -0.8751 -1.0277
  643MOL0     H86743   8.603   4.512   1.009  1.3206 -0.4327 -0.1431
  643MOL0     H86744   8.754   4.548   0.755 -3.0985  0.7644  0.0369
  643MOL0     H86745   8.840   4.497   0.906  1.4582 -0.1109 -3.7379
  643MOL0     H86746   8.659   4.744   0.894  1.3066  1.9142  2.3093
  643MOL0     H86747   8.773   4.674   1.020 -0.2784 -1.5331  0.1265
  643MOL0     H86748   8.939   4.699   0.836  0.7143  0.2851  1.0950
  643MOL0     H86749   8.817   4.785   0.732 -1.2751 -4.3583 -0.6412
  643MOL0     H86750   8.801   4.954   0.909 -1.3847 -2.6204  1.8704
  643MOL0     H86751   8.937   4.885   0.995 -1.0992  2.0807  0.8857
  643MOL0     H86752   8.977   4.989   0.705 -3.7466  3.0479  0.8610
  643MOL0     H86753   9.098   4.959   0.825 -0.0953  0.2634  1.1412
  643MOL0     H86754   9.035   5.195   0.778  3.8832 -1.8663  0.5227
  643MOL0     H86755   8.886   5.162   0.871  1.0617  1.6171  1.2538
  643MOL0     H86756   9.269   5.154   0.903 -2.1457  0.3146 -0.5401
  643MOL0     H86757   9.440   5.171   1.094 -0.8766 -0.4451 -1.7600
  643MOL0     H86758   9.356   5.249   1.228 -1.0046  0.8275 -3.3898
  643MOL0     H86759   9.358   5.063   1.378 -0.2200  0.9573  0.2865
  643MOL0     H86760   9.364   4.948   1.240  1.6990 -0.0392  0.5193
  643MOL0     H86761   9.592   5.132   1.318 -0.6982  0.9955 -1.8244
  643MOL0     H86762   9.606   5.011   1.193  2.0278 -2.1937  1.6026
  643MOL0     H86763   9.560   4.958   1.495  4.3510 -5.1852  3.0785
  643MOL0     H86764   9.718   4.953   1.411  1.1277  0.7055 -2.8969
  643MOL0     H86765   9.562   4.564   1.252 -1.5610 -0.0722  0.4317
  643MOL0     H86766   9.632   4.364   1.345  0.7853 -0.4754  1.3448
  643MOL0     H86767   9.745   4.063   1.662  1.0880 -3.3900 -1.1626
  643MOL0     H86768   9.821   3.878   1.781 -0.8162  0.3784  1.5520
  643MOL0     H86769  10.033   3.766   1.798 -0.1295  1.5796  0.1582
  643MOL0     H86770  10.175   3.798   1.895  0.8087 -0.1003  0.7037
  643MOL0     H86771  10.090   3.659   2.091  0.2728 -0.7727  0.5391
  643MOL0     H86772   9.958   3.612   1.982 -0.7517  0.7046  0.3064
  643MOL0     H86773  10.103   3.485   1.840 -0.7757 -1.3577 -0.0263
  643MOL0     H86774  10.252   3.548   1.926 -0.8673  2.7005  0.3889
  643MOL0     H86775  10.030   3.436   2.094 -0.3870 -1.9938 -0.2147
  643MOL0     H86776  10.193   3.440   2.131 -1.6952 -1.0717  1.9193
  643MOL0     H86777  10.062   3.219   1.962  0.6175 -0.6651  0.4669
  643MOL0     H86778  10.135   3.202   2.110 -1.5918 -3.4693 -1.4905
  643MOL0     H86779  10.266   3.263   1.835  1.6478 -1.7124  0.1051
  643MOL0     H86780  10.360   3.260   1.986  2.6837  0.5342 -3.5910
  643MOL0     H86781  10.176   3.041   1.896  0.7453  0.3694 -1.5010
  643MOL0     H86782  10.295   3.030   2.030  0.2721 -1.6352 -0.9010
  643MOL0     H86783  10.372   3.065   1.742  1.3079 -0.3612 -0.3641
  643MOL0     H86784  10.478   3.029   1.875  0.1926 -1.4885 -0.0676
  643MOL0     H86785  10.114   4.118   1.986 -0.8494 -0.8531  0.8992
  643MOL0     H86786  10.030   4.316   1.869  3.4611 -0.9423 -1.7808
  643MOL0     H86787   9.775   4.553   1.702  1.6618 -0.0379 -1.7851
  643MOL0     H86788   9.685   4.773   1.617 -0.3163  0.1867  0.3583
  643MOL0     H86789   8.222   4.767   0.884 -2.2260 -1.2488  1.2113
  643MOL0     H86790   8.014   4.792   0.758 -1.0870  0.5493 -2.0924
  643MOL0     H86791   7.715   4.760   0.595  1.7818 -0.6486 -2.2739
  643MOL0     H86792   7.558   4.883   0.466 -1.5535 -0.8084  2.6174
  643MOL0     H86793   7.399   4.952   0.348 -0.0200  0.2005 -0.2901
  643MOL0     H86794   7.250   4.908   0.285 -0.0015 -2.0340  3.1775
  643MOL0     H86795   7.397   4.825   0.072 -1.0440  0.8858 -2.1372
  643MOL0     H86796   7.508   4.953   0.124 -0.1957 -0.2374 -2.4704
  643MOL0     H86797   7.343   5.124   0.102 -2.0901  0.1880 -2.5764
  643MOL0     H86798   7.218   4.994   0.089 -0.7647 -2.6667 -2.4931
  643MOL0     H86799   7.293   4.928  -0.117 -3.4215 -0.5656  2.8013
  643MOL0     H86800   7.264   5.107  -0.122  1.7137  0.8267 -2.1227
  643MOL0     H86801   7.689   5.045  -0.206 -1.2134  0.8273 -2.0662
  643MOL0     H86802   7.448   4.498   0.297  0.2271 -0.5946  0.9886
  643MOL0     H86803   7.634   4.335   0.282  1.0214 -3.7108  0.9892
  643MOL0     H86804   7.779   4.340   0.383 -0.4505 -1.7691  0.5388
  643MOL0     H86805   7.623   4.286   0.447  0.2545 -0.0860  1.2839
  644MOL0     O86806   3.622   8.518   0.549  0.0526  0.3642  0.3506
  644MOL0     C86807   3.560   8.504   0.443 -0.3411 -0.5779 -0.5157
  644MOL0     O86808   3.609   8.469   0.319 -0.0267  0.2057 -0.7039
  644MOL0     C86809   3.738   8.474   0.285 -0.0797 -0.1067  0.1177
  644MOL0     C86810   3.781   8.402   0.181 -0.6956  0.5818  0.8447
  644MOL0     C86811   3.911   8.392   0.138 -0.5068 -0.0265  0.7296
  644MOL0     C86812   4.009   8.470   0.212  0.0536 -0.0081  0.4354
  644MOL0     O86813   4.137   8.491   0.170 -0.1723  0.3395  0.4101
  644MOL0     C86814   4.213   8.378   0.124  0.4840 -0.2664  0.0724
  644MOL0     C86815   4.203   8.247   0.207  0.3718 -0.4070  0.0351
  644MOL0     C86816   4.280   8.276   0.344  0.4776  0.3400  0.2702
  644MOL0     C86817   4.292   8.143   0.417  0.2257  0.2483  0.6341
  644MOL0     C86818   4.361   8.161   0.549  0.5253  0.3726  0.3308
  644MOL0     C86819   4.398   8.019   0.605  1.0474 -0.3475  0.1949
  644MOL0     C86820   4.437   8.020   0.756  0.1539 -1.4171  0.5608
  644MOL0     C86821   4.491   7.878   0.786 -0.3795 -0.2864  0.3672
  644MOL0     N86822   4.617   7.849   0.724 -0.1770  0.3710  0.7170
  644MOL0     C86823   4.724   7.947   0.715  0.7217  1.0082  0.0991
  644MOL0     C86824   4.827   7.857   0.675 -0.0021  0.0237  0.6405
  644MOL0     C86825   4.971   7.908   0.654  0.4363 -0.5110  0.7059
  644MOL0     C86826   5.027   7.893   0.506  0.5405 -0.5773 -1.0882
  644MOL0     C86827   5.155   7.970   0.485  0.0432  0.6941 -0.0715
  644MOL0     C86828   5.275   7.907   0.555  0.2306  0.0432  0.1922
  644MOL0     O86829   5.405   7.947   0.517 -0.9700 -0.6374  0.2621
  644MOL0     C86830   5.519   7.925   0.588 -0.1604  1.5874 -0.5073
  644MOL0     C86831   5.519   7.875   0.721  0.3125 -0.3078  0.1262
  644MOL0     C86832   5.628   7.880   0.802 -0.7801  0.7173 -0.0331
  644MOL0     C86833   5.759   7.923   0.742 -0.2852  0.2136  0.0750
  644MOL0     C86834   5.884   7.912   0.823  0.6476 -0.3327 -0.6178
  644MOL0     O86835   6.003   7.938   0.751  0.2344 -0.3790  0.6120
  644MOL0     C86836   6.122   7.924   0.820  0.2282  0.4613 -0.2176
  644MOL0     C86837   6.217   8.037   0.826 -1.1504  0.4717 -0.3048
  644MOL0     C86838   6.342   8.034   0.882 -1.0739  0.0740  0.2377
  644MOL0     C86839   6.389   7.908   0.921  0.1794 -0.7826 -0.0754
  644MOL0     O86840   6.516   7.895   0.962 -0.1847 -0.1743  0.2220
  644MOL0     C86841   6.550   7.814   1.080  1.1031 -0.0615  0.2283
  644MOL0     C86842   6.665   7.718   1.045  0.2936  1.0618  0.1546
  644MOL0     C86843   6.777   7.742   1.153  0.7531 -0.0122  1.5522
  644MOL0     C86844   6.909   7.659   1.107  0.4579  0.1834 -0.6768
  644MOL0     C86845   6.978   7.721   0.981  0.5138 -0.1196  0.1009
  644MOL0     C86846   7.046   7.849   1.031  0.8201  0.2978  0.4158
  644MOL0     C86847   7.114   7.930   0.912 -0.0802 -0.2747 -0.4452
  644MOL0     C86848   7.204   8.039   0.966  0.3680  0.0396 -0.0991
  644MOL0    Cl86849   7.336   7.967   1.067  0.5854 -0.2791  0.1060
  644MOL0     C86850   6.305   7.797   0.922 -0.1100  0.0035 -0.1530
  644MOL0     C86851   6.175   7.796   0.868  0.9257 -0.2172 -0.4777
  644MOL0     O86852   5.873   7.867   0.942 -0.4460  0.3076 -0.0704
  644MOL0     C86853   5.760   7.969   0.612  0.1037  0.5707  0.9092
  644MOL0     C86854   5.643   7.975   0.536  0.0509  1.0872  0.6331
  644MOL0     N86855   4.780   7.723   0.658 -0.6452  0.2714 -1.6266
  644MOL0     N86856   4.656   7.718   0.696 -0.1596  0.0195  0.1423
  644MOL0     C86857   3.964   8.558   0.318  0.8945  0.1844 -0.4968
  644MOL0     C86858   3.828   8.556   0.349 -0.4460 -0.5317 -0.0584
  644MOL0     C86859   3.409   8.522   0.462  0.7584 -1.3907 -0.2679
  644MOL0     C86860   3.364   8.565   0.592 -0.2546 -0.1807 -0.1920
  644MOL0     C86861   3.235   8.606   0.612  0.7706 -0.7506 -0.0748
  644MOL0     C86862   3.140   8.614   0.509  0.0933 -0.7063 -0.1130
  644MOL0     O86863   3.019   8.659   0.555  0.4375  0.4595  0.0391
  644MOL0     C86864   2.926   8.706   0.461 -0.5752 -0.8326  1.1279
  644MOL0     C86865   2.962   8.845   0.397 -1.0214  1.0305  0.1374
  644MOL0     C86866   2.858   8.886   0.300  0.5301  0.8199  0.0057
  644MOL0     C86867   2.921   8.987   0.208 -0.5795 -0.8289 -0.3327
  644MOL0     C86868   2.838   9.003   0.093 -0.8716 -1.0828 -0.3666
  644MOL0     C86869   2.759   9.013   0.001 -0.3849 -0.1136 -0.8261
  644MOL0     C86870   3.177   8.561   0.393 -0.2660 -0.9500 -0.6602
  644MOL0     C86871   3.307   8.522   0.368  0.3929  0.3197 -0.1480
  644MOL0     C86872   3.337   8.497   0.228 -0.6709 -0.6995  0.8432
  644MOL0     H86873   3.707   8.337   0.134  0.7090 -1.7129  1.6708
  644MOL0     H86874   3.935   8.334   0.049 -0.2306  0.1797  0.6704
  644MOL0     H86875   4.174   8.356   0.024 -0.5563  2.0504 -0.1059
  644MOL0     H86876   4.316   8.405   0.102 -0.0820 -0.2938 -3.1281
  644MOL0     H86877   4.249   8.165   0.151 -0.9159 -1.1734  0.0465
  644MOL0     H86878   4.099   8.218   0.221  0.3920 -0.4680  0.0609
  644MOL0     H86879   4.226   8.346   0.409 -1.6565 -1.0114  0.0469
  644MOL0     H86880   4.380   8.306   0.313  0.7856 -1.7566 -0.9580
  644MOL0     H86881   4.195   8.092   0.419 -0.1899  0.9997  3.5480
  644MOL0     H86882   4.347   8.074   0.352 -2.4302 -1.4214 -0.0554
  644MOL0     H86883   4.445   8.228   0.530  0.6698 -0.3542 -1.8818
  644MOL0     H86884   4.293   8.219   0.612 -1.6742 -1.2613 -0.3885
  644MOL0     H86885   4.310   7.954   0.596  1.7398 -1.4123  1.0105
  644MOL0     H86886   4.461   7.962   0.536 -0.4456 -1.4109 -0.3597
  644MOL0     H86887   4.353   8.051   0.818 -0.6968 -0.6005 -0.9398
  644MOL0     H86888   4.516   8.094   0.771 -1.2582  0.0177  1.1644
  644MOL0     H86889   4.506   7.864   0.893 -0.4368  2.8428  0.8741
  644MOL0     H86890   4.416   7.807   0.749 -0.3586  0.4076 -1.0857
  644MOL0     H86891   4.732   8.054   0.729 -0.7355  1.0311  0.9995
  644MOL0     H86892   4.967   8.017   0.662 -0.0559 -0.5637  1.3343
  644MOL0     H86893   5.026   7.863   0.737 -2.1673 -1.7994  1.8778
  644MOL0     H86894   5.031   7.789   0.473  2.8704 -0.9575  0.1552
  644MOL0     H86895   4.957   7.957   0.453 -2.5024 -0.2134  2.8842
  644MOL0     H86896   5.138   8.073   0.517 -1.1269 -0.3047  2.9261
  644MOL0     H86897   5.180   7.962   0.379 -0.3083  3.8342 -0.4910
  644MOL0     H86898   5.264   7.800   0.540 -0.8659  0.4768 -2.7769
  644MOL0     H86899   5.261   7.933   0.661 -0.4155  0.3128  0.0449
  644MOL0     H86900   5.420   7.849   0.758 -1.8070  5.3807 -0.6179
  644MOL0     H86901   5.622   7.835   0.900  0.7587 -1.2816 -0.7797
  644MOL0     H86902   6.177   8.131   0.788 -1.4726 -0.6655 -2.9859
  644MOL0     H86903   6.410   8.119   0.883  0.5183 -1.1227  1.8695
  644MOL0     H86904   6.579   7.878   1.164 -0.4483  0.3687  0.4575
  644MOL0     H86905   6.462   7.764   1.119  0.3462  1.1359  0.1058
  644MOL0     H86906   6.637   7.613   1.038  0.9152  0.8459  0.8055
  644MOL0     H86907   6.709   7.724   0.945 -1.8160 -2.2143 -1.1362
  644MOL0     H86908   6.801   7.848   1.142  1.1221  0.0446  2.7825
  644MOL0     H86909   6.732   7.707   1.247 -1.0589 -3.7018 -0.4537
  644MOL0     H86910   6.864   7.560   1.090 -0.9939  0.4967  0.9530
  644MOL0     H86911   6.976   7.653   1.193 -1.9086 -1.6288  1.2035
  644MOL0     H86912   6.913   7.728   0.894  0.7578 -0.4728 -0.1109
  644MOL0     H86913   7.049   7.648   0.941  0.0528 -0.2730 -0.4525
  644MOL0     H86914   6.978   7.922   1.076 -0.1356 -0.8148  0.8052
  644MOL0     H86915   7.128   7.822   1.099  0.4914  0.0264  0.7134
  644MOL0     H86916   7.049   7.977   0.837 -0.0432  0.2971 -0.1170
  644MOL0     H86917   7.184   7.863   0.861  1.9498  0.6139  1.0628
  644MOL0     H86918   7.243   8.102   0.885 -2.2604  1.6941 -0.2183
  644MOL0     H86919   7.135   8.103   1.023 -1.9628 -3.9245  1.9317
  644MOL0     H86920   6.336   7.698   0.953  0.1212 -0.2437 -1.1687
  644MOL0     H86921   6.107   7.711   0.865 -1.4499  1.5919 -1.8087
  644MOL0     H86922   5.853   8.001   0.566  0.4175 -1.1687  0.2171
  644MOL0     H86923   5.646   8.029   0.442 -4.4690 -0.9266 -0.9409
  644MOL0     H86924   4.034   8.619   0.373  1.8115 -0.6313 -0.7293
  644MOL0     H86925   3.801   8.627   0.427  0.1025  3.3553 -3.1046
  644MOL0     H86926   3.428   8.538   0.675  1.2643 -3.8742 -2.2697
  644MOL0     H86927   3.216   8.637   0.714  1.4414 -2.0510  0.4644
  644MOL0     H86928   2.831   8.734   0.507 -2.2650  1.4181 -3.1177
  644MOL0     H86929   2.911   8.633   0.380  4.6939  1.0146 -2.0370
  644MOL0     H86930   3.055   8.819   0.345  0.5448  3.7977  1.3636
  644MOL0     H86931   2.996   8.925   0.463 -2.0597  2.1303 -0.6173
  644MOL0     H86932   2.776   8.937   0.351 -0.9088  2.2535 -3.4246
  644MOL0     H86933   2.821   8.800   0.244  3.2935 -2.6172  2.9703
  644MOL0     H86934   2.909   9.078   0.267 -0.1365 -1.2837  0.4854
  644MOL0     H86935   3.022   8.953   0.183 -0.8669 -1.0646 -1.2184
  644MOL0     H86936   2.696   9.025  -0.085  2.0822 -1.2011 -2.8910
  644MOL0     H86937   3.099   8.560   0.318 -2.1703 -1.9254  1.2299
  644MOL0     H86938   3.386   8.589   0.194  0.6328 -0.3850  3.3333
  644MOL0     H86939   3.404   8.421   0.188  0.2169  1.4342 -2.0961
  644MOL0     H86940   3.242   8.490   0.174 -0.2762  0.9685 -0.1352
  645MOL0     O86941   2.201   9.177   0.215 -0.2040 -0.2805  0.3303
  645MOL0     C86942   2.164   9.133   0.105  0.4879 -0.1242  0.5839
  645MOL0     O86943   2.239   9.067   0.009 -0.2554 -0.2881 -0.0375
  645MOL0     C86944   2.319   8.963   0.047  0.7368 -0.2768  0.4567
  645MOL0     C86945   2.335   8.860  -0.044 -0.7932  0.4092  0.1322
  645MOL0     C86946   2.429   8.762  -0.025  0.2383 -0.4629 -0.0751
  645MOL0     C86947   2.506   8.761   0.095  1.0985  0.5781  1.5255
  645MOL0     O86948   2.595   8.662   0.125 -0.1292  0.1312  0.7299
  645MOL0     C86949   2.548   8.531   0.131 -0.2306  0.8353  0.6374
  645MOL0     C86950   2.520   8.487   0.275  0.2193  0.6484 -0.2355
  645MOL0     C86951   2.469   8.340   0.290 -0.0663  0.2335 -0.6035
  645MOL0     C86952   2.453   8.314   0.444  0.0370 -0.9220 -0.4325
  645MOL0     C86953   2.380   8.183   0.471  0.1369 -0.5038 -0.2813
  645MOL0     C86954   2.331   8.177   0.616 -0.4231  0.5949  0.8056
  645MOL0     C86955   2.220   8.275   0.658  0.9596 -0.4359  0.1333
  645MOL0     C86956   2.182   8.236   0.797 -0.5001  0.6566  0.0514
  645MOL0     N86957   2.049   8.285   0.831  0.5561  0.5740 -0.0532
  645MOL0     C86958   2.016   8.405   0.878  0.1912  0.2787 -0.8314
  645MOL0     C86959   1.887   8.398   0.909  0.2883  0.3709 -0.2315
  645MOL0     C86960   1.817   8.523   0.969 -0.3637  0.3258  0.8721
  645MOL0     C86961   1.708   8.497   1.081  0.5531  0.0126  0.4841
  645MOL0     C86962   1.600   8.394   1.043 -0.4316 -0.1669 -0.7470
  645MOL0     C86963   1.541   8.433   0.906 -0.9043 -0.9648 -0.4287
  645MOL0     O86964   1.429   8.350   0.875 -0.3710 -0.8479  0.0822
  645MOL0     C86965   1.347   8.357   0.768 -0.7261 -0.1669  0.7851
  645MOL0     C86966   1.227   8.291   0.765  0.3579  0.5663  0.1262
  645MOL0     C86967   1.137   8.300   0.659 -0.1989 -0.7167  0.9415
  645MOL0     C86968   1.174   8.389   0.549  0.2877  0.0845 -1.1201
  645MOL0     C86969   1.088   8.393   0.433  0.1085 -1.4160  0.1465
  645MOL0     O86970   1.002   8.288   0.413 -0.1009  0.2304 -0.1319
  645MOL0     C86971   0.914   8.277   0.312 -0.4154  0.0725  0.6386
  645MOL0     C86972   0.842   8.377   0.245 -0.0388 -0.4413  0.5545
  645MOL0     C86973   0.741   8.341   0.148  0.9962  0.1740 -0.0975
  645MOL0     C86974   0.726   8.206   0.114  0.3130 -0.9453  0.3579
  645MOL0     O86975   0.636   8.169   0.017  0.5975  0.0192 -0.2105
  645MOL0     C86976   0.682   8.215  -0.115  0.9889  0.0342  0.2862
  645MOL0     C86977   0.631   8.107  -0.216 -0.5271 -1.0765  0.1030
  645MOL0     C86978   0.502   8.028  -0.168 -0.4400 -0.2153  0.0260
  645MOL0     C86979   0.362   8.091  -0.205  1.2310  0.8867 -0.0663
  645MOL0     C86980   0.252   8.023  -0.127  0.0207  0.1605 -0.4216
  645MOL0     C86981   0.115   8.091  -0.173 -0.6233  0.1655 -0.0122
  645MOL0     C86982  -0.000   8.045  -0.092  1.1268 -0.3154 -0.2473
  645MOL0     C86983  -0.119   8.143  -0.091 -0.1343  0.3118  0.8715
  645MOL0    Cl86984  -0.074   8.291   0.002  0.0308  0.4278  0.1242
  645MOL0     C86985   0.805   8.110   0.176  0.1835 -0.1085  0.1371
  645MOL0     C86986   0.899   8.142   0.273 -0.4618 -0.7227  0.0315
  645MOL0     O86987   1.104   8.492   0.361  0.1393  0.0806 -0.8014
  645MOL0     C86988   1.298   8.452   0.546 -0.9018 -0.6975 -0.1847
  645MOL0     C86989   1.388   8.431   0.660  0.0799 -0.0974 -0.2953
  645MOL0     N86990   1.837   8.271   0.877 -0.2535  0.3087 -0.1734
  645MOL0     N86991   1.938   8.202   0.831  0.7461  0.6210 -1.1418
  645MOL0     C86992   2.503   8.865   0.186  0.9502 -0.6716 -0.1673
  645MOL0     C86993   2.415   8.973   0.157  0.3943  0.5264 -0.2709
  645MOL0     C86994   2.041   9.179   0.047 -0.2009 -0.1030 -0.2755
  645MOL0     C86995   2.029   9.203  -0.089  0.7955 -0.1311 -0.2558
  645MOL0     C86996   1.896   9.253  -0.134 -0.1916  0.1709  0.4069
  645MOL0     C86997   1.799   9.289  -0.044 -0.2976  0.2046 -0.1112
  645MOL0     O86998   1.691   9.356  -0.101 -0.0356  0.3640  0.1750
  645MOL0     C86999   1.584   9.384  -0.010 -0.2805  0.0646 -0.3087
  645MOL0     C87000   1.475   9.423  -0.101  0.6321  0.7576 -0.6160
  645MOL0     C87001   1.338   9.467  -0.041 -0.2264  0.5612 -0.4786
  645MOL0     C87002   1.226   9.372  -0.072 -0.5613  0.3128  0.4189
  645MOL0     C87003   1.092   9.422  -0.037  0.2177  0.5603 -0.1901
  645MOL0     C87004   0.986   9.451   0.013  0.8455 -0.0721  0.7520
  645MOL0     C87005   1.814   9.259   0.091  1.0281  0.7072  0.1910
  645MOL0     C87006   1.929   9.209   0.131  0.2026  0.1732 -0.6512
  645MOL0     C87007   1.931   9.183   0.284 -0.2260  0.7645  0.0061
  645MOL0     H87008   2.291   8.864  -0.143  3.0715 -1.5502 -1.8945
  645MOL0     H87009   2.428   8.684  -0.100  0.4838  1.1437 -1.8455
  645MOL0     H87010   2.457   8.511   0.073  0.1864  1.5656 -0.2888
  645MOL0     H87011   2.628   8.467   0.093 -0.7231  0.7395 -0.2473
  645MOL0     H87012   2.445   8.554   0.319 -1.9602 -2.3222  0.8505
  645MOL0     H87013   2.614   8.492   0.331 -0.5159  0.2744  1.0526
  645MOL0     H87014   2.537   8.266   0.245 -0.4225  1.2803 -3.0326
  645MOL0     H87015   2.370   8.324   0.248 -0.5568  1.7662 -0.0709
  645MOL0     H87016   2.555   8.307   0.482  1.4691 -2.4620 -4.0856
  645MOL0     H87017   2.412   8.402   0.494  1.3008 -0.2228 -0.5855
  645MOL0     H87018   2.299   8.174   0.397  3.1219 -2.4664 -3.6720
  645MOL0     H87019   2.444   8.098   0.445 -1.6447 -0.9109 -4.1093
  645MOL0     H87020   2.293   8.075   0.630  2.7161 -0.6584  1.0440
  645MOL0     H87021   2.412   8.187   0.689 -0.2516  2.9866  0.3874
  645MOL0     H87022   2.138   8.260   0.589  1.1450 -0.2000 -0.1383
  645MOL0     H87023   2.259   8.377   0.650  2.0345 -0.9771 -2.4917
  645MOL0     H87024   2.185   8.127   0.801 -0.3335  0.5024 -2.6647
  645MOL0     H87025   2.248   8.284   0.869 -0.6613  0.5509  0.2704
  645MOL0     H87026   2.076   8.490   0.909  0.6168 -0.5528  0.7472
  645MOL0     H87027   1.889   8.585   1.023 -2.1169  2.3540  0.9963
  645MOL0     H87028   1.784   8.592   0.890 -0.1555  0.3441  0.7993
  645MOL0     H87029   1.769   8.463   1.165  2.5151  3.0244  0.4590
  645MOL0     H87030   1.660   8.594   1.101 -1.5448 -0.7539 -0.5909
  645MOL0     H87031   1.526   8.383   1.122 -0.8677  2.0589 -0.7906
  645MOL0     H87032   1.636   8.290   1.037 -1.5815 -0.5483 -1.4133
  645MOL0     H87033   1.622   8.424   0.833 -1.6905 -0.4175 -1.4028
  645MOL0     H87034   1.517   8.539   0.922 -0.1467 -0.9221  0.5127
  645MOL0     H87035   1.178   8.242   0.849  0.9757 -0.1607  0.0711
  645MOL0     H87036   1.036   8.259   0.663 -1.1021  1.2375 -0.1256
  645MOL0     H87037   0.865   8.481   0.263  1.8021 -0.4884 -1.1962
  645MOL0     H87038   0.690   8.410   0.082  2.4974 -0.3729 -1.9075
  645MOL0     H87039   0.634   8.312  -0.132  0.0551 -0.3028  0.9296
  645MOL0     H87040   0.791   8.211  -0.125  1.0230 -1.3627  1.0361
  645MOL0     H87041   0.632   8.148  -0.318  1.4268 -0.8500  0.1793
  645MOL0     H87042   0.722   8.048  -0.209 -0.3084 -0.8828 -0.9010
  645MOL0     H87043   0.507   7.931  -0.218 -1.5208 -1.5110  2.2613
  645MOL0     H87044   0.508   7.999  -0.062  0.0695 -0.6426 -0.1212
  645MOL0     H87045   0.344   8.070  -0.311 -1.6136  1.1968  0.2738
  645MOL0     H87046   0.357   8.198  -0.184 -1.3324  0.7558  0.3830
  645MOL0     H87047   0.270   8.047  -0.022  3.6884 -2.7243 -0.2042
  645MOL0     H87048   0.258   7.918  -0.155  1.1302  0.0960 -0.0175
  645MOL0     H87049   0.136   8.192  -0.137  2.0979 -1.8567  5.2844
  645MOL0     H87050   0.090   8.073  -0.278 -0.9286 -3.1629  0.5188
  645MOL0     H87051   0.029   8.036   0.013  0.8594  1.2718 -0.0121
  645MOL0     H87052  -0.036   7.947  -0.126  1.3047 -0.5326  0.1817
  645MOL0     H87053  -0.133   8.165  -0.198 -1.2592 -3.2014  0.1675
  645MOL0     H87054  -0.213   8.098  -0.058 -1.5260  2.0956 -0.4567
  645MOL0     H87055   0.781   8.006   0.156 -0.7090  0.0254  0.4769
  645MOL0     H87056   0.952   8.058   0.316  0.0424 -0.8859 -0.8641
  645MOL0     H87057   1.325   8.518   0.464 -0.2552 -1.2029 -0.3822
  645MOL0     H87058   1.491   8.466   0.663  0.7967 -2.0950  2.2807
  645MOL0     H87059   2.556   8.864   0.280  0.5855  0.6125  0.0711
  645MOL0     H87060   2.422   9.049   0.234  2.1628  1.3215 -1.1620
  645MOL0     H87061   2.103   9.175  -0.163  1.5488 -2.2314  1.2070
  645MOL0     H87062   1.866   9.259  -0.239  1.9010 -1.0954 -0.3253
  645MOL0     H87063   1.611   9.460   0.064  1.0556 -0.6080 -0.0654
  645MOL0     H87064   1.551   9.291   0.037 -3.1768  0.1095 -2.0240
  645MOL0     H87065   1.457   9.359  -0.187 -0.0274  1.1791 -0.7994
  645MOL0     H87066   1.509   9.514  -0.151  4.4756  0.3630  0.9447
  645MOL0     H87067   1.326   9.571  -0.074  2.3306  1.1276  0.1622
  645MOL0     H87068   1.359   9.460   0.066  3.1269 -3.1353 -1.1660
  645MOL0     H87069   1.227   9.362  -0.181  0.5125  0.9755  0.3552
  645MOL0     H87070   1.253   9.277  -0.025  2.9283 -0.1533 -2.0808
  645MOL0     H87071   0.887   9.482   0.039  0.0754 -0.2440 -1.7057
  645MOL0     H87072   1.735   9.281   0.163  0.3161  0.2984 -0.4592
  645MOL0     H87073   1.950   9.076   0.302 -3.1042  0.2719  0.6052
  645MOL0     H87074   2.002   9.249   0.334  2.9911 -2.1662 -0.2403
  645MOL0     H87075   1.831   9.188   0.329 -0.2961 -1.7643  0.3202
  646MOL0     O87076   3.840   1.941   8.662 -0.2271 -0.3009  0.7255
  646MOL0     C87077   3.913   2.036   8.644 -0.2654 -0.3514  0.1007
  646MOL0     O87078   3.920   2.135   8.733  0.3246 -0.4434  1.2098
  646MOL0     C87079   3.846   2.147   8.851 -0.0517  0.6347  0.1516
  646MOL0     C87080   3.894   2.239   8.930  0.1958 -1.0264 -0.8283
  646MOL0     C87081   3.823   2.282   9.044  0.6384  0.1246 -0.4704
  646MOL0     C87082   3.697   2.232   9.076 -0.3475  0.1144 -0.3187
  646MOL0     O87083   3.614   2.286   9.170  0.4130 -0.0658  0.7554
  646MOL0     C87084   3.644   2.414   9.229 -0.7322 -0.2287  0.7970
  646MOL0     C87085   3.551   2.458   9.340 -1.7804 -0.2026 -0.4444
  646MOL0     C87086   3.414   2.436   9.284 -0.3791 -0.2311 -0.1260
  646MOL0     C87087   3.361   2.299   9.327  0.4517  0.6204  0.4975
  646MOL0     C87088   3.215   2.277   9.288 -0.3626 -0.8934 -0.3258
  646MOL0     C87089   3.176   2.291   9.137  0.6203 -1.0307 -0.1668
  646MOL0     C87090   3.273   2.221   9.045  0.9533 -0.2922  0.0477
  646MOL0     C87091   3.270   2.257   8.902  0.5604 -0.2190 -0.3192
  646MOL0     N87092   3.155   2.190   8.842  0.4817  0.1700  0.3824
  646MOL0     C87093   3.039   2.247   8.807 -0.2385  0.4569 -0.0207
  646MOL0     C87094   2.971   2.143   8.745 -0.1325  0.1011  0.3642
  646MOL0     C87095   2.826   2.140   8.701 -0.5301 -0.0639  0.3444
  646MOL0     C87096   2.744   2.076   8.819  0.1791 -0.4944 -0.0310
  646MOL0     C87097   2.615   2.020   8.767 -0.4689  1.1083  0.6718
  646MOL0     C87098   2.535   1.947   8.879  0.1017 -0.1780  1.1178
  646MOL0     O87099   2.401   1.916   8.827  0.0072  0.7145  0.6208
  646MOL0     C87100   2.316   1.838   8.905 -0.4012 -0.4853 -0.2676
  646MOL0     C87101   2.342   1.767   9.027  0.3842  0.3869 -0.7880
  646MOL0     C87102   2.229   1.710   9.103 -0.3155 -0.2329 -0.5831
  646MOL0     C87103   2.097   1.717   9.055  0.9166 -1.3569 -0.6344
  646MOL0     C87104   1.984   1.659   9.133 -1.1214  0.9536 -0.8408
  646MOL0     O87105   1.859   1.706   9.107 -0.2124 -0.0382  0.3873
  646MOL0     C87106   1.750   1.655   9.171 -0.3882  0.0730  0.3344
  646MOL0     C87107   1.736   1.653   9.316 -1.0144  1.1318  0.0118
  646MOL0     C87108   1.614   1.630   9.381  0.5739  0.5645 -0.8163
  646MOL0     C87109   1.496   1.610   9.306 -0.3487 -0.6101  0.9525
  646MOL0     O87110   1.382   1.582   9.369  0.1534  0.9060 -0.6677
  646MOL0     C87111   1.254   1.584   9.298  0.6527 -0.1407  0.0174
  646MOL0     C87112   1.131   1.603   9.384  0.2627  0.0057 -0.8337
  646MOL0     C87113   1.125   1.508   9.499  0.2423 -0.0030 -0.6064
  646MOL0     C87114   1.111   1.357   9.456 -0.0508  0.0308  0.8958
  646MOL0     C87115   1.056   1.254   9.562 -0.3659  0.3980 -0.0727
  646MOL0     C87116   1.172   1.195   9.650 -0.5869 -0.3290  0.6146
  646MOL0     C87117   1.211   1.277   9.767  0.6038 -2.0640  0.5117
  646MOL0     C87118   1.357   1.268   9.807  1.2140 -0.4232 -0.3680
  646MOL0    Cl87119   1.379   1.280   9.982 -0.2437 -0.3910  0.1804
  646MOL0     C87120   1.505   1.623   9.167  0.9501 -0.9174  0.9152
  646MOL0     C87121   1.628   1.642   9.104 -0.3924 -0.0627 -0.6185
  646MOL0     O87122   2.013   1.584   9.229 -0.0398 -0.4509  0.1149
  646MOL0     C87123   2.072   1.797   8.945 -0.1655 -0.9036  0.0321
  646MOL0     C87124   2.182   1.849   8.866  0.6923  0.2700  0.1683
  646MOL0     N87125   3.057   2.032   8.728  0.4825 -0.6921  0.1021
  646MOL0     N87126   3.167   2.077   8.777 -0.5459  0.5089 -0.1507
  646MOL0     C87127   3.653   2.137   8.996  0.3690  0.4531  0.1187
  646MOL0     C87128   3.721   2.090   8.877  0.2473 -0.7261 -0.2935
  646MOL0     C87129   4.005   2.032   8.530  0.1421 -0.6338 -0.3464
  646MOL0     C87130   4.118   2.119   8.540  0.3221 -0.1068 -0.1213
  646MOL0     C87131   4.193   2.160   8.427  0.6105  0.0592 -0.6868
  646MOL0     C87132   4.162   2.116   8.300 -0.4414  0.1417 -0.3228
  646MOL0     O87133   4.231   2.158   8.195 -0.7688  0.4050  0.0770
  646MOL0     C87134   4.159   2.198   8.080  0.3210 -0.3312 -0.1366
  646MOL0     C87135   4.242   2.174   7.953 -0.5981  0.4204  0.2668
  646MOL0     C87136   4.244   2.024   7.911 -0.8993  0.2197 -0.5911
  646MOL0     C87137   4.327   2.008   7.784  0.0891 -0.6146  0.2829
  646MOL0     C87138   4.302   1.873   7.725 -0.4122 -1.4027 -0.9463
  646MOL0     C87139   4.320   1.774   7.669  0.6493  0.0524  0.2915
  646MOL0     C87140   4.065   2.016   8.292 -0.6829  0.3343  0.1310
  646MOL0     C87141   3.986   1.973   8.403 -0.0591  0.4447 -0.6818
  646MOL0     C87142   3.871   1.881   8.376  0.1322  0.1069  0.6507
  646MOL0     H87143   3.986   2.289   8.901  1.6814 -3.4331 -0.5782
  646MOL0     H87144   3.870   2.351   9.114 -2.3727  0.1980  1.6593
  646MOL0     H87145   3.741   2.404   9.280  0.2173  2.0848 -0.3613
  646MOL0     H87146   3.642   2.503   9.164 -2.4036  0.0350  1.1819
  646MOL0     H87147   3.573   2.561   9.367 -2.1710  0.3895 -2.2632
  646MOL0     H87148   3.574   2.388   9.422  0.5186  0.4041 -0.5219
  646MOL0     H87149   3.417   2.440   9.175  4.6820  1.8462 -0.2178
  646MOL0     H87150   3.341   2.512   9.313 -1.6485 -1.1731 -0.7796
  646MOL0     H87151   3.429   2.217   9.300 -0.1462  0.2923 -0.0569
  646MOL0     H87152   3.352   2.300   9.436  1.4918 -1.5973  0.6507
  646MOL0     H87153   3.194   2.172   9.311  1.0216 -1.3527 -1.0238
  646MOL0     H87154   3.147   2.347   9.337 -0.2567 -0.0577 -1.3496
  646MOL0     H87155   3.070   2.268   9.125  0.4909  0.1207 -1.5513
  646MOL0     H87156   3.183   2.400   9.133  2.9584 -0.8959  3.2577
  646MOL0     H87157   3.249   2.114   9.047  3.0306 -0.8995 -2.3232
  646MOL0     H87158   3.372   2.242   9.088 -0.4129  1.8045  2.4098
  646MOL0     H87159   3.245   2.363   8.892 -0.5342 -0.2708  1.3936
  646MOL0     H87160   3.369   2.243   8.858  0.1741 -0.3398 -1.1924
  646MOL0     H87161   3.005   2.350   8.810 -1.9600  0.2459 -4.5234
  646MOL0     H87162   2.785   2.239   8.678 -3.3518 -1.6839 -2.5914
  646MOL0     H87163   2.827   2.076   8.612  2.7549  0.6275 -0.2291
  646MOL0     H87164   2.802   1.992   8.858 -1.1615 -1.4905 -0.1209
  646MOL0     H87165   2.720   2.146   8.900 -0.0837  0.2037 -0.6990
  646MOL0     H87166   2.637   1.953   8.684  0.0133 -0.4594  2.0122
  646MOL0     H87167   2.552   2.099   8.724 -0.3521  1.4481  1.1156
  646MOL0     H87168   2.516   2.004   8.970 -1.7846  0.1403  0.5921
  646MOL0     H87169   2.583   1.858   8.919  0.0779 -0.4033  0.6573
  646MOL0     H87170   2.442   1.744   9.064 -0.3199 -2.2184 -0.2854
  646MOL0     H87171   2.242   1.663   9.201  1.5611  0.1810 -0.6033
  646MOL0     H87172   1.819   1.666   9.386  0.3044 -5.3574  0.2978
  646MOL0     H87173   1.603   1.629   9.489 -1.5150 -2.2591 -0.9401
  646MOL0     H87174   1.252   1.669   9.229 -1.3893  0.9224  1.2931
  646MOL0     H87175   1.233   1.492   9.244 -2.0135 -1.0243  2.3095
  646MOL0     H87176   1.144   1.705   9.422  0.6588 -0.1195 -0.6303
  646MOL0     H87177   1.039   1.601   9.325 -2.5230  1.6037  3.0178
  646MOL0     H87178   1.214   1.533   9.557  1.3997 -1.6567 -1.6096
  646MOL0     H87179   1.035   1.533   9.557  0.0299  1.2900 -1.4458
  646MOL0     H87180   1.203   1.321   9.410  0.6688  0.3291  2.0630
  646MOL0     H87181   1.029   1.355   9.383 -0.6377 -2.4377  1.5257
  646MOL0     H87182   0.993   1.184   9.507 -0.0503  2.2458 -2.9982
  646MOL0     H87183   0.988   1.316   9.620 -1.2796  0.4464 -1.1568
  646MOL0     H87184   1.127   1.103   9.688 -3.7175  1.3686  1.3862
  646MOL0     H87185   1.257   1.173   9.586  0.0236  4.9779 -0.8457
  646MOL0     H87186   1.149   1.248   9.852 -0.8425 -2.9069 -0.7619
  646MOL0     H87187   1.200   1.382   9.739  1.7354 -2.2933 -0.9131
  646MOL0     H87188   1.392   1.167   9.782  2.6137 -0.5430  1.8266
  646MOL0     H87189   1.419   1.343   9.757 -0.3294 -0.0781 -1.8512
  646MOL0     H87190   1.413   1.617   9.110  1.0158 -1.7579  0.8741
  646MOL0     H87191   1.628   1.658   8.997 -0.8910  0.4327 -0.5539
  646MOL0     H87192   1.973   1.827   8.912 -0.8145 -2.4950  0.3990
  646MOL0     H87193   2.160   1.901   8.774 -3.8742  0.3327  1.0159
  646MOL0     H87194   3.567   2.077   9.022  0.4502 -1.4378 -3.3732
  646MOL0     H87195   3.674   2.011   8.820  1.0571 -0.8822 -0.7500
  646MOL0     H87196   4.134   2.167   8.636 -3.4639 -2.1059  1.6943
  646MOL0     H87197   4.285   2.215   8.440  0.9568 -0.2027 -1.8937
  646MOL0     H87198   4.137   2.304   8.091 -1.7596 -0.9530  2.7631
  646MOL0     H87199   4.068   2.139   8.064  1.0189 -0.9775 -2.0591
  646MOL0     H87200   4.336   2.221   7.985 -1.6168  1.4154  2.0141
  646MOL0     H87201   4.201   2.223   7.864 -1.1888 -0.9003 -0.2121
  646MOL0     H87202   4.140   1.993   7.901 -0.7508 -1.5887  2.2472
  646MOL0     H87203   4.298   1.979   7.995  2.9756  1.1607 -2.3177
  646MOL0     H87204   4.288   2.086   7.718 -2.6728  0.0267  2.5090
  646MOL0     H87205   4.431   2.025   7.815  0.8253 -1.8273 -1.3449
  646MOL0     H87206   4.325   1.682   7.615 -2.0180 -1.9527  3.0638
  646MOL0     H87207   4.067   1.979   8.190 -0.9828 -1.5490  0.7716
  646MOL0     H87208   3.778   1.939   8.369 -0.7486 -1.1964  1.1015
  646MOL0     H87209   3.890   1.820   8.287  3.0105  0.9067  0.6333
  646MOL0     H87210   3.861   1.814   8.462  0.4938  1.0385  1.4373
  647MOL0     O87211   6.365   0.636   3.646 -0.1882  0.0307  0.2383
  647MOL0     C87212   6.264   0.700   3.631 -0.7742 -0.0936 -0.7622
  647MOL0     O87213   6.252   0.797   3.545 -0.6588  0.0393  0.9451
  647MOL0     C87214   6.354   0.850   3.462 -0.3943 -0.7810 -0.7011
  647MOL0     C87215   6.323   0.891   3.334 -0.8289 -0.6872 -0.7079
  647MOL0     C87216   6.419   0.943   3.251  0.2228  0.3919  0.4063
  647MOL0     C87217   6.550   0.967   3.290  0.5753  0.3574 -0.1629
  647MOL0     O87218   6.632   1.018   3.197 -0.9084  0.5613  0.4335
  647MOL0     C87219   6.718   1.127   3.251  0.4120  0.2237  0.0908
  647MOL0     C87220   6.853   1.071   3.291 -0.5203 -0.2150 -0.0220
  647MOL0     C87221   6.913   1.127   3.428  0.1048 -0.0968 -0.0979
  647MOL0     C87222   7.046   1.056   3.467  0.0249 -0.3295  0.9260
  647MOL0     C87223   7.098   1.117   3.597 -0.5092 -0.1492  0.3447
  647MOL0     C87224   7.252   1.107   3.599 -0.1892  0.0325  0.0255
  647MOL0     C87225   7.319   1.207   3.694 -0.0537 -0.5305  0.4118
  647MOL0     C87226   7.356   1.339   3.621 -0.1883  0.4804  0.5644
  647MOL0     N87227   7.380   1.451   3.717 -0.1860  0.1274 -0.2262
  647MOL0     C87228   7.486   1.447   3.805 -0.3988 -0.1781 -0.1143
  647MOL0     C87229   7.486   1.569   3.863  1.0680 -0.0362 -0.7554
  647MOL0     C87230   7.587   1.636   3.963  0.4990  0.0339  0.6397
  647MOL0     C87231   7.676   1.535   4.032 -0.6666 -0.1490  0.4339
  647MOL0     C87232   7.612   1.446   4.140  0.6282  0.1435  0.2255
  647MOL0     C87233   7.595   1.534   4.266 -0.9900 -0.0440 -0.2164
  647MOL0     O87234   7.513   1.446   4.354 -0.7464  0.1427 -0.1746
  647MOL0     C87235   7.379   1.448   4.369 -0.5061  0.8922 -0.3435
  647MOL0     C87236   7.287   1.543   4.335  0.7541  0.3233  1.0261
  647MOL0     C87237   7.148   1.516   4.346  0.1595  0.3021 -0.1598
  647MOL0     C87238   7.095   1.393   4.383 -0.0241  0.3392 -0.3913
  647MOL0     C87239   6.952   1.369   4.402 -0.1887 -0.7537 -0.1765
  647MOL0     O87240   6.910   1.233   4.433 -0.2146  0.0215  0.2368
  647MOL0     C87241   6.776   1.220   4.472  0.5652 -0.1562  0.5658
  647MOL0     C87242   6.727   1.274   4.595 -0.3898  1.7400 -0.5331
  647MOL0     C87243   6.593   1.262   4.619 -0.2683 -0.6885 -0.5148
  647MOL0     C87244   6.504   1.197   4.536 -1.3445 -0.1092  0.5164
  647MOL0     O87245   6.372   1.201   4.560 -0.1423 -0.2344 -0.4765
  647MOL0     C87246   6.322   1.072   4.595  1.0635  0.7435  0.3355
  647MOL0     C87247   6.174   1.086   4.633 -0.2364  0.4575 -0.0440
  647MOL0     C87248   6.088   1.128   4.511 -0.9806  0.0379 -0.4249
  647MOL0     C87249   5.935   1.149   4.545 -0.6118 -0.1989  0.4561
  647MOL0     C87250   5.902   1.240   4.659 -0.4255  0.2426  0.0833
  647MOL0     C87251   5.761   1.215   4.698 -0.0602  1.0477 -1.0103
  647MOL0     C87252   5.651   1.238   4.584 -0.8297  0.1059  1.3429
  647MOL0     C87253   5.513   1.255   4.640  0.0295  0.5859  0.4153
  647MOL0    Cl87254   5.473   1.122   4.739 -0.1725  0.7179 -0.4063
  647MOL0     C87255   6.560   1.131   4.423 -1.1187  0.0856  1.0606
  647MOL0     C87256   6.694   1.151   4.389  0.1659  0.3210 -0.6564
  647MOL0     O87257   6.881   1.471   4.403  0.3134 -0.0881  0.9336
  647MOL0     C87258   7.190   1.303   4.427  0.0716  0.5636 -0.2831
  647MOL0     C87259   7.328   1.328   4.409 -0.6531  0.1125  0.6044
  647MOL0     N87260   7.385   1.640   3.801 -0.4697  0.1188  0.0770
  647MOL0     N87261   7.318   1.571   3.715  0.0656 -0.1616  0.8388
  647MOL0     C87262   6.587   0.930   3.421 -0.0373  0.1751  0.0129
  647MOL0     C87263   6.493   0.866   3.508 -0.8814  0.4259  0.4576
  647MOL0     C87264   6.154   0.677   3.724 -0.0940 -0.1625 -0.8218
  647MOL0     C87265   6.046   0.763   3.722  0.0615 -0.1768 -1.4331
  647MOL0     C87266   5.947   0.763   3.820  0.1545  0.4162  0.0709
  647MOL0     C87267   5.951   0.662   3.924 -0.0070 -0.0768  0.4493
  647MOL0     O87268   5.856   0.672   4.020 -0.3960  0.5622  0.2150
  647MOL0     C87269   5.868   0.574   4.127  0.8762  1.8465  0.4320
  647MOL0     C87270   5.976   0.613   4.230  0.4392  0.7401  0.1457
  647MOL0     C87271   5.944   0.743   4.298 -0.5658  0.0634  0.7625
  647MOL0     C87272   5.861   0.740   4.430 -0.3763  0.9750  0.5438
  647MOL0     C87273   5.934   0.668   4.533  0.2994 -0.8229 -0.2275
  647MOL0     C87274   5.981   0.603   4.623 -0.1743  0.3439 -0.1752
  647MOL0     C87275   6.051   0.564   3.909 -0.0532  0.5559  0.5653
  647MOL0     C87276   6.143   0.564   3.813 -0.9991 -0.2065  0.5086
  647MOL0     C87277   6.223   0.440   3.791 -0.5685 -0.3581 -0.3147
  647MOL0     H87278   6.221   0.875   3.301 -1.7124  0.7145  1.1675
  647MOL0     H87279   6.403   0.967   3.147  0.5715  1.0177  0.4910
  647MOL0     H87280   6.713   1.204   3.174 -0.3532 -1.5230 -1.6857
  647MOL0     H87281   6.659   1.160   3.338 -0.5048 -2.0568  0.3895
  647MOL0     H87282   6.924   1.081   3.209 -0.9855 -0.4296 -0.4568
  647MOL0     H87283   6.847   0.965   3.316  0.9778  0.3276  3.2044
  647MOL0     H87284   6.845   1.122   3.513  2.8685  1.1242  2.3602
  647MOL0     H87285   6.942   1.230   3.405  0.7802 -0.0770  0.7858
  647MOL0     H87286   7.025   0.950   3.483  2.1279 -1.4074 -2.2792
  647MOL0     H87287   7.118   1.065   3.385 -1.0435 -3.0937 -0.4296
  647MOL0     H87288   7.074   1.223   3.602 -2.6349 -0.5841  0.5740
  647MOL0     H87289   7.049   1.075   3.686  1.5438 -1.9657  0.7005
  647MOL0     H87290   7.268   1.003   3.630 -4.5955 -1.8276 -2.8286
  647MOL0     H87291   7.299   1.112   3.500 -0.7534  1.9181 -0.1786
  647MOL0     H87292   7.415   1.162   3.724  2.3999  4.7514  1.7860
  647MOL0     H87293   7.264   1.221   3.788 -0.4630 -0.4136  0.1562
  647MOL0     H87294   7.444   1.327   3.557 -0.7808  0.8276 -0.3255
  647MOL0     H87295   7.273   1.373   3.558  1.2622 -0.5566 -2.0696
  647MOL0     H87296   7.553   1.364   3.824 -0.9072 -0.0443  2.5493
  647MOL0     H87297   7.652   1.696   3.898  1.7557 -0.4568  1.4247
  647MOL0     H87298   7.536   1.706   4.030 -0.8276  0.3150 -0.5901
  647MOL0     H87299   7.735   1.478   3.960  0.7435 -1.1695  2.3055
  647MOL0     H87300   7.764   1.582   4.077  1.2698 -1.7332 -1.4916
  647MOL0     H87301   7.674   1.357   4.156  1.8061  0.9791  0.4805
  647MOL0     H87302   7.512   1.413   4.110  1.3719 -1.3340 -0.7861
  647MOL0     H87303   7.542   1.626   4.239  0.6216  0.9886  0.0299
  647MOL0     H87304   7.691   1.561   4.311 -0.7407  1.7919 -1.7331
  647MOL0     H87305   7.317   1.644   4.310  0.7590  0.1056  0.1394
  647MOL0     H87306   7.080   1.600   4.330 -1.6997 -1.1393 -0.1616
  647MOL0     H87307   6.803   1.317   4.659 -0.5396  0.1061  0.8182
  647MOL0     H87308   6.562   1.319   4.707 -0.1049  1.3196 -1.6831
  647MOL0     H87309   6.334   1.004   4.510 -0.1749 -2.4936  2.5668
  647MOL0     H87310   6.376   1.036   4.683 -0.2985  1.1406  1.3547
  647MOL0     H87311   6.121   0.996   4.665 -1.1998  0.1058 -2.4467
  647MOL0     H87312   6.172   1.159   4.714  0.1130 -1.2547  1.6079
  647MOL0     H87313   6.123   1.216   4.456 -0.0523  0.0081  0.1001
  647MOL0     H87314   6.084   1.048   4.438  0.4036 -0.9129  0.4909
  647MOL0     H87315   5.884   1.052   4.551 -1.3666  0.0317 -1.4677
  647MOL0     H87316   5.888   1.191   4.456  1.5255  2.9267  0.6230
  647MOL0     H87317   5.918   1.343   4.626  0.6925 -0.5376 -1.9472
  647MOL0     H87318   5.973   1.217   4.739 -3.8701  2.6207  4.3281
  647MOL0     H87319   5.748   1.109   4.721 -2.4982  1.4069 -0.4842
  647MOL0     H87320   5.744   1.270   4.792  3.8710 -0.5815  0.8966
  647MOL0     H87321   5.633   1.159   4.510 -2.2424  2.8845 -1.5023
  647MOL0     H87322   5.684   1.325   4.526 -0.8782 -1.8219 -1.8216
  647MOL0     H87323   5.491   1.349   4.690 -0.3746 -0.2649  1.8970
  647MOL0     H87324   5.444   1.250   4.555  3.6908  2.7858 -3.0031
  647MOL0     H87325   6.487   1.070   4.371 -1.0385  0.9053 -0.0555
  647MOL0     H87326   6.738   1.084   4.316 -0.4866  0.0725 -0.8244
  647MOL0     H87327   7.163   1.205   4.465  1.8368 -1.1726 -3.1305
  647MOL0     H87328   7.394   1.242   4.422  1.3925  0.6499 -4.1837
  647MOL0     H87329   6.689   0.944   3.457 -0.4115 -0.3551  1.3552
  647MOL0     H87330   6.521   0.849   3.612 -0.5385 -0.2975  0.2507
  647MOL0     H87331   6.042   0.844   3.649  1.1169  0.8950 -0.3558
  647MOL0     H87332   5.850   0.810   3.810 -1.2745 -2.0179  1.5297
  647MOL0     H87333   5.882   0.475   4.083 -0.5586  2.3440 -1.2286
  647MOL0     H87334   5.773   0.564   4.182  1.2114 -0.8531  0.6634
  647MOL0     H87335   6.076   0.610   4.186  0.4669 -0.8193  0.2756
  647MOL0     H87336   5.979   0.526   4.297 -1.9701 -0.3233 -1.0109
  647MOL0     H87337   5.884   0.808   4.233 -0.5115 -1.0008 -0.3863
  647MOL0     H87338   6.032   0.806   4.309  1.1565 -1.3074 -3.2262
  647MOL0     H87339   5.846   0.843   4.466  0.2251  1.0456  0.6016
  647MOL0     H87340   5.764   0.696   4.407  0.4717  0.7071 -3.0859
  647MOL0     H87341   6.024   0.538   4.696  0.3738 -0.2339 -0.9932
  647MOL0     H87342   6.047   0.479   3.976 -0.6225  0.9982  1.0991
  647MOL0     H87343   6.232   0.412   3.686  1.5852 -1.4181  0.1059
  647MOL0     H87344   6.322   0.458   3.833 -0.1116 -0.8438 -1.1574
  647MOL0     H87345   6.192   0.347   3.841  0.8168 -1.3378 -1.2171
  648MOL0     O87346   9.987   2.920   0.169 -0.3375  0.5981  0.5050
  648MOL0     C87347   9.949   3.033   0.143 -0.0840  0.8194  0.6252
  648MOL0     O87348   9.812   3.068   0.137  0.5841  0.1027  0.3273
  648MOL0     C87349   9.715   2.998   0.204  0.2772  0.3522  0.0008
  648MOL0     C87350   9.751   2.937   0.327 -0.2584  0.3689  0.0637
  648MOL0     C87351   9.661   2.857   0.394 -0.2848 -0.6308 -0.4796
  648MOL0     C87352   9.526   2.845   0.352  0.2404 -0.4946  0.9895
  648MOL0     O87353   9.441   2.782   0.428 -0.1114  0.3411 -0.3155
  648MOL0     C87354   9.308   2.762   0.401  0.0035  0.4849 -0.1497
  648MOL0     C87355   9.258   2.717   0.541 -0.1193 -0.5657 -0.3931
  648MOL0     C87356   9.311   2.583   0.605 -0.4387 -0.4622  0.5416
  648MOL0     C87357   9.462   2.569   0.610  0.2805  0.2398  0.2735
  648MOL0     C87358   9.505   2.449   0.690 -0.9007 -0.1422 -0.4022
  648MOL0     C87359   9.438   2.313   0.655 -0.1271  0.3669  0.1254
  648MOL0     C87360   9.522   2.193   0.714 -0.6912  0.2742 -1.0222
  648MOL0     C87361   9.506   2.173   0.865  0.2226 -0.4247  0.0725
  648MOL0     N87362   9.601   2.084   0.932  0.2415  0.2230 -0.9575
  648MOL0     C87363   9.592   1.950   0.932 -1.5239  0.6156 -0.7443
  648MOL0     C87364   9.710   1.909   0.999 -0.6904  0.4011 -0.3550
  648MOL0     C87365   9.766   1.771   1.003  0.2439  0.5083 -0.2691
  648MOL0     C87366   9.819   1.748   1.140  0.4519  0.7901  0.3869
  648MOL0     C87367   9.849   1.599   1.171  0.4804  0.4935 -0.3485
  648MOL0     C87368   9.985   1.580   1.233  0.3120 -1.6212  0.3716
  648MOL0     O87369  10.004   1.436   1.262 -0.5410 -0.0993 -0.4945
  648MOL0     C87370  10.123   1.403   1.329 -0.6836  0.9072 -0.5965
  648MOL0     C87371  10.126   1.274   1.374 -0.0422 -0.6736  0.2834
  648MOL0     C87372  10.227   1.236   1.468  0.5872 -0.2401 -0.3729
  648MOL0     C87373  10.328   1.327   1.499 -0.4907  0.8465  0.6435
  648MOL0     C87374  10.451   1.289   1.584  0.9839  0.1526 -0.3046
  648MOL0     O87375  10.441   1.162   1.628 -0.3174  0.4981  0.3495
  648MOL0     C87376  10.536   1.123   1.719 -0.8315  0.2019 -0.1861
  648MOL0     C87377  10.537   1.185   1.842 -0.1400 -0.5916  0.6768
  648MOL0     C87378  10.632   1.154   1.944 -0.5816  0.7184 -0.3016
  648MOL0     C87379  10.728   1.053   1.923  0.1467 -0.2270 -0.1525
  648MOL0     O87380  10.810   1.021   2.022 -0.5271 -0.2445 -0.3703
  648MOL0     C87381  10.907   1.131   2.056  0.7906 -1.4467  0.4722
  648MOL0     C87382  10.926   1.139   2.206 -0.2443 -0.4747  0.4237
  648MOL0     C87383  10.936   1.000   2.269  0.2401 -0.7041  0.5725
  648MOL0     C87384  10.989   1.017   2.413 -0.0680 -0.0455 -0.3090
  648MOL0     C87385  10.985   0.884   2.497  0.1477  0.2313  0.1029
  648MOL0     C87386  11.016   0.880   2.650 -0.5325  0.2504 -0.4300
  648MOL0     C87387  11.162   0.895   2.685 -0.2833  0.5218 -0.7576
  648MOL0     C87388  11.197   0.861   2.825 -0.1024  0.3488 -0.6660
  648MOL0    Cl87389  11.381   0.840   2.853  0.0524 -0.1739 -0.0592
  648MOL0     C87390  10.732   0.988   1.789 -0.4182 -0.0466  0.5611
  648MOL0     C87391  10.640   1.028   1.689  0.7161 -0.8343 -0.1806
  648MOL0     O87392  10.546   1.368   1.607  0.4206  0.0747 -0.2672
  648MOL0     C87393  10.314   1.462   1.461 -0.2889  1.6343  0.0636
  648MOL0     C87394  10.216   1.504   1.378 -0.6632  0.7332 -1.1655
  648MOL0     N87395   9.774   2.015   1.046  0.0557 -1.2201 -0.1728
  648MOL0     N87396   9.714   2.121   0.998 -0.5262  0.4218  0.7691
  648MOL0     C87397   9.494   2.905   0.227  0.6001 -0.4157 -0.2321
  648MOL0     C87398   9.588   2.979   0.155  0.5184 -0.0226 -0.5268
  648MOL0     C87399  10.042   3.151   0.118 -0.0491 -0.3784 -0.0892
  648MOL0     C87400   9.975   3.275   0.093 -0.2639 -0.4007 -0.2870
  648MOL0     C87401  10.057   3.388   0.063 -0.3516 -0.0612 -0.5922
  648MOL0     C87402  10.202   3.381   0.066  0.0820  0.3738  0.1644
  648MOL0     O87403  10.283   3.490   0.041 -0.3386 -0.0997 -0.5302
  648MOL0     C87404  10.226   3.618   0.018  0.6973  0.2962 -0.3650
  648MOL0     C87405  10.321   3.733   0.030 -0.0663 -0.8331  0.4996
  648MOL0     C87406  10.258   3.866  -0.018  0.2576  0.8987  0.1557
  648MOL0     C87407  10.345   3.988   0.020  0.1754  0.3299  0.8617
  648MOL0     C87408  10.309   4.098  -0.066  0.6390  0.3414 -0.3534
  648MOL0     C87409  10.276   4.194  -0.127 -0.0395 -0.5290  0.7876
  648MOL0     C87410  10.260   3.262   0.100 -1.0351  0.3583  0.3860
  648MOL0     C87411  10.186   3.141   0.128  0.3250  0.5167 -0.4909
  648MOL0     C87412  10.277   3.027   0.142 -0.3119  0.1374  0.3983
  648MOL0     H87413   9.850   2.945   0.370 -0.1106  1.1770 -0.4000
  648MOL0     H87414   9.694   2.813   0.488  1.8756  0.7166 -0.5575
  648MOL0     H87415   9.268   2.858   0.366  0.7975  0.4228 -1.2785
  648MOL0     H87416   9.287   2.683   0.328  1.6491 -0.2013  0.0776
  648MOL0     H87417   9.152   2.701   0.523  0.3567 -0.3454 -4.5310
  648MOL0     H87418   9.276   2.804   0.605  0.5634  0.3052 -1.7089
  648MOL0     H87419   9.256   2.502   0.555  0.9718 -0.1109 -1.7113
  648MOL0     H87420   9.270   2.583   0.707  1.5277  0.1901  1.3789
  648MOL0     H87421   9.514   2.555   0.515  2.5991  2.0487  1.1747
  648MOL0     H87422   9.492   2.662   0.659 -0.6450  1.4154 -1.3337
  648MOL0     H87423   9.614   2.445   0.690 -0.9346 -2.0528  0.2441
  648MOL0     H87424   9.493   2.460   0.798 -1.9523 -2.4136 -0.2149
  648MOL0     H87425   9.335   2.308   0.690 -0.4071 -1.4325 -0.8319
  648MOL0     H87426   9.442   2.290   0.548  1.8403  4.1525 -0.8044
  648MOL0     H87427   9.631   2.204   0.703 -0.5298 -1.3938 -1.4250
  648MOL0     H87428   9.497   2.096   0.671 -3.4198 -0.3227  1.6134
  648MOL0     H87429   9.511   2.270   0.916 -0.6585  0.8967 -2.1849
  648MOL0     H87430   9.406   2.130   0.872 -0.9310  2.2199  1.5594
  648MOL0     H87431   9.517   1.882   0.892 -0.5955 -1.7635  1.2639
  648MOL0     H87432   9.680   1.705   0.986 -0.8968  1.6131  1.0086
  648MOL0     H87433   9.842   1.755   0.925  2.2626 -1.9269  1.9911
  648MOL0     H87434   9.915   1.800   1.138  0.4953  0.6852 -0.9939
  648MOL0     H87435   9.759   1.791   1.221 -0.5910  1.4171 -0.6962
  648MOL0     H87436   9.846   1.548   1.074 -1.4527  2.2104 -1.2652
  648MOL0     H87437   9.776   1.558   1.241  2.2680  0.2184  1.4651
  648MOL0     H87438   9.991   1.637   1.326  3.4312 -0.8330 -0.2084
  648MOL0     H87439  10.069   1.615   1.172  0.4145 -0.4736  1.1361
  648MOL0     H87440  10.050   1.202   1.343 -1.7808  1.2677 -0.2376
  648MOL0     H87441  10.230   1.135   1.510  0.2833  0.8422  2.5018
  648MOL0     H87442  10.467   1.265   1.861 -0.5109 -0.6152 -0.5060
  648MOL0     H87443  10.644   1.202   2.041  0.1525 -0.9551  0.4641
  648MOL0     H87444  11.007   1.110   2.015  2.5530  3.8341  1.2838
  648MOL0     H87445  10.870   1.229   2.028  2.9442 -0.8372 -0.4629
  648MOL0     H87446  11.012   1.205   2.223  1.0602 -1.3795 -2.0800
  648MOL0     H87447  10.846   1.192   2.257 -2.4930 -1.7606 -1.5761
  648MOL0     H87448  10.842   0.943   2.270 -0.8781  1.0200 -0.8728
  648MOL0     H87449  11.014   0.945   2.215  0.1853  1.3683 -1.8244
  648MOL0     H87450  10.918   1.087   2.458  0.0973  1.1711 -1.8466
  648MOL0     H87451  11.091   1.055   2.409 -0.1352  0.1884  0.1211
  648MOL0     H87452  11.068   0.830   2.452 -1.1233 -2.4530  0.7982
  648MOL0     H87453  10.895   0.823   2.480 -0.5070  0.4132  2.5533
  648MOL0     H87454  10.962   0.969   2.685 -0.1188  1.9092 -3.6790
  648MOL0     H87455  10.983   0.781   2.683 -0.4903  0.6445  0.8781
  648MOL0     H87456  11.194   0.997   2.661  1.0826  0.5174  0.9000
  648MOL0     H87457  11.209   0.821   2.619 -4.5090 -2.2184 -1.0758
  648MOL0     H87458  11.171   0.949   2.885 -0.4389 -1.9550  2.8901
  648MOL0     H87459  11.146   0.771   2.860  1.1085  0.6451  2.1425
  648MOL0     H87460  10.795   0.900   1.780  3.2076  2.4873 -2.0170
  648MOL0     H87461  10.641   0.972   1.596  0.4973  1.9273 -1.9353
  648MOL0     H87462  10.397   1.527   1.488 -0.8495  2.1904  0.4512
  648MOL0     H87463  10.220   1.601   1.331  1.0096  0.0434 -2.5552
  648MOL0     H87464   9.394   2.900   0.184 -0.0337 -1.4806  1.2832
  648MOL0     H87465   9.556   3.038   0.070  0.9348  1.4787  0.3231
  648MOL0     H87466   9.868   3.278   0.072 -0.2454  2.3604 -0.2646
  648MOL0     H87467  10.017   3.488   0.058  1.8660  0.8974 -0.3874
  648MOL0     H87468  10.150   3.634   0.095  2.0034 -3.4635  1.9036
  648MOL0     H87469  10.177   3.614  -0.080  0.9577 -1.0149 -0.4563
  648MOL0     H87470  10.409   3.702  -0.027 -0.2823 -3.4467  1.4573
  648MOL0     H87471  10.350   3.750   0.134  0.1938  0.9824  0.1739
  648MOL0     H87472  10.158   3.881   0.023 -1.0005  0.4379 -2.5172
  648MOL0     H87473  10.245   3.873  -0.127  0.6204 -2.3057 -0.2040
  648MOL0     H87474  10.354   4.017   0.125  3.3557  2.4337  0.1467
  648MOL0     H87475  10.448   3.960  -0.002  0.2079  1.1729 -0.1236
  648MOL0     H87476  10.259   4.282  -0.186  0.8802  1.4259  3.2337
  648MOL0     H87477  10.368   3.276   0.104 -1.0815  0.5024  1.3391
  648MOL0     H87478  10.284   2.955   0.061  0.8781 -2.5289  2.7174
  648MOL0     H87479  10.376   3.068   0.164 -0.5304  0.1331  1.4295
  648MOL0     H87480  10.260   2.960   0.227  2.0093 -0.5201  0.4223
  649MOL0     O87481   0.100   1.625   3.904  0.1855  0.6727  0.2100
  649MOL0     C87482   0.100   1.525   3.832  0.4055 -0.9326  0.3143
  649MOL0     O87483   0.175   1.519   3.717 -0.8219 -0.3350  0.2585
  649MOL0     C87484   0.286   1.603   3.694  0.2606  0.1224  0.2786
  649MOL0     C87485   0.281   1.743   3.693  0.4581 -0.0438 -1.0976
  649MOL0     C87486   0.396   1.810   3.661 -0.5761 -0.0913  0.3678
  649MOL0     C87487   0.510   1.749   3.611 -0.6704 -0.0515 -0.2397
  649MOL0     O87488   0.622   1.809   3.573  0.3719 -0.4255  0.2912
  649MOL0     C87489   0.647   1.948   3.590 -1.2492 -0.7883  0.4540
  649MOL0     C87490   0.764   2.005   3.513  1.0791  0.9098 -0.5968
  649MOL0     C87491   0.889   1.922   3.533  0.6125 -0.6288  0.3443
  649MOL0     C87492   1.008   1.982   3.454 -0.4003  0.3632 -0.2071
  649MOL0     C87493   1.138   1.917   3.479  0.4852 -0.7223  0.5087
  649MOL0     C87494   1.147   1.765   3.437 -0.1432 -0.8432 -0.0604
  649MOL0     C87495   1.196   1.752   3.293  0.7505 -0.0292 -0.5181
  649MOL0     C87496   1.279   1.620   3.275 -0.2115  0.6733 -0.0020
  649MOL0     N87497   1.194   1.500   3.294 -0.7686  0.4404 -0.0068
  649MOL0     C87498   1.107   1.454   3.200 -0.7365  0.2981 -0.9884
  649MOL0     C87499   1.053   1.345   3.259 -0.2328 -0.5187 -0.1308
  649MOL0     C87500   0.938   1.263   3.220 -0.2961  0.2464  0.4306
  649MOL0     C87501   0.982   1.158   3.106  1.0106 -0.8371 -0.6066
  649MOL0     C87502   1.051   1.231   2.984 -0.0285  0.3946  0.8077
  649MOL0     C87503   1.062   1.148   2.860 -0.8499 -0.5299  0.1414
  649MOL0     O87504   1.126   1.231   2.766 -0.1322  1.0489  0.7694
  649MOL0     C87505   1.122   1.185   2.634 -0.4668  0.0176 -0.3329
  649MOL0     C87506   1.078   1.068   2.573 -0.3889  0.7216 -0.0497
  649MOL0     C87507   1.097   1.045   2.443  0.4543 -0.2653 -0.1018
  649MOL0     C87508   1.142   1.143   2.353  0.1550 -0.4407  0.2635
  649MOL0     C87509   1.173   1.113   2.213 -0.7588  0.5259  0.2516
  649MOL0     O87510   1.228   1.214   2.137  0.0683 -0.2054 -1.1714
  649MOL0     C87511   1.285   1.179   2.014  0.8718  1.2458 -0.2153
  649MOL0     C87512   1.431   1.167   2.016  0.6887  0.5540  0.2372
  649MOL0     C87513   1.509   1.140   1.904 -0.7429 -0.1960 -0.0574
  649MOL0     C87514   1.446   1.144   1.780 -0.3652 -0.3257  0.3133
  649MOL0     O87515   1.521   1.134   1.662  0.1558  0.0216  0.8264
  649MOL0     C87516   1.659   1.122   1.668  0.5503 -0.0164 -0.3577
  649MOL0     C87517   1.711   1.060   1.530  0.3416 -1.2437  0.2059
  649MOL0     C87518   1.852   1.024   1.532  0.1633  0.8580  0.2008
  649MOL0     C87519   1.943   1.143   1.555 -0.4506 -0.2139 -0.4708
  649MOL0     C87520   2.088   1.122   1.519 -1.3175  0.2678  0.1614
  649MOL0     C87521   2.192   1.182   1.621 -1.0213 -0.0103 -0.4676
  649MOL0     C87522   2.155   1.323   1.675 -0.6021  0.3824 -0.3263
  649MOL0     C87523   2.173   1.330   1.829 -0.1934 -0.1818  0.5569
  649MOL0    Cl87524   2.066   1.238   1.930 -0.3746 -0.1219  0.0213
  649MOL0     C87525   1.311   1.157   1.772 -0.3607 -0.9623 -0.2407
  649MOL0     C87526   1.230   1.176   1.882 -0.5012 -1.4504  0.3208
  649MOL0     O87527   1.153   0.999   2.171 -0.4007  0.7237  0.0310
  649MOL0     C87528   1.181   1.262   2.404  1.1330  0.8860 -0.0229
  649MOL0     C87529   1.177   1.283   2.543  0.5985 -0.3283  0.2053
  649MOL0     N87530   1.118   1.327   3.385 -0.0784 -0.5612  1.4934
  649MOL0     N87531   1.206   1.419   3.404  0.8772 -0.8014  0.3520
  649MOL0     C87532   0.505   1.610   3.597 -0.9592 -0.7210  0.5763
  649MOL0     C87533   0.401   1.532   3.654  0.5132 -0.5054 -0.0641
  649MOL0     C87534   0.013   1.404   3.864  0.5422 -0.9662  0.6412
  649MOL0     C87535   0.037   1.279   3.801  0.0350  0.0488 -0.0893
  649MOL0     C87536  -0.029   1.157   3.849  0.0221 -0.2243  0.6905
  649MOL0     C87537  -0.121   1.170   3.950 -0.3291 -0.3450 -0.7498
  649MOL0     O87538  -0.198   1.067   3.995 -0.7452 -0.9159  0.0631
  649MOL0     C87539  -0.198   0.938   3.928 -0.5196  0.5369 -0.4919
  649MOL0     C87540  -0.317   0.843   3.967  1.1070  0.4641  0.6427
  649MOL0     C87541  -0.453   0.910   3.987  0.3466  0.0712 -0.7636
  649MOL0     C87542  -0.521   0.952   3.858  0.1752 -0.4007  1.2134
  649MOL0     C87543  -0.660   0.989   3.893 -0.2853  0.9674 -0.2552
  649MOL0     C87544  -0.777   1.018   3.906 -0.2362  0.9769 -0.7392
  649MOL0     C87545  -0.140   1.288   4.015  0.4263 -0.1349 -0.0618
  649MOL0     C87546  -0.084   1.411   3.970 -0.3260  0.5181 -0.2890
  649MOL0     C87547  -0.099   1.522   4.070  0.1369  0.3496 -0.0428
  649MOL0     H87548   0.187   1.787   3.724 -1.1174 -2.5839 -1.9837
  649MOL0     H87549   0.384   1.917   3.674 -1.9818 -0.2738  0.6333
  649MOL0     H87550   0.552   1.996   3.567 -1.3405 -0.5921  1.1928
  649MOL0     H87551   0.671   1.956   3.697 -3.7158 -2.1038  1.1762
  649MOL0     H87552   0.788   2.105   3.550  0.4504  0.6575  0.5508
  649MOL0     H87553   0.732   2.003   3.408 -1.7715 -3.7692  0.0842
  649MOL0     H87554   0.886   1.816   3.507 -3.3475 -0.1528 -1.7591
  649MOL0     H87555   0.928   1.918   3.636  1.2756  0.9336  0.1802
  649MOL0     H87556   0.997   1.974   3.345 -1.3145 -3.1655  0.0154
  649MOL0     H87557   1.027   2.088   3.470 -2.0281  0.7398 -0.5485
  649MOL0     H87558   1.221   1.963   3.426 -2.2794 -0.0301 -3.6857
  649MOL0     H87559   1.156   1.932   3.586 -1.0341  0.8074  0.5936
  649MOL0     H87560   1.224   1.728   3.505  0.9911  0.7560 -0.4173
  649MOL0     H87561   1.054   1.708   3.451 -0.9651  0.8862  2.1910
  649MOL0     H87562   1.258   1.839   3.268 -1.1484  1.9332  1.1912
  649MOL0     H87563   1.111   1.754   3.225  1.3094 -0.8864 -1.2630
  649MOL0     H87564   1.317   1.625   3.173 -1.7744  0.4730 -0.6138
  649MOL0     H87565   1.357   1.601   3.350 -1.1312 -3.0796  0.2029
  649MOL0     H87566   1.081   1.475   3.096 -0.1988 -3.3703 -1.9919
  649MOL0     H87567   0.906   1.218   3.315  0.0676  0.0609  0.4666
  649MOL0     H87568   0.848   1.317   3.186 -0.4746  0.0782  0.6314
  649MOL0     H87569   1.055   1.095   3.159  1.2596 -2.3369 -2.6062
  649MOL0     H87570   0.904   1.100   3.056  1.6207  0.5515 -3.3479
  649MOL0     H87571   1.151   1.263   3.012  0.2378 -0.8844  1.3865
  649MOL0     H87572   0.998   1.323   2.958  0.0505 -0.2388 -1.8065
  649MOL0     H87573   0.963   1.118   2.823 -0.8362  0.8099 -1.1227
  649MOL0     H87574   1.118   1.057   2.880  0.7331 -0.4193 -3.0844
  649MOL0     H87575   1.037   0.983   2.627  3.6786 -1.3909  0.1181
  649MOL0     H87576   1.081   0.948   2.395 -0.2729  0.1484 -0.7050
  649MOL0     H87577   1.483   1.193   2.107  0.8086 -0.4340  0.4642
  649MOL0     H87578   1.617   1.137   1.914 -0.7031  3.3813  2.1992
  649MOL0     H87579   1.690   1.227   1.677  1.5391 -0.4279  1.5802
  649MOL0     H87580   1.701   1.063   1.750  2.1610 -0.7727 -1.6802
  649MOL0     H87581   1.649   0.977   1.495 -3.4474  2.2323 -2.0310
  649MOL0     H87582   1.689   1.142   1.461 -1.0116 -1.0944  0.7930
  649MOL0     H87583   1.865   0.939   1.600 -3.8013 -0.8464 -0.8580
  649MOL0     H87584   1.875   0.989   1.431  3.2956  0.2252  1.0416
  649MOL0     H87585   1.928   1.180   1.656  2.3340  0.3832 -0.1921
  649MOL0     H87586   1.905   1.219   1.485 -0.7082 -1.9834 -2.3603
  649MOL0     H87587   2.106   1.169   1.422 -6.1481  0.8171 -0.6924
  649MOL0     H87588   2.113   1.018   1.498  1.0401  0.1985  2.7466
  649MOL0     H87589   2.193   1.113   1.706  0.1139 -1.0678 -1.2983
  649MOL0     H87590   2.293   1.185   1.579 -0.4296  1.8185  0.9186
  649MOL0     H87591   2.053   1.349   1.645  0.3946  1.2389 -3.3271
  649MOL0     H87592   2.221   1.401   1.635 -0.0751  0.9073  1.4972
  649MOL0     H87593   2.274   1.292   1.848  1.0741  0.4458 -3.8277
  649MOL0     H87594   2.166   1.432   1.868 -0.6635 -0.2492  0.6505
  649MOL0     H87595   1.258   1.158   1.678  0.4129  1.7946 -0.7306
  649MOL0     H87596   1.122   1.188   1.885 -0.2679  1.1064  2.7757
  649MOL0     H87597   1.215   1.339   2.337 -0.6915 -0.7320 -3.0223
  649MOL0     H87598   1.197   1.387   2.569  3.1619 -0.5722 -0.4999
  649MOL0     H87599   0.578   1.556   3.537 -0.5351 -0.9786  1.3138
  649MOL0     H87600   0.433   1.429   3.663  2.0281 -0.1312 -0.7162
  649MOL0     H87601   0.105   1.266   3.718 -1.1624  0.2580 -1.1187
  649MOL0     H87602  -0.013   1.058   3.808  0.1330  0.7509 -1.7957
  649MOL0     H87603  -0.106   0.884   3.947 -1.9424 -1.5563  0.8171
  649MOL0     H87604  -0.198   0.964   3.822 -3.6976  1.3362 -0.4224
  649MOL0     H87605  -0.293   0.790   4.060 -0.3555  0.2884  0.9339
  649MOL0     H87606  -0.333   0.769   3.888  2.5799  2.1134 -1.2826
  649MOL0     H87607  -0.440   0.997   4.052  1.9512  0.2889 -1.3231
  649MOL0     H87608  -0.526   0.843   4.034 -0.6975  1.2190 -0.6966
  649MOL0     H87609  -0.479   1.046   3.820 -3.0192  0.8216  0.4401
  649MOL0     H87610  -0.516   0.874   3.781 -0.1918 -0.5288  1.3178
  649MOL0     H87611  -0.879   1.050   3.918 -0.3460  0.0066  1.4466
  649MOL0     H87612  -0.203   1.282   4.103 -0.8173 -0.1670 -0.9369
  649MOL0     H87613  -0.001   1.536   4.118  0.6423 -1.9542 -0.3138
  649MOL0     H87614  -0.129   1.616   4.023  2.0081  1.0787  0.1153
  649MOL0     H87615  -0.181   1.519   4.142  0.7679  3.3663  0.9407
  650MOL0     O87616   5.242   8.059   6.935  0.2503 -0.1209 -0.1272
  650MOL0     C87617   5.173   8.011   7.030  0.2814 -0.5544  0.5799
  650MOL0     O87618   5.225   7.924   7.132  0.5795 -0.7626 -0.2730
  650MOL0     C87619   5.363   7.900   7.142 -0.5385 -0.7524 -0.3957
  650MOL0     C87620   5.434   7.816   7.052  1.6448  1.1477 -0.2952
  650MOL0     C87621   5.565   7.783   7.084 -0.1725 -0.8406 -0.0195
  650MOL0     C87622   5.641   7.851   7.179 -0.4951 -1.2894 -0.1594
  650MOL0     O87623   5.778   7.832   7.211  0.7263  0.2678 -0.2385
  650MOL0     C87624   5.850   7.750   7.118 -0.0693 -0.4878  0.0995
  650MOL0     C87625   5.989   7.722   7.182 -0.4376  0.0225  0.9195
  650MOL0     C87626   6.104   7.809   7.137  0.2033  0.0271 -0.1489
  650MOL0     C87627   6.102   7.943   7.194  0.3742 -0.3774  0.1159
  650MOL0     C87628   6.171   8.038   7.096 -0.0294  0.0122  0.1562
  650MOL0     C87629   6.208   8.170   7.164 -0.2520 -0.0037 -0.4260
  650MOL0     C87630   6.347   8.167   7.248  0.0212  0.3060  0.1098
  650MOL0     C87631   6.479   8.158   7.162  0.3808  0.5458 -1.0573
  650MOL0     N87632   6.597   8.179   7.240  0.0140 -0.2896  0.8830
  650MOL0     C87633   6.677   8.290   7.221  0.3620 -1.1055 -1.2435
  650MOL0     C87634   6.772   8.272   7.310 -0.5233  0.7252  0.4399
  650MOL0     C87635   6.891   8.359   7.324 -0.9455 -0.0972  0.4865
  650MOL0     C87636   7.023   8.289   7.285 -0.9368 -1.0806 -1.2925
  650MOL0     C87637   7.099   8.205   7.386 -1.1130 -0.7191  0.3384
  650MOL0     C87638   7.164   8.282   7.506 -0.4587  0.1289  0.4773
  650MOL0     O87639   7.273   8.359   7.453 -0.0553 -0.3008  0.3437
  650MOL0     C87640   7.337   8.448   7.536 -0.2102 -0.0457 -0.0188
  650MOL0     C87641   7.443   8.519   7.482 -0.1231 -1.1582 -0.8637
  650MOL0     C87642   7.503   8.635   7.555  1.1076  0.1157  0.7424
  650MOL0     C87643   7.460   8.659   7.690 -0.1338 -0.4829 -0.5221
  650MOL0     C87644   7.540   8.748   7.774 -0.2073 -0.2471 -0.4172
  650MOL0     O87645   7.596   8.856   7.718  0.5737 -0.0786  0.3786
  650MOL0     C87646   7.653   8.944   7.809  0.0420 -0.0202  0.0189
  650MOL0     C87647   7.783   8.963   7.835 -0.6019  0.9336 -0.0589
  650MOL0     C87648   7.834   9.057   7.933  1.0125  0.0734  0.9956
  650MOL0     C87649   7.744   9.135   8.009  0.1062  0.0571  1.2802
  650MOL0     O87650   7.796   9.209   8.107  0.6102 -0.4571  0.1389
  650MOL0     C87651   7.716   9.255   8.215  0.5002  0.4180  0.8511
  650MOL0     C87652   7.794   9.359   8.302  1.1856 -0.2482 -0.0565
  650MOL0     C87653   7.920   9.311   8.379  0.2553  0.0531 -0.8656
  650MOL0     C87654   7.956   9.413   8.486  0.6124  0.4907 -0.2255
  650MOL0     C87655   8.073   9.371   8.570 -0.6410  0.1449 -0.6087
  650MOL0     C87656   8.208   9.384   8.491 -0.0125  0.1767 -0.1571
  650MOL0     C87657   8.344   9.365   8.569  0.2864 -0.3175  0.7118
  650MOL0     C87658   8.402   9.506   8.605 -0.1813  0.2987  0.7281
  650MOL0    Cl87659   8.485   9.570   8.463  0.1325  0.2288 -0.1107
  650MOL0     C87660   7.612   9.131   7.968 -1.0488  0.1591  0.0518
  650MOL0     C87661   7.569   9.039   7.866 -0.1080  0.1310 -0.0790
  650MOL0     O87662   7.544   8.711   7.893  0.1261 -0.9470 -0.7029
  650MOL0     C87663   7.356   8.583   7.747 -0.0066 -0.4843  0.3621
  650MOL0     C87664   7.292   8.489   7.664 -0.1934  0.6620 -0.9686
  650MOL0     N87665   6.758   8.147   7.373  0.8229  0.5197  0.0704
  650MOL0     N87666   6.642   8.098   7.337 -0.1405 -0.0542  0.8242
  650MOL0     C87667   5.573   7.940   7.260  0.3385  0.2339  0.5539
  650MOL0     C87668   5.432   7.966   7.247 -0.7812 -0.1784  1.0186
  650MOL0     C87669   5.032   8.065   7.037 -1.1716  0.9399 -0.6423
  650MOL0     C87670   4.945   7.996   7.129  0.1728  0.3828 -0.4938
  650MOL0     C87671   4.811   8.039   7.128  0.5023  0.6392  0.0457
  650MOL0     C87672   4.756   8.134   7.047 -0.5215  0.3302  0.1059
  650MOL0     O87673   4.624   8.174   7.053 -0.0856 -0.4445  0.0245
  650MOL0     C87674   4.590   8.273   7.150  0.1130  1.3264 -0.0457
  650MOL0     C87675   4.614   8.231   7.296  0.5873  0.0764  1.0094
  650MOL0     C87676   4.496   8.148   7.342 -0.0454 -0.0425  0.2082
  650MOL0     C87677   4.508   8.090   7.477 -0.4122  0.0250 -0.5759
  650MOL0     C87678   4.393   8.000   7.507  0.1893  0.2702  0.2010
  650MOL0     C87679   4.280   7.951   7.516  0.2210  0.0118 -0.8253
  650MOL0     C87680   4.842   8.201   6.963  0.5100  0.0018 -0.5617
  650MOL0     C87681   4.983   8.170   6.962  0.1449 -0.1412 -0.2423
  650MOL0     C87682   5.051   8.245   6.849 -0.6598  0.0670 -0.2496
  650MOL0     H87683   5.388   7.760   6.970  0.3686 -0.7254  1.5946
  650MOL0     H87684   5.608   7.713   7.012  2.0732  3.3991 -3.2822
  650MOL0     H87685   5.799   7.654   7.111  0.7277 -0.8562 -1.1129
  650MOL0     H87686   5.853   7.786   7.014 -4.9675 -0.0207 -0.0957
  650MOL0     H87687   6.017   7.621   7.150 -0.8045  0.8354 -2.3376
  650MOL0     H87688   5.976   7.725   7.290  0.7271  0.7330  1.0547
  650MOL0     H87689   6.101   7.822   7.029 -1.9093 -0.8288 -0.2449
  650MOL0     H87690   6.197   7.762   7.169  3.6681  4.2599 -2.9227
  650MOL0     H87691   5.998   7.973   7.208  0.8132  0.8751  0.9176
  650MOL0     H87692   6.150   7.943   7.293 -1.1423  1.6245  0.9221
  650MOL0     H87693   6.262   7.991   7.058  2.2873  2.9936  1.5371
  650MOL0     H87694   6.108   8.064   7.011  2.1240 -0.9293 -1.8242
  650MOL0     H87695   6.220   8.248   7.088  1.4753 -2.1492 -2.5548
  650MOL0     H87696   6.128   8.197   7.233  2.1639  1.6572  1.9260
  650MOL0     H87697   6.352   8.078   7.312 -0.3872  1.2110  1.4356
  650MOL0     H87698   6.354   8.253   7.314 -0.7227  0.8176 -0.4620
  650MOL0     H87699   6.478   8.061   7.112 -1.7574  0.1690 -0.3921
  650MOL0     H87700   6.478   8.234   7.084 -1.7396  1.4365 -0.2458
  650MOL0     H87701   6.660   8.377   7.157  0.7679 -2.2005 -2.9158
  650MOL0     H87702   6.873   8.452   7.269 -0.6891 -1.0259 -1.2526
  650MOL0     H87703   6.884   8.392   7.428  0.1505 -2.1424  1.2699
  650MOL0     H87704   6.995   8.238   7.192 -4.1566  1.0003 -1.6130
  650MOL0     H87705   7.086   8.376   7.263 -1.7192 -0.1518 -0.0215
  650MOL0     H87706   7.171   8.136   7.341  2.4459  2.5284  0.5488
  650MOL0     H87707   7.035   8.130   7.432 -0.5780 -1.6916 -0.4589
  650MOL0     H87708   7.198   8.210   7.581 -1.2747 -0.5250  0.2433
  650MOL0     H87709   7.090   8.348   7.552 -0.4292  0.1438  0.5034
  650MOL0     H87710   7.479   8.507   7.381  0.8148  0.1084 -0.7076
  650MOL0     H87711   7.591   8.678   7.508  0.0085  0.6423 -0.9383
  650MOL0     H87712   7.858   8.895   7.795 -0.1959 -0.9596  3.5051
  650MOL0     H87713   7.942   9.056   7.948  1.0222 -1.4237  0.9952
  650MOL0     H87714   7.622   9.301   8.185 -0.1241 -0.8963  0.7020
  650MOL0     H87715   7.693   9.163   8.271 -2.7976  2.1492  2.6724
  650MOL0     H87716   7.837   9.434   8.235 -2.6275  2.4595  0.1749
  650MOL0     H87717   7.719   9.410   8.364  1.6698  0.2789  0.1054
  650MOL0     H87718   7.889   9.219   8.430 -0.3877  2.3606  3.3491
  650MOL0     H87719   8.003   9.276   8.315  1.0274 -0.2489  0.2674
  650MOL0     H87720   7.860   9.423   8.538 -1.0141 -2.7574 -2.2430
  650MOL0     H87721   7.978   9.509   8.439 -1.6014  1.8884  1.3815
  650MOL0     H87722   8.064   9.275   8.622 -3.6288  0.1766 -0.8726
  650MOL0     H87723   8.073   9.437   8.657 -0.5993 -2.0192  1.1059
  650MOL0     H87724   8.210   9.328   8.397 -0.5078 -0.2756  0.0948
  650MOL0     H87725   8.216   9.489   8.461 -3.8865  0.2127 -1.5672
  650MOL0     H87726   8.423   9.307   8.521 -0.6960 -3.4143  2.5378
  650MOL0     H87727   8.316   9.302   8.654 -0.3772  0.7522  1.3074
  650MOL0     H87728   8.324   9.572   8.642 -1.7773  0.2324 -2.2225
  650MOL0     H87729   8.475   9.476   8.681  1.0119  1.0414 -0.0861
  650MOL0     H87730   7.550   9.217   7.990 -0.2192  0.9563 -0.6723
  650MOL0     H87731   7.465   9.039   7.837 -0.5201 -1.4416  1.2875
  650MOL0     H87732   7.313   8.603   7.844 -1.2387 -0.5204 -0.1577
  650MOL0     H87733   7.195   8.467   7.706  0.0087  0.4736 -0.6044
  650MOL0     H87734   5.622   7.994   7.340 -2.6205  1.4808  1.6834
  650MOL0     H87735   5.397   8.051   7.305  1.5033  2.1005 -0.7119
  650MOL0     H87736   4.974   7.921   7.203 -1.6019  0.8247  0.7077
  650MOL0     H87737   4.739   7.990   7.191 -1.4345 -0.1060 -2.5703
  650MOL0     H87738   4.482   8.292   7.142  0.0921  1.0129 -0.5773
  650MOL0     H87739   4.633   8.369   7.121 -0.3301  1.0252 -1.8274
  650MOL0     H87740   4.618   8.320   7.360  2.1082 -0.9077  2.3616
  650MOL0     H87741   4.706   8.174   7.310 -1.1560 -3.4542 -0.6979
  650MOL0     H87742   4.465   8.069   7.273 -0.5389 -0.2354  0.6452
  650MOL0     H87743   4.415   8.222   7.338 -0.2738 -0.3374 -2.3871
  650MOL0     H87744   4.606   8.045   7.494  0.3091  0.8921 -2.2260
  650MOL0     H87745   4.511   8.164   7.557  0.7404  0.5304 -1.0625
  650MOL0     H87746   4.187   7.898   7.510  0.4828 -0.3866 -1.5637
  650MOL0     H87747   4.822   8.294   6.912 -0.3426  1.1019  1.6680
  650MOL0     H87748   5.052   8.172   6.768  1.4740 -0.4145  0.1353
  650MOL0     H87749   5.001   8.333   6.808 -0.4611 -0.8937 -2.7364
  650MOL0     H87750   5.151   8.278   6.880 -1.1691  1.0847  0.3529
  651MOL0     O87751  11.117   4.453   3.091  0.0838 -0.7454  0.2734
  651MOL0     C87752  11.052   4.550   3.135  0.8376 -0.2863 -0.0622
  651MOL0     O87753  10.946   4.608   3.065  0.6176  0.3874 -0.1861
  651MOL0     C87754  10.936   4.600   2.931  0.7439 -0.6146  0.2938
  651MOL0     C87755  10.910   4.482   2.862  0.2577  0.2393 -0.6535
  651MOL0     C87756  10.922   4.480   2.720 -0.7687  0.2443 -0.2414
  651MOL0     C87757  10.967   4.592   2.649  0.5003  0.7374  0.1683
  651MOL0     O87758  10.975   4.579   2.514  1.0632  0.5315  0.0990
  651MOL0     C87759  11.008   4.686   2.424  1.1943 -0.6659  1.3378
  651MOL0     C87760  10.887   4.783   2.408  0.4419 -0.6582 -0.6100
  651MOL0     C87761  10.861   4.790   2.261 -0.4506  0.2797 -0.3743
  651MOL0     C87762  10.743   4.886   2.234 -0.0756 -0.6859  0.5171
  651MOL0     C87763  10.751   4.932   2.085  0.5196 -0.2083 -0.7258
  651MOL0     C87764  10.624   4.913   2.010  1.0243  0.0273  0.3805
  651MOL0     C87765  10.491   4.970   2.072 -0.1480 -0.4518  0.0710
  651MOL0     C87766  10.389   4.994   1.963 -0.7200  0.1366  0.0066
  651MOL0     N87767  10.416   5.115   1.884  0.1317  0.1750  0.4901
  651MOL0     C87768  10.485   5.228   1.911 -0.4053 -0.6811 -0.4194
  651MOL0     C87769  10.501   5.283   1.786 -0.8607  0.1181  0.4329
  651MOL0     C87770  10.586   5.400   1.759 -0.7509 -0.4156  0.3176
  651MOL0     C87771  10.531   5.541   1.775  0.7502 -0.1378 -0.7986
  651MOL0     C87772  10.459   5.555   1.910  0.7360 -0.6426  0.1763
  651MOL0     C87773  10.375   5.680   1.911 -0.4463 -0.1888 -0.5145
  651MOL0     O87774  10.412   5.800   1.977 -0.5270  0.0397 -0.2220
  651MOL0     C87775  10.482   5.793   2.098 -0.2970  0.6985  0.5557
  651MOL0     C87776  10.441   5.712   2.203 -0.7503 -0.6980 -0.0997
  651MOL0     C87777  10.504   5.721   2.331 -0.1865  1.2259 -0.0309
  651MOL0     C87778  10.618   5.803   2.347  0.3235  0.5745 -0.2170
  651MOL0     C87779  10.689   5.802   2.475  0.2481  0.1472  0.4352
  651MOL0     O87780  10.605   5.774   2.578 -0.1321  0.0090 -0.7035
  651MOL0     C87781  10.655   5.789   2.705  0.5829  0.7048 -0.2902
  651MOL0     C87782  10.584   5.873   2.792 -0.1548 -0.7645 -0.5292
  651MOL0     C87783  10.629   5.890   2.924  0.0335 -0.5042 -1.0462
  651MOL0     C87784  10.739   5.823   2.966 -0.8091 -0.5012 -0.4437
  651MOL0     O87785  10.791   5.827   3.096  0.1899 -0.1847 -0.0577
  651MOL0     C87786  10.718   5.917   3.188 -0.3075 -0.6552  0.1816
  651MOL0     C87787  10.758   5.898   3.333  0.2249 -0.1903 -0.0744
  651MOL0     C87788  10.754   5.754   3.385  0.1290 -0.2548 -0.4316
  651MOL0     C87789  10.878   5.702   3.456  0.1035 -0.5623  0.3102
  651MOL0     C87790  10.867   5.556   3.494  0.1609 -0.5780  0.5866
  651MOL0     C87791  10.783   5.531   3.609  0.5880 -0.6119  0.1250
  651MOL0     C87792  10.774   5.374   3.626 -0.4064 -0.8651  0.6500
  651MOL0     C87793  10.654   5.350   3.718 -0.0867  0.4807  0.4987
  651MOL0    Cl87794  10.684   5.426   3.877  0.1865  0.0422  0.0859
  651MOL0     C87795  10.812   5.739   2.887  0.0605 -0.0620  0.8764
  651MOL0     C87796  10.781   5.725   2.751  1.3502  0.4019  0.1712
  651MOL0     O87797  10.805   5.842   2.476  0.2866 -0.2048 -0.3861
  651MOL0     C87798  10.669   5.864   2.232  0.5638 -0.4494 -0.7804
  651MOL0     C87799  10.597   5.867   2.108  0.1556  0.3670  0.0400
  651MOL0     N87800  10.444   5.206   1.684 -0.3659 -0.6604  0.5957
  651MOL0     N87801  10.392   5.102   1.750  0.6366 -0.7179  0.4228
  651MOL0     C87802  10.981   4.711   2.718  0.4140 -0.0321 -0.4690
  651MOL0     C87803  10.959   4.720   2.859  0.0046  0.7950  0.6070
  651MOL0     C87804  11.118   4.614   3.248 -0.3203  0.1082 -0.8428
  651MOL0     C87805  11.258   4.597   3.269  0.0385  0.2035 -0.8754
  651MOL0     C87806  11.329   4.678   3.356 -0.1077  0.8355  0.1081
  651MOL0     C87807  11.270   4.786   3.421  0.3174  0.1924 -0.0556
  651MOL0     O87808  11.328   4.879   3.508  0.4279  0.1656 -0.0353
  651MOL0     C87809  11.477   4.881   3.503 -0.1105 -1.4155 -0.2420
  651MOL0     C87810  11.531   5.010   3.578 -0.8244  1.0319  0.4999
  651MOL0     C87811  11.492   4.995   3.723  0.2566  0.1634 -0.3643
  651MOL0     C87812  11.490   5.140   3.792  0.2721 -0.4867 -1.2412
  651MOL0     C87813  11.427   5.114   3.924  0.0422 -0.5456 -0.2121
  651MOL0     C87814  11.378   5.079   4.028  0.0946  0.2208  0.1384
  651MOL0     C87815  11.132   4.801   3.401  0.5466  0.3116 -0.2497
  651MOL0     C87816  11.053   4.715   3.320 -0.3812 -0.3316 -1.3695
  651MOL0     C87817  10.896   4.724   3.322  0.8419  0.9127  0.2639
  651MOL0     H87818  10.878   4.397   2.922 -2.8572  0.0807 -2.3095
  651MOL0     H87819  10.914   4.385   2.669  3.0568  0.4743 -1.5943
  651MOL0     H87820  11.091   4.742   2.468  2.8742 -0.8545 -1.3652
  651MOL0     H87821  11.039   4.653   2.324  2.4179  0.6315  1.2569
  651MOL0     H87822  10.903   4.882   2.452  2.5483 -1.8342  1.5017
  651MOL0     H87823  10.794   4.744   2.451  0.4259  0.5774  0.5522
  651MOL0     H87824  10.837   4.693   2.217 -1.4257  0.1383  0.4272
  651MOL0     H87825  10.953   4.831   2.221  1.1942 -0.0609  2.7522
  651MOL0     H87826  10.649   4.831   2.244 -0.8665  0.7730  1.7609
  651MOL0     H87827  10.727   4.973   2.299 -1.8319  0.6238 -1.5427
  651MOL0     H87828  10.790   5.033   2.076  1.6251 -0.0425  3.6289
  651MOL0     H87829  10.825   4.869   2.036  0.4481 -1.4474  0.6629
  651MOL0     H87830  10.646   4.964   1.916  0.3002 -2.1591 -1.0460
  651MOL0     H87831  10.612   4.807   1.985 -0.5660  0.5944 -1.4640
  651MOL0     H87832  10.512   5.057   2.135 -0.6877  0.2342 -0.6754
  651MOL0     H87833  10.453   4.892   2.138 -0.6522 -1.9756 -1.9124
  651MOL0     H87834  10.399   4.909   1.895 -0.7736 -1.0269  1.3979
  651MOL0     H87835  10.286   5.010   1.998 -1.6567 -2.5106 -1.2603
  651MOL0     H87836  10.520   5.271   2.005  2.0623 -0.4346 -1.3735
  651MOL0     H87837  10.685   5.390   1.804 -0.7622  2.3643  1.1661
  651MOL0     H87838  10.610   5.382   1.654 -1.5686  2.0527 -0.3625
  651MOL0     H87839  10.617   5.609   1.780 -0.8074  1.9859 -1.1360
  651MOL0     H87840  10.466   5.569   1.692  1.6272  0.0852 -1.4302
  651MOL0     H87841  10.528   5.560   1.994  0.8174  4.4124  0.0788
  651MOL0     H87842  10.389   5.473   1.930 -0.0069  0.0192  0.3576
  651MOL0     H87843  10.284   5.641   1.957  0.5121 -2.9411 -0.8202
  651MOL0     H87844  10.333   5.699   1.812 -0.1945 -3.1604 -1.2678
  651MOL0     H87845  10.362   5.645   2.172  0.7229 -1.3705 -2.7362
  651MOL0     H87846  10.480   5.662   2.419  0.8525  4.3627  2.5446
  651MOL0     H87847  10.498   5.929   2.757 -0.0956 -1.7023 -2.2974
  651MOL0     H87848  10.581   5.964   2.987  1.6779 -0.6639  0.4598
  651MOL0     H87849  10.732   6.024   3.172 -4.5603  0.5383  2.7322
  651MOL0     H87850  10.613   5.891   3.173 -1.0952  2.6528 -0.7844
  651MOL0     H87851  10.855   5.945   3.354  0.1249  1.3821 -2.6731
  651MOL0     H87852  10.680   5.951   3.389  1.2525  0.5983  0.6564
  651MOL0     H87853  10.662   5.743   3.443  0.3708  0.0477  0.0189
  651MOL0     H87854  10.738   5.683   3.304 -0.2096 -3.1962  2.0200
  651MOL0     H87855  10.902   5.767   3.541 -0.7697  2.1356 -1.3770
  651MOL0     H87856  10.958   5.709   3.382  2.4091 -1.6599  2.5242
  651MOL0     H87857  10.972   5.533   3.518  1.3820  0.8877 -2.6641
  651MOL0     H87858  10.836   5.495   3.409  2.4387 -2.0514  0.7192
  651MOL0     H87859  10.820   5.570   3.703 -1.9578  4.4802 -0.6408
  651MOL0     H87860  10.692   5.590   3.595  1.3699  0.9684  1.4156
  651MOL0     H87861  10.870   5.348   3.671  0.2913 -2.4080 -1.5813
  651MOL0     H87862  10.771   5.325   3.528 -1.8872  1.7057 -0.7153
  651MOL0     H87863  10.555   5.383   3.686 -0.7964 -0.5775  1.5376
  651MOL0     H87864  10.630   5.244   3.732 -0.1708 -0.3250 -4.1423
  651MOL0     H87865  10.908   5.698   2.918  0.7266  0.6494 -0.1906
  651MOL0     H87866  10.838   5.670   2.677  0.2694 -1.7860  0.8871
  651MOL0     H87867  10.766   5.912   2.232  0.9406 -1.1873  0.3303
  651MOL0     H87868  10.632   5.920   2.020 -0.4635  0.0888 -0.3861
  651MOL0     H87869  10.997   4.800   2.658 -0.7078  1.1910  0.9626
  651MOL0     H87870  10.969   4.814   2.912  4.3426  1.2920 -0.6849
  651MOL0     H87871  11.306   4.517   3.213  0.6401  3.0872 -4.9092
  651MOL0     H87872  11.434   4.660   3.374 -0.0857 -0.7179 -1.2964
  651MOL0     H87873  11.519   4.877   3.403  1.6811  1.7695  0.2637
  651MOL0     H87874  11.520   4.807   3.571  0.1242  1.5050  3.1327
  651MOL0     H87875  11.475   5.095   3.538 -0.5915  1.5954  1.3428
  651MOL0     H87876  11.639   5.012   3.562 -0.8367  1.5215  0.4729
  651MOL0     H87877  11.550   4.925   3.784  1.3008  1.3594  0.0767
  651MOL0     H87878  11.389   4.961   3.729 -0.7925  3.2909  1.7227
  651MOL0     H87879  11.588   5.184   3.814  0.9270 -1.4766 -2.0678
  651MOL0     H87880  11.435   5.217   3.736 -1.2071  2.7716  4.0145
  651MOL0     H87881  11.332   5.025   4.109 -0.1686  0.0250 -0.1354
  651MOL0     H87882  11.087   4.884   3.453 -0.6546  0.0930 -0.8963
  651MOL0     H87883  10.877   4.747   3.427  1.0422 -0.1681  0.5598
  651MOL0     H87884  10.855   4.788   3.243 -4.2732 -2.3076 -0.1699
  651MOL0     H87885  10.845   4.629   3.302  4.2902 -0.9439 -0.6900
  652MOL0     O87886   9.403   5.337   3.917 -0.6123 -0.3093  0.9285
  652MOL0     C87887   9.485   5.371   3.828 -0.1653  0.6361 -0.0548
  652MOL0     O87888   9.451   5.408   3.700 -0.2241  0.4247  0.7630
  652MOL0     C87889   9.329   5.368   3.657  0.7705 -0.7561 -0.1881
  652MOL0     C87890   9.318   5.309   3.533  0.5500  1.6305  0.0992
  652MOL0     C87891   9.190   5.265   3.490 -0.8894  0.1478  0.4831
  652MOL0     C87892   9.080   5.300   3.569  0.2799  0.1351 -0.3630
  652MOL0     O87893   8.956   5.254   3.514 -0.0909 -0.6761 -0.2915
  652MOL0     C87894   8.846   5.247   3.605  0.1503  0.1957  0.8880
  652MOL0     C87895   8.724   5.201   3.524  0.0970  0.4578  0.0422
  652MOL0     C87896   8.615   5.166   3.621  1.4143 -0.2964  0.8336
  652MOL0     C87897   8.492   5.128   3.535  0.2036 -0.1706  0.2324
  652MOL0     C87898   8.445   5.225   3.425 -0.1538  0.6392  0.9077
  652MOL0     C87899   8.328   5.159   3.360 -0.1803 -0.2705 -0.4560
  652MOL0     C87900   8.237   5.255   3.294 -0.2977  0.1218  0.4908
  652MOL0     C87901   8.295   5.319   3.172 -0.5203  0.7749  0.1944
  652MOL0     N87902   8.198   5.400   3.104 -0.0391  1.2492  0.3516
  652MOL0     C87903   8.084   5.351   3.051  0.0161  0.0864 -0.6655
  652MOL0     C87904   8.041   5.435   2.952 -0.0684  0.2940 -0.2776
  652MOL0     C87905   7.924   5.416   2.862 -1.0105 -0.0750 -0.2776
  652MOL0     C87906   7.984   5.409   2.720 -1.2464  0.0081  0.2626
  652MOL0     C87907   7.887   5.454   2.609 -0.0687  0.1346 -0.0969
  652MOL0     C87908   7.943   5.419   2.472  0.4044 -0.3654 -0.0492
  652MOL0     O87909   7.837   5.449   2.374  0.8574 -0.5341 -0.2340
  652MOL0     C87910   7.851   5.405   2.245  0.4863 -0.3697 -0.2242
  652MOL0     C87911   7.909   5.487   2.141 -0.0694 -0.2551  0.2055
  652MOL0     C87912   7.966   5.425   2.022  0.2785  0.7338  0.4716
  652MOL0     C87913   7.934   5.292   1.999  1.3890  0.1622 -0.4891
  652MOL0     C87914   7.965   5.223   1.872  0.2116 -0.5816 -0.0124
  652MOL0     O87915   8.025   5.315   1.782  0.2983  0.3689  0.1884
  652MOL0     C87916   8.046   5.290   1.646 -0.5250  0.5972  0.3758
  652MOL0     C87917   8.096   5.166   1.600  0.5368  0.1621  0.0882
  652MOL0     C87918   8.112   5.142   1.460 -0.1188 -0.0487 -0.7620
  652MOL0     C87919   8.077   5.240   1.366 -0.6881 -0.0195  0.0303
  652MOL0     O87920   8.093   5.232   1.225 -0.2387 -1.5188 -1.0227
  652MOL0     C87921   8.142   5.107   1.184 -0.3538  0.1962  0.7927
  652MOL0     C87922   8.119   5.095   1.037 -0.1678  0.4236  0.1710
  652MOL0     C87923   7.972   5.062   1.011  0.0715 -0.5781 -0.4713
  652MOL0     C87924   7.935   4.910   1.042 -0.3137  0.2952  0.4014
  652MOL0     C87925   7.797   4.868   0.973  0.2144  0.3629  0.3638
  652MOL0     C87926   7.777   4.721   1.004  0.0488 -0.8807 -0.1332
  652MOL0     C87927   7.642   4.666   0.950 -0.1485 -0.6476  0.3926
  652MOL0     C87928   7.516   4.724   1.012 -0.2293  1.4315  0.1415
  652MOL0    Cl87929   7.384   4.626   0.948  0.1137  0.4676 -0.2077
  652MOL0     C87930   8.034   5.363   1.414  0.5860 -0.0507 -0.9334
  652MOL0     C87931   8.020   5.392   1.553  0.6795  0.7105  0.4632
  652MOL0     O87932   7.937   5.102   1.856  0.7697 -0.1038  0.1968
  652MOL0     C87933   7.863   5.221   2.097  1.2718  0.2417 -0.3434
  652MOL0     C87934   7.833   5.272   2.218 -0.7293  0.7164 -0.9134
  652MOL0     N87935   8.138   5.530   2.955 -0.6385 -0.4959  0.4997
  652MOL0     N87936   8.233   5.514   3.039  0.2671  0.6508  0.1390
  652MOL0     C87937   9.089   5.380   3.682 -0.9787  0.4723 -0.4492
  652MOL0     C87938   9.214   5.410   3.727 -1.6035 -1.0171  0.4749
  652MOL0     C87939   9.619   5.398   3.881  0.0277  0.5976  0.2936
  652MOL0     C87940   9.634   5.455   4.003 -0.1475 -0.1278 -0.1409
  652MOL0     C87941   9.760   5.501   4.052  0.3471 -0.4353 -0.2676
  652MOL0     C87942   9.874   5.492   3.977  0.3497 -0.2508 -0.0924
  652MOL0     O87943   9.986   5.545   4.028  0.1013  0.3858  0.1494
  652MOL0     C87944  10.117   5.495   3.974  0.7883 -0.5666  0.1637
  652MOL0     C87945  10.208   5.548   4.080 -0.5851  0.2423 -0.0833
  652MOL0     C87946  10.346   5.566   4.029 -1.1124 -0.0614  0.3239
  652MOL0     C87947  10.451   5.599   4.132 -0.7189  0.5319 -0.5119
  652MOL0     C87948  10.446   5.508   4.251 -0.8841 -0.9594 -0.1388
  652MOL0     C87949  10.421   5.426   4.339 -0.7347  0.1126  0.4069
  652MOL0     C87950   9.858   5.432   3.846  0.1270  0.8447  0.5579
  652MOL0     C87951   9.736   5.383   3.797 -0.7011 -0.5244 -0.2518
  652MOL0     C87952   9.731   5.326   3.664 -0.0129  0.6369  0.2456
  652MOL0     H87953   9.408   5.286   3.478  0.6545 -2.4475  1.6490
  652MOL0     H87954   9.184   5.208   3.398  0.6480 -1.9828  1.6237
  652MOL0     H87955   8.860   5.167   3.679  1.5856 -2.6638 -2.2366
  652MOL0     H87956   8.822   5.349   3.637 -2.9194  0.3760 -1.4882
  652MOL0     H87957   8.748   5.118   3.457 -0.0885  1.9068 -1.9036
  652MOL0     H87958   8.702   5.290   3.464 -0.4151  1.8226  2.1732
  652MOL0     H87959   8.584   5.246   3.688  0.5225  0.2746 -0.2354
  652MOL0     H87960   8.639   5.082   3.688 -0.8186 -3.1975 -1.7440
  652MOL0     H87961   8.515   5.031   3.491 -1.0925 -0.7959  0.8888
  652MOL0     H87962   8.406   5.122   3.602 -0.4951  3.6012 -0.1173
  652MOL0     H87963   8.418   5.323   3.464 -0.4416  1.0376 -0.2344
  652MOL0     H87964   8.528   5.220   3.354  0.1410 -4.2568  1.2661
  652MOL0     H87965   8.353   5.093   3.277 -1.9707 -1.2601 -0.2646
  652MOL0     H87966   8.281   5.106   3.443  0.7647  1.9151  1.6047
  652MOL0     H87967   8.216   5.332   3.369  3.3419 -0.3549  2.1974
  652MOL0     H87968   8.146   5.201   3.266  0.7995 -1.5596  0.0318
  652MOL0     H87969   8.379   5.379   3.208 -0.7919 -0.1098  2.4872
  652MOL0     H87970   8.336   5.239   3.111 -0.1448 -0.4582  1.9697
  652MOL0     H87971   8.026   5.272   3.096  1.6105 -2.0351 -2.1112
  652MOL0     H87972   7.853   5.335   2.879 -1.1597  0.3608  1.2867
  652MOL0     H87973   7.875   5.514   2.868  1.4177  1.2783 -1.1704
  652MOL0     H87974   8.071   5.476   2.711  0.1783 -1.9241 -1.3850
  652MOL0     H87975   8.024   5.308   2.704  0.4211  0.7041 -0.2315
  652MOL0     H87976   7.883   5.561   2.630  1.8693 -0.3279  3.3431
  652MOL0     H87977   7.786   5.410   2.614 -0.7810  1.4655 -1.8057
  652MOL0     H87978   7.972   5.315   2.457  4.7205  0.7724 -1.0961
  652MOL0     H87979   8.037   5.473   2.456  0.7031 -1.6417 -3.4074
  652MOL0     H87980   7.946   5.587   2.164  2.2865 -1.0591  0.1683
  652MOL0     H87981   8.021   5.483   1.949 -1.4664  0.5535 -1.0525
  652MOL0     H87982   8.133   5.097   1.676  0.0885 -0.7556 -0.5149
  652MOL0     H87983   8.140   5.040   1.439  0.2439  0.4419 -2.9039
  652MOL0     H87984   8.248   5.095   1.209 -0.5144 -0.1041  1.3456
  652MOL0     H87985   8.094   5.020   1.228 -0.4859 -0.5305 -0.7095
  652MOL0     H87986   8.160   5.181   0.983  0.4055  2.5028  3.6421
  652MOL0     H87987   8.180   5.007   1.013  1.8226  0.9822  2.6973
  652MOL0     H87988   7.901   5.136   1.049  1.7046  1.9269 -1.9648
  652MOL0     H87989   7.950   5.073   0.904 -0.1539  2.3063 -0.1965
  652MOL0     H87990   7.929   4.912   1.151  1.8009  2.9036  0.5665
  652MOL0     H87991   8.015   4.840   1.019 -1.2110 -2.0931  3.7500
  652MOL0     H87992   7.780   4.879   0.866  1.3143  0.2062  0.1558
  652MOL0     H87993   7.725   4.938   1.017 -3.7114 -2.2932 -1.3353
  652MOL0     H87994   7.855   4.656   0.964  1.4242 -2.3728  4.3342
  652MOL0     H87995   7.787   4.732   1.113 -5.6953  0.2320  0.6000
  652MOL0     H87996   7.642   4.557   0.963 -2.4221 -0.9300 -1.4053
  652MOL0     H87997   7.635   4.689   0.843 -0.4919  0.7260  0.6901
  652MOL0     H87998   7.514   4.713   1.121  0.1617 -0.2544  0.0097
  652MOL0     H87999   7.497   4.825   0.975 -1.2267  1.6352  1.1882
  652MOL0     H88000   8.018   5.443   1.343 -1.7377  1.8756  1.5177
  652MOL0     H88001   7.985   5.486   1.594  1.7120  1.1065  0.4654
  652MOL0     H88002   7.833   5.119   2.074 -1.4610  0.9959 -0.4179
  652MOL0     H88003   7.786   5.219   2.301  0.2653  1.2874  0.0371
  652MOL0     H88004   9.007   5.403   3.750  1.6904 -0.3863  3.3680
  652MOL0     H88005   9.221   5.474   3.814 -2.2984  1.3271 -1.0982
  652MOL0     H88006   9.547   5.449   4.068  0.7393 -0.0781  1.0827
  652MOL0     H88007   9.766   5.560   4.143  3.3067  1.0965 -1.3132
  652MOL0     H88008  10.137   5.550   3.882 -1.8325  2.1281  1.0373
  652MOL0     H88009  10.133   5.390   3.949  2.6081  0.0386 -1.4296
  652MOL0     H88010  10.207   5.475   4.161  0.7504  1.1537  0.8050
  652MOL0     H88011  10.171   5.638   4.131  1.3103 -0.1779  2.2090
  652MOL0     H88012  10.345   5.649   3.957  3.6091 -2.1303 -2.6448
  652MOL0     H88013  10.379   5.479   3.971  1.3194 -0.6009  2.3863
  652MOL0     H88014  10.546   5.579   4.082 -0.1017  0.8822  0.5013
  652MOL0     H88015  10.449   5.700   4.173  0.9765  0.6017 -0.5253
  652MOL0     H88016  10.402   5.346   4.408 -0.5449 -2.2341 -2.1053
  652MOL0     H88017   9.948   5.403   3.792  1.2598  0.3171  2.6094
  652MOL0     H88018   9.683   5.229   3.651 -0.7702  1.3193 -3.0087
  652MOL0     H88019   9.678   5.391   3.594 -1.9202 -1.8101 -0.6984
  652MOL0     H88020   9.838   5.324   3.639  0.2373  1.4506  1.1820
  653MOL0     O88021   3.992   0.972   4.728  0.2719  0.0654  0.7144
  653MOL0     C88022   3.876   0.991   4.706 -0.6700  0.2029 -0.1554
  653MOL0     O88023   3.768   0.966   4.794 -0.8726  0.4182 -0.0422
  653MOL0     C88024   3.803   0.889   4.907 -0.4665 -0.9298 -0.3613
  653MOL0     C88025   3.814   0.748   4.917  1.3823  0.3142 -1.1189
  653MOL0     C88026   3.852   0.681   5.034  0.8396 -1.1854 -0.0125
  653MOL0     C88027   3.862   0.765   5.153 -0.1085 -0.3083 -0.9467
  653MOL0     O88028   3.875   0.704   5.282  0.3539  0.4261  0.8067
  653MOL0     C88029   3.961   0.590   5.301  0.8182 -0.1091  1.6113
  653MOL0     C88030   3.890   0.487   5.389 -1.2174 -0.2950 -0.0299
  653MOL0     C88031   3.771   0.418   5.317  0.8243 -0.0564 -1.2450
  653MOL0     C88032   3.750   0.282   5.394 -0.0437 -0.1126  0.1398
  653MOL0     C88033   3.613   0.245   5.363  0.7565  0.7493  0.0690
  653MOL0     C88034   3.578   0.107   5.420 -0.4353  0.2001 -0.2511
  653MOL0     C88035   3.440   0.062   5.379 -0.2693  0.0895 -1.3530
  653MOL0     C88036   3.427  -0.085   5.366  0.2972 -0.1895 -0.2659
  653MOL0     N88037   3.293  -0.133   5.340 -0.8533  0.3952  0.3994
  653MOL0     C88038   3.204  -0.078   5.250  0.8274  0.0336 -0.6685
  653MOL0     C88039   3.115  -0.178   5.235  0.5082 -0.1502  0.0125
  653MOL0     C88040   2.987  -0.152   5.152  1.2951 -0.5071 -0.4780
  653MOL0     C88041   2.980  -0.246   5.032 -0.0697  0.1652 -0.3866
  653MOL0     C88042   2.981  -0.402   5.065 -0.3635 -0.5858  0.2572
  653MOL0     C88043   2.983  -0.496   4.936 -0.2380 -0.3217 -0.4960
  653MOL0     O88044   2.876  -0.462   4.847 -0.4557  0.0858  0.0006
  653MOL0     C88045   2.777  -0.556   4.822 -0.2804 -0.1341 -0.7211
  653MOL0     C88046   2.755  -0.657   4.916  0.1332 -0.6099  0.6712
  653MOL0     C88047   2.649  -0.744   4.895 -0.5911  0.3521 -0.4355
  653MOL0     C88048   2.557  -0.730   4.783 -0.7690 -0.1138  0.8168
  653MOL0     C88049   2.435  -0.827   4.761  0.0802 -1.2525  0.1829
  653MOL0     O88050   2.367  -0.818   4.643  0.0296  0.3528  0.1115
  653MOL0     C88051   2.271  -0.915   4.627 -0.1536  0.3804 -0.4098
  653MOL0     C88052   2.286  -1.033   4.554  0.7213 -0.3957 -0.0566
  653MOL0     C88053   2.193  -1.130   4.531  0.3451  0.3767  0.8522
  653MOL0     C88054   2.064  -1.111   4.582 -0.6637 -0.8277  0.2727
  653MOL0     O88055   1.982  -1.219   4.559 -0.3184  0.2263  0.3253
  653MOL0     C88056   1.856  -1.217   4.605  0.2873 -0.0882  0.1108
  653MOL0     C88057   1.745  -1.160   4.514  0.0938 -0.1197  0.8550
  653MOL0     C88058   1.720  -1.013   4.528  0.6483  0.0971 -0.5359
  653MOL0     C88059   1.643  -0.962   4.411 -0.0831  0.0563 -1.1171
  653MOL0     C88060   1.564  -0.832   4.408  0.1550  0.8664  0.4016
  653MOL0     C88061   1.666  -0.716   4.430 -0.2178  0.0350  0.3587
  653MOL0     C88062   1.595  -0.587   4.393 -0.3052 -0.1895  0.6943
  653MOL0     C88063   1.584  -0.553   4.247  1.0866 -0.5063 -0.3328
  653MOL0    Cl88064   1.485  -0.414   4.200 -0.3223  0.4610  0.2464
  653MOL0     C88065   2.048  -0.995   4.662 -0.3099  0.6760 -0.0834
  653MOL0     C88066   2.141  -0.894   4.677 -0.2656  0.2606 -0.3071
  653MOL0     O88067   2.402  -0.893   4.856  0.1840  0.0795 -0.0585
  653MOL0     C88068   2.577  -0.624   4.700 -0.4492 -0.4964  0.4899
  653MOL0     C88069   2.685  -0.537   4.719  0.4631 -0.2320 -1.1129
  653MOL0     N88070   3.147  -0.284   5.317 -0.0598 -0.2286  0.2413
  653MOL0     N88071   3.260  -0.262   5.371  0.1213  0.1777  0.2893
  653MOL0     C88072   3.849   0.904   5.155  0.4919  0.3116  0.2711
  653MOL0     C88073   3.811   0.968   5.031  0.5895 -0.1870  0.4763
  653MOL0     C88074   3.844   1.070   4.578  0.2346 -0.0313  0.4272
  653MOL0     C88075   3.713   1.056   4.537  0.3057 -0.2147 -0.5156
  653MOL0     C88076   3.679   1.110   4.417  0.9309  0.4022 -1.3230
  653MOL0     C88077   3.770   1.180   4.337  0.7877 -0.4500  0.1106
  653MOL0     O88078   3.748   1.228   4.211 -0.5865 -0.0899 -0.3601
  653MOL0     C88079   3.619   1.184   4.150 -0.2524  0.4110 -0.8288
  653MOL0     C88080   3.509   1.272   4.197  0.3684  0.3981  0.1945
  653MOL0     C88081   3.371   1.257   4.124 -1.2174 -0.1856 -0.5846
  653MOL0     C88082   3.259   1.202   4.213 -0.4761 -0.1206  0.0803
  653MOL0     C88083   3.277   1.072   4.267  0.2351  1.1926 -0.5557
  653MOL0     C88084   3.294   0.966   4.326 -1.3119 -0.0831  0.0613
  653MOL0     C88085   3.897   1.214   4.389 -0.2936  0.2545 -0.3565
  653MOL0     C88086   3.937   1.160   4.514  0.4983  0.3630  0.4128
  653MOL0     C88087   4.079   1.195   4.563  0.4245  0.2860 -0.4131
  653MOL0     H88088   3.790   0.698   4.824 -0.4867  2.2866 -1.7765
  653MOL0     H88089   3.846   0.573   5.027 -3.5672 -1.0548 -4.2846
  653MOL0     H88090   4.002   0.549   5.208  2.3988 -1.7081  2.9505
  653MOL0     H88091   4.046   0.620   5.362  1.8369 -1.1301  0.7369
  653MOL0     H88092   3.848   0.520   5.484 -4.6254 -1.8768 -0.8485
  653MOL0     H88093   3.960   0.406   5.415 -0.3253 -0.0959 -1.6696
  653MOL0     H88094   3.799   0.389   5.216  3.3619 -3.9386  0.3353
  653MOL0     H88095   3.683   0.483   5.324 -0.0888 -1.2633 -1.0048
  653MOL0     H88096   3.828   0.208   5.372  0.9706  1.8191 -3.7535
  653MOL0     H88097   3.749   0.294   5.503  2.1022 -0.7287  0.2714
  653MOL0     H88098   3.552   0.319   5.416 -0.1698  0.4152 -0.5172
  653MOL0     H88099   3.592   0.248   5.256  2.1401 -3.5467 -0.5165
  653MOL0     H88100   3.649   0.025   5.409 -0.8176 -0.5674  2.3437
  653MOL0     H88101   3.571   0.107   5.529  2.4834 -2.6247  0.0637
  653MOL0     H88102   3.397   0.112   5.292 -0.5219  2.7649  0.1831
  653MOL0     H88103   3.366   0.072   5.459  1.4391  0.5994  0.2443
  653MOL0     H88104   3.484  -0.116   5.277 -0.0101 -1.2112 -0.1277
  653MOL0     H88105   3.450  -0.134   5.461 -2.8741  1.4601  1.5312
  653MOL0     H88106   3.210   0.021   5.204 -1.7626 -0.2198 -1.6978
  653MOL0     H88107   2.904  -0.169   5.221  3.2127 -2.5196  1.5106
  653MOL0     H88108   2.982  -0.047   5.122 -1.0426 -0.8261 -1.3931
  653MOL0     H88109   2.880  -0.225   4.992  0.3280 -0.0840 -1.5480
  653MOL0     H88110   3.050  -0.203   4.961  2.3395  2.4938  3.0522
  653MOL0     H88111   2.895  -0.424   5.129 -1.3993  1.1011 -0.4941
  653MOL0     H88112   3.073  -0.416   5.124  0.7775  1.0229 -1.0306
  653MOL0     H88113   2.995  -0.600   4.966 -1.1700  0.8273  4.8269
  653MOL0     H88114   3.072  -0.472   4.877  0.0732 -0.5312 -0.1154
  653MOL0     H88115   2.817  -0.667   5.004 -1.6984 -0.0573  2.0846
  653MOL0     H88116   2.622  -0.830   4.956  1.1855  0.9216  1.2500
  653MOL0     H88117   2.379  -1.037   4.498  0.5120  1.2635 -0.5865
  653MOL0     H88118   2.197  -1.214   4.462  0.2162 -0.0346  1.3399
  653MOL0     H88119   1.829  -1.323   4.618  4.0045 -1.1741 -0.0765
  653MOL0     H88120   1.851  -1.174   4.705 -3.5134 -2.1441  1.0020
  653MOL0     H88121   1.771  -1.172   4.409  0.3337  3.3855  0.3920
  653MOL0     H88122   1.646  -1.203   4.528 -0.4741  0.7997 -0.2058
  653MOL0     H88123   1.663  -0.997   4.620  0.5979 -0.7976 -0.4056
  653MOL0     H88124   1.815  -0.959   4.520  0.3062  0.4186 -3.6622
  653MOL0     H88125   1.579  -1.042   4.371 -0.8492 -0.1181  0.3779
  653MOL0     H88126   1.722  -0.941   4.338  2.0606 -1.6519  0.6037
  653MOL0     H88127   1.488  -0.829   4.487  1.8230  2.3059  2.0528
  653MOL0     H88128   1.507  -0.817   4.316 -0.8251 -0.9955  0.6550
  653MOL0     H88129   1.671  -0.704   4.539 -0.5585  1.0894  0.2736
  653MOL0     H88130   1.765  -0.726   4.384  0.1974 -3.2674  1.7029
  653MOL0     H88131   1.649  -0.511   4.450  1.5172 -0.5801 -0.4160
  653MOL0     H88132   1.490  -0.576   4.422 -1.3718  0.4265 -2.9388
  653MOL0     H88133   1.686  -0.556   4.209  1.3821 -0.4838  0.4251
  653MOL0     H88134   1.532  -0.639   4.204 -1.0360 -0.1157  1.2726
  653MOL0     H88135   1.956  -0.968   4.712  2.0855  1.6738  4.3557
  653MOL0     H88136   2.095  -0.810   4.728 -0.3983 -0.5799  1.0117
  653MOL0     H88137   2.504  -0.622   4.620 -0.5342  1.1659  0.5610
  653MOL0     H88138   2.700  -0.454   4.651  0.5829  0.4546 -0.2729
  653MOL0     H88139   3.862   0.974   5.237 -1.0815  1.1827 -0.1690
  653MOL0     H88140   3.806   1.076   5.038 -0.9344 -0.1395 -0.8077
  653MOL0     H88141   3.631   1.019   4.597  0.4480  0.7361  0.2869
  653MOL0     H88142   3.575   1.098   4.390  0.0419  1.6765  1.2271
  653MOL0     H88143   3.600   1.079   4.173 -0.8869  0.6124 -0.3801
  653MOL0     H88144   3.631   1.184   4.041  0.4926  3.1361 -0.8264
  653MOL0     H88145   3.541   1.377   4.189 -1.7802  0.9458 -3.1238
  653MOL0     H88146   3.492   1.256   4.304  3.4049 -0.5880  0.6198
  653MOL0     H88147   3.388   1.207   4.029  0.9004 -1.6239  0.4534
  653MOL0     H88148   3.341   1.358   4.096 -3.1572 -1.5322 -3.7902
  653MOL0     H88149   3.235   1.270   4.295 -0.6107 -1.1765  0.9463
  653MOL0     H88150   3.164   1.208   4.158 -0.6805  2.9973  0.5706
  653MOL0     H88151   3.316   0.876   4.380  1.2257  0.4512  0.0211
  653MOL0     H88152   3.976   1.277   4.349  0.4848  1.1513  2.3949
  653MOL0     H88153   4.087   1.221   4.669 -0.4055 -0.8989 -0.0439
  653MOL0     H88154   4.137   1.103   4.550  2.0001  0.9834  1.1275
  653MOL0     H88155   4.123   1.277   4.507 -1.0588  0.6845 -1.0300
  654MOL0     O88156  10.344   4.767   1.415 -0.1136 -0.0009  0.9757
  654MOL0     C88157  10.320   4.831   1.518  0.1607  0.3466  0.4291
  654MOL0     O88158  10.377   4.804   1.634 -0.1423 -0.0706 -0.0283
  654MOL0     C88159  10.504   4.754   1.630 -0.4344  0.0793 -0.1198
  654MOL0     C88160  10.602   4.845   1.660 -0.5504 -0.7454  0.6077
  654MOL0     C88161  10.731   4.810   1.664 -0.4843  0.6860  0.5100
  654MOL0     C88162  10.764   4.671   1.649 -0.5949  0.1429  0.0987
  654MOL0     O88163  10.886   4.629   1.642 -0.7264  0.1337  0.0357
  654MOL0     C88164  10.992   4.714   1.716 -0.6343  1.0579  0.3111
  654MOL0     C88165  11.127   4.669   1.679 -0.3840 -0.2476  0.4334
  654MOL0     C88166  11.158   4.533   1.731  0.1910 -0.0420  0.0557
  654MOL0     C88167  11.300   4.490   1.712  0.1914  0.1360  0.2049
  654MOL0     C88168  11.400   4.532   1.821 -0.6129 -0.5445  0.1105
  654MOL0     C88169  11.518   4.438   1.815  0.7349  0.3631 -1.1145
  654MOL0     C88170  11.627   4.469   1.921 -0.9039  0.0383  0.3536
  654MOL0     C88171  11.605   4.384   2.049  0.2352  0.4078  0.6191
  654MOL0     N88172  11.722   4.365   2.134 -0.2392 -0.0394  0.2473
  654MOL0     C88173  11.798   4.466   2.180 -1.1790  0.4310  0.7808
  654MOL0     C88174  11.877   4.405   2.274  1.1512  0.6574 -0.0039
  654MOL0     C88175  11.972   4.458   2.378 -0.6557  1.2119 -0.9297
  654MOL0     C88176  11.929   4.601   2.424  0.3645  0.0045  0.1478
  654MOL0     C88177  12.015   4.656   2.532 -0.0491 -0.4199 -0.1408
  654MOL0     C88178  11.987   4.799   2.577 -0.6322 -0.5150 -0.4752
  654MOL0     O88179  11.865   4.819   2.653 -0.7474  0.4689 -0.0478
  654MOL0     C88180  11.840   4.942   2.710 -0.4461  0.2064  0.3837
  654MOL0     C88181  11.906   5.062   2.694 -0.3398  0.3216 -0.5423
  654MOL0     C88182  11.861   5.188   2.735 -1.0741  0.1603  0.5079
  654MOL0     C88183  11.746   5.195   2.804 -0.1004 -1.2166 -0.1894
  654MOL0     C88184  11.702   5.315   2.874 -0.1057 -0.4872 -0.6282
  654MOL0     O88185  11.595   5.303   2.956  0.4362  0.1065  0.6398
  654MOL0     C88186  11.543   5.419   3.012 -0.6939  0.0502 -0.2943
  654MOL0     C88187  11.411   5.445   2.979 -0.8342 -0.1634  0.2998
  654MOL0     C88188  11.357   5.561   3.043  1.4138 -0.0347 -0.0515
  654MOL0     C88189  11.426   5.641   3.134 -0.0202 -0.0105  1.2456
  654MOL0     O88190  11.361   5.742   3.196 -0.2021 -0.0863 -0.6811
  654MOL0     C88191  11.388   5.874   3.136  0.3464 -0.2252 -0.6564
  654MOL0     C88192  11.263   5.964   3.163  0.8602  0.1069  0.0895
  654MOL0     C88193  11.273   6.004   3.316  0.1504 -0.8856  0.1541
  654MOL0     C88194  11.164   6.110   3.349 -0.6508 -0.7761 -0.6044
  654MOL0     C88195  11.175   6.168   3.494  0.4924  0.9297 -0.0105
  654MOL0     C88196  11.177   6.044   3.589 -0.6029  0.1612 -0.3824
  654MOL0     C88197  11.172   6.085   3.727 -1.0270 -0.6652  0.0645
  654MOL0     C88198  11.125   5.981   3.837 -0.4302 -1.2834  0.1529
  654MOL0    Cl88199  10.950   5.964   3.833  0.0543 -0.2546  0.0737
  654MOL0     C88200  11.569   5.618   3.151  0.1127  0.9248 -0.4705
  654MOL0     C88201  11.624   5.500   3.099  0.2939  0.3275 -0.1025
  654MOL0     O88202  11.766   5.425   2.862  0.2059  0.6044  0.6121
  654MOL0     C88203  11.675   5.075   2.822 -0.7041 -0.4257  0.2605
  654MOL0     C88204  11.717   4.951   2.769  0.0236 -0.4127 -1.1570
  654MOL0     N88205  11.852   4.270   2.284  0.0007  0.1711 -0.0298
  654MOL0     N88206  11.763   4.250   2.192  0.1030  0.6664 -0.5857
  654MOL0     C88207  10.660   4.576   1.632 -0.0172 -0.5916  0.5725
  654MOL0     C88208  10.530   4.614   1.617  0.1660 -0.5578  0.1376
  654MOL0     C88209  10.207   4.933   1.518  0.6280  0.2781  0.0475
  654MOL0     C88210  10.236   5.070   1.484  0.2292  0.0906 -0.3173
  654MOL0     C88211  10.129   5.154   1.456  0.0463 -0.2277 -0.1089
  654MOL0     C88212   9.995   5.128   1.486 -0.6987  1.2229 -0.5383
  654MOL0     O88213   9.891   5.219   1.460 -1.0448 -1.2737 -0.2959
  654MOL0     C88214   9.783   5.218   1.555 -0.2624  0.5293  0.6314
  654MOL0     C88215   9.711   5.349   1.525  0.0634 -0.0984 -0.4369
  654MOL0     C88216   9.598   5.372   1.621  0.0853 -0.7772 -0.9010
  654MOL0     C88217   9.488   5.275   1.610  0.9377 -0.0518  0.4836
  654MOL0     C88218   9.507   5.147   1.682  0.3205  0.1952 -0.0002
  654MOL0     C88219   9.541   5.044   1.743  0.4930  0.5883  0.0326
  654MOL0     C88220   9.974   4.998   1.545  0.0101  0.6470  0.2809
  654MOL0     C88221  10.076   4.900   1.560  0.7471  0.0551  0.1500
  654MOL0     C88222  10.042   4.763   1.610  0.6923  0.4233 -0.7369
  654MOL0     H88223  10.574   4.949   1.675  2.8803  0.0588  2.5574
  654MOL0     H88224  10.802   4.892   1.669  0.1175  0.2259 -0.2206
  654MOL0     H88225  10.978   4.817   1.684 -1.2199  0.4532 -1.5633
  654MOL0     H88226  10.979   4.710   1.824 -2.9924  0.2032  0.0639
  654MOL0     H88227  11.207   4.732   1.719  0.2606 -2.0265  2.1363
  654MOL0     H88228  11.131   4.668   1.570 -0.0138  2.6833  0.3543
  654MOL0     H88229  11.097   4.458   1.680 -0.0255 -0.6829  1.2324
  654MOL0     H88230  11.129   4.533   1.837 -0.0163  1.2352  0.0147
  654MOL0     H88231  11.298   4.381   1.713  2.6545  0.0416  1.3203
  654MOL0     H88232  11.337   4.520   1.613 -0.7626  3.8609  0.8197
  654MOL0     H88233  11.447   4.631   1.817  0.3587 -0.9984 -2.8892
  654MOL0     H88234  11.352   4.528   1.919  0.3864 -0.5887  0.6113
  654MOL0     H88235  11.484   4.334   1.811 -1.6878  1.0770 -0.9284
  654MOL0     H88236  11.568   4.449   1.719  2.3803 -0.3749 -0.3837
  654MOL0     H88237  11.612   4.575   1.943 -0.4565  0.4678 -1.2575
  654MOL0     H88238  11.731   4.459   1.889 -0.6658 -1.3871  1.4816
  654MOL0     H88239  11.530   4.433   2.112  1.9562  2.5104  1.1550
  654MOL0     H88240  11.573   4.287   2.010  1.2114  0.3403 -0.0448
  654MOL0     H88241  11.789   4.572   2.161 -0.3342  0.3745  0.0106
  654MOL0     H88242  11.973   4.389   2.463 -3.3148  0.0537 -1.7274
  654MOL0     H88243  12.071   4.453   2.332 -1.8880 -1.3006 -3.6258
  654MOL0     H88244  11.935   4.679   2.348 -0.9204  0.4957  0.5372
  654MOL0     H88245  11.824   4.611   2.451  0.4444 -0.5547  0.7115
  654MOL0     H88246  12.118   4.656   2.497  0.0191  0.6708  0.0233
  654MOL0     H88247  12.017   4.596   2.623  0.7143 -0.3226 -0.0932
  654MOL0     H88248  12.003   4.872   2.497 -3.3598  1.4306  0.5842
  654MOL0     H88249  12.069   4.829   2.643 -0.9729  1.5092 -0.9048
  654MOL0     H88250  11.993   5.066   2.629 -1.9464  1.7006 -2.7121
  654MOL0     H88251  11.927   5.271   2.712  1.0682 -0.9668  2.1857
  654MOL0     H88252  11.349   5.375   2.924 -0.2751 -1.3747  1.1682
  654MOL0     H88253  11.249   5.562   3.030  1.4109 -0.9803 -0.1627
  654MOL0     H88254  11.483   5.911   3.174  0.5380 -1.8727  0.6032
  654MOL0     H88255  11.397   5.864   3.028  1.6955  2.0177 -0.8015
  654MOL0     H88256  11.265   6.043   3.087 -0.5701 -1.1448 -1.3515
  654MOL0     H88257  11.181   5.892   3.152 -0.0654  0.9218  1.3693
  654MOL0     H88258  11.253   5.919   3.381 -0.5193 -0.9173 -0.0870
  654MOL0     H88259  11.366   6.057   3.339  0.5609  0.4097 -3.7877
  654MOL0     H88260  11.064   6.076   3.320 -0.7090  1.2904 -3.2378
  654MOL0     H88261  11.174   6.199   3.287  5.0184  0.0173  0.9288
  654MOL0     H88262  11.087   6.231   3.510 -0.5871  0.1248 -2.4155
  654MOL0     H88263  11.268   6.224   3.512 -0.0810  1.6187  0.8552
  654MOL0     H88264  11.091   5.980   3.567 -0.8909  0.3886  0.0654
  654MOL0     H88265  11.267   5.984   3.586 -1.5286 -1.9970  4.7002
  654MOL0     H88266  11.122   6.181   3.743  2.1625  0.9940  0.9827
  654MOL0     H88267  11.273   6.109   3.763 -0.8711  0.3655 -1.0065
  654MOL0     H88268  11.170   5.883   3.823  3.4099  0.4061 -0.8028
  654MOL0     H88269  11.151   6.021   3.935 -0.2906 -3.3366  0.9831
  654MOL0     H88270  11.628   5.683   3.215  0.7862  0.9659 -1.1227
  654MOL0     H88271  11.726   5.465   3.110 -0.0874 -0.3124  1.7873
  654MOL0     H88272  11.574   5.084   2.863 -2.3033  1.7597 -3.6228
  654MOL0     H88273  11.644   4.870   2.772  1.1787 -1.4748 -1.1599
  654MOL0     H88274  10.697   4.475   1.636 -1.9200 -1.3171  0.7708
  654MOL0     H88275  10.453   4.538   1.603  1.3374 -2.3110  2.3828
  654MOL0     H88276  10.338   5.106   1.478  0.2331  0.2642  0.6851
  654MOL0     H88277  10.152   5.250   1.413  0.0951 -0.6053 -0.9530
  654MOL0     H88278   9.800   5.208   1.663 -0.7580  0.2704  0.6919
  654MOL0     H88279   9.704   5.148   1.524 -0.9260  1.3933  0.3403
  654MOL0     H88280   9.677   5.359   1.421 -3.4102  0.2620  0.6251
  654MOL0     H88281   9.782   5.432   1.535 -1.3178  1.3145 -1.7588
  654MOL0     H88282   9.556   5.472   1.607  0.7022 -0.8135 -3.5665
  654MOL0     H88283   9.636   5.366   1.723 -2.0689  0.2722  0.0262
  654MOL0     H88284   9.398   5.325   1.648  0.1710 -0.4240 -0.7783
  654MOL0     H88285   9.460   5.246   1.509 -1.1310 -5.4885  2.2308
  654MOL0     H88286   9.560   4.948   1.785 -1.4766  0.2584  0.2604
  654MOL0     H88287   9.878   4.978   1.590 -0.2341 -1.7573 -1.1454
  654MOL0     H88288   9.951   4.763   1.671 -0.0706  3.8711 -1.6617
  654MOL0     H88289  10.029   4.703   1.520 -0.5600 -0.6418  0.1124
  654MOL0     H88290  10.120   4.721   1.674  2.8851  2.2137 -2.0782
  655MOL0     O88291   1.702  10.841   2.290  0.2096  0.4403 -0.0851
  655MOL0     C88292   1.649  10.869   2.396  0.6702  0.1409 -0.0182
  655MOL0     O88293   1.591  10.775   2.477  0.0076 -0.1144 -0.1964
  655MOL0     C88294   1.509  10.674   2.431  1.1284  1.1952  0.2999
  655MOL0     C88295   1.431  10.685   2.308 -0.7603  0.4139  0.2420
  655MOL0     C88296   1.327  10.589   2.272 -0.6730  0.5243  0.1363
  655MOL0     C88297   1.314  10.481   2.356  0.8046 -0.6912  1.4280
  655MOL0     O88298   1.202  10.404   2.345  0.4550 -0.3657 -0.0367
  655MOL0     C88299   1.213  10.272   2.295 -1.0433 -0.3540  0.2430
  655MOL0     C88300   1.077  10.204   2.332  0.6502 -0.3069  0.2279
  655MOL0     C88301   0.945  10.267   2.266 -0.3787  0.1666 -1.3527
  655MOL0     C88302   0.964  10.313   2.130 -0.2779 -0.2073  1.5498
  655MOL0     C88303   0.825  10.343   2.071  1.2825  0.7480 -0.0957
  655MOL0     C88304   0.846  10.420   1.941  0.2039 -0.0358 -0.0883
  655MOL0     C88305   0.711  10.465   1.876  0.0649  0.6905  0.0204
  655MOL0     C88306   0.630  10.561   1.966 -0.6685  0.0008 -0.0026
  655MOL0     N88307   0.627  10.698   1.916  0.3992  0.5910  0.0323
  655MOL0     C88308   0.531  10.752   1.825 -0.5374  0.2184  0.5990
  655MOL0     C88309   0.575  10.881   1.811  0.1689  0.1791  0.0948
  655MOL0     C88310   0.513  10.974   1.711 -0.2659  0.2898 -0.6515
  655MOL0     C88311   0.429  11.078   1.808  0.5645  0.2011 -0.5627
  655MOL0     C88312   0.327  11.009   1.906  0.1797 -0.4817  0.1281
  655MOL0     C88313   0.234  11.119   1.959  0.5266  0.4974  0.5413
  655MOL0     O88314   0.141  11.070   2.050 -0.8636  0.2852  0.1420
  655MOL0     C88315   0.020  11.124   2.067 -0.2338  0.8816  0.2179
  655MOL0     C88316  -0.083  11.057   2.140 -0.1590  0.4191  0.0596
  655MOL0     C88317  -0.205  11.112   2.160  0.4069  0.7779  0.2364
  655MOL0     C88318  -0.242  11.233   2.113  0.2558  0.2272  0.1160
  655MOL0     C88319  -0.374  11.297   2.155 -0.1042  0.3847  0.0769
  655MOL0     O88320  -0.471  11.215   2.191 -0.0041 -0.2860 -0.6578
  655MOL0     C88321  -0.550  11.273   2.286 -0.2372 -0.3415  0.0614
  655MOL0     C88322  -0.663  11.348   2.253  0.6168 -0.4795 -0.6044
  655MOL0     C88323  -0.742  11.410   2.344 -0.1702 -0.6033 -0.4783
  655MOL0     C88324  -0.729  11.392   2.479 -0.2364  0.2018  0.1823
  655MOL0     O88325  -0.816  11.434   2.575  0.5742  0.0605 -0.7934
  655MOL0     C88326  -0.864  11.570   2.578 -0.4744  0.1121  0.1879
  655MOL0     C88327  -0.943  11.607   2.704  0.3493  0.7504 -0.5066
  655MOL0     C88328  -0.988  11.757   2.725 -0.8483 -0.2756 -0.3279
  655MOL0     C88329  -0.868  11.859   2.739  0.8547  0.1943  0.3664
  655MOL0     C88330  -0.930  11.999   2.774  0.8255  0.7587  0.1173
  655MOL0     C88331  -0.829  12.109   2.782 -0.2878  0.3170 -0.1043
  655MOL0     C88332  -0.899  12.245   2.800  0.2251  0.7404 -0.7550
  655MOL0     C88333  -0.988  12.273   2.921 -0.7452 -1.3410  0.0232
  655MOL0    Cl88334  -0.932  12.224   3.084  0.1348  0.1137  0.4089
  655MOL0     C88335  -0.624  11.317   2.525  0.3523 -0.0680  0.2224
  655MOL0     C88336  -0.532  11.261   2.433  0.4091 -0.6492  0.5409
  655MOL0     O88337  -0.365  11.419   2.166  0.2502 -1.1077  0.3820
  655MOL0     C88338  -0.147  11.304   2.038 -0.7275  0.5281  0.6616
  655MOL0     C88339  -0.015  11.254   2.023 -0.6864  0.2902  0.0832
  655MOL0     N88340   0.672  10.902   1.896 -0.5047  0.0368 -0.5217
  655MOL0     N88341   0.714  10.794   1.950  0.4971 -0.4758 -0.7854
  655MOL0     C88342   1.386  10.467   2.467  0.1115  0.8839 -0.4702
  655MOL0     C88343   1.488  10.560   2.501 -0.1746  0.1707 -1.0429
  655MOL0     C88344   1.675  11.010   2.447 -0.7648 -0.1750 -1.2527
  655MOL0     C88345   1.672  11.032   2.590  0.2947 -0.5117  0.3183
  655MOL0     C88346   1.710  11.153   2.630 -0.3066 -0.0415 -0.5079
  655MOL0     C88347   1.745  11.261   2.555 -0.1537  0.0380  0.0156
  655MOL0     O88348   1.774  11.393   2.611  0.8130 -0.1017 -0.1797
  655MOL0     C88349   1.804  11.397   2.751  1.0788  0.0177  0.5905
  655MOL0     C88350   1.867  11.533   2.795 -0.0759  0.5789 -0.0877
  655MOL0     C88351   1.761  11.649   2.770 -0.7667  0.7759  0.5697
  655MOL0     C88352   1.797  11.778   2.826  0.6260 -0.2721 -0.2266
  655MOL0     C88353   1.910  11.842   2.757  1.0250 -0.7541  0.2549
  655MOL0     C88354   1.977  11.903   2.671 -0.4896  0.9252 -0.8628
  655MOL0     C88355   1.728  11.243   2.418 -0.2624 -0.9187  0.1905
  655MOL0     C88356   1.689  11.119   2.360 -0.3008  0.0904 -0.0325
  655MOL0     C88357   1.682  11.121   2.208  0.2535  1.5125  0.6192
  655MOL0     H88358   1.442  10.776   2.250 -3.5573  0.1435 -0.8651
  655MOL0     H88359   1.262  10.605   2.187 -2.7144  1.3712  1.7646
  655MOL0     H88360   1.242  10.273   2.190 -2.0432 -0.1535 -0.0423
  655MOL0     H88361   1.291  10.217   2.349 -1.4703 -1.6417 -0.4181
  655MOL0     H88362   1.071  10.211   2.441  2.8412  0.1164  0.3650
  655MOL0     H88363   1.071  10.101   2.298  3.9995 -0.2852 -0.8563
  655MOL0     H88364   0.914  10.357   2.320  0.1325 -1.0868  1.1241
  655MOL0     H88365   0.862  10.197   2.283  0.6534 -0.6555  0.4992
  655MOL0     H88366   1.021  10.406   2.138  1.7211 -1.0767 -1.0755
  655MOL0     H88367   1.012  10.241   2.064 -1.6252  0.0908  0.1972
  655MOL0     H88368   0.788  10.241   2.057 -1.6636  1.5480  1.1497
  655MOL0     H88369   0.757  10.391   2.140 -0.2262 -1.0118 -0.2677
  655MOL0     H88370   0.906  10.502   1.982 -0.6237 -0.6223  2.5138
  655MOL0     H88371   0.908  10.367   1.867  0.5543 -1.3073  1.0649
  655MOL0     H88372   0.659  10.377   1.840  4.0817 -1.0633 -2.2049
  655MOL0     H88373   0.727  10.517   1.781 -1.4394  1.1403 -0.0070
  655MOL0     H88374   0.525  10.530   1.972 -0.7352  0.4415  1.5325
  655MOL0     H88375   0.670  10.562   2.068 -0.6024  2.7830  0.0182
  655MOL0     H88376   0.452  10.708   1.765  1.0518 -3.4894  0.9707
  655MOL0     H88377   0.590  11.041   1.672  1.2574 -0.2905  1.2152
  655MOL0     H88378   0.460  10.923   1.630  0.0388  1.7076 -1.7902
  655MOL0     H88379   0.493  11.140   1.871 -2.9767  1.1870  2.3956
  655MOL0     H88380   0.367  11.139   1.741  1.5719 -1.1793 -2.8917
  655MOL0     H88381   0.371  10.967   1.997  3.1608  0.7172 -0.6615
  655MOL0     H88382   0.270  10.930   1.855 -0.5742 -0.8793  1.5399
  655MOL0     H88383   0.174  11.166   1.880  0.7788 -2.8088 -1.8402
  655MOL0     H88384   0.291  11.182   2.027  1.2278  0.6777 -0.1923
  655MOL0     H88385  -0.057  10.960   2.181 -1.5185  0.5960  1.4367
  655MOL0     H88386  -0.265  11.050   2.226  0.6933 -1.7992 -1.7885
  655MOL0     H88387  -0.678  11.373   2.148  0.3977  0.5974 -0.3346
  655MOL0     H88388  -0.826  11.467   2.306 -1.0917  0.0905  2.3604
  655MOL0     H88389  -0.782  11.643   2.580 -2.5286  2.6526  4.0953
  655MOL0     H88390  -0.917  11.585   2.484 -2.5481 -0.3239  1.2450
  655MOL0     H88391  -1.040  11.558   2.698  0.2091  0.4302  2.8439
  655MOL0     H88392  -0.884  11.571   2.788  0.3798  1.0447 -0.4003
  655MOL0     H88393  -1.052  11.788   2.642  0.9140 -0.0785 -1.6616
  655MOL0     H88394  -1.044  11.769   2.819  1.3888  1.5965  0.8476
  655MOL0     H88395  -0.816  11.861   2.642 -1.7419  0.2874 -1.0932
  655MOL0     H88396  -0.795  11.835   2.817  2.8339  1.4236 -0.9835
  655MOL0     H88397  -0.973  11.994   2.874  0.0964 -1.3549 -0.2455
  655MOL0     H88398  -1.005  12.033   2.702 -0.1211  2.4209  1.8128
  655MOL0     H88399  -0.762  12.100   2.868 -0.3631  1.9373  0.1530
  655MOL0     H88400  -0.771  12.125   2.691  2.8059  1.0141  1.8649
  655MOL0     H88401  -0.970  12.265   2.720  0.1749  2.0043 -0.4191
  655MOL0     H88402  -0.816  12.317   2.790  0.8589 -0.0796 -1.5262
  655MOL0     H88403  -1.009  12.380   2.915 -0.6221 -1.3471 -0.5813
  655MOL0     H88404  -1.076  12.213   2.897 -3.1505  2.3268 -1.0317
  655MOL0     H88405  -0.617  11.296   2.631 -1.5044  1.0503  0.6248
  655MOL0     H88406  -0.463  11.199   2.488  1.9139  1.4668  1.1453
  655MOL0     H88407  -0.172  11.403   2.004  0.9674  1.0843  0.9361
  655MOL0     H88408   0.039  11.321   1.956 -0.2454 -1.6837 -1.6535
  655MOL0     H88409   1.361  10.380   2.526  1.2218  0.7200 -0.2067
  655MOL0     H88410   1.538  10.554   2.597  1.5006  2.6293 -1.6841
  655MOL0     H88411   1.641  10.949   2.653 -1.5367  0.6674  1.0592
  655MOL0     H88412   1.723  11.162   2.738  4.0807 -3.0420 -0.5292
  655MOL0     H88413   1.877  11.316   2.755  1.9169  0.5008 -2.3927
  655MOL0     H88414   1.727  11.390   2.828 -3.0827  0.1885 -3.1668
  655MOL0     H88415   1.959  11.560   2.744 -1.4226 -0.5577 -3.3516
  655MOL0     H88416   1.895  11.523   2.901 -2.5726 -1.6521  0.4779
  655MOL0     H88417   1.663  11.617   2.804  0.0233 -3.5036 -0.4876
  655MOL0     H88418   1.765  11.667   2.662 -0.0796 -1.1269  0.2387
  655MOL0     H88419   1.703  11.833   2.824 -0.4454 -1.9479  0.9735
  655MOL0     H88420   1.815  11.760   2.933 -3.4391 -1.6285  0.3910
  655MOL0     H88421   2.050  11.932   2.599  0.3391  0.5427 -0.1973
  655MOL0     H88422   1.737  11.332   2.357  1.6774  0.4514  2.2888
  655MOL0     H88423   1.681  11.220   2.161  0.4071  0.5765 -1.4432
  655MOL0     H88424   1.773  11.070   2.178 -2.2609 -1.3140 -3.1471
  655MOL0     H88425   1.596  11.059   2.180 -0.9364  3.7791 -1.1337
  656MOL0     O88426   7.502   8.726   8.773  0.3375 -0.1565  0.6617
  656MOL0     C88427   7.608   8.730   8.830 -0.5752 -0.1967 -0.4543
  656MOL0     O88428   7.624   8.707   8.963 -0.1477  0.4270  0.0974
  656MOL0     C88429   7.509   8.706   9.034  0.3997 -0.6935  0.1224
  656MOL0     C88430   7.464   8.578   9.074  0.4742  0.5585  0.3650
  656MOL0     C88431   7.351   8.568   9.151 -0.5979 -0.8056  0.5782
  656MOL0     C88432   7.268   8.684   9.179 -0.4413 -0.8671  0.3287
  656MOL0     O88433   7.140   8.668   9.233 -0.0573  0.1823  0.3499
  656MOL0     C88434   7.115   8.561   9.328 -0.3807  0.6372 -0.0133
  656MOL0     C88435   6.987   8.606   9.401 -0.6766  0.0124 -0.5123
  656MOL0     C88436   7.033   8.694   9.523 -0.8802  0.3247  0.4407
  656MOL0     C88437   6.915   8.752   9.591  0.2170 -1.5884 -0.2220
  656MOL0     C88438   6.969   8.871   9.684 -0.7749  0.6832 -0.1411
  656MOL0     C88439   6.852   8.947   9.739 -1.2910  0.3337  0.2738
  656MOL0     C88440   6.872   9.006   9.883 -0.3093 -0.0314  0.3920
  656MOL0     C88441   6.875   8.905   9.996 -0.2013  0.2266 -0.3462
  656MOL0     N88442   6.858   8.969  10.125 -0.4302  0.0745  0.2827
  656MOL0     C88443   6.748   9.049  10.159 -0.3231  0.9586 -0.0956
  656MOL0     C88444   6.796   9.132  10.255 -0.2403 -0.4853 -0.4694
  656MOL0     C88445   6.708   9.222  10.336 -0.8156  0.5598 -0.5398
  656MOL0     C88446   6.680   9.163  10.470  0.0583  0.2802  0.2353
  656MOL0     C88447   6.652   9.279  10.565 -0.7984  0.6663 -0.6886
  656MOL0     C88448   6.661   9.238  10.708 -0.0735 -0.3788 -0.6953
  656MOL0     O88449   6.589   9.116  10.727  0.2569  0.2555 -0.1867
  656MOL0     C88450   6.585   9.038  10.837  0.5699  0.2775 -0.0486
  656MOL0     C88451   6.633   9.064  10.962 -0.1074 -0.1508 -0.1629
  656MOL0     C88452   6.635   8.964  11.054 -0.2058 -0.6514  0.0239
  656MOL0     C88453   6.575   8.828  11.033 -0.6588 -0.3646 -0.8075
  656MOL0     C88454   6.587   8.718  11.142  0.1136  0.0379  0.0193
  656MOL0     O88455   6.659   8.751  11.262  0.2328 -0.3530  0.1770
  656MOL0     C88456   6.690   8.654  11.348 -0.8937  0.3502  0.1586
  656MOL0     C88457   6.721   8.515  11.324  0.0437 -0.4630  0.2459
  656MOL0     C88458   6.777   8.443  11.426  0.3230  0.5194  0.5511
  656MOL0     C88459   6.810   8.497  11.547 -1.0466 -0.1847  0.0465
  656MOL0     O88460   6.865   8.425  11.657 -0.8627  0.1320  0.5949
  656MOL0     C88461   6.918   8.288  11.633  0.2671 -0.9847  0.8291
  656MOL0     C88462   7.062   8.275  11.573 -0.1207  0.2982  0.6028
  656MOL0     C88463   7.166   8.322  11.678  0.7522 -0.0475  0.1429
  656MOL0     C88464   7.205   8.208  11.776  0.0492  0.2455 -0.0011
  656MOL0     C88465   7.341   8.149  11.760 -0.0803  0.3841  0.0559
  656MOL0     C88466   7.358   8.032  11.851 -0.0185 -0.0030 -0.3137
  656MOL0     C88467   7.441   8.068  11.973 -0.6262 -0.5995  0.4429
  656MOL0     C88468   7.493   7.957  12.065  0.2813 -0.1644  0.6105
  656MOL0    Cl88469   7.349   7.884  12.149  0.1237  0.5203 -0.1301
  656MOL0     C88470   6.775   8.632  11.575 -0.9309 -0.4676  0.9507
  656MOL0     C88471   6.722   8.705  11.471 -0.3264  1.0529 -0.0422
  656MOL0     O88472   6.561   8.603  11.106 -0.0832 -0.2290  0.5497
  656MOL0     C88473   6.511   8.815  10.909  0.2868  0.7155 -1.4824
  656MOL0     C88474   6.516   8.919  10.819  0.9915 -0.7838 -0.0237
  656MOL0     N88475   6.934   9.123  10.269 -0.0274 -0.0734 -0.3081
  656MOL0     N88476   6.961   9.031  10.188  0.0382  0.0167 -0.9001
  656MOL0     C88477   7.307   8.810   9.126 -0.0201 -0.1017 -0.1670
  656MOL0     C88478   7.422   8.812   9.055  0.2826 -0.1329 -0.3396
  656MOL0     C88479   7.736   8.756   8.751  0.6246  0.0663  0.2329
  656MOL0     C88480   7.855   8.787   8.816  0.3845 -0.3549 -0.0265
  656MOL0     C88481   7.981   8.807   8.752 -0.2715 -0.3170  0.4075
  656MOL0     C88482   7.983   8.825   8.615 -0.5433 -0.7362  0.7119
  656MOL0     O88483   8.086   8.873   8.534 -0.4376  0.2327 -0.1256
  656MOL0     C88484   8.216   8.817   8.568  0.1526  0.0258 -0.4709
  656MOL0     C88485   8.326   8.854   8.469  0.5178  1.2714 -0.2573
  656MOL0     C88486   8.308   8.786   8.334  0.7233 -0.3332 -1.0062
  656MOL0     C88487   8.410   8.837   8.230 -0.7419  0.6361 -0.5145
  656MOL0     C88488   8.538   8.780   8.272 -0.0702  0.3925  0.1324
  656MOL0     C88489   8.644   8.737   8.311 -0.1906  0.4731 -0.5869
  656MOL0     C88490   7.863   8.809   8.539  0.2303  0.0485 -0.0463
  656MOL0     C88491   7.746   8.771   8.607  0.2411  0.1347  0.0284
  656MOL0     C88492   7.636   8.732   8.507  0.0891  0.1473 -1.0506
  656MOL0     H88493   7.525   8.494   9.042 -1.9378 -1.0122 -0.3703
  656MOL0     H88494   7.314   8.473   9.188  1.7330 -1.1722  2.2097
  656MOL0     H88495   7.081   8.473   9.272 -0.8312  2.1367 -2.1929
  656MOL0     H88496   7.200   8.539   9.394 -0.4958 -2.6611 -0.7920
  656MOL0     H88497   6.944   8.516   9.446  1.1451 -0.3057  0.7094
  656MOL0     H88498   6.917   8.660   9.337 -0.4192  0.9261 -0.0432
  656MOL0     H88499   7.105   8.767   9.486  0.9362 -0.8054  1.5994
  656MOL0     H88500   7.081   8.621   9.588 -1.1150 -1.8143 -1.6374
  656MOL0     H88501   6.845   8.794   9.519 -0.3155 -1.5619  0.2989
  656MOL0     H88502   6.857   8.679   9.649  1.2677  0.0686  3.2289
  656MOL0     H88503   7.005   8.820   9.774  1.2214 -1.9029 -2.2200
  656MOL0     H88504   7.049   8.933   9.643  1.2001 -0.9963  1.0031
  656MOL0     H88505   6.841   9.030   9.668  1.6680  0.3458 -0.3018
  656MOL0     H88506   6.758   8.892   9.726 -0.0438 -1.7292 -0.4948
  656MOL0     H88507   6.786   9.072   9.900 -0.6805  0.1619 -1.8391
  656MOL0     H88508   6.956   9.076   9.877 -1.7171  1.6295 -1.4183
  656MOL0     H88509   6.796   8.834   9.969  0.8593 -0.2266 -2.4850
  656MOL0     H88510   6.970   8.851   9.995 -0.1848  0.2400  0.2128
  656MOL0     H88511   6.641   9.032  10.158 -0.3889  1.3158  0.3955
  656MOL0     H88512   6.748   9.323  10.341  2.0965 -0.3027 -2.9691
  656MOL0     H88513   6.613   9.222  10.284 -0.9561 -2.3117 -0.4650
  656MOL0     H88514   6.595   9.094  10.461 -0.1758  0.4404  1.0927
  656MOL0     H88515   6.768   9.110  10.508  0.0826  0.8021  0.9306
  656MOL0     H88516   6.553   9.319  10.541  0.3347  3.3908 -1.2483
  656MOL0     H88517   6.723   9.361  10.549  0.7556 -0.6016 -0.5064
  656MOL0     H88518   6.630   9.324  10.768  0.3726 -0.1238 -0.8231
  656MOL0     H88519   6.766   9.228  10.736 -0.8250 -0.2091  2.5814
  656MOL0     H88520   6.688   9.156  10.978  0.0063 -0.0390 -1.1708
  656MOL0     H88521   6.680   8.991  11.149 -2.0991  0.9504  0.5443
  656MOL0     H88522   6.704   8.473  11.225 -5.2584  0.2763  0.5591
  656MOL0     H88523   6.809   8.345  11.393 -0.4647 -0.0199  1.3129
  656MOL0     H88524   6.926   8.252  11.735  1.0483 -3.0307  0.0838
  656MOL0     H88525   6.853   8.218  11.579  0.1851  0.3805 -0.9592
  656MOL0     H88526   7.058   8.175  11.531 -1.8684  0.8768 -0.7385
  656MOL0     H88527   7.058   8.335  11.481 -0.5202 -0.2711  0.2465
  656MOL0     H88528   7.253   8.345  11.615 -1.4800  0.2483 -3.1123
  656MOL0     H88529   7.141   8.411  11.736  2.5763 -0.5234  1.7629
  656MOL0     H88530   7.140   8.121  11.769  0.3497 -0.0016  0.2340
  656MOL0     H88531   7.201   8.255  11.875 -0.7466  2.4620 -1.0189
  656MOL0     H88532   7.426   8.217  11.761  0.9602 -0.8689 -0.4922
  656MOL0     H88533   7.342   8.112  11.657 -0.4795 -2.1650  0.8812
  656MOL0     H88534   7.271   7.975  11.883  2.1076 -1.3074  3.9900
  656MOL0     H88535   7.431   7.964  11.806 -0.3889 -1.5468  1.2920
  656MOL0     H88536   7.389   8.145  12.030 -1.3332  0.2203 -1.2252
  656MOL0     H88537   7.525   8.125  11.933 -0.9898 -0.8198 -0.6843
  656MOL0     H88538   7.548   7.875  12.017 -2.1676 -2.5443  1.5476
  656MOL0     H88539   7.563   8.005  12.134  0.8267 -1.5743  1.0970
  656MOL0     H88540   6.782   8.693  11.665 -0.1813 -0.2393  0.7490
  656MOL0     H88541   6.710   8.813  11.482  0.5551  1.2297 -0.6890
  656MOL0     H88542   6.455   8.726  10.882  3.7828 -2.5769  1.0349
  656MOL0     H88543   6.467   8.905  10.723 -0.5153 -0.2264  0.6363
  656MOL0     H88544   7.250   8.901   9.140  0.5911  0.3936 -0.8866
  656MOL0     H88545   7.451   8.906   9.009 -3.5255  0.8043 -1.1771
  656MOL0     H88546   7.850   8.797   8.924 -3.8522  2.3779 -0.2309
  656MOL0     H88547   8.068   8.821   8.816  1.1690 -0.3942 -1.4557
  656MOL0     H88548   8.216   8.708   8.573 -3.4637 -0.1151 -1.0665
  656MOL0     H88549   8.236   8.858   8.668  0.9145 -1.1121 -0.1388
  656MOL0     H88550   8.421   8.820   8.512  0.0508  0.9356  0.5180
  656MOL0     H88551   8.337   8.961   8.452 -3.1223  1.6677 -0.8161
  656MOL0     H88552   8.209   8.820   8.301  0.5219 -0.1996 -0.2787
  656MOL0     H88553   8.314   8.677   8.336  1.3368 -0.2956  0.9245
  656MOL0     H88554   8.389   8.798   8.129  0.7336  1.0715 -1.0189
  656MOL0     H88555   8.413   8.946   8.227  0.3370  0.6237 -0.3768
  656MOL0     H88556   8.732   8.686   8.342 -1.3440 -1.9206 -0.9825
  656MOL0     H88557   7.864   8.821   8.431 -0.1208 -2.1353 -0.3440
  656MOL0     H88558   7.567   8.649   8.527 -0.3267  1.0703  1.8261
  656MOL0     H88559   7.564   8.815   8.502 -0.8595 -0.4662  1.0421
  656MOL0     H88560   7.679   8.720   8.407 -1.5551 -0.5081 -1.7292
  657MOL0     O88561  11.356   8.355   6.706  0.3832  0.1339  0.2762
  657MOL0     C88562  11.421   8.264   6.653  1.1824  0.3172  0.7974
  657MOL0     O88563  11.405   8.231   6.518 -0.2877 -0.4206 -0.8588
  657MOL0     C88564  11.320   8.292   6.435  0.8665 -1.1845 -0.5872
  657MOL0     C88565  11.182   8.319   6.468 -0.8933  0.7836 -0.0175
  657MOL0     C88566  11.097   8.364   6.375 -0.2173  0.5307  0.7043
  657MOL0     C88567  11.140   8.400   6.245 -0.7021 -0.0914  0.8623
  657MOL0     O88568  11.058   8.438   6.135 -0.4129 -0.1943 -0.2636
  657MOL0     C88569  10.976   8.553   6.158  0.0825 -0.4100  0.0284
  657MOL0     C88570  11.074   8.675   6.174  0.5572 -0.1946 -0.8879
  657MOL0     C88571  11.005   8.793   6.255 -1.1478  0.7531  0.7446
  657MOL0     C88572  10.903   8.867   6.172  0.7889  0.5048 -0.5164
  657MOL0     C88573  10.862   8.998   6.243  0.4632  0.4095  0.2447
  657MOL0     C88574  10.738   9.069   6.185  0.8431 -0.4761 -0.1746
  657MOL0     C88575  10.618   8.975   6.170  0.6669  0.0464  0.7411
  657MOL0     C88576  10.474   9.039   6.129 -2.0645  0.7405 -0.8401
  657MOL0     N88577  10.383   8.942   6.067  0.3118  0.9500  0.3805
  657MOL0     C88578  10.388   8.899   5.937 -0.8409  0.0767 -0.5828
  657MOL0     C88579  10.299   8.804   5.924  0.0003  1.0202  0.0421
  657MOL0     C88580  10.249   8.735   5.801  0.1720  0.2510  0.3122
  657MOL0     C88581  10.120   8.803   5.765  0.2107  1.3894 -0.0991
  657MOL0     C88582  10.070   8.765   5.626  0.1268  0.9281 -0.1760
  657MOL0     C88583  10.087   8.611   5.594 -0.7757 -0.1675 -0.1252
  657MOL0     O88584  10.035   8.589   5.461  0.0281 -0.5819 -1.0526
  657MOL0     C88585   9.996   8.464   5.427 -0.3717 -1.3722 -1.0753
  657MOL0     C88586  10.058   8.352   5.474 -0.3583  0.3297 -0.4913
  657MOL0     C88587  10.000   8.227   5.436  0.8942 -0.4579 -0.2004
  657MOL0     C88588   9.892   8.216   5.344  0.0177 -0.1120  0.4424
  657MOL0     C88589   9.841   8.092   5.291  0.0844  0.2839  0.0140
  657MOL0     O88590   9.713   8.086   5.228  0.1233  0.4405  0.7203
  657MOL0     C88591   9.662   7.966   5.193  0.1761  0.4119 -0.1715
  657MOL0     C88592   9.600   7.950   5.065 -0.2717 -0.3603  0.2677
  657MOL0     C88593   9.547   7.825   5.017 -0.1430 -0.5833  0.0161
  657MOL0     C88594   9.546   7.714   5.092 -0.4715 -0.6374 -1.1363
  657MOL0     O88595   9.485   7.593   5.070 -0.3463  0.1452  0.4456
  657MOL0     C88596   9.347   7.598   5.034  0.0826  0.4954  0.2608
  657MOL0     C88597   9.284   7.455   5.046  0.0478 -0.4968  0.3725
  657MOL0     C88598   9.280   7.395   5.191  0.1294 -0.3292  0.6623
  657MOL0     C88599   9.192   7.464   5.295 -0.4939  0.9766  0.0586
  657MOL0     C88600   9.173   7.398   5.431  0.4162 -0.2007  0.1478
  657MOL0     C88601   9.290   7.395   5.526  0.0338 -0.4489 -0.9076
  657MOL0     C88602   9.299   7.300   5.642  0.7067  0.2489  0.2931
  657MOL0     C88603   9.155   7.300   5.714  0.2341  0.0268  0.0455
  657MOL0    Cl88604   9.167   7.174   5.848 -0.1004 -0.4132  0.2979
  657MOL0     C88605   9.606   7.732   5.221 -0.5690  0.1417  0.5450
  657MOL0     C88606   9.668   7.848   5.268  0.2978  0.9239 -0.5225
  657MOL0     O88607   9.919   7.993   5.297 -0.8015  0.2720 -0.0108
  657MOL0     C88608   9.823   8.338   5.311 -0.1910  0.4569 -0.2397
  657MOL0     C88609   9.878   8.459   5.357  0.0854 -0.1469  0.5239
  657MOL0     N88610  10.242   8.774   6.049 -0.4639 -0.8059  0.0690
  657MOL0     N88611  10.292   8.862   6.138 -0.2590  0.5213  0.4046
  657MOL0     C88612  11.274   8.370   6.204 -0.0675  0.3793 -0.1296
  657MOL0     C88613  11.359   8.309   6.297  0.0318  0.2521 -0.1884
  657MOL0     C88614  11.526   8.185   6.721  0.1114  0.3746  0.0480
  657MOL0     C88615  11.622   8.112   6.639 -0.0408  0.4439  0.3237
  657MOL0     C88616  11.720   8.028   6.697  0.5639  0.4588 -0.2555
  657MOL0     C88617  11.715   8.003   6.835  0.6109  0.5616  0.3035
  657MOL0     O88618  11.801   7.921   6.908 -0.2363 -0.4697  0.6674
  657MOL0     C88619  11.901   7.835   6.848  0.1041 -0.2604  0.4300
  657MOL0     C88620  11.831   7.716   6.773 -1.4412  0.5576 -0.2036
  657MOL0     C88621  11.765   7.614   6.867  0.5455 -0.1407 -1.3679
  657MOL0     C88622  11.696   7.507   6.786  1.3278 -0.2409 -0.4299
  657MOL0     C88623  11.776   7.433   6.697  0.1421  0.2499 -0.4635
  657MOL0     C88624  11.879   7.387   6.646 -0.4930 -0.1716  0.1279
  657MOL0     C88625  11.626   8.078   6.910 -0.3700  0.2463  0.2091
  657MOL0     C88626  11.537   8.173   6.858 -0.1494 -0.7593 -0.2980
  657MOL0     C88627  11.458   8.251   6.961 -0.9025  0.7251 -0.6862
  657MOL0     H88628  11.152   8.297   6.570 -1.9910  1.8263 -0.0963
  657MOL0     H88629  10.994   8.370   6.407 -1.8939 -8.0237 -0.6088
  657MOL0     H88630  10.924   8.572   6.063  1.5698 -3.0882 -1.4260
  657MOL0     H88631  10.904   8.552   6.241 -0.4270 -2.4889 -0.3757
  657MOL0     H88632  11.107   8.716   6.078  3.8816  1.4598  0.7893
  657MOL0     H88633  11.167   8.654   6.227  1.2474  0.1501 -1.9248
  657MOL0     H88634  11.092   8.849   6.290  4.3609 -5.0176 -1.6769
  657MOL0     H88635  10.961   8.732   6.335 -0.4747 -1.5415 -0.5277
  657MOL0     H88636  10.938   8.888   6.071  1.1695 -1.9455 -0.9702
  657MOL0     H88637  10.820   8.795   6.167  2.0487 -0.9970 -0.6087
  657MOL0     H88638  10.850   8.975   6.349  0.2478  1.5770  0.4880
  657MOL0     H88639  10.945   9.069   6.241 -0.4969  1.5621 -1.1199
  657MOL0     H88640  10.717   9.152   6.253  0.2540 -0.4509 -0.3812
  657MOL0     H88641  10.759   9.114   6.087  1.4231  1.5457  0.8176
  657MOL0     H88642  10.588   8.906   6.249 -1.6370  0.5661  0.3923
  657MOL0     H88643  10.643   8.913   6.083  0.3264  0.2545  0.4910
  657MOL0     H88644  10.427   9.082   6.217 -0.2957  3.3856 -1.0653
  657MOL0     H88645  10.502   9.121   6.062  0.0416  0.2437 -0.6355
  657MOL0     H88646  10.451   8.944   5.861  0.4000  1.8203  1.3678
  657MOL0     H88647  10.319   8.758   5.721 -1.5146  5.2288 -0.0851
  657MOL0     H88648  10.232   8.627   5.806  2.6955 -0.2294 -0.1148
  657MOL0     H88649  10.042   8.768   5.833 -0.6998  3.5816  0.0736
  657MOL0     H88650  10.117   8.908   5.795  1.4900  1.2764  0.5095
  657MOL0     H88651  10.115   8.836   5.557  0.9255 -0.8026 -1.5056
  657MOL0     H88652   9.962   8.777   5.611 -0.1783 -0.0242  1.0468
  657MOL0     H88653  10.024   8.557   5.666 -2.8384 -0.4127 -1.9976
  657MOL0     H88654  10.190   8.575   5.587 -0.7854 -0.0137 -1.2868
  657MOL0     H88655  10.146   8.348   5.537  1.5272 -0.1462 -2.9739
  657MOL0     H88656  10.046   8.131   5.457  0.4235 -1.1673 -2.1555
  657MOL0     H88657   9.593   8.033   4.996  1.2182 -0.6654 -0.2844
  657MOL0     H88658   9.507   7.812   4.917  1.9083 -1.7984 -0.6919
  657MOL0     H88659   9.297   7.668   5.101  3.9808  1.4837  2.4710
  657MOL0     H88660   9.331   7.629   4.930 -5.1287  1.0760  0.9976
  657MOL0     H88661   9.180   7.463   5.016  0.0799  0.4895  0.4926
  657MOL0     H88662   9.327   7.384   4.975 -0.5876 -2.2375  1.6439
  657MOL0     H88663   9.244   7.292   5.186 -4.1002  0.8126  2.8231
  657MOL0     H88664   9.384   7.398   5.223  0.2937  1.4454  0.0613
  657MOL0     H88665   9.094   7.483   5.250  0.2518 -2.0548 -3.3530
  657MOL0     H88666   9.232   7.565   5.309 -1.3093  1.3879 -0.4716
  657MOL0     H88667   9.155   7.292   5.414  0.9551 -0.2201 -0.3411
  657MOL0     H88668   9.083   7.435   5.481  0.6733 -0.3122  0.6977
  657MOL0     H88669   9.385   7.380   5.473  0.6034  4.0814 -1.5229
  657MOL0     H88670   9.294   7.491   5.577  0.2111 -0.2044 -1.3808
  657MOL0     H88671   9.375   7.327   5.715 -0.7798  0.1933  1.9288
  657MOL0     H88672   9.314   7.198   5.605  0.0691 -0.0795  0.9161
  657MOL0     H88673   9.125   7.396   5.757  3.1299  2.4597 -2.8149
  657MOL0     H88674   9.087   7.270   5.635 -0.7476  2.4291 -0.0893
  657MOL0     H88675   9.624   7.640   5.276  2.5397  0.1250 -0.2581
  657MOL0     H88676   9.726   7.843   5.360  1.3825 -3.9497 -1.2097
  657MOL0     H88677   9.741   8.317   5.243 -0.0065  0.5557 -0.4984
  657MOL0     H88678   9.818   8.545   5.328  2.4608  1.4767  0.1369
  657MOL0     H88679  11.306   8.402   6.105  0.6804 -0.6361 -0.2348
  657MOL0     H88680  11.461   8.291   6.265  0.4590  0.1255  1.1773
  657MOL0     H88681  11.624   8.128   6.532 -0.9553 -1.5096 -0.0275
  657MOL0     H88682  11.787   7.962   6.642 -1.4095 -1.3233 -0.6395
  657MOL0     H88683  11.977   7.795   6.916  0.4641 -1.5761 -0.7112
  657MOL0     H88684  11.948   7.896   6.770 -4.8006  2.7537 -0.6319
  657MOL0     H88685  11.923   7.678   6.728 -0.8421 -2.1270  2.8715
  657MOL0     H88686  11.749   7.754   6.712 -0.1412  0.5092 -2.0611
  657MOL0     H88687  11.699   7.674   6.930  0.4590  1.7478 -3.1693
  657MOL0     H88688  11.843   7.573   6.933 -2.1219  1.8238  3.5601
  657MOL0     H88689  11.647   7.446   6.863 -0.3971  2.5975  0.8879
  657MOL0     H88690  11.610   7.550   6.735 -1.6909 -0.8651  3.6082
  657MOL0     H88691  11.955   7.328   6.600 -0.7688  0.0724 -0.6463
  657MOL0     H88692  11.629   8.058   7.017  0.0034 -1.7125 -0.1381
  657MOL0     H88693  11.503   8.243   7.061 -5.0935 -0.8161  1.3162
  657MOL0     H88694  11.448   8.353   6.924  3.5860  0.9342 -1.9036
  657MOL0     H88695  11.356   8.211   6.962  0.7646 -4.0999 -0.3424
  658MOL0     O88696   4.087   9.632   3.373 -0.4577 -0.3360  0.5526
  658MOL0     C88697   4.161   9.657   3.471  0.4767  0.7147  0.6165
  658MOL0     O88698   4.165   9.585   3.586  0.8778 -0.3136 -0.3272
  658MOL0     C88699   4.076   9.481   3.602 -0.8953 -1.0221 -0.2442
  658MOL0     C88700   4.126   9.350   3.604 -0.3575  0.0939  0.3182
  658MOL0     C88701   4.035   9.241   3.624 -0.1970 -0.1766  0.5724
  658MOL0     C88702   3.893   9.260   3.634  0.3576 -0.2055 -0.6309
  658MOL0     O88703   3.820   9.149   3.652 -0.8206 -0.1372 -0.4327
  658MOL0     C88704   3.682   9.162   3.690  0.7448 -0.1374 -0.4783
  658MOL0     C88705   3.621   9.028   3.732  0.4396  0.3905 -0.4225
  658MOL0     C88706   3.599   8.994   3.880 -0.9255 -0.2963 -0.4134
  658MOL0     C88707   3.541   8.857   3.923  0.5120  0.0635 -0.3828
  658MOL0     C88708   3.482   8.861   4.063 -0.1994 -0.6784 -0.5616
  658MOL0     C88709   3.396   8.731   4.091 -0.8306  0.1804 -0.9262
  658MOL0     C88710   3.254   8.753   4.036  0.4181  0.1768  0.6803
  658MOL0     C88711   3.201   8.643   3.963 -0.5432 -0.2870  0.1268
  658MOL0     N88712   3.084   8.674   3.883  0.0614  0.6826 -0.0230
  658MOL0     C88713   2.958   8.714   3.936  0.9045  0.3127  0.3165
  658MOL0     C88714   2.878   8.741   3.829  0.1980  0.5129 -1.0511
  658MOL0     C88715   2.743   8.788   3.820 -0.4593  0.3295  0.5440
  658MOL0     C88716   2.728   8.919   3.726  0.0542  1.1221 -0.4777
  658MOL0     C88717   2.821   9.035   3.758 -0.0883  0.2305  0.4149
  658MOL0     C88718   2.810   9.076   3.901  0.6035  0.0131  0.8519
  658MOL0     O88719   2.704   9.174   3.934  0.0226  0.2557 -0.8927
  658MOL0     C88720   2.740   9.307   3.932  0.7095 -0.0684 -0.4785
  658MOL0     C88721   2.655   9.378   4.008 -0.1579  0.1660  0.4526
  658MOL0     C88722   2.685   9.509   4.047  0.1072 -0.6529  0.3125
  658MOL0     C88723   2.796   9.572   3.991  0.5812  0.0966  0.2420
  658MOL0     C88724   2.815   9.719   4.000 -0.1018  0.5292 -0.3836
  658MOL0     O88725   2.944   9.761   3.959 -0.1430 -0.2817 -0.2510
  658MOL0     C88726   2.978   9.893   3.943 -0.5718 -1.2658  0.3649
  658MOL0     C88727   3.115   9.934   3.933 -0.1344 -0.1091 -1.1802
  658MOL0     C88728   3.150  10.062   3.913 -0.2817 -0.1611  1.2891
  658MOL0     C88729   3.051  10.162   3.898 -0.2138 -0.3353 -0.4437
  658MOL0     O88730   3.084  10.294   3.889 -0.4576  0.1418 -0.3821
  658MOL0     C88731   3.218  10.329   3.854  0.8340 -1.1420 -0.3877
  658MOL0     C88732   3.225  10.484   3.850 -0.3583 -1.2191 -0.5816
  658MOL0     C88733   3.159  10.564   3.968  0.3186 -0.1877 -0.6658
  658MOL0     C88734   3.204  10.717   3.984  0.1927 -0.3912  0.3848
  658MOL0     C88735   3.130  10.795   4.105  0.7471  0.5232  0.1576
  658MOL0     C88736   3.175  10.934   4.131  0.0676 -0.7299 -0.2900
  658MOL0     C88737   3.325  10.945   4.171 -0.7555 -0.3897  0.3907
  658MOL0     C88738   3.359  11.083   4.232  0.3701  0.5522 -0.4382
  658MOL0    Cl88739   3.532  11.068   4.287  0.3547 -0.0882  0.1550
  658MOL0     C88740   2.915  10.129   3.891 -0.7409 -0.9553 -0.4354
  658MOL0     C88741   2.882   9.997   3.924  0.1992 -0.6201 -0.5069
  658MOL0     O88742   2.728   9.790   4.031  0.3538 -0.7440  1.0889
  658MOL0     C88743   2.883   9.495   3.904  0.0256 -0.7959 -0.2596
  658MOL0     C88744   2.851   9.363   3.879  0.2705  0.1586  0.2215
  658MOL0     N88745   2.961   8.727   3.721 -0.0412  0.0906  0.4271
  658MOL0     N88746   3.077   8.695   3.749 -0.3970 -0.3555 -0.2144
  658MOL0     C88747   3.850   9.390   3.633 -0.0140  0.4713 -0.6555
  658MOL0     C88748   3.936   9.498   3.624  0.0827 -0.5970  0.7156
  658MOL0     C88749   4.272   9.754   3.448 -0.2129  0.8698 -0.0639
  658MOL0     C88750   4.307   9.779   3.314  0.0755 -0.0668  0.0464
  658MOL0     C88751   4.411   9.864   3.279 -0.6658  0.0737 -0.4623
  658MOL0     C88752   4.473   9.945   3.367  0.0110 -0.3853  0.0057
  658MOL0     O88753   4.577  10.015   3.309 -0.3151 -0.4331 -0.0878
  658MOL0     C88754   4.653  10.116   3.389  0.1579  0.2490  1.0768
  658MOL0     C88755   4.662  10.234   3.292 -0.2949  0.0043  0.3784
  658MOL0     C88756   4.757  10.337   3.357 -0.3475 -0.5267 -0.2646
  658MOL0     C88757   4.742  10.480   3.299 -0.6683  0.6506  0.5646
  658MOL0     C88758   4.653  10.553   3.390  0.6405 -0.1026  1.1384
  658MOL0     C88759   4.578  10.621   3.463 -0.0803  0.6014  0.9703
  658MOL0     C88760   4.443   9.919   3.504 -0.2370 -0.4341 -0.4131
  658MOL0     C88761   4.344   9.823   3.549 -0.0882  0.5929  0.7170
  658MOL0     C88762   4.314   9.787   3.699 -0.2872 -0.2836  0.8857
  658MOL0     H88763   4.233   9.330   3.603 -0.5796 -1.4123 -2.0449
  658MOL0     H88764   4.084   9.145   3.617  0.3107  0.1689 -0.9482
  658MOL0     H88765   3.683   9.237   3.770  1.4730  0.5743 -1.1423
  658MOL0     H88766   3.616   9.199   3.611 -0.1966 -0.5005  0.1164
  658MOL0     H88767   3.680   8.951   3.681  1.6716  2.6282 -2.5861
  658MOL0     H88768   3.520   9.017   3.691 -0.4943  3.8665  0.6595
  658MOL0     H88769   3.531   9.073   3.912 -1.0836  0.5347 -2.6761
  658MOL0     H88770   3.690   9.008   3.939 -2.7431  2.6100  1.9636
  658MOL0     H88771   3.458   8.834   3.854  0.0680  0.7371 -0.0831
  658MOL0     H88772   3.614   8.776   3.926 -2.5731 -2.9918 -0.6302
  658MOL0     H88773   3.564   8.867   4.136 -1.1607  2.7874  0.4495
  658MOL0     H88774   3.423   8.948   4.094 -1.7886 -2.3365  1.3869
  658MOL0     H88775   3.434   8.634   4.055 -2.3893 -1.4122  1.3855
  658MOL0     H88776   3.397   8.711   4.199  0.0369 -1.8379 -1.2418
  658MOL0     H88777   3.260   8.839   3.969 -0.6483 -0.9339 -0.8914
  658MOL0     H88778   3.184   8.777   4.117  2.4490  1.6034  2.1092
  658MOL0     H88779   3.285   8.597   3.910  1.4261  0.2855  2.5333
  658MOL0     H88780   3.188   8.566   4.040  1.0125  1.7180  2.5559
  658MOL0     H88781   2.923   8.710   4.038  0.6796 -0.9710  0.2035
  658MOL0     H88782   2.672   8.711   3.789  1.2734 -0.8579 -0.7103
  658MOL0     H88783   2.698   8.807   3.918 -2.6203  0.3090 -0.4109
  658MOL0     H88784   2.724   8.892   3.621 -2.1399 -2.4557  0.3770
  658MOL0     H88785   2.633   8.972   3.735 -0.8169 -0.6433  1.5258
  658MOL0     H88786   2.791   9.125   3.705  0.3900 -1.5864 -3.3157
  658MOL0     H88787   2.926   9.025   3.729  0.5604  0.0026  2.6249
  658MOL0     H88788   2.903   9.126   3.930  0.6741  0.7111 -0.4654
  658MOL0     H88789   2.792   8.989   3.964 -2.7685  0.4785  0.6853
  658MOL0     H88790   2.574   9.322   4.053  0.5512 -0.4268  1.0295
  658MOL0     H88791   2.625   9.576   4.107  4.2246  1.2128  2.7500
  658MOL0     H88792   3.190   9.857   3.945  0.1473  0.4055  0.6499
  658MOL0     H88793   3.257  10.076   3.903 -0.5076  0.8441  0.1185
  658MOL0     H88794   3.285  10.288   3.930 -0.2879  0.5443  1.6357
  658MOL0     H88795   3.251  10.301   3.754  1.1991 -2.1216 -0.0046
  658MOL0     H88796   3.330  10.515   3.851 -1.1163  1.6206  0.5220
  658MOL0     H88797   3.189  10.522   3.754 -0.3979  2.4696  0.7316
  658MOL0     H88798   3.051  10.555   3.955  0.2265 -1.2580  0.6092
  658MOL0     H88799   3.167  10.515   4.065 -0.1848  2.1456  0.6178
  658MOL0     H88800   3.177  10.769   3.892  0.8079  0.4136  0.6441
  658MOL0     H88801   3.312  10.721   4.000 -0.0244  0.3635  1.8807
  658MOL0     H88802   3.123  10.733   4.195 -1.2131  1.1107  0.4683
  658MOL0     H88803   3.024  10.802   4.080  0.0655 -1.5589  2.1187
  658MOL0     H88804   3.166  10.996   4.041  0.7972 -0.9206 -0.5038
  658MOL0     H88805   3.116  10.979   4.211  0.8548 -0.6592  0.2619
  658MOL0     H88806   3.381  10.937   4.077 -1.5445 -2.8888  0.0752
  658MOL0     H88807   3.353  10.863   4.238  4.4654  0.4695 -0.3053
  658MOL0     H88808   3.355  11.156   4.150 -0.8710  1.2922  0.2434
  658MOL0     H88809   3.283  11.094   4.310 -1.8705  0.7137 -2.5262
  658MOL0     H88810   2.849  10.211   3.861  1.2386 -0.4022 -3.9008
  658MOL0     H88811   2.775   9.985   3.933 -0.3243  3.3558  0.6760
  658MOL0     H88812   2.973   9.540   3.862 -1.1844  1.6144 -0.4246
  658MOL0     H88813   2.918   9.307   3.815 -2.0494 -2.5128 -0.0337
  658MOL0     H88814   3.746   9.415   3.652 -0.4828  3.9817 -5.7879
  658MOL0     H88815   3.895   9.598   3.615  0.4062 -0.4222  1.1359
  658MOL0     H88816   4.258   9.716   3.240 -1.3450  0.0301  0.8562
  658MOL0     H88817   4.448   9.869   3.177  1.1877 -0.4338  0.1457
  658MOL0     H88818   4.746  10.073   3.425  0.7605  1.2110  0.7114
  658MOL0     H88819   4.604  10.141   3.484  1.4716 -0.9263  2.0993
  658MOL0     H88820   4.567  10.287   3.284  0.1859  0.6341 -1.8566
  658MOL0     H88821   4.696  10.199   3.194 -0.4966 -2.2078  1.0266
  658MOL0     H88822   4.858  10.297   3.350  0.1315  0.1183  2.0958
  658MOL0     H88823   4.739  10.335   3.464  1.6186 -3.6830  0.1130
  658MOL0     H88824   4.840  10.529   3.289  0.7059 -0.7829  4.8381
  658MOL0     H88825   4.706  10.468   3.196  1.3744 -3.6979  0.0954
  658MOL0     H88826   4.509  10.679   3.521 -0.7688 -0.0654  0.8345
  658MOL0     H88827   4.501   9.961   3.586  1.2619 -0.8400 -1.2369
  658MOL0     H88828   4.210   9.807   3.725  0.3961 -0.8757  4.6873
  658MOL0     H88829   4.345   9.686   3.729 -0.1463  0.0210  1.8135
  658MOL0     H88830   4.376   9.857   3.757 -0.0533  0.0422  0.2462
  659MOL0     O88831   3.680   0.143   4.569  0.1504  0.7457 -0.4832
  659MOL0     C88832   3.710   0.028   4.611 -0.8110 -0.2488  1.3924
  659MOL0     O88833   3.652  -0.086   4.561  0.1544  0.1049  0.2531
  659MOL0     C88834   3.549  -0.065   4.473 -0.2062  0.3999  0.2594
  659MOL0     C88835   3.557  -0.116   4.341  0.2258 -0.1199  0.6255
  659MOL0     C88836   3.443  -0.120   4.266 -0.6231 -1.6544 -0.1103
  659MOL0     C88837   3.322  -0.061   4.316 -0.3080 -0.0700 -0.2151
  659MOL0     O88838   3.219  -0.060   4.221  0.3789  0.2571 -0.0179
  659MOL0     C88839   3.109   0.026   4.239 -0.2525 -0.3034 -0.1028
  659MOL0     C88840   3.018   0.029   4.119 -0.7391  0.5298  0.4515
  659MOL0     C88841   2.906   0.120   4.139  0.2088 -0.3648  0.4207
  659MOL0     C88842   2.946   0.274   4.152  0.3747  0.4375  0.2986
  659MOL0     C88843   2.816   0.359   4.174 -0.1730 -0.3660  0.1352
  659MOL0     C88844   2.765   0.320   4.315 -0.7995 -0.1544  0.4556
  659MOL0     C88845   2.626   0.373   4.325  0.2521 -0.8506 -0.4349
  659MOL0     C88846   2.568   0.398   4.457  0.7860 -1.0624 -0.7595
  659MOL0     N88847   2.635   0.506   4.520  0.4348 -0.1581 -0.1286
  659MOL0     C88848   2.606   0.638   4.493 -0.2380 -0.4477 -0.1700
  659MOL0     C88849   2.702   0.710   4.552 -0.5170 -0.0114  0.1201
  659MOL0     C88850   2.721   0.859   4.560 -0.5272  0.7452  0.1921
  659MOL0     C88851   2.824   0.880   4.452  0.1887 -0.0228  0.8082
  659MOL0     C88852   2.869   1.032   4.437 -0.1223 -0.1100 -0.1825
  659MOL0     C88853   2.748   1.130   4.391 -0.4781 -0.0944  0.1988
  659MOL0     O88854   2.759   1.145   4.249 -0.8019  0.1074  0.4534
  659MOL0     C88855   2.850   1.237   4.201  0.7965 -0.0040  0.7555
  659MOL0     C88856   2.909   1.336   4.280  0.2001 -0.2529  0.5233
  659MOL0     C88857   2.981   1.436   4.213 -0.6708  0.4573 -0.4633
  659MOL0     C88858   3.024   1.420   4.082  0.8028 -0.5119  0.3621
  659MOL0     C88859   3.104   1.534   4.017  0.8799 -0.2889 -0.9854
  659MOL0     O88860   3.127   1.537   3.889  0.5226  0.5052 -0.4654
  659MOL0     C88861   3.211   1.639   3.844 -0.7284  0.2400 -0.0858
  659MOL0     C88862   3.174   1.766   3.823 -0.8568  1.4391  0.8455
  659MOL0     C88863   3.269   1.867   3.796 -0.1715  0.7608  0.7071
  659MOL0     C88864   3.400   1.839   3.774 -0.7836 -0.9037 -0.4937
  659MOL0     O88865   3.483   1.941   3.727 -0.2865  0.0935  0.2292
  659MOL0     C88866   3.618   1.949   3.762 -0.3367 -0.2285 -0.4870
  659MOL0     C88867   3.675   2.088   3.733  0.0461  0.0505  0.1026
  659MOL0     C88868   3.585   2.203   3.791  0.1739  0.4123 -0.2371
  659MOL0     C88869   3.482   2.254   3.684  0.3312  1.1885  0.2899
  659MOL0     C88870   3.374   2.348   3.744  0.6347 -0.1940 -0.0830
  659MOL0     C88871   3.452   2.469   3.807  1.0963 -0.9310 -1.3052
  659MOL0     C88872   3.367   2.600   3.810  0.0843 -0.1879 -0.6579
  659MOL0     C88873   3.230   2.578   3.881 -0.3984 -0.8853  1.0332
  659MOL0    Cl88874   3.138   2.733   3.853 -0.1947  0.0985  0.0145
  659MOL0     C88875   3.437   1.706   3.797 -0.1616 -0.0697  0.6928
  659MOL0     C88876   3.346   1.609   3.820  0.6985 -0.3695 -1.1726
  659MOL0     O88877   3.152   1.613   4.100 -0.0983  0.0157  0.5361
  659MOL0     C88878   2.964   1.316   4.008 -0.1696  0.4596  0.1157
  659MOL0     C88879   2.877   1.223   4.065 -0.2307  0.2047 -0.3145
  659MOL0     N88880   2.775   0.627   4.630 -0.1724  0.4800  0.3394
  659MOL0     N88881   2.735   0.501   4.614 -0.0704  0.0088 -0.2573
  659MOL0     C88882   3.317  -0.007   4.443  0.4219 -0.5154 -0.1823
  659MOL0     C88883   3.433  -0.004   4.518  0.6595 -0.0521 -0.3485
  659MOL0     C88884   3.826   0.006   4.687  0.1168 -0.3105  0.4897
  659MOL0     C88885   3.899  -0.112   4.675  0.2430 -0.7302  0.8530
  659MOL0     C88886   4.006  -0.139   4.754  0.5940  0.5409  0.2726
  659MOL0     C88887   4.053  -0.048   4.853 -0.2497 -0.5977  0.0949
  659MOL0     O88888   4.164  -0.059   4.920 -0.2089  0.0773 -0.7511
  659MOL0     C88889   4.250  -0.183   4.911 -0.1417  0.0778 -0.5392
  659MOL0     C88890   4.402  -0.140   4.932  0.3833  0.0503  0.4302
  659MOL0     C88891   4.504  -0.248   4.889 -0.6035  0.5527 -0.3088
  659MOL0     C88892   4.652  -0.199   4.865 -0.5578  1.0914  0.2129
  659MOL0     C88893   4.716  -0.130   4.977  0.3037  0.9887 -0.0823
  659MOL0     C88894   4.779  -0.090   5.072 -1.0426  1.9381 -0.7939
  659MOL0     C88895   3.973   0.063   4.878  0.3992  0.0914 -0.8816
  659MOL0     C88896   3.863   0.094   4.794  0.0414 -0.6035  0.2192
  659MOL0     C88897   3.784   0.223   4.817  1.1272  0.8656  0.2260
  659MOL0     H88898   3.649  -0.150   4.297  1.6567 -0.3700  3.5428
  659MOL0     H88899   3.449  -0.156   4.164  1.3261  2.3872 -1.5944
  659MOL0     H88900   3.046  -0.011   4.321  0.7520 -2.3523 -0.1963
  659MOL0     H88901   3.156   0.123   4.258  0.7612 -0.5337 -1.3175
  659MOL0     H88902   2.985  -0.074   4.103 -1.0200  0.5648  0.7968
  659MOL0     H88903   3.081   0.063   4.037 -0.0629 -1.0148  0.3031
  659MOL0     H88904   2.837   0.091   4.219 -0.6454  1.4966  0.4136
  659MOL0     H88905   2.842   0.111   4.050 -0.8863  2.1359  0.8556
  659MOL0     H88906   3.020   0.290   4.232  1.7082  2.3191 -1.2074
  659MOL0     H88907   2.996   0.304   4.059 -1.3848 -2.1518 -1.6255
  659MOL0     H88908   2.850   0.463   4.178  1.1081 -0.5274 -3.1769
  659MOL0     H88909   2.747   0.349   4.090 -0.4290  1.2694  0.1233
  659MOL0     H88910   2.745   0.214   4.336  2.8239 -0.9221  0.6827
  659MOL0     H88911   2.830   0.358   4.394  0.9015  1.0570 -1.4349
  659MOL0     H88912   2.558   0.302   4.277  0.9743 -0.2806 -2.4152
  659MOL0     H88913   2.614   0.459   4.258  2.5287 -1.0748 -1.2403
  659MOL0     H88914   2.461   0.414   4.441  1.0058  3.0931  0.7170
  659MOL0     H88915   2.567   0.310   4.522 -0.9249 -0.1638  0.5210
  659MOL0     H88916   2.517   0.678   4.445 -0.7798 -1.4059  0.0062
  659MOL0     H88917   2.634   0.920   4.535  0.7033  1.2072 -3.5552
  659MOL0     H88918   2.768   0.872   4.658  0.8969 -0.7599 -0.2457
  659MOL0     H88919   2.918   0.825   4.461  0.4786  0.5840  1.7244
  659MOL0     H88920   2.789   0.847   4.355  1.6572  1.2464 -0.2146
  659MOL0     H88921   2.956   1.043   4.373  1.7554  3.1932  2.6109
  659MOL0     H88922   2.904   1.042   4.540  2.7318  0.5437 -1.1308
  659MOL0     H88923   2.745   1.226   4.443 -3.5281  1.1899 -2.0533
  659MOL0     H88924   2.653   1.082   4.416  0.7509 -2.2193  1.0328
  659MOL0     H88925   2.900   1.327   4.388  0.4358  2.1705  0.7880
  659MOL0     H88926   3.023   1.508   4.282 -0.4427 -0.4241  0.3406
  659MOL0     H88927   3.072   1.787   3.851 -1.7952 -1.0137 -0.4214
  659MOL0     H88928   3.230   1.967   3.779 -1.7061 -0.0377 -0.7054
  659MOL0     H88929   3.641   1.925   3.866  1.0074  1.1425 -0.4320
  659MOL0     H88930   3.677   1.877   3.704 -2.8725 -2.7001 -0.2002
  659MOL0     H88931   3.777   2.089   3.771  0.5916  1.1642 -1.2696
  659MOL0     H88932   3.680   2.110   3.626 -1.1106  2.2664  0.4322
  659MOL0     H88933   3.532   2.168   3.880 -1.6887 -1.7182 -2.0592
  659MOL0     H88934   3.648   2.290   3.812 -1.4768  2.7774 -4.0639
  659MOL0     H88935   3.435   2.168   3.634  1.3502  1.2238 -0.7763
  659MOL0     H88936   3.526   2.315   3.605 -2.5317  0.7170 -1.8384
  659MOL0     H88937   3.310   2.287   3.809  1.2034  0.3211  0.9815
  659MOL0     H88938   3.320   2.381   3.655  0.7621  1.4411  0.4213
  659MOL0     H88939   3.477   2.438   3.909 -1.7708 -0.6948 -0.4517
  659MOL0     H88940   3.545   2.489   3.752  0.9120  1.7144 -0.7443
  659MOL0     H88941   3.352   2.636   3.708  1.6566 -0.7151 -1.0950
  659MOL0     H88942   3.417   2.679   3.865 -0.8179  0.7587 -1.1601
  659MOL0     H88943   3.180   2.500   3.823  1.4336 -1.9756  0.8513
  659MOL0     H88944   3.239   2.554   3.987  0.1626 -1.0124  0.9618
  659MOL0     H88945   3.544   1.690   3.788 -0.1031  1.3970 -2.5416
  659MOL0     H88946   3.379   1.511   3.852  1.4981  0.9048  2.2546
  659MOL0     H88947   2.979   1.305   3.901 -3.2539  2.0598 -0.5890
  659MOL0     H88948   2.850   1.136   4.006  2.0891 -0.9746  0.2430
  659MOL0     H88949   3.226   0.033   4.488 -1.3668 -3.5626 -0.7708
  659MOL0     H88950   3.440   0.023   4.623  1.9372 -1.8397  0.0703
  659MOL0     H88951   3.878  -0.180   4.593 -0.0564  1.2686 -0.8085
  659MOL0     H88952   4.060  -0.229   4.727 -0.9183 -0.0849 -0.8360
  659MOL0     H88953   4.256  -0.241   4.819 -0.2771 -2.6864  1.0936
  659MOL0     H88954   4.211  -0.250   4.988  1.7751 -1.8425 -1.1450
  659MOL0     H88955   4.416  -0.104   5.034 -1.0613  2.6662 -0.2051
  659MOL0     H88956   4.417  -0.054   4.866 -1.7185  2.4469  2.8683
  659MOL0     H88957   4.465  -0.305   4.805 -2.0599 -0.3182  0.9210
  659MOL0     H88958   4.500  -0.314   4.976 -3.1334  1.3982  0.2995
  659MOL0     H88959   4.707  -0.284   4.823 -1.1827  2.5231 -3.9617
  659MOL0     H88960   4.652  -0.121   4.789 -1.4350  1.3500  0.4677
  659MOL0     H88961   4.835  -0.063   5.160  3.0728 -2.5261 -1.6077
  659MOL0     H88962   3.993   0.138   4.954 -2.5869 -1.2008  1.3797
  659MOL0     H88963   3.815   0.291   4.737  3.4307 -0.6184 -0.2292
  659MOL0     H88964   3.677   0.204   4.812  1.2169  0.6266 -1.1642
  659MOL0     H88965   3.810   0.257   4.918 -0.5057 -1.4781  1.5127
  660MOL0     O88966   2.054   3.649   2.038 -0.3796 -0.1068 -0.1092
  660MOL0     C88967   2.084   3.710   2.138  0.3087  0.5494  0.1661
  660MOL0     O88968   2.101   3.663   2.265  0.3169  0.0046  0.0657
  660MOL0     C88969   2.108   3.522   2.289  1.1977  0.1124 -0.5953
  660MOL0     C88970   2.197   3.439   2.216 -0.1541 -1.0822  0.3450
  660MOL0     C88971   2.178   3.307   2.239 -0.0655  0.5926 -0.1091
  660MOL0     C88972   2.092   3.242   2.323 -0.3826 -0.6912 -0.7588
  660MOL0     O88973   2.080   3.106   2.307 -0.1458 -0.5475 -0.2034
  660MOL0     C88974   1.948   3.048   2.316  0.1247  0.7183 -0.6023
  660MOL0     C88975   1.874   3.032   2.173  0.0246 -0.0001 -0.0260
  660MOL0     C88976   1.939   2.935   2.076 -0.1754  0.7173  0.9059
  660MOL0     C88977   2.093   2.929   2.090  0.3231 -0.6391 -0.0029
  660MOL0     C88978   2.165   2.825   1.999  0.4757 -0.1012 -0.7937
  660MOL0     C88979   2.310   2.859   1.981 -0.7307  0.7574  0.3936
  660MOL0     C88980   2.360   2.782   1.853 -0.3845 -0.4509 -0.1231
  660MOL0     C88981   2.508   2.776   1.846  0.2151  0.6032 -0.1841
  660MOL0     N88982   2.545   2.738   1.709 -0.8974  0.4461 -1.1671
  660MOL0     C88983   2.588   2.826   1.613  0.0876  0.3933 -0.1146
  660MOL0     C88984   2.603   2.752   1.501 -0.8137 -0.7553 -0.6003
  660MOL0     C88985   2.639   2.778   1.360  0.3728 -0.2681  0.8145
  660MOL0     C88986   2.532   2.722   1.264 -0.7514  0.4983 -0.3500
  660MOL0     C88987   2.535   2.785   1.130  0.5984 -0.6480  0.1613
  660MOL0     C88988   2.457   2.706   1.039 -0.8850  0.7303  0.4759
  660MOL0     O88989   2.319   2.719   1.090 -0.3752  0.1224 -0.4354
  660MOL0     C88990   2.235   2.613   1.058 -0.1467 -0.1482 -0.6174
  660MOL0     C88991   2.236   2.545   0.939 -0.0020 -0.5044 -0.6496
  660MOL0     C88992   2.150   2.430   0.916  0.0127  0.8694 -0.4920
  660MOL0     C88993   2.057   2.393   1.009 -0.5965  0.8136  0.0331
  660MOL0     C88994   1.959   2.286   0.980 -0.5763 -0.6379  0.1122
  660MOL0     O88995   1.953   2.247   0.848  0.1369  0.1204 -0.0333
  660MOL0     C88996   1.892   2.127   0.824  0.3921 -0.6803 -0.3644
  660MOL0     C88997   1.759   2.102   0.842  0.6503 -0.9870  0.2102
  660MOL0     C88998   1.701   1.982   0.807  0.0352  0.6561 -0.6260
  660MOL0     C88999   1.786   1.873   0.781 -0.4927  0.4967 -0.3405
  660MOL0     O89000   1.742   1.749   0.760  0.0835  0.3540  0.1288
  660MOL0     C89001   1.631   1.696   0.838  0.2350 -0.2972  0.1640
  660MOL0     C89002   1.574   1.573   0.771  0.0655 -0.3490 -0.3379
  660MOL0     C89003   1.445   1.537   0.847  0.3770  0.3458 -0.5096
  660MOL0     C89004   1.428   1.391   0.878 -0.8609  0.3957  1.0924
  660MOL0     C89005   1.341   1.362   1.003 -0.5507 -0.2306  0.0520
  660MOL0     C89006   1.191   1.381   0.998 -0.2664 -0.0206  0.2326
  660MOL0     C89007   1.158   1.531   1.022 -0.2614  0.2748  0.6147
  660MOL0     C89008   1.024   1.562   1.074  0.0881 -0.2778 -0.3961
  660MOL0    Cl89009   0.986   1.739   1.063 -0.4022 -0.4908 -0.2124
  660MOL0     C89010   1.920   1.899   0.778  0.4566  0.2948 -0.5759
  660MOL0     C89011   1.972   2.026   0.793  1.2332 -0.7541  0.7414
  660MOL0     O89012   1.897   2.230   1.070 -0.3114  0.4183  0.5127
  660MOL0     C89013   2.054   2.465   1.129 -1.2606  0.1901 -0.0849
  660MOL0     C89014   2.139   2.576   1.148 -0.3729  0.8720 -0.5997
  660MOL0     N89015   2.579   2.621   1.536  0.0450  0.2856  0.1140
  660MOL0     N89016   2.530   2.612   1.656 -0.1866 -0.7108  0.4198
  660MOL0     C89017   2.026   3.324   2.408  0.7129 -1.7882 -0.1178
  660MOL0     C89018   2.032   3.464   2.394 -0.5013  1.0800 -0.0310
  660MOL0     C89019   2.113   3.848   2.117 -1.0044  0.6541 -0.1953
  660MOL0     C89020   2.236   3.894   2.164 -0.7701  1.0242  0.1457
  660MOL0     C89021   2.281   4.020   2.134  0.3033 -0.4021  0.7172
  660MOL0     C89022   2.203   4.105   2.050  0.4514  0.5019 -1.0436
  660MOL0     O89023   2.246   4.246   2.044 -0.5575 -0.1850 -0.2661
  660MOL0     C89024   2.173   4.342   1.969  0.5953  0.7422 -1.0139
  660MOL0     C89025   2.157   4.316   1.811 -0.2484  0.3994  0.0924
  660MOL0     C89026   2.292   4.249   1.763 -0.0368  0.2331 -0.6563
  660MOL0     C89027   2.329   4.270   1.610  0.3723 -1.3253  0.8193
  660MOL0     C89028   2.262   4.170   1.527 -0.6899 -0.0284 -0.0615
  660MOL0     C89029   2.210   4.091   1.452 -1.0571 -0.2679 -0.0034
  660MOL0     C89030   2.078   4.057   2.015 -0.1890 -0.1501  1.0401
  660MOL0     C89031   2.028   3.928   2.050 -0.4313 -0.2470  0.0852
  660MOL0     C89032   1.885   3.892   1.999  0.2429  1.0172  0.3044
  660MOL0     H89033   2.269   3.476   2.144  1.3523 -0.1111  2.2500
  660MOL0     H89034   2.216   3.246   2.158 -0.6992  2.9538 -2.3279
  660MOL0     H89035   1.959   2.947   2.357 -3.8280  0.3043 -0.1908
  660MOL0     H89036   1.888   3.106   2.386 -1.4520 -1.8645  0.3377
  660MOL0     H89037   1.868   3.131   2.127 -2.1345  0.7041  1.6005
  660MOL0     H89038   1.767   3.012   2.184 -0.6372  3.0522 -0.0100
  660MOL0     H89039   1.918   2.958   1.971 -0.9259 -1.1499  0.6214
  660MOL0     H89040   1.907   2.832   2.091  0.5174  0.0172 -1.8023
  660MOL0     H89041   2.137   3.026   2.065  0.9287 -0.9447 -0.1459
  660MOL0     H89042   2.102   2.898   2.195 -4.3336 -1.5292  0.3674
  660MOL0     H89043   2.144   2.726   2.042 -1.6668  0.2885 -0.8554
  660MOL0     H89044   2.116   2.825   1.902 -2.0524  0.0605  0.3927
  660MOL0     H89045   2.298   2.959   1.938 -1.9290 -0.6232 -2.7982
  660MOL0     H89046   2.379   2.861   2.066  1.5115  3.2360 -1.3035
  660MOL0     H89047   2.313   2.842   1.775 -2.0951 -1.1217  0.3328
  660MOL0     H89048   2.330   2.677   1.840  1.3637 -1.5097  3.2556
  660MOL0     H89049   2.555   2.872   1.871 -0.4859  1.2301 -1.2037
  660MOL0     H89050   2.527   2.699   1.921 -4.9517 -0.4020  0.4961
  660MOL0     H89051   2.578   2.934   1.623 -1.3257  0.1404  1.6776
  660MOL0     H89052   2.641   2.886   1.348 -2.4041 -0.2335 -0.0105
  660MOL0     H89053   2.735   2.733   1.331  0.8297  0.8129  0.6124
  660MOL0     H89054   2.567   2.619   1.254 -4.6362 -1.2039  1.3078
  660MOL0     H89055   2.433   2.724   1.312  1.1098  0.6526  3.9552
  660MOL0     H89056   2.642   2.794   1.107  0.5196 -0.0246  0.0238
  660MOL0     H89057   2.493   2.886   1.135  1.5647 -0.1887 -0.5756
  660MOL0     H89058   2.492   2.602   1.043 -0.5181  0.8683  0.8302
  660MOL0     H89059   2.463   2.758   0.943 -2.4529 -1.1631 -0.7526
  660MOL0     H89060   2.305   2.567   0.858  0.0305 -0.1831 -0.5339
  660MOL0     H89061   2.151   2.371   0.824 -1.6409  0.7234 -0.4501
  660MOL0     H89062   1.696   2.186   0.870 -0.6881 -1.2629 -1.7582
  660MOL0     H89063   1.593   1.972   0.818  0.3804 -1.2082  2.0757
  660MOL0     H89064   1.672   1.680   0.938 -0.8549 -0.0468  0.6674
  660MOL0     H89065   1.548   1.767   0.844 -1.6576 -2.1413 -2.2383
  660MOL0     H89066   1.555   1.589   0.665  4.2039 -0.8149 -1.2942
  660MOL0     H89067   1.654   1.499   0.783  1.7939  1.3280 -0.9963
  660MOL0     H89068   1.445   1.599   0.938  2.1267 -1.3118  0.7216
  660MOL0     H89069   1.354   1.566   0.794  0.6183  0.8665 -0.6520
  660MOL0     H89070   1.530   1.354   0.897 -0.9505 -0.1801  0.4775
  660MOL0     H89071   1.390   1.342   0.788 -3.3853  2.7924  0.7181
  660MOL0     H89072   1.388   1.403   1.093  2.2216 -2.1153 -0.4375
  660MOL0     H89073   1.354   1.255   1.016  1.7680 -0.8430 -4.8795
  660MOL0     H89074   1.162   1.335   0.903  3.2239 -0.6361 -0.6882
  660MOL0     H89075   1.140   1.333   1.082 -1.0544 -0.7004 -0.6083
  660MOL0     H89076   1.162   1.592   0.932  1.2833  0.6316  0.8961
  660MOL0     H89077   1.221   1.583   1.095  0.6550 -0.2063  0.1901
  660MOL0     H89078   0.945   1.512   1.017 -0.8954  0.1446  0.5621
  660MOL0     H89079   1.007   1.539   1.180  2.4063  0.6041  0.2173
  660MOL0     H89080   1.983   1.814   0.749 -2.6381 -1.7905 -1.7035
  660MOL0     H89081   2.068   2.074   0.776 -0.8772  3.7594 -0.0240
  660MOL0     H89082   1.975   2.428   1.193  0.5731 -5.6202 -0.6215
  660MOL0     H89083   2.125   2.624   1.245 -1.0616 -1.6733  0.6491
  660MOL0     H89084   1.978   3.273   2.491  2.3101 -1.5656  0.9823
  660MOL0     H89085   1.973   3.528   2.459 -0.0440  2.6241 -1.1116
  660MOL0     H89086   2.295   3.817   2.212 -2.7988 -0.5526  0.2429
  660MOL0     H89087   2.383   4.035   2.166  1.5611 -0.7752 -2.7141
  660MOL0     H89088   2.225   4.438   1.980  0.4627  0.8871 -1.6213
  660MOL0     H89089   2.074   4.354   2.015 -0.0121 -0.9803 -1.7927
  660MOL0     H89090   2.141   4.415   1.767 -0.0029  0.0854 -0.7114
  660MOL0     H89091   2.082   4.251   1.767 -1.1161  2.5037 -1.7258
  660MOL0     H89092   2.279   4.144   1.787 -1.2455  0.2763 -1.0508
  660MOL0     H89093   2.364   4.309   1.820 -0.9896  0.2219  0.6118
  660MOL0     H89094   2.296   4.371   1.585  1.3963 -1.7184 -2.6932
  660MOL0     H89095   2.438   4.271   1.599  0.2566  0.6816 -0.7676
  660MOL0     H89096   2.153   4.022   1.393 -0.6559  0.5178 -1.3613
  660MOL0     H89097   2.023   4.122   1.948  0.5252 -2.4300 -1.9862
  660MOL0     H89098   1.878   3.873   1.891 -3.6921  2.2522  0.1781
  660MOL0     H89099   1.845   3.804   2.050  0.9146 -0.0923 -1.0247
  660MOL0     H89100   1.820   3.980   2.010 -1.9718 -0.6525  1.4709
  661MOL0     O89101   6.168   1.099  11.221 -0.2293  0.2308  0.8035
  661MOL0     C89102   6.071   1.136  11.155 -0.4525  0.7003 -0.1956
  661MOL0     O89103   5.958   1.188  11.213  0.2668 -0.2584  0.4030
  661MOL0     C89104   5.961   1.199  11.347 -0.0588  1.1776  0.4922
  661MOL0     C89105   6.009   1.317  11.406 -0.7321  0.5878  0.4094
  661MOL0     C89106   6.009   1.324  11.542  0.5134 -0.7587  0.8154
  661MOL0     C89107   5.959   1.224  11.622 -1.0272 -0.5454 -0.4910
  661MOL0     O89108   5.976   1.252  11.755  0.0471  0.5385  0.7657
  661MOL0     C89109   5.913   1.154  11.850  0.1365 -0.2746  1.0924
  661MOL0     C89110   5.756   1.165  11.841  0.7280 -0.0680 -0.5623
  661MOL0     C89111   5.724   1.202  11.980  0.0567 -0.9521  0.4566
  661MOL0     C89112   5.579   1.239  11.989  0.4089  0.2905  0.4934
  661MOL0     C89113   5.541   1.292  12.132 -0.0763  0.1842  0.8368
  661MOL0     C89114   5.552   1.203  12.255 -0.1554 -0.2519 -0.9788
  661MOL0     C89115   5.460   1.087  12.262  1.3865  0.4336 -0.6801
  661MOL0     C89116   5.303   1.110  12.278  0.6048  0.7612  0.3660
  661MOL0     N89117   5.226   1.014  12.197  0.2971  0.5998 -0.9626
  661MOL0     C89118   5.183   1.040  12.072 -0.6167  0.5642  0.3958
  661MOL0     C89119   5.121   0.926  12.035 -1.0318 -0.3435  0.3817
  661MOL0     C89120   5.042   0.908  11.910  0.6296  0.8350  0.3197
  661MOL0     C89121   4.890   0.883  11.940  1.1196 -1.3317 -0.3926
  661MOL0     C89122   4.820   0.933  11.814  0.0266 -0.0422 -0.1386
  661MOL0     C89123   4.832   0.840  11.690  0.0369 -0.0214 -0.7055
  661MOL0     O89124   4.750   0.890  11.591 -1.1372  0.7051 -0.1120
  661MOL0     C89125   4.798   0.986  11.508  0.9400  0.2523  0.6635
  661MOL0     C89126   4.904   1.072  11.534 -0.0608 -0.2634 -0.7485
  661MOL0     C89127   4.932   1.182  11.445  0.3528 -0.6433 -0.6620
  661MOL0     C89128   4.849   1.214  11.338  0.5542  0.1832  0.4653
  661MOL0     C89129   4.872   1.325  11.249 -0.3864 -1.1275 -0.1748
  661MOL0     O89130   4.954   1.421  11.293 -0.3614 -0.5842  0.1646
  661MOL0     C89131   4.967   1.535  11.221  0.5343 -0.2995  0.5917
  661MOL0     C89132   4.946   1.666  11.279  0.5058  0.1783  0.2032
  661MOL0     C89133   4.974   1.786  11.222  0.1030 -0.5934 -0.0733
  661MOL0     C89134   4.999   1.780  11.078  0.4783 -0.7236  0.1700
  661MOL0     O89135   5.012   1.895  10.990 -0.8845  1.0283 -0.1900
  661MOL0     C89136   4.946   2.014  11.015  0.3293 -0.2683  0.4193
  661MOL0     C89137   4.873   2.061  10.885 -0.2746  0.2556  0.2502
  661MOL0     C89138   4.816   1.961  10.778  0.9864 -0.2224 -0.3640
  661MOL0     C89139   4.731   2.015  10.667  0.8254 -0.3686  0.0620
  661MOL0     C89140   4.786   2.149  10.603  0.2209  0.0235  1.4138
  661MOL0     C89141   4.727   2.169  10.457 -0.0082  0.1686 -0.3450
  661MOL0     C89142   4.804   2.278  10.375  0.9061  0.3457  0.5340
  661MOL0     C89143   4.794   2.417  10.431  0.2308  0.1817  0.5565
  661MOL0    Cl89144   4.623   2.478  10.436 -0.0696  0.2957  0.1330
  661MOL0     C89145   5.014   1.651  11.013  0.1531  0.1081 -0.2261
  661MOL0     C89146   5.005   1.530  11.089 -0.9036 -0.1266  0.2562
  661MOL0     O89147   4.798   1.325  11.151 -0.8511 -0.6248 -0.1145
  661MOL0     C89148   4.733   1.121  11.322  0.0071 -0.0348  0.1519
  661MOL0     C89149   4.718   1.010  11.398 -0.6316 -0.0556  0.3312
  661MOL0     N89150   5.137   0.823  12.136  0.3251  0.6359  0.5318
  661MOL0     N89151   5.189   0.882  12.239 -0.8392 -0.0196 -0.3509
  661MOL0     C89152   5.915   1.103  11.558 -0.2754  0.5403  0.1483
  661MOL0     C89153   5.910   1.089  11.418 -0.4136 -0.0947 -0.5773
  661MOL0     C89154   6.074   1.134  11.010  0.9084  1.1248 -0.2144
  661MOL0     C89155   5.969   1.196  10.944  0.1016 -0.8370 -0.2821
  661MOL0     C89156   5.960   1.204  10.805  0.1520  0.7625  0.0122
  661MOL0     C89157   6.064   1.161  10.723 -1.0988 -0.3927  0.5497
  661MOL0     O89158   6.052   1.193  10.593 -1.0517  0.1518 -0.3399
  661MOL0     C89159   6.179   1.212  10.513 -0.4602 -0.5519 -0.4687
  661MOL0     C89160   6.224   1.085  10.438 -0.0393  0.4967 -0.8159
  661MOL0     C89161   6.383   1.085  10.419 -0.2612 -0.1817  0.5715
  661MOL0     C89162   6.414   1.168  10.299  0.9508 -0.1601 -0.1867
  661MOL0     C89163   6.556   1.178  10.274 -0.7037 -0.2327 -0.0839
  661MOL0     C89164   6.672   1.196  10.252 -0.8482 -1.3066  0.6637
  661MOL0     C89165   6.181   1.110  10.790 -0.7256 -0.5992  0.2525
  661MOL0     C89166   6.185   1.096  10.927  1.2051  0.5983 -0.8340
  661MOL0     C89167   6.308   1.035  10.991  0.5519  0.1704  0.1667
  661MOL0     H89168   6.046   1.397  11.342 -1.5608  0.0723 -0.7402
  661MOL0     H89169   6.054   1.415  11.581 -0.4637 -0.8677  2.2951
  661MOL0     H89170   5.937   1.048  11.836 -3.4074 -0.8286 -2.7393
  661MOL0     H89171   5.936   1.195  11.949 -1.2037  2.3593  0.3897
  661MOL0     H89172   5.718   1.064  11.823  1.7102 -0.6781  0.6066
  661MOL0     H89173   5.734   1.237  11.763  5.3952  0.5327 -1.6376
  661MOL0     H89174   5.774   1.294  12.012 -1.9602 -0.4082  2.2352
  661MOL0     H89175   5.746   1.126  12.055 -0.7996 -0.2277  1.4611
  661MOL0     H89176   5.553   1.312  11.912 -0.0865  0.0576  0.4334
  661MOL0     H89177   5.516   1.154  11.958  2.0808 -0.1500 -2.0386
  661MOL0     H89178   5.603   1.381  12.143  0.2250 -0.1151  1.6141
  661MOL0     H89179   5.442   1.338  12.130 -0.7634 -1.2534  0.4824
  661MOL0     H89180   5.655   1.175  12.277  0.2949  2.5990  1.0890
  661MOL0     H89181   5.530   1.268  12.341  0.0709  1.0046 -1.8507
  661MOL0     H89182   5.497   1.042  12.354  1.3232  2.0016  0.1451
  661MOL0     H89183   5.482   1.019  12.179  6.0628  1.4188 -0.5259
  661MOL0     H89184   5.289   1.092  12.385 -1.0334  1.0627  0.2253
  661MOL0     H89185   5.275   1.213  12.257  2.7953  1.1609 -0.9587
  661MOL0     H89186   5.197   1.131  12.014 -0.6082 -0.4305 -1.2543
  661MOL0     H89187   5.058   0.992  11.842  2.0726  0.7939  0.5819
  661MOL0     H89188   5.089   0.823  11.860 -0.1322  0.9817 -0.6773
  661MOL0     H89189   4.873   0.776  11.959 -0.1098 -0.8960  1.1403
  661MOL0     H89190   4.864   0.928  12.036 -0.6970 -3.2319  0.0833
  661MOL0     H89191   4.841   1.039  11.793 -1.3683 -0.1587 -2.4006
  661MOL0     H89192   4.715   0.921  11.839 -0.0531  1.9979  0.7492
  661MOL0     H89193   4.809   0.737  11.719 -0.5426  0.5267  0.8854
  661MOL0     H89194   4.934   0.848  11.651 -0.6806  2.9167 -2.2541
  661MOL0     H89195   4.970   1.057  11.619  1.3144 -1.4250 -1.9879
  661MOL0     H89196   5.016   1.247  11.470 -1.3251  1.5282 -0.3791
  661MOL0     H89197   4.907   1.678  11.380 -0.6788 -1.0861 -0.0713
  661MOL0     H89198   4.959   1.884  11.264  1.4933 -0.8466  1.1042
  661MOL0     H89199   4.871   2.007  11.095  0.8907 -0.5108  0.9359
  661MOL0     H89200   5.033   2.075  11.044  0.6236 -1.3282  1.9038
  661MOL0     H89201   4.786   2.111  10.930 -0.8581  0.1625 -0.7417
  661MOL0     H89202   4.934   2.140  10.840 -0.2691  0.6809  0.9921
  661MOL0     H89203   4.907   1.917  10.737  1.8416  0.3781  0.8577
  661MOL0     H89204   4.761   1.879  10.825 -2.4786  1.5064 -1.0560
  661MOL0     H89205   4.626   2.035  10.689  1.0890 -0.2643  1.3004
  661MOL0     H89206   4.720   1.927  10.603  0.6832  0.4052 -1.0137
  661MOL0     H89207   4.894   2.147  10.586 -0.1369  0.4522 -1.4284
  661MOL0     H89208   4.770   2.233  10.671  3.8544 -0.8064  3.5640
  661MOL0     H89209   4.730   2.079  10.395 -2.1357 -1.1852  1.3581
  661MOL0     H89210   4.621   2.197  10.454  0.3161  1.4461 -3.0669
  661MOL0     H89211   4.762   2.280  10.274  0.9250  1.8833  0.5214
  661MOL0     H89212   4.908   2.247  10.373  0.5055 -1.0928 -2.4640
  661MOL0     H89213   4.838   2.414  10.531  2.0390  1.4178 -0.1477
  661MOL0     H89214   4.845   2.495  10.373 -1.8817  1.9116  0.8783
  661MOL0     H89215   5.054   1.650  10.912  1.2454  3.3827  0.0440
  661MOL0     H89216   5.031   1.434  11.044  2.6776  0.4853  0.7594
  661MOL0     H89217   4.656   1.148  11.251 -0.9561  1.4117  1.6683
  661MOL0     H89218   4.638   0.939  11.381  0.1944 -0.4959 -2.0876
  661MOL0     H89219   5.874   1.019  11.612 -0.2241  1.0467  0.9840
  661MOL0     H89220   5.878   1.004  11.359 -1.8120  1.0349 -1.5272
  661MOL0     H89221   5.883   1.236  10.996  0.2459 -1.3162  0.3478
  661MOL0     H89222   5.875   1.250  10.756  0.3807  3.2196  1.7428
  661MOL0     H89223   6.256   1.250  10.581  0.2209 -0.6962 -1.1397
  661MOL0     H89224   6.178   1.294  10.440  0.9297  0.3892  0.4980
  661MOL0     H89225   6.172   1.075  10.342 -0.8227  1.1809 -0.4783
  661MOL0     H89226   6.210   1.003  10.509  1.2222  2.5149  1.9528
  661MOL0     H89227   6.415   0.981  10.406  1.3466  0.1575  1.5019
  661MOL0     H89228   6.438   1.121  10.507 -1.2024 -1.0501  1.5367
  661MOL0     H89229   6.366   1.125  10.210  1.0128 -0.7918  0.0819
  661MOL0     H89230   6.389   1.271  10.322  1.5790  0.3613 -1.7084
  661MOL0     H89231   6.777   1.210  10.236 -1.3736  0.3815 -1.8568
  661MOL0     H89232   6.271   1.087  10.734 -2.0464 -0.3280 -2.1012
  661MOL0     H89233   6.265   0.949  11.043  2.0363 -1.2724 -0.8701
  661MOL0     H89234   6.374   0.995  10.913 -0.4712  0.4804 -0.8781
  661MOL0     H89235   6.368   1.098  11.057  0.1931 -0.6836  1.3334
  662MOL0     O89236   7.535   7.559  11.273  0.0528  0.9380 -0.2857
  662MOL0     C89237   7.494   7.503  11.171 -1.4380 -0.1955 -0.0365
  662MOL0     O89238   7.368   7.441  11.159  0.0493 -0.6471  0.4491
  662MOL0     C89239   7.315   7.395  11.279 -0.4229 -0.0221  0.7296
  662MOL0     C89240   7.390   7.314  11.367  0.0146 -0.0615 -0.6080
  662MOL0     C89241   7.325   7.257  11.485  0.5519 -0.6970  1.3243
  662MOL0     C89242   7.199   7.302  11.521  0.1937  0.2391  0.1374
  662MOL0     O89243   7.132   7.255  11.633  0.7495  0.4019 -0.2451
  662MOL0     C89244   7.111   7.112  11.638 -0.3653  0.5242  0.1688
  662MOL0     C89245   7.052   7.057  11.760 -0.4155 -0.9895 -0.5605
  662MOL0     C89246   6.910   7.016  11.756 -0.0905 -0.6392  0.5861
  662MOL0     C89247   6.855   7.010  11.901 -0.3918 -0.2003 -0.6170
  662MOL0     C89248   6.711   6.953  11.904 -0.5373 -0.2223  0.7250
  662MOL0     C89249   6.639   6.955  12.047 -0.7004 -0.2256  0.6603
  662MOL0     C89250   6.714   6.879  12.144  0.4878 -0.8100 -0.3849
  662MOL0     C89251   6.649   6.880  12.292  0.2040  0.6007 -0.3434
  662MOL0     N89252   6.522   6.804  12.294  0.2829 -0.2246  0.9053
  662MOL0     C89253   6.513   6.681  12.346 -0.4366 -0.4288  0.4386
  662MOL0     C89254   6.388   6.665  12.374  1.3917 -0.1526 -0.0402
  662MOL0     C89255   6.323   6.546  12.441 -0.2211 -0.7933 -0.4952
  662MOL0     C89256   6.319   6.572  12.595 -0.2142 -0.6254  0.4600
  662MOL0     C89257   6.301   6.437  12.668  0.3165 -0.5084  0.1971
  662MOL0     C89258   6.165   6.366  12.626 -0.1993  0.3700 -0.2748
  662MOL0     O89259   6.059   6.457  12.661 -0.0321 -0.2671 -0.3737
  662MOL0     C89260   5.933   6.420  12.621  0.4444 -0.5768  0.0708
  662MOL0     C89261   5.855   6.524  12.585  0.5632  0.5515 -0.0380
  662MOL0     C89262   5.723   6.500  12.549 -0.5242  0.0883  0.3179
  662MOL0     C89263   5.663   6.367  12.565 -0.3417 -0.1865 -0.6001
  662MOL0     C89264   5.525   6.340  12.518 -0.4958  0.7724  0.0717
  662MOL0     O89265   5.452   6.455  12.492 -1.6291 -0.0279  0.9293
  662MOL0     C89266   5.324   6.440  12.437  0.2850  0.0101  0.2486
  662MOL0     C89267   5.211   6.407  12.516 -0.8360 -0.9948  0.3931
  662MOL0     C89268   5.085   6.410  12.471  0.1872  0.2549  0.5055
  662MOL0     C89269   5.064   6.404  12.333 -0.0180 -0.3338 -0.4909
  662MOL0     O89270   4.935   6.400  12.289  0.8890  0.3032 -0.1093
  662MOL0     C89271   4.917   6.350  12.158 -0.3959 -0.1229  0.1028
  662MOL0     C89272   4.770   6.364  12.122  0.2408  0.0074  0.1328
  662MOL0     C89273   4.737   6.313  11.984 -0.5264 -0.0125  0.1748
  662MOL0     C89274   4.595   6.347  11.933  0.6002  0.6054  0.0613
  662MOL0     C89275   4.547   6.249  11.821 -0.7122 -0.1101 -0.7588
  662MOL0     C89276   4.629   6.262  11.691  0.1525 -0.3910 -0.1525
  662MOL0     C89277   4.587   6.164  11.589  1.0837  0.3520  0.0826
  662MOL0     C89278   4.692   6.112  11.494  0.3259  0.2327 -0.2720
  662MOL0    Cl89279   4.646   5.959  11.421  0.4045 -0.1229  0.3864
  662MOL0     C89280   5.180   6.430  12.255 -0.5184 -0.4613  0.4514
  662MOL0     C89281   5.309   6.469  12.307  0.3739  0.3940  0.7150
  662MOL0     O89282   5.494   6.219  12.502  0.3683  0.1737  0.1469
  662MOL0     C89283   5.740   6.270  12.620 -1.3331  0.3605 -0.6703
  662MOL0     C89284   5.870   6.301  12.650 -0.0277  0.3124 -0.5039
  662MOL0     N89285   6.322   6.778  12.331 -0.3655  0.0838 -0.3778
  662MOL0     N89286   6.400   6.865  12.286  0.2848  0.3312  0.0583
  662MOL0     C89287   7.126   7.374  11.422  0.2469 -0.7246  0.3598
  662MOL0     C89288   7.183   7.423  11.305  0.1887  0.6297  0.1098
  662MOL0     C89289   7.578   7.510  11.050 -0.0559  0.0952  0.2704
  662MOL0     C89290   7.528   7.430  10.936  0.2022 -0.0649 -0.2666
  662MOL0     C89291   7.593   7.429  10.815  0.1435  0.1422  0.2837
  662MOL0     C89292   7.713   7.491  10.800 -0.2167 -0.2650  0.7574
  662MOL0     O89293   7.775   7.481  10.678 -0.2309 -0.8566  0.4099
  662MOL0     C89294   7.739   7.581  10.587  0.3036  0.5448  0.1554
  662MOL0     C89295   7.850   7.617  10.484 -0.2909  0.3803  0.9723
  662MOL0     C89296   7.967   7.686  10.546  0.5039 -1.0007 -0.1772
  662MOL0     C89297   8.050   7.771  10.445  0.2673  0.5756 -0.4448
  662MOL0     C89298   8.164   7.849  10.496 -0.0929  0.1074 -0.7957
  662MOL0     C89299   8.257   7.914  10.551  0.3531 -0.0099 -0.2355
  662MOL0     C89300   7.760   7.567  10.901  0.7112 -0.1245 -1.3133
  662MOL0     C89301   7.696   7.576  11.027 -0.2619 -0.5831 -0.6361
  662MOL0     C89302   7.772   7.663  11.129  0.4443 -0.3593 -0.1023
  662MOL0     H89303   7.490   7.277  11.348 -0.3867 -2.2531  1.1674
  662MOL0     H89304   7.379   7.187  11.548  0.4920 -1.1417  0.8923
  662MOL0     H89305   7.053   7.084  11.550 -0.1568  3.1387 -0.8819
  662MOL0     H89306   7.208   7.064  11.619 -0.9912 -0.6240 -0.1743
  662MOL0     H89307   7.064   7.104  11.858  0.7106 -1.1899 -0.5844
  662MOL0     H89308   7.107   6.965  11.782  0.4268 -0.4412 -0.3329
  662MOL0     H89309   6.904   6.918  11.708  1.7627 -0.2196 -0.6490
  662MOL0     H89310   6.851   7.095  11.707 -0.0534 -1.9732 -1.7755
  662MOL0     H89311   6.922   6.933  11.939  0.6685  1.3586  0.8246
  662MOL0     H89312   6.879   7.100  11.959 -0.4453  0.9030 -2.2208
  662MOL0     H89313   6.647   7.018  11.842 -0.3413  0.5520  1.3177
  662MOL0     H89314   6.715   6.851  11.866  0.8813  0.2874 -0.6052
  662MOL0     H89315   6.635   7.059  12.081 -0.3430 -0.0918  0.3027
  662MOL0     H89316   6.533   6.929  12.047 -0.2891 -2.0709 -0.5818
  662MOL0     H89317   6.820   6.908  12.140 -0.0313  1.5080  1.0460
  662MOL0     H89318   6.703   6.776  12.108 -0.6187 -1.2472  1.0994
  662MOL0     H89319   6.718   6.839  12.366 -0.3067 -1.9991 -1.2040
  662MOL0     H89320   6.640   6.984  12.324  3.0703  1.1046 -0.9177
  662MOL0     H89321   6.591   6.608  12.367  0.5623  0.5235  0.1142
  662MOL0     H89322   6.217   6.534  12.413  0.0336 -1.7329 -1.1168
  662MOL0     H89323   6.368   6.450  12.415 -0.2222 -1.8108  2.8112
  662MOL0     H89324   6.409   6.620  12.633  0.5801 -0.4092 -1.5933
  662MOL0     H89325   6.245   6.650  12.619  0.1567 -0.2323  0.3427
  662MOL0     H89326   6.312   6.445  12.777  2.0855 -1.3627  0.1099
  662MOL0     H89327   6.369   6.363  12.627  0.7280 -0.8144  1.3835
  662MOL0     H89328   6.162   6.269  12.677  2.8137 -1.2785 -2.8474
  662MOL0     H89329   6.166   6.345  12.519  0.6556  1.7828 -0.5719
  662MOL0     H89330   5.905   6.620  12.586 -1.7869  1.8536  1.4774
  662MOL0     H89331   5.670   6.577  12.494 -1.0129 -1.0487 -0.8567
  662MOL0     H89332   5.233   6.384  12.620  0.8480  1.2900  0.6193
  662MOL0     H89333   5.004   6.395  12.543 -0.0856  3.5707  1.0388
  662MOL0     H89334   4.966   6.409  12.080 -0.2123 -1.7865 -1.0989
  662MOL0     H89335   4.956   6.248  12.148  1.0803  0.5847 -2.1631
  662MOL0     H89336   4.717   6.298  12.191  1.4081 -3.2642 -1.9079
  662MOL0     H89337   4.746   6.471  12.127 -0.5774 -0.2055  1.8390
  662MOL0     H89338   4.800   6.358  11.907 -0.8231  3.9158  1.9920
  662MOL0     H89339   4.749   6.204  11.991  3.0318  0.2252 -0.2213
  662MOL0     H89340   4.598   6.444  11.884 -1.4661  0.1655 -1.0604
  662MOL0     H89341   4.529   6.338  12.020 -0.4709 -0.7719 -0.8475
  662MOL0     H89342   4.443   6.273  11.799 -0.5374  1.7139  0.2776
  662MOL0     H89343   4.542   6.146  11.857 -1.3663  0.5084  0.9678
  662MOL0     H89344   4.619   6.357  11.639  2.2728 -1.5043 -2.8137
  662MOL0     H89345   4.734   6.249  11.718 -0.0508  2.9377  3.1056
  662MOL0     H89346   4.506   6.202  11.526 -0.4584  0.2981  1.9642
  662MOL0     H89347   4.561   6.081  11.655  0.6129 -0.1400 -0.7043
  662MOL0     H89348   4.711   6.182  11.412  1.6106  0.0080 -0.1840
  662MOL0     H89349   4.785   6.108  11.551  1.0999 -1.7558 -1.5814
  662MOL0     H89350   5.173   6.417  12.147 -1.4327 -2.2546  0.6895
  662MOL0     H89351   5.390   6.500  12.241 -1.2851  1.1551 -1.0366
  662MOL0     H89352   5.711   6.165  12.623 -1.3228  0.3023 -2.0743
  662MOL0     H89353   5.932   6.227  12.701 -1.7278  0.7069  2.3697
  662MOL0     H89354   7.025   7.407  11.444  0.6447  1.5302 -0.8724
  662MOL0     H89355   7.116   7.471  11.234 -2.1973  1.4412  2.7233
  662MOL0     H89356   7.447   7.360  10.950  0.9164 -1.3972 -2.3657
  662MOL0     H89357   7.556   7.374  10.730 -3.3936  2.3245  0.2284
  662MOL0     H89358   7.720   7.670  10.648  0.7972  0.4020  0.5280
  662MOL0     H89359   7.654   7.556  10.522  0.7886  2.9294 -1.5460
  662MOL0     H89360   7.810   7.676  10.401 -2.5514  1.7221  2.8720
  662MOL0     H89361   7.890   7.523  10.445 -0.2730  0.6886  0.2450
  662MOL0     H89362   8.029   7.605  10.584 -1.1944 -2.3630 -0.1852
  662MOL0     H89363   7.931   7.746  10.630 -1.3095  0.4436 -1.8575
  662MOL0     H89364   8.101   7.705  10.374  1.0599 -0.3498  0.9336
  662MOL0     H89365   7.991   7.842  10.387  2.9429  2.8731 -0.5580
  662MOL0     H89366   8.348   7.955  10.589 -1.0960  0.3854  3.1657
  662MOL0     H89367   7.850   7.624  10.884 -0.2211  1.5601 -0.9269
  662MOL0     H89368   7.690   7.725  11.167  0.2787  1.0927 -2.5695
  662MOL0     H89369   7.827   7.600  11.199  4.5439  1.7472 -1.1117
  662MOL0     H89370   7.853   7.728  11.093  1.4914 -0.1404  2.4241
  663MOL0     O89371   5.661   1.424  10.858  0.0016  0.5294 -0.6829
  663MOL0     C89372   5.634   1.539  10.890 -0.7012  0.1036 -0.3016
  663MOL0     O89373   5.555   1.627  10.817 -0.2642 -0.3386 -0.4723
  663MOL0     C89374   5.472   1.564  10.726  0.4061  0.0815 -0.1757
  663MOL0     C89375   5.368   1.480  10.773  0.2168  0.0880 -0.1259
  663MOL0     C89376   5.284   1.413  10.691  0.7291  0.5363 -1.2438
  663MOL0     C89377   5.289   1.440  10.557 -0.1987 -0.3165  0.9052
  663MOL0     O89378   5.185   1.382  10.488  0.4101  0.4985 -0.2855
  663MOL0     C89379   5.181   1.399  10.346 -0.2117  0.0394 -0.6877
  663MOL0     C89380   5.092   1.300  10.267 -0.1353 -0.2174 -0.1926
  663MOL0     C89381   5.069   1.172  10.348 -0.3047 -0.5700 -0.0831
  663MOL0     C89382   5.010   1.053  10.259 -0.3713 -0.6643  0.4967
  663MOL0     C89383   4.995   0.924  10.345 -0.2417  0.3571 -0.3672
  663MOL0     C89384   4.944   0.801  10.263 -0.6445  0.2935 -0.3871
  663MOL0     C89385   4.917   0.670  10.344 -0.1227  0.1635 -0.8542
  663MOL0     C89386   4.780   0.666  10.386 -0.2164  0.4471 -0.4478
  663MOL0     N89387   4.757   0.552  10.469  0.3213 -0.2879  0.9453
  663MOL0     C89388   4.735   0.420  10.422 -0.0983  0.5664 -0.7521
  663MOL0     C89389   4.693   0.344  10.526  0.8857 -0.6540 -0.0925
  663MOL0     C89390   4.651   0.198  10.520 -0.5916 -0.0563 -0.5682
  663MOL0     C89391   4.500   0.182  10.576  0.3035 -0.2430 -0.7248
  663MOL0     C89392   4.396   0.265  10.493 -0.5811 -0.4168 -0.1146
  663MOL0     C89393   4.254   0.244  10.544 -0.2904 -0.4484 -0.1956
  663MOL0     O89394   4.209   0.105  10.532 -0.3437 -0.0358 -0.8382
  663MOL0     C89395   4.189   0.064  10.408  0.7717  0.3763 -0.3612
  663MOL0     C89396   4.093   0.124  10.324 -1.4188 -0.3682 -0.3904
  663MOL0     C89397   4.075   0.081  10.188 -0.2648  0.3512 -0.4376
  663MOL0     C89398   4.150  -0.038  10.149 -0.1980  0.4967 -0.0666
  663MOL0     C89399   4.130  -0.089  10.013  0.3038 -0.9496  0.0103
  663MOL0     O89400   4.035  -0.025   9.938  0.1000 -0.0170 -0.6806
  663MOL0     C89401   4.040  -0.053   9.807  0.6087  0.0459 -1.0188
  663MOL0     C89402   3.975  -0.166   9.759 -0.3525  0.0560 -0.3071
  663MOL0     C89403   3.981  -0.206   9.621  0.5049 -0.8383 -0.4928
  663MOL0     C89404   4.050  -0.122   9.536 -0.3183 -0.2977  0.3609
  663MOL0     O89405   4.035  -0.160   9.405  0.2633 -0.3659  0.7228
  663MOL0     C89406   4.119  -0.096   9.308  0.6140 -0.2602 -0.5431
  663MOL0     C89407   4.073  -0.158   9.178 -0.8689 -0.0025  0.5167
  663MOL0     C89408   4.138  -0.296   9.164 -0.8621 -0.0383 -0.1550
  663MOL0     C89409   4.104  -0.358   9.034 -1.0201  0.5917  1.3904
  663MOL0     C89410   4.214  -0.342   8.922  0.5296  0.1957 -0.0283
  663MOL0     C89411   4.361  -0.373   8.940  0.4433  0.4710  1.0916
  663MOL0     C89412   4.448  -0.334   8.819  0.6371 -0.0967 -0.6917
  663MOL0     C89413   4.574  -0.421   8.836 -0.4671  0.3107 -0.2467
  663MOL0    Cl89414   4.709  -0.341   8.758 -0.0992 -0.1422 -0.2739
  663MOL0     C89415   4.111  -0.005   9.581  0.9031 -0.2404  0.3665
  663MOL0     C89416   4.102   0.031   9.718  0.3878 -0.3360 -0.4442
  663MOL0     O89417   4.215  -0.172   9.973  0.3681 -0.5171 -0.3776
  663MOL0     C89418   4.242  -0.097  10.234  0.2129 -0.4411 -0.3635
  663MOL0     C89419   4.264  -0.038  10.361  0.0951  0.5142 -0.2167
  663MOL0     N89420   4.692   0.428  10.639  0.5567 -0.7564  0.4377
  663MOL0     N89421   4.729   0.546  10.604 -0.0505 -0.4171 -1.0312
  663MOL0     C89422   5.394   1.522  10.504  0.5136  0.3371  0.3887
  663MOL0     C89423   5.484   1.576  10.593 -1.1038 -0.5227 -0.8442
  663MOL0     C89424   5.670   1.566  11.028  0.2759 -0.1403 -0.0905
  663MOL0     C89425   5.704   1.463  11.120 -0.0741 -0.3583  0.4724
  663MOL0     C89426   5.752   1.488  11.246  0.6772 -0.4195 -0.4920
  663MOL0     C89427   5.771   1.620  11.283 -0.1854  0.3189  0.1939
  663MOL0     O89428   5.863   1.626  11.390 -0.1972 -0.3565  0.7230
  663MOL0     C89429   5.860   1.744  11.473  0.0402 -0.6004  0.8862
  663MOL0     C89430   5.726   1.766  11.534  0.4423  0.1268  0.2917
  663MOL0     C89431   5.697   1.675  11.654  0.3805 -1.0823  0.1494
  663MOL0     C89432   5.574   1.724  11.752  0.2214  0.0545  0.5238
  663MOL0     C89433   5.617   1.846  11.833 -0.2050  0.0499 -0.6946
  663MOL0     C89434   5.658   1.947  11.884 -1.0633 -0.2270  0.0991
  663MOL0     C89435   5.724   1.730  11.207  0.0974  0.3343  0.1677
  663MOL0     C89436   5.687   1.698  11.074  0.7056  0.1970  1.0493
  663MOL0     C89437   5.668   1.821  10.983  0.4124 -0.3094  0.3376
  663MOL0     H89438   5.366   1.476  10.881 -1.4880 -2.0657 -0.1601
  663MOL0     H89439   5.204   1.355  10.735  0.6365  0.3290 -1.6759
  663MOL0     H89440   5.145   1.503  10.339 -0.0341  0.0876 -0.8992
  663MOL0     H89441   5.283   1.392  10.306 -0.9526  1.3309 -3.0426
  663MOL0     H89442   5.135   1.291  10.167 -0.8159  6.4747 -1.5733
  663MOL0     H89443   4.999   1.357  10.255  0.5111  0.8872 -0.0695
  663MOL0     H89444   4.993   1.195  10.423 -1.8331  3.6654 -2.5853
  663MOL0     H89445   5.157   1.142  10.406 -0.1813  1.8722  1.1302
  663MOL0     H89446   4.918   1.077  10.204  1.7140  4.4920 -1.4179
  663MOL0     H89447   5.086   1.044  10.181 -2.5403 -0.3946 -1.7779
  663MOL0     H89448   5.093   0.897  10.385  0.5747  0.2307 -2.3746
  663MOL0     H89449   4.920   0.943  10.423  1.7084  1.3911  1.3459
  663MOL0     H89450   4.846   0.816  10.216 -1.3817 -0.0369  0.9951
  663MOL0     H89451   5.020   0.784  10.185 -0.4476 -0.3137 -0.0660
  663MOL0     H89452   4.974   0.656  10.436  1.8204 -2.2121 -2.3236
  663MOL0     H89453   4.948   0.589  10.278  1.8729  2.2750 -2.6991
  663MOL0     H89454   4.757   0.760  10.437  2.1454 -0.2347  2.0910
  663MOL0     H89455   4.726   0.651  10.292  1.5523 -1.9982 -1.1640
  663MOL0     H89456   4.732   0.379  10.321 -0.9099  1.0917 -0.9558
  663MOL0     H89457   4.650   0.176  10.413 -3.4782  1.2845 -0.9070
  663MOL0     H89458   4.721   0.136  10.577 -1.5907  0.2562  1.0657
  663MOL0     H89459   4.479   0.076  10.560  3.3530 -1.3512  1.7156
  663MOL0     H89460   4.491   0.203  10.683 -1.8082 -1.7826 -0.5271
  663MOL0     H89461   4.399   0.259  10.383  1.5594 -0.7325 -0.0632
  663MOL0     H89462   4.413   0.370  10.517 -4.5651  0.0682  1.4566
  663MOL0     H89463   4.189   0.318  10.497 -1.1032  1.2235  3.2392
  663MOL0     H89464   4.247   0.280  10.647 -0.5116 -0.6247 -0.1485
  663MOL0     H89465   4.037   0.210  10.360 -2.8643 -1.2096 -0.5304
  663MOL0     H89466   4.000   0.139  10.135 -0.2340 -0.3419 -1.2644
  663MOL0     H89467   3.909  -0.213   9.831  0.2490  0.1447  0.3225
  663MOL0     H89468   3.935  -0.298   9.587  2.9291 -1.4185 -2.4958
  663MOL0     H89469   4.106   0.012   9.303 -1.1304 -0.2719  1.8906
  663MOL0     H89470   4.228  -0.106   9.318  0.3614 -1.6238  1.3151
  663MOL0     H89471   3.965  -0.171   9.176 -0.8726 -0.4725  2.1373
  663MOL0     H89472   4.107  -0.096   9.094 -3.0663 -0.2784 -0.6414
  663MOL0     H89473   4.247  -0.285   9.165 -0.9422  2.9101 -3.7228
  663MOL0     H89474   4.108  -0.368   9.240  1.1576 -2.1245 -1.2237
  663MOL0     H89475   4.015  -0.316   8.987  0.2763  0.8733 -0.9360
  663MOL0     H89476   4.101  -0.467   9.039  4.8232 -0.3152 -3.4458
  663MOL0     H89477   4.200  -0.239   8.887 -2.3174  0.1126  0.5591
  663MOL0     H89478   4.180  -0.412   8.846  0.0740  0.3075  0.0662
  663MOL0     H89479   4.395  -0.305   9.019 -4.0906  1.6177  2.3545
  663MOL0     H89480   4.376  -0.479   8.961  1.2748 -0.0603 -1.7971
  663MOL0     H89481   4.470  -0.227   8.830 -0.1780  0.1278 -1.1337
  663MOL0     H89482   4.398  -0.359   8.725 -4.9293  1.1966  1.4732
  663MOL0     H89483   4.609  -0.445   8.936  1.2821  0.3428 -0.8020
  663MOL0     H89484   4.561  -0.520   8.790  1.2373  1.5727 -3.9258
  663MOL0     H89485   4.157   0.071   9.518 -2.2832  1.2173 -0.4151
  663MOL0     H89486   4.152   0.122   9.747 -2.4076  0.8873  0.9770
  663MOL0     H89487   4.302  -0.182  10.203 -0.8343 -0.5802 -2.1523
  663MOL0     H89488   4.331  -0.088  10.431 -3.9552 -0.5639  3.3142
  663MOL0     H89489   5.395   1.552  10.399 -1.9680  0.9148  0.4551
  663MOL0     H89490   5.555   1.651  10.561 -3.5751  2.5276  0.2123
  663MOL0     H89491   5.710   1.361  11.084  1.4411 -0.0826 -0.1665
  663MOL0     H89492   5.800   1.410  11.304  1.1440  1.7002  2.2130
  663MOL0     H89493   5.880   1.835  11.417  0.3925 -1.1520  0.0846
  663MOL0     H89494   5.939   1.738  11.549  0.8937 -1.9726 -0.0474
  663MOL0     H89495   5.664   1.742  11.447  3.2098 -1.8359 -1.2986
  663MOL0     H89496   5.711   1.871  11.559 -0.4565  0.7606 -2.5510
  663MOL0     H89497   5.786   1.665  11.718 -0.4912 -0.5472  1.4904
  663MOL0     H89498   5.676   1.576  11.613  1.3795 -1.6517  0.9373
  663MOL0     H89499   5.491   1.741  11.682  1.4342 -2.0400 -1.5880
  663MOL0     H89500   5.544   1.637  11.811  0.4297 -1.2144 -1.1616
  663MOL0     H89501   5.680   2.043  11.927 -0.3033  0.6639 -2.1462
  663MOL0     H89502   5.738   1.833  11.238 -0.5904  0.0904  1.3874
  663MOL0     H89503   5.567   1.830  10.941  0.2462  1.3054  1.0054
  663MOL0     H89504   5.692   1.911  11.039  0.4352 -0.0333 -0.1150
  663MOL0     H89505   5.719   1.814  10.887 -3.2461 -1.5966 -1.6961
  664MOL0     O89506   1.432   6.601   8.963  0.0759 -0.7869  0.3535
  664MOL0     C89507   1.423   6.484   8.919  0.1692 -0.4637  0.5392
  664MOL0     O89508   1.484   6.436   8.808  0.0908  0.6994  0.4124
  664MOL0     C89509   1.591   6.509   8.754 -0.7225 -1.2831 -0.2551
  664MOL0     C89510   1.727   6.492   8.790 -0.5011  0.1775  0.1057
  664MOL0     C89511   1.827   6.574   8.732 -0.3508 -0.0246  0.0112
  664MOL0     C89512   1.797   6.657   8.628 -0.7808 -1.1267 -0.2305
  664MOL0     O89513   1.879   6.754   8.569  0.1516  0.3347 -0.6617
  664MOL0     C89514   2.009   6.769   8.620 -0.4943 -0.4625  0.9715
  664MOL0     C89515   2.098   6.834   8.510  0.6114 -0.5971  0.9392
  664MOL0     C89516   2.245   6.869   8.543 -0.4824  0.2639  0.1397
  664MOL0     C89517   2.326   6.755   8.611  1.6983 -0.6438 -0.2122
  664MOL0     C89518   2.383   6.654   8.510  0.2797 -0.2209 -0.0548
  664MOL0     C89519   2.281   6.546   8.501 -0.3031  0.2994 -0.3415
  664MOL0     C89520   2.329   6.455   8.390 -0.5264  0.2814 -0.7618
  664MOL0     C89521   2.443   6.360   8.423 -1.1881 -0.1339  1.6634
  664MOL0     N89522   2.404   6.252   8.513 -0.5002  0.5953  0.5801
  664MOL0     C89523   2.283   6.173   8.523 -0.3518  0.0454  0.5290
  664MOL0     C89524   2.310   6.080   8.617 -0.7338 -0.9360 -0.3717
  664MOL0     C89525   2.208   5.982   8.679  0.2930  0.8914  0.4017
  664MOL0     C89526   2.267   5.836   8.658  0.7606 -0.4087  0.4114
  664MOL0     C89527   2.162   5.728   8.695  0.4344 -0.0166  0.6786
  664MOL0     C89528   2.036   5.760   8.772  0.1436 -0.1267  0.2818
  664MOL0     O89529   1.935   5.662   8.774 -0.5573 -0.1020  0.2805
  664MOL0     C89530   1.824   5.685   8.851 -0.1254  0.2122  0.3523
  664MOL0     C89531   1.800   5.604   8.956  0.5078 -0.6223 -0.1527
  664MOL0     C89532   1.696   5.622   9.044 -0.3723  0.5486 -0.7924
  664MOL0     C89533   1.623   5.737   9.037  0.3334 -0.3184  0.1350
  664MOL0     C89534   1.537   5.780   9.146  0.1780 -0.3352 -1.3144
  664MOL0     O89535   1.547   5.710   9.271 -0.7971 -0.2988  0.5512
  664MOL0     C89536   1.433   5.728   9.346 -0.0088 -0.1983  0.0528
  664MOL0     C89537   1.350   5.618   9.369 -0.1199  0.9534 -0.4160
  664MOL0     C89538   1.244   5.626   9.461 -0.0807 -0.5607  0.4563
  664MOL0     C89539   1.207   5.743   9.516  0.4529 -0.1179 -0.3433
  664MOL0     O89540   1.081   5.736   9.588 -0.5977  0.3814 -0.8202
  664MOL0     C89541   1.043   5.863   9.633 -0.5182  0.1707  0.6182
  664MOL0     C89542   0.909   5.850   9.702  1.0489  0.3618 -0.0030
  664MOL0     C89543   0.922   5.819   9.850 -0.3323  0.3353  0.3762
  664MOL0     C89544   0.804   5.730   9.902 -0.1986 -0.4586  0.5063
  664MOL0     C89545   0.846   5.687  10.038 -0.0827 -0.1214 -0.4378
  664MOL0     C89546   0.736   5.609  10.118  0.1211 -0.5844 -0.0272
  664MOL0     C89547   0.762   5.590  10.269 -1.2673  0.0523 -0.9168
  664MOL0     C89548   0.667   5.482  10.325  0.0996  0.5380  0.3338
  664MOL0    Cl89549   0.705   5.441  10.492 -0.2606 -0.1528  0.0762
  664MOL0     C89550   1.288   5.856   9.503 -0.6664  0.0548  0.1061
  664MOL0     C89551   1.398   5.847   9.413 -0.7181  0.0982  0.1419
  664MOL0     O89552   1.473   5.885   9.137  0.2750  0.3368  0.1142
  664MOL0     C89553   1.649   5.827   8.931 -0.3240 -0.6332 -0.1892
  664MOL0     C89554   1.746   5.800   8.838 -0.5504  0.2900 -0.0626
  664MOL0     N89555   2.422   6.127   8.680 -0.1949 -0.2917  0.2134
  664MOL0     N89556   2.482   6.224   8.622  0.3170 -0.7273  0.0950
  664MOL0     C89557   1.668   6.670   8.593  0.2015  0.7096 -0.0747
  664MOL0     C89558   1.561   6.597   8.653 -0.1404  0.7220 -0.0765
  664MOL0     C89559   1.336   6.381   8.994 -0.0707 -0.0385  0.1653
  664MOL0     C89560   1.244   6.446   9.076  0.3942  0.2890  0.3388
  664MOL0     C89561   1.156   6.377   9.154 -0.5315 -0.3865  0.5754
  664MOL0     C89562   1.159   6.234   9.163 -0.7758 -0.5061  0.0421
  664MOL0     O89563   1.056   6.173   9.223 -0.4999  0.1386 -0.1773
  664MOL0     C89564   1.038   6.034   9.198 -0.7765 -0.1633  0.4020
  664MOL0     C89565   0.928   5.978   9.290 -0.0130 -0.5504 -0.2609
  664MOL0     C89566   0.785   5.991   9.231  0.2363 -0.4509  0.5456
  664MOL0     C89567   0.672   5.925   9.314 -0.0023 -0.6532 -0.1965
  664MOL0     C89568   0.595   6.023   9.392 -0.5665  0.0922  0.0473
  664MOL0     C89569   0.527   6.105   9.452 -0.0809  0.3425  0.6089
  664MOL0     C89570   1.248   6.164   9.077 -0.2485 -0.4560  0.2239
  664MOL0     C89571   1.331   6.239   8.990  0.7069  0.7066  1.0754
  664MOL0     C89572   1.406   6.156   8.893 -0.2674 -0.5607 -0.0398
  664MOL0     H89573   1.741   6.432   8.879  2.4276  4.1405  2.6528
  664MOL0     H89574   1.924   6.573   8.782 -0.5549 -1.6072  0.4275
  664MOL0     H89575   2.001   6.841   8.702  2.1058  1.5040 -0.3536
  664MOL0     H89576   2.062   6.680   8.657  0.5406 -0.7764 -1.1218
  664MOL0     H89577   2.058   6.931   8.477  0.3022 -1.2356 -0.6352
  664MOL0     H89578   2.088   6.787   8.412  1.7490  0.9788  0.0080
  664MOL0     H89579   2.241   6.955   8.611  1.9970  2.3356 -2.1397
  664MOL0     H89580   2.293   6.908   8.453 -1.5485 -0.0923 -0.5918
  664MOL0     H89581   2.404   6.790   8.679  1.0418 -1.4244  0.9914
  664MOL0     H89582   2.268   6.708   8.692  2.2009  0.6920  0.9703
  664MOL0     H89583   2.398   6.695   8.410 -1.8312  1.1938  0.1332
  664MOL0     H89584   2.478   6.614   8.546 -0.1420 -2.5395 -1.3288
  664MOL0     H89585   2.291   6.499   8.599  2.6927 -0.3029 -0.8184
  664MOL0     H89586   2.180   6.578   8.474  0.0366  0.0333 -2.1115
  664MOL0     H89587   2.356   6.502   8.295  0.1997  1.8732  0.1874
  664MOL0     H89588   2.248   6.382   8.376 -0.2274 -0.5162  1.3291
  664MOL0     H89589   2.481   6.310   8.335 -1.0328 -1.2900  2.3734
  664MOL0     H89590   2.528   6.419   8.461 -1.9118  3.0282 -1.1160
  664MOL0     H89591   2.197   6.189   8.458 -1.5456 -2.8356  1.2367
  664MOL0     H89592   2.200   5.998   8.787  0.3176  3.5804  0.0655
  664MOL0     H89593   2.113   5.992   8.625  0.9475  0.4208 -0.8885
  664MOL0     H89594   2.285   5.815   8.553 -0.6231 -0.1016  0.0910
  664MOL0     H89595   2.353   5.833   8.726 -0.0886 -0.3127  1.5181
  664MOL0     H89596   2.219   5.647   8.742 -1.0482 -1.3045  0.3349
  664MOL0     H89597   2.116   5.675   8.611  0.3624 -2.3625  2.1247
  664MOL0     H89598   1.995   5.842   8.713 -1.3234 -1.1693 -0.2184
  664MOL0     H89599   2.056   5.791   8.875  1.2630 -4.8697  1.7723
  664MOL0     H89600   1.859   5.513   8.956  0.3735 -0.7295  1.4510
  664MOL0     H89601   1.689   5.551   9.126  4.0552  0.4464 -0.2659
  664MOL0     H89602   1.379   5.534   9.307 -0.7868  0.3070  0.1253
  664MOL0     H89603   1.187   5.535   9.478  1.5833 -1.0266  4.9830
  664MOL0     H89604   1.117   5.893   9.707 -1.6562  1.3252  1.3324
  664MOL0     H89605   1.038   5.934   9.551  2.9290 -1.5459 -1.2916
  664MOL0     H89606   0.850   5.941   9.687 -1.1552 -0.5212  2.5354
  664MOL0     H89607   0.849   5.766   9.665  0.9926  0.6449 -0.5645
  664MOL0     H89608   1.015   5.763   9.866 -1.4175 -1.0032  2.4585
  664MOL0     H89609   0.937   5.908   9.912 -1.1482 -0.4421  1.7372
  664MOL0     H89610   0.782   5.643   9.839  1.2583 -0.6611  0.2568
  664MOL0     H89611   0.710   5.787   9.904 -1.6056 -2.6435  0.5796
  664MOL0     H89612   0.879   5.767  10.104 -1.2535  1.4795 -1.7202
  664MOL0     H89613   0.932   5.620  10.033  0.1803  0.0451  1.1668
  664MOL0     H89614   0.641   5.663  10.110 -0.9472 -1.4048  4.3668
  664MOL0     H89615   0.720   5.515  10.064 -0.7055  0.0437 -0.9138
  664MOL0     H89616   0.756   5.686  10.322  0.6779  1.5774 -3.2305
  664MOL0     H89617   0.863   5.555  10.293 -0.1911  3.2882 -0.1269
  664MOL0     H89618   0.560   5.506  10.329 -0.1110  0.1567 -1.8991
  664MOL0     H89619   0.689   5.384  10.282 -0.3527 -1.7190  4.6592
  664MOL0     H89620   1.274   5.954   9.547 -0.0594 -1.4586  4.1366
  664MOL0     H89621   1.460   5.935   9.409  1.8512 -1.6177 -2.8631
  664MOL0     H89622   1.596   5.922   8.927  3.4299  1.5966 -1.6032
  664MOL0     H89623   1.758   5.873   8.758 -0.6671 -2.0864 -2.3977
  664MOL0     H89624   1.647   6.738   8.510  3.9621  0.5570 -1.3173
  664MOL0     H89625   1.460   6.601   8.615 -0.4277  1.9016  0.7619
  664MOL0     H89626   1.228   6.553   9.074 -0.1531  0.3636 -5.0811
  664MOL0     H89627   1.079   6.442   9.195 -0.1760 -0.3714  1.2444
  664MOL0     H89628   1.129   5.977   9.216 -0.3402 -0.3882 -2.1375
  664MOL0     H89629   1.005   6.020   9.094 -1.2184 -0.3777  0.5656
  664MOL0     H89630   0.935   6.043   9.378  2.3898 -2.7904  1.3490
  664MOL0     H89631   0.946   5.874   9.320 -1.8064  0.5109  5.6594
  664MOL0     H89632   0.781   5.945   9.133  2.0101  2.7339 -1.2061
  664MOL0     H89633   0.774   6.098   9.210  2.2087 -0.6146 -1.7671
  664MOL0     H89634   0.597   5.864   9.263  1.5846 -0.3012 -3.1658
  664MOL0     H89635   0.720   5.854   9.383 -1.5481 -2.2232 -0.6770
  664MOL0     H89636   0.453   6.168   9.498  0.1519  1.2245 -0.1885
  664MOL0     H89637   1.269   6.057   9.084 -2.2122 -0.9514 -0.7126
  664MOL0     H89638   1.406   6.052   8.924  1.0436 -0.4795  0.2812
  664MOL0     H89639   1.366   6.180   8.794  0.5687 -1.4229 -0.6022
  664MOL0     H89640   1.512   6.182   8.898 -0.1910 -0.9571  0.3358
  665MOL0     O89641   4.662   5.155   9.738  0.1350 -0.1370  0.6539
  665MOL0     C89642   4.657   5.079   9.635  0.1515  0.3306 -0.2939
  665MOL0     O89643   4.587   4.960   9.624 -0.5875  0.5297  0.0136
  665MOL0     C89644   4.549   4.898   9.735  0.6910 -0.0436 -1.1841
  665MOL0     C89645   4.416   4.878   9.747  0.3283  0.4754 -0.3037
  665MOL0     C89646   4.360   4.806   9.854  0.8777  0.0804 -0.1683
  665MOL0     C89647   4.443   4.734   9.945 -0.9064  0.3322 -0.6594
  665MOL0     O89648   4.409   4.660  10.054  0.4604 -1.2091  0.7640
  665MOL0     C89649   4.286   4.592  10.046  0.4188  0.4940  0.0290
  665MOL0     C89650   4.155   4.667  10.063  0.2759 -1.0171  0.4522
  665MOL0     C89651   4.051   4.592  10.148  0.4519 -0.5689 -0.2179
  665MOL0     C89652   3.934   4.693  10.191  0.0647 -0.0689  0.1066
  665MOL0     C89653   3.985   4.778  10.305 -0.5348 -1.0057 -0.2394
  665MOL0     C89654   3.858   4.841  10.350  0.3542 -0.8044  0.8964
  665MOL0     C89655   3.887   4.949  10.453  0.3563 -0.4294 -0.2168
  665MOL0     C89656   3.958   5.064  10.396 -0.1117 -0.5383  0.6663
  665MOL0     N89657   3.987   5.166  10.496 -0.1669 -0.3837 -0.3573
  665MOL0     C89658   3.904   5.273  10.534  0.4871 -0.0992 -0.3739
  665MOL0     C89659   3.980   5.350  10.617 -0.1992  1.3012 -0.3962
  665MOL0     C89660   3.937   5.478  10.685 -0.4463  0.9081 -0.0626
  665MOL0     C89661   3.780   5.515  10.687  0.6324  0.6800  0.1236
  665MOL0     C89662   3.754   5.660  10.723  1.4177  0.5522  0.0989
  665MOL0     C89663   3.835   5.769  10.666  0.0554 -1.0941 -0.3852
  665MOL0     O89664   3.782   5.899  10.698  0.4910 -0.5025  0.0443
  665MOL0     C89665   3.666   5.939  10.640 -0.1253  0.3251 -0.7610
  665MOL0     C89666   3.613   6.062  10.693 -0.6229  0.9603 -0.3671
  665MOL0     C89667   3.500   6.119  10.640 -0.7948  0.2001 -0.1975
  665MOL0     C89668   3.441   6.061  10.529  0.4541  0.0010 -0.6410
  665MOL0     C89669   3.331   6.129  10.464  0.7872  0.3340  0.4472
  665MOL0     O89670   3.278   6.241  10.528  0.2273 -0.0573 -0.0987
  665MOL0     C89671   3.162   6.299  10.477 -0.6507  0.6152  0.4235
  665MOL0     C89672   3.180   6.402  10.392 -0.4131 -0.0177 -0.1378
  665MOL0     C89673   3.076   6.500  10.368  0.3631 -1.3686 -0.1818
  665MOL0     C89674   2.944   6.470  10.405 -0.5707 -0.0718 -0.6516
  665MOL0     O89675   2.850   6.562  10.374 -0.9224 -0.2626 -0.0514
  665MOL0     C89676   2.717   6.521  10.353  0.5757 -0.2486  0.4295
  665MOL0     C89677   2.622   6.629  10.420  0.5956 -0.2919  0.3829
  665MOL0     C89678   2.649   6.766  10.361  0.2733  0.2661  0.0138
  665MOL0     C89679   2.632   6.869  10.481  0.3626  0.5749  0.3514
  665MOL0     C89680   2.566   7.011  10.449  0.5091  0.5340  0.7491
  665MOL0     C89681   2.632   7.120  10.529 -1.5703 -0.0488 -0.6270
  665MOL0     C89682   2.593   7.134  10.674  0.2485  0.3092 -0.0354
  665MOL0     C89683   2.660   7.238  10.763  0.2562  0.0742  0.6433
  665MOL0    Cl89684   2.637   7.397  10.684  0.2532  0.3193 -0.0250
  665MOL0     C89685   2.926   6.359  10.489  0.5913 -0.1194 -1.0018
  665MOL0     C89686   3.035   6.276  10.523  0.0046 -0.2684 -0.4740
  665MOL0     O89687   3.284   6.081  10.368 -0.3436  0.3421  0.0969
  665MOL0     C89688   3.498   5.947  10.469 -0.2273 -0.2389 -0.4768
  665MOL0     C89689   3.614   5.886  10.528  0.0589 -0.0370 -0.5745
  665MOL0     N89690   4.101   5.289  10.631 -0.7187 -0.2388  1.1657
  665MOL0     N89691   4.103   5.186  10.562 -0.1846 -0.0639  0.2220
  665MOL0     C89692   4.580   4.744   9.917  0.5911  0.4194 -0.3076
  665MOL0     C89693   4.636   4.832   9.827  0.0012  0.0725 -0.7524
  665MOL0     C89694   4.715   5.135   9.513 -0.1051  0.1036 -0.1821
  665MOL0     C89695   4.656   5.104   9.390 -1.0889  0.7761  0.3597
  665MOL0     C89696   4.688   5.173   9.278 -0.4724 -0.4571  0.2463
  665MOL0     C89697   4.791   5.274   9.269 -0.2524 -0.5341  0.3032
  665MOL0     O89698   4.836   5.348   9.159  0.4761  1.0399  0.7319
  665MOL0     C89699   4.846   5.282   9.038 -0.7655 -0.2908  0.7989
  665MOL0     C89700   4.916   5.366   8.929  0.0939  0.2164  0.4565
  665MOL0     C89701   4.892   5.305   8.791  1.0172 -0.6505 -0.3866
  665MOL0     C89702   4.743   5.297   8.731 -0.1132  0.1423 -0.2043
  665MOL0     C89703   4.689   5.432   8.681 -0.4445  0.6158 -1.2477
  665MOL0     C89704   4.639   5.534   8.641 -1.0706 -0.4044 -0.0363
  665MOL0     C89705   4.842   5.308   9.399  1.4405  0.6709  0.8191
  665MOL0     C89706   4.817   5.233   9.516  0.2822  0.0878  0.2742
  665MOL0     C89707   4.911   5.253   9.629 -0.8415 -0.1562 -0.4832
  665MOL0     H89708   4.351   4.932   9.678  0.0453 -2.0081 -2.1014
  665MOL0     H89709   4.252   4.803   9.853  0.8104  1.7118 -0.3858
  665MOL0     H89710   4.284   4.526   9.959 -1.0024 -0.5470  0.8218
  665MOL0     H89711   4.293   4.517  10.125  0.5623 -1.2148 -1.5286
  665MOL0     H89712   4.110   4.700   9.970  1.1500  1.6710  0.8945
  665MOL0     H89713   4.197   4.758  10.108  0.0424 -1.6290  1.9799
  665MOL0     H89714   4.094   4.551  10.240 -1.9714 -0.1677  1.1820
  665MOL0     H89715   4.000   4.513  10.091 -5.2802  3.3550 -1.3816
  665MOL0     H89716   3.921   4.762  10.107 -0.2104 -0.6777 -0.3589
  665MOL0     H89717   3.839   4.643  10.212  0.6516 -0.3689  2.2285
  665MOL0     H89718   4.023   4.718  10.388 -1.8342  1.7977  2.5712
  665MOL0     H89719   4.049   4.850  10.255  0.8892 -0.9601  1.5647
  665MOL0     H89720   3.800   4.889  10.271  2.1128 -1.4799 -0.8860
  665MOL0     H89721   3.796   4.767  10.401 -1.5280 -0.3475 -0.6062
  665MOL0     H89722   3.944   4.911  10.538  0.0351  0.0091  0.1946
  665MOL0     H89723   3.797   4.990  10.498  1.0220  2.0421 -0.9925
  665MOL0     H89724   4.048   5.042  10.338  0.4265 -1.7510  1.8912
  665MOL0     H89725   3.881   5.108  10.332 -1.0711 -5.4533 -2.0626
  665MOL0     H89726   3.803   5.295  10.503  0.1021  0.5354  1.2505
  665MOL0     H89727   3.964   5.466  10.791 -0.0888  0.8600 -0.1579
  665MOL0     H89728   3.975   5.562  10.627 -2.9460  2.6102  0.6202
  665MOL0     H89729   3.733   5.509  10.588  0.5096  1.6677  0.1102
  665MOL0     H89730   3.714   5.455  10.750  1.8581  1.5536  2.3370
  665MOL0     H89731   3.753   5.666  10.832 -1.6565 -3.7709  0.5667
  665MOL0     H89732   3.647   5.679  10.705 -0.0052 -1.5041  4.7238
  665MOL0     H89733   3.846   5.750  10.558  1.4329 -1.9631 -0.1137
  665MOL0     H89734   3.930   5.756  10.718  0.9213 -0.8042 -1.8267
  665MOL0     H89735   3.657   6.111  10.779  1.0561  0.5836 -0.9714
  665MOL0     H89736   3.459   6.208  10.685 -1.2047 -1.0034  1.9312
  665MOL0     H89737   3.282   6.421  10.359 -0.8497  0.0302 -1.4835
  665MOL0     H89738   3.097   6.589  10.309  2.0675 -1.2314  0.5812
  665MOL0     H89739   2.698   6.517  10.246  0.2245 -1.5420  0.5227
  665MOL0     H89740   2.701   6.423  10.399  2.2837 -1.7173 -1.8803
  665MOL0     H89741   2.519   6.593  10.408  0.4195  0.6363 -1.1295
  665MOL0     H89742   2.628   6.637  10.529 -1.7178  0.2231  0.5140
  665MOL0     H89743   2.739   6.786  10.303 -0.0826  1.1324 -0.2435
  665MOL0     H89744   2.565   6.785  10.293 -0.9842 -3.3335  0.3456
  665MOL0     H89745   2.732   6.877  10.523  0.5804  0.7924 -0.1887
  665MOL0     H89746   2.572   6.825  10.561  1.2789  0.7962  1.1804
  665MOL0     H89747   2.458   7.011  10.467  0.3631 -0.2443 -0.0849
  665MOL0     H89748   2.578   7.034  10.343 -1.1223  0.5118  0.5293
  665MOL0     H89749   2.738   7.096  10.523 -2.0108 -1.9516 -2.0737
  665MOL0     H89750   2.609   7.216  10.482  0.7214  0.1339 -1.4915
  665MOL0     H89751   2.619   7.038  10.720  1.9058  1.4557  1.5832
  665MOL0     H89752   2.491   7.173  10.683 -0.1898 -1.2927  4.8177
  665MOL0     H89753   2.621   7.245  10.865  0.9407  0.0446  0.9103
  665MOL0     H89754   2.763   7.203  10.769  0.0830 -0.4519  0.5431
  665MOL0     H89755   2.830   6.324  10.525  0.9889 -0.4940 -0.2870
  665MOL0     H89756   3.026   6.188  10.586 -2.5019 -0.0676 -0.4507
  665MOL0     H89757   3.456   5.906  10.378 -1.4186 -0.7412  0.2726
  665MOL0     H89758   3.653   5.801  10.474  2.2767  0.1848  0.5720
  665MOL0     H89759   4.639   4.697   9.995 -0.6920  1.4065  1.3313
  665MOL0     H89760   4.743   4.840   9.815 -0.0459 -0.3093 -1.4930
  665MOL0     H89761   4.585   5.023   9.374 -0.9487  0.6767  0.2496
  665MOL0     H89762   4.650   5.135   9.184  2.4058 -2.8957 -0.0643
  665MOL0     H89763   4.747   5.247   9.008  0.0907 -3.3205  1.1601
  665MOL0     H89764   4.916   5.199   9.049  3.0533  2.6469  0.7186
  665MOL0     H89765   5.024   5.378   8.939  0.0541  1.8641 -0.7585
  665MOL0     H89766   4.880   5.469   8.927  0.0431  0.1915 -0.3785
  665MOL0     H89767   4.934   5.204   8.791 -0.6625 -1.4278  1.7374
  665MOL0     H89768   4.945   5.367   8.719 -0.8557  2.8834  1.0030
  665MOL0     H89769   4.751   5.224   8.650 -0.4754 -1.5352  1.2064
  665MOL0     H89770   4.670   5.261   8.804  2.3709  0.2081  2.5024
  665MOL0     H89771   4.577   5.610   8.597  0.2157  1.2927  0.9168
  665MOL0     H89772   4.908   5.394   9.399  2.4720 -0.1029  1.4593
  665MOL0     H89773   4.872   5.296   9.721  0.5487  1.3634 -0.5772
  665MOL0     H89774   4.949   5.154   9.656  0.2322  0.9002  2.2264
  665MOL0     H89775   4.996   5.314   9.598 -1.1075 -0.9177 -2.9976
  666MOL0     O89776   3.183   9.358   6.731 -0.3544 -0.1774 -0.3060
  666MOL0     C89777   3.143   9.345   6.613 -0.6155  0.5014 -0.0856
  666MOL0     O89778   3.114   9.456   6.540 -0.1555 -0.0716  0.0294
  666MOL0     C89779   3.112   9.575   6.609 -0.1714  0.9676 -0.1665
  666MOL0     C89780   2.997   9.646   6.642 -0.3522  0.4516  0.5341
  666MOL0     C89781   3.007   9.762   6.719  1.1869 -0.7576  0.0257
  666MOL0     C89782   3.125   9.822   6.749 -1.0747  0.0070 -1.7896
  666MOL0     O89783   3.123   9.939   6.822 -0.5808  0.3037  0.4803
  666MOL0     C89784   3.222  10.043   6.791  0.2084  0.2943  0.1761
  666MOL0     C89785   3.172  10.175   6.754 -0.6038 -0.1213 -0.5544
  666MOL0     C89786   3.132  10.254   6.880  0.3517  0.6989 -0.5319
  666MOL0     C89787   3.246  10.270   6.976  0.5680 -0.0480  0.7541
  666MOL0     C89788   3.210  10.383   7.079  1.1485 -0.0527  1.1592
  666MOL0     C89789   3.324  10.417   7.167 -0.5433  0.2394  0.9534
  666MOL0     C89790   3.340  10.334   7.285 -0.0097  0.6234 -0.0064
  666MOL0     C89791   3.449  10.397   7.366  0.6372 -0.3127 -0.4516
  666MOL0     N89792   3.502  10.310   7.469  0.3144  0.3548 -0.0750
  666MOL0     C89793   3.558  10.348   7.592 -0.1206  0.2063 -0.1515
  666MOL0     C89794   3.622  10.237   7.638  0.3395  1.3715  0.1634
  666MOL0     C89795   3.684  10.209   7.767  0.5810  0.0626  0.1387
  666MOL0     C89796   3.592  10.242   7.886 -0.4920  0.9477 -0.4722
  666MOL0     C89797   3.651  10.340   8.000 -0.5823  0.5112  1.1436
  666MOL0     C89798   3.569  10.324   8.131 -0.9950 -1.2088  0.9201
  666MOL0     O89799   3.510  10.447   8.168 -0.1394 -0.2748  0.2255
  666MOL0     C89800   3.587  10.546   8.220  1.2861  0.0535  0.7447
  666MOL0     C89801   3.533  10.677   8.215  0.0343  0.4418  0.0814
  666MOL0     C89802   3.602  10.785   8.267  0.7697 -0.1733  0.4969
  666MOL0     C89803   3.719  10.759   8.344  0.1527 -0.2388  0.2218
  666MOL0     C89804   3.795  10.877   8.408 -0.0629 -0.7410  0.2809
  666MOL0     O89805   3.722  10.991   8.429 -0.2571  0.0110  0.1815
  666MOL0     C89806   3.777  11.081   8.512  0.0458 -1.2056 -0.7571
  666MOL0     C89807   3.777  11.213   8.461  0.5363  0.6376 -0.0969
  666MOL0     C89808   3.825  11.327   8.532 -0.0180  0.4834  0.4809
  666MOL0     C89809   3.881  11.307   8.661  0.5592  0.2569 -0.1114
  666MOL0     O89810   3.944  11.411   8.726 -0.0049  0.5070 -0.2138
  666MOL0     C89811   3.852  11.479   8.815  0.0251  0.3676  0.2044
  666MOL0     C89812   3.793  11.600   8.748 -0.3496 -0.7261 -0.0376
  666MOL0     C89813   3.691  11.659   8.842  0.2315 -0.1696  0.0298
  666MOL0     C89814   3.614  11.784   8.774 -0.5012 -0.4554 -0.0103
  666MOL0     C89815   3.507  11.850   8.860 -0.1285  0.8983 -0.1571
  666MOL0     C89816   3.444  11.967   8.808  0.8139 -1.5394 -0.2195
  666MOL0     C89817   3.533  12.094   8.812 -0.2358  0.8282  0.5211
  666MOL0     C89818   3.478  12.222   8.749  0.3212 -0.4901 -0.5789
  666MOL0    Cl89819   3.588  12.348   8.810 -0.3253  0.1112  0.4140
  666MOL0     C89820   3.887  11.176   8.707 -0.3848  0.7482  0.1340
  666MOL0     C89821   3.832  11.069   8.642 -0.9666 -0.2936  0.9900
  666MOL0     O89822   3.917  10.858   8.428  0.4964  0.2119 -0.6634
  666MOL0     C89823   3.762  10.631   8.355 -0.0078 -0.8636 -0.7574
  666MOL0     C89824   3.705  10.529   8.282 -0.0866 -0.3487  0.1090
  666MOL0     N89825   3.622  10.142   7.542 -0.0233  0.3741  0.0052
  666MOL0     N89826   3.543  10.185   7.445 -0.2825 -0.2296 -0.9078
  666MOL0     C89827   3.243   9.760   6.713  0.0966 -0.3158 -0.4744
  666MOL0     C89828   3.235   9.632   6.656  0.5219  0.0943  0.6516
  666MOL0     C89829   3.137   9.216   6.524 -0.5558 -0.0084  0.4259
  666MOL0     C89830   3.085   9.236   6.401  0.1304  0.1244  0.5695
  666MOL0     C89831   3.079   9.142   6.303 -0.2749 -0.0908 -0.5473
  666MOL0     C89832   3.115   9.010   6.346  0.2539 -0.4522  1.3495
  666MOL0     O89833   3.107   8.902   6.256  0.3211 -1.1405 -0.1193
  666MOL0     C89834   3.236   8.836   6.245 -0.1363 -0.0307 -0.3241
  666MOL0     C89835   3.262   8.793   6.102  0.2026 -0.8729 -0.6918
  666MOL0     C89836   3.147   8.719   6.037  0.4931  0.1064 -0.4377
  666MOL0     C89837   3.086   8.604   6.116  0.2305  0.7360  0.0189
  666MOL0     C89838   3.183   8.498   6.151  0.7853 -0.3950  0.2387
  666MOL0     C89839   3.274   8.423   6.166  0.9783  0.0408  0.6398
  666MOL0     C89840   3.146   8.985   6.479 -0.2268 -0.1914  0.9524
  666MOL0     C89841   3.172   9.090   6.566 -0.0777  1.0233  1.0892
  666MOL0     C89842   3.221   9.056   6.711  1.3450 -0.4935  0.1554
  666MOL0     H89843   2.907   9.606   6.598  0.7449 -2.3106  0.5882
  666MOL0     H89844   2.916   9.818   6.738  1.0680 -1.5190  1.9391
  666MOL0     H89845   3.293  10.055   6.874 -2.5484 -0.6594  2.8598
  666MOL0     H89846   3.278  10.017   6.701  0.3086  0.1194  0.2878
  666MOL0     H89847   3.090  10.164   6.683 -0.1460 -1.1892 -0.9525
  666MOL0     H89848   3.248  10.234   6.701 -1.9368  2.4227  0.2382
  666MOL0     H89849   3.047  10.207   6.930 -2.6645  2.2892 -3.7389
  666MOL0     H89850   3.092  10.347   6.838 -1.5243 -1.1892 -3.3502
  666MOL0     H89851   3.284  10.189   7.038 -2.1759 -1.9133  0.1406
  666MOL0     H89852   3.336  10.306   6.924 -0.0257  2.1632  1.1283
  666MOL0     H89853   3.174  10.468   7.022 -2.1764 -1.8244  0.3767
  666MOL0     H89854   3.120  10.353   7.134  1.0085  1.6732  1.9511
  666MOL0     H89855   3.413  10.408   7.103 -2.7113  0.5799 -2.3597
  666MOL0     H89856   3.306  10.523   7.185 -1.1582  0.3445 -0.1656
  666MOL0     H89857   3.368  10.232   7.256 -1.7207  0.6868 -2.1615
  666MOL0     H89858   3.261  10.330   7.360  1.3936 -2.8101  1.4965
  666MOL0     H89859   3.529  10.436   7.303  1.6670 -0.4896  0.7114
  666MOL0     H89860   3.413  10.489   7.411  3.3465  2.7169 -3.8704
  666MOL0     H89861   3.575  10.448   7.628 -1.5877  0.2157  0.5792
  666MOL0     H89862   3.721  10.106   7.772 -2.4818 -1.4155 -3.0354
  666MOL0     H89863   3.770  10.275   7.773  0.5714  0.3731 -2.2541
  666MOL0     H89864   3.494  10.275   7.850 -0.5879  2.2416  0.8853
  666MOL0     H89865   3.561  10.148   7.934 -1.8671  0.9627 -1.2785
  666MOL0     H89866   3.637  10.444   7.971  0.3519  0.7562  1.5533
  666MOL0     H89867   3.757  10.320   8.018  0.0310  0.4360 -2.0100
  666MOL0     H89868   3.636  10.281   8.206  2.5024 -0.5221 -1.5466
  666MOL0     H89869   3.480  10.261   8.130 -2.4829  0.8021 -0.3878
  666MOL0     H89870   3.436  10.690   8.168 -0.4197  1.7196  1.3141
  666MOL0     H89871   3.544  10.877   8.264 -0.2523 -0.6990  2.5227
  666MOL0     H89872   3.735  11.227   8.362  0.4304  2.2995  0.1544
  666MOL0     H89873   3.813  11.425   8.487  0.5558 -0.4893 -1.9577
  666MOL0     H89874   3.771  11.414   8.849  2.1102 -1.4178  2.0507
  666MOL0     H89875   3.910  11.503   8.905  1.4386 -3.3747  0.4645
  666MOL0     H89876   3.866  11.678   8.724  1.6675 -3.1988 -2.6124
  666MOL0     H89877   3.748  11.561   8.656 -2.2081  0.2526  0.3957
  666MOL0     H89878   3.619  11.580   8.864  0.6067 -1.0528 -1.7544
  666MOL0     H89879   3.745  11.687   8.933 -0.9353 -0.8122  0.9494
  666MOL0     H89880   3.564  11.759   8.680 -2.0826  0.3701  0.5555
  666MOL0     H89881   3.687  11.862   8.750  0.5245 -0.7618  1.9126
  666MOL0     H89882   3.548  11.882   8.956  2.3536  1.8908 -1.4614
  666MOL0     H89883   3.434  11.768   8.869  1.1146 -0.0879  1.4286
  666MOL0     H89884   3.406  11.957   8.706 -3.4241  1.6034  0.7510
  666MOL0     H89885   3.359  11.993   8.871 -0.1592  0.7295 -2.2594
  666MOL0     H89886   3.626  12.081   8.756  0.0685 -1.9779  1.4958
  666MOL0     H89887   3.571  12.113   8.913 -1.4299 -1.5004  1.4827
  666MOL0     H89888   3.471  12.215   8.640  1.1720 -0.0049 -0.6741
  666MOL0     H89889   3.376  12.249   8.779 -0.1774 -0.3854 -2.2920
  666MOL0     H89890   3.909  11.164   8.813  1.3696  1.1547 -0.1615
  666MOL0     H89891   3.837  10.966   8.677 -0.4172 -1.4543 -2.2297
  666MOL0     H89892   3.849  10.612   8.418 -0.5728  1.1688  0.7560
  666MOL0     H89893   3.750  10.431   8.292 -0.8136 -0.5839  1.3662
  666MOL0     H89894   3.343   9.796   6.737  0.7036 -1.5849 -1.0180
  666MOL0     H89895   3.323   9.576   6.628 -1.0302 -1.8694 -0.6081
  666MOL0     H89896   3.049   9.334   6.370 -0.3162 -0.0899  0.4066
  666MOL0     H89897   3.041   9.167   6.204 -0.3651 -3.7722 -1.5937
  666MOL0     H89898   3.244   8.742   6.301 -2.3280 -2.4511 -3.6515
  666MOL0     H89899   3.315   8.905   6.276 -1.7250  1.5131  0.4745
  666MOL0     H89900   3.354   8.734   6.097 -0.5524 -2.1255 -0.1439
  666MOL0     H89901   3.275   8.887   6.047  1.9386  0.1751  1.3754
  666MOL0     H89902   3.167   8.704   5.931  4.6233 -0.0421  0.2079
  666MOL0     H89903   3.062   8.788   6.033  0.0250 -0.5078 -3.4496
  666MOL0     H89904   3.029   8.648   6.199 -0.7974  0.1532 -0.3611
  666MOL0     H89905   3.007   8.560   6.055 -0.7199  2.3313  0.0430
  666MOL0     H89906   3.339   8.339   6.180  0.2331 -0.8362 -0.9375
  666MOL0     H89907   3.170   8.892   6.530  2.7599  1.5992  3.1078
  666MOL0     H89908   3.129   9.007   6.744  1.0833  1.4550  2.6630
  666MOL0     H89909   3.301   8.982   6.709 -0.4715 -2.5401 -1.6810
  666MOL0     H89910   3.248   9.136   6.780  0.4379 -2.7914  3.3917
  667MOL0     O89911   2.314   4.882   1.940  0.0205  0.1353  0.3260
  667MOL0     C89912   2.193   4.898   1.944 -0.3023  0.8350 -0.6389
  667MOL0     O89913   2.135   4.999   2.019 -0.4758 -0.2282  0.3787
  667MOL0     C89914   2.191   5.066   2.128  0.8041  0.6440  0.2187
  667MOL0     C89915   2.175   5.207   2.117 -1.1402 -1.0231  0.3367
  667MOL0     C89916   2.219   5.287   2.220  0.4144 -0.2701 -0.4508
  667MOL0     C89917   2.275   5.228   2.334 -0.2229  1.5595 -0.0556
  667MOL0     O89918   2.317   5.307   2.439  0.3313  0.1216  0.3911
  667MOL0     C89919   2.458   5.339   2.412  0.2873  0.2026  0.4185
  667MOL0     C89920   2.466   5.476   2.345 -0.1041 -0.2794 -0.2720
  667MOL0     C89921   2.608   5.528   2.331 -0.0471  0.8232  0.0648
  667MOL0     C89922   2.647   5.620   2.448  0.2493 -0.4756  0.8096
  667MOL0     C89923   2.707   5.557   2.572  0.4282  0.2993  0.0698
  667MOL0     C89924   2.768   5.662   2.664  0.4921  0.1789 -0.1100
  667MOL0     C89925   2.864   5.585   2.762  0.0880  0.2936  0.0902
  667MOL0     C89926   2.792   5.506   2.857  0.2151 -0.8087 -1.0147
  667MOL0     N89927   2.701   5.574   2.955  0.7048 -1.2893  0.7438
  667MOL0     C89928   2.743   5.624   3.072  0.2360  0.2943  0.1016
  667MOL0     C89929   2.629   5.655   3.140 -0.1324  0.3940  0.1395
  667MOL0     C89930   2.628   5.697   3.288 -0.6722  0.7293 -0.0308
  667MOL0     C89931   2.524   5.621   3.368 -0.6960  0.7993 -0.0825
  667MOL0     C89932   2.507   5.675   3.512  0.0032  0.0170  0.0801
  667MOL0     C89933   2.638   5.690   3.586  0.2215  0.4670  0.3707
  667MOL0     O89934   2.696   5.554   3.601 -0.0903  0.3570 -0.5162
  667MOL0     C89935   2.821   5.527   3.645 -0.1033 -0.3862  0.5281
  667MOL0     C89936   2.878   5.396   3.632 -0.4436 -0.6323  0.0679
  667MOL0     C89937   3.012   5.381   3.644 -0.7654  0.5133  0.2694
  667MOL0     C89938   3.101   5.480   3.674 -0.1468 -0.2165 -0.5142
  667MOL0     C89939   3.242   5.454   3.709  0.1237  0.8778 -0.4903
  667MOL0     O89940   3.291   5.333   3.675 -0.6923 -0.5283  0.2247
  667MOL0     C89941   3.424   5.292   3.677 -0.1729 -0.4165 -0.6888
  667MOL0     C89942   3.533   5.386   3.672 -0.8285  0.8921  0.2610
  667MOL0     C89943   3.665   5.342   3.673 -1.4153 -0.7452 -0.7747
  667MOL0     C89944   3.699   5.211   3.688  0.0639 -1.1793 -1.0024
  667MOL0     O89945   3.822   5.164   3.704  0.0835 -0.7934  0.5096
  667MOL0     C89946   3.920   5.274   3.701  0.1854 -0.2038  0.7171
  667MOL0     C89947   4.060   5.238   3.732  0.5423  1.0627  0.6469
  667MOL0     C89948   4.131   5.155   3.618  0.7223  0.6231 -0.7769
  667MOL0     C89949   4.279   5.184   3.644  0.0017 -0.4483  0.2909
  667MOL0     C89950   4.383   5.079   3.586  0.4645 -0.6225 -0.6907
  667MOL0     C89951   4.372   4.958   3.669  0.4005  0.2137  0.2787
  667MOL0     C89952   4.456   4.845   3.599  0.3065  0.2222  0.0398
  667MOL0     C89953   4.445   4.726   3.689  0.6188 -0.1081 -0.5705
  667MOL0    Cl89954   4.500   4.584   3.609 -0.7181 -0.0538 -0.6237
  667MOL0     C89955   3.591   5.122   3.679 -0.4807  0.1038  0.8141
  667MOL0     C89956   3.462   5.155   3.666  1.1115  0.4417  0.6057
  667MOL0     O89957   3.302   5.547   3.757  0.2936 -0.2717  0.2351
  667MOL0     C89958   3.046   5.608   3.692  0.5495 -0.7519  0.5441
  667MOL0     C89959   2.913   5.628   3.678  0.2268  0.6150  0.4971
  667MOL0     N89960   2.525   5.633   3.058 -0.3150  0.0409 -0.3608
  667MOL0     N89961   2.564   5.576   2.948 -0.7212 -0.1527  0.1163
  667MOL0     C89962   2.300   5.086   2.337 -0.1498  0.5486  0.4646
  667MOL0     C89963   2.250   5.006   2.238 -1.1186 -0.3299 -0.4997
  667MOL0     C89964   2.092   4.807   1.895 -0.1968  1.0936  0.4942
  667MOL0     C89965   1.964   4.798   1.955 -0.4194 -0.3507 -0.4616
  667MOL0     C89966   1.859   4.722   1.907  0.3259 -0.0734  0.7724
  667MOL0     C89967   1.882   4.656   1.789  0.4926 -1.1150  0.5240
  667MOL0     O89968   1.780   4.579   1.736  0.1991  0.5625  0.4666
  667MOL0     C89969   1.752   4.456   1.802 -0.2753  0.5305  0.3248
  667MOL0     C89970   1.630   4.390   1.730  0.5724 -0.0554  0.3691
  667MOL0     C89971   1.645   4.325   1.589 -0.4815 -0.7121 -0.5730
  667MOL0     C89972   1.501   4.281   1.541 -0.5866 -0.7173 -0.1303
  667MOL0     C89973   1.410   4.392   1.483  0.8007 -0.1631 -0.0477
  667MOL0     C89974   1.335   4.473   1.443  0.2777 -0.1737  0.7084
  667MOL0     C89975   2.003   4.659   1.720 -0.8366 -0.1240 -0.0850
  667MOL0     C89976   2.117   4.721   1.782  0.4994 -0.3018  0.2475
  667MOL0     C89977   2.258   4.702   1.718 -0.1196  0.4280 -0.3565
  667MOL0     H89978   2.126   5.260   2.037 -0.0192 -1.3963 -0.6344
  667MOL0     H89979   2.193   5.393   2.224 -1.0493 -0.6214  2.3536
  667MOL0     H89980   2.502   5.335   2.512 -0.4603 -0.7536  0.7282
  667MOL0     H89981   2.506   5.264   2.349 -0.6915 -1.1102  1.1826
  667MOL0     H89982   2.398   5.551   2.388  1.5190  1.0303  0.1300
  667MOL0     H89983   2.443   5.474   2.238  1.8044 -1.3010 -0.7075
  667MOL0     H89984   2.618   5.595   2.245  2.2692  0.1783 -0.2437
  667MOL0     H89985   2.685   5.452   2.315  1.2902  2.0378  0.3863
  667MOL0     H89986   2.721   5.692   2.411  0.8282 -1.1425  0.6442
  667MOL0     H89987   2.557   5.675   2.478  0.5152 -0.2862  1.2580
  667MOL0     H89988   2.626   5.498   2.616 -3.9629  4.0797 -2.0774
  667MOL0     H89989   2.791   5.494   2.541  2.2678  1.6161  2.0584
  667MOL0     H89990   2.834   5.722   2.601 -0.8908 -0.6703 -2.4806
  667MOL0     H89991   2.694   5.732   2.703  0.3520 -0.7634  1.4069
  667MOL0     H89992   2.942   5.648   2.806  0.0562  1.3467 -1.2866
  667MOL0     H89993   2.926   5.510   2.712  3.7629  0.2154  4.1519
  667MOL0     H89994   2.725   5.431   2.812 -1.7402  1.4633 -2.1061
  667MOL0     H89995   2.870   5.452   2.912  1.5947 -0.1929 -2.2753
  667MOL0     H89996   2.845   5.607   3.106  1.0733 -1.4471 -2.9495
  667MOL0     H89997   2.727   5.695   3.336 -1.0110  0.3719  0.6643
  667MOL0     H89998   2.590   5.799   3.279  0.1034  1.2024  1.6209
  667MOL0     H89999   2.430   5.617   3.313  0.6620 -0.7220 -2.4698
  667MOL0     H90000   2.559   5.518   3.380 -2.0146  0.5414  2.0876
  667MOL0     H90001   2.443   5.602   3.563 -1.1173 -2.0901 -3.8944
  667MOL0     H90002   2.456   5.770   3.491  2.3573  0.4350 -5.0424
  667MOL0     H90003   2.611   5.742   3.679 -1.8453  0.2824 -0.0834
  667MOL0     H90004   2.703   5.760   3.533  0.2228  0.6477  0.6086
  667MOL0     H90005   2.814   5.319   3.592  0.1158 -1.3214  0.4862
  667MOL0     H90006   3.043   5.278   3.630 -1.4707  0.4733 -1.2378
  667MOL0     H90007   3.522   5.494   3.660  2.8989  1.5593  1.5601
  667MOL0     H90008   3.738   5.422   3.665  0.8380 -2.4553  0.9087
  667MOL0     H90009   3.910   5.325   3.604 -1.9292  0.3773  1.1755
  667MOL0     H90010   3.900   5.350   3.777  2.8057  1.3088  0.0104
  667MOL0     H90011   4.122   5.328   3.743  3.7805 -0.9916  0.4838
  667MOL0     H90012   4.057   5.177   3.823 -0.5652 -0.8352 -0.5912
  667MOL0     H90013   4.101   5.050   3.626 -2.7279  1.5324 -0.0335
  667MOL0     H90014   4.111   5.192   3.517  3.0656  1.4157 -1.0108
  667MOL0     H90015   4.306   5.201   3.749 -0.2532 -3.2912  0.8836
  667MOL0     H90016   4.300   5.286   3.608  0.4472  1.3943  5.0374
  667MOL0     H90017   4.488   5.109   3.579  0.4802 -0.5515 -0.2227
  667MOL0     H90018   4.340   5.076   3.486  2.2349 -0.0323 -1.5117
  667MOL0     H90019   4.419   4.982   3.765  1.1036  1.9900 -0.4682
  667MOL0     H90020   4.270   4.927   3.690 -0.0096  0.6008 -1.0351
  667MOL0     H90021   4.560   4.876   3.591  1.1118 -1.3023  3.0949
  667MOL0     H90022   4.413   4.825   3.500  1.2444  1.0409 -0.5648
  667MOL0     H90023   4.508   4.739   3.777  0.0226 -1.7469  0.1308
  667MOL0     H90024   4.343   4.702   3.720  0.1764 -0.0490 -1.8926
  667MOL0     H90025   3.619   5.023   3.645  1.7474 -0.8335  4.6954
  667MOL0     H90026   3.382   5.083   3.675  1.8635 -0.3154  1.3602
  667MOL0     H90027   3.104   5.693   3.729 -1.4085  0.8879  0.0370
  667MOL0     H90028   2.873   5.729   3.686 -0.4485  0.1858  4.4250
  667MOL0     H90029   2.354   5.039   2.418 -0.1849 -0.7805 -0.2493
  667MOL0     H90030   2.271   4.900   2.228 -0.7001 -0.3500  0.4765
  667MOL0     H90031   1.933   4.853   2.043  0.2651  0.1358 -0.5099
  667MOL0     H90032   1.758   4.731   1.946 -0.3192  0.8047 -0.9720
  667MOL0     H90033   1.720   4.476   1.905 -3.3750 -2.1153  0.0711
  667MOL0     H90034   1.848   4.404   1.808  0.3171  1.1744 -2.5391
  667MOL0     H90035   1.548   4.462   1.734  1.4653  1.0875 -0.6515
  667MOL0     H90036   1.605   4.306   1.795 -0.6708  0.2727  0.3308
  667MOL0     H90037   1.711   4.241   1.611  1.5495  0.6529 -1.2342
  667MOL0     H90038   1.698   4.370   1.504  2.0554 -2.2523  0.0916
  667MOL0     H90039   1.520   4.216   1.454  0.9981  2.1539 -2.1022
  667MOL0     H90040   1.436   4.224   1.609 -1.0276 -4.5233 -3.3747
  667MOL0     H90041   1.273   4.554   1.412 -0.8925 -0.8225  1.2877
  667MOL0     H90042   1.994   4.596   1.632 -0.3477 -1.3021  0.6771
  667MOL0     H90043   2.302   4.628   1.785 -1.4181  1.8145  2.1595
  667MOL0     H90044   2.248   4.659   1.618  3.4492 -0.5715 -0.4372
  667MOL0     H90045   2.323   4.791   1.717  0.2970  0.1923  1.7521
  668MOL0     O90046   3.779   3.363   6.989  0.3985  0.1665 -0.2912
  668MOL0     C90047   3.840   3.459   6.937 -0.2663  0.1490 -0.1340
  668MOL0     O90048   3.885   3.453   6.810  0.2235 -0.7125  0.2645
  668MOL0     C90049   3.837   3.356   6.726  0.4730  1.2367 -0.0590
  668MOL0     C90050   3.898   3.230   6.729  0.1653 -0.5289  0.7588
  668MOL0     C90051   3.851   3.134   6.635  0.6105 -0.7476 -0.4879
  668MOL0     C90052   3.750   3.162   6.543 -0.3739 -0.0832  0.6213
  668MOL0     O90053   3.702   3.075   6.446 -0.5543  0.6397  0.4605
  668MOL0     C90054   3.769   2.945   6.440 -0.6006 -0.3799 -0.3972
  668MOL0     C90055   3.683   2.858   6.335 -0.2418 -0.7024 -0.7867
  668MOL0     C90056   3.699   2.708   6.343  0.3205  0.6734  0.5786
  668MOL0     C90057   3.625   2.634   6.450 -0.4874 -0.4889  1.4246
  668MOL0     C90058   3.612   2.498   6.403 -0.3898  0.1664  0.0003
  668MOL0     C90059   3.514   2.425   6.484 -0.3589  0.6926 -0.2893
  668MOL0     C90060   3.536   2.278   6.464 -0.0544 -0.2551  0.3801
  668MOL0     C90061   3.403   2.210   6.478  0.1861  0.4095  0.1908
  668MOL0     N90062   3.412   2.067   6.444 -0.1395 -0.5291 -0.3368
  668MOL0     C90063   3.313   1.987   6.494 -0.1555 -0.1012  0.6068
  668MOL0     C90064   3.354   1.863   6.478  0.7876  0.6900  1.1998
  668MOL0     C90065   3.265   1.742   6.490 -0.2922  0.0556  0.0903
  668MOL0     C90066   3.226   1.689   6.356 -0.6170  0.1460 -0.1725
  668MOL0     C90067   3.169   1.542   6.349  0.7306  0.0206 -0.5643
  668MOL0     C90068   3.045   1.521   6.434 -0.6759 -0.2308  0.6578
  668MOL0     O90069   2.979   1.394   6.398  0.3222  0.6350 -0.0969
  668MOL0     C90070   3.035   1.277   6.436 -0.9569 -0.1772 -0.3594
  668MOL0     C90071   3.128   1.260   6.541  0.3492  0.1924 -0.2439
  668MOL0     C90072   3.184   1.135   6.563  0.4209  0.4744  0.5121
  668MOL0     C90073   3.133   1.021   6.497  0.2887  0.1131  0.3947
  668MOL0     C90074   3.170   0.883   6.537 -0.3535 -0.6445  0.4384
  668MOL0     O90075   3.100   0.784   6.475 -0.1597 -0.8094 -0.2534
  668MOL0     C90076   3.080   0.666   6.528 -0.2644  0.3916  0.6630
  668MOL0     C90077   3.015   0.577   6.442  0.8867  1.5830 -0.2385
  668MOL0     C90078   2.984   0.439   6.482  0.4201 -0.9228  0.5565
  668MOL0     C90079   3.017   0.395   6.609  0.0379  0.3158 -0.6830
  668MOL0     O90080   2.999   0.263   6.657  0.8286  0.4771  0.3261
  668MOL0     C90081   2.894   0.177   6.598  0.4296  0.3348 -0.0305
  668MOL0     C90082   2.865   0.062   6.704 -0.0528 -0.5216  0.0411
  668MOL0     C90083   2.758  -0.029   6.648 -0.1067 -0.6761 -0.6135
  668MOL0     C90084   2.798  -0.104   6.524 -0.3607 -0.1431  0.6977
  668MOL0     C90085   2.929  -0.182   6.547 -0.7444  0.0961  0.1804
  668MOL0     C90086   2.951  -0.272   6.427 -0.0072 -0.6402 -0.3138
  668MOL0     C90087   3.080  -0.353   6.416 -0.6327 -0.8595 -0.2051
  668MOL0     C90088   3.059  -0.477   6.321 -0.1516 -0.0575 -0.1481
  668MOL0    Cl90089   2.951  -0.606   6.395 -0.0141  0.0640  0.0124
  668MOL0     C90090   3.086   0.483   6.700  0.4492 -0.4129  0.4180
  668MOL0     C90091   3.107   0.619   6.662 -0.6243 -0.0457 -0.2104
  668MOL0     O90092   3.255   0.867   6.625 -0.0587  0.1508  0.5538
  668MOL0     C90093   3.044   1.042   6.388 -0.8295 -0.1445  0.5957
  668MOL0     C90094   2.994   1.164   6.360  0.2101 -0.2764 -0.0825
  668MOL0     N90095   3.480   1.866   6.411 -0.4467 -0.6281  0.4295
  668MOL0     N90096   3.509   1.994   6.387  0.9096  0.0136 -0.6921
  668MOL0     C90097   3.701   3.296   6.534  0.0278 -0.1909  0.1792
  668MOL0     C90098   3.741   3.388   6.632  0.9937  0.1943  0.6739
  668MOL0     C90099   3.892   3.571   7.022  0.5645 -0.2953 -1.3180
  668MOL0     C90100   4.010   3.648   6.984 -0.5401 -0.9244 -1.0630
  668MOL0     C90101   4.054   3.761   7.064 -0.2006  0.7662 -0.1064
  668MOL0     C90102   3.986   3.785   7.181 -0.0369 -0.2161 -0.2258
  668MOL0     O90103   4.038   3.889   7.262  0.2123  0.3447  0.3388
  668MOL0     C90104   4.043   4.017   7.206  0.4888 -0.7836 -0.3134
  668MOL0     C90105   3.981   4.109   7.312 -0.0480 -0.5647  0.1017
  668MOL0     C90106   3.924   4.243   7.252 -0.9594  0.0238  0.2879
  668MOL0     C90107   3.798   4.223   7.174  0.2287 -0.0257 -0.3544
  668MOL0     C90108   3.817   4.238   7.030 -1.5790 -1.0368 -0.2956
  668MOL0     C90109   3.858   4.279   6.921  0.2616 -0.1079 -0.6545
  668MOL0     C90110   3.875   3.723   7.218  0.3565 -0.3409 -0.9305
  668MOL0     C90111   3.832   3.608   7.150 -0.1511  1.0626 -0.5726
  668MOL0     C90112   3.707   3.553   7.202  0.1610  0.1464 -0.0534
  668MOL0     H90113   3.971   3.205   6.805  0.4370 -0.9695  0.3600
  668MOL0     H90114   3.904   3.039   6.625 -1.1313 -1.7208 -0.8850
  668MOL0     H90115   3.875   2.950   6.414 -0.9048  0.9603 -1.4426
  668MOL0     H90116   3.764   2.898   6.539 -0.0774  1.9763  0.8117
  668MOL0     H90117   3.706   2.896   6.236 -3.6812 -0.5753 -1.6681
  668MOL0     H90118   3.576   2.878   6.347  0.2123  3.1544 -1.7405
  668MOL0     H90119   3.808   2.698   6.353  0.6067 -0.6352 -2.7874
  668MOL0     H90120   3.676   2.673   6.242  1.1274  0.6333  0.3983
  668MOL0     H90121   3.673   2.625   6.548 -0.6585 -3.4053  1.3211
  668MOL0     H90122   3.530   2.686   6.460 -1.1106 -1.3483  0.1111
  668MOL0     H90123   3.568   2.484   6.303 -2.7528  3.5951  0.4000
  668MOL0     H90124   3.708   2.445   6.411 -0.1987  0.7705  2.2873
  668MOL0     H90125   3.544   2.440   6.588  4.3001  4.1989 -1.8217
  668MOL0     H90126   3.408   2.451   6.475 -0.9854 -1.1981  0.9277
  668MOL0     H90127   3.605   2.231   6.535 -1.2573 -2.0045  0.4484
  668MOL0     H90128   3.580   2.268   6.365 -0.3498  1.1161  0.0916
  668MOL0     H90129   3.356   2.221   6.576 -2.9233  2.6741 -1.3810
  668MOL0     H90130   3.340   2.268   6.409 -0.5518  2.1782  2.2184
  668MOL0     H90131   3.215   2.016   6.528 -0.0194 -0.4630  1.3280
  668MOL0     H90132   3.330   1.668   6.538  3.1017  2.0844 -0.9781
  668MOL0     H90133   3.179   1.755   6.556  0.5703  0.3720  1.1877
  668MOL0     H90134   3.157   1.752   6.298  1.3451 -1.0300 -4.1492
  668MOL0     H90135   3.315   1.689   6.293 -0.7818  3.3394 -0.5742
  668MOL0     H90136   3.236   1.460   6.373 -1.1986 -2.6348 -3.4705
  668MOL0     H90137   3.148   1.522   6.244  0.8460  0.6468 -0.7135
  668MOL0     H90138   2.974   1.602   6.414  0.1877  0.2801 -0.4603
  668MOL0     H90139   3.065   1.525   6.541 -2.0445 -1.2320  0.9811
  668MOL0     H90140   3.169   1.345   6.596 -0.3698 -0.4491  1.3479
  668MOL0     H90141   3.262   1.133   6.638  0.9162 -1.0418  0.0001
  668MOL0     H90142   2.997   0.613   6.341 -3.4785  2.7231  0.7605
  668MOL0     H90143   2.937   0.381   6.404  0.5194  0.3262 -0.4586
  668MOL0     H90144   2.802   0.230   6.573 -1.2449 -1.9337  1.0399
  668MOL0     H90145   2.928   0.136   6.502 -1.0680  2.3805 -1.5288
  668MOL0     H90146   2.951  -0.001   6.728 -0.9808 -1.6865  0.3509
  668MOL0     H90147   2.838   0.112   6.798  2.6103 -1.3607  1.3423
  668MOL0     H90148   2.720  -0.087   6.733 -0.8255  2.2245  1.1595
  668MOL0     H90149   2.675   0.040   6.629 -0.5103 -1.1035 -0.4523
  668MOL0     H90150   2.807  -0.034   6.441  0.4888  1.5530  2.1552
  668MOL0     H90151   2.714  -0.174   6.511  1.5676 -2.6388  0.9719
  668MOL0     H90152   2.934  -0.249   6.634  2.0344 -2.9884 -2.1069
  668MOL0     H90153   3.018  -0.118   6.554 -0.8679  0.3834 -0.8011
  668MOL0     H90154   2.876  -0.352   6.433 -0.4466 -0.1603  4.1520
  668MOL0     H90155   2.933  -0.213   6.337  3.8521 -1.8910 -2.0893
  668MOL0     H90156   3.120  -0.389   6.512  1.8930  1.3048 -0.3593
  668MOL0     H90157   3.164  -0.297   6.375  0.5620 -0.9733  1.9551
  668MOL0     H90158   3.006  -0.445   6.231 -1.8224 -0.9902  0.4761
  668MOL0     H90159   3.156  -0.516   6.287 -0.4171  1.1292 -2.4988
  668MOL0     H90160   3.122   0.446   6.795  0.6017 -1.8189 -0.1597
  668MOL0     H90161   3.160   0.673   6.740  0.2307  0.9106 -1.4092
  668MOL0     H90162   3.006   0.963   6.324 -0.0990 -1.3267  1.5661
  668MOL0     H90163   2.925   1.178   6.277  2.9231  1.5099 -2.2037
  668MOL0     H90164   3.635   3.339   6.458  1.6365  7.4436  2.2767
  668MOL0     H90165   3.709   3.491   6.623 -1.4570 -0.4175  1.6182
  668MOL0     H90166   4.067   3.643   6.892  1.7270 -0.6427  0.2573
  668MOL0     H90167   4.135   3.820   7.025  0.7592  0.1589  0.9144
  668MOL0     H90168   3.983   4.020   7.114 -0.3978 -1.8433  0.1975
  668MOL0     H90169   4.145   4.048   7.184  0.3505 -1.8403 -2.7681
  668MOL0     H90170   4.045   4.138   7.396 -0.8728 -1.3169  1.0244
  668MOL0     H90171   3.892   4.062   7.355  0.1783  1.1343  2.5913
  668MOL0     H90172   3.993   4.282   7.177 -0.9594 -0.2396  0.1526
  668MOL0     H90173   3.913   4.319   7.330  1.2740  0.5607  0.1455
  668MOL0     H90174   3.754   4.124   7.188 -1.6929  0.2921 -3.1386
  668MOL0     H90175   3.719   4.289   7.212  1.1005  0.1404  1.2365
  668MOL0     H90176   3.891   4.337   6.837  2.7510  0.4490  0.6168
  668MOL0     H90177   3.838   3.754   7.315  2.8268  0.9065 -0.3031
  668MOL0     H90178   3.621   3.587   7.143 -1.4451 -3.5926 -0.1353
  668MOL0     H90179   3.704   3.444   7.214  1.2850  0.1782  0.6885
  668MOL0     H90180   3.691   3.590   7.304 -0.3196 -0.0725 -0.0500
  669MOL0     O90181   5.654   1.763   5.288  0.5364 -0.5943  0.7426
  669MOL0     C90182   5.531   1.793   5.286 -0.1096 -0.1553  0.3694
  669MOL0     O90183   5.442   1.744   5.364 -0.3276  0.1892  0.4934
  669MOL0     C90184   5.469   1.641   5.456 -0.3745 -1.4344 -0.1338
  669MOL0     C90185   5.559   1.664   5.558  0.6321 -0.0425  0.8011
  669MOL0     C90186   5.594   1.568   5.647 -0.0852  0.3672  0.0125
  669MOL0     C90187   5.544   1.442   5.650  0.6646 -0.0394 -0.2649
  669MOL0     O90188   5.591   1.345   5.741 -0.2156  0.2372  0.0257
  669MOL0     C90189   5.503   1.233   5.760  0.9407  0.3537  1.1042
  669MOL0     C90190   5.511   1.190   5.894 -0.3378 -0.6167  0.5286
  669MOL0     C90191   5.654   1.153   5.946 -0.8632  0.8808  0.4674
  669MOL0     C90192   5.660   1.130   6.104 -0.0179  0.4420  0.3807
  669MOL0     C90193   5.799   1.120   6.159 -0.0292  0.9131  0.7680
  669MOL0     C90194   5.899   1.021   6.091  1.0241  1.1341  0.2234
  669MOL0     C90195   6.033   1.055   6.158 -0.8310  1.4379 -0.8405
  669MOL0     C90196   6.143   0.952   6.121 -0.3099 -0.0593 -0.2419
  669MOL0     N90197   6.260   0.973   6.202  0.0666 -0.8794  0.1222
  669MOL0     C90198   6.263   0.970   6.337 -1.4173  0.3218 -0.0320
  669MOL0     C90199   6.398   0.975   6.370  0.4433  0.1678  1.2343
  669MOL0     C90200   6.464   0.979   6.506 -0.1805  1.0661  0.6575
  669MOL0     C90201   6.509   0.827   6.524  0.1269 -0.0509 -0.3451
  669MOL0     C90202   6.562   0.779   6.656 -0.5699 -0.2772 -0.1436
  669MOL0     C90203   6.712   0.787   6.670 -0.7454  0.0918  0.1699
  669MOL0     O90204   6.757   0.805   6.801 -0.0724 -0.7048 -0.5287
  669MOL0     C90205   6.745   0.925   6.866 -0.0319 -0.2135  0.7852
  669MOL0     C90206   6.719   1.052   6.805 -0.7032  0.4066  1.1821
  669MOL0     C90207   6.727   1.159   6.886  0.5531 -0.8161  0.8080
  669MOL0     C90208   6.756   1.154   7.026 -0.5721  0.7726 -0.5750
  669MOL0     C90209   6.751   1.273   7.104 -0.0178 -0.4906 -0.8301
  669MOL0     O90210   6.727   1.394   7.046  0.5467 -0.6965  0.0377
  669MOL0     C90211   6.753   1.508   7.112 -0.0618  0.6063 -0.1497
  669MOL0     C90212   6.659   1.586   7.173 -0.7422 -1.3157 -0.2517
  669MOL0     C90213   6.691   1.715   7.230 -0.2467 -0.2405 -0.1546
  669MOL0     C90214   6.829   1.751   7.238 -0.8392 -0.0052  0.7017
  669MOL0     O90215   6.875   1.867   7.299  0.3452  0.3607  0.3509
  669MOL0     C90216   6.799   1.981   7.269  0.3303 -0.6467 -0.5289
  669MOL0     C90217   6.880   2.079   7.187 -0.3411  0.0929 -0.0664
  669MOL0     C90218   6.820   2.219   7.231  0.5950  0.4024  0.6712
  669MOL0     C90219   6.668   2.234   7.202 -0.4709 -0.1693 -0.3777
  669MOL0     C90220   6.638   2.383   7.212  0.2323  0.5562  0.3749
  669MOL0     C90221   6.502   2.407   7.273 -0.2792  0.8301  0.6521
  669MOL0     C90222   6.458   2.552   7.265 -0.5473  0.4832  0.4338
  669MOL0     C90223   6.354   2.588   7.360 -0.1208 -0.1122 -0.5248
  669MOL0    Cl90224   6.313   2.765   7.329  0.6713  0.4459 -0.1585
  669MOL0     C90225   6.928   1.673   7.184 -0.3191  0.4675 -0.4451
  669MOL0     C90226   6.898   1.549   7.118 -0.0924  0.1785  0.3755
  669MOL0     O90227   6.771   1.261   7.229 -0.5918 -0.3519 -0.4053
  669MOL0     C90228   6.777   1.027   7.075 -0.4939 -0.1560 -0.1319
  669MOL0     C90229   6.764   0.908   7.002 -1.0770 -0.1332  0.4707
  669MOL0     N90230   6.476   0.977   6.252 -0.7645 -0.6287  0.2803
  669MOL0     N90231   6.389   0.980   6.153 -0.5978 -0.0502 -0.3555
  669MOL0     C90232   5.436   1.416   5.559 -0.2491 -0.4831 -0.0093
  669MOL0     C90233   5.408   1.512   5.458  0.5967  0.5520  0.1817
  669MOL0     C90234   5.481   1.909   5.204  0.0243  0.8248  0.2467
  669MOL0     C90235   5.345   1.947   5.212 -0.6597 -0.4247 -0.2895
  669MOL0     C90236   5.299   2.064   5.144  0.3908  0.3438 -0.8284
  669MOL0     C90237   5.389   2.141   5.071  0.3393  0.3089 -0.3371
  669MOL0     O90238   5.332   2.250   5.018  0.3412  0.5985  0.5322
  669MOL0     C90239   5.387   2.316   4.905 -0.2129  0.3222 -0.2056
  669MOL0     C90240   5.310   2.446   4.864 -1.1239  0.2321  0.0449
  669MOL0     C90241   5.292   2.545   4.979 -0.1491 -0.7648  0.0453
  669MOL0     C90242   5.255   2.691   4.938 -0.4662  1.1416  1.3887
  669MOL0     C90243   5.357   2.741   4.842  0.5929  0.4268 -0.8230
  669MOL0     C90244   5.450   2.767   4.772 -0.4064 -0.0375  0.2315
  669MOL0     C90245   5.521   2.101   5.055 -0.9912  0.2435  0.3938
  669MOL0     C90246   5.565   1.989   5.119  0.3988 -0.9047 -0.3859
  669MOL0     C90247   5.710   1.953   5.087 -0.0926  0.7156  0.0559
  669MOL0     H90248   5.612   1.757   5.571  1.1547  0.5079 -3.6314
  669MOL0     H90249   5.669   1.609   5.714 -0.0434  2.0538 -0.9942
  669MOL0     H90250   5.398   1.260   5.746  1.3514  0.8454 -1.7653
  669MOL0     H90251   5.520   1.144   5.698  0.9010  3.1115 -3.3421
  669MOL0     H90252   5.440   1.109   5.910 -2.5994  0.9928 -0.8348
  669MOL0     H90253   5.481   1.269   5.963 -2.1808 -1.5095  0.8079
  669MOL0     H90254   5.736   1.221   5.922  0.9069 -1.9304 -2.1467
  669MOL0     H90255   5.678   1.058   5.896  1.1572  1.6542 -0.1202
  669MOL0     H90256   5.611   1.214   6.152  0.1657  0.6381  0.2308
  669MOL0     H90257   5.612   1.036   6.131  0.9319  0.0706  0.8283
  669MOL0     H90258   5.842   1.221   6.159 -0.2632  1.0362 -0.9303
  669MOL0     H90259   5.789   1.103   6.267 -0.8632  0.7185  0.6636
  669MOL0     H90260   5.876   0.915   6.103  3.0535  0.3830 -1.8509
  669MOL0     H90261   5.911   1.031   5.983 -1.3385  2.1683 -0.0049
  669MOL0     H90262   6.024   1.046   6.267 -0.3288 -1.8095 -0.9596
  669MOL0     H90263   6.067   1.155   6.129  0.2778  0.9895 -1.1527
  669MOL0     H90264   6.108   0.849   6.135 -0.3060 -0.2021 -1.2094
  669MOL0     H90265   6.161   0.969   6.015 -2.5177  2.5299 -0.3195
  669MOL0     H90266   6.184   0.973   6.411 -0.3017  0.2906  1.2019
  669MOL0     H90267   6.556   1.036   6.491  1.8450 -1.9411  0.8340
  669MOL0     H90268   6.396   1.025   6.579 -1.4739  0.0131  0.1625
  669MOL0     H90269   6.410   0.783   6.508 -0.7606  0.4936  3.0174
  669MOL0     H90270   6.577   0.794   6.445  0.8609 -2.1211  1.0577
  669MOL0     H90271   6.522   0.679   6.675  1.6087 -1.0761  0.5671
  669MOL0     H90272   6.523   0.844   6.734 -1.9980 -1.6972  0.3806
  669MOL0     H90273   6.750   0.870   6.610 -0.4149  0.0965  0.3801
  669MOL0     H90274   6.749   0.690   6.634  1.9355  0.0652  2.6331
  669MOL0     H90275   6.677   1.071   6.707 -1.7457 -3.2231  0.7719
  669MOL0     H90276   6.710   1.258   6.844  0.3371  0.1538  3.0287
  669MOL0     H90277   6.554   1.560   7.161 -1.5195  2.2883 -3.2744
  669MOL0     H90278   6.612   1.780   7.265 -1.9169 -1.5489 -1.3444
  669MOL0     H90279   6.708   1.973   7.208  2.9185  2.0711 -5.3913
  669MOL0     H90280   6.778   2.019   7.370  2.1508  0.5465 -0.5497
  669MOL0     H90281   6.984   2.071   7.223 -1.1225  0.5461  2.4941
  669MOL0     H90282   6.881   2.055   7.080  1.9582 -1.0773  0.1512
  669MOL0     H90283   6.844   2.235   7.337  0.7753 -1.4968  0.9499
  669MOL0     H90284   6.868   2.292   7.165  0.1369  0.8807  0.8628
  669MOL0     H90285   6.619   2.175   7.280 -1.1429 -1.4322 -1.7109
  669MOL0     H90286   6.638   2.195   7.104 -0.6021  3.8540 -2.1233
  669MOL0     H90287   6.622   2.423   7.112 -1.9814  0.6009  0.6949
  669MOL0     H90288   6.714   2.430   7.276  2.7120 -1.9545 -0.5406
  669MOL0     H90289   6.426   2.351   7.216 -0.5990  3.0718 -1.2732
  669MOL0     H90290   6.497   2.368   7.375  0.9995 -4.4901 -0.9534
  669MOL0     H90291   6.419   2.568   7.165  0.2725  0.3964  0.0934
  669MOL0     H90292   6.542   2.621   7.280  0.1684  0.5587 -3.1680
  669MOL0     H90293   6.255   2.543   7.343 -0.7048  1.5640 -1.8970
  669MOL0     H90294   6.387   2.577   7.463 -4.2487  0.0081  1.0236
  669MOL0     H90295   7.035   1.691   7.183  0.5582 -3.2644  2.9198
  669MOL0     H90296   6.971   1.491   7.063 -2.2840 -0.3092 -2.2277
  669MOL0     H90297   6.777   1.010   7.183 -0.0402 -0.4095 -0.1676
  669MOL0     H90298   6.752   0.807   7.041 -1.0766 -0.2010  0.2962
  669MOL0     H90299   5.389   1.318   5.560 -2.4775  0.5223 -0.3831
  669MOL0     H90300   5.324   1.488   5.393  2.7371 -3.6798 -1.3851
  669MOL0     H90301   5.275   1.906   5.284 -1.2251 -2.2525 -1.8113
  669MOL0     H90302   5.197   2.099   5.157 -0.2205 -2.1359  2.7243
  669MOL0     H90303   5.383   2.252   4.817  2.5853  0.3356 -0.4200
  669MOL0     H90304   5.491   2.343   4.924 -0.0377 -1.0856  1.0172
  669MOL0     H90305   5.211   2.427   4.821 -1.4711  0.8690  0.5326
  669MOL0     H90306   5.370   2.472   4.776  0.8388  0.6416  1.4458
  669MOL0     H90307   5.380   2.557   5.042 -0.8192  0.1493  0.8295
  669MOL0     H90308   5.215   2.510   5.048 -2.9079 -1.9951 -3.3534
  669MOL0     H90309   5.165   2.682   4.877 -0.6826  0.1795  1.8214
  669MOL0     H90310   5.249   2.762   5.021  2.4906  2.9784  0.1652
  669MOL0     H90311   5.527   2.812   4.712 -3.5822  4.5560 -0.9168
  669MOL0     H90312   5.594   2.172   5.018 -2.6614  2.4635  1.1432
  669MOL0     H90313   5.762   2.040   5.046  1.2799  0.2347  0.6995
  669MOL0     H90314   5.763   1.931   5.180 -1.5115  4.2437  1.8676
  669MOL0     H90315   5.728   1.865   5.024  1.0952 -2.5747  4.4889
  670MOL0     O90316   0.126   3.273   4.032 -0.1764 -0.2174  0.0941
  670MOL0     C90317   0.087   3.382   4.078 -0.5137  0.5437 -0.1575
  670MOL0     O90318   0.162   3.493   4.083  1.0247  0.1666 -0.1501
  670MOL0     C90319   0.304   3.492   4.106 -0.5399 -0.3786  0.5001
  670MOL0     C90320   0.363   3.606   4.169  0.3944 -0.8826  0.3442
  670MOL0     C90321   0.498   3.606   4.211  0.3110  0.9978  0.8984
  670MOL0     C90322   0.581   3.501   4.161 -0.0702  0.1467  0.6482
  670MOL0     O90323   0.717   3.500   4.196 -0.4969  0.5891 -0.2958
  670MOL0     C90324   0.798   3.589   4.117 -0.0192  0.9962  0.3520
  670MOL0     C90325   0.945   3.563   4.126 -0.0616 -0.3992  0.5491
  670MOL0     C90326   1.024   3.644   4.027  0.4295  0.3236 -0.3598
  670MOL0     C90327   1.023   3.593   3.882  0.6682  0.3335  0.7670
  670MOL0     C90328   1.074   3.696   3.769  0.1686  0.5110  0.2131
  670MOL0     C90329   0.998   3.826   3.761  0.0962  0.2702 -0.1722
  670MOL0     C90330   1.015   3.905   3.626 -0.8278  0.3236 -1.2875
  670MOL0     C90331   1.152   3.971   3.605  0.1338 -0.4422  0.6714
  670MOL0     N90332   1.185   4.054   3.720  0.2810  0.4768 -0.2823
  670MOL0     C90333   1.139   4.185   3.750  0.5120 -0.2027  0.9909
  670MOL0     C90334   1.196   4.212   3.870 -0.0993 -0.7198 -0.1487
  670MOL0     C90335   1.195   4.334   3.950 -0.6302 -0.0502 -0.3782
  670MOL0     C90336   1.057   4.385   3.997 -0.2791  0.8608 -0.0832
  670MOL0     C90337   1.084   4.490   4.111  0.5008  0.6958  0.8589
  670MOL0     C90338   0.948   4.564   4.140  0.4571  0.3153  1.0215
  670MOL0     O90339   0.968   4.657   4.247 -0.5698  0.5517 -0.7645
  670MOL0     C90340   0.969   4.607   4.386  0.9054 -0.6262  0.5339
  670MOL0     C90341   0.960   4.478   4.428 -0.9851 -0.3016  0.8280
  670MOL0     C90342   0.954   4.442   4.563 -0.1537  0.0251 -0.0465
  670MOL0     C90343   0.966   4.543   4.664 -0.4948 -0.0260 -0.3925
  670MOL0     C90344   0.942   4.515   4.802  0.5856 -0.1200 -0.3314
  670MOL0     O90345   0.908   4.388   4.836 -0.2041  0.6529 -0.1996
  670MOL0     C90346   0.860   4.354   4.967 -0.2329  0.1896  0.1354
  670MOL0     C90347   0.763   4.429   5.047  0.6623  0.5818  0.1008
  670MOL0     C90348   0.724   4.386   5.172  0.5848 -0.6849 -0.6505
  670MOL0     C90349   0.780   4.275   5.229  0.1883  0.9304 -0.0179
  670MOL0     O90350   0.751   4.222   5.358 -0.4777  0.2987  0.2210
  670MOL0     C90351   0.693   4.316   5.454  0.4355 -0.5554  0.6148
  670MOL0     C90352   0.543   4.287   5.457 -0.0355  0.8504  0.7278
  670MOL0     C90353   0.470   4.350   5.573  0.9322  0.3885  0.2427
  670MOL0     C90354   0.321   4.355   5.555  1.1281 -0.9875  0.0846
  670MOL0     C90355   0.247   4.422   5.664 -0.0898  0.0941 -0.5121
  670MOL0     C90356   0.263   4.574   5.683 -1.2438 -0.0749  1.9033
  670MOL0     C90357   0.174   4.631   5.793 -0.4242 -0.0214  0.0490
  670MOL0     C90358   0.193   4.783   5.803 -0.5688 -0.2296  0.6394
  670MOL0    Cl90359   0.164   4.888   5.659 -0.0812  0.2018  0.0233
  670MOL0     C90360   0.850   4.197   5.137 -0.3230 -0.2296 -0.8201
  670MOL0     C90361   0.897   4.232   5.016  0.7164 -0.8526 -0.0277
  670MOL0     O90362   0.957   4.600   4.886 -0.3663 -1.0322  0.5902
  670MOL0     C90363   0.974   4.680   4.621 -0.3486  0.3506 -0.9225
  670MOL0     C90364   0.983   4.704   4.483 -0.3582  0.5408 -0.3545
  670MOL0     N90365   1.282   4.104   3.907 -0.6257  0.0078  0.1285
  670MOL0     N90366   1.262   4.010   3.825  0.2909 -0.5739 -0.6773
  670MOL0     C90367   0.528   3.396   4.094 -1.1516  0.4631  1.2202
  670MOL0     C90368   0.396   3.392   4.058  0.2387  0.2355  0.3335
  670MOL0     C90369  -0.050   3.401   4.131  1.1994  0.2560  0.6871
  670MOL0     C90370  -0.110   3.527   4.148 -0.6628 -0.4665  0.0251
  670MOL0     C90371  -0.251   3.543   4.192 -0.2078 -0.1616 -0.4432
  670MOL0     C90372  -0.324   3.432   4.217 -0.4628  0.5314  0.0130
  670MOL0     O90373  -0.460   3.456   4.249 -0.2735  0.0044  0.6567
  670MOL0     C90374  -0.546   3.345   4.231  0.2289 -0.3836 -0.7277
  670MOL0     C90375  -0.572   3.315   4.083 -0.9253  0.0301 -0.7260
  670MOL0     C90376  -0.710   3.245   4.078 -0.2816 -0.0616  0.1758
  670MOL0     C90377  -0.710   3.099   4.138 -0.1938 -0.4742  0.7987
  670MOL0     C90378  -0.825   3.010   4.115  0.0064  0.1200  0.8045
  670MOL0     C90379  -0.924   2.952   4.093 -0.5715  0.6058 -0.0548
  670MOL0     C90380  -0.265   3.308   4.213  0.2473 -0.1591  0.1173
  670MOL0     C90381  -0.129   3.289   4.172  0.1156 -0.1448  0.8220
  670MOL0     C90382  -0.085   3.144   4.157  0.6428  0.8601 -0.0811
  670MOL0     H90383   0.312   3.694   4.207 -1.2417  0.3133 -4.0209
  670MOL0     H90384   0.526   3.696   4.267 -1.3515  1.3926  1.1438
  670MOL0     H90385   0.770   3.581   4.011  1.6165  0.7817 -0.1026
  670MOL0     H90386   0.782   3.691   4.151  0.9126  0.6110  2.0337
  670MOL0     H90387   0.984   3.462   4.140 -0.2262 -0.2742  2.0554
  670MOL0     H90388   0.966   3.602   4.226  1.2631  2.8640 -0.8469
  670MOL0     H90389   1.122   3.654   4.074  1.2960  0.1319 -2.0782
  670MOL0     H90390   0.983   3.745   4.030  2.1481  1.0277  1.3721
  670MOL0     H90391   1.084   3.502   3.880  1.3089  0.7570  0.7344
  670MOL0     H90392   0.922   3.562   3.854  0.9881 -1.2419  1.2643
  670MOL0     H90393   1.177   3.722   3.794 -0.4421  2.5050  0.8207
  670MOL0     H90394   1.083   3.643   3.674 -1.9722 -1.0959  0.8352
  670MOL0     H90395   0.893   3.796   3.756  0.6273 -1.4409 -3.2399
  670MOL0     H90396   1.026   3.884   3.850 -1.7766 -1.2453  1.5063
  670MOL0     H90397   0.944   3.989   3.623  1.9074  2.7698 -3.2427
  670MOL0     H90398   1.000   3.835   3.544 -0.5470  0.7563 -1.7115
  670MOL0     H90399   1.226   3.893   3.586  0.8154  0.6128 -1.2741
  670MOL0     H90400   1.140   4.023   3.510 -2.1104  0.8123  1.5637
  670MOL0     H90401   1.071   4.236   3.682  1.2167 -0.7224 -0.1413
  670MOL0     H90402   1.264   4.313   4.033 -1.3997  1.3859  0.6744
  670MOL0     H90403   1.239   4.423   3.904  0.9636 -0.8233 -0.4227
  670MOL0     H90404   1.003   4.436   3.917  0.2022  2.0916  0.3623
  670MOL0     H90405   0.997   4.299   4.029 -1.2637  0.6960 -2.1417
  670MOL0     H90406   1.154   4.570   4.085 -0.6441  0.8866 -1.8986
  670MOL0     H90407   1.125   4.433   4.195 -2.5487 -0.7200  1.5114
  670MOL0     H90408   0.864   4.500   4.170 -1.0076  2.4775  1.7964
  670MOL0     H90409   0.913   4.614   4.049 -1.0777 -1.4481  0.5820
  670MOL0     H90410   0.953   4.404   4.349  1.2260  0.9732 -0.6658
  670MOL0     H90411   0.950   4.337   4.589  3.7556 -0.7605 -1.8609
  670MOL0     H90412   0.718   4.518   5.004 -1.2670 -1.1107 -1.6278
  670MOL0     H90413   0.640   4.435   5.221 -0.6188 -1.9052 -1.4280
  670MOL0     H90414   0.728   4.294   5.555  0.0386 -0.7799  0.7053
  670MOL0     H90415   0.708   4.421   5.427 -1.8704 -0.9971 -3.1346
  670MOL0     H90416   0.494   4.317   5.363  0.0976  1.9338  0.9957
  670MOL0     H90417   0.534   4.178   5.460 -1.7617  0.8206 -1.8834
  670MOL0     H90418   0.477   4.301   5.671  0.0977  2.4843  1.4134
  670MOL0     H90419   0.511   4.451   5.581 -1.4401  1.5035 -0.5977
  670MOL0     H90420   0.284   4.253   5.543  0.7614 -0.6936 -1.5246
  670MOL0     H90421   0.290   4.397   5.459 -0.6923 -4.5525 -1.0536
  670MOL0     H90422   0.276   4.381   5.761 -1.7017  0.6363  0.2250
  670MOL0     H90423   0.142   4.395   5.660  0.1358 -0.7503 -0.9542
  670MOL0     H90424   0.368   4.603   5.696 -0.7028  0.3768 -2.0694
  670MOL0     H90425   0.224   4.618   5.591 -3.1752  0.4567  2.9213
  670MOL0     H90426   0.206   4.582   5.885  2.9403  3.3661  0.9332
  670MOL0     H90427   0.068   4.612   5.775 -0.6108  1.9935 -1.2726
  670MOL0     H90428   0.137   4.829   5.886 -0.7779 -2.7351  2.0001
  670MOL0     H90429   0.298   4.805   5.824 -0.7141  2.6155 -1.1312
  670MOL0     H90430   0.882   4.096   5.161 -0.1994 -0.4217 -1.7699
  670MOL0     H90431   0.958   4.162   4.959 -1.6090 -2.6171 -0.5281
  670MOL0     H90432   0.956   4.760   4.692 -2.1329 -0.9472  0.1694
  670MOL0     H90433   0.996   4.807   4.450 -0.2135  0.5271 -0.3406
  670MOL0     H90434   0.589   3.315   4.056  0.5155 -0.1054  4.6742
  670MOL0     H90435   0.350   3.311   4.004 -1.5669  1.0026  0.6456
  670MOL0     H90436  -0.038   3.603   4.120  2.1268 -2.5024  1.2544
  670MOL0     H90437  -0.301   3.638   4.176  1.5259  1.3744  2.5392
  670MOL0     H90438  -0.637   3.376   4.282  0.3845  0.2456 -0.8220
  670MOL0     H90439  -0.518   3.262   4.296 -3.9842 -0.5715  1.1574
  670MOL0     H90440  -0.500   3.243   4.043 -2.0852 -0.1377 -2.6083
  670MOL0     H90441  -0.582   3.391   4.006 -0.9954 -1.9718 -2.7881
  670MOL0     H90442  -0.741   3.245   3.973 -1.3894  2.3256  0.4436
  670MOL0     H90443  -0.782   3.300   4.139  0.5282 -0.2937  1.3619
  670MOL0     H90444  -0.616   3.052   4.108 -1.0655 -1.7726 -0.0404
  670MOL0     H90445  -0.718   3.110   4.247 -3.8767 -2.1825  0.8479
  670MOL0     H90446  -1.016   2.898   4.081  1.2770 -2.4393 -2.1483
  670MOL0     H90447  -0.325   3.220   4.236 -2.1934  1.6841  1.3079
  670MOL0     H90448  -0.000   3.131   4.225  0.2630  4.8461  1.3964
  670MOL0     H90449  -0.167   3.086   4.200  0.4734  2.0038  1.2257
  670MOL0     H90450  -0.060   3.111   4.056  0.1144 -0.3856  0.1734
  671MOL0     O90451   2.138   1.235   3.713 -0.0854 -0.0102 -0.0391
  671MOL0     C90452   2.030   1.269   3.688  0.0827  0.7464 -0.1159
  671MOL0     O90453   2.000   1.389   3.633 -0.1109 -0.4763  0.0617
  671MOL0     C90454   2.089   1.499   3.619  0.0608 -0.0386 -0.4251
  671MOL0     C90455   2.078   1.592   3.515 -0.2663  0.5574 -0.6912
  671MOL0     C90456   2.145   1.715   3.515  0.2555  0.8740 -1.0458
  671MOL0     C90457   2.221   1.750   3.637 -0.2514  1.0830 -0.7417
  671MOL0     O90458   2.274   1.870   3.667  0.2038  0.4858 -0.6966
  671MOL0     C90459   2.185   1.983   3.630  0.1603 -0.1520  0.1197
  671MOL0     C90460   2.244   2.104   3.709  1.0028 -0.0319 -0.0188
  671MOL0     C90461   2.374   2.149   3.637 -0.3641  0.9859  0.3017
  671MOL0     C90462   2.466   2.217   3.731 -0.5546  0.6071  0.2184
  671MOL0     C90463   2.619   2.212   3.689  1.0571 -0.8672  0.1092
  671MOL0     C90464   2.649   2.298   3.559  0.0042 -0.1993 -0.9363
  671MOL0     C90465   2.766   2.252   3.477  0.4178  0.3177 -0.5567
  671MOL0     C90466   2.897   2.323   3.520 -0.3329 -0.1379 -0.0886
  671MOL0     N90467   2.934   2.298   3.665 -0.2563 -0.1218  0.5824
  671MOL0     C90468   2.918   2.375   3.779 -0.2315  0.1218 -0.3512
  671MOL0     C90469   2.956   2.293   3.879 -0.0782  1.2687 -0.7312
  671MOL0     C90470   2.976   2.331   4.022  0.4353  1.1574 -0.6489
  671MOL0     C90471   2.847   2.373   4.097 -0.6794 -1.0581 -0.5776
  671MOL0     C90472   2.871   2.434   4.234 -0.0329 -0.4745 -0.1224
  671MOL0     C90473   2.901   2.580   4.243  0.6642  0.5937  0.9833
  671MOL0     O90474   2.769   2.636   4.228  0.9250  0.4500 -0.5479
  671MOL0     C90475   2.761   2.774   4.255  0.5864 -0.2930 -0.6356
  671MOL0     C90476   2.633   2.829   4.267  0.1501 -0.8825 -0.0867
  671MOL0     C90477   2.622   2.970   4.279 -0.6956 -0.1610 -0.5208
  671MOL0     C90478   2.744   3.053   4.283  0.0482  0.0059 -0.8198
  671MOL0     C90479   2.730   3.198   4.273  0.2574 -0.9487 -1.2532
  671MOL0     O90480   2.845   3.271   4.232  0.8751 -0.5800 -0.2607
  671MOL0     C90481   2.835   3.404   4.253 -0.2194 -0.1114 -0.4875
  671MOL0     C90482   2.822   3.454   4.378  0.6027 -0.1070  0.2077
  671MOL0     C90483   2.796   3.592   4.404  0.8072 -0.1130 -0.2852
  671MOL0     C90484   2.800   3.687   4.292 -0.1391 -0.4811  0.3402
  671MOL0     O90485   2.768   3.817   4.319 -0.3321 -0.3441  0.4040
  671MOL0     C90486   2.624   3.843   4.303 -0.9318 -0.6946  0.3076
  671MOL0     C90487   2.556   3.794   4.167 -0.4697 -0.0767 -0.1159
  671MOL0     C90488   2.402   3.816   4.175 -0.5965  1.1596  0.0438
  671MOL0     C90489   2.327   3.744   4.291 -0.9870  0.2228  0.1103
  671MOL0     C90490   2.178   3.787   4.286  0.4088 -0.2422 -0.4840
  671MOL0     C90491   2.090   3.723   4.398 -1.3096  0.2153 -1.3236
  671MOL0     C90492   2.057   3.570   4.369  0.8641  0.0702 -0.4631
  671MOL0     C90493   2.084   3.489   4.489 -0.8607 -0.7365 -0.7009
  671MOL0    Cl90494   2.066   3.312   4.441  0.4465 -0.0882  0.4065
  671MOL0     C90495   2.833   3.632   4.172  1.2928  0.3533 -0.4578
  671MOL0     C90496   2.850   3.495   4.153 -0.8580 -0.4562  0.7300
  671MOL0     O90497   2.617   3.248   4.310 -0.8401 -0.4605  0.2108
  671MOL0     C90498   2.863   2.993   4.280 -0.7241 -0.0409 -0.4521
  671MOL0     C90499   2.880   2.857   4.265  0.3797 -0.1612 -0.2631
  671MOL0     N90500   2.987   2.167   3.833 -0.0891 -0.5805  1.2788
  671MOL0     N90501   2.978   2.173   3.705  0.3667 -0.4920  0.9259
  671MOL0     C90502   2.239   1.657   3.734  0.0994  0.4661  0.0541
  671MOL0     C90503   2.179   1.532   3.726 -0.1172 -1.2886 -0.4220
  671MOL0     C90504   1.909   1.184   3.720  0.3689 -0.6814 -0.6500
  671MOL0     C90505   1.918   1.088   3.822 -0.0840  1.1780  0.8301
  671MOL0     C90506   1.810   1.007   3.863  0.6329 -0.2836 -1.7547
  671MOL0     C90507   1.689   1.019   3.810  1.1262 -0.8551 -0.3453
  671MOL0     O90508   1.579   0.951   3.837 -0.2074  0.3085  0.6055
  671MOL0     C90509   1.577   0.830   3.922  0.1096  0.6842 -0.1143
  671MOL0     C90510   1.475   0.851   4.030 -0.5235  0.3630 -0.1776
  671MOL0     C90511   1.504   0.962   4.122 -0.2424 -0.1118  0.2480
  671MOL0     C90512   1.366   1.031   4.177  0.1107 -0.6195 -0.7915
  671MOL0     C90513   1.293   0.950   4.272  0.5206  0.2303 -0.8635
  671MOL0     C90514   1.199   0.895   4.332 -0.2380  1.1973  0.2930
  671MOL0     C90515   1.681   1.105   3.697  1.1581  0.7797 -0.1196
  671MOL0     C90516   1.790   1.178   3.645  0.0958 -0.0613 -0.8460
  671MOL0     C90517   1.768   1.266   3.524 -0.1945  0.0031  0.4440
  671MOL0     H90518   2.004   1.566   3.439 -1.7202  1.4892  0.3566
  671MOL0     H90519   2.131   1.787   3.435  3.0671  2.3470 -0.3344
  671MOL0     H90520   2.195   2.000   3.522  1.8798 -1.9427 -0.0592
  671MOL0     H90521   2.080   1.963   3.654 -0.0686  0.2879 -0.4688
  671MOL0     H90522   2.274   2.080   3.812  0.6571  2.0579  0.6068
  671MOL0     H90523   2.173   2.187   3.708  2.4190  1.2660 -2.3828
  671MOL0     H90524   2.349   2.196   3.542 -1.6312  0.6896  0.4704
  671MOL0     H90525   2.431   2.058   3.614 -1.1175  0.1324  1.7152
  671MOL0     H90526   2.438   2.322   3.730  1.2291  1.1491 -2.3181
  671MOL0     H90527   2.462   2.180   3.834 -1.4631 -4.1460 -1.2827
  671MOL0     H90528   2.680   2.254   3.770  0.3355 -1.4601  0.9840
  671MOL0     H90529   2.654   2.109   3.674  2.1658 -0.6791  1.2041
  671MOL0     H90530   2.562   2.299   3.493 -2.9548  2.3256  2.5720
  671MOL0     H90531   2.656   2.403   3.591 -0.0187 -0.0996 -1.2559
  671MOL0     H90532   2.742   2.270   3.372  1.6059  0.7235 -0.7808
  671MOL0     H90533   2.764   2.144   3.494 -2.0285  0.3693 -0.2602
  671MOL0     H90534   2.978   2.295   3.451 -0.3212 -3.4455  1.0533
  671MOL0     H90535   2.887   2.431   3.511  1.3468  0.5101  3.7786
  671MOL0     H90536   2.890   2.479   3.791  2.4833  0.7101  1.8575
  671MOL0     H90537   3.016   2.246   4.077  2.4403  2.7118  0.4434
  671MOL0     H90538   3.046   2.415   4.031 -1.1407  2.6121 -1.3330
  671MOL0     H90539   2.784   2.445   4.042 -3.1474  1.6078  4.9897
  671MOL0     H90540   2.782   2.287   4.116 -1.8788  0.1420  0.9722
  671MOL0     H90541   2.949   2.374   4.282 -0.8002  1.9805  4.8440
  671MOL0     H90542   2.782   2.416   4.295  0.8301  0.7045  1.5601
  671MOL0     H90543   2.981   2.616   4.177  1.9892 -1.7322  1.1818
  671MOL0     H90544   2.933   2.600   4.346  3.5080  2.3240 -0.0995
  671MOL0     H90545   2.543   2.772   4.245 -1.9292  2.2518 -0.2344
  671MOL0     H90546   2.529   3.026   4.278  0.8321  2.5819  0.2517
  671MOL0     H90547   2.824   3.387   4.463  1.9243 -0.9353 -0.4459
  671MOL0     H90548   2.783   3.629   4.505 -3.3200  1.4515 -1.1926
  671MOL0     H90549   2.575   3.795   4.387  1.9229 -3.6481  0.4794
  671MOL0     H90550   2.624   3.952   4.309  1.3705 -0.5239 -1.2413
  671MOL0     H90551   2.608   3.850   4.089 -1.0995  1.3893  0.4627
  671MOL0     H90552   2.551   3.689   4.137  1.2105  0.8289 -4.2800
  671MOL0     H90553   2.380   3.923   4.177  1.3602  1.6062  1.7051
  671MOL0     H90554   2.355   3.772   4.087 -1.0530 -1.0997  1.3383
  671MOL0     H90555   2.362   3.764   4.393 -2.6369 -3.2085  1.4880
  671MOL0     H90556   2.336   3.635   4.284  0.7722  0.3444  0.0807
  671MOL0     H90557   2.146   3.757   4.186 -3.1836 -0.5833  0.6231
  671MOL0     H90558   2.180   3.895   4.296  2.4251 -0.1413 -1.3868
  671MOL0     H90559   2.138   3.724   4.496  2.9359 -1.5871 -3.1382
  671MOL0     H90560   2.003   3.788   4.407  0.5445  2.6828 -0.2890
  671MOL0     H90561   2.118   3.533   4.287  3.5432 -1.6371  2.1062
  671MOL0     H90562   1.952   3.559   4.342  0.2940 -3.7797  2.5832
  671MOL0     H90563   2.185   3.504   4.529 -0.2167 -5.7457  0.2610
  671MOL0     H90564   2.017   3.495   4.575 -1.8396 -0.9871 -1.4362
  671MOL0     H90565   2.831   3.703   4.090  0.0294 -0.9423 -1.6044
  671MOL0     H90566   2.865   3.458   4.052 -2.2281 -0.7421  0.6222
  671MOL0     H90567   2.958   3.043   4.297  0.0440 -1.4880 -0.3659
  671MOL0     H90568   2.985   2.831   4.258  1.9502  4.3369  2.3926
  671MOL0     H90569   2.295   1.678   3.825  2.0285 -1.7101 -0.5144
  671MOL0     H90570   2.200   1.463   3.807 -2.1564 -1.2627  0.1889
  671MOL0     H90571   2.016   1.074   3.866  1.0451  1.8293 -1.3447
  671MOL0     H90572   1.825   0.939   3.947 -2.9422  0.9778  0.1468
  671MOL0     H90573   1.678   0.805   3.956  0.2220  0.4849 -0.5965
  671MOL0     H90574   1.540   0.747   3.862  1.6203 -0.0369 -0.0891
  671MOL0     H90575   1.480   0.757   4.085  3.6757  0.0825 -0.7100
  671MOL0     H90576   1.374   0.862   3.990 -0.2050  0.7163 -0.9106
  671MOL0     H90577   1.551   1.042   4.064 -0.8119 -0.4624 -0.7176
  671MOL0     H90578   1.557   0.923   4.210 -3.5293 -2.6520  1.3413
  671MOL0     H90579   1.383   1.130   4.221  4.8108 -0.6825 -1.9026
  671MOL0     H90580   1.300   1.058   4.094 -0.5236 -0.3775 -0.2154
  671MOL0     H90581   1.136   0.842   4.400 -0.4342  0.6189 -0.3236
  671MOL0     H90582   1.582   1.129   3.658  1.4665  1.3821 -0.5614
  671MOL0     H90583   1.673   1.235   3.480  0.0938 -0.0608 -0.1427
  671MOL0     H90584   1.756   1.367   3.564  2.0589 -0.4412  2.5256
  671MOL0     H90585   1.847   1.267   3.449 -0.7347  1.0378 -0.1346
  672MOL0     O90586   4.138   1.687   0.983  0.0871  0.3088 -0.4859
  672MOL0     C90587   4.142   1.801   0.956  1.2467 -0.6582 -0.5683
  672MOL0     O90588   4.125   1.902   1.043 -0.2429 -0.1776 -0.3748
  672MOL0     C90589   4.123   1.880   1.180 -0.0169  0.0160 -0.8360
  672MOL0     C90590   4.204   1.781   1.250  0.0927 -0.0538 -0.2294
  672MOL0     C90591   4.209   1.784   1.388 -0.6099  1.0356  0.1405
  672MOL0     C90592   4.139   1.875   1.472  0.4910  0.1134  0.8421
  672MOL0     O90593   4.126   1.853   1.604  0.1266 -0.1836 -0.0434
  672MOL0     C90594   4.067   1.951   1.688 -0.6033  0.4980  0.0014
  672MOL0     C90595   4.120   1.925   1.836  0.1436  0.7103  0.1474
  672MOL0     C90596   4.061   1.791   1.893 -0.4003  0.8364  0.0743
  672MOL0     C90597   3.906   1.777   1.893 -0.1618  0.4564 -0.2572
  672MOL0     C90598   3.872   1.667   1.987  0.0933 -0.2091 -1.3252
  672MOL0     C90599   3.898   1.519   1.950  0.2402 -0.0387 -0.0294
  672MOL0     C90600   3.782   1.438   2.008  0.9186 -0.4162  0.4003
  672MOL0     C90601   3.818   1.285   1.997  0.1046 -0.4647 -0.1504
  672MOL0     N90602   3.788   1.223   1.863 -0.1135 -0.4209  1.8501
  672MOL0     C90603   3.668   1.219   1.793  0.4258 -0.6823 -0.5180
  672MOL0     C90604   3.691   1.163   1.674  0.5088 -0.3259 -0.0395
  672MOL0     C90605   3.584   1.126   1.566  1.0099  0.3810 -0.2530
  672MOL0     C90606   3.605   1.208   1.441  0.9338 -0.3914  0.8652
  672MOL0     C90607   3.518   1.160   1.326  0.1651 -1.2897 -0.2829
  672MOL0     C90608   3.533   1.253   1.203 -0.8346  0.5584  1.1709
  672MOL0     O90609   3.669   1.227   1.149 -0.1737 -0.6905 -0.1591
  672MOL0     C90610   3.693   1.299   1.042 -0.3143  0.5961 -0.3877
  672MOL0     C90611   3.632   1.247   0.923  0.0564 -1.0861 -0.0317
  672MOL0     C90612   3.682   1.310   0.801 -0.7146  0.0573 -1.4174
  672MOL0     C90613   3.769   1.418   0.805 -0.1332 -0.5617  0.1699
  672MOL0     C90614   3.794   1.492   0.674  0.2927 -0.0708 -0.0856
  672MOL0     O90615   3.770   1.432   0.553  0.1702 -0.0293 -0.0678
  672MOL0     C90616   3.760   1.514   0.439  1.2064 -0.9904 -0.1399
  672MOL0     C90617   3.635   1.540   0.379 -1.0439  0.8648  0.1771
  672MOL0     C90618   3.621   1.614   0.268  1.5952  0.1955 -0.1493
  672MOL0     C90619   3.739   1.662   0.212  0.3005 -0.4429  0.2739
  672MOL0     O90620   3.733   1.719   0.083 -0.2138  0.6257  0.4240
  672MOL0     C90621   3.629   1.805   0.053  0.5811 -0.3782 -0.4396
  672MOL0     C90622   3.672   1.906  -0.056  0.0671 -0.5785  0.2561
  672MOL0     C90623   3.727   1.833  -0.187 -1.3286 -0.3220 -0.9204
  672MOL0     C90624   3.626   1.764  -0.280 -0.0549  0.0869 -0.6543
  672MOL0     C90625   3.688   1.716  -0.416 -0.4335  0.0807 -0.3812
  672MOL0     C90626   3.805   1.615  -0.411  0.0135  0.2463  0.9072
  672MOL0     C90627   3.839   1.550  -0.536 -0.0450  0.5910  0.1036
  672MOL0     C90628   3.875   1.402  -0.511 -1.4505  1.2754 -0.0039
  672MOL0    Cl90629   3.894   1.361  -0.686 -0.0006  0.3589 -0.1730
  672MOL0     C90630   3.864   1.647   0.272  0.2348  0.5847 -0.9987
  672MOL0     C90631   3.877   1.570   0.389  0.1120 -0.5773  0.4160
  672MOL0     O90632   3.828   1.611   0.693  0.5311  0.5016 -0.1639
  672MOL0     C90633   3.812   1.473   0.932 -0.3174  0.5359  0.9923
  672MOL0     C90634   3.778   1.410   1.051 -0.8041 -0.4664  0.3870
  672MOL0     N90635   3.831   1.135   1.671  1.0970  0.5366 -0.0395
  672MOL0     N90636   3.888   1.166   1.785  0.3029 -0.2367  0.9465
  672MOL0     C90637   4.075   1.974   1.399 -0.5596 -0.0819 -0.7295
  672MOL0     C90638   4.065   1.982   1.257 -0.6420 -1.1093 -0.1701
  672MOL0     C90639   4.166   1.844   0.814  0.2362 -0.4555 -0.9192
  672MOL0     C90640   4.105   1.765   0.712  0.0894  0.6101 -0.5003
  672MOL0     C90641   4.116   1.794   0.578  0.0601 -0.2373 -0.4104
  672MOL0     C90642   4.197   1.906   0.535 -0.0541 -0.8177 -0.5163
  672MOL0     O90643   4.238   1.946   0.409  0.0605  0.1718  0.6153
  672MOL0     C90644   4.157   1.908   0.289  0.3083 -0.8099 -0.6832
  672MOL0     C90645   4.173   2.015   0.177 -0.2011  1.0183  0.6894
  672MOL0     C90646   4.187   1.945   0.039 -1.3772 -0.0716  0.3345
  672MOL0     C90647   4.054   1.895  -0.014 -0.3606  0.5611 -0.5406
  672MOL0     C90648   4.077   1.846  -0.150  0.1145 -0.1824  0.9792
  672MOL0     C90649   4.097   1.800  -0.262 -1.6645  0.2993 -0.1962
  672MOL0     C90650   4.249   1.985   0.634 -0.8528  0.6072 -0.6248
  672MOL0     C90651   4.241   1.961   0.774  0.0107  0.0050  0.7112
  672MOL0     C90652   4.309   2.042   0.881  0.9977  0.2408  1.2375
  672MOL0     H90653   4.258   1.711   1.187  2.4801  1.3391  0.1430
  672MOL0     H90654   4.269   1.709   1.439 -2.8095 -1.8154 -1.1797
  672MOL0     H90655   4.083   2.054   1.655  1.1346  0.5711  0.9277
  672MOL0     H90656   3.960   1.933   1.683 -0.6965  0.9273  0.3738
  672MOL0     H90657   4.080   2.000   1.904 -0.7496 -0.3747  0.8593
  672MOL0     H90658   4.229   1.924   1.841  0.1217 -0.0122  0.6677
  672MOL0     H90659   4.090   1.777   1.998 -2.3729 -1.8969  0.3599
  672MOL0     H90660   4.107   1.706   1.841 -0.5986  0.4170  0.5701
  672MOL0     H90661   3.861   1.871   1.927 -0.3073 -0.3399  1.9508
  672MOL0     H90662   3.878   1.753   1.790  5.0325  2.0425 -2.3382
  672MOL0     H90663   3.912   1.686   2.087 -1.2840 -1.7461 -0.4316
  672MOL0     H90664   3.763   1.667   2.000  0.1976 -2.1085 -0.1352
  672MOL0     H90665   3.901   1.498   1.843  3.1493 -0.9336  0.1228
  672MOL0     H90666   3.995   1.482   1.987  1.3636  0.1464 -2.6059
  672MOL0     H90667   3.684   1.462   1.967  0.2806 -2.6187  0.4703
  672MOL0     H90668   3.777   1.462   2.115 -3.4619  0.0127  0.2942
  672MOL0     H90669   3.923   1.270   2.023  0.6283  0.5554 -1.5894
  672MOL0     H90670   3.765   1.227   2.073 -0.7065  1.7473  1.0848
  672MOL0     H90671   3.576   1.258   1.835  1.1505 -0.8827  1.3893
  672MOL0     H90672   3.581   1.018   1.552 -2.9194  0.3827 -0.4265
  672MOL0     H90673   3.485   1.147   1.608 -0.0341 -3.5205 -0.4280
  672MOL0     H90674   3.584   1.315   1.451  0.1849 -0.3879 -0.5025
  672MOL0     H90675   3.710   1.214   1.411  0.1031  2.7091 -1.9444
  672MOL0     H90676   3.416   1.163   1.365  0.8401  0.1288  1.5394
  672MOL0     H90677   3.548   1.057   1.303  0.7684 -0.7579 -2.0779
  672MOL0     H90678   3.504   1.358   1.214 -2.0374  0.5766 -1.4311
  672MOL0     H90679   3.469   1.197   1.135  0.3569 -1.4604  1.6453
  672MOL0     H90680   3.562   1.164   0.924 -0.7922 -0.3850  1.2191
  672MOL0     H90681   3.641   1.274   0.708 -1.7976 -0.9379 -0.5886
  672MOL0     H90682   3.543   1.499   0.419 -0.7724  0.4927  0.4174
  672MOL0     H90683   3.519   1.632   0.236  2.0576  1.2140 -1.1241
  672MOL0     H90684   3.541   1.750   0.018 -1.4384  1.4227  1.5240
  672MOL0     H90685   3.606   1.862   0.143  2.7203  0.3280 -0.2949
  672MOL0     H90686   3.591   1.977  -0.075  3.2827  2.9858 -1.7310
  672MOL0     H90687   3.760   1.953  -0.010 -1.4391 -0.9710  3.8993
  672MOL0     H90688   3.795   1.895  -0.246 -0.8557 -1.5486 -1.6997
  672MOL0     H90689   3.804   1.765  -0.149 -0.4525  2.4848  2.9424
  672MOL0     H90690   3.562   1.846  -0.311 -0.5547 -0.4449 -1.0535
  672MOL0     H90691   3.568   1.682  -0.235 -1.5539 -0.6686 -3.6850
  672MOL0     H90692   3.709   1.798  -0.485 -1.1517 -0.2425 -1.0094
  672MOL0     H90693   3.605   1.659  -0.460 -1.4201  0.6004  0.7366
  672MOL0     H90694   3.893   1.675  -0.384  0.2154  0.1104  0.5654
  672MOL0     H90695   3.789   1.540  -0.333  1.9174 -1.6544 -0.4032
  672MOL0     H90696   3.906   1.608  -0.599 -3.3619  1.9751 -2.4280
  672MOL0     H90697   3.751   1.560  -0.599  1.0197 -5.0986 -2.9716
  672MOL0     H90698   3.973   1.396  -0.463  0.1393  0.8878 -3.0441
  672MOL0     H90699   3.790   1.348  -0.469 -2.2420  2.5301  0.0471
  672MOL0     H90700   3.952   1.699   0.236  2.6906 -2.1990  0.5214
  672MOL0     H90701   3.977   1.571   0.431 -0.1303  1.4617  1.0635
  672MOL0     H90702   3.888   1.549   0.918 -0.0818  0.0091 -0.7339
  672MOL0     H90703   3.829   1.431   1.145 -0.0102 -4.0996  0.9263
  672MOL0     H90704   4.028   2.056   1.453  2.5211 -0.0694  2.2538
  672MOL0     H90705   4.023   2.075   1.219 -0.4285  0.2511  2.6522
  672MOL0     H90706   4.061   1.673   0.747  0.1088  0.3915 -1.0425
  672MOL0     H90707   4.076   1.739   0.494 -1.0822 -0.1520  0.0648
  672MOL0     H90708   4.049   1.902   0.304  0.0109  0.6107 -1.9985
  672MOL0     H90709   4.193   1.810   0.257  1.8162 -0.1956 -0.9626
  672MOL0     H90710   4.260   2.081   0.185  0.0880  0.6987  0.2437
  672MOL0     H90711   4.080   2.072   0.179 -0.8795  0.0345 -0.9540
  672MOL0     H90712   4.260   1.864   0.051 -3.0457 -1.5415  1.1513
  672MOL0     H90713   4.234   2.017  -0.028 -1.2185  0.8247  1.3769
  672MOL0     H90714   4.012   1.808   0.037  1.8551  0.7839  1.8570
  672MOL0     H90715   3.985   1.980  -0.008 -0.3844  0.4763  0.5228
  672MOL0     H90716   4.108   1.762  -0.361  0.3001  2.2946 -0.8101
  672MOL0     H90717   4.302   2.075   0.607  0.7118  0.2452  1.0336
  672MOL0     H90718   4.331   1.981   0.970  0.3189 -1.4084  0.3303
  672MOL0     H90719   4.404   2.069   0.836 -0.2436  0.9719 -1.0912
  672MOL0     H90720   4.239   2.125   0.895 -1.2221 -1.3834  0.5397
  673MOL0     O90721  11.205  10.492   5.684  0.0864 -0.2718 -0.1209
  673MOL0     C90722  11.156  10.555   5.779  0.2339  0.2304 -0.4639
  673MOL0     O90723  11.226  10.645   5.854  0.0879 -1.1324 -0.1427
  673MOL0     C90724  11.350  10.685   5.799  0.0094  0.3245 -0.3888
  673MOL0     C90725  11.366  10.807   5.742  1.1023  0.3282  0.6914
  673MOL0     C90726  11.479  10.844   5.672  0.3191 -0.7670  0.4223
  673MOL0     C90727  11.591  10.762   5.666  0.2528 -0.4973 -0.0035
  673MOL0     O90728  11.699  10.786   5.586  0.3716 -0.0493 -0.3389
  673MOL0     C90729  11.739  10.916   5.531  0.1875  0.6079  0.0596
  673MOL0     C90730  11.840  10.989   5.615 -0.1142  0.2254  0.3772
  673MOL0     C90731  11.787  11.056   5.739 -0.3374  0.5711  0.2742
  673MOL0     C90732  11.725  11.191   5.717 -0.1684 -0.0703 -0.4352
  673MOL0     C90733  11.688  11.251   5.859  0.4029  0.3121 -0.3522
  673MOL0     C90734  11.794  11.348   5.912  0.6013 -0.6200 -0.1447
  673MOL0     C90735  11.766  11.392   6.066  0.0317 -0.2115 -0.2317
  673MOL0     C90736  11.890  11.454   6.133 -0.1976 -0.1945 -0.5669
  673MOL0     N90737  11.907  11.598   6.103  0.1248 -0.3314  0.1169
  673MOL0     C90738  11.901  11.652   5.983  0.5537  0.5138 -0.0108
  673MOL0     C90739  11.882  11.785   6.008  0.3718  0.2708 -0.0638
  673MOL0     C90740  11.864  11.895   5.901  0.1182 -0.9198 -0.1908
  673MOL0     C90741  11.986  11.991   5.879  0.1711 -0.2877 -0.1046
  673MOL0     C90742  12.108  11.920   5.811  0.2730 -0.0358  0.3079
  673MOL0     C90743  12.197  12.031   5.735  0.1367 -0.1764  0.1902
  673MOL0     O90744  12.223  12.140   5.820 -0.3089  0.8602 -0.3675
  673MOL0     C90745  12.356  12.162   5.861 -0.0484 -0.0207  0.3294
  673MOL0     C90746  12.381  12.296   5.903  0.3155 -1.2090  0.3471
  673MOL0     C90747  12.516  12.332   5.932  0.3828  0.8325  0.0673
  673MOL0     C90748  12.621  12.235   5.917  0.6229 -0.4408 -0.7337
  673MOL0     C90749  12.758  12.274   5.946 -0.6032  0.4776  0.0790
  673MOL0     O90750  12.806  12.401   5.955  0.4646  0.1981  0.0697
  673MOL0     C90751  12.934  12.401   6.000  0.7100  1.0168  0.9765
  673MOL0     C90752  12.957  12.453   6.131 -0.1107  0.1415  0.4012
  673MOL0     C90753  13.087  12.482   6.170  0.0662  0.3135  0.3812
  673MOL0     C90754  13.191  12.461   6.077 -0.4920 -0.2296 -0.0886
  673MOL0     O90755  13.327  12.481   6.100 -0.1199 -0.1958  0.7548
  673MOL0     C90756  13.362  12.616   6.131  0.4245  0.5186  0.2842
  673MOL0     C90757  13.505  12.630   6.085 -0.0032 -0.7878  0.3364
  673MOL0     C90758  13.557  12.767   6.123 -0.1516  0.2197  0.4010
  673MOL0     C90759  13.692  12.790   6.053  0.0101  0.5411 -0.0416
  673MOL0     C90760  13.749  12.927   6.074  0.3858 -0.5423 -0.5654
  673MOL0     C90761  13.651  13.047   6.023  0.1072 -0.5825 -0.1357
  673MOL0     C90762  13.725  13.182   6.042 -0.1059  0.2887 -0.4822
  673MOL0     C90763  13.625  13.302   6.035 -0.6386 -0.2183  0.0308
  673MOL0    Cl90764  13.562  13.336   5.869  0.0091  0.0726  0.1074
  673MOL0     C90765  13.165  12.406   5.955  0.3263  0.3515  0.0746
  673MOL0     C90766  13.037  12.389   5.909  0.7758 -0.3538 -0.2187
  673MOL0     O90767  12.829  12.172   5.930  0.2255 -0.4236 -0.0574
  673MOL0     C90768  12.587  12.093   5.891  0.3772  0.0154 -0.0630
  673MOL0     C90769  12.450  12.061   5.871 -0.3900  0.3312 -0.1094
  673MOL0     N90770  11.874  11.812   6.141 -0.4063 -0.4911 -0.5007
  673MOL0     N90771  11.881  11.694   6.199 -1.3249 -0.6361  0.5028
  673MOL0     C90772  11.585  10.631   5.723  0.8349 -0.1850  0.5905
  673MOL0     C90773  11.467  10.601   5.790  1.1148  0.3313 -0.0798
  673MOL0     C90774  11.027  10.532   5.830  0.7375  0.6087 -0.0607
  673MOL0     C90775  10.980  10.547   5.967  0.0025  0.3255 -0.0754
  673MOL0     C90776  10.844  10.516   6.008 -1.0090 -0.0817  0.4651
  673MOL0     C90777  10.759  10.474   5.909  0.7658 -0.1968 -0.0401
  673MOL0     O90778  10.631  10.438   5.948  0.7389  0.4665 -0.6648
  673MOL0     C90779  10.531  10.482   5.867 -0.1745 -0.0740 -0.2524
  673MOL0     C90780  10.423  10.403   5.913  0.2964 -0.3242  0.5776
  673MOL0     C90781  10.289  10.443   5.839 -0.1592 -0.1805 -0.4455
  673MOL0     C90782  10.158  10.367   5.877  1.3777  0.3434  0.2127
  673MOL0     C90783  10.048  10.437   5.797  0.1370 -0.1803  0.4521
  673MOL0     C90784   9.967  10.476   5.713 -1.1004 -0.4716 -0.2125
  673MOL0     C90785  10.800  10.455   5.775 -0.5952  0.0227 -0.0595
  673MOL0     C90786  10.932  10.481   5.735 -0.7648  0.2970  1.2717
  673MOL0     C90787  10.954  10.459   5.581  0.2970  0.9903 -0.2777
  673MOL0     H90788  11.275  10.866   5.734  1.6000  0.8153 -4.3475
  673MOL0     H90789  11.475  10.943   5.626 -0.6610 -0.3697  1.3224
  673MOL0     H90790  11.795  10.900   5.439 -1.8589  0.9573 -1.3030
  673MOL0     H90791  11.657  10.985   5.512 -0.5873 -0.8182 -2.2319
  673MOL0     H90792  11.890  11.064   5.552 -0.0052 -1.1128 -1.2055
  673MOL0     H90793  11.909  10.909   5.642 -2.1006 -1.1323  1.7121
  673MOL0     H90794  11.867  11.066   5.813  0.2416 -0.1758 -0.2318
  673MOL0     H90795  11.711  10.988   5.779  1.8839 -0.7635  2.4525
  673MOL0     H90796  11.792  11.263   5.668 -1.3460  0.8696 -0.7253
  673MOL0     H90797  11.631  11.180   5.663 -0.6874  1.1659  0.1628
  673MOL0     H90798  11.605  11.321   5.841  0.9932  0.3192 -3.5928
  673MOL0     H90799  11.652  11.172   5.925 -0.6713  0.6851 -0.4691
  673MOL0     H90800  11.893  11.300   5.904  2.5846  3.3923 -2.5919
  673MOL0     H90801  11.778  11.436   5.850  1.5104 -1.4564 -1.6393
  673MOL0     H90802  11.745  11.296   6.114 -1.7379  0.2665 -0.0112
  673MOL0     H90803  11.681  11.459   6.077  1.7491  2.1296 -0.5369
  673MOL0     H90804  11.862  11.446   6.238 -0.0274 -1.4216 -0.6009
  673MOL0     H90805  11.976  11.399   6.094 -0.6742  0.8732 -3.4266
  673MOL0     H90806  11.890  11.598   5.890 -2.9083  1.8489 -0.5281
  673MOL0     H90807  11.831  11.838   5.814  0.4235 -0.1140 -0.8370
  673MOL0     H90808  11.781  11.961   5.931  1.2874  0.6097 -0.2188
  673MOL0     H90809  11.942  12.069   5.817 -1.0080  0.6518  1.7918
  673MOL0     H90810  12.026  12.036   5.971  0.0835 -1.1067  0.3485
  673MOL0     H90811  12.073  11.841   5.744 -0.2695  2.2255 -2.2603
  673MOL0     H90812  12.163  11.874   5.893 -2.2287 -3.4339  0.2985
  673MOL0     H90813  12.138  12.064   5.650 -2.9005 -1.9475  1.4467
  673MOL0     H90814  12.286  11.990   5.686  0.8677 -1.0142  2.1143
  673MOL0     H90815  12.305  12.373   5.901 -1.8521 -3.2585 -0.6844
  673MOL0     H90816  12.549  12.428   5.968  4.1500 -1.2160  2.7837
  673MOL0     H90817  12.876  12.472   6.200  1.3085  0.6892  1.9739
  673MOL0     H90818  13.123  12.518   6.266  2.3901  1.7964 -0.9507
  673MOL0     H90819  13.310  12.687   6.066 -0.6811  0.2434  0.8258
  673MOL0     H90820  13.349  12.631   6.239 -3.4838 -1.8903  0.3337
  673MOL0     H90821  13.571  12.556   6.129  0.4540  0.0978  1.1723
  673MOL0     H90822  13.511  12.615   5.976  2.1513  3.0148 -0.2575
  673MOL0     H90823  13.492  12.840   6.074  1.1587  0.3308 -1.2824
  673MOL0     H90824  13.546  12.779   6.231 -0.0886 -0.7733  0.5341
  673MOL0     H90825  13.670  12.787   5.946  0.4358 -1.5607 -0.1041
  673MOL0     H90826  13.766  12.714   6.080 -2.2451 -1.2907  1.4350
  673MOL0     H90827  13.845  12.935   6.023  2.3378  0.4982  2.9484
  673MOL0     H90828  13.769  12.938   6.181 -1.4115  1.2781 -0.3645
  673MOL0     H90829  13.614  13.036   5.921 -5.3390 -1.1391  1.5814
  673MOL0     H90830  13.564  13.046   6.089  1.1696  0.9643  1.3935
  673MOL0     H90831  13.795  13.175   5.958  0.4331 -3.5277  0.0978
  673MOL0     H90832  13.783  13.195   6.133  0.7897  1.0547 -1.1363
  673MOL0     H90833  13.543  13.283   6.105  0.1201  0.0616  1.0293
  673MOL0     H90834  13.678  13.397   6.049 -1.6463  0.1533  1.6663
  673MOL0     H90835  13.232  12.387   5.872 -2.6052  0.9329 -2.6413
  673MOL0     H90836  13.023  12.350   5.809 -3.1955 -0.3593  0.1826
  673MOL0     H90837  12.651  12.006   5.900  0.4198  0.0717  0.1902
  673MOL0     H90838  12.420  11.957   5.875  0.3948  0.1163  2.5273
  673MOL0     H90839  11.678  10.577   5.710  1.8236  1.6149 -0.2215
  673MOL0     H90840  11.463  10.520   5.863 -3.4972  1.1067  0.8210
  673MOL0     H90841  11.044  10.578   6.049  1.4143  0.0053 -1.0158
  673MOL0     H90842  10.801  10.525   6.108  2.0524 -1.9150  2.1215
  673MOL0     H90843  10.547  10.487   5.759  3.2577  0.5878  0.1784
  673MOL0     H90844  10.508  10.583   5.904  2.2304 -0.1709  1.7676
  673MOL0     H90845  10.407  10.420   6.020  0.3625  0.1634  0.5103
  673MOL0     H90846  10.453  10.299   5.901  2.6287  0.3718  0.0123
  673MOL0     H90847  10.292  10.441   5.730  1.1023  0.2872 -0.4365
  673MOL0     H90848  10.281  10.549   5.865  0.7221 -0.2872  0.2953
  673MOL0     H90849  10.157  10.264   5.841  0.9999  0.4593 -0.1146
  673MOL0     H90850  10.144  10.364   5.986 -1.5564  0.9205 -0.0527
  673MOL0     H90851   9.878  10.494   5.656 -1.5679 -1.7711  0.0694
  673MOL0     H90852  10.732  10.416   5.700  0.9511  0.8507 -2.0018
  673MOL0     H90853  10.858  10.444   5.530  0.9007 -0.0603 -1.1612
  673MOL0     H90854  11.003  10.548   5.539  1.1949 -0.0682 -1.5478
  673MOL0     H90855  11.009  10.368   5.556  1.8234  1.8917 -0.3550
  674MOL0     O90856   4.285   8.563   3.331  0.4658  0.5517 -0.0465
  674MOL0     C90857   4.401   8.562   3.293  0.1537 -0.7717 -0.3568
  674MOL0     O90858   4.449   8.594   3.170 -0.1999  0.0766 -0.8185
  674MOL0     C90859   4.376   8.690   3.102  0.1625 -0.0827  0.6449
  674MOL0     C90860   4.451   8.800   3.059 -0.6427 -0.2205  0.2981
  674MOL0     C90861   4.403   8.903   2.979  0.0782 -0.0523 -0.2012
  674MOL0     C90862   4.263   8.896   2.945 -0.2638  0.4151 -0.0374
  674MOL0     O90863   4.194   8.980   2.868 -0.2810  0.4515  1.0890
  674MOL0     C90864   4.245   9.010   2.739  0.1238  0.3940  1.1937
  674MOL0     C90865   4.175   9.152   2.706 -0.4912  0.0769  0.1533
  674MOL0     C90866   4.034   9.133   2.679  0.5092 -0.5884 -0.1163
  674MOL0     C90867   3.952   9.267   2.674  0.7337  0.0604 -0.7444
  674MOL0     C90868   3.918   9.317   2.818  0.1700 -0.5085 -0.3188
  674MOL0     C90869   3.824   9.421   2.844 -0.1600 -0.6023  0.2733
  674MOL0     C90870   3.793   9.459   2.992  0.4504  0.0911  0.9437
  674MOL0     C90871   3.912   9.509   3.076  0.1506  1.0093 -0.0478
  674MOL0     N90872   3.960   9.627   3.010  0.7110  0.3660  0.2285
  674MOL0     C90873   4.070   9.648   2.943 -0.5893 -0.3111 -1.1394
  674MOL0     C90874   4.068   9.778   2.894  1.4090  0.1402 -0.2038
  674MOL0     C90875   4.179   9.849   2.828  0.0568 -0.1386 -0.3333
  674MOL0     C90876   4.234   9.968   2.902  0.3338  0.6533  0.9757
  674MOL0     C90877   4.307  10.067   2.820 -0.3244  0.5267  0.4237
  674MOL0     C90878   4.401  10.007   2.707  1.3511 -0.9027  0.2752
  674MOL0     O90879   4.495  10.111   2.677  0.1272 -0.2190 -0.4214
  674MOL0     C90880   4.605  10.143   2.745  0.0956  1.2104 -0.7678
  674MOL0     C90881   4.647  10.095   2.874 -0.6069 -0.7687 -0.4647
  674MOL0     C90882   4.764  10.144   2.935  0.0835  0.6416 -0.3617
  674MOL0     C90883   4.840  10.254   2.869  0.4374 -0.1255 -0.0908
  674MOL0     C90884   4.968  10.315   2.923  0.1172 -0.0605 -0.3648
  674MOL0     O90885   5.036  10.230   3.021 -0.1663  0.1297  0.1401
  674MOL0     C90886   5.164  10.269   3.041  0.1180 -0.4838 -0.8244
  674MOL0     C90887   5.206  10.363   3.139 -0.1740 -0.4671  0.5561
  674MOL0     C90888   5.342  10.404   3.138 -0.1400 -0.0132  0.8918
  674MOL0     C90889   5.436  10.350   3.052 -0.6939  0.2128 -0.2095
  674MOL0     O90890   5.569  10.390   3.066 -0.0380 -0.0765 -0.6334
  674MOL0     C90891   5.673  10.351   2.977 -0.1486  0.4598 -0.5139
  674MOL0     C90892   5.788  10.443   3.004  0.0298 -0.0572  0.5149
  674MOL0     C90893   5.894  10.419   2.898 -1.1428 -0.7183 -0.3363
  674MOL0     C90894   6.026  10.478   2.947  1.0066 -0.6142  0.4989
  674MOL0     C90895   6.148  10.448   2.862 -0.0912 -0.4166  0.1831
  674MOL0     C90896   6.130  10.444   2.713  0.2039 -0.4673  0.7906
  674MOL0     C90897   6.258  10.457   2.629  0.5832  0.4616 -0.9370
  674MOL0     C90898   6.237  10.481   2.483 -0.4122  0.1884  0.1111
  674MOL0    Cl90899   6.127  10.362   2.408  0.1232 -0.2316 -0.2135
  674MOL0     C90900   5.393  10.254   2.961 -0.2841  0.4395 -0.5068
  674MOL0     C90901   5.268  10.219   2.955  0.3126  0.6003 -0.1249
  674MOL0     O90902   5.008  10.421   2.881 -0.4270  0.4937 -0.7223
  674MOL0     C90903   4.795  10.295   2.738 -0.3935 -0.4946 -0.3407
  674MOL0     C90904   4.678  10.245   2.687  0.1873 -0.4727 -0.3736
  674MOL0     N90905   3.941   9.824   2.921 -0.5717  0.8309  0.1492
  674MOL0     N90906   3.881   9.740   2.997 -0.7675 -0.9520  0.0280
  674MOL0     C90907   4.184   8.786   2.990 -0.9244 -0.3879  0.3553
  674MOL0     C90908   4.233   8.681   3.069 -0.3602  0.2380 -0.0303
  674MOL0     C90909   4.514   8.526   3.379  0.1528 -0.2261 -0.4534
  674MOL0     C90910   4.648   8.543   3.342 -0.9341 -0.0067  0.5729
  674MOL0     C90911   4.769   8.516   3.427  0.4616 -0.3075  0.7945
  674MOL0     C90912   4.744   8.487   3.558 -0.3214 -0.0507  0.8907
  674MOL0     O90913   4.860   8.475   3.623  0.2044 -0.2429 -1.0836
  674MOL0     C90914   4.859   8.414   3.751  0.9100 -0.2894 -0.6212
  674MOL0     C90915   4.878   8.521   3.853 -0.1225  0.1571  0.4691
  674MOL0     C90916   4.869   8.468   3.998 -0.0661 -0.5550 -0.0713
  674MOL0     C90917   4.922   8.576   4.088 -0.1720 -0.1867  0.7714
  674MOL0     C90918   4.896   8.524   4.226  0.8104  1.2536  0.1297
  674MOL0     C90919   4.904   8.465   4.337  0.7053 -0.2175 -0.3679
  674MOL0     C90920   4.615   8.468   3.600  0.6129 -0.0369  0.1181
  674MOL0     C90921   4.497   8.483   3.519  0.0582  0.0086 -0.1602
  674MOL0     C90922   4.362   8.465   3.590  0.5662  0.1225 -0.3742
  674MOL0     H90923   4.547   8.819   3.105 -1.2951  3.2081  0.5236
  674MOL0     H90924   4.458   8.990   2.943  0.7024 -0.6266 -0.6438
  674MOL0     H90925   4.352   9.032   2.744 -0.2383  2.1818  1.8040
  674MOL0     H90926   4.223   8.936   2.662  0.5830 -1.1861  2.5279
  674MOL0     H90927   4.220   9.182   2.611 -1.3288  0.3604 -0.1557
  674MOL0     H90928   4.203   9.226   2.782 -1.7393  0.5773  0.1487
  674MOL0     H90929   3.986   9.066   2.752 -3.8619  4.2294  2.1312
  674MOL0     H90930   4.030   9.091   2.578  0.7008  0.3851 -0.5377
  674MOL0     H90931   3.997   9.350   2.619 -1.8174  2.5963  0.7250
  674MOL0     H90932   3.853   9.239   2.639  0.3413  0.4023  0.0598
  674MOL0     H90933   3.892   9.236   2.887  2.7009  0.9444  2.6012
  674MOL0     H90934   4.014   9.352   2.857 -0.6898  0.7483  0.7771
  674MOL0     H90935   3.844   9.518   2.797 -0.6368 -0.1631  0.9441
  674MOL0     H90936   3.736   9.398   2.783 -0.7482  1.6856  0.1685
  674MOL0     H90937   3.733   9.379   3.037  0.3097 -1.0073 -1.0456
  674MOL0     H90938   3.721   9.540   3.007  1.8094  1.0353  2.7025
  674MOL0     H90939   3.882   9.527   3.180  1.6615 -1.0585  0.7955
  674MOL0     H90940   3.983   9.426   3.083 -1.6193 -0.5440  0.4184
  674MOL0     H90941   4.145   9.572   2.921  0.6248  0.2112  0.8938
  674MOL0     H90942   4.261   9.779   2.814 -0.5412 -1.1207  0.8591
  674MOL0     H90943   4.136   9.896   2.739 -1.1536  0.7885  0.6933
  674MOL0     H90944   4.154  10.033   2.939  1.0498  1.1849  1.5995
  674MOL0     H90945   4.297   9.943   2.987  2.3904  2.6887  0.1338
  674MOL0     H90946   4.359  10.132   2.891 -0.5771 -0.0319  1.1397
  674MOL0     H90947   4.228  10.126   2.773 -0.5181 -0.7409 -0.9101
  674MOL0     H90948   4.338   9.983   2.622  1.0290  1.7132 -0.3005
  674MOL0     H90949   4.459   9.921   2.742  3.4686  1.6518  3.6628
  674MOL0     H90950   4.589  10.027   2.936  0.0738 -0.3102  0.6927
  674MOL0     H90951   4.808  10.105   3.025  1.7580 -0.1727 -1.4760
  674MOL0     H90952   5.135  10.426   3.192  1.4735  0.7164  1.4608
  674MOL0     H90953   5.377  10.471   3.216  0.9189  0.5433 -0.0311
  674MOL0     H90954   5.706  10.249   2.999  1.1552  0.6400 -1.4898
  674MOL0     H90955   5.643  10.349   2.872 -0.8621  5.8132 -0.6726
  674MOL0     H90956   5.746  10.543   2.993  0.8658  0.0674 -2.1565
  674MOL0     H90957   5.823  10.438   3.108 -4.2217  2.4483  2.3110
  674MOL0     H90958   5.909  10.313   2.876 -0.2105 -0.9109  1.0430
  674MOL0     H90959   5.864  10.467   2.805  1.4093  1.7768 -0.0388
  674MOL0     H90960   6.052  10.456   3.051  4.0242  0.3608  0.0533
  674MOL0     H90961   6.006  10.586   2.941 -1.3049 -0.9994  0.5113
  674MOL0     H90962   6.184  10.353   2.903  1.3426  1.2801  3.1569
  674MOL0     H90963   6.234  10.510   2.889 -1.0167  0.8231  0.3590
  674MOL0     H90964   6.060  10.365   2.686  0.3012  0.3622 -2.2991
  674MOL0     H90965   6.069  10.531   2.684 -4.2481 -3.5765 -0.1297
  674MOL0     H90966   6.306  10.361   2.651 -0.6279  0.1873  0.7712
  674MOL0     H90967   6.329  10.524   2.678  0.5943 -0.1567 -0.0668
  674MOL0     H90968   6.209  10.586   2.478  1.1414  0.6431  0.5045
  674MOL0     H90969   6.328  10.460   2.426 -0.7185 -1.7992  0.2713
  674MOL0     H90970   5.463  10.228   2.882  0.2618  0.6418 -0.1007
  674MOL0     H90971   5.250  10.136   2.887  4.1655 -1.8037  1.4477
  674MOL0     H90972   4.848  10.371   2.681 -0.4981 -1.4479 -1.7592
  674MOL0     H90973   4.639  10.271   2.589 -1.7170 -5.6308 -1.2689
  674MOL0     H90974   4.086   8.783   2.943  0.0951 -0.7880 -1.9142
  674MOL0     H90975   4.175   8.594   3.097 -1.8393  1.3799  0.5656
  674MOL0     H90976   4.682   8.569   3.242 -0.2988  0.8479  0.9942
  674MOL0     H90977   4.870   8.514   3.387 -0.5756 -0.4548 -1.9854
  674MOL0     H90978   4.942   8.344   3.762  1.1105  0.1435  0.7839
  674MOL0     H90979   4.777   8.344   3.768  1.4846 -1.4721 -2.3913
  674MOL0     H90980   4.792   8.589   3.844 -0.1512 -0.0530 -1.1126
  674MOL0     H90981   4.968   8.580   3.834 -0.5568  0.1351 -2.0092
  674MOL0     H90982   4.932   8.379   4.005 -0.2220 -0.7301 -0.7936
  674MOL0     H90983   4.764   8.444   4.021  0.1416 -4.3890 -2.2665
  674MOL0     H90984   5.027   8.594   4.065 -0.8017  4.1987  0.4651
  674MOL0     H90985   4.883   8.677   4.076  1.4827  0.1884 -2.2246
  674MOL0     H90986   4.899   8.405   4.425  2.5924 -1.8755 -1.3104
  674MOL0     H90987   4.605   8.428   3.701 -2.4864 -0.7656 -0.3533
  674MOL0     H90988   4.345   8.357   3.587  0.6594  0.1329 -1.9156
  674MOL0     H90989   4.355   8.505   3.691 -2.6125  0.8698 -0.7938
  674MOL0     H90990   4.277   8.518   3.547 -1.8486 -2.1940  1.2008
  675MOL0     O90991   0.204  10.394   0.425  0.5352  0.2910  0.1287
  675MOL0     C90992   0.215  10.523   0.405 -0.0398 -0.2261  0.5633
  675MOL0     O90993   0.324  10.579   0.336 -0.5388 -0.3672  0.3638
  675MOL0     C90994   0.402  10.499   0.254 -0.0440  0.6491 -1.4144
  675MOL0     C90995   0.400  10.532   0.119  0.4027  1.2437 -0.0699
  675MOL0     C90996   0.477  10.456   0.026  0.6809  0.3382  0.6906
  675MOL0     C90997   0.545  10.337   0.078  0.0437 -0.0666 -0.2521
  675MOL0     O90998   0.618  10.278  -0.022 -0.5952  0.2206  0.3737
  675MOL0     C90999   0.641  10.137  -0.009  0.1796 -0.3256 -0.2203
  675MOL0     C91000   0.535  10.040  -0.058  0.1484 -0.0162 -0.4108
  675MOL0     C91001   0.554  10.012  -0.209 -0.0673  1.1102  0.6695
  675MOL0     C91002   0.450   9.903  -0.252 -0.2655  0.6981 -1.1668
  675MOL0     C91003   0.471   9.866  -0.401  1.1437 -0.3538 -0.4877
  675MOL0     C91004   0.337   9.798  -0.446  0.1617  1.0815  0.6581
  675MOL0     C91005   0.355   9.702  -0.565  0.4523  0.6196 -0.8694
  675MOL0     C91006   0.226   9.670  -0.627  0.7001  0.6967  0.8693
  675MOL0     N91007   0.184   9.762  -0.727  0.2251 -0.3628 -0.0247
  675MOL0     C91008   0.103   9.869  -0.710 -0.1407 -0.7499  0.0905
  675MOL0     C91009   0.049   9.904  -0.834  0.7183 -0.1071  0.2816
  675MOL0     C91010  -0.069  10.003  -0.829  0.0566  0.0392  0.8547
  675MOL0     C91011  -0.059  10.089  -0.954  0.0820 -0.0506 -0.2063
  675MOL0     C91012   0.039  10.211  -0.918 -0.1620  0.3323 -0.3174
  675MOL0     C91013   0.188  10.181  -0.954 -0.3146  1.0459 -0.2754
  675MOL0     O91014   0.245  10.289  -1.021  1.0879 -0.1040  0.6652
  675MOL0     C91015   0.240  10.266  -1.155 -0.9741  0.0413 -0.1940
  675MOL0     C91016   0.357  10.214  -1.219  0.2874  0.5556 -1.6424
  675MOL0     C91017   0.353  10.189  -1.358 -1.1837  0.5138 -0.1831
  675MOL0     C91018   0.244  10.226  -1.432 -1.1562 -0.7672  0.6051
  675MOL0     C91019   0.240  10.205  -1.579  0.4148  0.0331 -0.0535
  675MOL0     O91020   0.294  10.076  -1.617  0.1042  0.4204 -0.5969
  675MOL0     C91021   0.279  10.038  -1.743 -0.6886  0.1428 -0.2263
  675MOL0     C91022   0.156  10.023  -1.800 -0.1912  1.0259  0.1879
  675MOL0     C91023   0.141   9.962  -1.927  0.3953 -0.2819 -0.0735
  675MOL0     C91024   0.252   9.931  -2.009  0.1817  0.5756  0.1022
  675MOL0     O91025   0.240   9.879  -2.138  0.3602  0.0874 -0.6202
  675MOL0     C91026   0.114   9.880  -2.208  0.4587 -0.7658 -1.0637
  675MOL0     C91027   0.121   9.809  -2.347 -0.5349  0.1779  0.3566
  675MOL0     C91028   0.172   9.907  -2.441  0.5816 -0.3619 -0.6279
  675MOL0     C91029   0.208   9.842  -2.574  0.8519  0.1103  1.2944
  675MOL0     C91030   0.228   9.942  -2.689 -0.5494  0.7294  0.1420
  675MOL0     C91031   0.353  10.025  -2.661  0.3503 -0.2485  1.1945
  675MOL0     C91032   0.366  10.101  -2.803  0.1248 -0.8344  0.0125
  675MOL0     C91033   0.434  10.037  -2.926  0.3239  0.3934  0.5510
  675MOL0    Cl91034   0.440  10.152  -3.061 -0.0698 -0.2364 -0.1112
  675MOL0     C91035   0.376   9.959  -1.949 -0.0621 -0.0372  1.3593
  675MOL0     C91036   0.389  10.018  -1.820 -0.0833  0.2229 -1.1951
  675MOL0     O91037   0.218  10.297  -1.662 -0.4391  0.6737 -0.0615
  675MOL0     C91038   0.132  10.287  -1.366 -0.7962 -0.1224 -0.3598
  675MOL0     C91039   0.132  10.296  -1.229 -0.1140 -1.3317 -0.3193
  675MOL0     N91040   0.106   9.814  -0.926 -0.0727  0.2933 -0.2210
  675MOL0     N91041   0.187   9.749  -0.867 -0.3205 -0.1105  0.4012
  675MOL0     C91042   0.545  10.307   0.215  0.1337 -0.2364 -0.5271
  675MOL0     C91043   0.474  10.389   0.304 -0.5943 -0.4974  0.4806
  675MOL0     C91044   0.129  10.620   0.465 -0.6859 -0.8981  0.1423
  675MOL0     C91045   0.162  10.763   0.455  0.4520  1.1098 -0.5744
  675MOL0     C91046   0.081  10.857   0.513  0.2645 -0.7876  0.0608
  675MOL0     C91047  -0.029  10.827   0.596 -0.0039  0.2711 -0.4729
  675MOL0     O91048  -0.093  10.914   0.674  0.6446  0.2792 -0.4471
  675MOL0     C91049  -0.080  11.053   0.652  0.3628 -0.6879  0.2369
  675MOL0     C91050  -0.215  11.135   0.675  0.1158 -0.2884 -0.4904
  675MOL0     C91051  -0.291  11.101   0.816  0.5228 -0.3959  0.2825
  675MOL0     C91052  -0.435  11.160   0.826  0.8038  1.1837 -0.2012
  675MOL0     C91053  -0.450  11.306   0.806 -0.0655 -0.2614 -0.5303
  675MOL0     C91054  -0.435  11.426   0.808  0.2772  0.5175 -0.0822
  675MOL0     C91055  -0.061  10.693   0.603 -0.1805  0.4215  0.5441
  675MOL0     C91056   0.007  10.590   0.539 -1.2400 -0.0265  0.4012
  675MOL0     C91057  -0.062  10.462   0.535  0.1720 -0.1591  0.7756
  675MOL0     H91058   0.338  10.612   0.079 -2.3509 -1.9327 -2.7356
  675MOL0     H91059   0.485  10.474  -0.080  2.9010  0.3125  0.8143
  675MOL0     H91060   0.736  10.113  -0.057  0.9346  1.2534  0.4139
  675MOL0     H91061   0.649  10.127   0.100  0.9077  3.8281  0.2928
  675MOL0     H91062   0.434  10.080  -0.043  0.1896  0.4529 -1.3257
  675MOL0     H91063   0.544   9.943  -0.008  1.7026 -2.6883 -5.1923
  675MOL0     H91064   0.656   9.978  -0.231 -1.3266 -1.9683 -1.0445
  675MOL0     H91065   0.548  10.103  -0.269 -3.7604 -0.8922 -2.5219
  675MOL0     H91066   0.468   9.810  -0.197 -0.5934  2.0355  1.3780
  675MOL0     H91067   0.352   9.938  -0.219  0.8226  0.8602  2.2373
  675MOL0     H91068   0.495   9.956  -0.458 -0.2154  0.9327  0.9029
  675MOL0     H91069   0.553   9.797  -0.420  1.2790 -0.0819 -0.9125
  675MOL0     H91070   0.304   9.728  -0.369  0.7547  0.9008  0.7542
  675MOL0     H91071   0.254   9.864  -0.469 -0.2432  0.5204  0.4776
  675MOL0     H91072   0.406   9.615  -0.524  1.5921  1.4836 -0.3855
  675MOL0     H91073   0.429   9.732  -0.640 -0.0622 -1.1227 -2.1271
  675MOL0     H91074   0.234   9.571  -0.674 -3.4924  1.0034 -0.9679
  675MOL0     H91075   0.142   9.653  -0.558 -0.6507 -2.1506 -1.2404
  675MOL0     H91076   0.080   9.919  -0.617 -0.5848 -1.2313  0.2419
  675MOL0     H91077  -0.160   9.943  -0.837 -1.5985  2.6322 -2.0346
  675MOL0     H91078  -0.071  10.067  -0.740 -2.3485  1.8169 -0.3688
  675MOL0     H91079  -0.017  10.040  -1.042 -0.0212 -0.3588 -0.0876
  675MOL0     H91080  -0.155  10.134  -0.980  1.2855  3.6418  1.0653
  675MOL0     H91081   0.038  10.238  -0.812  1.8428 -1.4723  0.2188
  675MOL0     H91082   0.009  10.295  -0.982  1.9152  0.0333 -1.8039
  675MOL0     H91083   0.202  10.092  -1.015 -0.0124  1.5411 -0.9523
  675MOL0     H91084   0.232  10.158  -0.857 -1.9084 -0.1739  0.1876
  675MOL0     H91085   0.435  10.188  -1.149 -1.3315  3.1553  1.3822
  675MOL0     H91086   0.436  10.139  -1.406 -1.8327 -2.2215  1.3527
  675MOL0     H91087   0.066  10.059  -1.751  0.7928  2.8159  0.7642
  675MOL0     H91088   0.044   9.955  -1.974  0.8615 -0.1024 -1.0870
  675MOL0     H91089   0.036   9.829  -2.152 -0.7652 -1.3663 -3.1803
  675MOL0     H91090   0.065   9.977  -2.218 -2.3530 -2.2027 -2.3248
  675MOL0     H91091   0.188   9.723  -2.348  1.1923  1.4625  0.6518
  675MOL0     H91092   0.016   9.781  -2.357 -0.5893 -0.5756  2.4696
  675MOL0     H91093   0.100   9.987  -2.462  1.9789  0.6942 -1.5695
  675MOL0     H91094   0.260   9.955  -2.397  0.0277  0.5876 -0.5418
  675MOL0     H91095   0.134   9.767  -2.606  2.0736 -0.4878 -0.2398
  675MOL0     H91096   0.299   9.783  -2.563 -1.1281 -3.0408  2.3031
  675MOL0     H91097   0.142  10.007  -2.706 -1.1744 -0.2173 -0.4212
  675MOL0     H91098   0.249   9.878  -2.776 -1.2604 -1.5376  1.5433
  675MOL0     H91099   0.346  10.099  -2.580  2.5654 -0.8301  1.9856
  675MOL0     H91100   0.446   9.968  -2.656  2.0795  2.2741 -0.0073
  675MOL0     H91101   0.432  10.188  -2.795  3.4819 -2.9167 -2.4607
  675MOL0     H91102   0.269  10.142  -2.831  1.4984  2.6983 -0.1047
  675MOL0     H91103   0.537  10.000  -2.926 -0.3996 -1.9206 -2.1319
  675MOL0     H91104   0.378   9.948  -2.954  0.6778  0.9497 -2.1313
  675MOL0     H91105   0.467   9.929  -2.001 -0.1009  2.0249 -0.0481
  675MOL0     H91106   0.481  10.030  -1.765 -0.6504 -2.4359  0.5386
  675MOL0     H91107   0.044  10.319  -1.421 -1.2450  0.7302  0.8074
  675MOL0     H91108   0.047  10.329  -1.170  3.2183  0.9010  3.8026
  675MOL0     H91109   0.601  10.221   0.250  1.3319  0.3318 -0.9852
  675MOL0     H91110   0.481  10.377   0.412 -1.1888 -0.0637  0.5690
  675MOL0     H91111   0.250  10.799   0.400  0.2316  2.7318  0.0650
  675MOL0     H91112   0.125  10.956   0.516  2.3478 -1.6751  0.6288
  675MOL0     H91113  -0.045  11.071   0.550 -3.2925  1.6797 -0.7859
  675MOL0     H91114   0.002  11.091   0.714  0.4410 -1.3296  0.5485
  675MOL0     H91115  -0.284  11.123   0.592  0.3554 -0.4205 -0.6690
  675MOL0     H91116  -0.203  11.244   0.684 -0.1451 -0.3847  1.7406
  675MOL0     H91117  -0.233  11.160   0.887 -0.8246  2.3940 -0.8085
  675MOL0     H91118  -0.293  10.995   0.843  1.6064 -1.5713 -3.5371
  675MOL0     H91119  -0.507  11.106   0.764 -0.8351  1.0225  1.7414
  675MOL0     H91120  -0.482  11.126   0.919  2.0591  0.5769  0.2391
  675MOL0     H91121  -0.427  11.530   0.782 -0.1334  1.1841  2.1689
  675MOL0     H91122  -0.149  10.669   0.662  0.8568  0.4839  2.1888
  675MOL0     H91123  -0.002  10.388   0.589  2.4621 -0.6296 -2.1509
  675MOL0     H91124  -0.160  10.474   0.581 -2.2180  1.9390 -4.1501
  675MOL0     H91125  -0.087  10.436   0.432 -0.2330  1.8841  0.3313
  676MOL0     O91126   8.240   6.646   5.416 -0.1568 -0.0207 -0.3933
  676MOL0     C91127   8.338   6.603   5.357  0.1750 -1.2595 -0.4890
  676MOL0     O91128   8.469   6.644   5.380 -0.2124  0.1107  0.1955
  676MOL0     C91129   8.498   6.751   5.465  0.5561  0.4041  0.4078
  676MOL0     C91130   8.563   6.869   5.415  0.5905  0.5129  0.1802
  676MOL0     C91131   8.602   6.966   5.499  0.6960  0.6239  0.0757
  676MOL0     C91132   8.584   6.957   5.638 -0.3349 -0.3323 -0.1557
  676MOL0     O91133   8.611   7.051   5.729  0.2231 -0.9470  0.4190
  676MOL0     C91134   8.668   7.174   5.681  1.0036 -0.5008  0.0191
  676MOL0     C91135   8.572   7.275   5.646  0.8481  1.0921  0.3608
  676MOL0     C91136   8.475   7.326   5.747 -0.2586  0.4018  0.2310
  676MOL0     C91137   8.399   7.223   5.836  0.1788  0.0724  1.0351
  676MOL0     C91138   8.273   7.282   5.897  0.0801  0.5620  0.3041
  676MOL0     C91139   8.316   7.397   5.997  0.3669 -0.4585  0.5228
  676MOL0     C91140   8.198   7.474   6.067 -0.4326  0.1425  0.5897
  676MOL0     C91141   8.261   7.591   6.154 -0.6614 -0.1416 -0.0908
  676MOL0     N91142   8.335   7.690   6.079  0.2783 -0.0570  0.3236
  676MOL0     C91143   8.275   7.791   6.015 -0.3135 -0.0288  0.1263
  676MOL0     C91144   8.371   7.880   5.970 -1.5661  0.2621 -0.1650
  676MOL0     C91145   8.343   8.012   5.909  0.1767 -0.3303 -0.2476
  676MOL0     C91146   8.354   8.127   6.009 -0.2384  0.0869  0.5693
  676MOL0     C91147   8.237   8.107   6.105  0.2097  0.5776  0.5441
  676MOL0     C91148   8.192   8.229   6.190 -0.2580 -0.4297 -0.4273
  676MOL0     O91149   8.100   8.194   6.287  0.1827  0.1768  0.8608
  676MOL0     C91150   8.142   8.195   6.416  0.3092 -0.4705  0.8165
  676MOL0     C91151   8.092   8.095   6.488  0.1491  0.1855 -1.3875
  676MOL0     C91152   8.133   8.074   6.625  1.0513  0.5801 -0.6822
  676MOL0     C91153   8.214   8.171   6.681  0.1479  0.2054 -1.3176
  676MOL0     C91154   8.252   8.150   6.819 -0.1099  0.2145  0.2569
  676MOL0     O91155   8.176   8.059   6.887 -0.0970  1.0113  0.2746
  676MOL0     C91156   8.212   7.991   6.993 -0.5763 -1.1117 -0.1818
  676MOL0     C91157   8.345   7.951   7.021 -0.2521  0.0109 -0.8743
  676MOL0     C91158   8.374   7.865   7.133  0.2961  0.3535  0.6660
  676MOL0     C91159   8.264   7.808   7.206 -0.3110  0.2055  0.4085
  676MOL0     O91160   8.278   7.727   7.313 -0.9385 -0.2380  0.2309
  676MOL0     C91161   8.365   7.614   7.289 -0.2198 -0.1743  0.0961
  676MOL0     C91162   8.387   7.530   7.417  0.1026  0.7045  1.1118
  676MOL0     C91163   8.472   7.401   7.380 -0.5880  0.1821 -0.1068
  676MOL0     C91164   8.501   7.325   7.508  0.0462 -1.0153  0.6351
  676MOL0     C91165   8.631   7.244   7.477 -0.5926  0.1047 -1.3356
  676MOL0     C91166   8.664   7.166   7.608  0.6501  0.0374  1.5835
  676MOL0     C91167   8.778   7.070   7.586 -0.7343  0.5417 -0.0670
  676MOL0     C91168   8.823   7.002   7.720 -0.2298  0.0663  0.8478
  676MOL0    Cl91169   8.745   6.835   7.730  0.0775  0.1332 -0.4980
  676MOL0     C91170   8.134   7.845   7.170  0.1988 -0.7278 -0.2335
  676MOL0     C91171   8.113   7.937   7.073  0.9777  0.0710 -0.1556
  676MOL0     O91172   8.360   8.202   6.856 -0.4958  0.0334  0.3489
  676MOL0     C91173   8.262   8.274   6.609 -0.1294  0.4469 -0.1526
  676MOL0     C91174   8.234   8.280   6.471 -0.1536  0.7171  0.4014
  676MOL0     N91175   8.496   7.813   5.982  0.3253  0.5129  0.5912
  676MOL0     N91176   8.467   7.697   6.039 -0.0759 -0.2101  0.5981
  676MOL0     C91177   8.535   6.835   5.688 -0.4690  0.3558  1.4744
  676MOL0     C91178   8.500   6.729   5.601 -0.0525  0.0600 -0.2748
  676MOL0     C91179   8.306   6.501   5.253  0.2164 -0.4577  0.4176
  676MOL0     C91180   8.181   6.426   5.273  0.7403  0.2690  1.0665
  676MOL0     C91181   8.150   6.330   5.172  0.6231 -0.4463 -0.1941
  676MOL0     C91182   8.223   6.303   5.054 -0.0157  0.0745  0.0296
  676MOL0     O91183   8.200   6.197   4.969  0.3906 -0.7288  0.1576
  676MOL0     C91184   8.083   6.119   4.984  0.1919  0.3995 -0.5007
  676MOL0     C91185   8.094   6.005   4.886 -0.0768  0.0825  0.3182
  676MOL0     C91186   8.086   6.030   4.739 -0.4074 -0.0457 -0.6936
  676MOL0     C91187   8.028   5.908   4.659 -0.3857 -0.7656 -0.0666
  676MOL0     C91188   7.977   5.952   4.523  0.6188  0.2478 -0.7492
  676MOL0     C91189   7.965   5.981   4.408  0.2573  0.3635 -0.1143
  676MOL0     C91190   8.336   6.381   5.039 -0.2010 -0.2053 -0.6108
  676MOL0     C91191   8.384   6.476   5.133  0.0958  0.3115  0.9176
  676MOL0     C91192   8.504   6.562   5.099 -0.2503 -0.1727  0.1815
  676MOL0     H91193   8.564   6.888   5.308 -0.4474  0.5627  0.1674
  676MOL0     H91194   8.630   7.060   5.452  3.9882  0.1329  0.7696
  676MOL0     H91195   8.735   7.216   5.757  0.5877  2.0484 -0.9378
  676MOL0     H91196   8.734   7.165   5.594  0.1287  1.7994 -0.9444
  676MOL0     H91197   8.507   7.233   5.570 -2.7302 -0.2638  3.8280
  676MOL0     H91198   8.622   7.363   5.604 -1.7431  1.4835 -2.1931
  676MOL0     H91199   8.399   7.393   5.705 -0.2679  0.1200 -0.2178
  676MOL0     H91200   8.528   7.386   5.820  0.1749 -0.4612  0.6422
  676MOL0     H91201   8.372   7.133   5.780 -1.0870  1.3048 -0.4406
  676MOL0     H91202   8.462   7.191   5.919  0.2365  1.2769  1.4779
  676MOL0     H91203   8.209   7.314   5.815 -1.2037  0.3547  1.1943
  676MOL0     H91204   8.228   7.205   5.960  1.2864 -0.7594 -0.4146
  676MOL0     H91205   8.380   7.354   6.074 -0.4395 -2.3302  0.1917
  676MOL0     H91206   8.373   7.476   5.948  1.3358 -1.3854  0.1319
  676MOL0     H91207   8.141   7.408   6.133 -1.3104 -0.4899 -0.7795
  676MOL0     H91208   8.138   7.517   5.987 -0.0665  1.9783  1.2650
  676MOL0     H91209   8.183   7.629   6.220 -1.9829 -4.2327  1.0175
  676MOL0     H91210   8.325   7.550   6.232  1.1314  1.6187 -0.5576
  676MOL0     H91211   8.168   7.799   6.000 -0.2064  2.4907  0.2481
  676MOL0     H91212   8.415   8.025   5.827 -0.7102 -2.8025 -1.5322
  676MOL0     H91213   8.243   8.014   5.866 -0.0709 -1.6245  0.2458
  676MOL0     H91214   8.455   8.121   6.051  2.4582 -1.9263 -5.1510
  676MOL0     H91215   8.355   8.226   5.962 -0.4847  0.6832  1.7956
  676MOL0     H91216   8.272   8.026   6.169 -0.2918 -2.1598 -2.4066
  676MOL0     H91217   8.144   8.088   6.050  0.4934  4.1762 -1.4736
  676MOL0     H91218   8.147   8.303   6.124 -0.5005 -0.3853 -0.2122
  676MOL0     H91219   8.278   8.279   6.235  1.2780 -1.1414 -2.4156
  676MOL0     H91220   8.017   8.028   6.446 -1.8878  0.9680  0.7601
  676MOL0     H91221   8.096   7.983   6.671  2.4507  0.6277  0.6281
  676MOL0     H91222   8.432   7.986   6.966 -0.1201  1.2428  0.0572
  676MOL0     H91223   8.471   7.834   7.170  0.1116  0.8909  1.6548
  676MOL0     H91224   8.336   7.543   7.212  2.6717 -0.9873 -0.3670
  676MOL0     H91225   8.463   7.658   7.270 -1.8833  3.5604 -0.7105
  676MOL0     H91226   8.440   7.604   7.478  1.2383  1.9921 -1.3254
  676MOL0     H91227   8.289   7.492   7.449 -0.2588  0.0893 -0.6337
  676MOL0     H91228   8.426   7.332   7.309 -4.3582  3.2786 -1.0198
  676MOL0     H91229   8.567   7.434   7.336  0.7801  1.1331  3.2065
  676MOL0     H91230   8.424   7.249   7.522  1.7711 -3.1332 -0.6759
  676MOL0     H91231   8.520   7.400   7.585 -0.9755 -0.7977  0.6873
  676MOL0     H91232   8.720   7.306   7.468 -0.1537 -0.4990 -1.1961
  676MOL0     H91233   8.608   7.176   7.394 -1.5994 -1.3785  0.0920
  676MOL0     H91234   8.685   7.245   7.681  0.1007  0.1451  1.6331
  676MOL0     H91235   8.581   7.104   7.643 -1.0922  1.3205 -0.0098
  676MOL0     H91236   8.867   7.118   7.545 -1.0865  1.5698  0.3181
  676MOL0     H91237   8.750   6.996   7.511  3.5812 -1.3284 -0.0948
  676MOL0     H91238   8.930   6.980   7.727 -0.5043 -1.1243  1.7939
  676MOL0     H91239   8.795   7.059   7.809  1.3756  2.5425 -0.1287
  676MOL0     H91240   8.059   7.795   7.230  0.3236  0.7610  1.2507
  676MOL0     H91241   8.008   7.962   7.061  1.0621  0.5446  0.0747
  676MOL0     H91242   8.315   8.350   6.665  1.0722 -1.8576  2.0295
  676MOL0     H91243   8.281   8.359   6.413  0.0310  0.1273 -0.2721
  676MOL0     H91244   8.548   6.815   5.794  1.9011  2.2749  1.6317
  676MOL0     H91245   8.470   6.638   5.653 -0.1306  0.5626  0.5722
  676MOL0     H91246   8.112   6.424   5.356  0.4146 -0.1019  0.7968
  676MOL0     H91247   8.063   6.267   5.187 -2.3500  2.7266 -2.4201
  676MOL0     H91248   7.986   6.169   4.975 -0.6524 -1.1430 -0.2701
  676MOL0     H91249   8.088   6.085   5.088 -2.1826  1.8495  0.1667
  676MOL0     H91250   8.023   5.923   4.898  1.0769 -1.8039 -3.8015
  676MOL0     H91251   8.188   5.960   4.920  0.7697  2.2980  1.0361
  676MOL0     H91252   8.178   6.068   4.695  1.1921  0.4008  2.6901
  676MOL0     H91253   8.016   6.114   4.729  0.8868  1.1213 -0.2998
  676MOL0     H91254   8.097   5.824   4.672  1.2499  0.7000  1.3971
  676MOL0     H91255   7.932   5.876   4.701 -0.3078 -2.8759 -1.3344
  676MOL0     H91256   7.937   6.001   4.306  0.5730  3.0536  0.2651
  676MOL0     H91257   8.404   6.369   4.955  2.7684  0.3989  1.5507
  676MOL0     H91258   8.587   6.568   5.170  1.0086  1.0121 -1.3052
  676MOL0     H91259   8.551   6.523   5.008 -2.3454 -1.0078 -0.6012
  676MOL0     H91260   8.457   6.661   5.094 -0.7176 -0.3061  1.5507
  677MOL0     O91261   5.444  11.399   4.018 -0.0471 -0.2582  0.0312
  677MOL0     C91262   5.528  11.380   3.926  0.6874 -0.1901  0.2875
  677MOL0     O91263   5.595  11.480   3.849 -0.3088  0.0948  0.3574
  677MOL0     C91264   5.543  11.609   3.874  0.2789  1.5046 -0.8477
  677MOL0     C91265   5.464  11.681   3.775  0.0404 -0.6910 -0.4871
  677MOL0     C91266   5.415  11.805   3.813  0.2301 -1.3909 -0.3356
  677MOL0     C91267   5.453  11.863   3.933 -0.0456  0.4004  0.3957
  677MOL0     O91268   5.409  11.991   3.947  0.7172 -0.9768  0.5784
  677MOL0     C91269   5.496  12.096   3.995 -0.4022  0.2686  1.0088
  677MOL0     C91270   5.414  12.226   4.012 -0.6730 -0.0343  0.0161
  677MOL0     C91271   5.499  12.337   4.067  0.2734  0.1202 -0.7181
  677MOL0     C91272   5.425  12.465   4.096 -0.3289  1.2811 -0.0131
  677MOL0     C91273   5.485  12.553   4.197  0.6108  0.1786  0.0897
  677MOL0     C91274   5.614  12.625   4.143  0.1120 -0.2272 -0.5526
  677MOL0     C91275   5.591  12.733   4.035  0.2476  0.3937  0.0192
  677MOL0     C91276   5.514  12.852   4.102  0.3794  0.3465 -0.9307
  677MOL0     N91277   5.498  12.967   4.008  0.2522 -0.4561 -0.3728
  677MOL0     C91278   5.410  13.073   4.012  0.7372  0.1104 -0.4067
  677MOL0     C91279   5.450  13.159   3.915  0.4463 -0.3414 -0.2389
  677MOL0     C91280   5.394  13.288   3.879 -0.2136 -0.5804  0.7255
  677MOL0     C91281   5.248  13.310   3.912 -0.8245  0.5221 -0.5844
  677MOL0     C91282   5.204  13.339   4.058  0.4742  0.1989  0.2053
  677MOL0     C91283   5.091  13.443   4.057 -0.3878 -0.3392  0.7372
  677MOL0     O91284   5.067  13.487   4.195  0.1858  0.4793 -0.2253
  677MOL0     C91285   4.940  13.489   4.232  0.2740 -0.1620  1.1150
  677MOL0     C91286   4.908  13.453   4.363  0.3605 -0.3786  0.1063
  677MOL0     C91287   4.784  13.459   4.410  0.1874 -1.0669 -0.9699
  677MOL0     C91288   4.681  13.527   4.342  0.2146 -0.4539  0.6153
  677MOL0     C91289   4.553  13.557   4.409 -0.7828  0.4071  0.0665
  677MOL0     O91290   4.540  13.499   4.536 -0.5271 -0.5111 -0.3750
  677MOL0     C91291   4.427  13.536   4.602  0.2792  0.7319 -0.0702
  677MOL0     C91292   4.396  13.669   4.620  0.3652  0.0251  0.6644
  677MOL0     C91293   4.272  13.702   4.674  0.2936  0.2731 -0.1797
  677MOL0     C91294   4.180  13.609   4.726  0.0769  0.4136 -0.5929
  677MOL0     O91295   4.061  13.640   4.784  0.2082  0.0757 -0.1029
  677MOL0     C91296   4.027  13.777   4.801  0.0790  0.3269  0.9889
  677MOL0     C91297   3.903  13.811   4.877 -0.0528  0.0078 -0.6482
  677MOL0     C91298   3.856  13.953   4.845 -0.2302 -1.0860 -0.1046
  677MOL0     C91299   3.720  13.978   4.903  0.8874  0.2013  0.3003
  677MOL0     C91300   3.664  14.098   4.821  0.2030  0.8517 -0.7493
  677MOL0     C91301   3.519  14.124   4.855 -0.6083 -0.6356  0.8487
  677MOL0     C91302   3.469  14.264   4.807 -0.4177 -0.4899 -0.2552
  677MOL0     C91303   3.518  14.385   4.887  0.9542  0.2892 -0.1895
  677MOL0    Cl91304   3.480  14.353   5.066  0.1884  0.2783  0.1246
  677MOL0     C91305   4.215  13.477   4.722  0.7103 -1.0360  0.2629
  677MOL0     C91306   4.339  13.433   4.656 -0.0997 -0.4459 -0.0492
  677MOL0     O91307   4.462  13.612   4.348 -0.2403 -0.1412  0.3027
  677MOL0     C91308   4.709  13.570   4.210 -0.0440 -0.2315 -0.4324
  677MOL0     C91309   4.838  13.545   4.154  0.1882  0.3474 -0.8365
  677MOL0     N91310   5.562  13.106   3.857 -1.1500 -0.4045  0.1730
  677MOL0     N91311   5.596  13.007   3.919  0.8103  0.2710 -0.0934
  677MOL0     C91312   5.537  11.804   4.021  0.2279 -0.3005  0.0936
  677MOL0     C91313   5.576  11.668   4.001 -0.5141 -0.8830 -0.1195
  677MOL0     C91314   5.562  11.241   3.886 -0.4282  1.0439  0.4314
  677MOL0     C91315   5.638  11.219   3.768 -0.5950  0.1014 -0.1864
  677MOL0     C91316   5.674  11.094   3.733 -0.0033  0.5687  0.0563
  677MOL0     C91317   5.652  10.977   3.812  0.9869 -0.3505 -0.2005
  677MOL0     O91318   5.693  10.853   3.780  0.4298  0.5853  0.7578
  677MOL0     C91319   5.723  10.818   3.639  0.1039  0.8053 -0.2231
  677MOL0     C91320   5.606  10.831   3.540 -0.4628 -0.3060  0.4442
  677MOL0     C91321   5.477  10.755   3.586  0.8179 -0.1478 -0.1271
  677MOL0     C91322   5.352  10.801   3.515 -0.1717 -0.1832 -0.0489
  677MOL0     C91323   5.362  10.757   3.378  0.1720 -0.4615 -0.2346
  677MOL0     C91324   5.379  10.727   3.265 -0.7059 -0.1925  0.9471
  677MOL0     C91325   5.565  10.998   3.922 -0.8954  0.1590 -0.1726
  677MOL0     C91326   5.515  11.121   3.961  0.3524  0.4398  0.7647
  677MOL0     C91327   5.420  11.138   4.085  0.7564 -0.4760  0.2120
  677MOL0     H91328   5.445  11.639   3.677  1.7076  0.0349 -1.1744
  677MOL0     H91329   5.338  11.859   3.759  0.7386 -1.0523 -0.7369
  677MOL0     H91330   5.551  12.075   4.087  0.3183 -2.0161  0.1419
  677MOL0     H91331   5.570  12.123   3.919 -0.6628  0.6752  0.8930
  677MOL0     H91332   5.327  12.210   4.076 -1.8506  2.5669 -0.8085
  677MOL0     H91333   5.386  12.257   3.911  3.6240 -2.4255 -2.1999
  677MOL0     H91334   5.577  12.352   3.992  1.6782  2.8918  1.1207
  677MOL0     H91335   5.542  12.294   4.158  0.1283 -0.4279 -0.9060
  677MOL0     H91336   5.412  12.525   4.005 -0.5925  1.3753  0.0869
  677MOL0     H91337   5.327  12.441   4.137 -0.9692  0.1181 -2.0694
  677MOL0     H91338   5.417  12.633   4.226 -1.9134 -1.2169 -1.5585
  677MOL0     H91339   5.508  12.491   4.284  0.0045 -0.9452 -0.5193
  677MOL0     H91340   5.679  12.668   4.220 -3.0586  1.4975  1.3655
  677MOL0     H91341   5.675  12.549   4.093  1.1662 -1.1612  2.0036
  677MOL0     H91342   5.525  12.693   3.958 -0.5498 -0.4829  1.1293
  677MOL0     H91343   5.693  12.755   4.002 -0.8602  3.2386 -1.9867
  677MOL0     H91344   5.412  12.831   4.135  0.7078  2.6085  1.8441
  677MOL0     H91345   5.569  12.892   4.188 -0.8438 -0.2322  0.1522
  677MOL0     H91346   5.318  13.083   4.068 -0.5080  2.2137 -2.6541
  677MOL0     H91347   5.454  13.369   3.921  4.5589 -2.4244 -1.8184
  677MOL0     H91348   5.397  13.292   3.769 -1.0242 -0.8188  0.6855
  677MOL0     H91349   5.225  13.398   3.852  1.6595  2.1647  0.6673
  677MOL0     H91350   5.198  13.221   3.873  1.4972 -1.1179 -0.0290
  677MOL0     H91351   5.282  13.399   4.106 -1.5062  2.2316  1.0579
  677MOL0     H91352   5.185  13.251   4.120 -0.4407  0.3573  0.1618
  677MOL0     H91353   5.001  13.405   4.008 -1.8469  2.3444  1.1189
  677MOL0     H91354   5.119  13.537   4.007 -3.1965  0.3405  0.2732
  677MOL0     H91355   4.983  13.402   4.423  1.9937  3.3105  1.4641
  677MOL0     H91356   4.777  13.421   4.512  3.0973  1.3195  0.2681
  677MOL0     H91357   4.456  13.750   4.580 -0.0904 -0.7724 -1.8346
  677MOL0     H91358   4.254  13.809   4.674  4.1230  1.0471 -0.3301
  677MOL0     H91359   4.110  13.833   4.845 -1.1311  2.2287  0.9678
  677MOL0     H91360   4.005  13.815   4.701 -2.6952 -4.5474 -0.5803
  677MOL0     H91361   3.828  13.736   4.853  1.9098 -2.7057  1.1647
  677MOL0     H91362   3.934  13.799   4.981  1.4622  0.0622 -1.0712
  677MOL0     H91363   3.930  14.022   4.887 -1.2551  0.1031 -0.1959
  677MOL0     H91364   3.861  13.971   4.738  1.4621 -0.2796  0.0728
  677MOL0     H91365   3.728  13.999   5.010 -2.9529  3.4075  0.2007
  677MOL0     H91366   3.669  13.882   4.889  0.9949  0.0728  0.7518
  677MOL0     H91367   3.660  14.081   4.713 -4.1575 -1.6392 -0.4333
  677MOL0     H91368   3.725  14.186   4.842  1.7750 -0.2248 -0.6439
  677MOL0     H91369   3.463  14.046   4.803  0.1386  0.0853 -1.1686
  677MOL0     H91370   3.500  14.116   4.962  1.4628  1.8653  1.5176
  677MOL0     H91371   3.360  14.254   4.805 -0.3775 -1.1401  0.5754
  677MOL0     H91372   3.506  14.273   4.704  1.2986  1.9632  0.4929
  677MOL0     H91373   3.621  14.413   4.862  0.5879  1.8253 -0.0577
  677MOL0     H91374   3.454  14.469   4.859 -0.3431  0.3099  2.5568
  677MOL0     H91375   4.147  13.413   4.777  3.3213 -1.8020  2.8832
  677MOL0     H91376   4.362  13.328   4.668 -1.8619 -0.9356 -0.7413
  677MOL0     H91377   4.653  13.630   4.138  0.3119 -1.3708 -1.6820
  677MOL0     H91378   4.870  13.582   4.058  1.0487  1.4523 -0.1442
  677MOL0     H91379   5.556  11.844   4.120 -0.5358  1.2951 -0.3575
  677MOL0     H91380   5.649  11.624   4.069 -1.9339  0.6719  2.6156
  677MOL0     H91381   5.669  11.304   3.709 -0.7627  2.0179  2.3099
  677MOL0     H91382   5.737  11.091   3.644  0.5755  2.0389  0.3875
  677MOL0     H91383   5.755  10.713   3.640  4.8925  2.0386  1.3312
  677MOL0     H91384   5.812  10.865   3.599  2.7054 -1.1453  2.7455
  677MOL0     H91385   5.640  10.789   3.445  0.2030  1.0438  0.0680
  677MOL0     H91386   5.592  10.939   3.532  0.5128 -0.2165 -0.2242
  677MOL0     H91387   5.458  10.765   3.694  2.0927 -0.8696  0.1850
  677MOL0     H91388   5.492  10.647   3.572 -1.0010 -0.5539  0.7371
  677MOL0     H91389   5.269  10.759   3.573  0.8733 -3.1412 -0.5796
  677MOL0     H91390   5.363  10.910   3.510 -0.4196 -0.0917  1.0462
  677MOL0     H91391   5.389  10.720   3.159 -1.2912 -2.4100  0.9895
  677MOL0     H91392   5.535  10.911   3.981  0.5220  0.1462  0.5815
  677MOL0     H91393   5.479  11.171   4.170  1.0797 -0.8695  0.1458
  677MOL0     H91394   5.335  11.205   4.072 -0.8173 -1.9603  2.1434
  677MOL0     H91395   5.382  11.035   4.093  0.3951 -0.2057  3.0438
  678MOL0     O91396   5.414   6.870   6.717  0.0558  0.9963  0.5734
  678MOL0     C91397   5.419   6.774   6.788  0.0648  0.3438 -0.7779
  678MOL0     O91398   5.438   6.645   6.745 -0.7136  0.3654  0.1743
  678MOL0     C91399   5.461   6.624   6.612 -0.3595  0.6269  0.0002
  678MOL0     C91400   5.349   6.629   6.527 -0.6586  0.2936 -0.4430
  678MOL0     C91401   5.361   6.607   6.389 -0.6735 -0.4885 -0.6726
  678MOL0     C91402   5.488   6.569   6.335  0.1196  0.1866  0.9669
  678MOL0     O91403   5.493   6.558   6.206  0.4880  0.2539  0.6671
  678MOL0     C91404   5.607   6.596   6.130 -0.2041 -0.1302 -0.8298
  678MOL0     C91405   5.582   6.608   5.981 -0.5819 -0.0508 -0.7642
  678MOL0     C91406   5.472   6.709   5.964  0.2417  0.3318  0.2471
  678MOL0     C91407   5.469   6.764   5.823  0.1008 -0.6651  0.2078
  678MOL0     C91408   5.350   6.870   5.814 -0.6664 -0.1107 -0.2439
  678MOL0     C91409   5.313   6.915   5.675 -0.3283 -0.0123  0.6175
  678MOL0     C91410   5.278   7.080   5.671 -0.2416  0.7936 -0.0706
  678MOL0     C91411   5.249   7.135   5.529 -0.3259  0.4244 -0.9649
  678MOL0     N91412   5.270   7.283   5.518 -0.0714  0.9680 -0.2221
  678MOL0     C91413   5.179   7.374   5.562 -0.1988 -0.7129  0.4785
  678MOL0     C91414   5.227   7.498   5.539  0.0755 -0.3931  0.3630
  678MOL0     C91415   5.161   7.632   5.592  0.9702  0.3542  0.3569
  678MOL0     C91416   5.168   7.748   5.494  0.1188  0.3394 -0.3001
  678MOL0     C91417   5.031   7.763   5.409 -0.5633  0.3245 -0.3179
  678MOL0     C91418   5.059   7.839   5.276  0.2602 -0.7022 -1.0284
  678MOL0     O91419   4.942   7.841   5.197  0.0201 -0.9566 -1.4259
  678MOL0     C91420   4.950   7.919   5.088  0.2885 -0.0377 -0.6002
  678MOL0     C91421   4.860   8.033   5.091  0.0373  0.0066 -0.8370
  678MOL0     C91422   4.870   8.115   4.982  0.5917 -0.3362  0.3569
  678MOL0     C91423   4.976   8.113   4.889 -0.9284 -0.3295  0.7822
  678MOL0     C91424   5.001   8.218   4.777 -0.4502 -0.3100 -0.0027
  678MOL0     O91425   5.082   8.175   4.667  0.1320  0.8974  0.5225
  678MOL0     C91426   5.151   8.269   4.590  0.0987 -1.2011  0.0054
  678MOL0     C91427   5.259   8.347   4.643  0.0751 -0.0114 -0.1306
  678MOL0     C91428   5.337   8.424   4.563 -0.2781  0.3336 -0.4177
  678MOL0     C91429   5.327   8.411   4.422  0.3904 -0.0170 -0.6369
  678MOL0     O91430   5.406   8.484   4.332  0.4705  0.4832 -1.2677
  678MOL0     C91431   5.509   8.573   4.377  0.1957 -0.0226 -0.1614
  678MOL0     C91432   5.652   8.515   4.354 -0.6139  1.2253  0.3123
  678MOL0     C91433   5.687   8.418   4.468  0.3171  0.7712  0.7926
  678MOL0     C91434   5.823   8.347   4.446  0.3533  0.2999  0.2581
  678MOL0     C91435   5.858   8.236   4.548 -0.1857 -0.1622 -1.1477
  678MOL0     C91436   5.999   8.179   4.548  0.7883  0.1134 -0.3812
  678MOL0     C91437   6.079   8.195   4.418 -0.1589  0.3974 -0.1989
  678MOL0     C91438   6.202   8.101   4.422 -0.4997 -0.5695  0.6003
  678MOL0    Cl91439   6.308   8.139   4.284 -0.1745 -0.1007 -0.0803
  678MOL0     C91440   5.231   8.327   4.370  0.6059  0.4789  0.3415
  678MOL0     C91441   5.135   8.260   4.451  0.0579 -0.1214  1.3741
  678MOL0     O91442   4.969   8.332   4.802 -0.2786 -0.6096  0.5590
  678MOL0     C91443   5.067   8.008   4.890  0.5588  0.7751  0.4434
  678MOL0     C91444   5.055   7.908   4.992 -0.0649  0.0948  0.2439
  678MOL0     N91445   5.355   7.473   5.502  0.6151 -1.1040  0.5192
  678MOL0     N91446   5.380   7.349   5.477  0.3652 -0.0112  0.4604
  678MOL0     C91447   5.601   6.546   6.426  0.2077 -0.4533 -1.2277
  678MOL0     C91448   5.588   6.583   6.565 -0.9170  0.5303 -0.8514
  678MOL0     C91449   5.393   6.795   6.935 -0.0218 -0.8572 -0.2231
  678MOL0     C91450   5.392   6.689   7.027  0.3866  0.6908  0.2641
  678MOL0     C91451   5.366   6.703   7.164 -0.3765  1.0572  0.2295
  678MOL0     C91452   5.333   6.828   7.203  0.0629 -0.4247  0.3788
  678MOL0     O91453   5.308   6.844   7.334  0.1635  0.2479 -0.4534
  678MOL0     C91454   5.261   6.962   7.400  0.5147 -0.5991  0.7421
  678MOL0     C91455   5.257   6.933   7.544  0.6151  0.5529  0.0866
  678MOL0     C91456   5.241   7.046   7.633 -0.1782  0.4652  0.3835
  678MOL0     C91457   5.100   7.106   7.627  0.0143  0.4947  0.9347
  678MOL0     C91458   5.100   7.195   7.737  0.2364 -0.2374 -0.9343
  678MOL0     C91459   5.090   7.266   7.832  0.5714  1.2562 -0.2130
  678MOL0     C91460   5.318   6.936   7.113 -0.0796  0.0381  0.7400
  678MOL0     C91461   5.359   6.922   6.979 -0.1936 -0.0660  0.2845
  678MOL0     C91462   5.340   7.052   6.904 -0.5351 -0.1944  0.5105
  678MOL0     H91463   5.255   6.656   6.573 -3.6296 -4.0139 -3.2247
  678MOL0     H91464   5.277   6.617   6.323  0.7453  1.3562 -2.2919
  678MOL0     H91465   5.637   6.694   6.168 -1.9169  0.3904 -0.7470
  678MOL0     H91466   5.684   6.520   6.146 -0.1734  0.6938  5.0340
  678MOL0     H91467   5.555   6.524   5.917 -0.2683  0.4125 -1.5121
  678MOL0     H91468   5.672   6.648   5.935  1.1269 -1.7770  0.8712
  678MOL0     H91469   5.480   6.789   6.037 -2.2479 -0.9417  2.0426
  678MOL0     H91470   5.373   6.665   5.980  0.3521 -0.3525 -0.8053
  678MOL0     H91471   5.558   6.820   5.792 -0.8903  2.3686  2.4199
  678MOL0     H91472   5.454   6.688   5.745  3.1355 -1.2208  0.0261
  678MOL0     H91473   5.268   6.844   5.881  0.2629  1.1798  1.4570
  678MOL0     H91474   5.384   6.967   5.852 -0.8639  0.9853 -2.6978
  678MOL0     H91475   5.391   6.894   5.600 -0.7990  3.0511 -0.9083
  678MOL0     H91476   5.223   6.862   5.643 -0.9767  1.8547 -0.8866
  678MOL0     H91477   5.364   7.135   5.710  0.1956 -1.8021  3.0027
  678MOL0     H91478   5.190   7.110   5.729 -0.5076  1.2420 -0.6889
  678MOL0     H91479   5.324   7.091   5.464  1.4421 -1.1539  1.9429
  678MOL0     H91480   5.151   7.114   5.484 -0.8501 -0.3887  0.5017
  678MOL0     H91481   5.088   7.347   5.614  0.0180 -2.7675 -0.1167
  678MOL0     H91482   5.056   7.607   5.605  1.3573 -2.0619 -0.6142
  678MOL0     H91483   5.208   7.662   5.686  2.6447  3.2653 -1.2455
  678MOL0     H91484   5.183   7.839   5.552  1.2664 -0.2887  0.4379
  678MOL0     H91485   5.252   7.740   5.424 -0.1001 -0.3765 -0.4937
  678MOL0     H91486   4.972   7.828   5.474  1.7137  1.5468  0.6614
  678MOL0     H91487   4.976   7.669   5.406  3.7770 -2.6530  1.7141
  678MOL0     H91488   5.148   7.801   5.224  0.3954  0.0574 -1.3762
  678MOL0     H91489   5.092   7.939   5.304  0.1459 -0.3625 -2.0608
  678MOL0     H91490   4.783   8.038   5.167 -0.5747 -0.1688 -1.4377
  678MOL0     H91491   4.796   8.192   4.966  2.5048  1.4354 -0.4419
  678MOL0     H91492   5.273   8.360   4.750 -1.5639  1.5189 -0.0610
  678MOL0     H91493   5.413   8.482   4.613  0.2837  0.0047 -0.8841
  678MOL0     H91494   5.497   8.667   4.323 -0.2706  0.6995  1.1399
  678MOL0     H91495   5.506   8.602   4.483 -1.0477 -5.1009  1.5031
  678MOL0     H91496   5.659   8.458   4.260 -1.7738 -0.5117  1.2165
  678MOL0     H91497   5.723   8.597   4.367  1.7357 -0.4887 -1.0045
  678MOL0     H91498   5.683   8.478   4.560  1.7744 -0.0760  1.4271
  678MOL0     H91499   5.603   8.348   4.481 -0.4316  1.5371  0.2325
  678MOL0     H91500   5.909   8.414   4.444  1.8327 -1.5455 -1.1703
  678MOL0     H91501   5.816   8.290   4.353  2.6994 -0.1600  0.3236
  678MOL0     H91502   5.785   8.155   4.546 -0.4352 -0.0515  0.9994
  678MOL0     H91503   5.851   8.278   4.649 -1.1161  0.3606 -1.4205
  678MOL0     H91504   6.050   8.229   4.632  0.3373 -0.2815  0.1368
  678MOL0     H91505   5.992   8.074   4.578 -0.9777 -0.5874 -2.9234
  678MOL0     H91506   6.123   8.293   4.398  1.9594 -0.2528  0.9563
  678MOL0     H91507   6.002   8.175   4.342  0.7819  1.5940 -1.5139
  678MOL0     H91508   6.251   8.123   4.517 -2.2329  1.2976  1.1348
  678MOL0     H91509   6.158   8.001   4.412 -0.1010 -1.0246  2.8664
  678MOL0     H91510   5.213   8.323   4.263  3.6524 -0.0647 -0.2438
  678MOL0     H91511   5.054   8.202   4.407 -0.1453  0.4656  0.9612
  678MOL0     H91512   5.138   8.006   4.808 -0.7034 -2.3676 -0.7235
  678MOL0     H91513   5.122   7.822   4.984 -2.8059 -2.3458  1.4840
  678MOL0     H91514   5.695   6.509   6.388  0.2400  1.1369 -2.8110
  678MOL0     H91515   5.672   6.570   6.633 -1.1626 -0.4277 -0.7234
  678MOL0     H91516   5.410   6.585   7.002 -3.1280  0.2107 -0.9073
  678MOL0     H91517   5.372   6.617   7.230  0.6280 -0.8826 -2.2305
  678MOL0     H91518   5.159   6.981   7.364  1.6470  1.8480 -1.6025
  678MOL0     H91519   5.318   7.049   7.365 -0.7520  0.8738  2.1803
  678MOL0     H91520   5.354   6.891   7.574  0.3101  0.2511  0.6526
  678MOL0     H91521   5.174   6.864   7.561 -0.0900  0.6437 -2.5611
  678MOL0     H91522   5.312   7.123   7.602 -0.2501 -0.4072 -2.2757
  678MOL0     H91523   5.266   7.001   7.729  0.8260 -0.3361 -0.2320
  678MOL0     H91524   5.090   7.162   7.533  1.4626  2.0511  1.6557
  678MOL0     H91525   5.021   7.031   7.633  0.5439 -0.4061 -1.7767
  678MOL0     H91526   5.061   7.331   7.913 -0.9783 -0.0415  0.3267
  678MOL0     H91527   5.298   7.033   7.158  0.0065  0.0140  0.8326
  678MOL0     H91528   5.319   7.138   6.968  2.9157 -0.3800  2.1577
  678MOL0     H91529   5.428   7.069   6.841  0.5455  1.1202  2.2862
  678MOL0     H91530   5.243   7.045   6.854 -1.3041  1.7823  1.6431
  679MOL0     O91531   5.075   7.435   8.790 -0.0314  0.4609 -0.2054
  679MOL0     C91532   5.156   7.513   8.843  0.1270 -0.4786  0.1194
  679MOL0     O91533   5.124   7.641   8.861 -0.8426 -0.0474  0.0655
  679MOL0     C91534   5.066   7.687   8.744  0.4183 -0.2209  0.1129
  679MOL0     C91535   4.932   7.724   8.737 -0.0191  0.4721  0.5292
  679MOL0     C91536   4.875   7.771   8.612  0.6216  0.3185 -1.2856
  679MOL0     C91537   4.951   7.781   8.492 -0.6458  0.8850  0.0514
  679MOL0     O91538   4.908   7.827   8.369  1.0956  0.4462 -0.4496
  679MOL0     C91539   4.767   7.872   8.370 -0.2199  0.5797 -0.6383
  679MOL0     C91540   4.738   7.919   8.225 -0.6856  0.2143  0.2477
  679MOL0     C91541   4.599   7.981   8.232 -0.0715 -0.1388 -0.0409
  679MOL0     C91542   4.572   8.057   8.102  1.6074 -0.5092  0.8191
  679MOL0     C91543   4.430   8.115   8.122  0.0067 -0.0931  0.1859
  679MOL0     C91544   4.375   8.185   7.989 -0.3730  0.1916  0.7320
  679MOL0     C91545   4.240   8.253   8.009 -0.4936 -0.5399 -1.1849
  679MOL0     C91546   4.256   8.373   8.103  0.8479 -0.3699 -0.2644
  679MOL0     N91547   4.160   8.481   8.091  0.0332  0.1940  0.6337
  679MOL0     C91548   4.022   8.474   8.089  0.4223  0.4125 -0.8436
  679MOL0     C91549   3.971   8.596   8.122 -1.0756 -0.1100  0.4378
  679MOL0     C91550   3.827   8.632   8.108  0.3179  0.7573 -0.3533
  679MOL0     C91551   3.802   8.756   8.009  0.1842 -0.0109 -0.2625
  679MOL0     C91552   3.834   8.733   7.865 -0.6844 -0.3868  0.1417
  679MOL0     C91553   3.768   8.633   7.785 -0.4750  0.8028 -0.9148
  679MOL0     O91554   3.624   8.649   7.803 -0.2931  0.2749 -0.0786
  679MOL0     C91555   3.539   8.621   7.696  0.2420 -0.3720 -0.0254
  679MOL0     C91556   3.412   8.683   7.693 -0.5523  0.4536 -0.0193
  679MOL0     C91557   3.333   8.673   7.580 -0.5323 -0.3787 -0.0717
  679MOL0     C91558   3.368   8.599   7.461 -0.2767  0.1144 -0.0824
  679MOL0     C91559   3.280   8.591   7.348 -0.7947  0.6029  0.2668
  679MOL0     O91560   3.275   8.479   7.263  0.5146  0.5451 -0.1827
  679MOL0     C91561   3.177   8.467   7.163  0.4547  0.3789  0.0424
  679MOL0     C91562   3.216   8.436   7.038 -0.3921  0.2636  0.3737
  679MOL0     C91563   3.122   8.431   6.933  0.2474  0.0258 -0.1105
  679MOL0     C91564   2.988   8.443   6.965 -0.3540  0.0018 -0.3408
  679MOL0     O91565   2.882   8.415   6.881 -0.0068  0.5202 -0.0111
  679MOL0     C91566   2.914   8.400   6.743  0.4894 -0.4899  0.3733
  679MOL0     C91567   2.913   8.260   6.704 -0.9563 -0.1260  0.5832
  679MOL0     C91568   2.897   8.250   6.554 -0.7719 -1.1439 -0.3341
  679MOL0     C91569   2.939   8.113   6.507 -0.2507  0.0856  1.0830
  679MOL0     C91570   2.954   8.113   6.350 -0.8182 -0.3510 -0.7089
  679MOL0     C91571   2.975   7.974   6.291 -0.9029 -0.5685  0.3292
  679MOL0     C91572   2.954   7.973   6.142  0.2654  0.4948  0.2733
  679MOL0     C91573   3.055   8.065   6.066 -0.3186  0.2110  0.4002
  679MOL0    Cl91574   3.017   8.051   5.885 -0.2236 -0.0723  0.1284
  679MOL0     C91575   2.948   8.466   7.096  0.4684  0.0859  0.3990
  679MOL0     C91576   3.043   8.476   7.187 -0.1409 -0.3655  0.0223
  679MOL0     O91577   3.222   8.698   7.322  0.2023  0.3966  0.5241
  679MOL0     C91578   3.492   8.535   7.472  0.7944 -0.3680  0.1485
  679MOL0     C91579   3.576   8.548   7.587 -0.1833  0.0489 -0.0408
  679MOL0     N91580   4.079   8.681   8.127 -0.6957 -0.2307  0.0912
  679MOL0     N91581   4.193   8.613   8.112  0.7808 -0.2326  0.1563
  679MOL0     C91582   5.083   7.745   8.504 -0.2676  0.2303  0.5727
  679MOL0     C91583   5.142   7.690   8.622  0.3245 -0.1163  0.2911
  679MOL0     C91584   5.280   7.458   8.901  0.2872  0.2081 -1.2026
  679MOL0     C91585   5.399   7.488   8.843 -0.3313 -0.0499  0.8066
  679MOL0     C91586   5.523   7.437   8.894 -0.3348  0.4407  0.6787
  679MOL0     C91587   5.528   7.365   9.017  0.3435 -0.1162  0.6317
  679MOL0     O91588   5.641   7.316   9.084 -0.5946 -0.0306  0.3788
  679MOL0     C91589   5.771   7.374   9.053 -0.1260  0.5956  0.9119
  679MOL0     C91590   5.851   7.400   9.170  0.4229 -0.0201 -0.2995
  679MOL0     C91591   5.761   7.465   9.286 -0.0982  0.3235  0.2500
  679MOL0     C91592   5.846   7.500   9.403 -0.0706 -0.3366 -1.0359
  679MOL0     C91593   5.904   7.638   9.398  1.0794 -0.7120  1.1115
  679MOL0     C91594   5.973   7.736   9.390 -0.5178  0.8199 -0.0450
  679MOL0     C91595   5.403   7.330   9.072 -0.8615 -0.2082 -0.2736
  679MOL0     C91596   5.284   7.368   9.019 -0.5266  0.3174  0.2363
  679MOL0     C91597   5.158   7.326   9.089 -0.3810 -0.5941  0.6023
  679MOL0     H91598   4.857   7.719   8.815  0.3159 -2.1770  0.7598
  679MOL0     H91599   4.773   7.808   8.613  0.6185  0.3997 -2.6847
  679MOL0     H91600   4.698   7.792   8.396 -2.2145  2.6791  0.9098
  679MOL0     H91601   4.751   7.950   8.445  0.7326 -0.6976  0.9523
  679MOL0     H91602   4.742   7.833   8.157  0.5917  0.0488  0.5200
  679MOL0     H91603   4.826   7.981   8.208  0.1170 -1.1102 -0.6579
  679MOL0     H91604   4.580   8.049   8.315  1.2156  2.6660 -1.9021
  679MOL0     H91605   4.531   7.896   8.243 -1.3017  0.7871 -0.3687
  679MOL0     H91606   4.652   8.129   8.083 -0.8015  1.4075 -3.5313
  679MOL0     H91607   4.583   7.996   8.012 -1.1200 -0.0837  0.0918
  679MOL0     H91608   4.357   8.042   8.159  0.3925 -1.1208 -1.0227
  679MOL0     H91609   4.443   8.198   8.193  0.7840  1.4858 -1.7153
  679MOL0     H91610   4.460   8.243   7.951 -1.5923  0.0600 -2.5161
  679MOL0     H91611   4.355   8.116   7.906 -1.1938  0.4636  0.6938
  679MOL0     H91612   4.170   8.178   8.046  1.1650 -2.4462 -1.7270
  679MOL0     H91613   4.209   8.297   7.914 -0.5796  2.0381 -0.0674
  679MOL0     H91614   4.253   8.342   8.208 -1.7856 -1.7254 -0.6695
  679MOL0     H91615   4.349   8.427   8.083  0.3891  0.8188  0.7075
  679MOL0     H91616   3.960   8.386   8.074 -1.7610  1.5472  0.9042
  679MOL0     H91617   3.770   8.545   8.076  1.5166  0.7857 -2.7076
  679MOL0     H91618   3.796   8.667   8.208 -2.6978 -2.0845 -0.1177
  679MOL0     H91619   3.693   8.773   8.008  0.0900 -0.6252 -0.8347
  679MOL0     H91620   3.852   8.848   8.041  1.3899 -0.6200 -0.3620
  679MOL0     H91621   3.943   8.722   7.859 -0.7798 -0.7649 -4.6441
  679MOL0     H91622   3.814   8.823   7.807  0.9408 -2.1423 -3.4871
  679MOL0     H91623   3.796   8.530   7.810  1.0904  0.3466 -4.0551
  679MOL0     H91624   3.803   8.640   7.682  1.1784 -1.9627 -0.6450
  679MOL0     H91625   3.375   8.731   7.783 -0.9444 -0.7767  0.4942
  679MOL0     H91626   3.239   8.727   7.578 -0.4687 -0.1119  1.8533
  679MOL0     H91627   3.321   8.424   7.012 -0.7531  0.6235 -1.4215
  679MOL0     H91628   3.167   8.399   6.839  1.7286 -0.9827  0.8860
  679MOL0     H91629   2.840   8.469   6.701  1.9320 -0.4785 -2.4238
  679MOL0     H91630   3.014   8.435   6.716 -0.6217  2.7569 -0.0339
  679MOL0     H91631   3.004   8.210   6.737  0.6135  1.0925 -1.6142
  679MOL0     H91632   2.819   8.221   6.746 -1.4429  1.4481  1.0358
  679MOL0     H91633   2.792   8.267   6.527 -0.0823  1.7113 -1.6418
  679MOL0     H91634   2.964   8.320   6.502 -1.2145 -1.5831 -1.5331
  679MOL0     H91635   2.866   8.040   6.545 -0.1741  1.1580  3.4592
  679MOL0     H91636   3.037   8.085   6.546 -0.4378 -0.9317  0.8668
  679MOL0     H91637   3.026   8.186   6.312 -0.1626 -0.7988 -0.3531
  679MOL0     H91638   2.862   8.150   6.304 -1.3122 -0.8572 -0.1466
  679MOL0     H91639   3.079   7.941   6.296 -0.1289  0.9529 -3.0705
  679MOL0     H91640   2.901   7.899   6.324 -2.1912 -0.9633 -3.0397
  679MOL0     H91641   2.851   8.008   6.130  0.3652  2.0551  3.1337
  679MOL0     H91642   2.957   7.867   6.114 -2.1601  0.3258  0.4661
  679MOL0     H91643   3.061   8.166   6.107  2.6069  1.2363 -2.1510
  679MOL0     H91644   3.161   8.037   6.064 -0.0405  1.2606 -0.4404
  679MOL0     H91645   2.846   8.484   7.129  0.4654 -2.4201  2.0626
  679MOL0     H91646   3.011   8.481   7.291 -1.1963 -2.5804 -0.1192
  679MOL0     H91647   3.531   8.476   7.390  0.7273  0.8478 -0.7788
  679MOL0     H91648   3.669   8.491   7.591 -1.5225 -2.2849  0.0296
  679MOL0     H91649   5.139   7.758   8.411 -0.3668 -1.1996  0.2905
  679MOL0     H91650   5.249   7.671   8.612  0.3889  0.8241 -1.1354
  679MOL0     H91651   5.396   7.544   8.750  0.9288  2.0159  1.9315
  679MOL0     H91652   5.618   7.458   8.845 -1.2682  2.6770 -0.3388
  679MOL0     H91653   5.760   7.467   8.996  1.3267 -0.0792 -0.5263
  679MOL0     H91654   5.825   7.306   8.987  0.9934  1.3829  0.9946
  679MOL0     H91655   5.936   7.463   9.141 -0.0670  0.4160 -0.8254
  679MOL0     H91656   5.877   7.300   9.204 -0.1069  0.6466  2.2929
  679MOL0     H91657   5.685   7.393   9.315 -0.6966 -0.7997 -3.5622
  679MOL0     H91658   5.706   7.552   9.249  0.3006  0.0360 -1.0456
  679MOL0     H91659   5.786   7.498   9.495  0.1024  1.9386 -0.8112
  679MOL0     H91660   5.919   7.419   9.412 -1.5262 -1.5531  0.7050
  679MOL0     H91661   6.036   7.820   9.412 -0.0416  0.6121 -0.5973
  679MOL0     H91662   5.413   7.269   9.161  1.6845  1.1654  0.5006
  679MOL0     H91663   5.075   7.277   9.038 -0.1864 -1.4197  1.0695
  679MOL0     H91664   5.173   7.253   9.169 -2.1540  0.7937  2.3053
  679MOL0     H91665   5.127   7.417   9.142  2.2555  0.7828 -0.0545
  680MOL0     O91666  10.300   1.185   9.308  0.5070  0.0456  0.2889
  680MOL0     C91667  10.308   1.132   9.198  0.0245  0.4398 -0.9764
  680MOL0     O91668  10.325   1.201   9.085  0.3003  0.8566  0.9627
  680MOL0     C91669  10.323   1.340   9.081  0.1468  0.2638 -0.4270
  680MOL0     C91670  10.268   1.430   9.176  2.3100  0.3391 -0.0442
  680MOL0     C91671  10.280   1.564   9.172 -0.2918 -0.0353 -0.2200
  680MOL0     C91672  10.326   1.621   9.055  0.0596 -0.0476 -0.1106
  680MOL0     O91673  10.335   1.756   9.038  0.5804 -1.0002 -0.7033
  680MOL0     C91674  10.249   1.853   9.102 -1.0327 -0.7338 -0.3641
  680MOL0     C91675  10.107   1.832   9.052  0.5029  0.9640  0.4401
  680MOL0     C91676  10.020   1.945   9.069  0.0112 -0.3995  0.0768
  680MOL0     C91677   9.964   1.956   9.207 -0.3226 -0.0056 -0.8010
  680MOL0     C91678   9.876   2.086   9.210 -0.6665  0.3453 -0.3424
  680MOL0     C91679   9.806   2.088   9.346  0.1996  0.5745 -0.3010
  680MOL0     C91680   9.660   2.132   9.346 -1.5625  0.7498 -0.1420
  680MOL0     C91681   9.636   2.264   9.252  0.4028 -0.5482 -0.0501
  680MOL0     N91682   9.738   2.365   9.293  0.9934 -0.0676  0.1140
  680MOL0     C91683   9.746   2.420   9.415  0.4146 -0.1241  0.2428
  680MOL0     C91684   9.854   2.503   9.398 -0.1779 -0.1919 -0.3199
  680MOL0     C91685   9.886   2.597   9.514 -0.4452  0.5674  0.0703
  680MOL0     C91686   9.867   2.742   9.494  0.1637  0.1870 -0.4111
  680MOL0     C91687   9.922   2.822   9.616 -0.8368  0.1759 -0.0856
  680MOL0     C91688   9.891   2.969   9.622  0.8179 -0.2513  0.1069
  680MOL0     O91689   9.752   2.996   9.591  0.5769 -0.3905  0.1911
  680MOL0     C91690   9.711   3.128   9.576  0.3805  0.0595 -0.2613
  680MOL0     C91691   9.584   3.146   9.513  0.0500 -0.2238 -0.5822
  680MOL0     C91692   9.516   3.269   9.523  0.3022  0.2771  0.3143
  680MOL0     C91693   9.585   3.379   9.552 -0.1494  0.0295 -0.4358
  680MOL0     C91694   9.529   3.522   9.520  0.7746  0.4473  0.3187
  680MOL0     O91695   9.616   3.627   9.502  0.3646  0.4698  0.3534
  680MOL0     C91696   9.567   3.749   9.486  0.4718  0.2975  0.9257
  680MOL0     C91697   9.513   3.806   9.589 -0.0570 -0.7812 -0.0113
  680MOL0     C91698   9.472   3.937   9.577  0.5043  0.2810 -0.3801
  680MOL0     C91699   9.478   4.013   9.463  0.0686 -0.5917  0.1380
  680MOL0     O91700   9.454   4.145   9.472  0.0313 -0.5645 -0.0233
  680MOL0     C91701   9.566   4.237   9.472 -0.7657 -0.4150  0.0052
  680MOL0     C91702   9.522   4.378   9.490 -0.9032  0.2417 -0.1229
  680MOL0     C91703   9.638   4.466   9.448 -0.1194 -0.8938 -0.6705
  680MOL0     C91704   9.624   4.618   9.481 -0.2249 -0.4074 -0.3959
  680MOL0     C91705   9.720   4.700   9.396  0.1925 -0.2865  0.1514
  680MOL0     C91706   9.860   4.708   9.450 -0.3730 -1.2912  0.0888
  680MOL0     C91707   9.956   4.786   9.362 -0.1026  0.0990  1.3866
  680MOL0     C91708  10.098   4.766   9.414  0.4295 -0.3782  0.4995
  680MOL0    Cl91709  10.149   4.595   9.452  0.5699 -0.2515  0.3085
  680MOL0     C91710   9.531   3.946   9.353  0.2935  0.3796 -0.6134
  680MOL0     C91711   9.585   3.813   9.358  0.0877 -0.2360  0.7781
  680MOL0     O91712   9.404   3.534   9.521 -0.0632 -0.7592  0.1874
  680MOL0     C91713   9.711   3.367   9.624 -1.2573  0.6797  0.5453
  680MOL0     C91714   9.784   3.245   9.629  0.6231  0.2445 -0.2265
  680MOL0     N91715   9.893   2.498   9.266 -0.4119  0.0759  0.3587
  680MOL0     N91716   9.833   2.412   9.204  0.4857 -0.3285  0.3293
  680MOL0     C91717  10.367   1.538   8.957 -0.2414 -1.1013 -0.2352
  680MOL0     C91718  10.377   1.399   8.967  0.8330  0.3606 -0.0790
  680MOL0     C91719  10.278   0.987   9.185 -0.1929  0.2789  0.9568
  680MOL0     C91720  10.157   0.959   9.125  1.2771  1.3706 -0.8251
  680MOL0     C91721  10.117   0.823   9.106 -0.6992 -0.0211  0.3097
  680MOL0     C91722  10.205   0.722   9.148 -0.1656  0.1464 -0.0632
  680MOL0     O91723  10.182   0.588   9.126 -0.5374 -0.2308 -0.3945
  680MOL0     C91724  10.113   0.561   8.993  0.5486 -0.5917  0.0356
  680MOL0     C91725  10.201   0.587   8.875 -0.0641  1.7011  0.2934
  680MOL0     C91726  10.329   0.495   8.864  0.7476 -0.1518  0.0513
  680MOL0     C91727  10.462   0.576   8.868 -0.1312  0.3781  1.2697
  680MOL0     C91728  10.467   0.685   8.768  0.1757 -0.4452 -0.5698
  680MOL0     C91729  10.459   0.777   8.691  0.3303  0.1752 -0.6788
  680MOL0     C91730  10.319   0.750   9.228 -0.4049 -0.1365 -0.0787
  680MOL0     C91731  10.364   0.886   9.236  1.0568 -0.7606  0.2331
  680MOL0     C91732  10.504   0.909   9.287  0.2946 -0.6536  0.4476
  680MOL0     H91733  10.207   1.397   9.259 -0.7965  3.0813 -1.0113
  680MOL0     H91734  10.261   1.628   9.257 -1.9837 -0.6070 -0.1306
  680MOL0     H91735  10.249   1.856   9.211 -0.2330 -1.9059 -0.3224
  680MOL0     H91736  10.288   1.951   9.073 -2.3189 -0.2952 -0.6974
  680MOL0     H91737  10.064   1.743   9.099 -1.5800  2.1231  0.8161
  680MOL0     H91738  10.100   1.800   8.948  1.3963 -3.5805  1.5262
  680MOL0     H91739   9.925   1.935   9.014 -0.7618 -0.0763  1.3123
  680MOL0     H91740  10.072   2.036   9.037 -0.1568  0.1791  1.3779
  680MOL0     H91741   9.907   1.863   9.221 -0.2942  0.2004  0.9053
  680MOL0     H91742  10.054   1.965   9.268 -0.1284  0.4737 -1.1518
  680MOL0     H91743   9.942   2.173   9.202 -1.4698  1.1636  1.5822
  680MOL0     H91744   9.806   2.087   9.126 -0.4788 -0.5839 -0.5222
  680MOL0     H91745   9.809   1.987   9.387 -0.0991 -0.6346 -3.0683
  680MOL0     H91746   9.873   2.151   9.406  2.1345 -0.3419 -1.3789
  680MOL0     H91747   9.632   2.151   9.450 -1.9579 -0.2106 -0.0599
  680MOL0     H91748   9.601   2.045   9.315 -2.1213 -0.3119  3.4778
  680MOL0     H91749   9.658   2.226   9.151  0.6817  0.5758 -0.4188
  680MOL0     H91750   9.533   2.297   9.265  0.1436 -0.7313 -1.4284
  680MOL0     H91751   9.678   2.416   9.501  0.4974  0.0970  0.3192
  680MOL0     H91752   9.821   2.587   9.602 -1.4043 -0.3373 -0.7149
  680MOL0     H91753   9.990   2.576   9.538  0.4804  0.5754 -3.3886
  680MOL0     H91754   9.929   2.775   9.410  2.5343 -2.3734  0.2075
  680MOL0     H91755   9.764   2.771   9.471  0.5431  1.6120 -0.3867
  680MOL0     H91756  10.030   2.804   9.612 -0.8076  0.4628 -1.2596
  680MOL0     H91757   9.879   2.780   9.707 -0.8013  0.5586  0.1117
  680MOL0     H91758   9.944   3.029   9.547  0.2768 -1.5913 -1.3895
  680MOL0     H91759   9.903   3.007   9.724 -4.2659 -0.4860  1.0559
  680MOL0     H91760   9.529   3.067   9.464 -0.7670 -0.5699  0.8514
  680MOL0     H91761   9.419   3.279   9.475  1.4192  0.2238 -2.1297
  680MOL0     H91762   9.494   3.758   9.684 -0.8454  0.6983  0.6269
  680MOL0     H91763   9.415   3.979   9.659 -0.4674  3.5453 -2.5088
  680MOL0     H91764   9.639   4.211   9.548 -4.1013 -0.8049  3.3839
  680MOL0     H91765   9.611   4.232   9.372 -2.8037  2.1045 -1.1776
  680MOL0     H91766   9.433   4.413   9.438  0.3049  4.2940  0.1404
  680MOL0     H91767   9.516   4.389   9.599 -1.7074  0.7329 -0.2091
  680MOL0     H91768   9.730   4.435   9.498  0.2334  1.1179  0.0090
  680MOL0     H91769   9.650   4.457   9.340  2.1239 -0.6134 -0.4868
  680MOL0     H91770   9.642   4.645   9.585  2.4818  1.3294 -1.2159
  680MOL0     H91771   9.521   4.642   9.454 -1.6169 -2.5050  2.4876
  680MOL0     H91772   9.673   4.799   9.399 -0.1183 -0.4263 -0.0306
  680MOL0     H91773   9.716   4.663   9.294  0.0276  0.2848 -0.0552
  680MOL0     H91774   9.857   4.763   9.544  2.8298  0.8653 -0.9168
  680MOL0     H91775   9.902   4.612   9.482  0.3432 -0.7860  0.6818
  680MOL0     H91776   9.924   4.889   9.346 -0.1792 -0.0808  0.2950
  680MOL0     H91777   9.947   4.761   9.256 -2.9891  1.5099  1.1984
  680MOL0     H91778  10.161   4.822   9.345 -2.2956  1.7483 -0.4343
  680MOL0     H91779  10.091   4.822   9.508 -1.4375 -0.6354  0.5594
  680MOL0     H91780   9.532   4.009   9.265  1.4158  2.2269  0.6360
  680MOL0     H91781   9.627   3.760   9.274 -1.5677 -2.9146  1.5330
  680MOL0     H91782   9.755   3.460   9.659 -3.0843  1.5441  0.7069
  680MOL0     H91783   9.873   3.245   9.691  0.8081 -2.2629 -0.3621
  680MOL0     H91784  10.401   1.581   8.863  0.0964  0.7499  0.7006
  680MOL0     H91785  10.425   1.335   8.893 -1.6745 -1.7609  0.0004
  680MOL0     H91786  10.083   1.031   9.091 -3.4258 -2.0227  1.0563
  680MOL0     H91787  10.027   0.808   9.047 -1.1312 -1.4278  1.2631
  680MOL0     H91788  10.018   0.615   8.988  1.1466  0.6448  1.2279
  680MOL0     H91789  10.071   0.460   8.999 -1.1459  0.1078  0.5755
  680MOL0     H91790  10.216   0.694   8.858 -2.0347  1.4788 -4.1996
  680MOL0     H91791  10.143   0.558   8.788  0.1976  1.4051  0.2176
  680MOL0     H91792  10.320   0.438   8.771 -0.5229  1.7189 -1.0323
  680MOL0     H91793  10.339   0.420   8.943 -1.5229  1.5965  2.1823
  680MOL0     H91794  10.472   0.603   8.974 -0.7882  0.6637  1.2627
  680MOL0     H91795  10.543   0.507   8.843 -0.8088  0.6366 -2.0428
  680MOL0     H91796  10.469   0.834   8.601  2.2112 -0.0761 -0.6750
  680MOL0     H91797  10.381   0.670   9.268  2.5171  1.9335 -0.1775
  680MOL0     H91798  10.527   0.849   9.376  1.3102 -1.9745 -0.6503
  680MOL0     H91799  10.581   0.890   9.211 -0.3579  0.0480 -0.4100
  680MOL0     H91800  10.529   1.012   9.314 -0.3017  0.0206 -1.4029
  681MOL0     O91801   7.614   6.829   2.882  0.4626 -0.1875 -0.9900
  681MOL0     C91802   7.714   6.836   2.805 -0.1643  0.2969  0.1127
  681MOL0     O91803   7.767   6.726   2.743  0.5857  0.3725  1.0222
  681MOL0     C91804   7.738   6.594   2.778  0.7778  0.1009 -0.1897
  681MOL0     C91805   7.665   6.562   2.894 -0.0582 -0.7559  0.0238
  681MOL0     C91806   7.603   6.440   2.911 -0.6930 -0.8964 -0.3950
  681MOL0     C91807   7.631   6.342   2.814  0.0552 -0.1364 -0.0398
  681MOL0     O91808   7.571   6.224   2.844 -0.7712 -0.3506 -0.0304
  681MOL0     C91809   7.618   6.092   2.813  0.8634  0.5547 -1.6560
  681MOL0     C91810   7.555   5.980   2.904  0.2356 -0.6336  0.4380
  681MOL0     C91811   7.614   5.853   2.848  0.1798  0.2144  0.1068
  681MOL0     C91812   7.626   5.736   2.938  0.4336 -0.0746 -0.6824
  681MOL0     C91813   7.529   5.625   2.899 -0.0384 -0.0799 -0.3858
  681MOL0     C91814   7.536   5.494   2.984  0.0257 -0.9902  0.0601
  681MOL0     C91815   7.492   5.366   2.914 -0.2182 -0.2769  0.7471
  681MOL0     C91816   7.492   5.253   3.007 -0.1265  0.0123  0.1592
  681MOL0     N91817   7.613   5.234   3.085 -0.0033 -1.0820 -0.1576
  681MOL0     C91818   7.644   5.294   3.212  0.1568  0.7129 -0.4038
  681MOL0     C91819   7.776   5.269   3.226  0.7683 -1.0649 -0.8514
  681MOL0     C91820   7.860   5.314   3.340 -0.5830 -0.9809 -0.5212
  681MOL0     C91821   7.793   5.293   3.480  0.4374 -0.0191  0.5453
  681MOL0     C91822   7.744   5.147   3.512 -0.0086  0.4683 -0.6844
  681MOL0     C91823   7.859   5.052   3.541  0.5906 -0.1018  1.0670
  681MOL0     O91824   7.908   5.013   3.420 -0.6647  0.3961  0.2636
  681MOL0     C91825   8.021   4.937   3.413 -0.8063 -0.3473 -0.3201
  681MOL0     C91826   8.085   4.875   3.529  0.3477 -0.0202 -0.0835
  681MOL0     C91827   8.212   4.807   3.521 -0.3181  0.2722  0.1062
  681MOL0     C91828   8.272   4.805   3.395  0.4270 -0.1054 -0.4334
  681MOL0     C91829   8.411   4.770   3.371  0.1713 -0.1167 -0.0464
  681MOL0     O91830   8.464   4.825   3.255  0.4831 -0.3296  0.0679
  681MOL0     C91831   8.605   4.827   3.241  0.4754  0.6122 -1.3933
  681MOL0     C91832   8.675   4.950   3.259  0.9248  0.2531 -0.8240
  681MOL0     C91833   8.807   4.943   3.237  0.1908 -0.4469 -0.1557
  681MOL0     C91834   8.880   4.826   3.205 -0.9870 -0.3299 -0.0674
  681MOL0     O91835   9.007   4.823   3.181 -0.0917 -0.0091 -0.2976
  681MOL0     C91836   9.082   4.945   3.188 -0.3295 -0.3632 -0.4994
  681MOL0     C91837   9.218   4.913   3.126 -0.3910 -0.1179 -0.0464
  681MOL0     C91838   9.213   4.834   2.992  0.0753  0.1191 -1.1250
  681MOL0     C91839   9.336   4.759   2.954 -0.6310 -0.0043 -0.2446
  681MOL0     C91840   9.322   4.677   2.833 -0.1483  1.0151 -1.2251
  681MOL0     C91841   9.438   4.583   2.829  0.1537 -1.1040 -0.6308
  681MOL0     C91842   9.474   4.540   2.689  0.7060  0.2493 -0.6265
  681MOL0     C91843   9.538   4.661   2.619  0.4082 -0.0884  1.1762
  681MOL0    Cl91844   9.617   4.622   2.473  0.4546 -0.1081  0.0717
  681MOL0     C91845   8.813   4.708   3.209  0.1522  0.3666  0.5110
  681MOL0     C91846   8.675   4.708   3.222 -0.3337  0.1248  0.8930
  681MOL0     O91847   8.466   4.698   3.455 -0.2099 -0.3142 -0.4401
  681MOL0     C91848   8.202   4.860   3.290 -0.2423  0.4778  1.9160
  681MOL0     C91849   8.085   4.927   3.292  0.4159 -0.8809 -0.5789
  681MOL0     N91850   7.811   5.189   3.119 -0.7431 -0.1042  0.0441
  681MOL0     N91851   7.722   5.182   3.029 -0.2096 -0.0762 -0.7037
  681MOL0     C91852   7.712   6.369   2.702  0.6673 -0.2818  0.6361
  681MOL0     C91853   7.768   6.493   2.686  0.3907 -0.0972 -0.2926
  681MOL0     C91854   7.766   6.969   2.774 -0.0946 -0.2159 -1.2426
  681MOL0     C91855   7.889   6.978   2.697 -1.6828 -0.1524 -0.3757
  681MOL0     C91856   7.940   7.100   2.643  0.3932 -0.9929 -0.3978
  681MOL0     C91857   7.883   7.211   2.692  0.2823 -0.9248 -0.2073
  681MOL0     O91858   7.934   7.336   2.671  0.0736 -0.3800 -0.2985
  681MOL0     C91859   7.956   7.365   2.529  0.4687 -0.5448 -0.4085
  681MOL0     C91860   8.052   7.483   2.527 -0.6808  0.0326 -0.1370
  681MOL0     C91861   8.004   7.608   2.615  0.1659 -0.5767 -0.3701
  681MOL0     C91862   8.083   7.740   2.602  0.5705 -0.0069  0.2744
  681MOL0     C91863   8.217   7.732   2.653  0.2331  0.5151 -1.1215
  681MOL0     C91864   8.340   7.738   2.673 -0.9597 -0.6391 -0.0256
  681MOL0     C91865   7.775   7.207   2.776 -0.1800  0.4981 -0.6067
  681MOL0     C91866   7.715   7.090   2.827 -0.8318 -0.0928  0.3160
  681MOL0     C91867   7.598   7.107   2.922  0.3032 -0.0059  0.2226
  681MOL0     H91868   7.670   6.629   2.979  0.2126 -1.0577  0.2518
  681MOL0     H91869   7.539   6.432   2.998 -1.9767 -3.1893 -1.4525
  681MOL0     H91870   7.606   6.061   2.709 -0.0370 -0.7200 -1.2027
  681MOL0     H91871   7.726   6.101   2.832  0.9602  2.6184 -2.9512
  681MOL0     H91872   7.445   5.980   2.904  0.2190 -1.5297 -0.1320
  681MOL0     H91873   7.564   6.000   3.011 -2.1385 -0.9103  0.7657
  681MOL0     H91874   7.716   5.877   2.818  0.1627  0.2339  0.0632
  681MOL0     H91875   7.548   5.820   2.767 -0.6463  1.3920  0.2697
  681MOL0     H91876   7.730   5.701   2.930  1.8607  3.2230  1.5279
  681MOL0     H91877   7.608   5.768   3.041  0.9363 -4.5739  1.0438
  681MOL0     H91878   7.425   5.659   2.889  0.4672  1.1425 -1.9256
  681MOL0     H91879   7.550   5.611   2.792 -0.2425  1.3811 -0.6414
  681MOL0     H91880   7.635   5.480   3.029 -0.5295  0.6965  1.9411
  681MOL0     H91881   7.472   5.509   3.071 -1.8448  0.2307 -1.4284
  681MOL0     H91882   7.558   5.355   2.826 -1.8307  1.3788 -0.7617
  681MOL0     H91883   7.395   5.378   2.866  0.0362 -1.9702 -0.3113
  681MOL0     H91884   7.406   5.255   3.076 -1.6789 -0.5877 -1.6648
  681MOL0     H91885   7.474   5.162   2.949 -1.1484 -1.9461  3.2576
  681MOL0     H91886   7.585   5.359   3.275 -1.6792  1.1058 -2.3768
  681MOL0     H91887   7.949   5.250   3.340  0.3614  0.3025 -0.6404
  681MOL0     H91888   7.890   5.418   3.328  0.9646 -1.3600 -0.2262
  681MOL0     H91889   7.869   5.312   3.556  2.0116  0.6267 -1.1241
  681MOL0     H91890   7.704   5.356   3.488 -1.8575 -3.0115  0.6518
  681MOL0     H91891   7.679   5.113   3.431 -3.5177  1.5687  1.4692
  681MOL0     H91892   7.682   5.158   3.601  1.9175 -0.1370  0.7926
  681MOL0     H91893   7.819   4.959   3.583 -0.3991 -0.0613  0.2590
  681MOL0     H91894   7.929   5.106   3.606  1.5724  0.1532 -0.1593
  681MOL0     H91895   8.055   4.893   3.632 -0.5980 -1.3993 -0.1005
  681MOL0     H91896   8.259   4.768   3.611 -0.6666 -1.5884 -0.4719
  681MOL0     H91897   8.621   5.042   3.277  1.7991  0.3579  1.6272
  681MOL0     H91898   8.853   5.041   3.248 -0.9853  0.0037  1.1714
  681MOL0     H91899   9.033   5.029   3.138 -0.0182  0.4979  0.5871
  681MOL0     H91900   9.094   4.967   3.295 -0.7458 -2.1605 -0.0599
  681MOL0     H91901   9.274   5.006   3.108  1.1792 -0.6017  1.9764
  681MOL0     H91902   9.282   4.861   3.197  0.1239  0.2549 -0.2262
  681MOL0     H91903   9.136   4.757   3.007 -0.9245  1.2455 -0.3582
  681MOL0     H91904   9.175   4.904   2.917 -2.2112 -0.4264 -0.5429
  681MOL0     H91905   9.373   4.702   3.039  4.0913 -1.7214 -3.0544
  681MOL0     H91906   9.414   4.835   2.944 -0.1512 -0.1895  1.7236
  681MOL0     H91907   9.315   4.749   2.751 -4.8425  2.4933  0.1355
  681MOL0     H91908   9.233   4.614   2.839  1.1113 -0.7359  0.2107
  681MOL0     H91909   9.523   4.636   2.872  0.1805  1.3744 -3.4123
  681MOL0     H91910   9.411   4.501   2.896  2.6166 -0.2717  1.5234
  681MOL0     H91911   9.395   4.492   2.631  2.1437  1.0588 -3.4688
  681MOL0     H91912   9.554   4.465   2.687 -0.5220 -1.1009 -0.9992
  681MOL0     H91913   9.459   4.734   2.602 -0.1652 -0.3270  2.6499
  681MOL0     H91914   9.610   4.711   2.684  1.7381 -1.1188  0.5362
  681MOL0     H91915   8.871   4.621   3.180  1.1261  1.3068 -0.4663
  681MOL0     H91916   8.627   4.615   3.194  2.8009 -0.7282 -2.2922
  681MOL0     H91917   8.239   4.822   3.195 -1.1756 -0.5887  1.9518
  681MOL0     H91918   8.041   4.966   3.200  1.5884 -0.2930 -0.9051
  681MOL0     H91919   7.728   6.296   2.623  2.1574  2.6949 -2.0771
  681MOL0     H91920   7.826   6.508   2.597  2.1371  1.0458  0.9809
  681MOL0     H91921   7.947   6.893   2.663 -0.4918 -0.5165  2.3020
  681MOL0     H91922   8.029   7.108   2.581 -0.6228  2.7230 -1.6076
  681MOL0     H91923   7.863   7.408   2.491 -0.1085  0.3985  1.9059
  681MOL0     H91924   7.985   7.279   2.469 -1.0200  0.0327 -2.0268
  681MOL0     H91925   8.078   7.512   2.425  2.3014 -1.9605 -0.0630
  681MOL0     H91926   8.144   7.445   2.572 -0.7100  1.5664  1.3160
  681MOL0     H91927   8.009   7.578   2.720 -0.1695  0.5557 -0.0181
  681MOL0     H91928   7.902   7.637   2.589  0.0187 -0.4052  0.3746
  681MOL0     H91929   8.089   7.754   2.493 -0.8483  1.8831  0.3844
  681MOL0     H91930   8.025   7.824   2.639  1.5043  0.1619  1.4177
  681MOL0     H91931   8.446   7.736   2.687 -0.5273  0.6094 -2.5186
  681MOL0     H91932   7.732   7.305   2.794 -0.8914  0.0350  0.3611
  681MOL0     H91933   7.564   7.209   2.942  1.4216  0.2023  1.2125
  681MOL0     H91934   7.513   7.067   2.866  1.9856 -3.4137 -0.1151
  681MOL0     H91935   7.612   7.052   3.016  2.1478  1.2400  0.7440
  682MOL0     O91936   5.263   0.989  11.439 -0.2781  0.0282  0.3864
  682MOL0     C91937   5.346   1.062  11.494 -0.2911 -1.0396 -0.3930
  682MOL0     O91938   5.430   1.024  11.587 -0.0545  0.4336  0.2941
  682MOL0     C91939   5.422   0.887  11.625  0.3876 -0.3867  0.1933
  682MOL0     C91940   5.477   0.793  11.537  0.0812 -0.4641  0.1734
  682MOL0     C91941   5.465   0.656  11.551 -0.4296  0.2065 -0.3126
  682MOL0     C91942   5.403   0.614  11.670 -0.0211 -0.7363 -0.6663
  682MOL0     O91943   5.374   0.484  11.695  0.2513 -0.8489  0.9413
  682MOL0     C91944   5.255   0.445  11.640  0.3562 -0.5961 -0.7191
  682MOL0     C91945   5.127   0.502  11.708 -0.4604 -0.4682  1.5377
  682MOL0     C91946   5.002   0.416  11.668 -0.4632  0.3423  0.6062
  682MOL0     C91947   4.883   0.441  11.761 -1.4397 -0.2157 -0.2532
  682MOL0     C91948   4.753   0.364  11.726 -0.2924  0.7388  0.2555
  682MOL0     C91949   4.620   0.415  11.797  0.1033  0.1792  0.2426
  682MOL0     C91950   4.493   0.355  11.752  0.3188 -0.1723 -0.5935
  682MOL0     C91951   4.493   0.200  11.766  1.1207  0.3532 -0.4987
  682MOL0     N91952   4.373   0.139  11.708 -0.3330 -0.1772 -0.2089
  682MOL0     C91953   4.269   0.212  11.665  1.1869 -0.4026 -0.2204
  682MOL0     C91954   4.172   0.117  11.630  0.4768 -0.1612  0.1429
  682MOL0     C91955   4.035   0.155  11.578  0.4026 -0.0599  0.2156
  682MOL0     C91956   3.931   0.145  11.696  0.5557 -0.0589  0.1878
  682MOL0     C91957   3.893  -0.010  11.707 -1.0674 -0.6198 -0.0851
  682MOL0     C91958   3.781  -0.036  11.817  0.0442  0.3129 -0.0339
  682MOL0     O91959   3.648  -0.005  11.758  0.8954  0.1245 -0.0742
  682MOL0     C91960   3.548   0.071  11.818 -0.0783 -0.5585 -0.8017
  682MOL0     C91961   3.553   0.103  11.948 -0.1748  0.9168 -0.4867
  682MOL0     C91962   3.462   0.205  12.002  0.2759  0.3278  0.9475
  682MOL0     C91963   3.368   0.259  11.919 -0.3889 -0.3814  0.4924
  682MOL0     C91964   3.281   0.355  11.985 -0.0657  0.0759 -0.1281
  682MOL0     O91965   3.309   0.385  12.119 -0.1070 -0.4630  0.4109
  682MOL0     C91966   3.207   0.442  12.198  1.0639 -1.1388  0.6936
  682MOL0     C91967   3.078   0.390  12.189  1.0785 -0.6832 -0.0638
  682MOL0     C91968   2.968   0.458  12.236  0.0997  0.4494 -1.0333
  682MOL0     C91969   2.989   0.582  12.310 -0.5205  0.0445  0.2544
  682MOL0     O91970   2.881   0.640  12.358  0.7279 -0.3734 -0.9147
  682MOL0     C91971   2.848   0.775  12.321  0.1466 -0.3378  0.2456
  682MOL0     C91972   2.696   0.783  12.311 -0.1270  0.4230 -0.5485
  682MOL0     C91973   2.634   0.891  12.226 -0.2632  0.3925 -0.7196
  682MOL0     C91974   2.699   1.026  12.255 -0.7986  1.2998 -0.1755
  682MOL0     C91975   2.635   1.132  12.163 -1.1730  0.2355 -0.5234
  682MOL0     C91976   2.683   1.275  12.201 -0.0580 -0.4028 -0.2783
  682MOL0     C91977   2.604   1.384  12.129 -0.0764  0.0575 -0.3107
  682MOL0     C91978   2.634   1.385  11.978  0.1619 -0.4222  0.2615
  682MOL0    Cl91979   2.512   1.502  11.908  0.1499  0.3614  0.3137
  682MOL0     C91980   3.121   0.646  12.297 -0.0548  0.2087 -0.0749
  682MOL0     C91981   3.224   0.576  12.237  0.0093  0.1368 -0.7876
  682MOL0     O91982   3.179   0.385  11.923  0.6809  0.3705 -0.7544
  682MOL0     C91983   3.362   0.217  11.785  0.4301  0.3224 -0.8624
  682MOL0     C91984   3.453   0.133  11.732 -0.1430  0.2640  0.1888
  682MOL0     N91985   4.223  -0.011  11.636 -1.1796  0.4300 -0.2827
  682MOL0     N91986   4.340   0.007  11.695 -0.6939 -0.0083  0.1366
  682MOL0     C91987   5.349   0.708  11.755  0.2540 -0.2086  0.0904
  682MOL0     C91988   5.358   0.848  11.735  0.0692  0.2819  0.3719
  682MOL0     C91989   5.358   1.211  11.452 -1.1610 -0.5324  0.1136
  682MOL0     C91990   5.426   1.302  11.552 -0.0927 -0.0510  0.5024
  682MOL0     C91991   5.401   1.441  11.546 -0.6160  0.1111  0.1757
  682MOL0     C91992   5.344   1.493  11.428  0.4187  0.6718  0.7715
  682MOL0     O91993   5.340   1.630  11.423 -0.3102  1.2987  0.0458
  682MOL0     C91994   5.320   1.685  11.291 -0.6672  1.6838 -0.1446
  682MOL0     C91995   5.321   1.837  11.298  0.3483 -0.3455  0.5524
  682MOL0     C91996   5.397   1.899  11.186 -0.3528  0.0390 -0.1443
  682MOL0     C91997   5.352   2.045  11.172  0.9045  0.4478  0.0113
  682MOL0     C91998   5.417   2.104  11.058  0.4081  0.5510  0.6941
  682MOL0     C91999   5.464   2.169  10.964  0.4287 -0.0422  0.0407
  682MOL0     C92000   5.283   1.399  11.332 -0.5712  0.0429  0.0946
  682MOL0     C92001   5.293   1.263  11.339  0.2360  0.0257 -0.6964
  682MOL0     C92002   5.232   1.196  11.219  0.8916 -0.0322  0.5012
  682MOL0     H92003   5.520   0.845  11.452 -0.7440  0.0560  0.0671
  682MOL0     H92004   5.501   0.586  11.477 -2.0576 -1.4577  0.4028
  682MOL0     H92005   5.250   0.470  11.533 -2.1237  0.6642 -0.3783
  682MOL0     H92006   5.241   0.337  11.650  1.8642 -0.7874 -0.3938
  682MOL0     H92007   5.116   0.603  11.668  0.7610 -0.4397  1.2208
  682MOL0     H92008   5.131   0.505  11.818  0.0394  1.8364  1.5033
  682MOL0     H92009   5.036   0.313  11.679  1.9662  0.9739 -0.2345
  682MOL0     H92010   4.977   0.429  11.562  1.2765 -2.4891 -0.2771
  682MOL0     H92011   4.914   0.411  11.861  1.2599 -0.5413 -1.1015
  682MOL0     H92012   4.867   0.549  11.764 -1.1463 -0.1911  0.8641
  682MOL0     H92013   4.732   0.364  11.619  3.4664 -1.0275 -0.6581
  682MOL0     H92014   4.776   0.264  11.763  0.5227  1.6359  2.3470
  682MOL0     H92015   4.634   0.379  11.899  1.0496 -0.5471 -0.1316
  682MOL0     H92016   4.634   0.523  11.781  3.1046 -0.5061 -3.0016
  682MOL0     H92017   4.456   0.393  11.656 -0.4192 -0.2986 -0.3692
  682MOL0     H92018   4.422   0.398  11.823 -0.8664  1.1145 -2.4642
  682MOL0     H92019   4.581   0.154  11.720  0.9589  1.5313 -2.0342
  682MOL0     H92020   4.493   0.181  11.874  1.6932 -3.4592 -1.0077
  682MOL0     H92021   4.263   0.320  11.658  3.4661 -0.3081 -1.3831
  682MOL0     H92022   4.046   0.253  11.532 -1.9371  0.1842  0.0801
  682MOL0     H92023   4.001   0.090  11.497  1.7290  1.0875 -1.3347
  682MOL0     H92024   3.961   0.189  11.791 -4.3066  3.5685  0.4197
  682MOL0     H92025   3.836   0.195  11.677  0.3363 -0.4064  0.3512
  682MOL0     H92026   3.984  -0.066  11.728 -1.1086  0.0310  2.0685
  682MOL0     H92027   3.842  -0.055  11.621 -1.9509 -1.3473  0.8001
  682MOL0     H92028   3.810   0.032  11.898 -1.5676  0.8578  0.1201
  682MOL0     H92029   3.797  -0.140  11.847  2.2537  0.0334 -1.8954
  682MOL0     H92030   3.624   0.050  12.011 -1.3662 -1.4101 -0.9644
  682MOL0     H92031   3.470   0.225  12.109  1.3098  0.0316  0.9318
  682MOL0     H92032   3.041   0.302  12.138 -3.3735  1.8493 -1.7498
  682MOL0     H92033   2.867   0.426  12.215  0.0024 -2.9893  3.3524
  682MOL0     H92034   2.898   0.845  12.389 -2.2906  0.7887  1.0026
  682MOL0     H92035   2.886   0.777  12.219 -0.4127 -2.5913 -0.0470
  682MOL0     H92036   2.665   0.685  12.276 -0.1042  1.3628 -3.4915
  682MOL0     H92037   2.662   0.794  12.415  0.0073 -0.3993 -0.4159
  682MOL0     H92038   2.638   0.871  12.119 -1.8648  3.3100 -1.4275
  682MOL0     H92039   2.530   0.890  12.260  0.3372 -1.1370  1.3306
  682MOL0     H92040   2.807   1.020  12.241 -1.0247  1.5609 -2.4529
  682MOL0     H92041   2.674   1.046  12.360 -1.6138 -2.1304  0.3958
  682MOL0     H92042   2.526   1.132  12.169 -1.1988  0.0425 -0.9155
  682MOL0     H92043   2.658   1.105  12.059 -3.2930 -1.9496 -0.4885
  682MOL0     H92044   2.661   1.279  12.308  0.2573 -5.2972  0.1947
  682MOL0     H92045   2.792   1.279  12.191  0.0740  0.4720  1.2465
  682MOL0     H92046   2.641   1.479  12.169 -1.4114  2.5436 -4.4543
  682MOL0     H92047   2.497   1.374  12.147 -0.1318  1.2165  0.1007
  682MOL0     H92048   2.734   1.419  11.950  1.4303 -2.0698  2.4748
  682MOL0     H92049   2.610   1.291  11.927 -1.5333  0.6446 -1.0357
  682MOL0     H92050   3.131   0.749  12.328  2.8513 -0.1422  0.5119
  682MOL0     H92051   3.319   0.624  12.216  1.0290 -1.4915 -0.0844
  682MOL0     H92052   3.286   0.270  11.728 -1.3158  0.0927  1.1205
  682MOL0     H92053   3.436   0.117  11.626 -1.0446  1.3504  0.1500
  682MOL0     H92054   5.293   0.669  11.839 -0.1049 -2.1364 -1.0008
  682MOL0     H92055   5.306   0.916  11.801 -0.0098  2.4812 -1.8082
  682MOL0     H92056   5.472   1.258  11.640 -1.0902 -1.4117  0.3787
  682MOL0     H92057   5.436   1.504  11.627  0.9804 -1.4652  0.7868
  682MOL0     H92058   5.229   1.652  11.240 -0.4482  0.5336  0.1970
  682MOL0     H92059   5.404   1.642  11.235  0.2670 -1.8763  3.5084
  682MOL0     H92060   5.361   1.871  11.394 -2.4901  0.8298  1.4415
  682MOL0     H92061   5.214   1.860  11.292 -0.1084 -1.3564  3.2709
  682MOL0     H92062   5.383   1.853  11.088 -0.4679  2.6377 -1.4474
  682MOL0     H92063   5.504   1.906  11.208  0.0682 -0.2668 -1.9616
  682MOL0     H92064   5.244   2.038  11.158  1.0529 -2.8478 -0.2843
  682MOL0     H92065   5.372   2.095  11.267 -0.0776 -2.1753  1.7193
  682MOL0     H92066   5.525   2.234  10.904  1.8396 -1.7352 -0.4418
  682MOL0     H92067   5.221   1.432  11.249 -2.0940 -0.0012  1.1623
  682MOL0     H92068   5.297   1.233  11.139 -1.8512  3.2888 -0.4047
  682MOL0     H92069   5.227   1.087  11.218  3.8147 -0.3085 -2.2826
  682MOL0     H92070   5.136   1.246  11.200  1.7392  1.0414 -1.3057
  683MOL0     O92071   8.923  10.058   0.839 -0.2214  0.3308  0.2833
  683MOL0     C92072   8.924  10.066   0.713  0.0921 -0.3089  0.1249
  683MOL0     O92073   8.970   9.967   0.625  0.4527  0.5330 -1.2478
  683MOL0     C92074   8.995   9.843   0.696  0.7845  0.3272 -0.2420
  683MOL0     C92075   9.122   9.790   0.704 -1.1029  0.7088 -0.2853
  683MOL0     C92076   9.150   9.673   0.772  0.2474 -0.1371  0.0928
  683MOL0     C92077   9.048   9.613   0.841 -1.4203  0.2516  0.9577
  683MOL0     O92078   9.063   9.513   0.929  0.3259  0.8989 -0.7187
  683MOL0     C92079   9.172   9.415   0.940 -0.0456  0.1047  0.1354
  683MOL0     C92080   9.129   9.304   1.037  0.2822  0.8814 -0.1444
  683MOL0     C92081   9.256   9.225   1.070  0.1905  0.1868 -0.0971
  683MOL0     C92082   9.331   9.279   1.198  0.3559  0.3601  0.0583
  683MOL0     C92083   9.298   9.197   1.326  0.4102 -0.5866 -0.0027
  683MOL0     C92084   9.170   9.229   1.396  0.3364  1.3614 -0.6605
  683MOL0     C92085   9.141   9.134   1.514  0.6867  0.1090 -0.2346
  683MOL0     C92086   9.066   9.201   1.626  0.4301 -0.0493 -0.3984
  683MOL0     N92087   8.927   9.217   1.592  0.2116 -0.2821 -0.2134
  683MOL0     C92088   8.860   9.311   1.519 -1.2164  0.0230 -1.0945
  683MOL0     C92089   8.731   9.287   1.518 -0.2896  0.2761  0.0692
  683MOL0     C92090   8.617   9.372   1.466 -1.0666 -0.0929  0.3817
  683MOL0     C92091   8.579   9.466   1.584  0.0645  0.1848 -0.2709
  683MOL0     C92092   8.459   9.557   1.575 -0.5266  0.9333 -0.4433
  683MOL0     C92093   8.446   9.641   1.706  1.1990 -0.7504  0.9743
  683MOL0     O92094   8.326   9.724   1.706 -0.2341 -0.0062 -0.0226
  683MOL0     C92095   8.319   9.843   1.635  0.0940 -0.2632 -0.6563
  683MOL0     C92096   8.201   9.920   1.638  0.2554  0.3424 -0.1881
  683MOL0     C92097   8.186  10.043   1.568  0.0705  0.0786  0.0143
  683MOL0     C92098   8.286  10.084   1.480  0.0513  0.5367  0.1409
  683MOL0     C92099   8.286  10.215   1.413 -0.2424 -0.2100 -0.4386
  683MOL0     O92100   8.168  10.267   1.394  0.7291 -0.6150 -0.5766
  683MOL0     C92101   8.139  10.396   1.348 -0.8016  0.0689 -0.5017
  683MOL0     C92102   8.228  10.512   1.356  0.0181  0.7279 -0.8390
  683MOL0     C92103   8.173  10.637   1.344  0.3262 -0.5700 -0.3862
  683MOL0     C92104   8.038  10.652   1.336  0.0105 -0.7841 -0.8297
  683MOL0     O92105   7.984  10.773   1.324  0.6002 -0.1782  0.4345
  683MOL0     C92106   8.037  10.877   1.411 -0.1512 -0.0718  0.8401
  683MOL0     C92107   7.939  10.988   1.402  0.7141 -0.5809  0.3222
  683MOL0     C92108   7.952  11.115   1.494  0.6136  1.3353  0.3253
  683MOL0     C92109   8.095  11.141   1.524  0.2295  0.8618 -0.0978
  683MOL0     C92110   8.148  11.093   1.659  0.2626  1.5265  0.6898
  683MOL0     C92111   8.297  11.119   1.683  0.1008  0.1999  0.6015
  683MOL0     C92112   8.358  11.063   1.803 -0.5661 -0.5730  0.3181
  683MOL0     C92113   8.383  11.169   1.918  0.1383  0.6298  1.0173
  683MOL0    Cl92114   8.214  11.191   1.991  0.3493  0.2947  0.2720
  683MOL0     C92115   7.954  10.552   1.334  0.3521 -0.6442 -0.9382
  683MOL0     C92116   8.001  10.425   1.337 -0.8527  0.0014 -0.1537
  683MOL0     O92117   8.394  10.264   1.385 -0.0659 -0.9146  0.0183
  683MOL0     C92118   8.406  10.011   1.463 -0.2397  0.2889 -0.3857
  683MOL0     C92119   8.419   9.896   1.545 -0.1456  0.5373  0.8207
  683MOL0     N92120   8.717   9.172   1.590 -0.0855  0.2804 -0.0077
  683MOL0     N92121   8.829   9.129   1.640  0.2292  0.4893 -0.1714
  683MOL0     C92122   8.919   9.656   0.830  0.0996  0.8984 -0.1604
  683MOL0     C92123   8.887   9.766   0.758  0.6855  0.3684  0.6434
  683MOL0     C92124   8.864  10.183   0.635  0.1134  0.0598  0.0184
  683MOL0     C92125   8.916  10.225   0.509 -1.5214  0.8328  0.0963
  683MOL0     C92126   8.870  10.341   0.452  0.0904  0.0638 -0.4556
  683MOL0     C92127   8.754  10.409   0.517  0.0590 -0.7675 -0.0975
  683MOL0     O92128   8.710  10.528   0.459  0.8828 -0.3216  0.3971
  683MOL0     C92129   8.643  10.634   0.540  0.4094 -0.0724  0.6722
  683MOL0     C92130   8.737  10.699   0.644 -0.2208  0.4880  0.0048
  683MOL0     C92131   8.657  10.813   0.727 -0.0098 -0.5483 -0.0268
  683MOL0     C92132   8.752  10.905   0.817  0.9759 -0.2093  0.4166
  683MOL0     C92133   8.827  10.840   0.913 -1.1457 -0.3782  0.0493
  683MOL0     C92134   8.868  10.791   1.017  0.1440 -0.5235 -0.5163
  683MOL0     C92135   8.715  10.369   0.647 -0.2524  0.0391 -0.7146
  683MOL0     C92136   8.753  10.248   0.692  0.1912 -0.3205  0.4207
  683MOL0     C92137   8.666  10.182   0.809 -0.1060 -0.3659  0.7539
  683MOL0     H92138   9.191   9.839   0.636 -1.8057 -2.0208 -3.2205
  683MOL0     H92139   9.246   9.625   0.758 -0.1090 -1.1005  0.8426
  683MOL0     H92140   9.183   9.377   0.838 -0.6876  2.3231 -0.8255
  683MOL0     H92141   9.264   9.468   0.968  0.2080  0.2725 -0.9754
  683MOL0     H92142   9.065   9.237   0.980 -1.1171  1.6446  0.4744
  683MOL0     H92143   9.063   9.334   1.119 -2.7404 -1.4173 -1.5198
  683MOL0     H92144   9.323   9.217   0.984  1.4109 -1.0639  0.9101
  683MOL0     H92145   9.235   9.120   1.090 -0.1050  0.4707  1.1838
  683MOL0     H92146   9.439   9.270   1.185  0.2342 -1.0275 -0.1369
  683MOL0     H92147   9.306   9.385   1.209 -1.8477  0.4499 -3.8924
  683MOL0     H92148   9.307   9.091   1.303  1.5082 -0.0812 -2.1574
  683MOL0     H92149   9.382   9.214   1.393 -0.6405 -1.1842  1.5368
  683MOL0     H92150   9.169   9.336   1.419 -3.1717  1.4852 -0.8463
  683MOL0     H92151   9.081   9.218   1.334 -0.8409 -1.2560  1.3201
  683MOL0     H92152   9.235   9.109   1.563  0.5021  0.4947  0.3255
  683MOL0     H92153   9.095   9.041   1.481 -0.0821 -0.3402  1.9777
  683MOL0     H92154   9.079   9.144   1.719 -2.0565 -0.6130 -0.3316
  683MOL0     H92155   9.113   9.295   1.658  2.0053 -1.5537  2.0713
  683MOL0     H92156   8.911   9.387   1.460  2.1456  0.3042  1.8538
  683MOL0     H92157   8.653   9.414   1.372 -0.3412 -3.8168 -1.1838
  683MOL0     H92158   8.531   9.316   1.428  0.4373 -0.9166 -2.0087
  683MOL0     H92159   8.569   9.413   1.680  1.1426 -1.9591 -1.2760
  683MOL0     H92160   8.667   9.530   1.595  0.6629 -0.6185 -0.2698
  683MOL0     H92161   8.369   9.496   1.571 -0.4843  0.8603 -0.2776
  683MOL0     H92162   8.460   9.626   1.490 -1.9869  3.4473  1.4467
  683MOL0     H92163   8.532   9.704   1.725 -0.8714  1.3935  4.2196
  683MOL0     H92164   8.441   9.576   1.794  0.2474  1.3023  2.5201
  683MOL0     H92165   8.118   9.875   1.691  0.6336 -0.7711 -0.5049
  683MOL0     H92166   8.098  10.102   1.592 -1.5023 -2.6577  1.4992
  683MOL0     H92167   8.332  10.496   1.381 -0.6271 -2.4648  0.3108
  683MOL0     H92168   8.238  10.724   1.343 -0.3542 -0.0469  0.3911
  683MOL0     H92169   8.042  10.846   1.516 -0.2257  3.5485  2.0533
  683MOL0     H92170   8.131  10.912   1.368 -1.2105 -0.4235 -2.0009
  683MOL0     H92171   7.922  11.023   1.299 -2.2116 -1.4716  0.4179
  683MOL0     H92172   7.843  10.950   1.438  1.7263 -1.0156  2.7163
  683MOL0     H92173   7.903  11.196   1.438 -0.0874  0.5065 -0.2723
  683MOL0     H92174   7.905  11.097   1.591  4.2117  0.6236  2.1417
  683MOL0     H92175   8.120  11.245   1.504 -0.1763  0.8635 -0.6028
  683MOL0     H92176   8.170  11.097   1.456  1.2558  1.3050  0.7132
  683MOL0     H92177   8.133  10.985   1.668  1.0106  1.1282 -2.0253
  683MOL0     H92178   8.097  11.137   1.745  0.8574  0.6741  1.5121
  683MOL0     H92179   8.353  11.091   1.593  0.4046 -1.9726  1.3972
  683MOL0     H92180   8.307  11.228   1.688 -3.9644  0.7114  0.8653
  683MOL0     H92181   8.446  11.009   1.767 -1.0344  0.2051 -2.1849
  683MOL0     H92182   8.295  10.983   1.843  2.6849 -3.1461  0.8014
  683MOL0     H92183   8.452  11.122   1.989  0.7474 -0.6790 -0.3848
  683MOL0     H92184   8.425  11.267   1.897 -0.2263  1.0350  2.0955
  683MOL0     H92185   7.847  10.568   1.320 -0.2033 -2.7221  0.5131
  683MOL0     H92186   7.921  10.355   1.315 -0.3628  0.0166 -2.2034
  683MOL0     H92187   8.490  10.027   1.395  0.2677 -1.9947 -0.3836
  683MOL0     H92188   8.511   9.844   1.519 -2.5138 -4.2180  0.8304
  683MOL0     H92189   8.842   9.600   0.882  0.8082 -0.7092 -0.7396
  683MOL0     H92190   8.782   9.791   0.751  1.1491  3.0762  2.0136
  683MOL0     H92191   9.001  10.173   0.465 -0.6015  1.9926  0.4204
  683MOL0     H92192   8.907  10.372   0.355  1.1160 -0.9104 -0.3960
  683MOL0     H92193   8.550  10.602   0.588 -0.1843 -0.3075 -0.5995
  683MOL0     H92194   8.604  10.711   0.473  1.2821 -2.0706 -2.3256
  683MOL0     H92195   8.816  10.741   0.582 -2.0420  1.6571 -1.6469
  683MOL0     H92196   8.778  10.635   0.723 -0.7106  0.6716  0.4121
  683MOL0     H92197   8.579  10.774   0.792  1.8314 -0.7817  2.1375
  683MOL0     H92198   8.621  10.886   0.652  2.1009 -0.2134 -0.7800
  683MOL0     H92199   8.819  10.946   0.741  0.8713 -1.5635 -0.4359
  683MOL0     H92200   8.684  10.981   0.857 -2.5964 -3.6300  1.4408
  683MOL0     H92201   8.883  10.749   1.114  0.6970  0.6097 -0.0879
  683MOL0     H92202   8.628  10.404   0.703  2.2794 -1.0903  4.4599
  683MOL0     H92203   8.565  10.226   0.814  0.2098  0.6856 -1.1970
  683MOL0     H92204   8.667  10.075   0.790  1.9648 -0.5415  1.5994
  683MOL0     H92205   8.706  10.185   0.911 -0.6993  0.7556  0.9819
  684MOL0     O92206   7.317   3.134   6.085  0.5240 -0.0099  0.6967
  684MOL0     C92207   7.240   3.152   6.174  0.2323 -0.2393 -0.1152
  684MOL0     O92208   7.105   3.180   6.154 -0.3871  0.2128 -0.4091
  684MOL0     C92209   7.063   3.218   6.028 -0.3814 -0.2616 -0.4916
  684MOL0     C92210   7.097   3.341   5.976 -0.5015  0.5980 -0.2949
  684MOL0     C92211   7.059   3.378   5.843  1.3354  0.1546  0.6212
  684MOL0     C92212   6.978   3.297   5.771 -0.1944  0.3973  0.7982
  684MOL0     O92213   6.945   3.339   5.640 -0.4406  0.1177 -0.5933
  684MOL0     C92214   6.816   3.314   5.588 -0.1788  1.0721 -0.0249
  684MOL0     C92215   6.730   3.432   5.623  0.1008  0.4924 -0.2684
  684MOL0     C92216   6.587   3.390   5.596  0.2848 -1.0249  0.1745
  684MOL0     C92217   6.499   3.516   5.609  0.6368  0.2473  0.0319
  684MOL0     C92218   6.386   3.507   5.501  0.3236  0.0561  0.3188
  684MOL0     C92219   6.280   3.617   5.522  0.8663  0.0896 -0.5319
  684MOL0     C92220   6.181   3.631   5.406  0.2039  0.6219  0.1779
  684MOL0     C92221   6.060   3.717   5.443 -0.0553  0.0375  0.6517
  684MOL0     N92222   6.083   3.847   5.509 -0.5393 -0.5805 -0.0157
  684MOL0     C92223   6.069   3.971   5.445 -0.4940  0.5806  0.2781
  684MOL0     C92224   6.046   4.057   5.553  0.6690 -0.4240 -0.4010
  684MOL0     C92225   6.019   4.198   5.555  0.2550  0.7311  0.1855
  684MOL0     C92226   6.109   4.273   5.457 -0.2492 -0.1425 -0.1929
  684MOL0     C92227   6.167   4.398   5.528 -0.8704  0.3546  0.0857
  684MOL0     C92228   6.257   4.484   5.446 -0.1175  0.1475  0.2441
  684MOL0     O92229   6.319   4.410   5.336  0.0755 -0.2686  0.0387
  684MOL0     C92230   6.346   4.465   5.216  0.3797  0.4306  0.0235
  684MOL0     C92231   6.407   4.379   5.132  0.5908  0.0542  0.5569
  684MOL0     C92232   6.436   4.416   5.002  0.2321 -0.0804  0.3164
  684MOL0     C92233   6.397   4.544   4.955 -0.3114 -0.5324 -0.4102
  684MOL0     C92234   6.427   4.583   4.814 -0.9196 -0.2477  0.2130
  684MOL0     O92235   6.459   4.715   4.785 -1.7423  0.0888 -0.3028
  684MOL0     C92236   6.464   4.756   4.658  0.1249 -0.1294  0.3418
  684MOL0     C92237   6.558   4.861   4.646  0.4000 -0.3548  1.0788
  684MOL0     C92238   6.589   4.927   4.524 -0.8531  0.1501  0.6507
  684MOL0     C92239   6.512   4.887   4.407 -0.3020  0.2935  0.6942
  684MOL0     O92240   6.551   4.936   4.286  0.3305 -0.5749  0.6719
  684MOL0     C92241   6.436   4.984   4.203  0.5389 -0.0637  0.2355
  684MOL0     C92242   6.498   5.087   4.108 -0.6175  0.1765 -0.3426
  684MOL0     C92243   6.386   5.179   4.058  0.9301  0.0931  0.0359
  684MOL0     C92244   6.442   5.302   3.985 -0.3621  0.6089 -0.3347
  684MOL0     C92245   6.512   5.415   4.061 -0.7456 -0.3390 -0.4332
  684MOL0     C92246   6.412   5.500   4.137 -0.1603  0.4780 -0.0176
  684MOL0     C92247   6.479   5.623   4.193  0.1270  0.0068  0.3753
  684MOL0     C92248   6.373   5.713   4.261 -0.4755 -0.1780 -0.3460
  684MOL0    Cl92249   6.475   5.850   4.319 -0.3484  0.0311 -0.2394
  684MOL0     C92250   6.416   4.780   4.423 -0.5198  0.9231 -1.1329
  684MOL0     C92251   6.392   4.725   4.542 -0.2575  0.4136 -0.2720
  684MOL0     O92252   6.406   4.495   4.730 -0.3523 -0.5787  0.1709
  684MOL0     C92253   6.342   4.640   5.046 -0.8765 -0.4791  0.4809
  684MOL0     C92254   6.302   4.590   5.174  0.4251  0.1243 -1.0755
  684MOL0     N92255   6.060   3.986   5.666  0.1256  0.1229  0.2515
  684MOL0     N92256   6.086   3.863   5.647  0.0059  1.0091 -0.2313
  684MOL0     C92257   6.951   3.173   5.821  0.4688  0.7550 -0.4632
  684MOL0     C92258   6.985   3.130   5.953  0.1998  0.1780 -1.4027
  684MOL0     C92259   7.303   3.171   6.300 -0.3508  0.5963  0.6194
  684MOL0     C92260   7.422   3.106   6.336  0.4626  0.1342 -0.0644
  684MOL0     C92261   7.487   3.121   6.455 -0.3819  0.2357 -0.2970
  684MOL0     C92262   7.435   3.205   6.546  0.8721 -0.3819 -1.2775
  684MOL0     O92263   7.514   3.227   6.654  1.3505  0.0350  0.4280
  684MOL0     C92264   7.513   3.366   6.713  0.0513 -0.2205  0.4084
  684MOL0     C92265   7.594   3.452   6.620  0.6822  0.5717  0.0522
  684MOL0     C92266   7.749   3.429   6.660 -0.3145  0.2835  0.4510
  684MOL0     C92267   7.846   3.496   6.556  0.2379  0.2111 -0.2374
  684MOL0     C92268   7.979   3.465   6.603 -0.4053  0.0016 -0.5188
  684MOL0     C92269   8.089   3.453   6.640 -0.7638  0.1073 -1.0099
  684MOL0     C92270   7.313   3.271   6.516 -0.4952  0.3102  0.5606
  684MOL0     C92271   7.245   3.257   6.391 -1.4159  0.8371  0.6187
  684MOL0     C92272   7.113   3.340   6.376 -0.0941 -0.6420 -0.1485
  684MOL0     H92273   7.145   3.419   6.034 -1.5205  1.8672 -1.0926
  684MOL0     H92274   7.087   3.480   5.817  1.7630  0.0880  0.8260
  684MOL0     H92275   6.824   3.300   5.480 -1.9273 -1.0859  0.0537
  684MOL0     H92276   6.774   3.222   5.630 -1.8258  2.5130  1.6717
  684MOL0     H92277   6.758   3.525   5.573  0.9324  0.8209  0.7549
  684MOL0     H92278   6.722   3.450   5.731  1.2330 -0.1573 -0.0515
  684MOL0     H92279   6.554   3.317   5.670  1.9165 -0.6170  1.3637
  684MOL0     H92280   6.580   3.343   5.498  2.3150 -1.0964  0.0137
  684MOL0     H92281   6.448   3.512   5.705  0.2954 -2.4581 -0.1844
  684MOL0     H92282   6.557   3.609   5.605  2.0995 -0.6434 -0.5108
  684MOL0     H92283   6.433   3.515   5.402 -1.4486  0.5259 -0.5380
  684MOL0     H92284   6.325   3.416   5.495 -1.6929  1.2978  0.8410
  684MOL0     H92285   6.227   3.588   5.613  1.3711  0.7684 -0.0039
  684MOL0     H92286   6.320   3.718   5.537 -0.2162  0.7831 -2.0690
  684MOL0     H92287   6.138   3.540   5.363 -1.9208  2.2891 -1.4752
  684MOL0     H92288   6.234   3.675   5.320  3.6130  2.0234  2.7736
  684MOL0     H92289   5.990   3.735   5.362 -1.0934  0.7948  1.6782
  684MOL0     H92290   5.992   3.664   5.512  0.3927 -2.4351 -0.6868
  684MOL0     H92291   6.053   4.000   5.341 -1.2398 -1.8867 -0.3493
  684MOL0     H92292   5.915   4.193   5.521  0.6081 -1.0469 -0.7253
  684MOL0     H92293   6.018   4.243   5.655  2.2341  0.4087  0.3811
  684MOL0     H92294   6.196   4.209   5.443  0.2383  0.4927 -0.1113
  684MOL0     H92295   6.065   4.306   5.363  0.7827  0.0290 -0.6187
  684MOL0     H92296   6.222   4.354   5.611  0.6624 -0.1616 -1.1519
  684MOL0     H92297   6.080   4.456   5.561 -0.3024  0.7293  0.9387
  684MOL0     H92298   6.337   4.530   5.503  0.6760  0.0415 -0.7471
  684MOL0     H92299   6.199   4.568   5.408  0.1107 -0.5955 -1.9097
  684MOL0     H92300   6.439   4.276   5.143  0.2295 -0.2155 -0.7048
  684MOL0     H92301   6.477   4.349   4.927  4.1411  1.8819  0.4200
  684MOL0     H92302   6.613   4.881   4.738  0.1719  0.0598  1.1305
  684MOL0     H92303   6.675   4.992   4.509  1.9595 -3.2044  1.0167
  684MOL0     H92304   6.379   4.906   4.152 -3.8199  2.1772  1.2353
  684MOL0     H92305   6.363   5.034   4.266 -1.4402 -2.0804 -0.3222
  684MOL0     H92306   6.570   5.143   4.169 -2.8260  1.3836  1.2740
  684MOL0     H92307   6.568   5.042   4.036 -0.0969 -2.2240  1.5327
  684MOL0     H92308   6.314   5.128   3.994 -2.0363  3.1147  0.6851
  684MOL0     H92309   6.338   5.214   4.150 -0.9707 -0.6431 -0.6444
  684MOL0     H92310   6.363   5.348   3.926 -0.2330  1.3239  0.0294
  684MOL0     H92311   6.526   5.267   3.924 -0.1029 -0.5410  0.6379
  684MOL0     H92312   6.561   5.482   3.989  0.0488  1.5269  1.7037
  684MOL0     H92313   6.588   5.363   4.120 -0.6539 -1.0628 -1.1718
  684MOL0     H92314   6.329   5.526   4.071 -0.1464  2.5703  0.7189
  684MOL0     H92315   6.373   5.435   4.217  0.4762 -0.3083 -0.3284
  684MOL0     H92316   6.511   5.691   4.113 -1.4194  1.8497  1.2202
  684MOL0     H92317   6.558   5.603   4.265  0.2268 -0.2939  0.1850
  684MOL0     H92318   6.295   5.758   4.198  0.4443  5.0030  1.6594
  684MOL0     H92319   6.320   5.669   4.345 -1.3427 -0.7325 -1.1610
  684MOL0     H92320   6.363   4.740   4.338  0.9993 -0.1709 -1.6027
  684MOL0     H92321   6.315   4.652   4.564  1.1950 -1.3004 -0.7153
  684MOL0     H92322   6.314   4.743   5.026  0.2539  0.0038  1.3230
  684MOL0     H92323   6.245   4.660   5.234 -1.7928 -1.1305 -1.6317
  684MOL0     H92324   6.887   3.104   5.767 -1.4073 -0.6431  3.2611
  684MOL0     H92325   6.950   3.035   5.992 -2.6651  1.2257 -1.1577
  684MOL0     H92326   7.471   3.036   6.269 -1.2410 -1.8783  0.6894
  684MOL0     H92327   7.574   3.062   6.482  0.5633  1.4925 -0.4764
  684MOL0     H92328   7.558   3.371   6.812 -0.4988  2.4377  0.5982
  684MOL0     H92329   7.415   3.414   6.718 -0.4863 -1.1903 -0.4944
  684MOL0     H92330   7.562   3.555   6.635 -1.3845 -0.0649  0.2611
  684MOL0     H92331   7.590   3.421   6.515  2.4312  1.0098 -0.1845
  684MOL0     H92332   7.771   3.322   6.665  0.9211  0.5692  1.5439
  684MOL0     H92333   7.758   3.470   6.760 -3.9779 -3.1391  2.4937
  684MOL0     H92334   7.824   3.453   6.458 -0.8864 -2.8434  1.2512
  684MOL0     H92335   7.820   3.603   6.551 -0.0623  0.1019 -3.3867
  684MOL0     H92336   8.189   3.455   6.678 -0.5805 -0.9247 -1.3854
  684MOL0     H92337   7.274   3.339   6.592 -2.3441  0.4199 -0.4265
  684MOL0     H92338   7.093   3.390   6.471 -0.3773  0.8842 -0.9775
  684MOL0     H92339   7.120   3.411   6.294 -1.7662 -2.3841 -1.9001
  684MOL0     H92340   7.017   3.288   6.369 -0.4878 -0.4443  2.7351
  685MOL0     O92341   1.099   2.591  11.046  0.5667 -0.3182 -0.3301
  685MOL0     C92342   1.187   2.604  11.126 -0.1308  0.0224 -0.5207
  685MOL0     O92343   1.311   2.579  11.105  0.3433  0.1916 -0.8314
  685MOL0     C92344   1.362   2.564  10.980  0.5184 -0.7840 -0.8425
  685MOL0     C92345   1.477   2.643  10.949  0.0939  0.3289  0.0955
  685MOL0     C92346   1.535   2.640  10.823 -0.3013  0.0626 -0.2395
  685MOL0     C92347   1.468   2.577  10.718  0.9451  0.0612  0.3311
  685MOL0     O92348   1.515   2.597  10.595  0.5084  0.5289  1.2461
  685MOL0     C92349   1.584   2.715  10.550  0.2590  0.5363 -0.2438
  685MOL0     C92350   1.479   2.835  10.550 -0.0493 -0.3435  0.1182
  685MOL0     C92351   1.542   2.954  10.479  0.0434  0.1701  0.2262
  685MOL0     C92352   1.647   3.019  10.555 -0.7926 -0.2359 -0.1716
  685MOL0     C92353   1.705   3.134  10.483  0.5621 -0.2520  0.1496
  685MOL0     C92354   1.818   3.196  10.573 -0.2939  0.2575  0.0596
  685MOL0     C92355   1.837   3.343  10.532 -0.3883  1.1777 -0.5048
  685MOL0     C92356   1.873   3.436  10.647 -0.7043 -1.0905  0.3016
  685MOL0     N92357   1.930   3.560  10.599  0.5440 -0.0748  0.1127
  685MOL0     C92358   1.858   3.661  10.544 -0.4952  0.3560  1.0026
  685MOL0     C92359   1.949   3.753  10.515 -0.3506  0.1881 -0.3346
  685MOL0     C92360   1.913   3.897  10.470  0.3829  0.0528 -0.0309
  685MOL0     C92361   1.994   4.008  10.531 -0.4351 -0.4609 -0.6243
  685MOL0     C92362   1.953   4.049  10.671 -0.5584 -0.0973 -0.1704
  685MOL0     C92363   1.816   4.102  10.674  0.6446 -0.6906  0.0861
  685MOL0     O92364   1.802   4.181  10.793  0.4662 -0.2549 -0.2741
  685MOL0     C92365   1.675   4.210  10.835  0.4170 -0.1978  1.0734
  685MOL0     C92366   1.673   4.260  10.962 -0.6135  0.2506 -0.4645
  685MOL0     C92367   1.555   4.298  11.026 -0.0833  0.0939 -0.4271
  685MOL0     C92368   1.431   4.294  10.963  0.7882  0.3431 -0.7258
  685MOL0     C92369   1.315   4.343  11.044 -0.2704  0.6349  0.3059
  685MOL0     O92370   1.201   4.381  10.986  0.4688 -0.3782 -0.1885
  685MOL0     C92371   1.113   4.456  11.063 -0.1126 -0.2281 -0.4087
  685MOL0     C92372   1.093   4.594  11.038  0.3562 -0.0227  0.2495
  685MOL0     C92373   0.991   4.662  11.100 -0.4229  0.3113 -0.8540
  685MOL0     C92374   0.927   4.617  11.220 -0.7980  0.7591 -0.2564
  685MOL0     O92375   0.826   4.683  11.287 -0.1087  0.1550 -0.2120
  685MOL0     C92376   0.766   4.791  11.227 -0.0424  0.3412 -0.1040
  685MOL0     C92377   0.652   4.845  11.310  0.0120 -0.0150 -0.3535
  685MOL0     C92378   0.646   4.997  11.301 -0.9474  0.4285  0.0522
  685MOL0     C92379   0.742   5.061  11.408  0.6081 -0.7244  0.0268
  685MOL0     C92380   0.758   5.209  11.420  0.0379  0.4821 -0.4646
  685MOL0     C92381   0.633   5.284  11.385 -0.7732 -0.0826 -0.0270
  685MOL0     C92382   0.618   5.419  11.456 -0.8482 -0.3896  1.1008
  685MOL0     C92383   0.696   5.541  11.399 -0.0684 -0.0514  0.9830
  685MOL0    Cl92384   0.872   5.489  11.371  0.1286 -0.1413 -0.0465
  685MOL0     C92385   0.966   4.487  11.263 -0.6990 -0.8457 -0.3521
  685MOL0     C92386   1.045   4.407  11.179  0.3345 -0.5536  0.2497
  685MOL0     O92387   1.330   4.346  11.167  0.7220 -0.1919  0.5862
  685MOL0     C92388   1.430   4.251  10.828  0.3053 -1.1917 -0.0325
  685MOL0     C92389   1.552   4.202  10.770  0.3083 -0.2906  0.2007
  685MOL0     N92390   2.077   3.702  10.551  0.3671 -0.3011  0.4549
  685MOL0     N92391   2.064   3.578  10.587 -0.3857 -0.6100 -0.1445
  685MOL0     C92392   1.359   2.496  10.746  0.3475  0.7157 -0.2214
  685MOL0     C92393   1.304   2.491  10.876  0.4032 -0.5084 -0.7626
  685MOL0     C92394   1.131   2.622  11.264 -0.1081 -0.0467 -0.4433
  685MOL0     C92395   1.026   2.712  11.286 -0.2463 -0.0677 -0.6121
  685MOL0     C92396   0.973   2.710  11.416  0.0717 -0.7250  0.2710
  685MOL0     C92397   1.012   2.640  11.524 -0.2683  0.8883  0.4507
  685MOL0     O92398   0.958   2.646  11.639  0.3698  0.4859 -0.5165
  685MOL0     C92399   0.842   2.731  11.666  0.5373  0.5782 -0.0383
  685MOL0     C92400   0.811   2.700  11.816 -0.3367 -0.0505 -0.0330
  685MOL0     C92401   0.691   2.776  11.881 -0.4943  0.2848  0.5462
  685MOL0     C92402   0.557   2.695  11.846 -0.0533  0.3279 -0.1366
  685MOL0     C92403   0.447   2.756  11.925  0.6460 -0.0520  0.5829
  685MOL0     C92404   0.345   2.803  11.978  0.4919 -0.0115 -0.4767
  685MOL0     C92405   1.127   2.558  11.506 -0.0312 -0.4811  0.2138
  685MOL0     C92406   1.185   2.548  11.378  0.3222 -0.4889 -0.8288
  685MOL0     C92407   1.309   2.465  11.365  0.1736 -1.4651 -0.0487
  685MOL0     H92408   1.533   2.691  11.029 -3.0237  0.4438  2.4131
  685MOL0     H92409   1.632   2.689  10.817  1.6367 -3.1085  2.1170
  685MOL0     H92410   1.674   2.732  10.609 -0.1053  0.2992  0.3828
  685MOL0     H92411   1.615   2.694  10.447  1.9767 -1.3884  0.5965
  685MOL0     H92412   1.440   2.865  10.648 -3.2581  0.1663 -1.2203
  685MOL0     H92413   1.391   2.799  10.497  0.7078  0.0828 -1.4773
  685MOL0     H92414   1.461   3.026  10.462 -0.4112 -0.5829 -0.9753
  685MOL0     H92415   1.563   2.915  10.378  0.0881  1.1167 -0.1427
  685MOL0     H92416   1.610   3.043  10.655 -0.6723  2.2828 -0.6542
  685MOL0     H92417   1.731   2.954  10.577 -4.2587 -4.5125  2.0120
  685MOL0     H92418   1.749   3.098  10.389  0.8759  0.8677 -0.1515
  685MOL0     H92419   1.628   3.206  10.454  1.1316  0.0266 -0.7284
  685MOL0     H92420   1.788   3.198  10.678 -3.3236  1.6342 -0.7419
  685MOL0     H92421   1.912   3.140  10.564  0.9412  2.4630 -2.0060
  685MOL0     H92422   1.747   3.389  10.490 -2.0317  0.1006  1.6149
  685MOL0     H92423   1.905   3.343  10.447  0.1211 -0.1327 -0.1239
  685MOL0     H92424   1.797   3.460  10.722 -1.2494  0.0046 -0.5703
  685MOL0     H92425   1.962   3.395  10.697  0.6598 -0.2348 -1.3213
  685MOL0     H92426   1.750   3.661  10.536 -0.4968 -1.1037  0.6580
  685MOL0     H92427   1.920   3.911  10.362 -0.7209 -0.9535 -0.2501
  685MOL0     H92428   1.809   3.910  10.500  0.7260  4.4818  0.0345
  685MOL0     H92429   2.098   3.975  10.540 -0.7988 -1.2173  1.1946
  685MOL0     H92430   1.986   4.100  10.472  2.6587 -0.2814 -0.9157
  685MOL0     H92431   2.032   4.120  10.695 -0.9179 -0.0342  0.8780
  685MOL0     H92432   1.961   3.973  10.749  1.0602 -2.7667 -2.7309
  685MOL0     H92433   1.740   4.023  10.660 -1.8122  1.3668  1.0692
  685MOL0     H92434   1.807   4.166  10.586  0.4013  2.2085  2.1017
  685MOL0     H92435   1.754   4.286  11.028 -2.0292 -1.4567  2.1240
  685MOL0     H92436   1.565   4.307  11.134 -1.4953  1.5755 -0.3889
  685MOL0     H92437   1.140   4.639  10.951 -0.8650  0.8258  0.0175
  685MOL0     H92438   0.981   4.765  11.067  1.4835  0.3892 -1.2969
  685MOL0     H92439   0.838   4.873  11.221  0.8725 -0.5098 -1.1388
  685MOL0     H92440   0.735   4.762  11.126 -0.5543 -1.5677  0.5529
  685MOL0     H92441   0.550   4.804  11.302  0.0173 -0.0089 -0.4517
  685MOL0     H92442   0.677   4.808  11.410  1.7039 -2.6730 -1.6312
  685MOL0     H92443   0.687   5.027  11.204  0.6830  4.2111  1.7161
  685MOL0     H92444   0.548   5.044  11.297 -0.3870  1.5885 -2.3416
  685MOL0     H92445   0.831   4.998  11.413  2.1987  1.0728 -2.7835
  685MOL0     H92446   0.677   5.041  11.493  0.3098 -0.6062 -0.1732
  685MOL0     H92447   0.836   5.226  11.346  2.2044 -1.4289  1.2290
  685MOL0     H92448   0.789   5.237  11.521 -1.1948  2.0188 -0.4693
  685MOL0     H92449   0.637   5.294  11.276  1.1163  0.5968  0.0673
  685MOL0     H92450   0.548   5.219  11.407 -0.3622 -0.4126  0.6096
  685MOL0     H92451   0.654   5.415  11.559  0.3632  0.5502  0.7330
  685MOL0     H92452   0.511   5.440  11.457 -0.8290 -0.3043  1.5107
  685MOL0     H92453   0.654   5.573  11.304  1.4616  0.8798  0.5979
  685MOL0     H92454   0.680   5.624  11.469 -3.5494  0.4297 -0.2147
  685MOL0     H92455   0.920   4.440  11.349 -2.5264 -0.8656 -1.2902
  685MOL0     H92456   1.067   4.304  11.205 -0.9948 -0.4599  1.9668
  685MOL0     H92457   1.343   4.259  10.764 -0.2640  2.0536  0.9827
  685MOL0     H92458   1.546   4.173  10.666  2.3485  1.9097 -0.6248
  685MOL0     H92459   1.315   2.432  10.671 -2.9552 -0.6103  2.5952
  685MOL0     H92460   1.234   2.409  10.888 -0.5097 -0.1027 -2.8881
  685MOL0     H92461   0.994   2.786  11.213  1.0384  0.8091 -0.3422
  685MOL0     H92462   0.881   2.767  11.421  0.9379  0.6551  1.2209
  685MOL0     H92463   0.756   2.698  11.606  0.3313  1.0757 -0.0222
  685MOL0     H92464   0.863   2.837  11.651  0.5707  0.8850  1.9673
  685MOL0     H92465   0.898   2.716  11.881 -1.2778 -0.9362  1.4879
  685MOL0     H92466   0.796   2.592  11.815  2.7885 -0.6144  1.4857
  685MOL0     H92467   0.683   2.884  11.872  0.8399  0.2538 -1.9332
  685MOL0     H92468   0.710   2.758  11.987  3.3805  1.0073  0.1195
  685MOL0     H92469   0.521   2.684  11.743  2.0988 -0.6466 -0.8406
  685MOL0     H92470   0.573   2.591  11.874 -1.8437 -0.4799 -1.8637
  685MOL0     H92471   0.248   2.836  12.009  0.6807  0.6189 -0.5372
  685MOL0     H92472   1.177   2.504  11.586  2.2277 -0.1133 -0.8698
  685MOL0     H92473   1.393   2.530  11.391 -1.8867  0.7354  1.4632
  685MOL0     H92474   1.300   2.386  11.440 -0.7755 -1.7504 -0.4583
  685MOL0     H92475   1.318   2.411  11.270  0.1026  2.2361 -2.3636
  686MOL0     O92476   0.233   5.304   4.752  0.5834  0.6542 -0.0322
  686MOL0     C92477   0.184   5.366   4.848  1.2546 -0.0923 -0.5549
  686MOL0     O92478   0.157   5.502   4.854 -0.2070  0.5786  0.5081
  686MOL0     C92479   0.150   5.579   4.738  0.0115 -1.2019 -1.4978
  686MOL0     C92480   0.210   5.561   4.620  0.3230  0.4956 -0.5671
  686MOL0     C92481   0.203   5.665   4.521  0.1348  0.6383  0.0826
  686MOL0     C92482   0.120   5.782   4.538 -1.0272  0.2281  0.0269
  686MOL0     O92483   0.119   5.871   4.429  0.2145 -0.0991 -0.6962
  686MOL0     C92484  -0.007   5.946   4.414  0.3488  0.3214  0.1127
  686MOL0     C92485  -0.016   6.026   4.287  0.2959  0.3636  1.0016
  686MOL0     C92486  -0.154   6.109   4.288 -0.5388 -0.0784  0.6669
  686MOL0     C92487  -0.276   6.024   4.250  0.1990 -0.3045 -0.4412
  686MOL0     C92488  -0.412   6.100   4.232 -0.4205  0.3424  0.8001
  686MOL0     C92489  -0.405   6.210   4.129  0.6741  0.0087 -0.2012
  686MOL0     C92490  -0.542   6.257   4.085  0.4251 -0.1055  0.2212
  686MOL0     C92491  -0.542   6.410   4.057  0.7095  0.3958 -0.3483
  686MOL0     N92492  -0.686   6.445   4.019 -0.6873 -0.3517  0.4256
  686MOL0     C92493  -0.745   6.570   4.033  0.9647 -0.7660 -0.3705
  686MOL0     C92494  -0.877   6.546   4.015 -0.2590  0.2863 -0.0846
  686MOL0     C92495  -0.985   6.647   4.020  0.1922 -0.2047  0.1368
  686MOL0     C92496  -1.044   6.697   3.883 -0.5173  0.0624  0.0653
  686MOL0     C92497  -1.050   6.844   3.873  1.4167 -0.2792  0.0800
  686MOL0     C92498  -1.128   6.882   3.746  0.0550  0.0608 -0.4898
  686MOL0     O92499  -1.053   6.872   3.621 -0.2960  0.2592 -0.0421
  686MOL0     C92500  -1.113   6.915   3.508  0.5149  0.0197  0.1556
  686MOL0     C92501  -1.250   6.949   3.495  0.2661  0.0460 -0.6587
  686MOL0     C92502  -1.307   6.971   3.369 -0.3654  0.4903 -0.1915
  686MOL0     C92503  -1.223   6.978   3.256 -0.6625 -1.5100  0.2158
  686MOL0     C92504  -1.268   7.016   3.118 -0.1889  0.3220 -0.6696
  686MOL0     O92505  -1.164   7.048   3.035  0.3505  0.2341 -0.5402
  686MOL0     C92506  -1.179   7.072   2.900 -0.5850  0.4053  0.2082
  686MOL0     C92507  -1.056   7.082   2.823  0.2718 -0.1071 -0.2701
  686MOL0     C92508  -1.058   7.110   2.687  0.2443 -0.8706 -1.6608
  686MOL0     C92509  -1.175   7.140   2.627  0.3780 -0.2037  0.3864
  686MOL0     O92510  -1.179   7.174   2.494 -0.2465  0.3778  0.1140
  686MOL0     C92511  -1.056   7.199   2.405  0.2598  0.0313 -0.3859
  686MOL0     C92512  -1.002   7.073   2.334 -0.5998  0.4885  0.2143
  686MOL0     C92513  -1.106   7.018   2.236  0.6323 -0.1937  0.1970
  686MOL0     C92514  -1.032   6.884   2.187 -0.7747  0.0896  0.3429
  686MOL0     C92515  -1.102   6.831   2.058  0.5464  0.9206  0.9741
  686MOL0     C92516  -1.230   6.758   2.099 -0.1505 -1.1168  0.5506
  686MOL0     C92517  -1.302   6.690   1.986  0.1758 -0.1047 -0.0766
  686MOL0     C92518  -1.436   6.613   2.031 -0.2141 -0.2402 -0.2828
  686MOL0    Cl92519  -1.504   6.532   1.880 -0.0716  0.0110 -0.0627
  686MOL0     C92520  -1.290   7.124   2.698  0.1031  0.6554  1.1450
  686MOL0     C92521  -1.295   7.095   2.827  0.8615  0.2777 -0.1288
  686MOL0     O92522  -1.382   6.995   3.084  0.0529  0.1621  0.5105
  686MOL0     C92523  -1.081   6.950   3.271  0.9262  0.6124  0.2853
  686MOL0     C92524  -1.032   6.920   3.396  0.4482  0.4020  1.1186
  686MOL0     N92525  -0.899   6.414   3.981 -0.5714  0.4561 -0.4711
  686MOL0     N92526  -0.783   6.355   3.991 -0.7929  0.1313 -0.9503
  686MOL0     C92527   0.047   5.792   4.654 -0.0287  0.3019 -0.7939
  686MOL0     C92528   0.065   5.689   4.757 -0.5328 -0.2136 -0.6562
  686MOL0     C92529   0.167   5.293   4.972 -0.0996 -0.4320 -0.7187
  686MOL0     C92530   0.116   5.359   5.084 -0.1858 -0.2043 -0.6778
  686MOL0     C92531   0.100   5.300   5.209 -0.4556 -0.3626  0.6971
  686MOL0     C92532   0.140   5.168   5.218  0.3275  0.7301 -0.4519
  686MOL0     O92533   0.145   5.087   5.331 -0.2471 -0.1024  0.2036
  686MOL0     C92534   0.059   5.134   5.444 -0.1413  0.5262  0.1246
  686MOL0     C92535  -0.084   5.077   5.427  0.0339  0.4336  0.4137
  686MOL0     C92536  -0.102   4.927   5.436 -0.1070  0.3754  0.3970
  686MOL0     C92537  -0.041   4.849   5.328  0.6928 -0.3132 -1.0078
  686MOL0     C92538  -0.148   4.765   5.269  0.0186 -0.2815 -0.0690
  686MOL0     C92539  -0.226   4.694   5.206 -0.5093  0.6098  0.6834
  686MOL0     C92540   0.189   5.096   5.118  0.2765 -0.9427 -0.6722
  686MOL0     C92541   0.201   5.154   4.988 -0.8879  0.6956 -0.6770
  686MOL0     C92542   0.244   5.062   4.880 -0.4859 -0.6626 -0.7511
  686MOL0     H92543   0.278   5.479   4.594 -0.6656 -0.9321  1.1519
  686MOL0     H92544   0.250   5.658   4.423 -0.4583 -2.7298 -0.0773
  686MOL0     H92545  -0.090   5.876   4.414  2.3706 -2.2397  1.0345
  686MOL0     H92546  -0.018   6.007   4.505  1.2574 -0.7447  0.9667
  686MOL0     H92547  -0.023   5.957   4.202  3.8798  2.0971 -0.9101
  686MOL0     H92548   0.071   6.090   4.273 -1.7129  2.5895 -3.2653
  686MOL0     H92549  -0.146   6.185   4.209  1.9286  0.8829  1.7098
  686MOL0     H92550  -0.164   6.160   4.384 -0.6345 -0.9924  1.1461
  686MOL0     H92551  -0.254   5.980   4.152 -0.5799 -2.7435  0.4002
  686MOL0     H92552  -0.284   5.943   4.323  0.4077 -0.0825 -0.1687
  686MOL0     H92553  -0.490   6.030   4.199 -0.8462  0.7739  0.8713
  686MOL0     H92554  -0.439   6.148   4.326  1.4120  0.3298  1.3581
  686MOL0     H92555  -0.356   6.297   4.173  0.3197  0.0496  0.1177
  686MOL0     H92556  -0.329   6.173   4.060  0.5232 -1.3008  0.3162
  686MOL0     H92557  -0.610   6.237   4.169  1.6588 -1.2591  0.9756
  686MOL0     H92558  -0.560   6.194   3.998  2.3778 -0.6433  0.1769
  686MOL0     H92559  -0.514   6.470   4.144  1.6881  0.9368 -1.0079
  686MOL0     H92560  -0.491   6.427   3.962 -3.2250 -1.2291 -3.0165
  686MOL0     H92561  -0.710   6.672   4.045  1.1434 -1.0885  2.8871
  686MOL0     H92562  -1.059   6.591   4.077  1.3577 -0.8742  1.0370
  686MOL0     H92563  -0.952   6.735   4.075 -0.9199 -1.1478  2.4364
  686MOL0     H92564  -0.980   6.657   3.804  0.0140  0.6662  0.1809
  686MOL0     H92565  -1.143   6.651   3.884  0.3427 -2.0249 -2.3657
  686MOL0     H92566  -0.951   6.887   3.886  0.5034  1.0459  4.4679
  686MOL0     H92567  -1.111   6.884   3.955 -0.1483 -2.1409 -0.0982
  686MOL0     H92568  -1.138   6.991   3.753 -2.9233 -0.2230  0.7793
  686MOL0     H92569  -1.222   6.828   3.754  1.2183 -1.9560  0.4479
  686MOL0     H92570  -1.293   6.942   3.594  1.9574 -0.7413  0.0606
  686MOL0     H92571  -1.414   6.992   3.360 -0.4025 -0.1996 -1.8046
  686MOL0     H92572  -0.965   7.053   2.873  0.6667  0.2095 -0.7949
  686MOL0     H92573  -0.967   7.096   2.630  0.0605 -1.2409 -1.8684
  686MOL0     H92574  -1.082   7.269   2.325  1.9335  2.0173  0.6809
  686MOL0     H92575  -0.972   7.248   2.456 -0.3425  0.6945  0.0021
  686MOL0     H92576  -0.923   7.112   2.270 -1.1224  1.5513  0.1935
  686MOL0     H92577  -0.967   6.990   2.396 -1.9031  0.2757  0.7016
  686MOL0     H92578  -1.195   6.988   2.291 -1.0493  4.4905  0.4847
  686MOL0     H92579  -1.152   7.093   2.171 -3.4919 -2.5766  0.0397
  686MOL0     H92580  -1.027   6.809   2.267 -1.1578  1.6342  1.8861
  686MOL0     H92581  -0.929   6.903   2.156 -0.8584 -1.0163 -0.6951
  686MOL0     H92582  -1.046   6.748   2.013  1.3625  1.7202  0.4911
  686MOL0     H92583  -1.124   6.907   1.983  0.1547 -0.1734 -0.0444
  686MOL0     H92584  -1.203   6.681   2.171  2.8287 -1.6912 -1.0170
  686MOL0     H92585  -1.300   6.834   2.135  1.3414  1.2256 -1.2183
  686MOL0     H92586  -1.230   6.615   1.953  1.7457  0.4543  1.8437
  686MOL0     H92587  -1.321   6.760   1.904  2.6291 -1.8450 -2.2980
  686MOL0     H92588  -1.416   6.541   2.111  2.0713  0.5682 -0.0433
  686MOL0     H92589  -1.501   6.694   2.067 -0.6579 -1.2168  1.1860
  686MOL0     H92590  -1.390   7.136   2.660 -1.0323 -0.8186  3.4211
  686MOL0     H92591  -1.395   7.077   2.864  0.3863  2.6620 -0.1047
  686MOL0     H92592  -1.010   6.946   3.188  1.4758 -0.1627  0.7804
  686MOL0     H92593  -0.931   6.881   3.406 -0.5895 -2.8485  0.3629
  686MOL0     H92594  -0.032   5.866   4.650  0.4024  0.7172 -3.0506
  686MOL0     H92595   0.012   5.693   4.851 -2.1667  1.5932 -1.5747
  686MOL0     H92596   0.092   5.464   5.078  0.4463 -0.0059  0.2024
  686MOL0     H92597   0.062   5.367   5.286  1.2688  2.3421 -0.6347
  686MOL0     H92598   0.044   5.242   5.452 -0.5641  0.4420  0.4577
  686MOL0     H92599   0.108   5.098   5.535 -0.5484  1.7649  0.8475
  686MOL0     H92600  -0.134   5.097   5.332 -3.7097 -4.7017  0.8579
  686MOL0     H92601  -0.145   5.127   5.502  1.3498 -0.8705  2.4581
  686MOL0     H92602  -0.211   4.922   5.430 -0.4150  3.4180  1.5467
  686MOL0     H92603  -0.065   4.875   5.525  0.1998 -1.1926 -0.6159
  686MOL0     H92604   0.011   4.896   5.244 -1.2616  1.1280 -1.4888
  686MOL0     H92605   0.029   4.780   5.376 -0.4203 -2.6138 -2.4912
  686MOL0     H92606  -0.299   4.639   5.151 -1.7718 -1.3199  3.9497
  686MOL0     H92607   0.213   4.992   5.137  0.4015 -0.9345 -0.7795
  686MOL0     H92608   0.193   5.077   4.784 -2.0109 -4.4867 -0.7113
  686MOL0     H92609   0.352   5.064   4.862 -0.2035 -1.1404  0.8074
  686MOL0     H92610   0.227   4.957   4.904 -1.8093 -0.7564 -1.9555
  687MOL0     O92611  11.065   8.286   2.634 -0.3291  0.4863 -0.2811
  687MOL0     C92612  11.075   8.324   2.525 -0.8220 -1.7479  0.5395
  687MOL0     O92613  10.984   8.323   2.426  0.1995 -0.1075 -0.7097
  687MOL0     C92614  10.856   8.285   2.453 -0.5307 -0.5387 -0.3405
  687MOL0     C92615  10.799   8.187   2.381 -0.6249 -0.1563  0.5826
  687MOL0     C92616  10.672   8.132   2.412 -0.7097 -0.2993  0.8444
  687MOL0     C92617  10.599   8.190   2.511  0.0560 -0.6446 -0.7343
  687MOL0     O92618  10.473   8.139   2.538  0.3638 -0.7510 -0.0456
  687MOL0     C92619  10.412   8.150   2.667 -0.1502 -0.1632  0.8240
  687MOL0     C92620  10.274   8.104   2.639 -0.1075 -0.4246  0.1768
  687MOL0     C92621  10.187   8.215   2.578  0.0665  0.1417  0.3112
  687MOL0     C92622  10.041   8.174   2.585  0.1128 -0.3767 -0.7458
  687MOL0     C92623  10.004   8.069   2.481  0.0541 -0.7479 -0.0233
  687MOL0     C92624   9.973   8.107   2.335  1.1011  0.1162 -0.0442
  687MOL0     C92625   9.911   7.980   2.266 -0.5749 -0.2690  0.1507
  687MOL0     C92626   9.830   8.028   2.140  0.4688  0.3902 -0.2184
  687MOL0     N92627   9.723   7.921   2.140  0.3945 -0.4784 -0.2901
  687MOL0     C92628   9.736   7.786   2.099 -0.3155 -0.1302 -0.3028
  687MOL0     C92629   9.616   7.726   2.132 -0.0001 -0.3595 -0.2846
  687MOL0     C92630   9.583   7.583   2.104 -0.2541  0.0162  0.7919
  687MOL0     C92631   9.548   7.578   1.956  0.8419 -0.0098  0.4814
  687MOL0     C92632   9.391   7.607   1.929 -0.1979  0.4120 -0.9301
  687MOL0     C92633   9.355   7.634   1.783  0.0663 -0.0516 -0.3876
  687MOL0     O92634   9.250   7.720   1.781 -0.6510 -0.0751  0.9714
  687MOL0     C92635   9.174   7.725   1.665  0.3226 -0.9089  0.0370
  687MOL0     C92636   9.048   7.787   1.673 -0.7920 -0.5528  0.2116
  687MOL0     C92637   8.966   7.818   1.559 -0.2039  1.0679  0.9156
  687MOL0     C92638   9.012   7.792   1.423 -0.6821 -0.5682  0.1774
  687MOL0     C92639   8.930   7.832   1.306 -0.5352 -0.5976 -0.4062
  687MOL0     O92640   8.991   7.793   1.188 -0.0004 -0.2165  0.4544
  687MOL0     C92641   8.930   7.792   1.065  0.0070  0.2307  0.6046
  687MOL0     C92642   8.823   7.878   1.019  0.6818  0.9348  0.6245
  687MOL0     C92643   8.773   7.855   0.887 -0.1892 -0.1976 -0.2615
  687MOL0     C92644   8.804   7.748   0.803  0.5618  0.6172 -0.4155
  687MOL0     O92645   8.737   7.716   0.690 -0.3123  0.0230 -0.3329
  687MOL0     C92646   8.614   7.786   0.667 -0.5541 -0.6018  0.4252
  687MOL0     C92647   8.551   7.753   0.527  0.7593 -0.2546  0.6121
  687MOL0     C92648   8.400   7.729   0.522 -0.2360  0.3935 -0.6347
  687MOL0     C92649   8.330   7.836   0.591  0.5005  0.2918  0.9119
  687MOL0     C92650   8.365   7.981   0.533 -0.1126 -0.4420 -0.1277
  687MOL0     C92651   8.274   8.093   0.586 -0.8525 -0.7296 -0.8339
  687MOL0     C92652   8.326   8.238   0.559  0.4350  0.7497 -0.9759
  687MOL0     C92653   8.240   8.357   0.609 -0.0119 -0.0843  0.8651
  687MOL0    Cl92654   8.239   8.363   0.791 -0.2912  0.2083 -0.1777
  687MOL0     C92655   8.913   7.678   0.850 -0.5554  0.7332 -0.4253
  687MOL0     C92656   8.981   7.701   0.972 -0.5823  0.4642  0.5270
  687MOL0     O92657   8.818   7.880   1.320 -0.0612 -0.6706 -0.3451
  687MOL0     C92658   9.137   7.727   1.411  0.6232 -0.1931 -0.1680
  687MOL0     C92659   9.217   7.700   1.530  0.8425  0.3823  0.2762
  687MOL0     N92660   9.540   7.821   2.208  0.1806  0.8692 -0.9281
  687MOL0     N92661   9.603   7.940   2.194  0.0669 -0.0900 -1.2268
  687MOL0     C92662  10.647   8.302   2.581 -1.0471 -0.2899 -0.3118
  687MOL0     C92663  10.777   8.349   2.554  0.3478  0.6581  0.1435
  687MOL0     C92664  11.209   8.382   2.488 -0.0760  0.8364 -0.5455
  687MOL0     C92665  11.291   8.424   2.594  0.6957  0.5100  0.8509
  687MOL0     C92666  11.414   8.477   2.570 -0.0929 -0.6645 -0.1485
  687MOL0     C92667  11.468   8.471   2.441  0.2264  0.3944 -0.4509
  687MOL0     O92668  11.579   8.518   2.388 -0.0209 -1.3092 -0.0783
  687MOL0     C92669  11.680   8.566   2.486  0.1985  0.2728  0.9630
  687MOL0     C92670  11.643   8.712   2.524 -0.2636  0.5952  0.4160
  687MOL0     C92671  11.746   8.769   2.623  0.5074  0.1875 -0.2345
  687MOL0     C92672  11.854   8.849   2.557  0.0403 -0.2315  1.7498
  687MOL0     C92673  11.947   8.887   2.665 -0.7678  0.3247 -0.5080
  687MOL0     C92674  12.013   8.909   2.771 -0.1182 -0.3395 -0.0773
  687MOL0     C92675  11.381   8.427   2.336  0.3841 -0.9747  1.3891
  687MOL0     C92676  11.254   8.398   2.354 -0.5715  0.0409 -0.2230
  687MOL0     C92677  11.176   8.367   2.231 -0.3140 -0.0240 -0.0474
  687MOL0     H92678  10.846   8.133   2.299  1.6211 -0.0291  1.6984
  687MOL0     H92679  10.633   8.052   2.349  0.3423  0.8484 -1.3987
  687MOL0     H92680  10.470   8.088   2.736  2.6504  1.5457  0.1707
  687MOL0     H92681  10.405   8.253   2.704  0.7837  0.4648 -0.6408
  687MOL0     H92682  10.237   8.067   2.735 -0.2606 -4.7697 -1.3140
  687MOL0     H92683  10.275   8.016   2.574  0.1118  0.4442 -1.0223
  687MOL0     H92684  10.210   8.233   2.472 -0.3026  0.1704  0.2338
  687MOL0     H92685  10.197   8.306   2.638 -2.8553  1.5583 -1.1157
  687MOL0     H92686  10.031   8.134   2.686  3.4252  1.7235  0.5753
  687MOL0     H92687   9.973   8.259   2.581 -1.7008 -1.7417 -0.4311
  687MOL0     H92688  10.090   8.002   2.472 -0.0451 -1.2069  1.9492
  687MOL0     H92689   9.923   8.008   2.522 -0.2652 -1.5264 -1.7256
  687MOL0     H92690   9.911   8.197   2.331  1.1489  0.2560  1.7329
  687MOL0     H92691  10.065   8.125   2.278  1.4447 -1.3755  0.0200
  687MOL0     H92692   9.857   7.922   2.342  0.6838 -1.5594  0.0767
  687MOL0     H92693   9.997   7.916   2.246 -0.2702  0.4181 -0.7823
  687MOL0     H92694   9.786   8.128   2.148 -1.6162 -0.2412 -2.7151
  687MOL0     H92695   9.892   8.033   2.050  0.6234 -3.0727 -0.4456
  687MOL0     H92696   9.805   7.735   2.033 -3.6956 -2.4874 -2.2905
  687MOL0     H92697   9.672   7.521   2.116  0.0139 -0.0924 -1.3040
  687MOL0     H92698   9.510   7.534   2.169  1.7369 -0.6591  2.6329
  687MOL0     H92699   9.613   7.643   1.896  0.3734 -0.5181 -0.6123
  687MOL0     H92700   9.570   7.477   1.920  0.1791  0.0850 -0.2243
  687MOL0     H92701   9.385   7.691   1.999  1.3286  0.1036 -0.3705
  687MOL0     H92702   9.338   7.516   1.957  0.6243 -0.1505 -1.1712
  687MOL0     H92703   9.334   7.541   1.729 -2.1698  0.5059 -0.6005
  687MOL0     H92704   9.441   7.683   1.738 -0.3745  1.3180  0.2152
  687MOL0     H92705   9.004   7.804   1.771 -4.5165 -0.1160 -1.3925
  687MOL0     H92706   8.879   7.882   1.565 -0.5325  0.6070  1.1493
  687MOL0     H92707   8.801   7.968   1.076  2.0235  1.6967 -0.0098
  687MOL0     H92708   8.689   7.922   0.872  1.7476  2.9127  1.6910
  687MOL0     H92709   8.549   7.752   0.748 -1.5041  2.3251  1.0315
  687MOL0     H92710   8.629   7.892   0.691  1.6389 -1.1172  1.6784
  687MOL0     H92711   8.582   7.827   0.452 -0.1882  2.3653  2.6461
  687MOL0     H92712   8.595   7.657   0.497 -0.7694 -0.9327  0.4411
  687MOL0     H92713   8.363   7.724   0.419  0.4100 -2.9867 -0.8338
  687MOL0     H92714   8.371   7.631   0.560  1.7046 -2.2404 -5.1240
  687MOL0     H92715   8.342   7.836   0.700 -0.4537  0.8837  1.0227
  687MOL0     H92716   8.226   7.815   0.567  1.7791 -1.8962 -4.1637
  687MOL0     H92717   8.373   7.987   0.424  3.3727  1.6161  0.0922
  687MOL0     H92718   8.468   8.005   0.562  0.1629 -0.6438 -0.8913
  687MOL0     H92719   8.178   8.076   0.535 -1.0657 -1.6327 -0.1693
  687MOL0     H92720   8.251   8.081   0.692 -2.9028 -0.7465 -1.2281
  687MOL0     H92721   8.338   8.243   0.451  0.8224 -1.4914 -1.0827
  687MOL0     H92722   8.424   8.244   0.608  0.1339 -1.3117  0.0115
  687MOL0     H92723   8.264   8.455   0.567 -1.6683  1.5996  3.6006
  687MOL0     H92724   8.136   8.335   0.581  0.0130  0.3472  0.4238
  687MOL0     H92725   8.957   7.598   0.790 -1.4337 -0.4937  0.5123
  687MOL0     H92726   9.072   7.647   0.995 -0.1242  0.8980 -0.2278
  687MOL0     H92727   9.178   7.696   1.316  1.2538  1.9934 -0.6513
  687MOL0     H92728   9.309   7.651   1.499  0.3537  1.3948 -3.2539
  687MOL0     H92729  10.601   8.349   2.668  2.1103 -1.7306  2.3816
  687MOL0     H92730  10.812   8.438   2.606 -1.9743  0.9831  1.2666
  687MOL0     H92731  11.253   8.411   2.695 -1.5700  2.9571  0.4133
  687MOL0     H92732  11.464   8.519   2.657 -0.8002  1.9441 -0.9142
  687MOL0     H92733  11.775   8.577   2.432  0.3317  0.6970  1.2739
  687MOL0     H92734  11.695   8.506   2.576  1.4358  0.3493  0.8262
  687MOL0     H92735  11.557   8.719   2.591 -0.3491  4.7983  0.1395
  687MOL0     H92736  11.632   8.777   2.436  1.0021 -1.2420 -1.1883
  687MOL0     H92737  11.781   8.685   2.684  0.6746  1.3961  1.4228
  687MOL0     H92738  11.695   8.838   2.691 -0.6206 -0.5451 -0.3194
  687MOL0     H92739  11.896   8.772   2.491 -1.5430  0.3100  0.0323
  687MOL0     H92740  11.831   8.938   2.499  1.5675  0.4451  2.1129
  687MOL0     H92741  12.080   8.926   2.853 -1.9774 -3.0735  2.2029
  687MOL0     H92742  11.415   8.418   2.233  0.6385  2.9197  0.9922
  687MOL0     H92743  11.230   8.367   2.136  1.3415 -2.6510  0.7565
  687MOL0     H92744  11.129   8.268   2.239 -0.3024  0.0200  0.6540
  687MOL0     H92745  11.100   8.445   2.222  0.6906  0.9089 -0.6873
  688MOL0     O92746  10.551   2.975   4.499  0.4774  0.2529  0.0934
  688MOL0     C92747  10.440   3.027   4.480  0.2922 -0.4854  0.4982
  688MOL0     O92748  10.333   3.004   4.560  0.3624 -0.7296 -0.1695
  688MOL0     C92749  10.358   2.929   4.678 -0.5618  0.8077  0.1115
  688MOL0     C92750  10.439   2.972   4.783  0.0158 -0.2200  0.1952
  688MOL0     C92751  10.455   2.894   4.896 -0.1181  0.5754  0.3258
  688MOL0     C92752  10.416   2.762   4.903  0.2226  0.3095  0.8903
  688MOL0     O92753  10.443   2.678   5.017  0.2354 -0.4579  0.2847
  688MOL0     C92754  10.573   2.715   5.072 -0.4721 -0.4231  0.2436
  688MOL0     C92755  10.638   2.588   5.134  0.0536  0.4737 -0.7684
  688MOL0     C92756  10.789   2.617   5.167  0.5840  1.4550  1.2933
  688MOL0     C92757  10.857   2.515   5.252 -0.2329 -0.0163 -1.0159
  688MOL0     C92758  10.869   2.380   5.182  0.2611 -0.0421  0.8028
  688MOL0     C92759  10.945   2.272   5.278 -0.7613  0.0495  0.1302
  688MOL0     C92760  10.949   2.134   5.211  0.6177  0.3577 -0.1369
  688MOL0     C92761  10.819   2.055   5.245 -0.1976 -0.9182  0.2011
  688MOL0     N92762  10.828   1.926   5.186  0.4989  0.6884 -0.0047
  688MOL0     C92763  10.849   1.805   5.243 -0.2529  0.0959 -0.1862
  688MOL0     C92764  10.877   1.729   5.132  0.2183 -0.3288 -0.1251
  688MOL0     C92765  10.913   1.579   5.150 -0.0165  0.1405 -0.6327
  688MOL0     C92766  10.950   1.515   5.013  0.3634 -0.2811 -0.6065
  688MOL0     C92767  10.979   1.359   5.040  0.8441 -0.9100 -0.5711
  688MOL0     C92768  11.004   1.292   4.906  0.4226 -0.1685 -0.1392
  688MOL0     O92769  11.035   1.150   4.923  0.0795 -0.4833  0.3348
  688MOL0     C92770  10.962   1.053   4.856  0.0454  0.6512 -0.7253
  688MOL0     C92771  11.028   0.932   4.820 -0.0126  0.1835 -0.2156
  688MOL0     C92772  10.960   0.833   4.761  0.4434  0.1907 -0.4549
  688MOL0     C92773  10.821   0.842   4.750 -0.5283 -0.0748 -0.0987
  688MOL0     C92774  10.752   0.719   4.703  0.5802  0.7785  0.2899
  688MOL0     O92775  10.655   0.747   4.609  0.1356  0.5871 -0.3186
  688MOL0     C92776  10.569   0.648   4.562 -1.0375 -0.0272  0.5570
  688MOL0     C92777  10.535   0.533   4.634  0.4889 -0.3958  0.0604
  688MOL0     C92778  10.434   0.449   4.585  0.6113  0.5172  0.1471
  688MOL0     C92779  10.367   0.479   4.456 -0.1954 -0.8090  0.4569
  688MOL0     O92780  10.290   0.387   4.395  0.2629 -0.0398  0.2609
  688MOL0     C92781  10.260   0.268   4.465 -0.0508 -0.3108 -0.4140
  688MOL0     C92782  10.159   0.187   4.393  0.6284 -0.7760  0.4781
  688MOL0     C92783  10.026   0.259   4.391 -0.6288 -0.6754 -0.0480
  688MOL0     C92784   9.904   0.162   4.395 -0.4731 -0.6843 -0.6457
  688MOL0     C92785   9.783   0.208   4.323 -0.4732 -0.6745  0.9211
  688MOL0     C92786   9.681   0.096   4.319  0.0690  0.3553 -0.6122
  688MOL0     C92787   9.547   0.120   4.245 -0.2192  0.0735  0.0953
  688MOL0     C92788   9.578   0.149   4.100 -0.3231 -0.0260 -0.9823
  688MOL0    Cl92789   9.427   0.161   4.008 -0.1199 -0.1764 -0.1467
  688MOL0     C92790  10.398   0.600   4.387  0.2297  0.3687 -0.0209
  688MOL0     C92791  10.494   0.688   4.442  0.2219  0.6762 -1.0931
  688MOL0     O92792  10.807   0.611   4.717  1.8185  0.2734 -0.2413
  688MOL0     C92793  10.747   0.955   4.787  0.3057 -0.4081  0.7854
  688MOL0     C92794  10.818   1.058   4.847  0.0437  1.0568 -0.2965
  688MOL0     N92795  10.889   1.799   5.017 -0.6553  0.1811  0.1669
  688MOL0     N92796  10.856   1.920   5.056  0.0764 -0.4172 -0.9540
  688MOL0     C92797  10.337   2.712   4.794  0.0191  0.0519  0.2516
  688MOL0     C92798  10.315   2.794   4.680 -0.5728 -1.4248 -0.2661
  688MOL0     C92799  10.428   3.111   4.364 -0.9026  0.7169  0.5476
  688MOL0     C92800  10.513   3.222   4.353  0.8864  0.5816  0.1987
  688MOL0     C92801  10.509   3.321   4.256  0.0835  0.1563 -1.1405
  688MOL0     C92802  10.425   3.300   4.147  0.0039  0.0618 -0.2009
  688MOL0     O92803  10.425   3.396   4.046 -0.1247 -0.3499 -0.1846
  688MOL0     C92804  10.334   3.513   4.070  0.4690 -0.5187  0.3720
  688MOL0     C92805  10.387   3.635   3.998 -0.5810 -0.0619 -0.2003
  688MOL0     C92806  10.447   3.607   3.861  0.4395 -0.2022  0.4308
  688MOL0     C92807  10.495   3.737   3.789 -0.4931 -0.5952 -0.8054
  688MOL0     C92808  10.390   3.821   3.733 -0.0362  0.3726 -0.2000
  688MOL0     C92809  10.308   3.894   3.678  0.3118 -1.1151  0.4682
  688MOL0     C92810  10.354   3.190   4.143  0.0901  0.6847  0.2045
  688MOL0     C92811  10.347   3.093   4.250  1.0323 -0.2622  0.4370
  688MOL0     C92812  10.251   2.979   4.241 -0.2874 -0.4676 -0.1409
  688MOL0     H92813  10.500   3.062   4.775 -0.4004  0.0803  0.3399
  688MOL0     H92814  10.527   2.935   4.966 -2.3479 -1.6636  4.3459
  688MOL0     H92815  10.641   2.757   4.997 -1.0998  1.9796  0.9385
  688MOL0     H92816  10.568   2.787   5.154  0.1782 -1.7601  1.4843
  688MOL0     H92817  10.633   2.498   5.071 -1.2952 -0.9919  1.2839
  688MOL0     H92818  10.591   2.567   5.231  1.1501 -0.5686 -0.4366
  688MOL0     H92819  10.795   2.716   5.212 -0.3282  1.6782  0.9554
  688MOL0     H92820  10.845   2.626   5.074  0.3999  5.8183  1.3926
  688MOL0     H92821  10.951   2.558   5.288 -1.2757  0.0390  1.8678
  688MOL0     H92822  10.798   2.508   5.344 -1.3283  3.7486 -1.2669
  688MOL0     H92823  10.772   2.343   5.148  0.7545 -0.6465  0.0219
  688MOL0     H92824  10.925   2.404   5.091 -0.7708 -1.0953 -0.1420
  688MOL0     H92825  11.049   2.303   5.286  0.2663 -2.9206 -0.2911
  688MOL0     H92826  10.907   2.265   5.380  0.7970  1.8600  0.8750
  688MOL0     H92827  11.035   2.080   5.252 -0.5335 -1.1460  0.4188
  688MOL0     H92828  10.955   2.146   5.102 -0.8387 -0.4152 -0.3375
  688MOL0     H92829  10.806   2.032   5.351  0.2741 -1.0116  0.2397
  688MOL0     H92830  10.731   2.104   5.202  1.8307  0.9975 -2.0879
  688MOL0     H92831  10.842   1.771   5.346  0.0327  0.4971 -0.0337
  688MOL0     H92832  10.993   1.571   5.224  0.0719  1.5726 -0.5480
  688MOL0     H92833  10.829   1.530   5.201  0.7218  0.0654  0.5451
  688MOL0     H92834  10.874   1.528   4.935 -1.9487  1.1689  1.7231
  688MOL0     H92835  11.035   1.568   4.971 -0.4729  1.5924 -0.0679
  688MOL0     H92836  10.896   1.305   5.087  2.2110 -1.5245  1.2894
  688MOL0     H92837  11.069   1.343   5.101 -0.5137  2.1371  2.5574
  688MOL0     H92838  11.093   1.337   4.861 -0.7778  3.0146  0.3784
  688MOL0     H92839  10.922   1.307   4.835  1.5560  0.5171 -1.3453
  688MOL0     H92840  11.129   0.909   4.855 -0.6800 -1.0144  1.0192
  688MOL0     H92841  11.008   0.738   4.741 -2.8617 -2.0445  1.1875
  688MOL0     H92842  10.571   0.502   4.732  0.5586 -0.5822 -0.0258
  688MOL0     H92843  10.402   0.365   4.645 -0.2686  1.9054  1.7259
  688MOL0     H92844  10.344   0.202   4.487  0.3111 -0.1724 -1.3317
  688MOL0     H92845  10.215   0.295   4.561  2.6537 -0.4081  0.9796
  688MOL0     H92846  10.199   0.162   4.294  0.3577 -3.7277  1.0237
  688MOL0     H92847  10.151   0.092   4.446  2.4651 -0.3928  1.5102
  688MOL0     H92848  10.005   0.336   4.466  0.7889 -1.2227  0.9509
  688MOL0     H92849  10.030   0.315   4.297  1.4560 -1.3491 -0.4049
  688MOL0     H92850   9.871   0.168   4.499  2.5674  2.7327  0.3175
  688MOL0     H92851   9.932   0.062   4.362 -3.8991 -1.3056 -2.0822
  688MOL0     H92852   9.806   0.253   4.226 -1.5557 -3.2095 -0.6109
  688MOL0     H92853   9.742   0.288   4.387  1.1187  0.2326  0.8586
  688MOL0     H92854   9.728   0.012   4.266  1.8759  1.3843 -0.7385
  688MOL0     H92855   9.657   0.080   4.424 -0.0804  3.8869  0.0019
  688MOL0     H92856   9.500   0.200   4.304 -0.6419 -0.3369  0.3203
  688MOL0     H92857   9.486   0.030   4.253  2.5731 -2.0015 -0.4341
  688MOL0     H92858   9.620   0.251   4.099 -1.2743  0.3768 -1.0691
  688MOL0     H92859   9.645   0.074   4.058 -2.3597 -1.8552 -1.1343
  688MOL0     H92860  10.340   0.626   4.299 -0.4867  2.0658  0.9178
  688MOL0     H92861  10.521   0.784   4.399  1.6637 -1.0357 -4.4323
  688MOL0     H92862  10.640   0.973   4.792  0.5579  0.8194  4.0174
  688MOL0     H92863  10.757   1.139   4.885  0.1681  1.8928 -1.8418
  688MOL0     H92864  10.297   2.611   4.797  3.1584 -1.3308 -0.8704
  688MOL0     H92865  10.255   2.742   4.607 -0.5746 -3.8479  1.3159
  688MOL0     H92866  10.583   3.235   4.435  1.3463 -1.9453  0.2846
  688MOL0     H92867  10.568   3.413   4.260 -1.1158  1.0367  3.9679
  688MOL0     H92868  10.331   3.535   4.177  4.5699  1.2053  0.3091
  688MOL0     H92869  10.231   3.498   4.034  0.0561 -0.7186  1.5960
  688MOL0     H92870  10.464   3.682   4.058  1.5090  0.6115 -3.1821
  688MOL0     H92871  10.311   3.714   4.004  1.3101  2.6450 -5.4963
  688MOL0     H92872  10.373   3.555   3.799  0.9922 -0.1297 -0.3025
  688MOL0     H92873  10.539   3.549   3.866  0.9219  0.3409 -1.3203
  688MOL0     H92874  10.559   3.795   3.856  2.4084  0.1701 -3.9627
  688MOL0     H92875  10.564   3.710   3.709  3.0504 -0.5031  1.9907
  688MOL0     H92876  10.242   3.959   3.625  2.8729  0.1642 -1.3823
  688MOL0     H92877  10.273   3.186   4.071  0.1882 -3.2342  0.1184
  688MOL0     H92878  10.182   2.995   4.157 -4.3196 -2.2787  2.5295
  688MOL0     H92879  10.310   2.888   4.224  1.4014  0.8957 -1.9506
  688MOL0     H92880  10.194   2.953   4.331 -0.0062 -4.5237 -0.9161
  689MOL0     O92881  10.426   6.725   0.704 -0.4690 -1.2381  0.5323
  689MOL0     C92882  10.455   6.799   0.795 -0.2918 -0.3979 -0.7748
  689MOL0     O92883  10.546   6.898   0.794 -0.2123 -0.1883 -0.5680
  689MOL0     C92884  10.620   6.945   0.684 -1.6500 -0.0213  0.7472
  689MOL0     C92885  10.734   7.027   0.699 -1.5536 -0.2733 -0.2054
  689MOL0     C92886  10.807   7.081   0.596  0.2082  0.5637  0.5893
  689MOL0     C92887  10.757   7.057   0.465  0.0484 -0.2115 -1.0044
  689MOL0     O92888  10.822   7.100   0.356  0.6265 -0.4983  0.6487
  689MOL0     C92889  10.885   7.232   0.358 -0.0628 -0.3985 -0.8305
  689MOL0     C92890  10.908   7.294   0.210 -0.2472 -0.8113 -0.9179
  689MOL0     C92891  10.983   7.425   0.226  0.2112 -0.5193 -0.5575
  689MOL0     C92892  10.920   7.535   0.149 -0.1851 -0.2256  0.5926
  689MOL0     C92893  10.782   7.587   0.213 -0.5593 -0.0467  0.2784
  689MOL0     C92894  10.754   7.731   0.154  0.2619 -0.3572  0.9324
  689MOL0     C92895  10.599   7.772   0.174 -0.2861 -0.9974  0.4716
  689MOL0     C92896  10.575   7.918   0.128 -0.3047  0.4057 -0.3402
  689MOL0     N92897  10.449   7.975   0.162  0.0820  0.7554  0.1995
  689MOL0     C92898  10.422   8.111   0.176  0.1428  0.2796  0.5469
  689MOL0     C92899  10.289   8.120   0.196  0.0045 -0.3538 -0.6255
  689MOL0     C92900  10.217   8.240   0.162 -0.7687  1.2710  0.3055
  689MOL0     C92901  10.203   8.327   0.292 -1.0980  0.4325 -0.5675
  689MOL0     C92902  10.053   8.358   0.341 -0.0886  0.4101  0.3749
  689MOL0     C92903  10.050   8.429   0.476  0.7658  0.2751  0.1672
  689MOL0     O92904  10.107   8.346   0.578  0.0437 -0.1264  0.1863
  689MOL0     C92905  10.101   8.403   0.703 -0.2840  0.2309 -0.1872
  689MOL0     C92906  10.220   8.425   0.785  0.2611  0.4280 -0.0579
  689MOL0     C92907  10.205   8.472   0.912  0.8434 -0.2335 -0.6652
  689MOL0     C92908  10.068   8.485   0.968 -0.5553  1.1868 -0.5600
  689MOL0     C92909  10.055   8.515   1.114  1.0675  1.0778  0.5499
  689MOL0     O92910   9.952   8.591   1.161  0.4771  0.3981 -0.4096
  689MOL0     C92911   9.936   8.619   1.299 -0.0791 -0.9241  0.1750
  689MOL0     C92912   9.806   8.636   1.356  0.0873 -0.2832 -0.1052
  689MOL0     C92913   9.788   8.664   1.496 -0.1417 -1.4969  0.5219
  689MOL0     C92914   9.898   8.695   1.575 -0.0020 -0.8161  0.3083
  689MOL0     O92915   9.873   8.737   1.702 -0.1718 -0.6281 -0.4370
  689MOL0     C92916   9.941   8.641   1.785  0.0859 -0.2635 -0.3146
  689MOL0     C92917   9.842   8.564   1.875  0.1942  0.2071  0.5017
  689MOL0     C92918   9.787   8.447   1.796 -0.1473  0.2484 -0.3304
  689MOL0     C92919   9.686   8.361   1.887 -0.1943  0.6678  0.4172
  689MOL0     C92920   9.604   8.264   1.801  0.4187 -0.0396 -0.2241
  689MOL0     C92921   9.525   8.184   1.905  0.1885  0.5213 -0.5469
  689MOL0     C92922   9.387   8.146   1.848 -0.0440  0.2026  0.2345
  689MOL0     C92923   9.303   8.053   1.935 -1.2719 -0.0027  0.3924
  689MOL0    Cl92924   9.236   8.166   2.051 -0.7059 -0.1902 -0.5134
  689MOL0     C92925  10.021   8.695   1.516  0.2058  0.0052  0.4871
  689MOL0     C92926  10.042   8.660   1.380 -1.1230  0.1465 -0.1211
  689MOL0     O92927  10.152   8.475   1.179  0.2467  0.4195 -0.2292
  689MOL0     C92928   9.955   8.459   0.884 -0.7490 -0.4027  0.2122
  689MOL0     C92929   9.978   8.423   0.750  0.1008 -0.5264 -0.9522
  689MOL0     N92930  10.239   7.994   0.197 -0.8666 -0.4065 -0.6277
  689MOL0     N92931  10.332   7.912   0.181  0.0272 -0.0907  0.3092
  689MOL0     C92932  10.637   6.996   0.445 -0.5806  0.0888  0.9491
  689MOL0     C92933  10.573   6.934   0.551 -0.0161  0.3144  0.0196
  689MOL0     C92934  10.376   6.773   0.921 -0.1830  0.1875  0.5415
  689MOL0     C92935  10.407   6.849   1.031  0.7700 -0.2301 -0.2077
  689MOL0     C92936  10.354   6.832   1.158 -0.3344 -0.8420 -0.6461
  689MOL0     C92937  10.252   6.745   1.177 -0.4749 -0.1435  0.6997
  689MOL0     O92938  10.210   6.713   1.303 -0.9432  0.1757 -0.2242
  689MOL0     C92939  10.111   6.617   1.336  0.4819 -0.9029 -0.2686
  689MOL0     C92940  10.145   6.552   1.460 -0.4881 -0.1415 -0.1920
  689MOL0     C92941  10.293   6.498   1.463 -0.6514  1.6102  0.9261
  689MOL0     C92942  10.320   6.460   1.606  1.2938 -0.5257 -0.6630
  689MOL0     C92943  10.467   6.468   1.620 -0.5949  0.0591  0.0620
  689MOL0     C92944  10.583   6.478   1.644 -0.7843 -0.6808  1.0197
  689MOL0     C92945  10.192   6.689   1.056  0.0603 -0.3580 -0.3531
  689MOL0     C92946  10.258   6.696   0.933  0.1663  0.3106  0.1285
  689MOL0     C92947  10.193   6.629   0.812  0.3949  0.3590  0.6026
  689MOL0     H92948  10.762   7.050   0.801  1.9804  0.0505 -1.1092
  689MOL0     H92949  10.886   7.150   0.621  0.9174 -0.0178  0.0001
  689MOL0     H92950  10.831   7.307   0.416  1.0961  0.3564 -0.6965
  689MOL0     H92951  10.983   7.226   0.405  0.1558 -1.0284 -1.3515
  689MOL0     H92952  10.814   7.317   0.160  0.1583  3.1212 -0.2628
  689MOL0     H92953  10.972   7.223   0.158  2.8648  0.6861  0.5710
  689MOL0     H92954  11.073   7.396   0.172 -0.8580 -1.5601 -1.8437
  689MOL0     H92955  11.022   7.451   0.325  4.0750 -1.5892 -1.6282
  689MOL0     H92956  10.992   7.617   0.155 -2.4310  1.8044  1.4472
  689MOL0     H92957  10.902   7.505   0.045 -0.4408  2.8567 -0.3411
  689MOL0     H92958  10.701   7.520   0.183 -1.5413  0.4845  1.6362
  689MOL0     H92959  10.792   7.589   0.322  0.7036  0.2253  0.1746
  689MOL0     H92960  10.815   7.808   0.203 -0.5062  2.7948 -2.6098
  689MOL0     H92961  10.785   7.728   0.049 -1.1548 -1.3393  0.5096
  689MOL0     H92962  10.558   7.758   0.274  1.9263 -1.0926  1.4142
  689MOL0     H92963  10.561   7.696   0.105  1.3035 -0.2701 -1.2808
  689MOL0     H92964  10.655   7.973   0.178 -0.1016  0.2573 -0.5046
  689MOL0     H92965  10.593   7.924   0.021  1.0162 -2.3417 -0.3435
  689MOL0     H92966  10.491   8.195   0.175 -0.2335  0.5907  0.2235
  689MOL0     H92967  10.277   8.285   0.082  0.7942 -2.9400 -1.1975
  689MOL0     H92968  10.126   8.201   0.115  0.1345 -0.3763 -0.1512
  689MOL0     H92969  10.258   8.287   0.378 -2.4295  0.4671  0.3338
  689MOL0     H92970  10.246   8.424   0.265  1.3429 -0.0876  1.0540
  689MOL0     H92971  10.009   8.259   0.349  2.3194 -0.6037  2.2799
  689MOL0     H92972  10.002   8.415   0.262  0.0817 -2.7842 -2.2334
  689MOL0     H92973   9.950   8.470   0.496  0.3173 -0.3286 -0.7305
  689MOL0     H92974  10.122   8.510   0.471  1.4503 -0.3383 -0.1656
  689MOL0     H92975  10.318   8.399   0.745 -0.9512 -0.4831 -2.6469
  689MOL0     H92976  10.297   8.483   0.968 -1.6405  0.1692  3.8130
  689MOL0     H92977   9.720   8.625   1.291 -0.2984 -1.4412  0.5691
  689MOL0     H92978   9.695   8.685   1.549  1.0636  3.7742  1.0884
  689MOL0     H92979  10.012   8.571   1.741  0.3233 -0.0310 -0.2993
  689MOL0     H92980   9.997   8.710   1.849 -2.1774  0.4613  1.0241
  689MOL0     H92981   9.896   8.539   1.967  2.7322  0.6875 -0.7849
  689MOL0     H92982   9.754   8.626   1.894 -0.3826 -1.0370  2.1902
  689MOL0     H92983   9.728   8.471   1.707  2.9309 -0.6211 -2.7531
  689MOL0     H92984   9.868   8.386   1.757 -0.5570  0.7397 -2.0277
  689MOL0     H92985   9.626   8.438   1.937  0.6664  0.8882  1.1452
  689MOL0     H92986   9.746   8.314   1.965 -0.3784 -1.0708 -0.4397
  689MOL0     H92987   9.653   8.194   1.733  0.5311 -1.8293  1.6037
  689MOL0     H92988   9.527   8.319   1.746  0.8491 -1.5726 -2.4809
  689MOL0     H92989   9.583   8.093   1.921  0.7770  1.0115  0.1940
  689MOL0     H92990   9.516   8.234   2.002 -0.2831  1.9437 -1.2944
  689MOL0     H92991   9.418   8.076   1.770  2.0687 -1.0258  2.0441
  689MOL0     H92992   9.330   8.227   1.802  3.1568  0.4533 -3.8561
  689MOL0     H92993   9.221   8.002   1.885  1.8834 -3.1865 -2.0406
  689MOL0     H92994   9.360   7.978   1.991  0.0799 -0.0778 -1.0155
  689MOL0     H92995  10.107   8.729   1.573  1.6425 -1.0201 -0.9740
  689MOL0     H92996  10.139   8.659   1.333 -1.4796 -4.5189 -1.2498
  689MOL0     H92997   9.856   8.487   0.915 -1.5778 -0.5490 -2.0756
  689MOL0     H92998   9.899   8.390   0.683  0.8982 -1.1968 -1.5779
  689MOL0     H92999  10.603   6.981   0.343 -0.8964 -3.8272  1.4470
  689MOL0     H93000  10.479   6.892   0.519  0.4063 -0.2199 -0.5631
  689MOL0     H93001  10.494   6.913   1.028  1.4433 -1.0415  1.0856
  689MOL0     H93002  10.403   6.868   1.248  2.0441 -1.9995 -1.4209
  689MOL0     H93003  10.092   6.539   1.262  1.7549 -0.7790 -0.7514
  689MOL0     H93004  10.012   6.661   1.351  0.3068 -1.1196 -0.7634
  689MOL0     H93005  10.080   6.468   1.488 -0.8750 -0.0173 -0.7073
  689MOL0     H93006  10.145   6.624   1.542  1.9001  0.5802 -0.7499
  689MOL0     H93007  10.366   6.574   1.433  1.6102 -1.5973 -2.4933
  689MOL0     H93008  10.309   6.414   1.396 -0.2502  2.2251  0.2386
  689MOL0     H93009  10.273   6.523   1.682  0.3710 -3.2778  1.1816
  689MOL0     H93010  10.299   6.353   1.611 -1.8117 -0.1114 -2.2576
  689MOL0     H93011  10.683   6.517   1.652 -1.3054  0.4772  2.3361
  689MOL0     H93012  10.105   6.626   1.072 -0.4134  0.7804  2.0366
  689MOL0     H93013  10.173   6.703   0.734  0.4703  0.9906  1.1701
  689MOL0     H93014  10.253   6.548   0.771 -1.5275 -1.0593  0.4636
  689MOL0     H93015  10.094   6.591   0.839 -0.2242 -2.3127 -4.3003
  690MOL0     O93016   7.183   3.822   8.219  0.3320 -0.4710  0.5937
  690MOL0     C93017   7.205   3.762   8.321  1.2000 -0.1872  0.2554
  690MOL0     O93018   7.227   3.807   8.444 -0.2832 -1.0867 -0.2869
  690MOL0     C93019   7.235   3.948   8.462 -0.7263  1.0608 -0.1479
  690MOL0     C93020   7.308   4.028   8.372  0.0400  0.4250  0.5291
  690MOL0     C93021   7.298   4.173   8.389 -0.1769  0.4027 -0.6209
  690MOL0     C93022   7.221   4.226   8.493 -0.5685  0.0092  0.2265
  690MOL0     O93023   7.191   4.359   8.514 -0.9044 -0.2063  1.3049
  690MOL0     C93024   7.288   4.463   8.517  0.1212 -0.1291 -0.4378
  690MOL0     C93025   7.247   4.568   8.632  0.7826 -0.1787 -0.4995
  690MOL0     C93026   7.296   4.516   8.763 -0.7519  0.6742  0.1004
  690MOL0     C93027   7.276   4.611   8.886  0.0594 -0.9082 -0.7044
  690MOL0     C93028   7.389   4.714   8.903  0.3503 -0.3181 -0.1259
  690MOL0     C93029   7.359   4.803   9.029 -0.0608  0.8367 -0.7722
  690MOL0     C93030   7.475   4.892   9.065  0.5064 -0.5470  0.3223
  690MOL0     C93031   7.463   4.950   9.214  0.2487  0.3799  0.6068
  690MOL0     N93032   7.556   5.054   9.238  0.0802 -0.6374 -0.5159
  690MOL0     C93033   7.695   5.032   9.231  0.6110  0.3190 -1.6057
  690MOL0     C93034   7.747   5.148   9.272  0.2614  0.3099 -0.7178
  690MOL0     C93035   7.887   5.183   9.247  0.5919  0.2549  0.1786
  690MOL0     C93036   7.938   5.295   9.340  0.4844  0.3859  0.3182
  690MOL0     C93037   8.086   5.307   9.312  0.0572 -0.1931 -0.7628
  690MOL0     C93038   8.138   5.379   9.440  0.5507 -0.8189 -0.6183
  690MOL0     O93039   8.135   5.284   9.551 -0.0911  0.1382 -0.1832
  690MOL0     C93040   8.165   5.329   9.674  0.9900 -0.5757 -0.7903
  690MOL0     C93041   8.201   5.459   9.716  0.1208  0.0854  0.0449
  690MOL0     C93042   8.216   5.489   9.858  0.7145 -0.5843 -0.2031
  690MOL0     C93043   8.169   5.406   9.958 -0.3672  0.9168  0.7491
  690MOL0     C93044   8.175   5.449  10.105  0.8806  0.3660 -1.1985
  690MOL0     O93045   8.168   5.582  10.133 -0.4821  0.9606  0.6594
  690MOL0     C93046   8.182   5.628  10.261 -0.2073  0.0026  0.1579
  690MOL0     C93047   8.070   5.643  10.346 -0.1594 -0.5552 -0.0388
  690MOL0     C93048   8.085   5.707  10.465 -0.7193  0.4789  0.0265
  690MOL0     C93049   8.209   5.745  10.518  0.0168 -0.9228  0.8430
  690MOL0     O93050   8.228   5.787  10.641 -0.5152  0.1717 -0.0884
  690MOL0     C93051   8.127   5.873  10.691 -0.0818 -0.3175 -0.1439
  690MOL0     C93052   8.157   5.960  10.822  0.9557  0.2065  0.2567
  690MOL0     C93053   8.029   6.026  10.872  0.7354 -0.0225 -0.3485
  690MOL0     C93054   8.060   6.106  10.991 -0.4846  0.9250  0.1530
  690MOL0     C93055   8.116   6.247  10.974 -0.5951  0.9684 -1.1080
  690MOL0     C93056   8.103   6.324  11.117  0.5649 -0.1583  0.4801
  690MOL0     C93057   8.149   6.471  11.127  0.0237 -0.8915 -0.4775
  690MOL0     C93058   8.297   6.492  11.124 -0.2273 -0.1598 -0.7954
  690MOL0    Cl93059   8.318   6.657  11.137  0.3423 -0.1463  0.0238
  690MOL0     C93060   8.318   5.722  10.436  0.7919 -0.2888  0.2470
  690MOL0     C93061   8.308   5.674  10.301 -0.0757  0.0294  1.1225
  690MOL0     O93062   8.176   5.354  10.186 -0.3458 -0.4577 -0.1730
  690MOL0     C93063   8.146   5.277   9.916  0.6036  0.3499 -0.4922
  690MOL0     C93064   8.139   5.245   9.780  0.5761  0.2337 -0.3383
  690MOL0     N93065   7.651   5.233   9.311  0.1174 -0.8770  0.8073
  690MOL0     N93066   7.537   5.171   9.300  0.2059 -0.4842  0.1561
  690MOL0     C93067   7.156   4.141   8.575 -0.1983 -0.8815  0.6679
  690MOL0     C93068   7.160   4.000   8.562  1.0899 -0.5143  0.4176
  690MOL0     C93069   7.217   3.610   8.304 -0.3073 -0.0762  0.1050
  690MOL0     C93070   7.290   3.535   8.400  0.4617  0.1319 -1.0287
  690MOL0     C93071   7.293   3.395   8.398  0.1772  0.4726  0.5973
  690MOL0     C93072   7.225   3.324   8.296 -0.7265 -0.1714  0.3547
  690MOL0     O93073   7.211   3.188   8.290  0.2580 -0.1643 -0.2171
  690MOL0     C93074   7.262   3.106   8.396 -1.0948  0.3156 -1.1189
  690MOL0     C93075   7.216   2.952   8.396 -1.2541  0.3609  1.4611
  690MOL0     C93076   7.272   2.869   8.272 -0.1520  0.0726 -1.4014
  690MOL0     C93077   7.264   2.720   8.281 -0.0339  0.2827  0.4862
  690MOL0     C93078   7.333   2.668   8.398 -0.6574  0.4003  1.3915
  690MOL0     C93079   7.400   2.635   8.494 -0.2120 -0.8002  0.5115
  690MOL0     C93080   7.160   3.397   8.193 -0.2675  0.4362 -0.8349
  690MOL0     C93081   7.154   3.537   8.197  0.5432  0.4944  0.8404
  690MOL0     C93082   7.068   3.606   8.097 -0.6344 -0.9776 -0.7302
  690MOL0     H93083   7.366   3.976   8.296 -0.6891 -1.9594  1.4797
  690MOL0     H93084   7.341   4.226   8.305  3.1706 -1.6206 -0.3603
  690MOL0     H93085   7.391   4.426   8.522 -0.0205 -0.6081 -1.0588
  690MOL0     H93086   7.274   4.506   8.418  0.1824 -1.0528 -0.8551
  690MOL0     H93087   7.138   4.574   8.635  0.6466 -2.2864  0.2858
  690MOL0     H93088   7.276   4.671   8.610 -0.1424  0.6050  1.6450
  690MOL0     H93089   7.400   4.486   8.750 -0.6819  1.1123 -0.3755
  690MOL0     H93090   7.240   4.424   8.783  0.0708  0.7183  3.2643
  690MOL0     H93091   7.178   4.657   8.877  0.2733 -0.3653 -0.3053
  690MOL0     H93092   7.266   4.559   8.982 -1.0146  1.7550  0.7241
  690MOL0     H93093   7.487   4.668   8.915  1.3950  1.1200 -2.5863
  690MOL0     H93094   7.406   4.768   8.810 -0.3124  0.8250  0.3964
  690MOL0     H93095   7.269   4.862   9.010 -1.0019  0.1876  1.4219
  690MOL0     H93096   7.335   4.738   9.113 -1.8468  4.0658  1.3969
  690MOL0     H93097   7.490   4.975   8.995 -1.8806 -0.3441 -0.0202
  690MOL0     H93098   7.571   4.840   9.069  0.3312 -0.9683 -0.7392
  690MOL0     H93099   7.362   4.988   9.234  0.7192  2.7512 -1.0783
  690MOL0     H93100   7.481   4.862   9.276  1.1836 -1.8495 -2.5883
  690MOL0     H93101   7.746   4.951   9.178  3.1730  0.9400 -0.2493
  690MOL0     H93102   7.947   5.094   9.265 -0.2375  0.3161  3.9408
  690MOL0     H93103   7.893   5.206   9.140 -3.4022 -0.4767 -0.3701
  690MOL0     H93104   7.888   5.390   9.315 -2.1599 -0.8326  0.6322
  690MOL0     H93105   7.918   5.267   9.443  1.0526  1.6839  0.8018
  690MOL0     H93106   8.102   5.371   9.225 -0.1736  1.6877  0.5135
  690MOL0     H93107   8.149   5.219   9.302 -0.4711 -1.0230  2.2946
  690MOL0     H93108   8.080   5.468   9.467 -0.4305 -1.4458 -0.6223
  690MOL0     H93109   8.237   5.425   9.435 -0.6206  1.9213 -0.8464
  690MOL0     H93110   8.213   5.537   9.642  0.1306 -1.2510 -1.3934
  690MOL0     H93111   8.254   5.586   9.887 -2.7203  0.6825  0.4353
  690MOL0     H93112   7.974   5.600  10.317 -1.5260  1.2573  1.5192
  690MOL0     H93113   8.003   5.713  10.535 -0.4546  0.8806  0.3085
  690MOL0     H93114   8.101   5.953  10.621 -0.0708  0.5475  0.8153
  690MOL0     H93115   8.032   5.822  10.709 -0.6021  1.1794  1.6492
  690MOL0     H93116   8.201   5.890  10.894  1.7983 -2.3199 -2.5396
  690MOL0     H93117   8.236   6.036  10.816 -0.3540  1.7831  1.8197
  690MOL0     H93118   7.988   6.084  10.789  0.6643 -1.7329 -1.5661
  690MOL0     H93119   7.946   5.965  10.909  0.8888  0.0276  0.0899
  690MOL0     H93120   8.110   6.040  11.063  0.1519 -0.6084 -1.6256
  690MOL0     H93121   7.963   6.125  11.038  0.3566  1.8058  1.6202
  690MOL0     H93122   8.071   6.310  10.897  0.1101  1.7499 -0.8974
  690MOL0     H93123   8.223   6.232  10.957 -0.6382  2.5986 -3.1993
  690MOL0     H93124   8.000   6.333  11.152  0.6406 -1.0463  0.9625
  690MOL0     H93125   8.159   6.267  11.192  0.7373 -0.3948  0.1746
  690MOL0     H93126   8.113   6.495  11.227  0.9885 -0.3026 -0.2614
  690MOL0     H93127   8.097   6.529  11.050 -0.3437 -2.2839 -1.3209
  690MOL0     H93128   8.346   6.445  11.209 -2.2632 -0.7886  0.0936
  690MOL0     H93129   8.327   6.458  11.024  0.0178  2.1434 -1.5605
  690MOL0     H93130   8.414   5.733  10.485  0.1991  0.1788  1.3309
  690MOL0     H93131   8.393   5.658  10.235 -2.0420 -4.4892 -0.7176
  690MOL0     H93132   8.122   5.199   9.988  3.7140  0.4753  0.8798
  690MOL0     H93133   8.092   5.148   9.772 -0.5030  0.3352  3.1071
  690MOL0     H93134   7.096   4.174   8.658 -2.9983 -3.4734 -0.1702
  690MOL0     H93135   7.106   3.933   8.629  1.7350 -1.3624  0.1032
  690MOL0     H93136   7.347   3.582   8.479  3.6741 -0.2779 -2.9553
  690MOL0     H93137   7.359   3.341   8.466  1.2597 -2.7349 -2.6571
  690MOL0     H93138   7.235   3.155   8.490 -0.3147 -0.3091 -0.5593
  690MOL0     H93139   7.370   3.092   8.397 -1.3330 -1.9419  0.5351
  690MOL0     H93140   7.108   2.932   8.393 -1.4606  1.5494 -1.0514
  690MOL0     H93141   7.256   2.906   8.487  0.0034 -0.4584  0.5265
  690MOL0     H93142   7.376   2.902   8.274 -0.9358  2.9363 -2.8534
  690MOL0     H93143   7.224   2.899   8.179 -3.1173  2.1583  0.6308
  690MOL0     H93144   7.158   2.693   8.285 -0.3198  0.5486 -2.4489
  690MOL0     H93145   7.301   2.682   8.185  1.7859  3.5053 -0.2425
  690MOL0     H93146   7.454   2.590   8.576 -0.1453 -0.4888  0.6385
  690MOL0     H93147   7.113   3.347   8.109 -1.2035  0.3356 -0.2673
  690MOL0     H93148   7.005   3.532   8.046  0.1862 -0.3883 -2.7338
  690MOL0     H93149   7.004   3.677   8.150  0.2159 -1.7717  1.4621
  690MOL0     H93150   7.132   3.663   8.028  0.6223  2.0457  2.6318
  691MOL0     O93151   6.322   4.989   3.352  0.1500  0.4141  0.1380
  691MOL0     C93152   6.429   5.033   3.382  0.3271  0.2895 -0.3188
  691MOL0     O93153   6.540   4.960   3.397  0.4222  0.2799 -0.2245
  691MOL0     C93154   6.555   4.827   3.355  0.2311 -0.5077  0.0227
  691MOL0     C93155   6.617   4.739   3.437  0.1590 -0.3052 -0.8252
  691MOL0     C93156   6.645   4.603   3.382  0.1741 -0.6836 -0.1526
  691MOL0     C93157   6.611   4.563   3.260  0.0154 -0.6804 -0.5709
  691MOL0     O93158   6.633   4.433   3.236  0.0572  0.1388  0.7084
  691MOL0     C93159   6.639   4.407   3.093  0.7270 -0.1612  0.9234
  691MOL0     C93160   6.700   4.264   3.075  0.5000  0.2427 -0.4362
  691MOL0     C93161   6.850   4.261   3.071 -1.0666  0.4833 -0.0394
  691MOL0     C93162   6.885   4.110   3.058 -0.9826  0.1683  0.5414
  691MOL0     C93163   7.035   4.076   3.035  0.1359 -0.3806 -0.0494
  691MOL0     C93164   7.060   3.926   3.027 -0.9588  0.6841  0.9393
  691MOL0     C93165   7.206   3.880   2.986 -0.0471  0.3238  0.8482
  691MOL0     C93166   7.272   3.942   2.864 -0.7053 -0.0480  0.1384
  691MOL0     N93167   7.368   3.849   2.812 -0.5604  0.3462  0.0998
  691MOL0     C93168   7.504   3.841   2.835  0.5134 -0.5927 -0.8132
  691MOL0     C93169   7.562   3.738   2.764 -0.0364 -0.1960  0.6101
  691MOL0     C93170   7.694   3.666   2.792 -0.9558 -0.1197 -0.4686
  691MOL0     C93171   7.814   3.768   2.798  0.8642 -0.5252 -0.4530
  691MOL0     C93172   7.950   3.698   2.825 -0.2449 -0.2246  0.1046
  691MOL0     C93173   7.952   3.636   2.966  0.4725  0.1587 -0.7244
  691MOL0     O93174   7.944   3.746   3.058 -0.6085  0.2555 -0.7506
  691MOL0     C93175   7.933   3.726   3.199  0.8252  0.5746  0.6378
  691MOL0     C93176   7.947   3.593   3.255 -0.6868 -0.1898  0.1839
  691MOL0     C93177   7.948   3.569   3.389 -0.6940 -0.4157 -0.2682
  691MOL0     C93178   7.940   3.680   3.477  0.4061  1.3554  0.6394
  691MOL0     C93179   7.923   3.656   3.628 -0.2224  1.1420  0.4725
  691MOL0     O93180   7.879   3.758   3.707  0.0544  0.3287 -0.2365
  691MOL0     C93181   7.859   3.743   3.846 -0.5330 -0.2733 -0.7585
  691MOL0     C93182   7.815   3.864   3.908  0.8635  0.3255 -0.2036
  691MOL0     C93183   7.755   3.872   4.040  0.2202  0.0189  0.7284
  691MOL0     C93184   7.771   3.762   4.119 -0.9985 -0.1764 -0.7016
  691MOL0     O93185   7.757   3.773   4.252  0.5989 -0.2618 -0.7461
  691MOL0     C93186   7.883   3.761   4.322 -0.5649  0.2803 -0.0428
  691MOL0     C93187   7.858   3.751   4.476 -0.9377  0.1523 -1.2701
  691MOL0     C93188   7.776   3.872   4.546 -0.1006  0.1004  0.1524
  691MOL0     C93189   7.793   3.865   4.697 -0.2174 -0.1606 -1.3096
  691MOL0     C93190   7.685   3.927   4.776  0.0862  0.2046  0.1758
  691MOL0     C93191   7.698   3.933   4.931 -0.2292  0.3775  0.7449
  691MOL0     C93192   7.722   3.796   4.999  0.2755 -0.4691 -0.0976
  691MOL0     C93193   7.735   3.814   5.144 -0.8046  0.4373 -0.7002
  691MOL0    Cl93194   7.904   3.857   5.173 -0.3876  0.0151  0.3441
  691MOL0     C93195   7.809   3.638   4.059  0.0660 -0.3474  0.4136
  691MOL0     C93196   7.846   3.627   3.926 -1.5772 -0.0046 -0.1101
  691MOL0     O93197   7.980   3.551   3.664  0.1866  0.3978 -0.3370
  691MOL0     C93198   7.911   3.806   3.422  1.0069 -0.8219 -0.2381
  691MOL0     C93199   7.916   3.825   3.284 -0.7474 -0.2011 -0.3669
  691MOL0     N93200   7.463   3.683   2.696 -0.6810  1.0565 -0.2647
  691MOL0     N93201   7.350   3.762   2.713 -0.2780  0.0185  0.2323
  691MOL0     C93202   6.545   4.654   3.178 -0.5045  0.4271  0.1143
  691MOL0     C93203   6.521   4.783   3.228 -0.2682 -0.8111 -0.3429
  691MOL0     C93204   6.440   5.168   3.430 -0.0972  1.0417 -0.7442
  691MOL0     C93205   6.517   5.188   3.547 -0.6213  0.0894  0.2859
  691MOL0     C93206   6.528   5.314   3.608  0.4319  0.7371  0.4992
  691MOL0     C93207   6.466   5.424   3.543 -0.0121  0.0158  0.0123
  691MOL0     O93208   6.488   5.546   3.597 -0.6447  0.2910  0.9464
  691MOL0     C93209   6.369   5.601   3.657 -0.0949 -0.0210  0.4309
  691MOL0     C93210   6.417   5.730   3.728  1.2961 -0.5398 -0.3005
  691MOL0     C93211   6.337   5.786   3.849  0.3725 -0.5717  0.5965
  691MOL0     C93212   6.188   5.759   3.828  0.3606  0.0624  1.0271
  691MOL0     C93213   6.112   5.827   3.927 -0.0956  0.2052 -1.0316
  691MOL0     C93214   6.057   5.898   4.006 -0.2151  0.1324 -0.1904
  691MOL0     C93215   6.387   5.409   3.435 -0.6924  0.3208  0.4398
  691MOL0     C93216   6.374   5.282   3.376  0.7199 -0.0419 -0.6306
  691MOL0     C93217   6.302   5.265   3.244  0.6050 -0.0616  1.1838
  691MOL0     H93218   6.639   4.780   3.535  0.3014 -0.4649 -0.7877
  691MOL0     H93219   6.692   4.527   3.444  0.6013  2.3646  3.6845
  691MOL0     H93220   6.539   4.404   3.050 -0.8109 -1.1146  4.2896
  691MOL0     H93221   6.714   4.476   3.053 -0.0195 -0.1137 -0.4669
  691MOL0     H93222   6.671   4.228   2.976 -1.1997 -2.0654  0.7865
  691MOL0     H93223   6.661   4.193   3.149 -0.1938  1.6756  0.6193
  691MOL0     H93224   6.889   4.303   3.164 -0.1670  1.0460 -0.6608
  691MOL0     H93225   6.886   4.322   2.988  0.8374  0.1408  0.4790
  691MOL0     H93226   6.856   4.058   3.150  3.9885 -1.4437  1.4847
  691MOL0     H93227   6.831   4.064   2.974  2.0669 -1.7348 -0.5584
  691MOL0     H93228   7.074   4.132   2.950 -0.8857 -0.1364 -0.3708
  691MOL0     H93229   7.090   4.109   3.124 -0.4337 -1.8403  0.8766
  691MOL0     H93230   7.029   3.873   3.117  1.4782 -0.4723  1.1776
  691MOL0     H93231   6.994   3.889   2.948  0.9560 -0.2272 -0.3277
  691MOL0     H93232   7.221   3.771   2.985  3.6304  0.6733 -1.5311
  691MOL0     H93233   7.265   3.910   3.073  0.0252  0.2218  0.8342
  691MOL0     H93234   7.198   3.957   2.785 -0.1543 -2.1555 -0.8615
  691MOL0     H93235   7.324   4.036   2.888 -0.2780 -0.0897 -0.5785
  691MOL0     H93236   7.559   3.894   2.912  0.3515  0.4327 -1.3845
  691MOL0     H93237   7.673   3.617   2.887 -0.3994  1.6111  0.5889
  691MOL0     H93238   7.715   3.598   2.709  0.1864 -1.4018  0.8229
  691MOL0     H93239   7.814   3.828   2.706 -1.1787 -0.3898 -0.4084
  691MOL0     H93240   7.803   3.849   2.870  1.5855 -0.9737  0.1705
  691MOL0     H93241   8.037   3.763   2.820  0.1115 -0.6947  0.1008
  691MOL0     H93242   7.982   3.627   2.747 -1.4877  1.7330 -2.3144
  691MOL0     H93243   8.052   3.599   2.991  0.3294  0.8459  1.0140
  691MOL0     H93244   7.874   3.560   2.976  0.9655 -0.0294  3.8614
  691MOL0     H93245   7.968   3.507   3.192 -0.6967 -0.4383  0.5224
  691MOL0     H93246   7.951   3.466   3.424  2.5748 -0.3742 -0.1208
  691MOL0     H93247   7.829   3.953   3.847  2.2501  0.6166  0.5058
  691MOL0     H93248   7.705   3.960   4.079 -1.4354  0.2170 -1.6074
  691MOL0     H93249   7.944   3.679   4.284 -0.2188  0.1055  0.8733
  691MOL0     H93250   7.935   3.854   4.300  0.1053 -0.7133 -3.0687
  691MOL0     H93251   7.814   3.653   4.498  3.0883 -0.8784  4.4012
  691MOL0     H93252   7.956   3.738   4.523 -0.8100 -0.1180 -1.6063
  691MOL0     H93253   7.804   3.968   4.503  0.1317  0.3265  0.7962
  691MOL0     H93254   7.670   3.863   4.521 -0.1069  2.2829 -0.8818
  691MOL0     H93255   7.898   3.891   4.713 -0.5085  1.1028 -1.3369
  691MOL0     H93256   7.796   3.763   4.736  3.4486 -0.0157 -0.7855
  691MOL0     H93257   7.593   3.872   4.756 -1.6745  3.9306 -3.6287
  691MOL0     H93258   7.667   4.032   4.750 -1.5799 -0.1749 -0.3680
  691MOL0     H93259   7.767   4.012   4.960 -2.2795  2.2557  0.7816
  691MOL0     H93260   7.595   3.961   4.957 -0.3581 -0.1850  0.8635
  691MOL0     H93261   7.810   3.754   4.949 -1.3943 -2.1040 -1.8367
  691MOL0     H93262   7.638   3.730   4.978  1.1840 -1.7573  0.1992
  691MOL0     H93263   7.664   3.887   5.184 -0.2870 -0.4550  2.0124
  691MOL0     H93264   7.715   3.714   5.183  4.1101  0.1828  1.9289
  691MOL0     H93265   7.832   3.560   4.131  5.6086  0.6837  0.1410
  691MOL0     H93266   7.876   3.526   3.897 -1.8331  0.9053 -4.1035
  691MOL0     H93267   7.885   3.889   3.487 -4.4672 -2.4819  0.1659
  691MOL0     H93268   7.896   3.928   3.257  0.1410 -1.0097 -4.8988
  691MOL0     H93269   6.517   4.624   3.078  0.7444 -3.0655  0.6980
  691MOL0     H93270   6.461   4.855   3.173 -3.7583 -3.4912 -0.3909
  691MOL0     H93271   6.581   5.109   3.586 -1.1842  0.9947  3.3047
  691MOL0     H93272   6.589   5.351   3.690  1.4938  0.9381 -0.3647
  691MOL0     H93273   6.321   5.521   3.716 -0.9027 -1.4429 -2.0058
  691MOL0     H93274   6.305   5.632   3.575  0.4875 -1.8784 -0.8000
  691MOL0     H93275   6.414   5.802   3.646 -0.6086  0.6118  0.7035
  691MOL0     H93276   6.520   5.717   3.763  1.9435  2.0474 -1.0192
  691MOL0     H93277   6.366   5.891   3.856  3.1835 -0.9782 -2.5728
  691MOL0     H93278   6.367   5.724   3.934 -1.1808 -0.6400  1.1324
  691MOL0     H93279   6.160   5.814   3.738  0.4480 -2.2252 -0.4587
  691MOL0     H93280   6.162   5.656   3.807  0.7122 -0.0261  1.0141
  691MOL0     H93281   5.992   5.960   4.064  1.4272  0.9348  0.8643
  691MOL0     H93282   6.342   5.496   3.387 -1.7362 -0.5750 -0.2685
  691MOL0     H93283   6.196   5.253   3.266 -0.0992  2.1738 -0.6374
  691MOL0     H93284   6.310   5.366   3.204  0.0781 -0.4684  0.0297
  691MOL0     H93285   6.342   5.187   3.179  0.6331  0.8329  0.0875
  692MOL0     O93286   5.039   9.769   7.944 -0.2877  0.0917  0.5149
  692MOL0     C93287   5.055   9.661   7.899 -0.2143 -0.0465  0.6589
  692MOL0     O93288   5.128   9.633   7.791 -0.1098 -0.6992  0.5461
  692MOL0     C93289   5.189   9.722   7.708  0.5289 -1.2373  0.4193
  692MOL0     C93290   5.244   9.845   7.737  0.2341  0.3047  0.6800
  692MOL0     C93291   5.326   9.916   7.647  0.4241  0.6515  0.2920
  692MOL0     C93292   5.352   9.865   7.524  0.3496  0.3466 -0.6124
  692MOL0     O93293   5.431   9.945   7.449 -0.6023  0.4378  0.3999
  692MOL0     C93294   5.427   9.921   7.309 -0.1045  0.5712  0.6786
  692MOL0     C93295   5.516  10.028   7.261 -1.1980 -0.3049 -0.2277
  692MOL0     C93296   5.665   9.990   7.264  0.1522 -0.2232 -0.4280
  692MOL0     C93297   5.736  10.003   7.120  0.5804 -0.2057  0.3356
  692MOL0     C93298   5.888  10.021   7.136  0.7361  0.2101 -0.3840
  692MOL0     C93299   5.970   9.914   7.216  0.5539 -0.8674 -0.5684
  692MOL0     C93300   6.109   9.965   7.267  0.7005 -0.3799  0.7063
  692MOL0     C93301   6.188   9.853   7.338 -0.3792  0.2742 -0.4114
  692MOL0     N93302   6.316   9.909   7.392 -0.2708 -0.3243 -0.4653
  692MOL0     C93303   6.413   9.979   7.316 -0.2748  0.4786  1.1927
  692MOL0     C93304   6.518   9.991   7.405 -0.2186  0.5991 -0.2936
  692MOL0     C93305   6.646  10.064   7.385 -0.2058 -0.2268 -0.6635
  692MOL0     C93306   6.637  10.219   7.415 -0.0484 -0.4263  0.1140
  692MOL0     C93307   6.542  10.301   7.329 -0.1381  0.0398 -0.0590
  692MOL0     C93308   6.592  10.345   7.183  0.7089  0.4701  0.5316
  692MOL0     O93309   6.550  10.247   7.081 -0.8155 -1.5070 -0.0526
  692MOL0     C93310   6.546  10.291   6.954  0.7518  0.2922 -1.1135
  692MOL0     C93311   6.423  10.325   6.892 -0.2139  0.1786  0.2171
  692MOL0     C93312   6.423  10.375   6.760  0.1053  0.7344  0.6046
  692MOL0     C93313   6.542  10.380   6.688  0.7252  0.8891 -1.5523
  692MOL0     C93314   6.540  10.432   6.555  0.4896  0.8926  0.0417
  692MOL0     O93315   6.671  10.453   6.503  0.6650  0.3420  0.8264
  692MOL0     C93316   6.693  10.498   6.367  0.7277  0.0661 -0.8356
  692MOL0     C93317   6.785  10.599   6.349  0.0721  0.7431  0.5352
  692MOL0     C93318   6.787  10.664   6.226 -0.5189  0.5717  0.0365
  692MOL0     C93319   6.695  10.632   6.128 -0.4492 -0.8405  0.0754
  692MOL0     O93320   6.709  10.704   6.015 -0.8253 -0.3655 -0.2399
  692MOL0     C93321   6.702  10.646   5.886  0.5522 -0.9197 -0.8732
  692MOL0     C93322   6.687  10.763   5.789 -1.0727 -0.2209  0.5598
  692MOL0     C93323   6.788  10.875   5.803  0.1897 -0.7537  0.2637
  692MOL0     C93324   6.750  10.993   5.710  1.0562  0.3430  0.0340
  692MOL0     C93325   6.864  11.095   5.707  0.6968 -0.6661 -0.2924
  692MOL0     C93326   7.001  11.050   5.655  0.3225 -0.3476 -0.9062
  692MOL0     C93327   7.000  11.019   5.512 -0.4693 -0.6134 -0.0177
  692MOL0     C93328   6.944  11.129   5.412 -0.8100 -0.2202  0.5410
  692MOL0    Cl93329   7.050  11.265   5.431  0.5565  0.1224  0.0954
  692MOL0     C93330   6.613  10.531   6.138  0.4680 -0.4564 -0.4462
  692MOL0     C93331   6.601  10.473   6.262 -0.1763  0.6815 -0.8814
  692MOL0     O93332   6.433  10.450   6.494  0.2356 -0.0910  0.2865
  692MOL0     C93333   6.663  10.340   6.749  1.2200 -1.5752 -0.0024
  692MOL0     C93334   6.662  10.301   6.887 -0.9761  1.2555 -0.2445
  692MOL0     N93335   6.487   9.914   7.518  0.1040 -0.1137 -0.1249
  692MOL0     N93336   6.377   9.856   7.500 -0.2655  0.8844 -0.1770
  692MOL0     C93337   5.295   9.739   7.495  0.1605 -0.2618  0.6539
  692MOL0     C93338   5.219   9.663   7.586  0.2103  0.2174 -0.5314
  692MOL0     C93339   4.961   9.556   7.950 -0.3164 -0.2576 -0.0574
  692MOL0     C93340   4.954   9.443   7.872  0.9067 -0.3935  0.3752
  692MOL0     C93341   4.866   9.335   7.901 -0.0721  0.1190  0.2987
  692MOL0     C93342   4.808   9.330   8.028 -0.4338  0.3974  0.7112
  692MOL0     O93343   4.748   9.222   8.075 -0.3329  0.2698 -0.7079
  692MOL0     C93344   4.708   9.117   7.989 -0.3264  0.0885 -0.3624
  692MOL0     C93345   4.608   9.031   8.071 -0.0141 -0.1544 -0.0418
  692MOL0     C93346   4.518   8.930   8.003 -0.1962 -0.2285  0.9468
  692MOL0     C93347   4.452   8.824   8.099  1.0700 -1.1939  0.4226
  692MOL0     C93348   4.366   8.906   8.197  0.0997  0.7280  0.4859
  692MOL0     C93349   4.285   8.962   8.266 -0.0975 -0.5434  0.0880
  692MOL0     C93350   4.834   9.436   8.120 -0.4244  0.0630  0.7888
  692MOL0     C93351   4.896   9.552   8.074 -0.5885  0.9847  0.2396
  692MOL0     C93352   4.892   9.671   8.171  0.4506  0.1024  0.0540
  692MOL0     H93353   5.233   9.902   7.829 -0.2146 -0.4719  1.1207
  692MOL0     H93354   5.361  10.014   7.678  0.8086  0.9948 -1.1659
  692MOL0     H93355   5.457   9.822   7.273  2.4321  0.9158  1.6199
  692MOL0     H93356   5.324   9.932   7.273  0.5186  0.1563 -1.3478
  692MOL0     H93357   5.508  10.113   7.329 -0.3530 -0.1953 -0.2456
  692MOL0     H93358   5.500  10.064   7.158 -0.1337  0.7659 -0.0514
  692MOL0     H93359   5.668   9.885   7.293 -0.5000 -0.1091  0.0700
  692MOL0     H93360   5.722  10.040   7.343  0.7016 -1.8507  0.2409
  692MOL0     H93361   5.709   9.914   7.063  0.2688 -1.9346  2.9695
  692MOL0     H93362   5.703  10.082   7.052  1.9186  0.0166 -0.0797
  692MOL0     H93363   5.935  10.033   7.039  0.8484  1.7241 -0.1656
  692MOL0     H93364   5.910  10.120   7.177  3.3631  0.0107 -1.1065
  692MOL0     H93365   5.909   9.871   7.296 -0.3298  0.8759 -0.2591
  692MOL0     H93366   6.003   9.842   7.141  0.8973 -1.1930 -0.1118
  692MOL0     H93367   6.078  10.053   7.325  1.3400  0.8440 -0.7507
  692MOL0     H93368   6.170  10.000   7.183  0.9266  0.1314  1.0735
  692MOL0     H93369   6.122   9.813   7.416 -1.5565  0.2066 -1.4168
  692MOL0     H93370   6.215   9.766   7.278 -1.5020  0.5999 -1.4310
  692MOL0     H93371   6.408  10.013   7.213  0.3182  1.7036  1.5524
  692MOL0     H93372   6.712  10.022   7.462  2.2764  2.3778 -1.1997
  692MOL0     H93373   6.695  10.041   7.290  4.2481 -3.5866  2.0361
  692MOL0     H93374   6.609  10.222   7.521  0.3057 -1.9007  0.2624
  692MOL0     H93375   6.736  10.262   7.394  1.1395 -1.3506  3.2540
  692MOL0     H93376   6.532  10.393   7.387  0.7303 -0.8173  1.5145
  692MOL0     H93377   6.445  10.253   7.313 -0.6888  0.8119  0.8750
  692MOL0     H93378   6.701  10.343   7.179  0.7160  1.6310 -2.4155
  692MOL0     H93379   6.557  10.445   7.154 -1.8174 -0.0081  1.6974
  692MOL0     H93380   6.331  10.331   6.950  0.2356 -1.9468  1.2722
  692MOL0     H93381   6.332  10.387   6.702  1.8533  1.4066 -2.1857
  692MOL0     H93382   6.845  10.632   6.432  2.6423  0.9820 -1.2900
  692MOL0     H93383   6.868  10.734   6.213  4.7212 -4.8070 -0.7307
  692MOL0     H93384   6.798  10.602   5.858  1.6215  1.2380 -0.7991
  692MOL0     H93385   6.619  10.575   5.878 -0.7120  0.0910  1.9152
  692MOL0     H93386   6.683  10.731   5.684  2.7813  2.1764 -0.5359
  692MOL0     H93387   6.588  10.798   5.819  0.1310  2.3934  1.7821
  692MOL0     H93388   6.782  10.920   5.902 -0.0807  0.4318 -0.2854
  692MOL0     H93389   6.886  10.829   5.784  0.4801 -0.9331  2.0212
  692MOL0     H93390   6.659  11.043   5.744 -0.3874 -1.3886 -1.0750
  692MOL0     H93391   6.729  10.964   5.606  4.9233  0.5123 -0.9325
  692MOL0     H93392   6.874  11.104   5.816 -1.0499 -0.9671 -0.0770
  692MOL0     H93393   6.819  11.187   5.669 -0.8728 -0.3118  2.1491
  692MOL0     H93394   7.082  11.121   5.674  1.3500 -1.7119 -0.0157
  692MOL0     H93395   7.034  10.967   5.718  1.9699  1.5312  0.8393
  692MOL0     H93396   6.952  10.923   5.491  0.2768 -0.2403 -4.5207
  692MOL0     H93397   7.097  10.988   5.471  0.4109 -1.3871  2.4322
  692MOL0     H93398   6.928  11.096   5.309 -0.3107 -4.7788  1.6932
  692MOL0     H93399   6.846  11.157   5.451 -0.2638  0.6826  1.2821
  692MOL0     H93400   6.557  10.495   6.053  1.7442 -0.5702 -1.2703
  692MOL0     H93401   6.520  10.403   6.281  1.9299 -1.7457 -0.1599
  692MOL0     H93402   6.751  10.345   6.685  0.5116 -0.5957 -0.9491
  692MOL0     H93403   6.759  10.287   6.934 -0.4021  2.2694 -1.0666
  692MOL0     H93404   5.307   9.700   7.394 -1.0403  0.8665  0.0340
  692MOL0     H93405   5.187   9.564   7.559  2.9050  0.0006 -3.5037
  692MOL0     H93406   4.998   9.436   7.773  1.1158 -0.2544  0.4554
  692MOL0     H93407   4.859   9.254   7.829  0.3045  1.9043 -1.8568
  692MOL0     H93408   4.796   9.062   7.954  1.3977  3.4216 -1.7370
  692MOL0     H93409   4.653   9.158   7.903 -2.3432  2.1287  1.7601
  692MOL0     H93410   4.531   9.100   8.107  1.0126  1.3518 -0.6047
  692MOL0     H93411   4.658   8.975   8.150  1.9992 -0.1320 -1.2024
  692MOL0     H93412   4.573   8.886   7.918 -1.7340 -0.4853  0.0399
  692MOL0     H93413   4.434   8.981   7.954  2.5164  1.9443 -1.8601
  692MOL0     H93414   4.388   8.754   8.043 -0.8155  2.0027 -1.7518
  692MOL0     H93415   4.530   8.766   8.149  1.5530 -1.6105 -0.7610
  692MOL0     H93416   4.224   9.024   8.328 -0.1857 -0.9140  0.3753
  692MOL0     H93417   4.789   9.449   8.218 -0.5056 -3.5243  1.3697
  692MOL0     H93418   4.992   9.712   8.189  0.1944  0.8841 -0.2611
  692MOL0     H93419   4.835   9.751   8.124  0.9144  1.4685  1.7272
  692MOL0     H93420   4.840   9.665   8.267  0.1699 -1.0104 -0.1489
  693MOL0     O93421   8.784   4.690   4.297 -0.1224  0.4353  0.4878
  693MOL0     C93422   8.683   4.622   4.290 -0.0529 -0.7434 -0.0049
  693MOL0     O93423   8.618   4.595   4.177 -0.2203  0.0592 -0.9265
  693MOL0     C93424   8.640   4.670   4.056  0.4146  0.1760 -0.4025
  693MOL0     C93425   8.602   4.801   4.044  0.3190  0.3656 -0.7631
  693MOL0     C93426   8.645   4.870   3.925  0.5696  0.3768  0.9914
  693MOL0     C93427   8.702   4.800   3.808  0.0897 -0.1141 -0.2024
  693MOL0     O93428   8.743   4.871   3.697  0.3729 -0.2108  0.2559
  693MOL0     C93429   8.814   4.807   3.590 -0.2901 -0.3461 -0.0202
  693MOL0     C93430   8.962   4.774   3.636 -0.0107  0.1986 -0.2534
  693MOL0     C93431   9.043   4.721   3.527 -0.2047  0.4940 -0.5808
  693MOL0     C93432   9.020   4.578   3.484 -0.2133  0.1216  0.6723
  693MOL0     C93433   9.102   4.529   3.365  0.6309 -0.4107 -1.2796
  693MOL0     C93434   9.198   4.416   3.410 -1.1242 -0.5340  0.4269
  693MOL0     C93435   9.320   4.490   3.482  0.7873 -0.6202  0.2753
  693MOL0     C93436   9.418   4.549   3.386  0.0749 -0.5039 -0.3957
  693MOL0     N93437   9.491   4.454   3.300  0.5021 -0.5790 -0.1631
  693MOL0     C93438   9.550   4.345   3.354  0.5044  0.2522 -0.2961
  693MOL0     C93439   9.619   4.291   3.250 -0.5248 -0.4299  0.6480
  693MOL0     C93440   9.720   4.172   3.234  0.6962  0.3002  0.3855
  693MOL0     C93441   9.712   4.073   3.340 -0.4071 -0.3389  0.9212
  693MOL0     C93442   9.835   3.983   3.347 -0.4602  0.0232 -0.5237
  693MOL0     C93443   9.851   3.890   3.221  0.9439  0.1616 -0.3997
  693MOL0     O93444   9.923   3.774   3.269 -0.1782 -0.0711  0.0384
  693MOL0     C93445  10.068   3.791   3.282  0.0039 -0.4989  0.3303
  693MOL0     C93446  10.140   3.731   3.387  1.0018 -0.7942 -0.8360
  693MOL0     C93447  10.278   3.743   3.401 -1.0471 -0.1377 -0.5156
  693MOL0     C93448  10.356   3.826   3.307  0.5114 -1.0402 -0.4706
  693MOL0     C93449  10.495   3.836   3.319 -0.4524 -0.2300  0.5239
  693MOL0     O93450  10.562   3.746   3.388  0.0040 -0.1719 -0.2567
  693MOL0     C93451  10.694   3.770   3.439  0.2011  0.6459  0.1212
  693MOL0     C93452  10.739   3.884   3.515  0.5836  0.6220  0.4010
  693MOL0     C93453  10.864   3.884   3.578 -0.1462 -0.2631  0.3807
  693MOL0     C93454  10.944   3.768   3.583  0.4417 -0.3648 -0.6278
  693MOL0     O93455  11.058   3.756   3.662 -0.0976  0.3511  0.0873
  693MOL0     C93456  11.073   3.847   3.771 -0.7950 -0.0801 -0.6960
  693MOL0     C93457  11.199   3.816   3.847  0.7371  0.7125 -0.2410
  693MOL0     C93458  11.327   3.839   3.769 -0.2240 -0.1931  1.2584
  693MOL0     C93459  11.446   3.899   3.849 -0.4030 -0.0372  0.3510
  693MOL0     C93460  11.581   3.892   3.779  1.0365 -0.5868  0.2033
  693MOL0     C93461  11.705   3.905   3.869 -1.1388 -1.3657  0.3293
  693MOL0     C93462  11.825   3.944   3.778 -0.1232 -0.3243 -0.2401
  693MOL0     C93463  11.955   3.918   3.848  0.7883 -0.4354 -0.3812
  693MOL0    Cl93464  12.096   3.939   3.755 -0.2057 -0.0626  0.1415
  693MOL0     C93465  10.904   3.661   3.512  0.0695 -0.1954  0.7415
  693MOL0     C93466  10.777   3.657   3.442 -1.5725 -0.5148  0.0374
  693MOL0     O93467  10.545   3.929   3.253  0.3371  0.0237  0.8816
  693MOL0     C93468  10.282   3.887   3.204  0.3298  0.1416 -0.0703
  693MOL0     C93469  10.146   3.870   3.193  0.7318 -1.4554 -0.7830
  693MOL0     N93470   9.594   4.365   3.136  0.5064  0.8293  0.1877
  693MOL0     N93471   9.515   4.461   3.166 -0.1030 -0.3070 -0.2957
  693MOL0     C93472   8.713   4.660   3.823 -0.3269  0.4610  0.0434
  693MOL0     C93473   8.684   4.597   3.950  0.7483  0.4700  0.1110
  693MOL0     C93474   8.629   4.551   4.412 -0.0858 -0.2142  0.7522
  693MOL0     C93475   8.720   4.532   4.512  0.9460  0.2791  0.1355
  693MOL0     C93476   8.685   4.456   4.622  0.5895  0.2241 -0.1619
  693MOL0     C93477   8.558   4.399   4.634  0.1399  0.5115  0.9598
  693MOL0     O93478   8.519   4.318   4.734  0.2719  0.5372 -0.0638
  693MOL0     C93479   8.590   4.200   4.779 -0.3251  1.3114 -0.5298
  693MOL0     C93480   8.575   4.175   4.934 -0.4600  0.4999  0.5166
  693MOL0     C93481   8.611   4.301   5.014 -0.2111 -0.5377  0.6376
  693MOL0     C93482   8.615   4.275   5.166 -0.3208 -0.6174 -0.0322
  693MOL0     C93483   8.744   4.223   5.220  0.2273  0.9553 -0.0857
  693MOL0     C93484   8.856   4.180   5.224  0.2024  0.3942  0.4512
  693MOL0     C93485   8.460   4.433   4.544 -0.2303  1.0427  0.6965
  693MOL0     C93486   8.495   4.513   4.425  0.7089  0.2068 -0.1111
  693MOL0     C93487   8.385   4.530   4.326 -0.8791 -0.4448 -0.2071
  693MOL0     H93488   8.557   4.851   4.130 -2.3045 -1.4519 -0.9475
  693MOL0     H93489   8.633   4.978   3.918  0.4662  0.6238  3.7758
  693MOL0     H93490   8.765   4.718   3.547 -2.7662  0.6449  0.5717
  693MOL0     H93491   8.815   4.873   3.503  0.6723  0.5311  0.6440
  693MOL0     H93492   8.974   4.710   3.724 -0.8611  2.6656  1.7985
  693MOL0     H93493   9.000   4.870   3.670  0.0696 -0.1481  0.6688
  693MOL0     H93494   9.140   4.740   3.575 -0.7142  2.8487 -0.3357
  693MOL0     H93495   9.047   4.788   3.440  1.2054 -0.3802 -1.2425
  693MOL0     H93496   9.039   4.511   3.567 -3.5908 -0.2568  1.2928
  693MOL0     H93497   8.913   4.561   3.469 -0.3795  0.2814  1.5966
  693MOL0     H93498   9.033   4.486   3.293 -0.6763  1.7995 -1.4305
  693MOL0     H93499   9.156   4.614   3.322 -2.5660  0.4493 -3.9688
  693MOL0     H93500   9.155   4.347   3.482  2.3749 -0.2373  3.1007
  693MOL0     H93501   9.224   4.349   3.328  0.6843 -0.8331  1.1843
  693MOL0     H93502   9.367   4.400   3.522  1.2698 -0.9750 -1.0424
  693MOL0     H93503   9.291   4.562   3.558  1.1820 -0.0498 -0.1024
  693MOL0     H93504   9.381   4.618   3.309 -1.5199  1.5077  2.0255
  693MOL0     H93505   9.481   4.610   3.452 -2.8159  1.5720  0.6685
  693MOL0     H93506   9.565   4.308   3.454  0.6802  0.1348 -0.3646
  693MOL0     H93507   9.699   4.116   3.142  0.3726  0.1627  0.5411
  693MOL0     H93508   9.822   4.211   3.228  1.0536 -0.4923  1.1151
  693MOL0     H93509   9.704   4.123   3.437 -0.6999  1.9986 -0.2457
  693MOL0     H93510   9.624   4.009   3.332 -0.8425  0.2716  0.7505
  693MOL0     H93511   9.817   3.932   3.443 -1.7176 -0.9630 -1.2450
  693MOL0     H93512   9.921   4.050   3.358  0.4059 -1.1732  0.3187
  693MOL0     H93513   9.895   3.956   3.146  1.1059 -0.2693 -0.6899
  693MOL0     H93514   9.756   3.846   3.190 -0.1147  1.1428  1.2938
  693MOL0     H93515  10.093   3.659   3.453  0.4236  0.0196 -0.3365
  693MOL0     H93516  10.320   3.670   3.469  0.3707 -1.1254 -2.3543
  693MOL0     H93517  10.671   3.968   3.525 -0.2285 -0.2915  3.9664
  693MOL0     H93518  10.886   3.967   3.644  0.6654 -1.1031  1.1903
  693MOL0     H93519  11.102   3.942   3.726 -0.1418  0.1622  0.2055
  693MOL0     H93520  10.985   3.846   3.837  1.3875 -2.3821  2.5478
  693MOL0     H93521  11.212   3.870   3.941  2.4518 -0.7013  0.3944
  693MOL0     H93522  11.181   3.710   3.868  0.0889  0.4415 -2.0003
  693MOL0     H93523  11.348   3.737   3.734 -0.6834  0.6631 -1.7587
  693MOL0     H93524  11.303   3.893   3.678 -2.8114 -1.9904  0.7628
  693MOL0     H93525  11.456   3.831   3.934  3.4317 -2.4524 -1.7417
  693MOL0     H93526  11.419   4.000   3.880  1.2695  0.4830  0.2159
  693MOL0     H93527  11.581   3.974   3.707 -1.3039  0.5841  1.4067
  693MOL0     H93528  11.586   3.794   3.730 -0.3246 -0.6018  0.0394
  693MOL0     H93529  11.692   3.991   3.935 -0.2980 -1.4963  0.6662
  693MOL0     H93530  11.722   3.810   3.919 -0.2614 -0.4846  1.7619
  693MOL0     H93531  11.818   4.045   3.735  1.3330  0.0015  0.2321
  693MOL0     H93532  11.821   3.887   3.685 -0.1177  0.1685 -0.5500
  693MOL0     H93533  11.972   4.002   3.917 -2.0155  1.1497 -1.4786
  693MOL0     H93534  11.952   3.816   3.888  2.5495 -1.3698 -2.4242
  693MOL0     H93535  10.963   3.572   3.493  0.0734 -0.3955  1.6375
  693MOL0     H93536  10.742   3.567   3.392  1.5055 -2.1382  0.5629
  693MOL0     H93537  10.328   3.968   3.148  0.1655 -1.4622 -2.7222
  693MOL0     H93538  10.095   3.925   3.115  2.8412  1.4760 -0.2601
  693MOL0     H93539   8.772   4.607   3.749 -0.5984 -1.3354  1.0643
  693MOL0     H93540   8.702   4.491   3.962  0.1748  0.3096 -0.3646
  693MOL0     H93541   8.819   4.576   4.504  0.9392  0.5480  1.3782
  693MOL0     H93542   8.764   4.439   4.695  0.3696  0.9619  0.2545
  693MOL0     H93543   8.691   4.224   4.745 -0.1502 -0.6645 -1.5315
  693MOL0     H93544   8.544   4.117   4.725 -2.8416  2.2110  0.0945
  693MOL0     H93545   8.657   4.109   4.964  0.0852  1.4402  1.1542
  693MOL0     H93546   8.476   4.138   4.964 -1.9834  1.9734 -2.2877
  693MOL0     H93547   8.537   4.380   4.999  2.3850  1.9468  0.1146
  693MOL0     H93548   8.704   4.334   4.966 -0.0553 -2.2216 -0.3194
  693MOL0     H93549   8.599   4.370   5.219 -0.1820 -1.7517  2.1432
  693MOL0     H93550   8.529   4.217   5.201 -0.1011 -0.9816 -0.1028
  693MOL0     H93551   8.957   4.146   5.230  0.1792  0.1614 -0.3260
  693MOL0     H93552   8.361   4.390   4.549 -0.4019  1.5313  2.2894
  693MOL0     H93553   8.383   4.630   4.283 -2.2094  0.6408  2.2096
  693MOL0     H93554   8.397   4.452   4.249  2.8474 -2.4022  2.0587
  693MOL0     H93555   8.284   4.524   4.366 -0.4732  4.9978  2.4503
  694MOL0     O93556   3.427   0.762   4.653 -0.1694 -0.0136 -0.3987
  694MOL0     C93557   3.316   0.742   4.687  1.3453  0.5893  0.4880
  694MOL0     O93558   3.228   0.837   4.721  0.9909 -0.1602  0.1180
  694MOL0     C93559   3.272   0.966   4.731  0.1368 -0.3077 -0.3923
  694MOL0     C93560   3.401   1.007   4.780 -0.6356 -0.1713  0.3586
  694MOL0     C93561   3.434   1.136   4.783 -0.2762  0.2250  0.3500
  694MOL0     C93562   3.351   1.233   4.735 -0.1316  0.0830  0.4966
  694MOL0     O93563   3.400   1.362   4.735  0.3836  0.7337  0.0229
  694MOL0     C93564   3.311   1.455   4.669 -0.1458 -0.0325  0.1453
  694MOL0     C93565   3.397   1.564   4.605  0.3137  0.4674 -0.5482
  694MOL0     C93566   3.511   1.628   4.694  1.4033  0.4273  0.1228
  694MOL0     C93567   3.462   1.647   4.835 -0.0721  0.2730  0.8396
  694MOL0     C93568   3.563   1.724   4.916  0.3050  0.5288 -0.0883
  694MOL0     C93569   3.689   1.651   4.958  0.3684  0.5236  0.5944
  694MOL0     C93570   3.784   1.718   5.059 -0.0840 -0.9336 -0.4993
  694MOL0     C93571   3.870   1.843   5.013 -0.2135 -0.3230 -0.5313
  694MOL0     N93572   3.927   1.924   5.117  0.3466  0.3865 -0.1902
  694MOL0     C93573   3.857   1.955   5.233 -1.2463 -0.3337 -0.2353
  694MOL0     C93574   3.941   2.044   5.297 -0.0022  0.9955  0.4737
  694MOL0     C93575   3.930   2.126   5.426  0.2846 -0.2393 -0.7754
  694MOL0     C93576   4.040   2.081   5.527 -0.1122 -0.4552 -0.1992
  694MOL0     C93577   4.003   2.119   5.667  0.3908  0.6901 -0.1170
  694MOL0     C93578   3.895   2.024   5.724  1.3923  0.4048 -0.4282
  694MOL0     O93579   3.870   2.043   5.870 -0.1223 -0.4233  0.2940
  694MOL0     C93580   3.788   1.950   5.931  0.5797 -0.7851  0.8379
  694MOL0     C93581   3.794   1.946   6.071  0.0325  0.6518  0.8145
  694MOL0     C93582   3.737   1.842   6.136 -0.3431 -0.2548 -0.8375
  694MOL0     C93583   3.659   1.748   6.073  1.0511  0.2601  0.6125
  694MOL0     C93584   3.608   1.634   6.148  0.2237 -0.2305 -0.0519
  694MOL0     O93585   3.662   1.608   6.273  0.8552 -0.0562 -0.3737
  694MOL0     C93586   3.648   1.483   6.322  0.2584  0.4919 -0.0172
  694MOL0     C93587   3.713   1.367   6.268 -0.1835 -1.6294  0.4760
  694MOL0     C93588   3.688   1.243   6.324  0.2996 -0.0384  0.8439
  694MOL0     C93589   3.621   1.234   6.450 -0.4128  0.1146 -0.3004
  694MOL0     O93590   3.614   1.121   6.523  1.6346 -0.1834 -0.2734
  694MOL0     C93591   3.534   1.024   6.461 -0.1957  0.4000  0.3360
  694MOL0     C93592   3.630   0.910   6.464 -0.4997 -0.7714  0.3701
  694MOL0     C93593   3.561   0.780   6.411 -0.9343 -0.7732 -1.0788
  694MOL0     C93594   3.655   0.669   6.415 -0.2433  0.0322  0.2091
  694MOL0     C93595   3.595   0.547   6.340  0.1632 -0.8329 -0.2069
  694MOL0     C93596   3.666   0.422   6.366 -0.2652  0.7510 -0.1867
  694MOL0     C93597   3.802   0.419   6.297 -1.4339  0.2142 -0.6887
  694MOL0     C93598   3.907   0.342   6.380  0.3543 -0.3159 -0.2552
  694MOL0    Cl93599   3.866   0.174   6.403 -0.3703  0.1726 -0.2501
  694MOL0     C93600   3.566   1.339   6.514  0.2380 -0.5350  1.1455
  694MOL0     C93601   3.589   1.460   6.450  0.1035 -0.4366  0.6243
  694MOL0     O93602   3.534   1.560   6.085  1.0659 -0.3038 -0.2209
  694MOL0     C93603   3.648   1.754   5.941 -0.3190  0.3270  0.7934
  694MOL0     C93604   3.709   1.849   5.870  1.0305  0.3437 -0.3553
  694MOL0     N93605   4.065   2.045   5.228 -0.6750 -0.1764  0.2833
  694MOL0     N93606   4.053   1.967   5.125 -0.5876 -0.1838 -0.8550
  694MOL0     C93607   3.217   1.195   4.698  0.0152 -0.7247 -0.9168
  694MOL0     C93608   3.183   1.064   4.699 -0.7006  0.0064 -0.0538
  694MOL0     C93609   3.278   0.608   4.684 -0.3162 -0.1302 -0.3883
  694MOL0     C93610   3.143   0.583   4.737 -0.1685  0.3462  0.4325
  694MOL0     C93611   3.082   0.456   4.724 -0.9659 -0.8822 -0.1548
  694MOL0     C93612   3.146   0.347   4.671  0.2615  0.3034  0.8980
  694MOL0     O93613   3.087   0.224   4.660 -0.4803  0.3693 -0.2122
  694MOL0     C93614   2.950   0.219   4.711 -0.4688  0.3045 -0.7024
  694MOL0     C93615   2.910   0.078   4.723  0.3822  0.4743  0.2720
  694MOL0     C93616   2.876   0.021   4.588 -0.2523  0.5855 -0.3327
  694MOL0     C93617   2.846  -0.133   4.589 -0.1611  0.1822  0.2290
  694MOL0     C93618   2.967  -0.214   4.598  0.3342  0.2004  0.3808
  694MOL0     C93619   3.050  -0.290   4.606 -0.2480 -0.3499  0.1035
  694MOL0     C93620   3.284   0.367   4.623 -0.0377  0.2727  0.1057
  694MOL0     C93621   3.346   0.497   4.626 -0.4426  0.2277 -0.7289
  694MOL0     C93622   3.492   0.498   4.589 -0.7048  0.3244 -0.1340
  694MOL0     H93623   3.463   0.929   4.822  1.1947 -0.8433 -3.2402
  694MOL0     H93624   3.527   1.161   4.832  1.9277 -3.1604 -1.7278
  694MOL0     H93625   3.252   1.420   4.584 -1.4570  3.2109 -0.3989
  694MOL0     H93626   3.243   1.502   4.740  3.5693  1.5234  3.0475
  694MOL0     H93627   3.330   1.641   4.565  1.6952  1.3109 -1.3100
  694MOL0     H93628   3.437   1.525   4.511 -0.0992 -3.7809  0.8360
  694MOL0     H93629   3.545   1.721   4.647  2.0306 -0.5391 -1.4010
  694MOL0     H93630   3.594   1.557   4.695 -0.1967 -1.5387 -0.6607
  694MOL0     H93631   3.369   1.702   4.819 -0.5172 -1.0698 -1.8120
  694MOL0     H93632   3.438   1.558   4.894  0.2086 -0.1170  0.3689
  694MOL0     H93633   3.589   1.820   4.871 -0.4032  1.7777  2.0418
  694MOL0     H93634   3.511   1.753   5.007  1.0107  0.9836  0.1759
  694MOL0     H93635   3.653   1.552   4.990 -0.9072  0.8478  0.2538
  694MOL0     H93636   3.744   1.631   4.866 -0.3496  0.1548  0.2345
  694MOL0     H93637   3.850   1.639   5.097  0.9062  1.6974  4.0013
  694MOL0     H93638   3.731   1.753   5.148  0.1060 -4.1831  1.0309
  694MOL0     H93639   3.955   1.796   4.964  0.9679  2.2285 -1.1054
  694MOL0     H93640   3.825   1.907   4.937  0.4440  0.6902 -0.0952
  694MOL0     H93641   3.762   1.936   5.281  0.1156 -0.6413  2.5993
  694MOL0     H93642   3.947   2.233   5.409  2.9158 -0.0064  2.2811
  694MOL0     H93643   3.826   2.116   5.459  0.1588  2.8500  0.1169
  694MOL0     H93644   4.053   1.973   5.519  3.3139 -0.3251  1.7218
  694MOL0     H93645   4.134   2.132   5.503  0.5621 -1.0429  1.1078
  694MOL0     H93646   3.968   2.222   5.681  0.2596  0.4495  1.5440
  694MOL0     H93647   4.088   2.103   5.735 -0.3325  0.6681  0.8065
  694MOL0     H93648   3.906   1.916   5.707 -0.1414  0.5024 -2.4768
  694MOL0     H93649   3.799   2.056   5.681 -0.4700 -0.1957  2.9375
  694MOL0     H93650   3.849   2.025   6.122  0.0902  2.4408 -1.8019
  694MOL0     H93651   3.747   1.848   6.244 -2.4242  5.1149 -0.6646
  694MOL0     H93652   3.774   1.370   6.178 -1.7060 -4.1044 -0.7698
  694MOL0     H93653   3.716   1.154   6.269 -3.6830 -0.1295 -1.3828
  694MOL0     H93654   3.445   0.992   6.514  1.2828 -3.1229  1.0124
  694MOL0     H93655   3.495   1.039   6.360  0.2590 -0.2891  0.0518
  694MOL0     H93656   3.704   0.938   6.389  0.2583 -2.8523  0.2556
  694MOL0     H93657   3.671   0.888   6.564 -2.5549  0.5887  1.5885
  694MOL0     H93658   3.475   0.747   6.471  0.3990  1.1668  2.1585
  694MOL0     H93659   3.532   0.797   6.307  1.6785 -0.2274 -1.7707
  694MOL0     H93660   3.663   0.632   6.518  2.4887 -0.9946 -0.2807
  694MOL0     H93661   3.743   0.706   6.361 -0.6369 -0.9624 -1.1393
  694MOL0     H93662   3.593   0.562   6.232 -0.8614 -3.0239 -0.5427
  694MOL0     H93663   3.490   0.542   6.369  0.3294  0.5667  0.7597
  694MOL0     H93664   3.678   0.403   6.473 -2.5526  1.2768  0.2277
  694MOL0     H93665   3.606   0.340   6.326  0.0642  1.2643 -1.8391
  694MOL0     H93666   3.833   0.520   6.270  1.0126 -0.3816 -0.2707
  694MOL0     H93667   3.796   0.364   6.202  1.6906  1.1923 -1.5644
  694MOL0     H93668   4.001   0.341   6.324  0.5769 -1.6632  0.1189
  694MOL0     H93669   3.927   0.386   6.478  1.1434 -0.9740 -0.1133
  694MOL0     H93670   3.519   1.332   6.612 -2.0343  0.8482  0.2371
  694MOL0     H93671   3.556   1.545   6.509 -1.2806  0.6765 -1.6443
  694MOL0     H93672   3.607   1.672   5.883  2.1154 -1.4660  1.4223
  694MOL0     H93673   3.709   1.844   5.762 -1.5309  1.6685 -0.4712
  694MOL0     H93674   3.144   1.272   4.676  2.1204  1.3727 -0.9874
  694MOL0     H93675   3.082   1.039   4.669 -0.1398  1.4925 -3.7163
  694MOL0     H93676   3.082   0.659   4.784  0.0342  0.0359  1.2075
  694MOL0     H93677   2.987   0.469   4.775 -1.8671  1.5210 -2.1908
  694MOL0     H93678   2.888   0.286   4.651 -0.7158  2.3390  1.6180
  694MOL0     H93679   2.948   0.247   4.817  1.2396 -3.8283  0.6499
  694MOL0     H93680   2.836   0.078   4.803  1.0553 -1.0796  0.9357
  694MOL0     H93681   2.988   0.023   4.775  0.0646  1.2662  1.6394
  694MOL0     H93682   2.962   0.043   4.524  0.5594 -1.3903  0.0235
  694MOL0     H93683   2.787   0.078   4.559 -1.4702 -0.9534  0.2828
  694MOL0     H93684   2.767  -0.152   4.661  0.1845 -0.0014  0.5633
  694MOL0     H93685   2.795  -0.144   4.493 -0.5165  0.7215  0.3556
  694MOL0     H93686   3.124  -0.366   4.623  1.4673  1.4955  1.4029
  694MOL0     H93687   3.349   0.289   4.584  2.0164  0.5274  2.6933
  694MOL0     H93688   3.513   0.572   4.511 -1.8448 -0.1314 -0.9123
  694MOL0     H93689   3.549   0.519   4.679  1.7798 -1.7029 -1.1057
  694MOL0     H93690   3.511   0.395   4.557 -1.1723 -0.0378  0.7244
  695MOL0     O93691  10.253   9.113   9.405  1.1341 -0.0688  0.4435
  695MOL0     C93692  10.215   9.012   9.354  0.3527  0.8712  0.1150
  695MOL0     O93693  10.150   8.897   9.410 -0.7316 -0.0679 -0.0981
  695MOL0     C93694  10.092   8.894   9.527  0.6175 -0.5295 -0.1334
  695MOL0     C93695  10.077   8.769   9.595  0.4558  0.9034  0.3241
  695MOL0     C93696   9.996   8.760   9.718  0.0408 -0.2907  0.0488
  695MOL0     C93697   9.928   8.879   9.764 -0.1092  0.4994 -0.4719
  695MOL0     O93698   9.844   8.865   9.873 -0.3464  0.4399 -0.0465
  695MOL0     C93699   9.845   8.969   9.967 -0.0891  0.5671 -0.8433
  695MOL0     C93700   9.736   8.925  10.077  0.0302  1.2525  0.4442
  695MOL0     C93701   9.722   9.039  10.180 -0.6158  0.5896 -0.1969
  695MOL0     C93702   9.590   9.049  10.243  0.2683  0.1124  0.0755
  695MOL0     C93703   9.527   8.924  10.315 -0.2776  0.0374 -0.2402
  695MOL0     C93704   9.385   8.905  10.290  0.1509 -0.1433  0.7232
  695MOL0     C93705   9.276   9.007  10.342 -0.7479 -0.2569  1.2842
  695MOL0     C93706   9.308   9.067  10.480  0.1246 -0.6900 -0.1566
  695MOL0     N93707   9.299   8.980  10.602  0.4621 -0.6196  0.3729
  695MOL0     C93708   9.177   8.941  10.663  0.1298 -0.7506  1.1580
  695MOL0     C93709   9.220   8.824  10.705  0.6088 -0.1264 -0.2152
  695MOL0     C93710   9.125   8.732  10.769 -0.8316  0.7484 -0.0240
  695MOL0     C93711   9.074   8.623  10.688 -0.3220  0.8824  0.2903
  695MOL0     C93712   9.173   8.539  10.610  0.4090  0.7410 -0.6236
  695MOL0     C93713   9.269   8.459  10.701 -0.0789 -0.2669 -0.1708
  695MOL0     O93714   9.200   8.375  10.794  0.5276 -0.8024 -0.0994
  695MOL0     C93715   9.254   8.258  10.841 -0.5865  0.1404  0.0153
  695MOL0     C93716   9.382   8.216  10.823 -0.0575  0.1479  0.0380
  695MOL0     C93717   9.441   8.107  10.899  0.4634  0.2842 -0.5626
  695MOL0     C93718   9.357   8.023  10.973  0.6896  0.1556 -0.7478
  695MOL0     C93719   9.399   7.901  11.033 -0.5908  0.7320  0.0107
  695MOL0     O93720   9.526   7.859  10.993  0.3328  0.4924 -0.5516
  695MOL0     C93721   9.567   7.729  11.030 -0.0059 -0.1003 -0.3839
  695MOL0     C93722   9.573   7.672  11.166  0.2852 -0.6235  0.7683
  695MOL0     C93723   9.605   7.540  11.182  0.9816 -0.4852  0.0873
  695MOL0     C93724   9.635   7.460  11.067 -0.2460 -0.8371  0.0776
  695MOL0     O93725   9.677   7.335  11.080 -0.3332 -0.4991 -0.1079
  695MOL0     C93726   9.665   7.274  11.207  0.1465 -0.3136 -0.1829
  695MOL0     C93727   9.673   7.120  11.188 -0.6581  0.1748  0.2369
  695MOL0     C93728   9.666   7.041  11.319  0.5615 -0.7630  1.1449
  695MOL0     C93729   9.523   7.066  11.391  0.0070  0.9292  1.0063
  695MOL0     C93730   9.388   7.051  11.321  0.0561 -0.3951 -0.0646
  695MOL0     C93731   9.281   7.063  11.427  0.6637 -0.6970 -0.8772
  695MOL0     C93732   9.141   7.036  11.376  0.5034  1.4374 -0.5313
  695MOL0     C93733   9.032   7.130  11.453 -0.0096  0.7224 -0.1833
  695MOL0    Cl93734   8.862   7.088  11.414 -0.0805  0.0277 -0.2938
  695MOL0     C93735   9.634   7.515  10.937 -0.8073  0.4611 -1.0459
  695MOL0     C93736   9.605   7.652  10.919  0.0704 -0.5539 -1.0990
  695MOL0     O93737   9.325   7.843  11.117 -0.0081 -0.2166 -0.3818
  695MOL0     C93738   9.223   8.063  10.990  0.1941  0.1683 -0.8724
  695MOL0     C93739   9.180   8.182  10.927 -0.4212  0.2743 -0.2305
  695MOL0     N93740   9.348   8.787  10.679 -0.0993  0.8249 -0.4395
  695MOL0     N93741   9.403   8.902  10.634 -0.6767  0.7715 -1.1812
  695MOL0     C93742   9.945   8.994   9.696 -0.1449 -0.5253 -0.1719
  695MOL0     C93743  10.021   8.997   9.580 -0.3680 -0.1164 -0.1113
  695MOL0     C93744  10.239   9.012   9.205  0.1263 -0.1942 -1.2024
  695MOL0     C93745  10.134   8.976   9.117 -0.2787 -0.5126 -0.3421
  695MOL0     C93746  10.145   8.995   8.982  0.4225  0.2491  0.4982
  695MOL0     C93747  10.277   9.032   8.933  1.1351 -0.5454  0.1149
  695MOL0     O93748  10.260   9.046   8.797  0.6563  0.6379  0.3277
  695MOL0     C93749  10.377   9.081   8.732  0.1830 -0.4286  0.6037
  695MOL0     C93750  10.348   9.102   8.575 -0.5376 -1.0068 -0.2155
  695MOL0     C93751  10.308   8.968   8.512  0.1356 -0.3008  0.5681
  695MOL0     C93752  10.337   8.950   8.360  0.6144  0.5008 -1.1232
  695MOL0     C93753  10.476   8.894   8.364 -0.1365  0.7369  0.2618
  695MOL0     C93754  10.591   8.860   8.372 -0.2836 -0.9615 -0.7227
  695MOL0     C93755  10.386   9.050   9.009 -0.4853  0.2660 -0.4876
  695MOL0     C93756  10.375   9.045   9.146  0.2716  0.7298  0.0636
  695MOL0     C93757  10.500   9.073   9.229  1.3841  0.3860  0.7774
  695MOL0     H93758  10.142   8.692   9.556  1.0145  1.3446  0.3532
  695MOL0     H93759   9.989   8.667   9.774  1.0152 -0.8697 -0.7653
  695MOL0     H93760   9.942   9.001  10.006 -0.3370  1.0593 -0.6225
  695MOL0     H93761   9.804   9.062   9.926 -0.7301 -0.0588 -1.6747
  695MOL0     H93762   9.768   8.827  10.113 -1.2030  0.5145 -0.4225
  695MOL0     H93763   9.641   8.905  10.027  0.8392  1.1355 -1.1073
  695MOL0     H93764   9.745   9.136  10.135  1.0313  0.4218  0.1852
  695MOL0     H93765   9.805   9.018  10.249  3.1141  2.1058 -3.8082
  695MOL0     H93766   9.575   9.139  10.303  0.5204  1.0842 -1.2800
  695MOL0     H93767   9.526   9.065  10.156  0.4633  1.8750  0.2084
  695MOL0     H93768   9.583   8.833  10.292  1.5153  0.7245  1.1249
  695MOL0     H93769   9.541   8.943  10.422 -0.4573 -1.5353  0.0805
  695MOL0     H93770   9.366   8.898  10.182 -2.0768 -1.4773  1.1341
  695MOL0     H93771   9.341   8.814  10.330 -1.6248 -0.1421 -1.0713
  695MOL0     H93772   9.175   8.968  10.325 -0.2879 -1.1318  0.4773
  695MOL0     H93773   9.281   9.091  10.272  0.1173  0.3121  2.0096
  695MOL0     H93774   9.404   9.119  10.477 -0.1904  0.3482  3.2948
  695MOL0     H93775   9.231   9.143  10.498  1.4718  0.5159  0.7695
  695MOL0     H93776   9.085   8.998  10.672  0.1684  0.0526 -2.1989
  695MOL0     H93777   9.167   8.703  10.866  0.2242  2.8828  0.2041
  695MOL0     H93778   9.038   8.787  10.806 -1.4676 -1.5694  2.2101
  695MOL0     H93779   9.003   8.568  10.751 -1.0582  0.0905 -1.1812
  695MOL0     H93780   9.024   8.671  10.603 -1.9673  0.7821  1.1633
  695MOL0     H93781   9.222   8.585  10.523  0.4956 -2.6812 -2.5570
  695MOL0     H93782   9.118   8.463  10.555  1.3366  0.3469 -1.0307
  695MOL0     H93783   9.329   8.529  10.760 -0.2148  0.2519 -0.6433
  695MOL0     H93784   9.331   8.400  10.633 -1.7955 -1.4920 -0.7388
  695MOL0     H93785   9.441   8.276  10.754 -0.4339  0.4180 -0.0531
  695MOL0     H93786   9.545   8.079  10.885  0.7811  1.3745 -0.4605
  695MOL0     H93787   9.552   7.734  11.253  2.4378  1.3239  0.0153
  695MOL0     H93788   9.620   7.495  11.280  1.7979 -0.3647  0.0250
  695MOL0     H93789   9.751   7.303  11.268  0.0929 -0.0488 -0.2322
  695MOL0     H93790   9.570   7.303  11.252  0.7112  4.2027 -1.3925
  695MOL0     H93791   9.601   7.083  11.114  1.2840 -1.9666 -0.7115
  695MOL0     H93792   9.774   7.092  11.155 -1.1563 -1.4431  0.0179
  695MOL0     H93793   9.670   6.935  11.290 -1.4364 -0.3171 -1.0292
  695MOL0     H93794   9.750   7.065  11.385  1.0084 -2.2326  1.1429
  695MOL0     H93795   9.527   7.162  11.443  1.6546  1.3148  0.2468
  695MOL0     H93796   9.523   6.997  11.476  1.5864  1.0717  1.1506
  695MOL0     H93797   9.379   6.960  11.262 -1.9344 -1.1595  1.3179
  695MOL0     H93798   9.374   7.123  11.239 -1.0136 -3.5897 -2.9428
  695MOL0     H93799   9.295   6.991  11.507  1.3231  2.3638  1.9803
  695MOL0     H93800   9.282   7.161  11.476 -0.6556 -0.3546 -1.4788
  695MOL0     H93801   9.121   6.930  11.390  1.9239  0.9386 -2.0184
  695MOL0     H93802   9.125   7.068  11.272 -1.0435  0.9943 -0.4581
  695MOL0     H93803   9.044   7.113  11.560 -0.1550 -1.2806 -0.4505
  695MOL0     H93804   9.054   7.233  11.422 -0.0159  0.5687 -0.7240
  695MOL0     H93805   9.650   7.457  10.846 -4.3911 -1.7912 -0.4431
  695MOL0     H93806   9.603   7.686  10.816  1.1641 -3.6250 -2.2500
  695MOL0     H93807   9.163   8.012  11.064  2.2855  0.1332  0.8984
  695MOL0     H93808   9.080   8.214  10.953 -0.0561 -0.3964  2.2724
  695MOL0     H93809   9.886   9.082   9.720 -1.8045 -2.3824  3.3424
  695MOL0     H93810  10.031   9.101   9.550 -2.9787 -0.2449 -1.7093
  695MOL0     H93811  10.055   8.924   9.171 -0.3203  2.2519  2.5935
  695MOL0     H93812  10.063   8.961   8.920  1.7992  0.6087 -1.6043
  695MOL0     H93813  10.447   9.000   8.755  0.2136 -1.1306 -1.7341
  695MOL0     H93814  10.422   9.171   8.776 -0.1538  0.1397 -0.1996
  695MOL0     H93815  10.445   9.136   8.537 -0.8092  3.0161  2.1147
  695MOL0     H93816  10.263   9.168   8.555 -0.0554 -1.1843 -3.3018
  695MOL0     H93817  10.199   8.969   8.509  0.1104  1.9246  0.3284
  695MOL0     H93818  10.339   8.883   8.573 -1.3069  1.1402  3.4829
  695MOL0     H93819  10.261   8.882   8.320 -0.6429  1.2245 -0.0578
  695MOL0     H93820  10.328   9.049   8.315  0.2560  0.9905 -0.0176
  695MOL0     H93821  10.694   8.832   8.377  0.1806  0.3797 -2.2083
  695MOL0     H93822  10.481   9.080   8.966 -1.4312  2.6838 -1.0580
  695MOL0     H93823  10.529   9.176   9.209 -0.5287  1.1508  1.6687
  695MOL0     H93824  10.476   9.080   9.335  0.4691 -0.3976  0.6351
  695MOL0     H93825  10.573   8.991   9.220 -0.8304 -2.2226  4.1195
  696MOL0     O93826   0.928   8.729   4.927 -0.8711  0.4096  0.0123
  696MOL0     C93827   0.811   8.744   4.942  0.0840 -0.1122  0.1921
  696MOL0     O93828   0.746   8.732   5.057 -0.0090  0.3748  0.4970
  696MOL0     C93829   0.822   8.673   5.159  0.4880  0.8333 -0.2024
  696MOL0     C93830   0.827   8.535   5.161 -0.8740  0.6361 -0.8420
  696MOL0     C93831   0.906   8.462   5.253  0.8484 -0.4486 -0.1715
  696MOL0     C93832   0.980   8.527   5.356 -0.0021 -0.1539 -0.7827
  696MOL0     O93833   1.055   8.463   5.451  0.0726  0.4877 -0.5897
  696MOL0     C93834   1.105   8.328   5.422  0.0058 -1.0218  1.3799
  696MOL0     C93835   1.044   8.244   5.527 -0.2370 -0.7193  0.0853
  696MOL0     C93836   1.127   8.235   5.661 -0.3691  0.1659 -0.0546
  696MOL0     C93837   1.053   8.286   5.794 -1.1961  0.6599 -0.0510
  696MOL0     C93838   1.158   8.289   5.913  0.8728 -0.8645 -0.9753
  696MOL0     C93839   1.097   8.384   6.023  0.5549 -0.4445 -0.4373
  696MOL0     C93840   1.200   8.414   6.132 -0.2820  0.6133  0.2546
  696MOL0     C93841   1.282   8.541   6.118 -0.8287 -0.4759  0.6427
  696MOL0     N93842   1.392   8.529   6.220  0.5767 -0.4833  0.2238
  696MOL0     C93843   1.514   8.470   6.202  0.3324  0.3688 -0.9275
  696MOL0     C93844   1.589   8.498   6.311  0.7083 -0.6354 -0.0197
  696MOL0     C93845   1.734   8.487   6.357 -0.0602  0.4016 -0.5673
  696MOL0     C93846   1.850   8.512   6.255 -0.2913  0.2635 -0.0033
  696MOL0     C93847   1.859   8.662   6.225  0.3302 -0.1250 -0.2195
  696MOL0     C93848   1.974   8.686   6.126  0.2753  0.1547 -0.4417
  696MOL0     O93849   2.099   8.638   6.177 -0.1876  1.1950 -0.8648
  696MOL0     C93850   2.176   8.716   6.271  0.0990 -0.2283  0.8826
  696MOL0     C93851   2.297   8.669   6.323 -0.2360  0.4779  0.2674
  696MOL0     C93852   2.377   8.750   6.406  0.5895 -0.3702  1.3743
  696MOL0     C93853   2.332   8.876   6.450 -0.7596  0.5442  0.6748
  696MOL0     C93854   2.414   8.967   6.525 -0.2564 -1.5131  0.1389
  696MOL0     O93855   2.379   9.106   6.529  0.0097 -0.1407  0.3936
  696MOL0     C93856   2.460   9.181   6.606 -0.0060  0.2052 -0.3475
  696MOL0     C93857   2.592   9.190   6.578 -0.6096 -0.0263  0.8474
  696MOL0     C93858   2.681   9.249   6.673  0.6545 -0.1518 -0.0626
  696MOL0     C93859   2.632   9.292   6.798  0.5308  0.4431  1.0024
  696MOL0     O93860   2.712   9.351   6.900 -0.5114 -0.4890  0.0052
  696MOL0     C93861   2.854   9.363   6.876  0.4105 -0.2057  0.5671
  696MOL0     C93862   2.929   9.447   6.980 -0.4607  0.7789 -0.3663
  696MOL0     C93863   2.874   9.586   7.013  0.1347  0.7841  0.1716
  696MOL0     C93864   2.771   9.565   7.121  1.3974 -0.1227 -0.8004
  696MOL0     C93865   2.690   9.693   7.138  0.2329 -1.0370 -0.5067
  696MOL0     C93866   2.590   9.676   7.250  0.1501  0.6090 -0.1067
  696MOL0     C93867   2.490   9.786   7.275  0.8557 -0.3326  0.3093
  696MOL0     C93868   2.408   9.815   7.146 -0.2077 -0.1659 -0.0359
  696MOL0    Cl93869   2.292   9.924   7.180 -0.1046  0.0670 -0.1424
  696MOL0     C93870   2.494   9.271   6.822  0.1988  0.3702  0.3024
  696MOL0     C93871   2.413   9.218   6.729  1.1032 -0.4283  0.9028
  696MOL0     O93872   2.491   8.918   6.606  0.0272  0.2038 -0.5473
  696MOL0     C93873   2.206   8.914   6.404 -0.0345  1.2326  0.1123
  696MOL0     C93874   2.130   8.840   6.313 -0.1832 -0.2539 -0.0086
  696MOL0     N93875   1.507   8.572   6.400 -0.2717 -0.1984  0.6299
  696MOL0     N93876   1.394   8.588   6.347 -0.5880 -0.1933  1.2571
  696MOL0     C93877   0.961   8.674   5.363  0.3094  0.3240 -0.6454
  696MOL0     C93878   0.886   8.743   5.264  0.0597  0.7911  0.1238
  696MOL0     C93879   0.724   8.806   4.834  0.3252  0.1834 -0.4385
  696MOL0     C93880   0.790   8.867   4.723 -1.3003  0.4078  0.0900
  696MOL0     C93881   0.720   8.952   4.634  0.7476 -0.6632 -0.2465
  696MOL0     C93882   0.576   8.973   4.639 -0.6548  0.8833 -0.3846
  696MOL0     O93883   0.500   9.043   4.549  0.2368  0.0319  0.9846
  696MOL0     C93884   0.554   9.091   4.427  1.0032  0.5145 -0.8896
  696MOL0     C93885   0.434   9.113   4.328  0.5393  0.2588  0.1411
  696MOL0     C93886   0.332   9.211   4.384  0.4191 -0.1900  0.5959
  696MOL0     C93887   0.241   9.270   4.277 -0.5789 -0.0920  0.4277
  696MOL0     C93888   0.167   9.390   4.322  0.1778 -0.6115 -0.9057
  696MOL0     C93889   0.097   9.477   4.368  0.6690 -0.0839 -0.5315
  696MOL0     C93890   0.514   8.894   4.748 -0.3839  0.8700  0.5581
  696MOL0     C93891   0.586   8.820   4.848  0.0425  0.2364  0.4787
  696MOL0     C93892   0.489   8.759   4.953 -0.7492  0.0643 -1.6483
  696MOL0     H93893   0.767   8.476   5.093  0.3865 -0.1795 -1.2855
  696MOL0     H93894   0.895   8.355   5.239 -1.2217 -0.4472  0.9868
  696MOL0     H93895   1.076   8.285   5.326  2.2276  0.2715  0.0359
  696MOL0     H93896   1.210   8.301   5.437  0.1702  0.4443  3.2017
  696MOL0     H93897   1.036   8.139   5.497  3.3887 -1.0990  0.0824
  696MOL0     H93898   0.939   8.271   5.543  0.3386  0.7832  1.5866
  696MOL0     H93899   1.219   8.295   5.667  0.0377 -0.5732  2.1819
  696MOL0     H93900   1.152   8.129   5.671 -2.7131 -0.2620  2.6528
  696MOL0     H93901   1.026   8.391   5.783  2.0290  1.7653  1.1877
  696MOL0     H93902   0.964   8.223   5.803 -1.3094  0.2810 -2.8465
  696MOL0     H93903   1.170   8.185   5.945 -1.2702  0.0304  3.4979
  696MOL0     H93904   1.251   8.330   5.873  0.2779 -1.1723 -2.7623
  696MOL0     H93905   1.053   8.475   5.981 -2.2006  0.4266  3.7519
  696MOL0     H93906   1.011   8.328   6.062 -1.6273  1.3293 -2.4102
  696MOL0     H93907   1.282   8.343   6.141  0.1733  1.0765 -0.1791
  696MOL0     H93908   1.145   8.421   6.227 -0.9814  1.8453 -0.2189
  696MOL0     H93909   1.336   8.546   6.023 -0.5503  1.8155  0.8646
  696MOL0     H93910   1.221   8.631   6.127 -0.8904 -0.5724  1.1863
  696MOL0     H93911   1.565   8.437   6.112  1.3018  1.5228 -0.8318
  696MOL0     H93912   1.743   8.542   6.451 -1.8242 -1.3961  0.7388
  696MOL0     H93913   1.745   8.383   6.390 -3.1584  0.2490  0.3020
  696MOL0     H93914   1.950   8.484   6.291  0.7662  2.5486 -0.9406
  696MOL0     H93915   1.832   8.460   6.161 -0.6251  1.3599 -0.5689
  696MOL0     H93916   1.877   8.722   6.314  2.3477  4.2875 -3.2555
  696MOL0     H93917   1.765   8.699   6.183  2.2946  1.2631 -3.8230
  696MOL0     H93918   1.988   8.791   6.098  1.3865  0.1407 -0.0021
  696MOL0     H93919   1.958   8.622   6.039  2.8117 -2.0918  0.5947
  696MOL0     H93920   2.331   8.567   6.320 -1.8194 -0.1137  1.1729
  696MOL0     H93921   2.465   8.695   6.439 -1.0605 -2.9220  1.8015
  696MOL0     H93922   2.629   9.170   6.478 -0.1764  1.7244  0.6394
  696MOL0     H93923   2.786   9.258   6.649  0.5303  1.5060 -0.0905
  696MOL0     H93924   2.891   9.260   6.881  0.0260 -0.3202  1.2145
  696MOL0     H93925   2.877   9.416   6.783 -2.5287  1.1976  0.5127
  696MOL0     H93926   2.960   9.387   7.066  0.5246 -1.8011 -2.3641
  696MOL0     H93927   3.026   9.463   6.933  0.1324  0.0958  0.5901
  696MOL0     H93928   2.948   9.652   7.060 -2.1094 -0.1228  5.8634
  696MOL0     H93929   2.823   9.624   6.924 -2.5149  1.1671  1.7551
  696MOL0     H93930   2.815   9.542   7.219 -1.6952  1.6232  1.1945
  696MOL0     H93931   2.695   9.487   7.107  3.0943 -2.1918  0.8179
  696MOL0     H93932   2.627   9.706   7.050  0.0110  0.2261 -0.1904
  696MOL0     H93933   2.753   9.780   7.158  0.0129 -0.7586 -0.9834
  696MOL0     H93934   2.534   9.583   7.236  0.7318  0.2602 -0.1381
  696MOL0     H93935   2.634   9.672   7.350 -2.0184  2.0838  0.9687
  696MOL0     H93936   2.542   9.877   7.306  1.3267 -0.7368  0.7204
  696MOL0     H93937   2.415   9.762   7.351  1.0380  2.5139  1.5297
  696MOL0     H93938   2.481   9.859   7.078  2.5755 -1.1814  2.1142
  696MOL0     H93939   2.357   9.726   7.107 -1.1821 -1.3209  3.4909
  696MOL0     H93940   2.441   9.317   6.904  4.6937  2.3948  2.4210
  696MOL0     H93941   2.308   9.214   6.753 -0.1096  2.1279 -2.9436
  696MOL0     H93942   2.168   9.005   6.450  1.7698  1.3440  1.4808
  696MOL0     H93943   2.029   8.871   6.290 -1.0401 -1.7262  1.5787
  696MOL0     H93944   1.022   8.726   5.436 -0.8763  2.2728 -0.9613
  696MOL0     H93945   0.877   8.851   5.256 -0.2494  0.9604  2.1015
  696MOL0     H93946   0.888   8.830   4.696 -1.6827 -0.3101 -0.3528
  696MOL0     H93947   0.773   9.003   4.555  3.6265  0.4457  2.2037
  696MOL0     H93948   0.627   9.017   4.392 -0.4514 -0.9296 -0.9931
  696MOL0     H93949   0.602   9.186   4.454  2.7029 -1.2574  3.0876
  696MOL0     H93950   0.392   9.015   4.304  0.3731  1.2240 -4.5842
  696MOL0     H93951   0.474   9.152   4.234  1.8420 -1.3070  0.0088
  696MOL0     H93952   0.375   9.288   4.449 -1.2007 -0.9418  2.6943
  696MOL0     H93953   0.269   9.163   4.459  1.4384 -0.0825  1.5564
  696MOL0     H93954   0.296   9.290   4.184  0.5347 -0.0118  1.0966
  696MOL0     H93955   0.170   9.191   4.250  2.2956 -3.6215  2.3884
  696MOL0     H93956   0.049   9.540   4.440 -1.7261 -4.7917  2.4863
  696MOL0     H93957   0.407   8.907   4.755 -0.3852  3.3033 -2.1077
  696MOL0     H93958   0.503   8.809   5.050  2.0436 -2.1094 -0.8021
  696MOL0     H93959   0.385   8.775   4.924 -1.0219 -1.6887 -1.7191
  696MOL0     H93960   0.508   8.651   4.956  0.5015  0.2650  0.9346
  697MOL0     O93961   3.457   8.541  10.510  0.0243  0.0884 -0.4591
  697MOL0     C93962   3.497   8.541  10.400 -0.4270  0.2894  0.8660
  697MOL0     O93963   3.569   8.640  10.340  0.7080  0.1900  0.3780
  697MOL0     C93964   3.598   8.755  10.402  0.3564  0.2599  0.3670
  697MOL0     C93965   3.576   8.875  10.341 -0.5642 -0.6132  0.3103
  697MOL0     C93966   3.630   8.998  10.392 -1.0672 -0.1410  0.7250
  697MOL0     C93967   3.720   8.987  10.499  0.2173 -1.0692  0.0194
  697MOL0     O93968   3.776   9.099  10.565 -0.3150 -0.3840 -0.1093
  697MOL0     C93969   3.774   9.224  10.495 -0.4453  1.4524 -0.6970
  697MOL0     C93970   3.863   9.330  10.570 -0.2434 -1.2825 -0.2668
  697MOL0     C93971   3.876   9.460  10.476  0.1848  0.1226 -0.7191
  697MOL0     C93972   3.962   9.559  10.557 -0.3966 -0.3347  0.8222
  697MOL0     C93973   3.962   9.686  10.475  0.2742 -0.0938  0.3179
  697MOL0     C93974   4.061   9.715  10.366  0.5916  0.2377 -0.4306
  697MOL0     C93975   4.058   9.857  10.313  0.6611  0.3839  0.8069
  697MOL0     C93976   4.117   9.884  10.174  0.3821 -1.1882 -0.7375
  697MOL0     N93977   4.064  10.015  10.130 -0.3012 -0.4624 -0.3869
  697MOL0     C93978   4.057  10.130  10.204  0.7115  0.2341 -0.1186
  697MOL0     C93979   4.021  10.230  10.119  0.0602 -0.2166  0.0617
  697MOL0     C93980   4.021  10.375  10.170 -0.8371  0.8005 -0.3940
  697MOL0     C93981   3.925  10.451  10.091 -0.5343 -0.5445 -0.3607
  697MOL0     C93982   3.959  10.603  10.094 -1.1458  0.1547  0.9894
  697MOL0     C93983   3.846  10.673  10.045 -1.1859  0.3083  0.4096
  697MOL0     O93984   3.738  10.664  10.136 -0.2425  0.0629 -0.2269
  697MOL0     C93985   3.639  10.751  10.133 -0.1480 -0.1889  0.3364
  697MOL0     C93986   3.589  10.824  10.018 -0.6017 -0.0154  0.4945
  697MOL0     C93987   3.469  10.897  10.040  0.9252 -0.2959 -0.0243
  697MOL0     C93988   3.408  10.925  10.165 -0.7637  0.4357  0.5020
  697MOL0     C93989   3.287  11.006  10.181  0.2196  0.3888  0.3517
  697MOL0     O93990   3.226  11.028  10.062  0.6515 -0.6045 -0.1466
  697MOL0     C93991   3.164  11.145  10.029  0.5305  0.4799  0.2578
  697MOL0     C93992   3.163  11.261  10.116 -0.5071 -1.4910  0.4463
  697MOL0     C93993   3.116  11.381  10.058 -0.5838  0.7075 -0.4137
  697MOL0     C93994   3.048  11.381   9.937  0.0508 -0.8481  0.4417
  697MOL0     O93995   3.021  11.500   9.872  0.5847 -0.9943 -0.4435
  697MOL0     C93996   3.062  11.638   9.923  0.1016  0.9708  0.6215
  697MOL0     C93997   3.211  11.663   9.920  0.3336 -0.3035 -0.8581
  697MOL0     C93998   3.276  11.631   9.783 -0.1823  0.3813 -0.1780
  697MOL0     C93999   3.197  11.690   9.653  0.0278  1.1939  0.2770
  697MOL0     C94000   3.246  11.640   9.524 -0.7313 -0.3839 -0.4839
  697MOL0     C94001   3.153  11.677   9.405 -0.3960 -0.8891  0.8121
  697MOL0     C94002   3.226  11.660   9.277  0.2538  0.1359  0.3839
  697MOL0     C94003   3.126  11.698   9.161 -0.1496  0.7312 -0.4778
  697MOL0    Cl94004   3.226  11.692   9.012  0.0953  0.4390 -0.1138
  697MOL0     C94005   3.025  11.258   9.869  0.3478 -0.1238  0.3798
  697MOL0     C94006   3.082  11.144   9.912 -1.6079 -0.5346 -0.8247
  697MOL0     O94007   3.243  11.034  10.292 -0.9415  0.7736  0.1483
  697MOL0     C94008   3.465  10.857  10.270 -0.0094 -0.1532 -0.5793
  697MOL0     C94009   3.576  10.771  10.253  0.4622 -0.3126 -0.2212
  697MOL0     N94010   3.990  10.167   9.993 -0.6390 -0.9802 -0.3756
  697MOL0     N94011   4.018  10.047  10.003 -0.0004  0.3559 -0.5656
  697MOL0     C94012   3.746   8.863  10.556  0.0892 -0.8879  0.3426
  697MOL0     C94013   3.685   8.751  10.506 -0.0643 -0.2623 -0.8804
  697MOL0     C94014   3.471   8.417  10.317 -0.1074 -0.2049 -0.1938
  697MOL0     C94015   3.496   8.433  10.176  0.1116 -0.2324  0.1837
  697MOL0     C94016   3.458   8.337  10.091 -0.1805 -0.2804 -0.2600
  697MOL0     C94017   3.397   8.210  10.133 -0.2674 -0.3868  0.3592
  697MOL0     O94018   3.327   8.127  10.054  0.2589  1.6434 -0.3954
  697MOL0     C94019   3.340   8.155   9.914 -1.0476  0.7612 -0.1455
  697MOL0     C94020   3.248   8.082   9.824 -0.0091  0.1689 -0.3175
  697MOL0     C94021   3.101   8.122   9.821  0.1897 -0.0063  0.2976
  697MOL0     C94022   3.024   8.060   9.704  0.1061 -0.6026 -0.1715
  697MOL0     C94023   3.040   8.159   9.598 -0.8931 -0.3458  1.0553
  697MOL0     C94024   3.051   8.255   9.526  0.0762  0.4657 -0.0071
  697MOL0     C94025   3.385   8.187  10.264  0.6108  0.6316 -0.4362
  697MOL0     C94026   3.425   8.285  10.360  0.2420  0.6343 -0.5697
  697MOL0     C94027   3.400   8.245  10.506  0.1589  0.1207  0.6851
  697MOL0     H94028   3.532   8.877  10.242 -1.3373  0.0878  0.6534
  697MOL0     H94029   3.608   9.093  10.346 -2.5135 -1.4784 -1.5527
  697MOL0     H94030   3.827   9.205  10.401  1.6101  1.5713  0.3907
  697MOL0     H94031   3.675   9.265  10.474 -1.6813 -0.8675  0.1833
  697MOL0     H94032   3.957   9.281  10.600  0.1126  0.5875  1.9550
  697MOL0     H94033   3.818   9.339  10.669  3.5083 -1.7461  1.6613
  697MOL0     H94034   3.777   9.505  10.471  0.5112  0.8731 -0.4597
  697MOL0     H94035   3.927   9.440  10.381  0.6761 -0.5046 -0.3351
  697MOL0     H94036   3.905   9.578  10.648 -1.3581  0.0804  0.1565
  697MOL0     H94037   4.055   9.506  10.581 -1.1188 -1.1723  1.8732
  697MOL0     H94038   3.860   9.702  10.441  0.1814  0.9449  1.0534
  697MOL0     H94039   3.991   9.765  10.544  1.2022 -1.0909  1.1132
  697MOL0     H94040   4.162   9.693  10.403  0.1587 -4.3744 -1.3475
  697MOL0     H94041   4.038   9.644  10.286  2.9397 -0.2702 -0.7503
  697MOL0     H94042   4.118   9.925  10.373  3.8384 -0.2805 -1.4001
  697MOL0     H94043   3.955   9.893  10.306  1.1463  1.4797 -2.1885
  697MOL0     H94044   4.225   9.878  10.165  0.7414  0.6403  1.4084
  697MOL0     H94045   4.075   9.803  10.114  1.6944 -1.5519 -1.1977
  697MOL0     H94046   4.095  10.141  10.306 -1.4245 -2.1387  1.0574
  697MOL0     H94047   3.998  10.374  10.276 -0.2377 -3.0978 -0.1251
  697MOL0     H94048   4.124  10.410  10.155 -0.1577 -1.2758 -1.0180
  697MOL0     H94049   3.941  10.419   9.988  5.1743  0.5976 -0.1501
  697MOL0     H94050   3.829  10.425  10.137  0.3882 -0.7389  1.5882
  697MOL0     H94051   4.042  10.622  10.025 -0.6963  0.8364  1.6969
  697MOL0     H94052   3.976  10.644  10.195 -1.7963  0.3609  1.0204
  697MOL0     H94053   3.819  10.622   9.952  0.7437 -0.3872  0.1916
  697MOL0     H94054   3.878  10.774  10.021  3.2415 -0.9862 -0.0490
  697MOL0     H94055   3.626  10.820   9.916 -0.4258  3.9980  0.2180
  697MOL0     H94056   3.418  10.939   9.955  0.8579 -1.1427 -0.4161
  697MOL0     H94057   3.214  11.267  10.211  1.7182 -0.2692 -0.7349
  697MOL0     H94058   3.113  11.476  10.110 -0.9113  1.3993 -1.6365
  697MOL0     H94059   3.024  11.701   9.842 -1.6109 -0.7893  0.0026
  697MOL0     H94060   3.017  11.660  10.020 -2.3447 -2.1430  0.3230
  697MOL0     H94061   3.226  11.767   9.953 -3.6017  0.1822 -0.1803
  697MOL0     H94062   3.247  11.598  10.000  1.1523 -0.7803 -1.5917
  697MOL0     H94063   3.375  11.675   9.798 -0.7667  1.9256 -0.6606
  697MOL0     H94064   3.279  11.523   9.800 -1.0793  0.5687  1.4378
  697MOL0     H94065   3.208  11.799   9.656  1.0943  1.0920  3.7764
  697MOL0     H94066   3.092  11.663   9.668  1.2617 -3.2688  2.6037
  697MOL0     H94067   3.231  11.532   9.538 -2.6494  0.1349  2.4960
  697MOL0     H94068   3.343  11.690   9.515 -0.1731 -1.0276  1.4785
  697MOL0     H94069   3.060  11.620   9.410  0.1602 -2.0315 -0.9716
  697MOL0     H94070   3.120  11.781   9.405  3.9718  0.7084  2.3032
  697MOL0     H94071   3.243  11.552   9.278 -2.1931 -0.3176  0.6082
  697MOL0     H94072   3.316  11.721   9.275 -1.1568  2.3230 -0.3854
  697MOL0     H94073   3.043  11.627   9.157 -0.2487  0.6538  1.6836
  697MOL0     H94074   3.090  11.800   9.180 -2.0667 -0.5179  3.7136
  697MOL0     H94075   2.969  11.247   9.777  3.0128 -0.0216 -1.3791
  697MOL0     H94076   3.084  11.051   9.855 -0.0191 -1.8589  1.2231
  697MOL0     H94077   3.424  10.876  10.368 -0.2533  0.9761 -0.8829
  697MOL0     H94078   3.617  10.730  10.345  1.3713 -1.3022 -1.0444
  697MOL0     H94079   3.813   8.860  10.641 -1.8625 -2.3394  1.9145
  697MOL0     H94080   3.715   8.656  10.547  0.5980  1.0758  1.9971
  697MOL0     H94081   3.532   8.524  10.129 -2.3499  0.0413 -1.4005
  697MOL0     H94082   3.467   8.364   9.986 -4.9558  0.3754 -0.7075
  697MOL0     H94083   3.440   8.129   9.880 -0.4581  2.4238  0.2371
  697MOL0     H94084   3.321   8.258   9.881  2.5813  0.8072 -2.5839
  697MOL0     H94085   3.260   7.976   9.847  0.0437 -0.0798 -1.4258
  697MOL0     H94086   3.291   8.101   9.725 -2.4539  3.5848 -0.9367
  697MOL0     H94087   3.078   8.228   9.833 -3.2668 -0.8161  2.3829
  697MOL0     H94088   3.059   8.074   9.910 -2.8118 -0.1212 -1.0410
  697MOL0     H94089   3.062   7.960   9.677 -0.3218 -0.9959  0.6505
  697MOL0     H94090   2.918   8.040   9.720 -0.3436 -1.8508 -3.7708
  697MOL0     H94091   3.078   8.325   9.450  0.1433 -0.6150 -1.0031
  697MOL0     H94092   3.357   8.085  10.289 -1.6163  1.7704  2.1887
  697MOL0     H94093   3.496   8.235  10.557  1.0274 -1.5103 -1.1245
  697MOL0     H94094   3.340   8.321  10.557  0.9393 -1.6622  4.5767
  697MOL0     H94095   3.349   8.148  10.507 -2.1364  1.2585  1.2261
  698MOL0     O94096   4.290   3.297   0.031 -0.2408  0.0512  0.6374
  698MOL0     C94097   4.261   3.259   0.139 -0.5444 -0.2362 -0.2288
  698MOL0     O94098   4.140   3.288   0.203  0.1171 -0.9471 -0.7171
  698MOL0     C94099   4.054   3.381   0.146 -0.6855 -0.4046 -0.2102
  698MOL0     C94100   3.982   3.356   0.024 -0.1630  0.4510 -0.4454
  698MOL0     C94101   3.884   3.453  -0.019  0.1852 -0.9705 -0.4969
  698MOL0     C94102   3.877   3.581   0.042  0.1975 -0.3318  0.9208
  698MOL0     O94103   3.787   3.681   0.005 -0.2229 -0.0453 -0.2502
  698MOL0     C94104   3.711   3.675  -0.111  0.1166  0.7341  0.2562
  698MOL0     C94105   3.570   3.638  -0.083  0.6487  0.6217  0.4631
  698MOL0     C94106   3.465   3.632  -0.194  0.3725 -0.2417  0.0433
  698MOL0     C94107   3.338   3.584  -0.125 -1.2415  0.6774  0.6139
  698MOL0     C94108   3.243   3.559  -0.247 -0.4302  0.9533 -0.8866
  698MOL0     C94109   3.106   3.502  -0.209  1.3443 -0.0318  0.1638
  698MOL0     C94110   3.017   3.598  -0.124  0.0107  0.6825  0.5448
  698MOL0     C94111   2.884   3.520  -0.096 -0.5896 -0.0607 -0.3272
  698MOL0     N94112   2.819   3.593   0.021 -0.0187 -0.1880  0.1208
  698MOL0     C94113   2.877   3.622   0.145  0.1621  0.1700  0.9369
  698MOL0     C94114   2.796   3.711   0.207  0.0768 -0.0714  0.5948
  698MOL0     C94115   2.814   3.763   0.340 -0.1226  0.7021  0.2171
  698MOL0     C94116   2.928   3.868   0.357 -0.8301  0.4247 -0.0101
  698MOL0     C94117   2.923   3.923   0.504  0.7565 -0.3448 -0.7533
  698MOL0     C94118   3.048   4.005   0.531  0.4379 -0.9086  1.1104
  698MOL0     O94119   3.069   4.102   0.429 -0.3475 -0.9104  0.4511
  698MOL0     C94120   3.189   4.172   0.433 -1.1174 -0.0864  0.8880
  698MOL0     C94121   3.200   4.296   0.374 -0.2022 -0.0327  0.5057
  698MOL0     C94122   3.319   4.363   0.379 -0.1653 -0.1070 -0.7183
  698MOL0     C94123   3.432   4.316   0.446  0.1440 -0.4915 -0.6066
  698MOL0     C94124   3.559   4.393   0.440 -0.2444  0.0872  0.1551
  698MOL0     O94125   3.662   4.328   0.493 -0.1079  0.7377 -0.7340
  698MOL0     C94126   3.791   4.365   0.473 -0.5267  0.7562  0.3444
  698MOL0     C94127   3.872   4.437   0.564  0.5917 -0.4802 -0.6027
  698MOL0     C94128   4.005   4.466   0.534  0.4389  0.0429 -0.2511
  698MOL0     C94129   4.062   4.416   0.421  0.1056 -0.5380 -0.1886
  698MOL0     O94130   4.204   4.437   0.409 -0.1449 -0.3799 -0.0073
  698MOL0     C94131   4.249   4.457   0.272  0.4000  0.3119  0.0003
  698MOL0     C94132   4.381   4.528   0.265  0.4505  0.3828  0.2822
  698MOL0     C94133   4.443   4.533   0.128 -0.8399  0.3396  0.2895
  698MOL0     C94134   4.561   4.629   0.108 -0.4507  0.1885  0.0653
  698MOL0     C94135   4.685   4.602   0.199 -0.2343 -0.0267  0.1999
  698MOL0     C94136   4.753   4.457   0.174  0.2429 -0.2066  0.3146
  698MOL0     C94137   4.815   4.407   0.305 -0.2805 -0.8417  0.0130
  698MOL0     C94138   4.940   4.486   0.344 -0.6996 -0.4071 -0.9261
  698MOL0    Cl94139   4.974   4.439   0.514  0.1635 -0.1135 -0.2405
  698MOL0     C94140   3.980   4.371   0.318 -0.6707 -0.0606  0.0917
  698MOL0     C94141   3.846   4.337   0.345 -0.0999 -0.3175  1.2990
  698MOL0     O94142   3.558   4.511   0.395  0.9139  0.2288 -0.5369
  698MOL0     C94143   3.415   4.190   0.517 -0.3492 -0.2386  0.6971
  698MOL0     C94144   3.298   4.117   0.506 -0.0293  0.8402  0.2157
  698MOL0     N94145   2.688   3.732   0.122 -0.6346  0.2065 -0.0011
  698MOL0     N94146   2.701   3.665   0.015 -0.9025  0.1774  0.6263
  698MOL0     C94147   3.949   3.598   0.157 -0.2089 -0.3762 -0.0298
  698MOL0     C94148   4.038   3.500   0.199  0.2212  0.2911 -0.6371
  698MOL0     C94149   4.342   3.155   0.209 -0.3132  0.5033  0.5767
  698MOL0     C94150   4.288   3.079   0.314 -0.2203 -0.4666 -0.0279
  698MOL0     C94151   4.362   2.992   0.387  0.7455  0.6097  0.0685
  698MOL0     C94152   4.488   2.950   0.347  0.0208 -0.0495  0.6213
  698MOL0     O94153   4.546   2.844   0.419 -0.8902 -0.2250  0.7098
  698MOL0     C94154   4.676   2.797   0.371 -0.2391 -0.6062  0.1442
  698MOL0     C94155   4.735   2.681   0.453 -0.4071  0.5968  0.9949
  698MOL0     C94156   4.636   2.570   0.487  0.1060  0.3365 -0.7940
  698MOL0     C94157   4.707   2.464   0.582 -0.2782  0.8851 -0.0728
  698MOL0     C94158   4.622   2.351   0.601 -0.4282 -1.1333  0.3583
  698MOL0     C94159   4.558   2.255   0.580 -0.3082  0.0981 -0.2238
  698MOL0     C94160   4.541   3.020   0.240  0.6758 -1.5029  0.8561
  698MOL0     C94161   4.474   3.128   0.171 -0.8443  0.0531 -0.0675
  698MOL0     C94162   4.567   3.201   0.070 -1.1887 -0.2872  0.6901
  698MOL0     H94163   3.987   3.270  -0.041  2.1930  0.7997 -0.8123
  698MOL0     H94164   3.813   3.429  -0.098  0.8279  0.0796 -1.4326
  698MOL0     H94165   3.707   3.774  -0.157  1.4399  1.2129  1.0988
  698MOL0     H94166   3.751   3.615  -0.193  0.7269  3.9909 -2.0141
  698MOL0     H94167   3.531   3.705  -0.007 -0.2665 -1.6472  2.1220
  698MOL0     H94168   3.583   3.539  -0.037 -0.1596  0.8621  1.2513
  698MOL0     H94169   3.508   3.570  -0.273  0.3534  0.4305 -0.5132
  698MOL0     H94170   3.448   3.725  -0.249  0.9299 -1.9347 -3.2716
  698MOL0     H94171   3.350   3.495  -0.063 -2.2224  0.1015 -0.0095
  698MOL0     H94172   3.303   3.665  -0.060 -0.8268 -0.1322  1.8755
  698MOL0     H94173   3.237   3.653  -0.304 -1.6394  0.9111 -0.8592
  698MOL0     H94174   3.289   3.492  -0.321 -0.4692 -0.3987  0.2731
  698MOL0     H94175   3.055   3.482  -0.303  0.8050 -2.0913  0.8354
  698MOL0     H94176   3.093   3.406  -0.157 -0.4588 -0.1197 -0.3766
  698MOL0     H94177   2.991   3.682  -0.190 -1.4634  0.3255  0.6275
  698MOL0     H94178   3.075   3.620  -0.034  0.0109 -1.2794  1.0719
  698MOL0     H94179   2.816   3.534  -0.181  0.4526  0.1353 -1.1552
  698MOL0     H94180   2.889   3.412  -0.077  0.5776 -0.2477 -1.5007
  698MOL0     H94181   2.970   3.578   0.178  0.5047  0.6445  0.6068
  698MOL0     H94182   2.723   3.817   0.366 -1.2500 -0.8884 -0.2685
  698MOL0     H94183   2.818   3.674   0.404 -1.9996  0.3435 -0.1016
  698MOL0     H94184   3.030   3.832   0.338  0.2283  2.8600  0.6648
  698MOL0     H94185   2.917   3.950   0.285  2.1086  1.6081  0.7645
  698MOL0     H94186   2.933   3.838   0.573 -3.0257 -0.6611 -0.3761
  698MOL0     H94187   2.830   3.978   0.522 -1.2810 -3.6714 -0.3147
  698MOL0     H94188   3.127   3.931   0.519 -0.1418 -1.5341  1.0523
  698MOL0     H94189   3.047   4.055   0.629 -3.5510 -0.7787  1.1786
  698MOL0     H94190   3.111   4.350   0.343 -0.6734 -1.0197  0.1067
  698MOL0     H94191   3.329   4.461   0.333 -2.0706 -0.5831 -2.3101
  698MOL0     H94192   3.817   4.464   0.653  1.9616 -0.0135  0.1411
  698MOL0     H94193   4.064   4.529   0.601 -1.5098 -0.3174  1.9155
  698MOL0     H94194   4.261   4.358   0.227 -1.6301  0.4693 -1.0263
  698MOL0     H94195   4.183   4.521   0.212  0.5198  1.9929  1.5830
  698MOL0     H94196   4.352   4.625   0.307 -1.4778 -0.9462  2.2443
  698MOL0     H94197   4.446   4.480   0.338 -0.3012 -0.5055  0.3916
  698MOL0     H94198   4.473   4.430   0.107  3.6249  1.2037  1.4597
  698MOL0     H94199   4.371   4.549   0.047  0.8826 -3.7065 -2.3416
  698MOL0     H94200   4.541   4.736   0.117  0.0873  0.1757  1.6569
  698MOL0     H94201   4.587   4.627   0.002  0.1413  4.0418  0.0056
  698MOL0     H94202   4.666   4.601   0.307  0.5591 -2.2515  0.3686
  698MOL0     H94203   4.761   4.679   0.185  1.4231 -1.6442  0.0256
  698MOL0     H94204   4.680   4.383   0.140  0.7348 -0.2269 -0.7083
  698MOL0     H94205   4.829   4.460   0.097 -1.5125 -0.6702 -1.5170
  698MOL0     H94206   4.830   4.299   0.307 -2.5545 -1.1995  0.2617
  698MOL0     H94207   4.742   4.425   0.384  0.8143  0.5887  0.7559
  698MOL0     H94208   5.029   4.448   0.294 -0.1120  1.4628 -1.3853
  698MOL0     H94209   4.921   4.593   0.333 -0.2690 -0.5515 -3.5000
  698MOL0     H94210   4.019   4.359   0.218  0.2449 -2.5505  0.6846
  698MOL0     H94211   3.788   4.288   0.268  1.3895  0.9375 -0.7245
  698MOL0     H94212   3.507   4.158   0.565  3.4968  2.9082 -3.6442
  698MOL0     H94213   3.294   4.025   0.564  0.1786  1.5089  1.3064
  698MOL0     H94214   3.951   3.694   0.209 -1.0927 -2.8243  5.1569
  698MOL0     H94215   4.095   3.515   0.290  0.3192 -0.6305 -0.5307
  698MOL0     H94216   4.185   3.100   0.342 -0.4787 -0.4499 -0.9461
  698MOL0     H94217   4.313   2.937   0.467 -0.1800 -1.4992 -1.7985
  698MOL0     H94218   4.742   2.885   0.375 -0.1097 -0.6872 -0.1469
  698MOL0     H94219   4.663   2.762   0.268  0.1182 -0.8274  0.1733
  698MOL0     H94220   4.768   2.724   0.549  2.5278  1.1247 -0.1500
  698MOL0     H94221   4.828   2.643   0.410 -1.7861  0.1084 -1.7495
  698MOL0     H94222   4.608   2.532   0.388 -2.9311 -0.3360  0.2248
  698MOL0     H94223   4.550   2.598   0.548  1.8152 -1.4138  2.7024
  698MOL0     H94224   4.801   2.426   0.539 -0.5098 -0.0859  0.2475
  698MOL0     H94225   4.716   2.503   0.683  1.4707  1.6185 -0.4699
  698MOL0     H94226   4.510   2.160   0.579 -0.6935  0.2266 -3.0193
  698MOL0     H94227   4.641   2.993   0.208  1.2189  0.8742  0.3919
  698MOL0     H94228   4.581   3.302   0.111  0.6392 -0.5216  0.7412
  698MOL0     H94229   4.664   3.151   0.061 -0.3357  1.1472  1.4597
  698MOL0     H94230   4.534   3.181  -0.033 -1.3423 -1.5420  0.9701
  699MOL0     O94231   7.063   4.954  11.312  0.2238 -0.0152  0.2451
  699MOL0     C94232   6.938   4.968  11.299 -0.2130 -0.0991 -0.0815
  699MOL0     O94233   6.871   4.986  11.183 -0.6838  0.1945 -0.2329
  699MOL0     C94234   6.954   5.026  11.079  0.7503  0.1407  0.6040
  699MOL0     C94235   7.019   5.153  11.060 -0.3292 -0.3267 -0.2155
  699MOL0     C94236   7.108   5.182  10.954 -0.6628 -0.1880 -0.3556
  699MOL0     C94237   7.144   5.083  10.867 -0.3560  0.4003 -0.5684
  699MOL0     O94238   7.234   5.098  10.767  0.2055  0.4465 -0.0633
  699MOL0     C94239   7.175   5.098  10.636  0.0441 -0.6195 -0.3837
  699MOL0     C94240   7.280   5.085  10.519  0.9011  0.4941 -0.2553
  699MOL0     C94241   7.349   5.221  10.501  0.3829 -0.2667  0.0041
  699MOL0     C94242   7.467   5.212  10.417  0.6566 -0.2134  1.0223
  699MOL0     C94243   7.546   5.341  10.405 -0.3135  0.9868 -0.8152
  699MOL0     C94244   7.651   5.328  10.292  0.4194 -0.5354 -0.3135
  699MOL0     C94245   7.715   5.462  10.271  0.9646 -0.1641  0.1441
  699MOL0     C94246   7.802   5.456  10.148  0.1845  0.4749 -0.4648
  699MOL0     N94247   7.729   5.437  10.023 -0.5627  0.0119  0.1891
  699MOL0     C94248   7.798   5.403   9.909  0.3839 -0.3204  0.3390
  699MOL0     C94249   7.704   5.368   9.818  0.1455 -1.8355 -0.1190
  699MOL0     C94250   7.713   5.321   9.672 -0.2337  0.1760 -0.1192
  699MOL0     C94251   7.676   5.177   9.643  1.0356 -0.2632  0.2454
  699MOL0     C94252   7.768   5.094   9.735 -0.0735 -1.1568  0.4534
  699MOL0     C94253   7.751   4.949   9.743 -0.8308  0.4697  0.3172
  699MOL0     O94254   7.826   4.889   9.635  0.4570 -0.2051 -0.4350
  699MOL0     C94255   7.770   4.774   9.585 -0.2552  0.3344  0.3372
  699MOL0     C94256   7.784   4.749   9.456 -0.2118 -0.3338 -0.2026
  699MOL0     C94257   7.725   4.633   9.395 -0.3920 -0.5008 -0.5154
  699MOL0     C94258   7.665   4.538   9.472  0.6457  0.3427 -0.1590
  699MOL0     C94259   7.614   4.410   9.415 -0.2341  0.2672  0.3632
  699MOL0     O94260   7.508   4.334   9.478  0.0525 -0.3878  0.5724
  699MOL0     C94261   7.469   4.217   9.417  0.3502 -0.2838 -1.7338
  699MOL0     C94262   7.550   4.133   9.346  0.1200  0.3641  0.4210
  699MOL0     C94263   7.478   4.028   9.281 -0.6980 -0.7202 -0.0204
  699MOL0     C94264   7.341   4.002   9.291  0.7518 -0.0559 -0.7676
  699MOL0     O94265   7.294   3.884   9.243 -0.1672  0.3552 -0.2910
  699MOL0     C94266   7.162   3.845   9.271 -1.0058 -0.5350 -0.6614
  699MOL0     C94267   7.127   3.712   9.207  0.2962 -0.5819  0.7747
  699MOL0     C94268   7.116   3.705   9.057  0.2624 -0.0801  0.2284
  699MOL0     C94269   7.238   3.731   8.965 -0.2690 -0.2922  0.4935
  699MOL0     C94270   7.365   3.652   8.989  0.4546 -0.9383 -0.3676
  699MOL0     C94271   7.483   3.692   8.896  0.2674 -0.6922 -1.3113
  699MOL0     C94272   7.499   3.851   8.900 -0.6486  0.7463 -0.1775
  699MOL0     C94273   7.636   3.899   8.857  0.0960  0.2772 -0.5318
  699MOL0    Cl94274   7.652   3.883   8.677  0.2892  0.5082 -0.0507
  699MOL0     C94275   7.268   4.095   9.383 -0.1323  0.1909 -0.6435
  699MOL0     C94276   7.330   4.207   9.426 -0.1332  0.1906 -0.4297
  699MOL0     O94277   7.662   4.383   9.300  0.5030  0.4916 -1.3247
  699MOL0     C94278   7.642   4.569   9.607 -0.7187  0.0082 -0.1452
  699MOL0     C94279   7.685   4.694   9.659 -0.1200  1.1637 -0.0214
  699MOL0     N94280   7.578   5.380   9.882  0.4804 -1.0175  0.2080
  699MOL0     N94281   7.596   5.436   9.999  0.1569  0.0916  0.2204
  699MOL0     C94282   7.086   4.964  10.870  0.0910  0.3009  0.4039
  699MOL0     C94283   6.995   4.930  10.978  0.1775  0.5286  0.0599
  699MOL0     C94284   6.863   4.940  11.416  0.9607 -0.4682  0.0972
  699MOL0     C94285   6.905   4.852  11.513  0.0829  0.5989  0.2237
  699MOL0     C94286   6.826   4.820  11.631  0.2085  0.0687 -0.1234
  699MOL0     C94287   6.701   4.882  11.653 -0.0097  0.1379 -0.2251
  699MOL0     O94288   6.610   4.850  11.759  0.2804  0.8967  0.4092
  699MOL0     C94289   6.603   4.719  11.808  0.4587 -1.0393 -0.3021
  699MOL0     C94290   6.513   4.714  11.935  0.8940 -0.2420  0.2610
  699MOL0     C94291   6.368   4.756  11.917  0.0091  0.6561  0.8886
  699MOL0     C94292   6.275   4.647  11.850  1.5203  0.6034 -0.0259
  699MOL0     C94293   6.302   4.643  11.703  0.5588 -0.0039 -1.0983
  699MOL0     C94294   6.332   4.630  11.586  0.0712 -0.2160 -0.9822
  699MOL0     C94295   6.659   4.973  11.551 -0.0320  0.2826  0.5165
  699MOL0     C94296   6.735   5.001  11.436  0.7335  0.5062 -0.4118
  699MOL0     C94297   6.691   5.113  11.344  0.4455  0.7945 -0.0072
  699MOL0     H94298   6.996   5.236  11.125  0.8775  0.1089 -0.3095
  699MOL0     H94299   7.160   5.277  10.955  0.0468 -0.5605 -0.8824
  699MOL0     H94300   7.097   5.022  10.627  0.0770 -0.7467  0.3574
  699MOL0     H94301   7.122   5.194  10.636  0.1586 -0.5482  0.2197
  699MOL0     H94302   7.224   5.060  10.428 -1.5318 -4.0856  2.1225
  699MOL0     H94303   7.352   5.006  10.540  2.3974  1.4521 -1.5548
  699MOL0     H94304   7.380   5.257  10.600  0.0186  1.5252 -0.4945
  699MOL0     H94305   7.290   5.308  10.470  2.1636  2.2877  3.1646
  699MOL0     H94306   7.534   5.130  10.448  1.3551 -0.5096 -1.1337
  699MOL0     H94307   7.439   5.189  10.314  1.0315 -1.5082  1.1811
  699MOL0     H94308   7.478   5.426  10.390 -2.6988  0.0453  3.0655
  699MOL0     H94309   7.593   5.364  10.501  0.4137 -1.6347 -0.4720
  699MOL0     H94310   7.722   5.249  10.319  0.0515 -2.4289 -4.2096
  699MOL0     H94311   7.601   5.296  10.200  0.6470 -2.9565  0.3340
  699MOL0     H94312   7.784   5.479  10.354 -2.3388 -1.0970  3.3550
  699MOL0     H94313   7.637   5.539  10.267  0.1837 -0.9169  0.3450
  699MOL0     H94314   7.852   5.553  10.143 -1.8742  1.5342 -2.3517
  699MOL0     H94315   7.877   5.377  10.154 -1.5610 -1.4466 -2.2185
  699MOL0     H94316   7.904   5.412   9.893  0.3603  1.5426  1.0583
  699MOL0     H94317   7.647   5.375   9.604  0.9043  0.4881 -1.0107
  699MOL0     H94318   7.816   5.337   9.637  0.2812 -3.7982 -0.9737
  699MOL0     H94319   7.570   5.159   9.659  1.2659 -2.7629 -0.5438
  699MOL0     H94320   7.714   5.153   9.543  0.3107  1.1294 -0.3805
  699MOL0     H94321   7.759   5.126   9.839 -0.3245 -0.6938  0.2911
  699MOL0     H94322   7.873   5.113   9.709  0.9069 -0.7154  4.1264
  699MOL0     H94323   7.644   4.943   9.723 -0.6268 -1.1679 -0.4101
  699MOL0     H94324   7.784   4.898   9.835 -3.0957 -0.2248  0.8027
  699MOL0     H94325   7.834   4.829   9.402  0.1582 -0.8709 -0.6511
  699MOL0     H94326   7.739   4.626   9.288 -0.3454  0.9736 -0.6184
  699MOL0     H94327   7.657   4.154   9.346  0.1787  1.5367 -4.6021
  699MOL0     H94328   7.526   3.966   9.207 -2.1046 -3.8142  1.4870
  699MOL0     H94329   7.153   3.833   9.379  0.2648  1.0283 -0.3529
  699MOL0     H94330   7.091   3.922   9.240 -2.0725 -1.1731  0.1172
  699MOL0     H94331   7.192   3.633   9.246  2.0376 -1.2702 -3.0583
  699MOL0     H94332   7.038   3.678   9.260  1.2495 -2.6512  1.1438
  699MOL0     H94333   7.086   3.606   9.023 -0.7752  0.8790 -1.8642
  699MOL0     H94334   7.040   3.780   9.029  0.2244 -0.6679 -1.3692
  699MOL0     H94335   7.264   3.837   8.961 -0.5053 -0.0612 -6.0285
  699MOL0     H94336   7.184   3.706   8.874 -2.9187 -2.5655  2.5161
  699MOL0     H94337   7.335   3.546   8.987 -0.6149 -0.6482 -0.2313
  699MOL0     H94338   7.389   3.682   9.092  0.0461  1.4692 -0.9182
  699MOL0     H94339   7.571   3.646   8.941  1.1591 -1.4650 -3.6814
  699MOL0     H94340   7.477   3.661   8.791 -2.0685 -0.0354 -1.4314
  699MOL0     H94341   7.490   3.887   9.004  3.4175  0.2312  0.5178
  699MOL0     H94342   7.429   3.889   8.826  0.6143 -1.8494 -2.8800
  699MOL0     H94343   7.656   4.003   8.884 -2.5499  0.5725  0.5316
  699MOL0     H94344   7.721   3.851   8.906  0.6951  1.4206 -0.4073
  699MOL0     H94345   7.161   4.084   9.398  0.0020 -1.2026 -0.4982
  699MOL0     H94346   7.280   4.280   9.489 -2.2004 -3.0425  2.0594
  699MOL0     H94347   7.590   4.501   9.674 -2.6042  1.4481 -0.0550
  699MOL0     H94348   7.668   4.719   9.763 -1.1128 -0.9481  0.3754
  699MOL0     H94349   7.112   4.887  10.798 -0.0537  0.3218  0.3281
  699MOL0     H94350   6.975   4.824  10.972  0.0437  0.6284 -2.5316
  699MOL0     H94351   6.990   4.785  11.505 -1.2675 -1.3538  1.1626
  699MOL0     H94352   6.864   4.736  11.689 -2.2305  0.5066  2.3344
  699MOL0     H94353   6.699   4.677  11.839  1.1819 -0.3201 -1.5131
  699MOL0     H94354   6.561   4.650  11.734  0.6088  0.3097 -1.6785
  699MOL0     H94355   6.555   4.766  12.022  1.1007 -0.2821  0.1864
  699MOL0     H94356   6.500   4.608  11.960  3.6981 -0.5056  0.9330
  699MOL0     H94357   6.371   4.852  11.864 -3.5817  0.1901 -0.3986
  699MOL0     H94358   6.339   4.782  12.019  2.1430  3.8267  0.8322
  699MOL0     H94359   6.291   4.547  11.892  0.9510  0.6349  0.2759
  699MOL0     H94360   6.171   4.667  11.874  1.2009  2.2385 -2.4589
  699MOL0     H94361   6.346   4.640  11.480 -0.7609  2.3727 -0.9196
  699MOL0     H94362   6.567   5.030  11.559  0.0933  0.6818 -0.5985
  699MOL0     H94363   6.596   5.159  11.373  1.6813  2.3978  1.7102
  699MOL0     H94364   6.776   5.182  11.348  0.1619  1.1643 -0.2877
  699MOL0     H94365   6.669   5.085  11.241  0.6113  2.2437 -0.4615
  700MOL0     O94366   2.135  10.243   0.533 -0.0419 -0.8106  0.1339
  700MOL0     C94367   2.197  10.349   0.534  0.5690 -0.8420 -0.4311
  700MOL0     O94368   2.140  10.472   0.579  1.1134  0.2939  0.3007
  700MOL0     C94369   2.016  10.485   0.636 -0.1926 -0.1773  0.3233
  700MOL0     C94370   1.958  10.597   0.592  0.7285 -1.1892  1.3269
  700MOL0     C94371   1.831  10.630   0.643  1.2938  0.8369 -1.5794
  700MOL0     C94372   1.756  10.539   0.724 -0.4510 -1.0326  0.6794
  700MOL0     O94373   1.615  10.557   0.744 -0.6473 -0.6399 -0.9667
  700MOL0     C94374   1.563  10.686   0.738  0.4049 -1.0558  0.7379
  700MOL0     C94375   1.514  10.718   0.596 -0.0473 -0.8662 -0.5130
  700MOL0     C94376   1.423  10.601   0.545  0.2728  0.3102  0.2257
  700MOL0     C94377   1.350  10.629   0.415  0.1054  0.0761  0.0586
  700MOL0     C94378   1.263  10.506   0.374 -0.3000  0.2685  0.8132
  700MOL0     C94379   1.181  10.519   0.243 -0.3148 -0.3656  0.6407
  700MOL0     C94380   1.087  10.404   0.211  0.4556 -0.2521 -1.2559
  700MOL0     C94381   1.011  10.409   0.084  0.0899 -0.3174  0.8861
  700MOL0     N94382   0.951  10.534   0.040  0.0658  0.5419  0.0119
  700MOL0     C94383   0.834  10.578   0.093 -0.9800 -0.3717  0.2376
  700MOL0     C94384   0.829  10.703   0.039 -0.4507 -0.1686  0.6956
  700MOL0     C94385   0.727  10.806   0.054 -0.2573 -0.0896  0.5355
  700MOL0     C94386   0.660  10.794   0.195 -0.1957 -0.5414  0.8077
  700MOL0     C94387   0.762  10.797   0.311  0.1879  0.4570 -0.3658
  700MOL0     C94388   0.696  10.799   0.453 -0.6800  0.7748  0.9032
  700MOL0     O94389   0.610  10.921   0.466 -0.6540  1.0366  0.3627
  700MOL0     C94390   0.518  10.913   0.575 -0.0071 -0.3869 -0.5444
  700MOL0     C94391   0.429  11.019   0.595  0.0427 -0.2790  0.0182
  700MOL0     C94392   0.327  11.027   0.695 -1.1608  0.8402  0.3321
  700MOL0     C94393   0.314  10.919   0.789  1.5301 -0.1333 -0.2164
  700MOL0     C94394   0.210  10.930   0.900 -0.2067 -0.1871  0.4464
  700MOL0     O94395   0.133  11.048   0.903 -0.2864 -0.5060  0.0150
  700MOL0     C94396   0.038  11.051   1.002 -0.1133 -0.6231 -0.1534
  700MOL0     C94397   0.030  11.182   1.058  0.0492  0.0100 -0.5196
  700MOL0     C94398  -0.082  11.215   1.133 -1.0199  0.1992 -0.1089
  700MOL0     C94399  -0.171  11.117   1.184  0.5530 -0.0890 -0.7077
  700MOL0     O94400  -0.281  11.143   1.260  0.4202 -0.1152 -0.1398
  700MOL0     C94401  -0.326  11.285   1.280 -0.3736  0.6989 -0.3104
  700MOL0     C94402  -0.462  11.273   1.347  0.5090 -0.8466 -0.0870
  700MOL0     C94403  -0.586  11.230   1.275 -0.3296  0.2966  0.2113
  700MOL0     C94404  -0.636  11.320   1.160 -0.0938 -0.9704  0.1255
  700MOL0     C94405  -0.752  11.245   1.093 -0.3038  0.3602  0.4643
  700MOL0     C94406  -0.887  11.272   1.157 -0.2625  0.9479 -0.2528
  700MOL0     C94407  -0.990  11.181   1.087 -0.2037  0.1503  0.6916
  700MOL0     C94408  -1.127  11.237   1.114  0.0313 -0.2381 -0.5079
  700MOL0    Cl94409  -1.154  11.261   1.287  0.0429 -0.3372  0.3846
  700MOL0     C94410  -0.153  10.990   1.131  0.1205  0.6507  0.0418
  700MOL0     C94411  -0.050  10.953   1.035 -0.3452  0.2083 -0.1777
  700MOL0     O94412   0.213  10.838   0.985 -0.6229 -1.1949 -0.6803
  700MOL0     C94413   0.405  10.817   0.776 -0.3882  0.0251 -0.0514
  700MOL0     C94414   0.509  10.815   0.673 -0.2828  0.4772 -0.2577
  700MOL0     N94415   0.950  10.732  -0.029 -0.3069  0.4164  0.1844
  700MOL0     N94416   1.018  10.629  -0.021 -0.1518  0.3417  0.6109
  700MOL0     C94417   1.826  10.421   0.769 -0.2877  0.2743  0.0185
  700MOL0     C94418   1.950  10.392   0.722 -0.7025 -0.1972 -0.0947
  700MOL0     C94419   2.339  10.352   0.474 -0.0164  0.0018  0.4903
  700MOL0     C94420   2.423  10.458   0.518 -1.6966  0.7765 -0.5032
  700MOL0     C94421   2.544  10.477   0.453 -0.4202 -0.6121  0.5306
  700MOL0     C94422   2.591  10.394   0.352  0.8593  0.4337  0.6625
  700MOL0     O94423   2.712  10.409   0.286  0.2400  0.4333 -0.4032
  700MOL0     C94424   2.703  10.489   0.163 -0.0457 -0.3066 -0.0020
  700MOL0     C94425   2.726  10.639   0.192  0.4989 -0.0971  0.3628
  700MOL0     C94426   2.836  10.689   0.286 -0.3953 -0.0885 -0.7604
  700MOL0     C94427   2.812  10.832   0.310 -1.3151 -0.4383  0.4554
  700MOL0     C94428   2.940  10.887   0.367  1.4022  0.2927  0.3130
  700MOL0     C94429   3.046  10.934   0.414 -0.1561 -0.6924 -0.0965
  700MOL0     C94430   2.508  10.291   0.314 -0.2912 -0.0393  0.1249
  700MOL0     C94431   2.387  10.265   0.372  0.7037  0.0542  0.2079
  700MOL0     C94432   2.321  10.145   0.312  0.1973 -1.0629  0.1482
  700MOL0     H94433   2.004  10.668   0.524  2.6786 -1.2489  2.4963
  700MOL0     H94434   1.800  10.727   0.604 -0.4769  1.5414  1.2931
  700MOL0     H94435   1.470  10.683   0.796 -0.2505  0.6793 -0.1479
  700MOL0     H94436   1.638  10.760   0.766 -0.8785  1.8781 -2.8571
  700MOL0     H94437   1.597  10.722   0.525 -1.3148  1.1603 -1.9701
  700MOL0     H94438   1.445  10.802   0.594 -1.1816 -1.7818 -1.4858
  700MOL0     H94439   1.351  10.570   0.621  1.3865 -5.2616 -0.5438
  700MOL0     H94440   1.477  10.506   0.541 -0.2173  0.0456 -0.6338
  700MOL0     H94441   1.289  10.719   0.424  0.8960  0.5147  1.2483
  700MOL0     H94442   1.432  10.652   0.347  0.9779  0.4872  1.2286
  700MOL0     H94443   1.319  10.413   0.364 -3.0508 -1.2542 -3.1304
  700MOL0     H94444   1.190  10.489   0.454 -0.3353  1.9473  1.1825
  700MOL0     H94445   1.122  10.610   0.257 -2.4229 -1.1161 -2.3485
  700MOL0     H94446   1.255  10.523   0.162  1.5705 -3.4538  2.0179
  700MOL0     H94447   1.013  10.376   0.287  0.9504  0.9385 -0.2994
  700MOL0     H94448   1.164  10.328   0.199  1.3973  0.5840 -0.6311
  700MOL0     H94449   1.075  10.368   0.006 -0.8852 -2.2370  1.0314
  700MOL0     H94450   0.930  10.335   0.081  1.0784 -1.3891 -0.8198
  700MOL0     H94451   0.757  10.548   0.164 -1.0669 -0.0177  0.2996
  700MOL0     H94452   0.772  10.906   0.047 -1.6725  0.7990  2.9389
  700MOL0     H94453   0.656  10.788  -0.027  1.2742 -0.2938 -0.8289
  700MOL0     H94454   0.602  10.887   0.195 -0.0276 -0.2307 -3.3512
  700MOL0     H94455   0.589  10.711   0.204 -0.5384 -0.1714  1.5952
  700MOL0     H94456   0.825  10.886   0.307 -1.6813  1.9713  1.5331
  700MOL0     H94457   0.827  10.710   0.303 -0.2856 -0.0410  0.8714
  700MOL0     H94458   0.777  10.789   0.526  1.6374 -2.5108 -1.7565
  700MOL0     H94459   0.638  10.706   0.458  1.9874 -1.1191 -0.7350
  700MOL0     H94460   0.421  11.097   0.520 -0.0346 -1.6718 -1.4814
  700MOL0     H94461   0.247  11.100   0.696 -1.0680  0.9795  2.2155
  700MOL0     H94462   0.096  11.261   1.023  0.4207  0.0387  0.2307
  700MOL0     H94463  -0.082  11.317   1.171  1.6877 -0.0564  0.7649
  700MOL0     H94464  -0.261  11.344   1.345  1.4839  2.1040 -3.2515
  700MOL0     H94465  -0.333  11.328   1.180  2.6176  1.9891 -0.0448
  700MOL0     H94466  -0.441  11.208   1.433 -1.5176  0.8028  1.7846
  700MOL0     H94467  -0.488  11.372   1.386 -1.6522 -1.1585 -0.6096
  700MOL0     H94468  -0.564  11.130   1.236 -2.5763  0.6204 -2.2390
  700MOL0     H94469  -0.664  11.220   1.351  0.6446  2.7394  1.6494
  700MOL0     H94470  -0.560  11.337   1.082 -0.3378  0.0140  0.0912
  700MOL0     H94471  -0.671  11.419   1.191 -1.0578 -0.8734 -1.2155
  700MOL0     H94472  -0.726  11.140   1.081 -2.9019 -0.4796  1.3782
  700MOL0     H94473  -0.764  11.286   0.993 -1.5320 -1.4465 -0.1774
  700MOL0     H94474  -0.877  11.252   1.264  3.4304  0.8509 -0.4875
  700MOL0     H94475  -0.916  11.377   1.141  0.2727  0.8751 -1.8655
  700MOL0     H94476  -0.984  11.080   1.129 -0.9211 -0.3637 -0.4011
  700MOL0     H94477  -0.965  11.177   0.981  1.3444 -0.9716  1.0703
  700MOL0     H94478  -1.139  11.335   1.066 -2.7688 -0.5219 -0.5968
  700MOL0     H94479  -1.219  11.192   1.075 -1.9544  1.9774  1.3207
  700MOL0     H94480  -0.227  10.918   1.164 -0.3778  1.9143  1.8690
  700MOL0     H94481  -0.055  10.856   0.987  0.2283 -0.1578  0.4765
  700MOL0     H94482   0.412  10.734   0.845 -0.2917  1.1836  1.3687
  700MOL0     H94483   0.568  10.724   0.676  0.4954  0.9341 -1.1266
  700MOL0     H94484   1.776  10.351   0.836 -1.3753  0.3094 -0.7472
  700MOL0     H94485   2.007  10.304   0.749  1.9286  0.2539 -3.4861
  700MOL0     H94486   2.396  10.533   0.592  1.2364  0.1234  1.4372
  700MOL0     H94487   2.610  10.558   0.485  0.2095 -0.8922 -0.0355
  700MOL0     H94488   2.604  10.481   0.118 -0.5743 -1.0878  1.2458
  700MOL0     H94489   2.790  10.465   0.101  0.2339 -0.2152  0.3536
  700MOL0     H94490   2.636  10.683   0.236  1.7219  1.9588  0.9629
  700MOL0     H94491   2.742  10.685   0.094 -0.3380 -1.0228 -0.2233
  700MOL0     H94492   2.936  10.666   0.246 -0.5548 -0.6754 -0.8202
  700MOL0     H94493   2.823  10.638   0.381 -1.2704 -0.4936 -1.0882
  700MOL0     H94494   2.793  10.889   0.218  0.5922  0.2872  0.4490
  700MOL0     H94495   2.727  10.842   0.377 -0.3166 -1.8453  2.0059
  700MOL0     H94496   3.138  10.988   0.427 -1.1006  0.6580  1.4516
  700MOL0     H94497   2.556  10.245   0.229  1.3550  1.5521  0.1277
  700MOL0     H94498   2.319  10.068   0.389 -2.2058 -2.7839 -1.4965
  700MOL0     H94499   2.218  10.169   0.282  0.3000  0.7300  1.0690
  700MOL0     H94500   2.374  10.096   0.230  1.9676 -2.5939  2.0939
  701MOL0     O94501  10.580  10.849   2.129  0.0181 -0.5671  0.6111
  701MOL0     C94502  10.684  10.906   2.140  0.0413 -0.2210  0.3666
  701MOL0     O94503  10.708  11.009   2.225  0.1938  0.2110  0.3038
  701MOL0     C94504  10.601  11.074   2.274  0.5012 -0.8484 -0.0719
  701MOL0     C94505  10.606  11.124   2.405 -0.1787 -1.0033 -0.1806
  701MOL0     C94506  10.503  11.209   2.458 -0.8160  0.3457  0.5709
  701MOL0     C94507  10.399  11.250   2.370  0.1310 -0.8591 -0.8957
  701MOL0     O94508  10.299  11.327   2.419  0.6277  0.7599 -0.0095
  701MOL0     C94509  10.335  11.460   2.448  0.5759 -0.3957  0.8208
  701MOL0     C94510  10.207  11.547   2.461 -0.1176 -0.1282  0.6919
  701MOL0     C94511  10.153  11.566   2.315 -0.1056 -0.0922 -0.1158
  701MOL0     C94512  10.011  11.609   2.310  0.3928  0.3405 -0.0899
  701MOL0     C94513   9.979  11.658   2.172 -0.2183  0.3449  0.0740
  701MOL0     C94514  10.001  11.550   2.066 -0.0626 -0.8523  0.4589
  701MOL0     C94515   9.962  11.588   1.924 -0.4825 -0.1585 -0.3337
  701MOL0     C94516   9.832  11.672   1.896 -0.2920  0.2715  0.9640
  701MOL0     N94517   9.805  11.687   1.749  0.2132  0.2674 -0.5248
  701MOL0     C94518   9.844  11.621   1.640  0.4690 -1.1045  0.0990
  701MOL0     C94519   9.754  11.645   1.536  0.3735 -0.1227  0.1822
  701MOL0     C94520   9.748  11.573   1.400  0.3882  0.0136 -0.4033
  701MOL0     C94521   9.605  11.561   1.351  0.0023  0.8403  0.2899
  701MOL0     C94522   9.599  11.503   1.206 -0.3139  0.3030 -0.0790
  701MOL0     C94523   9.453  11.458   1.175  0.5219 -0.8360  0.0380
  701MOL0     O94524   9.405  11.360   1.276  0.0345 -0.7647  0.1172
  701MOL0     C94525   9.293  11.386   1.350  0.3071 -0.3771 -0.8976
  701MOL0     C94526   9.269  11.307   1.464 -0.2026  0.1751 -0.6255
  701MOL0     C94527   9.143  11.315   1.522  0.4521  0.7153  0.5430
  701MOL0     C94528   9.033  11.392   1.471  0.5721 -0.0732  0.0504
  701MOL0     C94529   8.905  11.397   1.547 -0.5420  1.0882  0.5139
  701MOL0     O94530   8.828  11.504   1.513 -0.5681 -1.3754 -1.0435
  701MOL0     C94531   8.711  11.536   1.580  0.1572 -0.5262 -0.1019
  701MOL0     C94532   8.655  11.660   1.547 -0.2082  0.0940 -0.0212
  701MOL0     C94533   8.531  11.711   1.593  0.1437 -0.5761  0.7399
  701MOL0     C94534   8.459  11.635   1.686  0.7824 -0.4221  0.7755
  701MOL0     O94535   8.339  11.691   1.728 -0.1804 -0.9522 -0.1365
  701MOL0     C94536   8.243  11.605   1.775 -0.9595 -0.1715 -0.5232
  701MOL0     C94537   8.174  11.510   1.671  0.0790 -0.2882 -0.8104
  701MOL0     C94538   8.092  11.605   1.581 -0.5750 -0.0560  0.1698
  701MOL0     C94539   7.993  11.528   1.495  0.3026 -0.6774 -0.2845
  701MOL0     C94540   7.898  11.615   1.413 -0.4177  0.4796  0.3018
  701MOL0     C94541   7.777  11.671   1.488 -0.3089  0.4001  0.7664
  701MOL0     C94542   7.709  11.787   1.410 -0.4923 -0.4619 -0.0706
  701MOL0     C94543   7.804  11.908   1.382  0.0516 -0.3440  0.6817
  701MOL0    Cl94544   7.894  11.954   1.527 -0.1765  0.2137 -0.3753
  701MOL0     C94545   8.520  11.518   1.725  0.0537  0.8927 -0.1496
  701MOL0     C94546   8.642  11.466   1.677  0.3956  0.5220 -0.3068
  701MOL0     O94547   8.888  11.310   1.634  0.0878  1.3546 -0.9690
  701MOL0     C94548   9.055  11.471   1.358  0.5100 -0.4823 -0.0047
  701MOL0     C94549   9.183  11.473   1.305  0.4355  0.1824 -1.0043
  701MOL0     N94550   9.667  11.743   1.586 -0.6142 -0.2276  0.6601
  701MOL0     N94551   9.695  11.749   1.712 -0.0367 -0.1287  0.9851
  701MOL0     C94552  10.391  11.198   2.242  0.5741 -0.0635 -0.6083
  701MOL0     C94553  10.491  11.116   2.190 -0.7654 -0.2374 -0.3687
  701MOL0     C94554  10.800  10.865   2.056  0.1605  1.0466 -0.8630
  701MOL0     C94555  10.886  10.973   2.011 -0.0915  0.6961 -0.0043
  701MOL0     C94556  11.006  10.957   1.949  0.0833 -0.6054 -1.2934
  701MOL0     C94557  11.026  10.831   1.899 -0.6616  0.9956 -0.7145
  701MOL0     O94558  11.135  10.804   1.812  0.1972  0.6596  0.7394
  701MOL0     C94559  11.257  10.878   1.834  0.3726 -0.1567 -0.0928
  701MOL0     C94560  11.281  10.978   1.718 -0.5343  0.1167 -0.5345
  701MOL0     C94561  11.416  11.044   1.728  0.9004 -0.2664  0.3608
  701MOL0     C94562  11.439  11.117   1.604 -0.3301 -0.9845 -0.7797
  701MOL0     C94563  11.567  11.192   1.617  0.1072 -0.1200  0.4100
  701MOL0     C94564  11.665  11.254   1.642  0.4795  0.1077  0.0413
  701MOL0     C94565  10.950  10.725   1.944 -0.1830  0.5771  0.4679
  701MOL0     C94566  10.825  10.732   2.014 -0.5623  0.6719 -0.3307
  701MOL0     C94567  10.739  10.608   2.038 -0.1989 -0.3587 -0.2517
  701MOL0     H94568  10.696  11.111   2.463  2.6471 -1.4708 -4.2511
  701MOL0     H94569  10.504  11.240   2.562 -2.8293  0.1819  0.6897
  701MOL0     H94570  10.385  11.459   2.545  0.8656 -0.1664  0.6734
  701MOL0     H94571  10.401  11.490   2.366  0.6466  1.1667  1.4184
  701MOL0     H94572  10.226  11.646   2.502  0.7922 -0.3889  0.9197
  701MOL0     H94573  10.138  11.496   2.529  0.2546 -0.3315  0.9204
  701MOL0     H94574  10.173  11.472   2.262  0.3587 -0.1892  0.2290
  701MOL0     H94575  10.215  11.641   2.265  0.9761  1.6604  3.5470
  701MOL0     H94576   9.941  11.528   2.335  1.1815 -0.9937 -2.0028
  701MOL0     H94577   9.982  11.675   2.393  1.7868  0.2262  0.5095
  701MOL0     H94578   9.878  11.699   2.184  0.1280  2.1651 -2.5427
  701MOL0     H94579  10.048  11.740   2.151 -0.4272  0.6022  0.3925
  701MOL0     H94580  10.108  11.532   2.060 -0.0585 -0.3461 -1.7791
  701MOL0     H94581   9.940  11.463   2.094 -0.8456 -0.2003  0.8559
  701MOL0     H94582   9.939  11.489   1.883 -1.4365 -0.7409  1.4786
  701MOL0     H94583  10.050  11.630   1.875  0.9267  2.3829  3.9004
  701MOL0     H94584   9.750  11.611   1.936 -0.1179  0.4268  1.5627
  701MOL0     H94585   9.831  11.774   1.935  1.0954  0.5454  0.3289
  701MOL0     H94586   9.915  11.539   1.626  0.6608 -0.7006 -1.5999
  701MOL0     H94587   9.814  11.615   1.323  1.0017 -1.0120 -0.4504
  701MOL0     H94588   9.777  11.469   1.413  2.4300  0.5712 -0.1448
  701MOL0     H94589   9.551  11.501   1.424 -1.2924  0.5960 -0.8181
  701MOL0     H94590   9.560  11.660   1.360 -0.1085  0.6428  2.3245
  701MOL0     H94591   9.656  11.410   1.200 -1.5767 -0.4184 -3.6761
  701MOL0     H94592   9.641  11.574   1.134  1.1055  0.0607  0.4794
  701MOL0     H94593   9.444  11.417   1.075  2.5607  2.7780 -1.8203
  701MOL0     H94594   9.404  11.555   1.187  2.1601  0.0025  0.2990
  701MOL0     H94595   9.346  11.239   1.498  1.2220  2.0217 -0.0503
  701MOL0     H94596   9.126  11.254   1.610  2.3367  0.7754  0.9965
  701MOL0     H94597   8.715  11.728   1.487 -0.6078  1.0750  0.6492
  701MOL0     H94598   8.500  11.810   1.560  2.9907  0.5337  1.0925
  701MOL0     H94599   8.285  11.534   1.847 -0.7343 -0.6935 -1.1592
  701MOL0     H94600   8.163  11.667   1.817  0.4156  0.8050  0.7341
  701MOL0     H94601   8.251  11.450   1.623  2.5875  1.4921  0.7082
  701MOL0     H94602   8.108  11.454   1.739  1.6924  1.1241  2.1268
  701MOL0     H94603   8.031  11.677   1.635 -1.5263 -1.1636  0.6258
  701MOL0     H94604   8.160  11.667   1.521  0.2465 -3.6606 -3.0286
  701MOL0     H94605   7.930  11.483   1.572  1.6402 -1.7449  0.2301
  701MOL0     H94606   8.050  11.455   1.437 -2.3592 -3.2300  0.0849
  701MOL0     H94607   7.850  11.537   1.352  0.8733  1.7896 -2.5874
  701MOL0     H94608   7.949  11.685   1.346  4.2860 -1.1137  1.7795
  701MOL0     H94609   7.714  11.586   1.514  0.3613  0.4973  2.8189
  701MOL0     H94610   7.811  11.711   1.583  0.9696  0.1148  0.4521
  701MOL0     H94611   7.627  11.819   1.475 -1.4154 -0.6057 -1.1225
  701MOL0     H94612   7.671  11.746   1.316  1.3523 -4.8587  0.8523
  701MOL0     H94613   7.873  11.873   1.305  1.8947  1.5099  1.3922
  701MOL0     H94614   7.746  11.993   1.345  2.3839  1.1148  0.1873
  701MOL0     H94615   8.473  11.449   1.794 -2.2426  3.0394  0.6060
  701MOL0     H94616   8.667  11.373   1.726 -2.7053 -0.3450 -0.1688
  701MOL0     H94617   8.980  11.541   1.322  1.3072  0.2045 -0.3703
  701MOL0     H94618   9.206  11.543   1.224  0.2095  0.6162 -0.6968
  701MOL0     H94619  10.308  11.232   2.181  2.2334  0.0629 -2.9141
  701MOL0     H94620  10.476  11.083   2.088 -0.4185  0.0205 -0.5079
  701MOL0     H94621  10.860  11.076   2.035  0.7440  0.8305  0.3740
  701MOL0     H94622  11.067  11.045   1.931  0.6066 -0.2674  1.7183
  701MOL0     H94623  11.337  10.803   1.834  2.1452  1.6014 -1.9078
  701MOL0     H94624  11.258  10.931   1.930 -1.0424 -2.7301  1.4321
  701MOL0     H94625  11.201  11.051   1.704 -1.3016 -0.2725  1.4883
  701MOL0     H94626  11.290  10.918   1.627  3.4313  2.7463 -2.1149
  701MOL0     H94627  11.493  10.971   1.753  3.9899  2.6564  0.1583
  701MOL0     H94628  11.422  11.114   1.812 -1.5129 -1.5380  1.6952
  701MOL0     H94629  11.429  11.052   1.516 -1.8571  1.1058 -2.2593
  701MOL0     H94630  11.359  11.192   1.601 -0.1352 -0.5508  2.1702
  701MOL0     H94631  11.748  11.321   1.652  1.9838 -1.5495 -0.6508
  701MOL0     H94632  10.980  10.625   1.917 -1.8538 -0.2542  1.5360
  701MOL0     H94633  10.641  10.634   2.078  0.5551  3.7643 -0.6361
  701MOL0     H94634  10.735  10.554   1.943 -0.5561  3.7179 -2.8204
  701MOL0     H94635  10.784  10.553   2.121 -2.8450 -0.8242  0.9724
  702MOL0     O94636   5.563   2.527  10.515  0.5286  0.6862 -0.0416
  702MOL0     C94637   5.531   2.512  10.636 -0.4521  0.6848 -0.2030
  702MOL0     O94638   5.616   2.539  10.740  0.7782  0.5161  0.3268
  702MOL0     C94639   5.748   2.551  10.712 -0.5140  1.0124  0.2330
  702MOL0     C94640   5.818   2.439  10.661  0.0609  0.2094  0.4769
  702MOL0     C94641   5.956   2.435  10.639 -0.4581  0.6395 -0.4017
  702MOL0     C94642   6.031   2.552  10.660 -0.0283  0.2582  0.2322
  702MOL0     O94643   6.166   2.563  10.638 -0.1569 -0.9743  0.0922
  702MOL0     C94644   6.217   2.512  10.513  0.1532 -0.3716 -0.1864
  702MOL0     C94645   6.288   2.373  10.542  0.0761 -0.8440 -0.8941
  702MOL0     C94646   6.412   2.405  10.627  0.0828  0.3876 -0.2920
  702MOL0     C94647   6.518   2.290  10.627 -0.8184  0.3200  0.0690
  702MOL0     C94648   6.635   2.307  10.718 -0.6019  0.0429  0.0700
  702MOL0     C94649   6.605   2.366  10.858 -0.8051  0.2083 -0.0106
  702MOL0     C94650   6.734   2.391  10.935 -0.6922  0.2790  0.1649
  702MOL0     C94651   6.789   2.255  11.004  0.2055  0.2570 -0.1796
  702MOL0     N94652   6.914   2.280  11.064 -0.1514 -0.5818  0.0447
  702MOL0     C94653   6.948   2.235  11.191  0.3552 -0.3767 -0.6084
  702MOL0     C94654   7.082   2.247  11.190 -0.6477 -0.5535  0.3221
  702MOL0     C94655   7.184   2.213  11.291 -0.7054 -0.3209  0.7272
  702MOL0     C94656   7.333   2.181  11.237 -0.0465  0.4608 -1.2559
  702MOL0     C94657   7.420   2.138  11.350  0.4132  0.3192 -0.0887
  702MOL0     C94658   7.452   2.264  11.431  0.9206  1.1568  0.0046
  702MOL0     O94659   7.574   2.258  11.505  0.0644 -0.5766  0.2610
  702MOL0     C94660   7.568   2.315  11.628  0.1359 -1.0410  0.8241
  702MOL0     C94661   7.519   2.442  11.650  0.0306  0.0924 -0.5984
  702MOL0     C94662   7.517   2.495  11.776 -0.6492  0.2707 -0.8382
  702MOL0     C94663   7.557   2.421  11.891 -0.1909 -0.2733 -0.0480
  702MOL0     C94664   7.531   2.476  12.028 -0.2105  0.2817 -0.4358
  702MOL0     O94665   7.491   2.609  12.026 -0.4725 -0.6982  0.1427
  702MOL0     C94666   7.490   2.682  12.139  0.6456 -0.2070  0.4247
  702MOL0     C94667   7.581   2.789  12.138  0.1484 -0.1046  0.0291
  702MOL0     C94668   7.593   2.861  12.253 -0.6340 -0.3405 -0.5454
  702MOL0     C94669   7.521   2.836  12.364  0.9709  1.1384  0.3451
  702MOL0     O94670   7.513   2.904  12.483  0.6696 -0.3647 -0.8301
  702MOL0     C94671   7.623   2.978  12.526 -0.9172 -0.6741 -0.4817
  702MOL0     C94672   7.713   2.865  12.599 -0.2772 -0.4298  0.9718
  702MOL0     C94673   7.850   2.902  12.652  0.0558  0.2579 -0.1181
  702MOL0     C94674   7.931   2.966  12.530  0.3139  0.4276 -0.4908
  702MOL0     C94675   8.082   2.970  12.533  0.6070  0.3305  0.6626
  702MOL0     C94676   8.139   3.051  12.653 -0.2710  0.0289 -0.4872
  702MOL0     C94677   8.286   3.035  12.663 -0.3680  0.3869 -0.7553
  702MOL0     C94678   8.343   3.110  12.783  0.4909  1.3642  0.5748
  702MOL0    Cl94679   8.521   3.076  12.787 -0.0169 -0.1677  0.1717
  702MOL0     C94680   7.445   2.718  12.363  0.3446 -0.4834 -0.3594
  702MOL0     C94681   7.427   2.642  12.255 -0.4167  0.4754  0.5548
  702MOL0     O94682   7.546   2.400  12.125 -0.1548 -0.1909  0.4257
  702MOL0     C94683   7.608   2.292  11.864  0.5849  0.7775 -0.8329
  702MOL0     C94684   7.616   2.244  11.735 -0.4446 -0.0819  0.0071
  702MOL0     N94685   7.121   2.296  11.064  0.2101  0.7267  0.4503
  702MOL0     N94686   7.021   2.325  10.991 -1.0919  0.1395 -0.0743
  702MOL0     C94687   5.959   2.672  10.704 -0.3036  0.2902 -0.5449
  702MOL0     C94688   5.825   2.665  10.735 -0.6537  0.5166  0.5428
  702MOL0     C94689   5.391   2.491  10.668  1.3736 -0.3575 -1.1411
  702MOL0     C94690   5.361   2.478  10.806  0.0107 -0.4530  0.3784
  702MOL0     C94691   5.229   2.443  10.849 -0.5403 -0.4580 -0.3484
  702MOL0     C94692   5.131   2.421  10.755  0.0896 -0.6990  0.2660
  702MOL0     O94693   5.005   2.398  10.794  0.3950  0.0711 -0.4248
  702MOL0     C94694   4.928   2.511  10.832 -0.0061 -0.1725  0.3578
  702MOL0     C94695   4.806   2.456  10.916  0.3622  0.2187  0.6132
  702MOL0     C94696   4.705   2.569  10.936  0.1934 -0.7637 -0.1596
  702MOL0     C94697   4.592   2.560  10.824 -0.6753 -0.0729 -0.4668
  702MOL0     C94698   4.531   2.700  10.836 -0.2074  0.9366 -0.2317
  702MOL0     C94699   4.470   2.802  10.849  0.0007  0.1339  0.4821
  702MOL0     C94700   5.161   2.426  10.621 -0.0737 -0.3348 -0.1104
  702MOL0     C94701   5.289   2.463  10.579 -0.2491 -0.6587 -0.3278
  702MOL0     C94702   5.300   2.475  10.426  0.2192  0.1748  0.1806
  702MOL0     H94703   5.763   2.349  10.636  1.7934 -0.6145 -0.5915
  702MOL0     H94704   6.014   2.348  10.610 -2.2374 -1.9002  2.9391
  702MOL0     H94705   6.136   2.488  10.443 -2.0443  2.1693  1.2727
  702MOL0     H94706   6.293   2.579  10.472  1.8964 -2.8852 -1.3341
  702MOL0     H94707   6.337   2.328  10.455  2.8024 -1.3025  0.7751
  702MOL0     H94708   6.214   2.316  10.599  1.8503 -2.0954  0.2225
  702MOL0     H94709   6.363   2.427  10.723 -1.0470 -0.2850 -0.7011
  702MOL0     H94710   6.466   2.495  10.595 -0.2456  0.4466 -0.6899
  702MOL0     H94711   6.469   2.199  10.660 -2.0219  0.1588 -2.0320
  702MOL0     H94712   6.551   2.265  10.526 -1.2594  1.2475 -0.3196
  702MOL0     H94713   6.679   2.207  10.726 -1.7628 -0.3515  2.2785
  702MOL0     H94714   6.712   2.366  10.667  0.3207 -0.1341  1.2095
  702MOL0     H94715   6.558   2.464  10.852 -0.2726  0.4311 -0.5413
  702MOL0     H94716   6.544   2.297  10.918 -0.4664  1.7142  2.2023
  702MOL0     H94717   6.720   2.463  11.016 -0.8779  0.1162  0.2803
  702MOL0     H94718   6.806   2.430  10.863 -1.2243  0.7077 -0.1395
  702MOL0     H94719   6.716   2.232  11.082 -0.2284 -2.9502 -1.3795
  702MOL0     H94720   6.793   2.176  10.928  1.5298  0.6685 -0.5582
  702MOL0     H94721   6.891   2.184  11.268 -0.1775  1.1508  0.0517
  702MOL0     H94722   7.188   2.297  11.361 -2.1040  0.5908 -0.2236
  702MOL0     H94723   7.150   2.125  11.346  0.0893 -0.9293  0.2714
  702MOL0     H94724   7.337   2.098  11.167 -0.5438 -0.3311 -0.3709
  702MOL0     H94725   7.359   2.274  11.186  0.8918  2.2225  2.1193
  702MOL0     H94726   7.515   2.099  11.315 -0.4711 -1.9435 -0.1034
  702MOL0     H94727   7.372   2.065  11.416 -0.3965 -0.4223 -1.4434
  702MOL0     H94728   7.371   2.289  11.501  0.6972  0.1111  0.1371
  702MOL0     H94729   7.438   2.351  11.366 -0.7309 -0.6539 -2.1932
  702MOL0     H94730   7.476   2.508  11.575 -1.0708  0.1788  0.0717
  702MOL0     H94731   7.484   2.597  11.789  2.4143  1.2021  0.6792
  702MOL0     H94732   7.635   2.802  12.045 -1.9615  0.2774 -1.2121
  702MOL0     H94733   7.672   2.936  12.246 -0.5899 -0.1155  1.6396
  702MOL0     H94734   7.651   3.038  12.439 -2.4400  0.6594 -0.1033
  702MOL0     H94735   7.600   3.052  12.603  0.5710 -1.0310  0.3496
  702MOL0     H94736   7.656   2.827  12.685 -4.5377  4.0056  0.5522
  702MOL0     H94737   7.705   2.775  12.538 -0.1429  0.3628 -0.2349
  702MOL0     H94738   7.840   2.979  12.728  0.6601  2.1834 -1.8886
  702MOL0     H94739   7.897   2.808  12.684 -0.2224 -1.1856 -3.4418
  702MOL0     H94740   7.894   3.065  12.504  2.6567  1.6022  0.4175
  702MOL0     H94741   7.911   2.911  12.437 -2.0082  1.4528 -0.6651
  702MOL0     H94742   8.113   2.998  12.432  0.9264 -0.8022  0.4322
  702MOL0     H94743   8.116   2.866  12.542  2.2375  0.3833 -3.1101
  702MOL0     H94744   8.123   3.158  12.639  3.8283  0.7897 -0.5323
  702MOL0     H94745   8.101   3.008  12.746  1.8641 -0.0427  0.4193
  702MOL0     H94746   8.334   3.080  12.576 -1.5993  4.7197  0.5770
  702MOL0     H94747   8.315   2.931  12.679 -2.4653  0.0591  1.5337
  702MOL0     H94748   8.339   3.219  12.791 -2.0813  1.4402 -0.9306
  702MOL0     H94749   8.294   3.075  12.875  1.1166 -0.2746  0.3216
  702MOL0     H94750   7.394   2.678  12.450  3.1388 -5.2745 -0.6198
  702MOL0     H94751   7.376   2.547  12.269 -1.9628  1.1481 -0.3289
  702MOL0     H94752   7.625   2.235  11.954  2.6634 -0.2814 -1.8363
  702MOL0     H94753   7.646   2.140  11.726  0.6424  0.1926  0.3016
  702MOL0     H94754   6.016   2.764  10.712 -0.2998  0.2164  0.5380
  702MOL0     H94755   5.770   2.750  10.774 -0.9758  1.1969 -1.3061
  702MOL0     H94756   5.440   2.500  10.876  2.2183 -4.0413 -0.7442
  702MOL0     H94757   5.212   2.439  10.956  3.0662 -0.2877  0.3607
  702MOL0     H94758   4.889   2.567  10.747  1.2211 -2.4799 -1.8776
  702MOL0     H94759   4.987   2.569  10.904 -1.4724  2.4312 -0.4152
  702MOL0     H94760   4.845   2.434  11.016 -0.6520  0.0419  0.9758
  702MOL0     H94761   4.754   2.370  10.873  0.1276 -0.1504  1.6125
  702MOL0     H94762   4.760   2.663  10.932  0.1846 -0.7258  0.5338
  702MOL0     H94763   4.656   2.548  11.031 -1.2565  3.0827  0.1210
  702MOL0     H94764   4.627   2.547  10.721 -1.1751 -2.0410 -0.4165
  702MOL0     H94765   4.520   2.479  10.837 -0.6592  0.0922  0.7948
  702MOL0     H94766   4.410   2.891  10.858 -0.6844 -0.2090 -0.4753
  702MOL0     H94767   5.074   2.415  10.556 -0.8893  3.8284 -0.0618
  702MOL0     H94768   5.206   2.456  10.373  2.9946 -2.5103 -4.4993
  702MOL0     H94769   5.327   2.577  10.398 -0.5242  0.2115 -0.4413
  702MOL0     H94770   5.370   2.398  10.391 -1.0811 -0.2251 -1.6856
  703MOL0     O94771   6.216   3.580   3.114 -0.1378  0.2075 -0.4674
  703MOL0     C94772   6.225   3.461   3.116 -0.3677 -0.3725 -0.1410
  703MOL0     O94773   6.325   3.387   3.177  0.7499 -0.1224  0.2048
  703MOL0     C94774   6.450   3.431   3.189  0.3471 -0.3339  0.4893
  703MOL0     C94775   6.502   3.544   3.125  1.2261 -0.0055 -0.0151
  703MOL0     C94776   6.637   3.575   3.134  0.7632  1.0288  0.5537
  703MOL0     C94777   6.719   3.496   3.213 -0.8447  0.0972 -0.0473
  703MOL0     O94778   6.850   3.517   3.226  0.2501 -1.2180 -1.3942
  703MOL0     C94779   6.934   3.549   3.115  0.1463  0.0616  0.3012
  703MOL0     C94780   6.999   3.422   3.084 -0.5291 -0.2092 -0.3329
  703MOL0     C94781   7.126   3.449   3.007  0.6026 -0.4119 -1.3351
  703MOL0     C94782   7.208   3.332   2.967 -0.0401  0.4670  0.8327
  703MOL0     C94783   7.346   3.383   2.931 -0.5077 -0.4848  0.4813
  703MOL0     C94784   7.455   3.277   2.906 -1.0847  0.3262 -0.7187
  703MOL0     C94785   7.505   3.217   3.042  0.0172  0.3676  0.7745
  703MOL0     C94786   7.601   3.105   3.011 -0.2659  0.0499  0.5070
  703MOL0     N94787   7.733   3.166   2.979 -0.0493  0.0532  1.1713
  703MOL0     C94788   7.796   3.155   2.851 -0.6305 -0.2714  0.0038
  703MOL0     C94789   7.900   3.245   2.852  0.2156  1.2545 -1.1042
  703MOL0     C94790   7.998   3.268   2.744 -1.1922  0.2568  0.3259
  703MOL0     C94791   7.922   3.273   2.621  0.6481 -0.0850  0.5087
  703MOL0     C94792   8.009   3.357   2.522  0.0080  0.5739  0.1253
  703MOL0     C94793   7.969   3.344   2.378  1.0158 -0.0929  1.0881
  703MOL0     O94794   7.830   3.350   2.355  0.3160  0.1619  0.5120
  703MOL0     C94795   7.763   3.470   2.364  0.5941  0.0233 -0.0535
  703MOL0     C94796   7.623   3.465   2.393 -0.2493 -0.1121 -0.8103
  703MOL0     C94797   7.543   3.578   2.376  0.2873  0.8506 -0.4675
  703MOL0     C94798   7.601   3.703   2.344 -0.1876 -1.4662 -0.4493
  703MOL0     C94799   7.513   3.826   2.339  0.3273  0.0959  0.8036
  703MOL0     O94800   7.576   3.943   2.373  0.7130 -0.0777 -0.8762
  703MOL0     C94801   7.498   4.049   2.416  0.5589 -0.7898  0.4044
  703MOL0     C94802   7.381   4.048   2.499  0.0194  0.6159  0.6756
  703MOL0     C94803   7.307   4.167   2.525 -1.1622 -0.1902  0.5318
  703MOL0     C94804   7.337   4.286   2.462 -0.8731  0.0512  0.4532
  703MOL0     O94805   7.256   4.391   2.483  0.7833 -0.0118  0.3446
  703MOL0     C94806   7.228   4.477   2.376  0.2761 -0.1693 -0.4979
  703MOL0     C94807   7.189   4.607   2.450  0.1502  0.2383 -0.8536
  703MOL0     C94808   7.144   4.726   2.366  0.1515 -1.0408 -0.1291
  703MOL0     C94809   6.990   4.753   2.380  0.5427  0.2493 -0.6830
  703MOL0     C94810   6.934   4.875   2.283 -0.9483  0.6117  0.0653
  703MOL0     C94811   7.005   5.006   2.319  0.7458 -0.1464 -0.4774
  703MOL0     C94812   6.939   5.114   2.239  1.2872 -0.4881  0.2493
  703MOL0     C94813   7.012   5.246   2.258 -0.0871  0.4868 -0.4186
  703MOL0    Cl94814   6.961   5.304   2.423  0.3389 -0.1522 -0.0370
  703MOL0     C94815   7.458   4.298   2.393 -0.1056 -0.0080 -0.3049
  703MOL0     C94816   7.531   4.181   2.369  0.7288  1.2839 -0.4393
  703MOL0     O94817   7.398   3.809   2.304 -0.7941  0.5599  0.2277
  703MOL0     C94818   7.742   3.721   2.343 -0.4189  0.1681 -0.5377
  703MOL0     C94819   7.823   3.601   2.345  0.4487  0.4099  0.0574
  703MOL0     N94820   7.905   3.298   2.985  0.7005 -0.5030  0.2596
  703MOL0     N94821   7.806   3.253   3.055  0.8884 -0.9318  0.0656
  703MOL0     C94822   6.663   3.388   3.285  0.0883 -0.8791 -0.4853
  703MOL0     C94823   6.530   3.358   3.280 -0.0586 -0.4027  0.8012
  703MOL0     C94824   6.117   3.373   3.065 -0.1364 -0.3495 -0.7975
  703MOL0     C94825   6.055   3.282   3.158  0.1390  0.7813 -0.0327
  703MOL0     C94826   5.954   3.194   3.114 -0.8778 -0.1073  0.4812
  703MOL0     C94827   5.921   3.190   2.979  1.3089  0.4165 -0.0468
  703MOL0     O94828   5.822   3.104   2.936  0.0769 -0.3636 -0.8382
  703MOL0     C94829   5.698   3.095   3.017  0.4451  0.2555  1.2251
  703MOL0     C94830   5.579   3.178   2.970 -0.1439 -0.0827 -0.1989
  703MOL0     C94831   5.609   3.327   2.983 -0.2916  0.6287 -0.5488
  703MOL0     C94832   5.653   3.384   3.121 -0.1478 -0.8709  0.6291
  703MOL0     C94833   5.588   3.304   3.231 -0.4806  0.4634  0.0288
  703MOL0     C94834   5.525   3.233   3.304 -0.1993 -0.2882 -0.4517
  703MOL0     C94835   5.978   3.280   2.890  0.5092  0.3250 -0.0633
  703MOL0     C94836   6.085   3.365   2.930 -0.0474  0.2025 -0.0881
  703MOL0     C94837   6.169   3.436   2.822 -0.2709  0.4596  0.5770
  703MOL0     H94838   6.439   3.577   3.043  1.8013 -0.7664 -0.7893
  703MOL0     H94839   6.693   3.649   3.079  3.0313 -1.0227 -0.0540
  703MOL0     H94840   6.874   3.585   3.031 -1.6651 -1.1810  1.0115
  703MOL0     H94841   7.008   3.629   3.127 -1.4160  2.3729 -3.4613
  703MOL0     H94842   6.925   3.364   3.027 -1.0563  1.9860 -1.9983
  703MOL0     H94843   7.029   3.368   3.174  3.1716 -1.1951 -1.9801
  703MOL0     H94844   7.187   3.514   3.071  0.0487  0.4682 -1.6716
  703MOL0     H94845   7.104   3.506   2.916 -0.2502  1.7861  0.1616
  703MOL0     H94846   7.232   3.260   3.047  2.4333 -1.3442 -1.3733
  703MOL0     H94847   7.160   3.278   2.885  1.5885 -2.5226  1.6868
  703MOL0     H94848   7.335   3.429   2.832 -0.5924 -1.6067 -0.0466
  703MOL0     H94849   7.371   3.455   3.010  0.9719  0.6481 -0.9404
  703MOL0     H94850   7.427   3.198   2.835 -0.6386 -1.3237  0.8847
  703MOL0     H94851   7.537   3.323   2.850 -2.1419 -1.3577 -3.9065
  703MOL0     H94852   7.428   3.160   3.096  2.0744 -0.6239  2.8881
  703MOL0     H94853   7.535   3.298   3.109 -2.1432  1.3985  0.5606
  703MOL0     H94854   7.601   3.032   3.092  2.3967 -1.1407 -0.4628
  703MOL0     H94855   7.568   3.043   2.927 -0.3431 -2.4392  2.2751
  703MOL0     H94856   7.760   3.102   2.763 -1.8285  3.7100 -2.1485
  703MOL0     H94857   8.049   3.363   2.764  1.4941 -0.7934 -0.9539
  703MOL0     H94858   8.070   3.186   2.756 -1.7639 -0.0055  2.2727
  703MOL0     H94859   7.903   3.170   2.587 -2.5550  0.2729  0.8839
  703MOL0     H94860   7.822   3.316   2.631  0.4527 -0.3896 -0.0649
  703MOL0     H94861   8.109   3.320   2.545 -1.4751 -3.1820  1.4124
  703MOL0     H94862   7.995   3.461   2.551  1.3697  1.2515 -1.4501
  703MOL0     H94863   8.000   3.245   2.344  1.9575  0.7646 -0.6535
  703MOL0     H94864   8.002   3.427   2.316 -3.8527  0.7652 -0.8504
  703MOL0     H94865   7.584   3.368   2.419  2.7654 -1.3951 -0.6822
  703MOL0     H94866   7.436   3.564   2.387  0.3396 -0.2009 -1.1319
  703MOL0     H94867   7.339   3.965   2.554 -0.1792  1.7410  2.3027
  703MOL0     H94868   7.213   4.163   2.579 -1.7452 -0.8904 -0.4823
  703MOL0     H94869   7.313   4.484   2.308  0.4920  1.1808 -0.0984
  703MOL0     H94870   7.140   4.432   2.328 -0.4056  1.5403 -0.9016
  703MOL0     H94871   7.131   4.581   2.539  1.5222 -0.6286 -0.1727
  703MOL0     H94872   7.278   4.639   2.503 -2.8577 -0.1402  5.3141
  703MOL0     H94873   7.197   4.814   2.403  2.1742 -2.1375 -0.2909
  703MOL0     H94874   7.167   4.728   2.259 -1.4047 -0.2544 -0.4860
  703MOL0     H94875   6.960   4.781   2.481 -0.4230  0.7500 -1.1000
  703MOL0     H94876   6.924   4.667   2.364 -0.8850  1.2291 -0.2454
  703MOL0     H94877   6.828   4.886   2.309 -0.7815 -0.6807  1.4423
  703MOL0     H94878   6.960   4.845   2.182  1.2906 -0.7824  0.9787
  703MOL0     H94879   6.997   5.012   2.428  0.5283 -1.9369 -0.3594
  703MOL0     H94880   7.113   5.008   2.299  0.9672  1.0548  0.7530
  703MOL0     H94881   6.839   5.120   2.284  1.7378 -0.0535  1.2261
  703MOL0     H94882   6.932   5.095   2.131  0.0676 -0.5007  0.3117
  703MOL0     H94883   7.120   5.233   2.263  0.1243  2.3003  2.9272
  703MOL0     H94884   6.976   5.319   2.185  0.6677  2.1126  0.7902
  703MOL0     H94885   7.492   4.399   2.373  4.6289 -0.3595  4.1489
  703MOL0     H94886   7.621   4.194   2.310  0.7426 -1.4893 -1.1665
  703MOL0     H94887   7.790   3.816   2.324 -2.6849  2.0254  2.2572
  703MOL0     H94888   7.928   3.605   2.322  0.3242 -4.7060 -3.0186
  703MOL0     H94889   6.723   3.332   3.356 -4.3267 -3.2146  1.7873
  703MOL0     H94890   6.476   3.282   3.336 -1.4206 -0.1741 -0.1551
  703MOL0     H94891   6.080   3.275   3.263 -1.2042 -2.3438  0.1760
  703MOL0     H94892   5.913   3.128   3.189 -0.6854  0.2340  0.8901
  703MOL0     H94893   5.717   3.100   3.125  1.1238  0.6132  1.0909
  703MOL0     H94894   5.668   2.991   3.000 -1.3749  0.6412  1.8079
  703MOL0     H94895   5.485   3.149   3.017  0.1074  1.1546  1.1348
  703MOL0     H94896   5.555   3.154   2.866  0.6308 -1.3391 -0.1084
  703MOL0     H94897   5.511   3.373   2.967 -0.8305  0.4960  1.9098
  703MOL0     H94898   5.673   3.362   2.901 -0.8566  3.1386  0.0042
  703MOL0     H94899   5.762   3.373   3.126 -0.2501 -1.4961  1.8613
  703MOL0     H94900   5.626   3.490   3.130  1.0610 -0.5983  1.3528
  703MOL0     H94901   5.456   3.195   3.377  0.0405  1.4612  0.7692
  703MOL0     H94902   5.960   3.263   2.784  0.8383 -1.8031  0.1770
  703MOL0     H94903   6.200   3.361   2.749 -2.3853 -1.2336  1.3001
  703MOL0     H94904   6.117   3.521   2.776  0.8935  1.8872  1.7644
  703MOL0     H94905   6.262   3.477   2.862  0.1659 -0.1243  0.1709
  704MOL0     O94906  11.112   1.331  10.108 -0.0622  0.4513 -0.0639
  704MOL0     C94907  11.031   1.416  10.060  0.8165 -1.0341  0.3564
  704MOL0     O94908  11.036   1.554  10.079 -0.2297 -0.1072  0.4810
  704MOL0     C94909  11.156   1.605  10.134 -0.1603 -0.2848 -0.2375
  704MOL0     C94910  11.289   1.562  10.117 -0.2038 -0.9312 -0.4654
  704MOL0     C94911  11.398   1.645  10.164  0.8736  0.3848 -0.2814
  704MOL0     C94912  11.366   1.754  10.236  0.8959 -0.1547 -0.3096
  704MOL0     O94913  11.470   1.826  10.285  1.1791  0.5056  0.4505
  704MOL0     C94914  11.479   1.824  10.431  0.5372  0.3752  0.6760
  704MOL0     C94915  11.614   1.889  10.481 -0.2090  0.0990  0.4556
  704MOL0     C94916  11.743   1.809  10.448  0.7407 -0.3096  0.0017
  704MOL0     C94917  11.757   1.674  10.515 -0.5899  0.1038  0.3305
  704MOL0     C94918  11.871   1.592  10.455  0.1266 -0.0277 -0.4034
  704MOL0     C94919  11.879   1.460  10.532  0.2706 -1.4031 -0.2839
  704MOL0     C94920  11.987   1.369  10.476  0.1888  0.3342  0.2869
  704MOL0     C94921  11.995   1.221  10.539 -0.5458  0.7238  0.0598
  704MOL0     N94922  11.982   1.109  10.445  0.3365  0.2056 -0.4511
  704MOL0     C94923  11.871   1.089  10.367  0.6982  0.3231 -0.8337
  704MOL0     C94924  11.892   0.973  10.303 -0.1576 -0.1756 -0.1373
  704MOL0     C94925  11.803   0.893  10.211 -0.7003 -0.6753  0.3929
  704MOL0     C94926  11.753   0.988  10.103 -0.2264  0.1176  0.0723
  704MOL0     C94927  11.692   0.916   9.984  0.4597  1.2976 -0.1371
  704MOL0     C94928  11.671   1.016   9.867  0.7828 -0.1381  0.0969
  704MOL0     O94929  11.564   1.111   9.895  0.0719 -0.8251  0.1811
  704MOL0     C94930  11.563   1.227   9.816  0.9307 -0.0902  0.1226
  704MOL0     C94931  11.479   1.339   9.845  0.0599 -0.9173  1.1634
  704MOL0     C94932  11.475   1.456   9.760  0.1437 -0.2451 -0.0448
  704MOL0     C94933  11.539   1.454   9.636 -1.2189 -0.2426  0.5014
  704MOL0     C94934  11.521   1.565   9.541 -0.4327  0.6053 -0.0714
  704MOL0     O94935  11.621   1.576   9.453 -0.1448  0.4511  0.0150
  704MOL0     C94936  11.617   1.658   9.347  0.5117 -0.7427 -0.0356
  704MOL0     C94937  11.502   1.682   9.269  0.2816 -0.2441 -0.0143
  704MOL0     C94938  11.509   1.764   9.155 -0.2832  0.6626 -0.3829
  704MOL0     C94939  11.626   1.806   9.102  0.3170 -0.5385  0.0997
  704MOL0     O94940  11.612   1.876   8.991  0.6929  0.5523  0.6333
  704MOL0     C94941  11.731   1.914   8.921  0.4639  0.0894  0.7411
  704MOL0     C94942  11.796   2.045   8.980  1.0324  0.4190 -0.5175
  704MOL0     C94943  11.675   2.144   9.005 -0.1828 -0.0478 -0.3721
  704MOL0     C94944  11.631   2.159   9.145  0.1380  0.6606 -0.4334
  704MOL0     C94945  11.526   2.268   9.144 -0.4330 -0.1436  0.5986
  704MOL0     C94946  11.482   2.290   9.290 -0.3789 -0.4650 -0.4184
  704MOL0     C94947  11.379   2.408   9.314  0.3336  0.0516  0.6177
  704MOL0     C94948  11.327   2.423   9.454 -0.5541  0.2354 -1.0812
  704MOL0    Cl94949  11.199   2.294   9.482  0.2460 -0.0518  0.2050
  704MOL0     C94950  11.745   1.777   9.173 -0.7872  0.1813  0.2724
  704MOL0     C94951  11.742   1.696   9.287  0.2268  0.6416 -0.8211
  704MOL0     O94952  11.428   1.642   9.555 -0.6102  0.3183  0.1223
  704MOL0     C94953  11.626   1.346   9.614 -0.3277  0.3804 -0.8967
  704MOL0     C94954  11.633   1.240   9.694  0.8937  0.1878 -0.2675
  704MOL0     N94955  12.021   0.937  10.331  0.0109 -0.0432  0.2461
  704MOL0     N94956  12.078   1.021  10.410  0.1226  0.0362 -0.3445
  704MOL0     C94957  11.236   1.787  10.270 -0.0662 -0.3349  0.0785
  704MOL0     C94958  11.133   1.724  10.205 -0.0370 -0.3963  0.2757
  704MOL0     C94959  10.931   1.373   9.973  0.5805 -0.2766 -0.4468
  704MOL0     C94960  10.846   1.274  10.036 -0.2932  0.6035  0.6269
  704MOL0     C94961  10.756   1.206   9.948 -0.1229  0.0904 -0.7894
  704MOL0     C94962  10.749   1.224   9.807  0.3532  0.4398 -0.1181
  704MOL0     O94963  10.656   1.146   9.741  1.2984 -0.2784 -0.3411
  704MOL0     C94964  10.526   1.192   9.737 -0.3792 -0.5797  0.4231
  704MOL0     C94965  10.444   1.100   9.832  0.3559 -1.0027 -0.6645
  704MOL0     C94966  10.295   1.114   9.804 -0.1475 -0.1497  0.2178
  704MOL0     C94967  10.243   1.073   9.668 -1.7696 -0.0167  0.3256
  704MOL0     C94968  10.268   0.932   9.632 -0.4271  0.5141 -0.6490
  704MOL0     C94969  10.283   0.815   9.615  0.3975 -0.0231  0.5790
  704MOL0     C94970  10.835   1.317   9.753 -0.7091  0.1198  0.0657
  704MOL0     C94971  10.925   1.400   9.831  0.9196  1.0413  0.0291
  704MOL0     C94972  11.019   1.492   9.759  0.5785  0.6324  1.2089
  704MOL0     H94973  11.296   1.471  10.059 -0.7984 -0.8444 -0.6894
  704MOL0     H94974  11.498   1.622  10.129 -0.2253 -1.3142 -2.5723
  704MOL0     H94975  11.392   1.874  10.473 -0.1920 -1.1900  1.0870
  704MOL0     H94976  11.467   1.722  10.469 -1.5604  0.4535  0.3428
  704MOL0     H94977  11.624   1.897  10.590 -0.1165  3.0215  0.3197
  704MOL0     H94978  11.628   1.989  10.440  0.4558  0.8403  2.3891
  704MOL0     H94979  11.831   1.871  10.464  1.1830 -0.5498 -1.3833
  704MOL0     H94980  11.722   1.799  10.341 -1.6861 -0.3404  0.4182
  704MOL0     H94981  11.786   1.684  10.620  0.0324  0.8560  0.1013
  704MOL0     H94982  11.664   1.618  10.506 -0.6810  0.2621  0.2848
  704MOL0     H94983  11.845   1.556  10.355  3.5357 -2.0996 -0.7090
  704MOL0     H94984  11.969   1.641  10.457  0.6841 -0.7461 -3.6391
  704MOL0     H94985  11.891   1.481  10.639  2.5611 -0.3942 -0.6873
  704MOL0     H94986  11.787   1.408  10.504  0.7198 -1.2163 -2.2690
  704MOL0     H94987  12.080   1.423  10.497 -0.4380  1.8894 -0.7429
  704MOL0     H94988  11.965   1.352  10.371  2.7960 -0.5135 -0.1835
  704MOL0     H94989  12.085   1.221  10.602 -2.1673  2.4956  2.5912
  704MOL0     H94990  11.910   1.213  10.608 -1.6869  1.7532 -1.1844
  704MOL0     H94991  11.783   1.152  10.354  0.6063  0.4723  0.3807
  704MOL0     H94992  11.862   0.813  10.164 -2.1641 -1.2045 -0.5951
  704MOL0     H94993  11.719   0.854  10.269 -2.2665  2.5996  0.5688
  704MOL0     H94994  11.682   1.059  10.146 -0.1000  0.8140 -0.8377
  704MOL0     H94995  11.840   1.045  10.069 -0.0380 -0.8978 -1.2484
  704MOL0     H94996  11.600   0.864  10.012  3.5125 -4.7269  0.2638
  704MOL0     H94997  11.761   0.834   9.960 -0.1304  0.5527  0.6797
  704MOL0     H94998  11.638   0.965   9.776  1.2147 -2.2292  1.0464
  704MOL0     H94999  11.765   1.063   9.838 -0.0182  2.4576  1.3949
  704MOL0     H95000  11.424   1.355   9.937 -1.3528  1.8748 -0.0531
  704MOL0     H95001  11.431   1.552   9.787  0.7768 -0.1490  0.6597
  704MOL0     H95002  11.407   1.643   9.306  2.1909 -0.0604  6.3284
  704MOL0     H95003  11.420   1.792   9.098 -0.3871 -3.3317 -2.5510
  704MOL0     H95004  11.799   1.828   8.919 -1.3874 -1.4368  1.1568
  704MOL0     H95005  11.690   1.949   8.826  1.3928 -0.2517  0.1961
  704MOL0     H95006  11.856   2.026   9.069  1.2811 -0.6528 -0.9033
  704MOL0     H95007  11.866   2.082   8.903  1.5646 -1.1838 -0.8423
  704MOL0     H95008  11.693   2.247   8.971  0.3752  0.2879  0.9041
  704MOL0     H95009  11.591   2.127   8.937 -2.1361  3.0620  1.0508
  704MOL0     H95010  11.720   2.185   9.202  0.4387 -3.7267  1.5517
  704MOL0     H95011  11.593   2.066   9.189  0.2163  0.7115 -0.2583
  704MOL0     H95012  11.443   2.222   9.089  0.3761 -3.4833  1.9001
  704MOL0     H95013  11.565   2.364   9.109  0.8644  0.0569  2.4451
  704MOL0     H95014  11.438   2.197   9.326  1.5214 -1.0822  0.4367
  704MOL0     H95015  11.575   2.307   9.344 -0.5177  2.5563 -0.9485
  704MOL0     H95016  11.299   2.403   9.239 -0.6399  0.6852  1.5791
  704MOL0     H95017  11.416   2.503   9.275 -2.6478  0.4141 -1.7509
  704MOL0     H95018  11.405   2.414   9.530  0.4977 -1.8768 -2.3157
  704MOL0     H95019  11.284   2.523   9.465 -3.1801 -0.8698 -0.4560
  704MOL0     H95020  11.845   1.785   9.131  0.4606 -4.7150  1.6747
  704MOL0     H95021  11.837   1.674   9.335  0.4677  0.7108 -1.2675
  704MOL0     H95022  11.694   1.341   9.529  3.9031  1.8261  2.0849
  704MOL0     H95023  11.696   1.159   9.658 -1.8460 -1.9870 -0.5017
  704MOL0     H95024  11.219   1.881  10.323 -3.1891  0.3822 -1.9849
  704MOL0     H95025  11.029   1.752  10.203 -0.9895 -3.4636 -2.8889
  704MOL0     H95026  10.835   1.246  10.140 -1.3397 -2.8338 -0.2442
  704MOL0     H95027  10.695   1.127   9.990 -1.7667  1.2585 -0.9024
  704MOL0     H95028  10.502   1.204   9.631 -0.0617  1.4621  0.5352
  704MOL0     H95029  10.530   1.298   9.767  0.6536  0.1700 -2.1481
  704MOL0     H95030  10.478   1.117   9.934 -0.5332  1.8480 -0.7596
  704MOL0     H95031  10.478   1.000   9.801  3.4269 -0.3681  0.3043
  704MOL0     H95032  10.260   1.211   9.838 -3.6889 -1.5390  0.9697
  704MOL0     H95033  10.252   1.038   9.870 -1.6338  0.7389  0.2981
  704MOL0     H95034  10.134   1.083   9.676 -2.2483 -1.0233 -3.1572
  704MOL0     H95035  10.276   1.126   9.578 -1.5181 -4.8338 -2.7658
  704MOL0     H95036  10.300   0.711   9.597  0.0021  0.4021 -3.2006
  704MOL0     H95037  10.833   1.325   9.645 -1.8326 -0.7056  0.0157
  704MOL0     H95038  10.976   1.519   9.661  0.3181  3.5449  2.0268
  704MOL0     H95039  11.021   1.591   9.806 -4.8515  1.3120  0.6282
  704MOL0     H95040  11.118   1.447   9.747 -0.5729 -1.3763 -2.0929
  705MOL0     O95041   3.424   2.936   4.057 -0.0083  0.3339 -0.8933
  705MOL0     C95042   3.377   3.028   4.108  0.3200 -0.4011  0.4741
  705MOL0     O95043   3.303   3.025   4.226 -0.2157 -0.0550  0.4021
  705MOL0     C95044   3.279   2.906   4.298 -0.7341 -0.2356  0.4277
  705MOL0     C95045   3.257   2.784   4.235 -0.7033  0.0668 -0.1901
  705MOL0     C95046   3.218   2.669   4.310 -0.0100 -0.1942  0.7369
  705MOL0     C95047   3.207   2.680   4.459  0.7606 -0.3355  0.3046
  705MOL0     O95048   3.163   2.567   4.529 -0.6740  0.6795 -0.6297
  705MOL0     C95049   3.273   2.484   4.572 -0.1951  0.4809 -0.4070
  705MOL0     C95050   3.231   2.342   4.536  0.5487 -0.2026  0.0377
  705MOL0     C95051   3.349   2.246   4.532 -0.0103 -0.2649 -0.3801
  705MOL0     C95052   3.292   2.098   4.526  0.0191  0.3172 -1.5969
  705MOL0     C95053   3.395   1.997   4.479 -0.4780  0.6478  0.2231
  705MOL0     C95054   3.458   2.010   4.337  0.4758 -0.1401 -1.1541
  705MOL0     C95055   3.352   2.018   4.228  0.1144 -0.1314 -0.0065
  705MOL0     C95056   3.395   2.108   4.116 -0.1996  0.0578  0.8520
  705MOL0     N95057   3.414   2.251   4.150  0.3745 -0.4026 -0.1421
  705MOL0     C95058   3.550   2.298   4.159  0.2763  0.4399 -0.0448
  705MOL0     C95059   3.532   2.425   4.169 -0.5525  0.3876  1.0481
  705MOL0     C95060   3.628   2.535   4.172  0.2346 -0.7277 -0.3730
  705MOL0     C95061   3.599   2.634   4.285 -0.7525 -0.2830 -0.3359
  705MOL0     C95062   3.703   2.748   4.298 -0.5741  0.1952 -0.1551
  705MOL0     C95063   3.644   2.846   4.393 -1.0202 -0.1989  0.4179
  705MOL0     O95064   3.739   2.941   4.439  0.3299  0.8905  0.7704
  705MOL0     C95065   3.669   3.046   4.495 -0.1051  0.0356  0.7533
  705MOL0     C95066   3.721   3.174   4.480  0.1747 -0.3771 -0.3057
  705MOL0     C95067   3.686   3.281   4.560  0.0504 -0.9237 -0.1896
  705MOL0     C95068   3.576   3.272   4.646  0.2455 -0.2107  0.2687
  705MOL0     C95069   3.539   3.391   4.735 -0.0979 -0.9383 -0.3408
  705MOL0     O95070   3.605   3.510   4.719 -0.2305  0.4434 -0.7301
  705MOL0     C95071   3.574   3.626   4.785  1.1108  0.0391 -0.1352
  705MOL0     C95072   3.459   3.663   4.861 -0.1335 -0.0459  0.2787
  705MOL0     C95073   3.458   3.790   4.927 -0.0901  0.1755 -1.4646
  705MOL0     C95074   3.550   3.897   4.902  1.2462  1.2456  0.6253
  705MOL0     O95075   3.554   4.021   4.962 -0.4291  0.4623  0.0619
  705MOL0     C95076   3.428   4.090   4.967 -0.7714  0.0710 -0.3492
  705MOL0     C95077   3.336   4.093   4.846 -0.2299  0.2823  0.0339
  705MOL0     C95078   3.422   4.169   4.746  0.4792 -0.3570  0.4163
  705MOL0     C95079   3.323   4.169   4.616  0.0306  0.0853 -0.0939
  705MOL0     C95080   3.404   4.208   4.487  0.6681 -0.3438  0.4341
  705MOL0     C95081   3.503   4.102   4.439  1.7312 -1.0776  0.3167
  705MOL0     C95082   3.618   4.158   4.350 -0.2563  0.0196  0.8185
  705MOL0     C95083   3.718   4.240   4.432  0.4896  0.2597 -0.3100
  705MOL0    Cl95084   3.880   4.200   4.387  0.0989 -0.0508  0.1614
  705MOL0     C95085   3.658   3.848   4.834 -0.1438  0.1150 -0.1066
  705MOL0     C95086   3.669   3.725   4.778 -1.1286  0.4214 -0.2431
  705MOL0     O95087   3.454   3.371   4.826 -0.0678  0.2935  1.4584
  705MOL0     C95088   3.513   3.142   4.658 -0.6628 -0.6210  0.4887
  705MOL0     C95089   3.557   3.031   4.576 -0.1765 -0.0205 -1.3756
  705MOL0     N95090   3.398   2.458   4.170 -0.7030 -0.0109 -0.2794
  705MOL0     N95091   3.322   2.356   4.151 -0.4743  0.0698 -0.4760
  705MOL0     C95092   3.237   2.806   4.519  0.3415  0.7748  0.4134
  705MOL0     C95093   3.260   2.913   4.437 -0.3715  0.5246  0.4413
  705MOL0     C95094   3.399   3.154   4.040  0.4775  0.4191  0.5566
  705MOL0     C95095   3.397   3.151   3.898 -0.0571 -0.6533 -0.4257
  705MOL0     C95096   3.442   3.266   3.830  0.6119 -0.4462 -0.2397
  705MOL0     C95097   3.479   3.385   3.892  0.2787 -0.1739  0.0975
  705MOL0     O95098   3.520   3.496   3.826 -0.0143 -0.2521 -0.5410
  705MOL0     C95099   3.586   3.489   3.702  0.0293  0.5198  0.7218
  705MOL0     C95100   3.663   3.615   3.656 -0.2959 -0.2749 -0.0708
  705MOL0     C95101   3.575   3.736   3.620  0.0009 -1.2098 -0.4184
  705MOL0     C95102   3.485   3.721   3.499 -0.1346 -1.2719 -1.3349
  705MOL0     C95103   3.565   3.698   3.375  0.0327 -0.3805  0.3796
  705MOL0     C95104   3.636   3.665   3.283  0.3249 -1.4084 -0.8583
  705MOL0     C95105   3.474   3.387   4.027  0.0089 -0.3460 -0.1792
  705MOL0     C95106   3.431   3.277   4.103  0.0182 -0.1848 -0.0819
  705MOL0     C95107   3.437   3.297   4.248  0.1833 -0.2078  0.5728
  705MOL0     H95108   3.263   2.778   4.127  2.7428 -0.6216 -0.0671
  705MOL0     H95109   3.203   2.578   4.253 -0.1027  0.2118  0.1073
  705MOL0     H95110   3.361   2.502   4.510  0.6149 -1.4910  0.0921
  705MOL0     H95111   3.300   2.468   4.677  0.8694 -3.1704 -1.0954
  705MOL0     H95112   3.177   2.340   4.441 -0.7618  0.2099  0.7507
  705MOL0     H95113   3.157   2.315   4.612  0.6185 -0.8316 -0.1170
  705MOL0     H95114   3.420   2.250   4.615  1.1384 -2.7475 -1.1396
  705MOL0     H95115   3.409   2.262   4.442  0.9441 -1.7943 -0.0425
  705MOL0     H95116   3.261   2.054   4.621  0.8550 -2.4005 -2.4818
  705MOL0     H95117   3.207   2.112   4.458  0.3875  1.8529 -1.7833
  705MOL0     H95118   3.473   1.989   4.556  0.1591 -0.5233 -0.5155
  705MOL0     H95119   3.362   1.895   4.500 -0.7402  0.4056 -1.2777
  705MOL0     H95120   3.525   2.095   4.328  1.7721 -1.2658 -2.6931
  705MOL0     H95121   3.526   1.926   4.324  1.9440  0.8134  0.0970
  705MOL0     H95122   3.255   2.053   4.265 -0.4229  0.3536 -1.7419
  705MOL0     H95123   3.329   1.919   4.188 -1.0425 -1.2919  3.2750
  705MOL0     H95124   3.483   2.057   4.075  0.5252  1.8574  0.0599
  705MOL0     H95125   3.323   2.101   4.034 -2.4339 -2.6002  2.8519
  705MOL0     H95126   3.647   2.249   4.149  0.3457  0.9253 -2.2914
  705MOL0     H95127   3.731   2.501   4.183  0.4201  0.0400  0.4221
  705MOL0     H95128   3.627   2.587   4.076 -0.1670 -0.5554 -0.2773
  705MOL0     H95129   3.501   2.682   4.272 -0.6496  0.6822  1.9106
  705MOL0     H95130   3.603   2.586   4.383  0.4114  0.2138 -0.1244
  705MOL0     H95131   3.706   2.791   4.198 -0.8149 -2.8491 -1.5628
  705MOL0     H95132   3.803   2.710   4.323 -1.1581 -0.4685  1.2822
  705MOL0     H95133   3.603   2.800   4.483  2.2332  1.5660  3.0251
  705MOL0     H95134   3.564   2.896   4.337  0.5442  2.4978  0.4207
  705MOL0     H95135   3.801   3.174   4.407  0.4047 -0.7215 -0.0567
  705MOL0     H95136   3.741   3.375   4.565  2.9340 -2.4991 -0.7067
  705MOL0     H95137   3.385   3.587   4.887  0.3134 -1.8351 -3.0557
  705MOL0     H95138   3.394   3.797   5.015  0.5764 -0.4879 -0.9089
  705MOL0     H95139   3.368   4.043   5.046 -4.2803  1.5324 -1.9081
  705MOL0     H95140   3.456   4.190   5.000  0.2021 -1.1310  2.8310
  705MOL0     H95141   3.336   3.990   4.809  0.9810 -0.1260  1.0810
  705MOL0     H95142   3.250   4.154   4.874  1.5942  2.9091  0.2484
  705MOL0     H95143   3.450   4.269   4.782  2.7409 -0.1898 -1.6258
  705MOL0     H95144   3.510   4.115   4.712  3.0508  3.9536 -0.4575
  705MOL0     H95145   3.234   4.231   4.626 -1.8220 -2.2297 -1.1001
  705MOL0     H95146   3.285   4.067   4.607  1.9213 -0.6842  0.0352
  705MOL0     H95147   3.448   4.306   4.507 -2.0876  0.4755  3.2938
  705MOL0     H95148   3.334   4.235   4.407 -0.3823  0.9576  1.7400
  705MOL0     H95149   3.530   4.036   4.522 -3.5581 -5.0478 -0.6042
  705MOL0     H95150   3.442   4.034   4.380 -1.4416  0.8152  1.1875
  705MOL0     H95151   3.566   4.220   4.277  2.8493  0.0381 -1.6127
  705MOL0     H95152   3.672   4.078   4.298 -3.5950 -0.7076 -1.8656
  705MOL0     H95153   3.711   4.348   4.416  1.0893  0.5971  1.4984
  705MOL0     H95154   3.700   4.218   4.538  1.6245  0.4608 -0.0593
  705MOL0     H95155   3.751   3.905   4.836  0.9130 -1.3819  4.1137
  705MOL0     H95156   3.755   3.697   4.717 -1.9534 -2.4540 -0.2404
  705MOL0     H95157   3.439   3.134   4.737 -0.5294  1.5394  0.8826
  705MOL0     H95158   3.514   2.933   4.595  2.4276 -0.6878  2.1575
  705MOL0     H95159   3.228   2.826   4.626 -1.3173 -0.4128  0.5455
  705MOL0     H95160   3.267   3.006   4.492 -0.0058  0.1800  0.9806
  705MOL0     H95161   3.387   3.055   3.847  1.0048 -0.0266 -1.8914
  705MOL0     H95162   3.440   3.271   3.721  0.2859  0.8229 -0.1839
  705MOL0     H95163   3.522   3.457   3.619  1.2639 -2.8405  0.8805
  705MOL0     H95164   3.661   3.411   3.721 -2.9953 -2.0197  3.3563
  705MOL0     H95165   3.716   3.590   3.563 -4.6948 -6.3184 -1.5595
  705MOL0     H95166   3.731   3.645   3.736 -1.5955 -1.7324  1.6557
  705MOL0     H95167   3.647   3.819   3.617 -0.4022 -0.8500 -0.1284
  705MOL0     H95168   3.514   3.756   3.708 -0.2251 -1.5886 -0.4858
  705MOL0     H95169   3.419   3.635   3.507  0.1860 -1.4048  0.3644
  705MOL0     H95170   3.435   3.819   3.494 -0.1853 -1.1970  0.1389
  705MOL0     H95171   3.681   3.627   3.193 -1.6153 -1.9149 -1.6808
  705MOL0     H95172   3.508   3.472   4.085  1.2874 -1.8189  1.3372
  705MOL0     H95173   3.490   3.386   4.284 -2.5442  0.7805  2.4458
  705MOL0     H95174   3.335   3.312   4.284  0.3195 -0.1107  0.9281
  705MOL0     H95175   3.472   3.205   4.296 -3.6368 -1.7499  0.7554
  706MOL0     O95176   6.003   2.660  11.476  0.6531 -0.3809 -0.2240
  706MOL0     C95177   6.073   2.670  11.573  0.0671  0.7101 -0.5666
  706MOL0     O95178   6.077   2.584  11.679 -0.2453  0.4509 -0.5084
  706MOL0     C95179   5.974   2.515  11.721 -0.1891 -0.3773  0.4183
  706MOL0     C95180   5.988   2.448  11.837  0.6200  0.3658 -0.7884
  706MOL0     C95181   5.875   2.377  11.893 -0.4383  0.5244 -0.5563
  706MOL0     C95182   5.749   2.391  11.843 -0.4019 -0.2928 -0.1459
  706MOL0     O95183   5.650   2.317  11.908  0.7553  0.1469  0.2059
  706MOL0     C95184   5.533   2.399  11.944  0.1319  0.8566 -0.1761
  706MOL0     C95185   5.405   2.320  11.954 -1.1558 -0.6413  0.3152
  706MOL0     C95186   5.400   2.196  12.043  0.4583 -0.2230  0.3052
  706MOL0     C95187   5.454   2.198  12.186  0.2696  0.4705 -0.0616
  706MOL0     C95188   5.486   2.060  12.252  0.1833 -0.0151  0.0803
  706MOL0     C95189   5.477   2.054  12.403  1.5405  0.0968  0.2938
  706MOL0     C95190   5.474   1.907  12.455 -0.1243  0.2604 -0.2132
  706MOL0     C95191   5.474   1.875  12.608 -1.1409 -1.2336 -0.5461
  706MOL0     N95192   5.569   1.969  12.685  0.0163  0.6330 -0.3839
  706MOL0     C95193   5.702   1.928  12.720 -0.6560  0.0897 -0.4292
  706MOL0     C95194   5.744   2.025  12.806 -0.3332 -0.4020 -0.9849
  706MOL0     C95195   5.865   2.030  12.901 -0.8316  0.0564 -0.0786
  706MOL0     C95196   5.986   1.949  12.837 -0.4461  0.2572 -0.6228
  706MOL0     C95197   6.120   1.973  12.912  1.1906 -0.1051  0.1270
  706MOL0     C95198   6.232   1.888  12.852  1.1193 -1.3938 -0.2902
  706MOL0     O95199   6.206   1.747  12.868 -0.7462  0.1493  0.2716
  706MOL0     C95200   6.253   1.660  12.773 -0.9649  0.7077 -0.5123
  706MOL0     C95201   6.355   1.563  12.807 -0.4982 -1.0146 -0.3309
  706MOL0     C95202   6.413   1.492  12.710  0.2992 -0.4327  0.0193
  706MOL0     C95203   6.365   1.490  12.579 -0.6823 -0.2069  0.4722
  706MOL0     C95204   6.424   1.400  12.473  0.4173 -0.7007  0.2630
  706MOL0     O95205   6.541   1.347  12.521 -0.1722 -0.5654 -0.9733
  706MOL0     C95206   6.590   1.238  12.459  0.2305 -1.6524  0.4297
  706MOL0     C95207   6.708   1.253  12.380 -0.4094  0.9693  0.2279
  706MOL0     C95208   6.751   1.137  12.320 -0.6543 -0.2513  0.4370
  706MOL0     C95209   6.688   1.018  12.317 -0.0810 -0.0755 -0.1806
  706MOL0     O95210   6.731   0.905  12.247 -0.6266  0.2042 -0.7447
  706MOL0     C95211   6.881   0.890  12.248 -0.2873 -0.0591  0.4122
  706MOL0     C95212   6.936   0.863  12.397 -0.3587 -0.3256 -0.2544
  706MOL0     C95213   7.093   0.838  12.393 -0.1568  0.1664 -0.4561
  706MOL0     C95214   7.144   0.785  12.530  0.2297  1.2567 -1.0147
  706MOL0     C95215   7.297   0.812  12.542 -0.0519 -0.4057 -0.8623
  706MOL0     C95216   7.334   0.805  12.694 -0.3757  0.0562  0.1824
  706MOL0     C95217   7.479   0.828  12.717 -0.1569  0.5973  0.1945
  706MOL0     C95218   7.569   0.739  12.635  1.0149 -1.1738 -0.4872
  706MOL0    Cl95219   7.746   0.753  12.690  0.2108 -0.2157  0.0462
  706MOL0     C95220   6.570   1.014  12.385  0.1389  0.2234  0.4172
  706MOL0     C95221   6.520   1.119  12.459  0.3888 -0.0836  0.2105
  706MOL0     O95222   6.361   1.376  12.370 -0.9041  0.2227  0.0798
  706MOL0     C95223   6.250   1.555  12.551  0.5609 -0.7089  0.0701
  706MOL0     C95224   6.202   1.642  12.649 -0.1071  1.1159  0.2934
  706MOL0     N95225   5.644   2.122  12.815  0.2234 -0.1413 -0.9193
  706MOL0     N95226   5.549   2.084  12.745  0.6151 -0.0331 -1.3873
  706MOL0     C95227   5.739   2.458  11.719  0.7727 -0.7192 -1.5221
  706MOL0     C95228   5.848   2.507  11.655 -0.3974 -1.1630  0.5635
  706MOL0     C95229   6.156   2.792  11.572 -0.6582  0.2485 -0.5553
  706MOL0     C95230   6.127   2.898  11.480 -0.0670 -0.0214 -1.1927
  706MOL0     C95231   6.170   3.033  11.494  1.1241 -0.1206 -0.6107
  706MOL0     C95232   6.263   3.057  11.592 -0.7949  0.3342  0.2054
  706MOL0     O95233   6.302   3.187  11.615  0.3814  0.7290  0.0501
  706MOL0     C95234   6.394   3.214  11.724  0.5804 -0.5272  0.6715
  706MOL0     C95235   6.374   3.350  11.787 -1.2457 -0.5933 -0.0795
  706MOL0     C95236   6.439   3.370  11.925  0.1533  0.0707 -0.0450
  706MOL0     C95237   6.474   3.511  11.952 -1.0430 -0.8513  0.4144
  706MOL0     C95238   6.362   3.602  11.963 -0.4425  0.7140  0.0719
  706MOL0     C95239   6.263   3.660  11.971 -0.2155  0.8301 -0.4069
  706MOL0     C95240   6.326   2.944  11.657  0.9480 -0.9659  0.1107
  706MOL0     C95241   6.272   2.814  11.646  0.1068  0.0209 -0.5147
  706MOL0     C95242   6.350   2.701  11.709  0.0689 -0.4718 -0.1755
  706MOL0     H95243   6.082   2.441  11.891  0.3857 -2.7016 -0.5835
  706MOL0     H95244   5.885   2.318  11.983 -0.2308  1.6823  0.1956
  706MOL0     H95245   5.547   2.444  12.042  4.1657  1.7928 -1.0126
  706MOL0     H95246   5.527   2.486  11.878  1.8024  0.7451 -0.5175
  706MOL0     H95247   5.367   2.300  11.853 -0.0897 -0.4197 -0.1383
  706MOL0     H95248   5.327   2.386  11.994  0.0132  0.2015  1.2909
  706MOL0     H95249   5.452   2.115  11.991 -1.3090 -1.0746 -0.1795
  706MOL0     H95250   5.295   2.177  12.064  0.5610 -0.4235  0.6514
  706MOL0     H95251   5.538   2.268  12.182 -1.6853  2.9575 -0.3411
  706MOL0     H95252   5.393   2.253  12.258  1.1633  1.0269  0.3018
  706MOL0     H95253   5.422   1.987  12.202 -0.8609  1.0347 -0.1582
  706MOL0     H95254   5.590   2.037  12.224  1.2583  3.5388  0.5945
  706MOL0     H95255   5.561   2.094  12.460 -0.2197  0.3143  2.9273
  706MOL0     H95256   5.386   2.109  12.427  1.1636 -0.5976  0.5047
  706MOL0     H95257   5.567   1.870  12.412  1.3381  0.1589  2.7821
  706MOL0     H95258   5.379   1.867  12.416  0.5283 -0.3094 -1.2502
  706MOL0     H95259   5.374   1.899  12.645 -0.2880 -1.3592  2.0031
  706MOL0     H95260   5.500   1.770  12.626  0.8616 -0.2198  3.3915
  706MOL0     H95261   5.756   1.837  12.696  0.2716  1.0779 -2.2804
  706MOL0     H95262   5.874   2.132  12.940 -4.0360 -0.1265  1.5534
  706MOL0     H95263   5.832   1.972  12.988  1.3068  0.5464  1.1346
  706MOL0     H95264   5.949   1.847  12.842 -1.8978  0.6834 -1.8403
  706MOL0     H95265   5.985   1.983  12.733 -4.0355 -2.3870 -1.6343
  706MOL0     H95266   6.106   1.953  13.019  0.7795  0.4475  0.1787
  706MOL0     H95267   6.158   2.075  12.895  1.3059 -0.4486 -1.9170
  706MOL0     H95268   6.322   1.906  12.911 -0.8249  1.4201  2.1116
  706MOL0     H95269   6.240   1.920  12.747  0.2072 -0.3571 -0.0647
  706MOL0     H95270   6.406   1.559  12.903  0.4269  1.3119 -0.6697
  706MOL0     H95271   6.505   1.442  12.739  0.6685  0.1367 -0.1351
  706MOL0     H95272   6.763   1.347  12.384 -3.3889  2.8011  2.1259
  706MOL0     H95273   6.845   1.151  12.269 -0.8634  1.7108  0.5202
  706MOL0     H95274   6.904   0.799  12.193  0.2754 -0.7985  1.8094
  706MOL0     H95275   6.929   0.971  12.193  0.4341 -1.0104 -0.4019
  706MOL0     H95276   6.916   0.940  12.472  2.0690 -0.5534  0.7097
  706MOL0     H95277   6.888   0.772  12.433  0.8569 -0.9783 -0.2199
  706MOL0     H95278   7.113   0.761  12.318  1.7135  2.5957 -2.6467
  706MOL0     H95279   7.147   0.927  12.360  0.2560 -1.2752 -4.1752
  706MOL0     H95280   7.125   0.678  12.545  0.1550  1.5443  1.1783
  706MOL0     H95281   7.102   0.837  12.617 -0.8867  1.4056 -1.6132
  706MOL0     H95282   7.324   0.916  12.521 -0.8004  0.1031  0.5417
  706MOL0     H95283   7.351   0.737  12.484 -0.0042  0.6348 -2.2146
  706MOL0     H95284   7.266   0.866  12.754 -1.3880 -1.5286  0.7102
  706MOL0     H95285   7.303   0.700  12.707 -1.5719 -0.0472 -2.7914
  706MOL0     H95286   7.493   0.802  12.823 -0.8774  2.0282  0.6731
  706MOL0     H95287   7.510   0.933  12.708  1.3664  0.0226 -2.1216
  706MOL0     H95288   7.529   0.638  12.643 -3.3886  0.4990  3.7343
  706MOL0     H95289   7.560   0.773  12.532  3.8456 -0.9038 -0.7244
  706MOL0     H95290   6.517   0.921  12.369 -0.0163  0.2641  0.6732
  706MOL0     H95291   6.420   1.119  12.501  0.6191  1.0268  0.7930
  706MOL0     H95292   6.209   1.547  12.450 -2.1609 -2.4167  1.1719
  706MOL0     H95293   6.114   1.705  12.642 -1.7457 -0.9934  0.7648
  706MOL0     H95294   5.639   2.451  11.676 -0.4506 -1.7783  1.2296
  706MOL0     H95295   5.828   2.548  11.556  0.7423 -0.9161  0.4150
  706MOL0     H95296   6.059   2.879  11.398 -0.8652 -1.7064 -0.1829
  706MOL0     H95297   6.133   3.117  11.435 -0.9626 -0.9553 -0.5833
  706MOL0     H95298   6.494   3.213  11.681  0.5415  0.7659  0.4973
  706MOL0     H95299   6.385   3.135  11.799 -0.7874  1.9307  3.3399
  706MOL0     H95300   6.267   3.370  11.796 -0.9567  1.2765 -0.2519
  706MOL0     H95301   6.406   3.428  11.717 -1.4747 -0.1800  0.2692
  706MOL0     H95302   6.534   3.315  11.931  0.6442  0.9475  0.5557
  706MOL0     H95303   6.375   3.332  12.005  1.1630  2.1900  1.8965
  706MOL0     H95304   6.525   3.516  12.049  0.1751  0.8318 -0.2625
  706MOL0     H95305   6.542   3.548  11.875 -0.1711 -2.1436  0.5272
  706MOL0     H95306   6.168   3.706  11.991 -2.2597 -2.8649 -0.7773
  706MOL0     H95307   6.419   2.953  11.712  1.4237 -0.9597 -0.6676
  706MOL0     H95308   6.372   2.723  11.814 -0.6682  2.3256 -0.5119
  706MOL0     H95309   6.295   2.607  11.699  1.0196 -1.1348  0.6538
  706MOL0     H95310   6.440   2.688  11.649 -0.7233  1.0129 -1.7793
  707MOL0     O95311   8.016   8.167   9.034 -0.0795 -0.5752 -0.2979
  707MOL0     C95312   8.004   8.287   9.049  0.9701 -0.0348  0.0054
  707MOL0     O95313   7.973   8.371   8.957  0.5040 -0.4973  0.5206
  707MOL0     C95314   7.992   8.343   8.824 -0.4657  0.3202 -0.6423
  707MOL0     C95315   7.962   8.219   8.765 -0.4098 -0.8296  0.7515
  707MOL0     C95316   7.981   8.198   8.632 -0.5789  0.5744 -0.4919
  707MOL0     C95317   8.039   8.294   8.547  0.5580  0.0690  0.6430
  707MOL0     O95318   8.077   8.271   8.418  0.5613  0.2906  0.5489
  707MOL0     C95319   8.029   8.154   8.350  0.6075  0.2129  1.1981
  707MOL0     C95320   7.876   8.129   8.316  0.0634 -0.0101 -0.0740
  707MOL0     C95321   7.825   8.197   8.191 -0.5298 -0.4739 -0.3115
  707MOL0     C95322   7.841   8.344   8.196  0.3392 -0.7219  0.4528
  707MOL0     C95323   7.786   8.431   8.086 -0.8611  0.8425 -1.1637
  707MOL0     C95324   7.792   8.587   8.129 -0.0794 -0.4592 -0.8091
  707MOL0     C95325   7.855   8.676   8.025 -1.3322  0.1678  0.2960
  707MOL0     C95326   8.013   8.649   8.013 -0.2066  0.6003  0.3915
  707MOL0     N95327   8.083   8.742   7.916  0.4920 -0.9539  0.3082
  707MOL0     C95328   8.166   8.851   7.952  0.2375 -0.7527 -0.4852
  707MOL0     C95329   8.212   8.893   7.837 -1.0490  0.6769  0.1910
  707MOL0     C95330   8.324   8.987   7.833  0.6248 -0.0647  0.6848
  707MOL0     C95331   8.290   9.130   7.791  0.6180  0.2130  0.0386
  707MOL0     C95332   8.243   9.134   7.645  0.5770 -0.0991 -0.1415
  707MOL0     C95333   8.233   9.273   7.586 -0.2620 -0.0162  0.1869
  707MOL0     O95334   8.342   9.357   7.639  0.2217  0.0014  0.8464
  707MOL0     C95335   8.357   9.477   7.583 -0.5690 -0.2789 -0.2862
  707MOL0     C95336   8.281   9.519   7.478  0.2328  0.1281  0.3528
  707MOL0     C95337   8.302   9.635   7.403 -0.2626  1.2698 -0.3271
  707MOL0     C95338   8.395   9.730   7.446  0.6546  0.3628 -0.3503
  707MOL0     C95339   8.410   9.864   7.375 -1.1250  0.8074 -0.5686
  707MOL0     O95340   8.322   9.887   7.263  0.3002 -0.6176 -0.3285
  707MOL0     C95341   8.345  10.016   7.211  0.5968  0.5367 -0.3806
  707MOL0     C95342   8.470  10.047   7.154 -1.0214  1.2554 -0.5179
  707MOL0     C95343   8.500  10.170   7.113  0.1463 -1.0972  0.1383
  707MOL0     C95344   8.408  10.273   7.123 -0.4504 -0.6049  0.0121
  707MOL0     O95345   8.450  10.403   7.104 -0.6655  0.2821 -0.5019
  707MOL0     C95346   8.480  10.465   7.226 -0.4518 -0.5328 -0.3069
  707MOL0     C95347   8.559  10.591   7.191 -0.1921 -0.3786  0.8827
  707MOL0     C95348   8.614  10.674   7.313  0.2068  0.7925  0.6146
  707MOL0     C95349   8.668  10.815   7.282  0.2746 -0.1726 -0.5098
  707MOL0     C95350   8.555  10.922   7.294 -0.2743  0.7199 -0.3237
  707MOL0     C95351   8.439  10.930   7.195 -0.9037  0.8369 -0.2611
  707MOL0     C95352   8.365  11.062   7.199 -0.7184 -0.2174 -0.1430
  707MOL0     C95353   8.266  11.059   7.086 -0.5154 -0.3238 -0.1060
  707MOL0    Cl95354   8.353  11.101   6.936 -0.3765  0.1582  0.0113
  707MOL0     C95355   8.282  10.250   7.170  1.1652  0.0478 -0.6357
  707MOL0     C95356   8.252  10.119   7.218 -0.3384  0.5265 -0.1147
  707MOL0     O95357   8.488   9.944   7.430 -0.1641 -0.4766 -0.4259
  707MOL0     C95358   8.469   9.693   7.559 -0.5361 -0.6293  0.1858
  707MOL0     C95359   8.451   9.574   7.631 -0.6098 -0.2555  0.4013
  707MOL0     N95360   8.148   8.829   7.731 -0.1525  0.4582  0.0940
  707MOL0     N95361   8.084   8.738   7.784  0.4234  0.0990  0.8472
  707MOL0     C95362   8.052   8.422   8.602 -0.9875 -0.2746  0.1210
  707MOL0     C95363   8.035   8.444   8.734  0.0951 -0.3361 -0.2924
  707MOL0     C95364   8.004   8.338   9.189 -0.4880  0.2935 -0.2728
  707MOL0     C95365   8.063   8.257   9.286  0.2178  0.2762  0.2484
  707MOL0     C95366   8.080   8.301   9.421 -0.0243  0.5946  0.1940
  707MOL0     C95367   8.028   8.419   9.468  0.2285 -0.7173 -0.6643
  707MOL0     O95368   8.030   8.470   9.596  1.1291  0.1451 -0.3268
  707MOL0     C95369   8.123   8.419   9.690 -0.3686 -0.1984  0.2799
  707MOL0     C95370   8.140   8.530   9.793  0.6500 -0.3822 -0.2862
  707MOL0     C95371   8.232   8.473   9.899 -0.1317  0.1369 -0.0463
  707MOL0     C95372   8.217   8.553  10.033  0.5152  0.2125  0.7593
  707MOL0     C95373   8.294   8.682  10.033 -0.0589  1.1463 -0.4677
  707MOL0     C95374   8.363   8.773  10.026 -0.1109  0.0369 -0.0114
  707MOL0     C95375   7.968   8.497   9.370 -0.6704 -0.2701 -0.5108
  707MOL0     C95376   7.952   8.458   9.238 -0.4584  0.2535  0.4692
  707MOL0     C95377   7.899   8.566   9.145  0.6827 -0.1132 -0.0337
  707MOL0     H95378   7.922   8.133   8.819 -0.5577  0.9717  3.7293
  707MOL0     H95379   7.946   8.100   8.600  3.5312  0.1905 -4.7744
  707MOL0     H95380   8.087   8.137   8.259  4.7413  1.4035  3.3381
  707MOL0     H95381   8.069   8.067   8.401  0.9439 -0.3233  0.0555
  707MOL0     H95382   7.809   8.154   8.399  1.0146  2.5382  0.0287
  707MOL0     H95383   7.865   8.023   8.294  1.2002 -0.5305  1.6294
  707MOL0     H95384   7.715   8.200   8.190 -0.5210  1.1970  0.2886
  707MOL0     H95385   7.869   8.164   8.097  2.8208  2.7380 -0.0884
  707MOL0     H95386   7.790   8.372   8.288  0.0310 -1.5656  0.5412
  707MOL0     H95387   7.945   8.373   8.212  0.1351 -0.1268  0.7272
  707MOL0     H95388   7.847   8.423   7.996  1.4315  0.4399  0.3644
  707MOL0     H95389   7.683   8.404   8.060 -1.7272  3.2840 -0.5640
  707MOL0     H95390   7.687   8.614   8.144  0.0274  0.2938 -1.3774
  707MOL0     H95391   7.849   8.598   8.222  1.4023 -1.1305 -1.5917
  707MOL0     H95392   7.836   8.782   8.043  1.5570  0.4369  2.6345
  707MOL0     H95393   7.819   8.650   7.925  1.4103 -1.3542 -0.4043
  707MOL0     H95394   8.065   8.660   8.109 -0.3821 -0.6581  0.6587
  707MOL0     H95395   8.034   8.547   7.980  3.1043  0.8302  1.4574
  707MOL0     H95396   8.183   8.889   8.052 -2.8700 -0.4591  0.0346
  707MOL0     H95397   8.379   8.991   7.928  2.4209  0.6313 -0.3359
  707MOL0     H95398   8.393   8.945   7.759 -2.7139 -1.2609 -2.0009
  707MOL0     H95399   8.206   9.174   7.846 -0.0367 -1.1679  0.1845
  707MOL0     H95400   8.374   9.200   7.790 -0.5929  1.7463 -1.3647
  707MOL0     H95401   8.141   9.098   7.635  0.6666 -0.4326  0.1473
  707MOL0     H95402   8.300   9.065   7.582  1.8456  0.0024  0.8508
  707MOL0     H95403   8.134   9.313   7.609 -0.4845 -1.0702  1.1197
  707MOL0     H95404   8.235   9.265   7.476  1.2247  3.8990 -0.2308
  707MOL0     H95405   8.196   9.462   7.441  0.7210 -1.2766  1.2956
  707MOL0     H95406   8.251   9.633   7.307  0.4904  1.5769 -0.7440
  707MOL0     H95407   8.540   9.966   7.135 -0.1046  2.1869 -1.1824
  707MOL0     H95408   8.599  10.189   7.071  1.4581 -1.7436  2.7402
  707MOL0     H95409   8.394  10.496   7.287 -2.0872  1.7887 -3.4987
  707MOL0     H95410   8.538  10.397   7.289 -6.2584 -1.7815  4.6132
  707MOL0     H95411   8.641  10.560   7.125 -1.0536  0.9079 -0.8847
  707MOL0     H95412   8.499  10.659   7.128 -1.1561 -1.5578  0.4862
  707MOL0     H95413   8.530  10.661   7.383 -2.5135 -0.4191 -2.6215
  707MOL0     H95414   8.692  10.614   7.361 -1.1159 -0.9130  0.7279
  707MOL0     H95415   8.730  10.829   7.193  0.7144  1.5806  0.0242
  707MOL0     H95416   8.738  10.840   7.362 -1.4054  2.7911  0.2035
  707MOL0     H95417   8.601  11.021   7.285  0.9676 -0.0360 -3.1173
  707MOL0     H95418   8.512  10.914   7.394 -0.8108  1.6516 -0.4592
  707MOL0     H95419   8.486  10.916   7.097 -1.3644 -1.7288 -0.1811
  707MOL0     H95420   8.378  10.840   7.212  1.1909 -1.4401 -3.5760
  707MOL0     H95421   8.429  11.151   7.206 -0.6919 -0.1567 -1.0420
  707MOL0     H95422   8.306  11.074   7.290 -0.4459 -1.0131  0.1435
  707MOL0     H95423   8.214  10.963   7.077 -2.1649  0.7318 -4.3760
  707MOL0     H95424   8.196  11.142   7.097  2.3385  2.3001 -0.4747
  707MOL0     H95425   8.207  10.328   7.162 -0.7387 -1.6171 -0.0579
  707MOL0     H95426   8.153  10.094   7.257  0.5835 -2.8536  0.3733
  707MOL0     H95427   8.546   9.766   7.583  0.2167 -0.5854 -2.0984
  707MOL0     H95428   8.524   9.569   7.712 -0.3973  1.5159  0.3513
  707MOL0     H95429   8.100   8.511   8.560 -0.6674 -1.0879 -1.3131
  707MOL0     H95430   8.067   8.536   8.781 -2.2565 -1.0053  3.0153
  707MOL0     H95431   8.108   8.160   9.267  0.5538 -0.1872  2.9872
  707MOL0     H95432   8.134   8.242   9.495 -0.8221 -1.3466 -0.7022
  707MOL0     H95433   8.224   8.386   9.663 -0.7644 -1.5184  0.3878
  707MOL0     H95434   8.076   8.337   9.744 -1.1394 -1.8516 -2.6863
  707MOL0     H95435   8.043   8.543   9.843  0.4886 -3.2766  0.3316
  707MOL0     H95436   8.184   8.620   9.749  1.4887  0.8887  2.8806
  707MOL0     H95437   8.336   8.486   9.867  0.5207 -1.4567  1.2760
  707MOL0     H95438   8.226   8.365   9.910 -2.1318  0.0528 -1.4726
  707MOL0     H95439   8.112   8.564  10.059  0.7843  2.2423  1.1291
  707MOL0     H95440   8.252   8.488  10.114  0.1320 -0.5490  0.3260
  707MOL0     H95441   8.440   8.848  10.027 -0.0570 -0.0111  0.8382
  707MOL0     H95442   7.938   8.598   9.399 -0.1069  0.1151 -1.2380
  707MOL0     H95443   7.806   8.537   9.094  0.1612  0.0917  0.7853
  707MOL0     H95444   7.874   8.658   9.199 -1.2506 -0.5732 -0.0609
  707MOL0     H95445   7.974   8.589   9.069 -0.7709  3.5631 -0.5947
  708MOL0     O95446  11.037   6.318   0.176  0.6256  0.4701 -0.9541
  708MOL0     C95447  11.159   6.298   0.179 -0.6519  0.7100 -0.1174
  708MOL0     O95448  11.240   6.271   0.070 -0.6346  0.3297 -0.4655
  708MOL0     C95449  11.191   6.278  -0.057 -0.0680 -0.4263 -0.3250
  708MOL0     C95450  11.224   6.186  -0.156 -0.8147  0.3286  0.9309
  708MOL0     C95451  11.197   6.210  -0.288 -0.2366 -0.7936  1.2077
  708MOL0     C95452  11.145   6.327  -0.332  0.7117 -0.8473  0.8954
  708MOL0     O95453  11.127   6.341  -0.469  0.6901  0.6409  0.4597
  708MOL0     C95454  11.006   6.407  -0.516  1.2193 -0.0978  0.2823
  708MOL0     C95455  10.961   6.371  -0.659 -0.5386 -0.2239 -0.6145
  708MOL0     C95456  11.068   6.417  -0.766 -0.9048 -0.0304  0.1230
  708MOL0     C95457  11.031   6.372  -0.914  0.7406 -0.2841 -0.0238
  708MOL0     C95458  11.127   6.422  -1.017  0.1284 -0.1872  0.2510
  708MOL0     C95459  11.102   6.395  -1.168 -0.1814  0.5793 -1.1248
  708MOL0     C95460  10.961   6.419  -1.220 -0.2818  0.2104  1.0431
  708MOL0     C95461  10.894   6.556  -1.194  0.2843 -0.6455 -0.7052
  708MOL0     N95462  10.937   6.663  -1.276 -0.4795 -0.2327 -0.3914
  708MOL0     C95463  11.038   6.749  -1.257  0.3936  0.7237 -0.0600
  708MOL0     C95464  11.043   6.825  -1.368 -0.4175  0.4741  0.3938
  708MOL0     C95465  11.139   6.932  -1.408  0.5700  0.2906 -0.4779
  708MOL0     C95466  11.264   6.866  -1.469 -0.2953  0.1070  0.4954
  708MOL0     C95467  11.379   6.967  -1.485  0.8015  0.3652 -0.7331
  708MOL0     C95468  11.484   6.925  -1.580  0.8905 -0.1815  0.5231
  708MOL0     O95469  11.595   7.011  -1.586 -0.4471 -0.3096  0.1497
  708MOL0     C95470  11.688   7.020  -1.482  0.7495  0.0622 -0.7430
  708MOL0     C95471  11.693   6.932  -1.376  0.2143 -0.0156  0.3244
  708MOL0     C95472  11.781   6.960  -1.265 -0.5626  0.1629  0.5028
  708MOL0     C95473  11.863   7.069  -1.270 -0.0241 -0.2908 -0.6276
  708MOL0     C95474  11.948   7.094  -1.151  0.3325  0.7025 -0.9143
  708MOL0     O95475  11.992   7.224  -1.128  0.1940 -0.0559  0.1293
  708MOL0     C95476  12.076   7.259  -1.023  0.2515 -0.2656  0.3374
  708MOL0     C95477  12.168   7.362  -1.033  0.0440  0.4227  0.4382
  708MOL0     C95478  12.254   7.402  -0.932 -0.0453 -0.0849  0.3372
  708MOL0     C95479  12.258   7.327  -0.815 -0.7035  0.1074  0.8396
  708MOL0     O95480  12.328   7.381  -0.715 -0.4400 -0.5584  0.1675
  708MOL0     C95481  12.300   7.351  -0.580 -0.7084 -0.3139 -1.0462
  708MOL0     C95482  12.396   7.241  -0.528 -0.5597 -0.8173  0.4057
  708MOL0     C95483  12.430   7.259  -0.379  0.1851  0.3994  0.1777
  708MOL0     C95484  12.576   7.200  -0.350 -0.4639  0.5272  0.1428
  708MOL0     C95485  12.616   7.204  -0.201  0.1767 -0.4353 -0.2905
  708MOL0     C95486  12.753   7.149  -0.175  0.7545 -0.7530 -0.9253
  708MOL0     C95487  12.755   7.110  -0.032  0.0482  0.2924 -0.2591
  708MOL0     C95488  12.900   7.074   0.002 -0.3879  0.1801 -0.1302
  708MOL0    Cl95489  12.951   7.080   0.176  0.0006  0.1208  0.2673
  708MOL0     C95490  12.166   7.222  -0.798  0.7625  0.9786  0.7844
  708MOL0     C95491  12.074   7.196  -0.898  0.1099 -0.1923  1.0432
  708MOL0     O95492  11.971   6.989  -1.081  0.3711 -0.4140  0.6787
  708MOL0     C95493  11.861   7.156  -1.384 -0.4116  0.2782  0.3102
  708MOL0     C95494  11.781   7.125  -1.490 -0.0824  0.6681  1.5662
  708MOL0     N95495  10.955   6.775  -1.454 -0.1762  0.0704  0.3886
  708MOL0     N95496  10.892   6.678  -1.399  0.1204 -0.7577 -0.1724
  708MOL0     C95497  11.104   6.429  -0.239 -0.7003  0.4527 -0.1036
  708MOL0     C95498  11.118   6.396  -0.094 -0.5818 -0.6676  0.7338
  708MOL0     C95499  11.237   6.310   0.310  1.2081  0.4977  0.1050
  708MOL0     C95500  11.363   6.370   0.330  0.4171 -0.4091 -0.0579
  708MOL0     C95501  11.430   6.383   0.450  0.4394  0.5331 -0.3389
  708MOL0     C95502  11.372   6.328   0.562  0.0209 -0.4679  0.1428
  708MOL0     O95503  11.440   6.333   0.679 -0.6294  0.6940 -0.4152
  708MOL0     C95504  11.385   6.349   0.807 -0.0238 -0.2479  0.7986
  708MOL0     C95505  11.502   6.349   0.912  0.1438  0.5496 -0.2527
  708MOL0     C95506  11.496   6.466   1.008  0.8421 -0.5559 -0.2169
  708MOL0     C95507  11.613   6.561   0.957 -0.2729  0.0501  0.0179
  708MOL0     C95508  11.615   6.595   0.813 -0.0339  0.9209 -0.6411
  708MOL0     C95509  11.645   6.625   0.700  0.3039  0.4440  0.4024
  708MOL0     C95510  11.244   6.278   0.547 -0.1798  0.5081 -1.2814
  708MOL0     C95511  11.174   6.257   0.432 -0.0038  0.8532 -0.0398
  708MOL0     C95512  11.051   6.167   0.431  0.4584  0.0044  0.0864
  708MOL0     H95513  11.286   6.101  -0.130 -0.3800  0.4096  0.1918
  708MOL0     H95514  11.234   6.135  -0.357  2.3363  0.1490  1.4326
  708MOL0     H95515  10.926   6.383  -0.446  2.2951  0.7188  1.8434
  708MOL0     H95516  11.010   6.516  -0.501  1.0778  0.0772 -0.7931
  708MOL0     H95517  10.869   6.428  -0.678 -0.9381 -0.4907  0.4872
  708MOL0     H95518  10.929   6.266  -0.662 -1.0074 -0.0634 -2.0594
  708MOL0     H95519  11.164   6.376  -0.732 -0.0117  2.3594  0.6918
  708MOL0     H95520  11.077   6.526  -0.766  1.8341 -0.1824 -0.6805
  708MOL0     H95521  11.021   6.265  -0.933  1.9757 -0.1179 -1.7332
  708MOL0     H95522  10.934   6.416  -0.941  1.1503  0.2295 -0.6681
  708MOL0     H95523  11.132   6.531  -1.013 -0.0693 -0.1775  0.2402
  708MOL0     H95524  11.228   6.388  -0.989 -0.8116 -5.4829 -1.7311
  708MOL0     H95525  11.151   6.478  -1.221 -3.5668  2.1446 -2.0671
  708MOL0     H95526  11.126   6.296  -1.207  1.8059  1.3105 -1.9242
  708MOL0     H95527  10.902   6.341  -1.171  2.8883 -0.8839  3.4404
  708MOL0     H95528  10.961   6.404  -1.328 -1.4625  0.3667  1.0029
  708MOL0     H95529  10.788   6.541  -1.217  0.7223 -2.7297 -1.6443
  708MOL0     H95530  10.900   6.581  -1.087  3.8441  1.3712 -1.2063
  708MOL0     H95531  11.099   6.754  -1.168  2.5399  0.8912 -1.4885
  708MOL0     H95532  11.083   6.995  -1.477 -6.0057 -2.3529  1.6607
  708MOL0     H95533  11.167   6.985  -1.316 -1.1096 -2.0931  1.5589
  708MOL0     H95534  11.297   6.780  -1.412 -0.0760 -0.2786 -0.2022
  708MOL0     H95535  11.229   6.823  -1.564  1.0869 -0.0480  0.0426
  708MOL0     H95536  11.423   6.997  -1.389 -2.7482  3.8372  0.0740
  708MOL0     H95537  11.326   7.054  -1.525 -1.3582 -0.2983  0.5124
  708MOL0     H95538  11.434   6.910  -1.677  0.4026  0.4082  0.6782
  708MOL0     H95539  11.512   6.821  -1.563  0.6270 -0.7221 -1.9099
  708MOL0     H95540  11.631   6.843  -1.379  1.6422 -1.1686  2.3537
  708MOL0     H95541  11.767   6.884  -1.188 -0.5903 -0.8068 -0.4365
  708MOL0     H95542  12.185   7.404  -1.132  0.1183 -1.7663 -0.5213
  708MOL0     H95543  12.314   7.491  -0.948 -1.0807  0.5315 -0.1991
  708MOL0     H95544  12.311   7.438  -0.515  0.4205 -0.7190 -0.6811
  708MOL0     H95545  12.197   7.321  -0.559 -1.4426  0.3122 -3.3813
  708MOL0     H95546  12.354   7.145  -0.558  0.0777 -1.0501  0.2473
  708MOL0     H95547  12.495   7.255  -0.573 -0.0819 -0.8763  1.4165
  708MOL0     H95548  12.425   7.365  -0.355 -2.3780  0.6970 -1.3679
  708MOL0     H95549  12.360   7.199  -0.320  0.1846  2.1333  2.0492
  708MOL0     H95550  12.651   7.253  -0.409 -0.7237  0.6899 -0.0437
  708MOL0     H95551  12.581   7.093  -0.371 -0.3973  0.6633 -0.5383
  708MOL0     H95552  12.545   7.147  -0.141  2.1210 -0.0971  2.5082
  708MOL0     H95553  12.602   7.308  -0.170  0.6743 -0.3942 -0.1865
  708MOL0     H95554  12.776   7.064  -0.239  0.9499  0.8359 -3.1016
  708MOL0     H95555  12.829   7.225  -0.197  0.5650 -0.9338 -2.2584
  708MOL0     H95556  12.682   7.032  -0.006  0.7191 -1.1281 -2.3002
  708MOL0     H95557  12.735   7.195   0.034 -0.2854 -0.5514  0.7489
  708MOL0     H95558  12.918   6.973  -0.036  1.5647  0.2767  0.4382
  708MOL0     H95559  12.962   7.141  -0.058  0.9035 -2.6028 -2.1492
  708MOL0     H95560  12.151   7.162  -0.709 -0.7155 -1.3586 -0.9189
  708MOL0     H95561  12.001   7.116  -0.893 -0.0263 -0.3283 -1.6692
  708MOL0     H95562  11.913   7.249  -1.407 -2.1586  1.5686  1.3170
  708MOL0     H95563  11.790   7.184  -1.581 -0.2712  1.8960  2.3101
  708MOL0     H95564  11.061   6.523  -0.273  1.9046  1.2155 -1.5797
  708MOL0     H95565  11.088   6.472  -0.023 -1.2837 -0.1083 -0.1338
  708MOL0     H95566  11.428   6.394   0.246  2.9141 -0.6616  1.6897
  708MOL0     H95567  11.524   6.431   0.472 -0.7492  2.4311  0.8013
  708MOL0     H95568  11.325   6.259   0.820  0.9080 -1.0997 -0.4969
  708MOL0     H95569  11.325   6.439   0.822  1.9937  0.8476  3.3561
  708MOL0     H95570  11.600   6.346   0.864  0.9618  2.5434  1.1741
  708MOL0     H95571  11.496   6.252   0.963  1.4054  0.1070 -0.9134
  708MOL0     H95572  11.505   6.428   1.110 -3.0344 -1.9414 -0.2013
  708MOL0     H95573  11.405   6.527   1.010  0.6557 -0.5718 -3.3550
  708MOL0     H95574  11.613   6.650   1.020  2.5908 -1.7163  2.7698
  708MOL0     H95575  11.708   6.514   0.983  0.3446 -0.6391 -3.0650
  708MOL0     H95576  11.675   6.663   0.604  1.9155  1.2300  1.1953
  708MOL0     H95577  11.207   6.245   0.644 -0.5386 -0.4961 -1.7449
  708MOL0     H95578  11.061   6.088   0.355 -0.8296 -2.1436  2.0435
  708MOL0     H95579  11.068   6.112   0.524  1.7996 -0.2775 -0.3034
  708MOL0     H95580  10.962   6.230   0.424  1.7868  1.8086 -3.9636
  709MOL0     O95581   6.724   6.520   0.613 -0.5037  0.0621 -0.6323
  709MOL0     C95582   6.794   6.442   0.551 -0.2366 -0.1563 -0.3959
  709MOL0     O95583   6.749   6.314   0.510  0.0931  0.5574 -0.8461
  709MOL0     C95584   6.620   6.285   0.485  0.5453  0.8031  0.2534
  709MOL0     C95585   6.517   6.379   0.454 -0.4727 -0.6139 -1.4559
  709MOL0     C95586   6.385   6.342   0.410  0.3813  0.4048 -0.3065
  709MOL0     C95587   6.364   6.206   0.382 -0.7421 -0.0535 -0.0381
  709MOL0     O95588   6.252   6.150   0.345  0.9507 -0.0000 -0.7736
  709MOL0     C95589   6.142   6.239   0.324 -0.3639  0.0128  1.4136
  709MOL0     C95590   6.015   6.168   0.273  0.0345  0.5291 -0.4470
  709MOL0     C95591   6.035   6.102   0.132  0.1161  0.1474 -0.3730
  709MOL0     C95592   5.915   6.019   0.099 -0.1650 -0.1376 -0.6340
  709MOL0     C95593   5.910   5.948  -0.029  0.4192  0.8376  1.1276
  709MOL0     C95594   5.811   5.825  -0.028  0.9275  0.2374 -0.1187
  709MOL0     C95595   5.731   5.811  -0.152 -0.1882  0.4244 -0.2414
  709MOL0     C95596   5.806   5.747  -0.265 -0.1243  0.3740  0.0409
  709MOL0     N95597   5.853   5.611  -0.237 -0.2660  0.3770 -0.1180
  709MOL0     C95598   5.783   5.501  -0.198  0.0331  0.6242  0.0600
  709MOL0     C95599   5.874   5.399  -0.202  0.6151 -0.0994 -0.0559
  709MOL0     C95600   5.845   5.255  -0.195 -0.5214  0.0464 -0.5553
  709MOL0     C95601   5.810   5.193  -0.330  0.7467  0.9517 -0.4233
  709MOL0     C95602   5.664   5.179  -0.370  0.2314  0.4566  0.1257
  709MOL0     C95603   5.573   5.092  -0.275  0.0653  0.2359  0.0721
  709MOL0     O95604   5.592   4.944  -0.286  0.6717  0.2090 -0.0456
  709MOL0     C95605   5.569   4.881  -0.402  1.8037  0.2700  0.2669
  709MOL0     C95606   5.651   4.774  -0.434 -0.5656  0.7024  0.2567
  709MOL0     C95607   5.623   4.697  -0.546  0.3837  0.4413  0.3438
  709MOL0     C95608   5.515   4.735  -0.628  0.6462  0.2889 -0.3607
  709MOL0     C95609   5.479   4.656  -0.755  0.1031  0.0869 -1.0576
  709MOL0     O95610   5.348   4.602  -0.769  0.6129 -0.2556 -0.4870
  709MOL0     C95611   5.320   4.527  -0.879  0.1819  0.4674 -0.1229
  709MOL0     C95612   5.244   4.586  -0.981 -0.8484 -0.7196 -0.1724
  709MOL0     C95613   5.187   4.511  -1.089 -0.7796 -0.1924  0.0855
  709MOL0     C95614   5.220   4.376  -1.098  0.1150  0.1770  0.9780
  709MOL0     O95615   5.205   4.298  -1.208  0.6757  0.0545  0.1451
  709MOL0     C95616   5.072   4.289  -1.265  0.4021  0.0182  0.0399
  709MOL0     C95617   5.042   4.144  -1.315  0.4682 -0.1420  0.1825
  709MOL0     C95618   4.921   4.131  -1.407  0.0851  0.0963  0.8411
  709MOL0     C95619   4.926   4.017  -1.500  0.1445 -0.8054 -0.8337
  709MOL0     C95620   5.041   4.032  -1.600 -0.7113  0.3779 -0.1594
  709MOL0     C95621   5.031   3.941  -1.730 -0.6827 -0.0688 -1.3111
  709MOL0     C95622   5.069   3.799  -1.694 -0.3442  0.0482  0.4430
  709MOL0     C95623   5.148   3.731  -1.805 -0.0153 -0.1965 -0.6020
  709MOL0    Cl95624   5.041   3.719  -1.948  0.2137 -0.2896 -0.1845
  709MOL0     C95625   5.286   4.312  -0.988 -0.7257  0.3977 -0.8960
  709MOL0     C95626   5.333   4.382  -0.881  0.6866 -0.1633  0.1927
  709MOL0     O95627   5.573   4.620  -0.829 -0.7209 -0.0733 -1.7015
  709MOL0     C95628   5.441   4.847  -0.606 -0.4024 -0.0508 -0.1112
  709MOL0     C95629   5.459   4.920  -0.487  0.2361  0.9787 -0.5009
  709MOL0     N95630   5.995   5.455  -0.235 -0.0712 -0.0757 -0.3324
  709MOL0     N95631   5.980   5.583  -0.265 -0.2599 -1.2665 -0.4144
  709MOL0     C95632   6.477   6.125   0.383  0.1008  0.0652 -0.3025
  709MOL0     C95633   6.599   6.160   0.444  0.6401  0.5154  0.6721
  709MOL0     C95634   6.935   6.489   0.512  0.0419  0.0916 -0.2299
  709MOL0     C95635   6.973   6.475   0.376  0.4809 -0.5302 -0.8034
  709MOL0     C95636   7.089   6.525   0.330 -0.1095 -0.5212  0.0480
  709MOL0     C95637   7.180   6.599   0.407 -0.7492 -0.3743 -0.6963
  709MOL0     O95638   7.297   6.657   0.351  0.8405 -0.1904 -0.5449
  709MOL0     C95639   7.315   6.643   0.206 -0.1757  0.2673  0.5344
  709MOL0     C95640   7.428   6.733   0.165 -0.1403  0.7283 -0.3353
  709MOL0     C95641   7.421   6.872   0.224 -0.0424  0.1036  0.4225
  709MOL0     C95642   7.504   6.982   0.156  0.7292 -0.2569  0.4841
  709MOL0     C95643   7.642   6.942   0.151  0.6699 -0.3228  0.6914
  709MOL0     C95644   7.760   6.918   0.136  0.0019 -0.1170  0.4603
  709MOL0     C95645   7.142   6.618   0.540 -0.2984  0.1311 -0.0091
  709MOL0     C95646   7.026   6.566   0.589  0.1283  0.3563 -0.2088
  709MOL0     C95647   6.981   6.584   0.734  0.2739  0.4350 -0.6523
  709MOL0     H95648   6.532   6.486   0.465 -2.6695 -0.4562  1.6523
  709MOL0     H95649   6.304   6.413   0.397 -0.9176 -0.2915  2.9982
  709MOL0     H95650   6.115   6.290   0.416 -2.3924 -0.5966  1.1970
  709MOL0     H95651   6.174   6.318   0.255 -0.7565 -2.0680 -1.3352
  709MOL0     H95652   5.944   6.251   0.267  0.2292  0.7841  0.5166
  709MOL0     H95653   5.973   6.095   0.343  0.2179  1.1177  0.2867
  709MOL0     H95654   6.130   6.047   0.134  0.2879  0.4103  2.7648
  709MOL0     H95655   6.026   6.183   0.058 -2.3550  0.3217  0.0551
  709MOL0     H95656   5.914   5.933   0.167 -1.8892 -0.2956 -0.8323
  709MOL0     H95657   5.826   6.080   0.118 -2.7665 -4.4075  2.6644
  709MOL0     H95658   5.891   6.005  -0.121  0.5330 -2.3962 -1.0411
  709MOL0     H95659   6.009   5.915  -0.062 -0.3370 -0.1165 -0.3289
  709MOL0     H95660   5.879   5.740  -0.018  0.4615  0.0453  1.5731
  709MOL0     H95661   5.748   5.843   0.060  3.4101  2.6998  1.3109
  709MOL0     H95662   5.701   5.911  -0.186 -1.3497  0.0649 -0.3158
  709MOL0     H95663   5.642   5.751  -0.130 -0.4530 -0.2697 -2.7989
  709MOL0     H95664   5.733   5.731  -0.345 -0.8829 -2.0354  1.1209
  709MOL0     H95665   5.887   5.806  -0.309  0.3040 -0.3297 -0.1427
  709MOL0     H95666   5.682   5.495  -0.157  1.4536  0.0069  3.8543
  709MOL0     H95667   5.937   5.210  -0.155 -0.3369  2.5673  2.1913
  709MOL0     H95668   5.777   5.221  -0.117  0.8387  0.1196  0.7070
  709MOL0     H95669   5.875   5.238  -0.405  0.5184 -0.5236 -1.5497
  709MOL0     H95670   5.849   5.091  -0.320  3.4122  1.8254 -1.1655
  709MOL0     H95671   5.660   5.138  -0.472  2.1480  1.9890 -0.6304
  709MOL0     H95672   5.621   5.279  -0.379 -1.3224 -0.1913  0.1216
  709MOL0     H95673   5.468   5.120  -0.290  0.1894 -0.2314 -2.0139
  709MOL0     H95674   5.583   5.116  -0.169 -2.4488  0.4436  0.3211
  709MOL0     H95675   5.740   4.756  -0.374  0.8496  2.0002 -1.3466
  709MOL0     H95676   5.667   4.598  -0.558  1.6726  0.8003  1.7950
  709MOL0     H95677   5.219   4.691  -0.973 -1.3274 -0.9663  2.3521
  709MOL0     H95678   5.138   4.560  -1.172  2.2389  0.8875 -1.2024
  709MOL0     H95679   4.999   4.320  -1.190 -0.2142 -2.3069  0.4723
  709MOL0     H95680   5.066   4.367  -1.342  1.6698  0.6886  0.5812
  709MOL0     H95681   5.128   4.103  -1.368 -1.6108 -2.5449 -1.5751
  709MOL0     H95682   5.028   4.079  -1.229 -0.7202  1.2045  1.0597
  709MOL0     H95683   4.833   4.106  -1.347  2.2839 -2.7529  3.2022
  709MOL0     H95684   4.910   4.223  -1.465 -0.7773 -1.5056 -1.6805
  709MOL0     H95685   4.825   4.003  -1.542 -0.1212 -2.8366  0.3527
  709MOL0     H95686   4.951   3.928  -1.441 -1.0343  1.8082  4.1139
  709MOL0     H95687   5.139   4.007  -1.559 -1.6445  0.2271  2.1220
  709MOL0     H95688   5.055   4.134  -1.635  1.4071 -0.4485 -1.9105
  709MOL0     H95689   4.930   3.947  -1.769 -0.0349  1.6591 -2.8808
  709MOL0     H95690   5.102   3.992  -1.796 -2.3553  1.9587 -1.6410
  709MOL0     H95691   4.976   3.744  -1.677  0.4516 -1.2820  0.7144
  709MOL0     H95692   5.118   3.806  -1.596 -2.1182 -1.0710  1.4648
  709MOL0     H95693   5.227   3.799  -1.837 -2.2395  1.8291 -2.1619
  709MOL0     H95694   5.188   3.635  -1.771  1.4030  1.2910  2.2630
  709MOL0     H95695   5.310   4.207  -0.984 -1.7222  0.1994  0.7536
  709MOL0     H95696   5.388   4.332  -0.801 -0.4121 -0.2194  0.9346
  709MOL0     H95697   5.375   4.881  -0.685  1.2345  3.5982 -0.1151
  709MOL0     H95698   5.396   5.008  -0.477 -0.7770  0.3610 -1.2172
  709MOL0     H95699   6.462   6.033   0.328 -1.1360 -0.0199  0.1389
  709MOL0     H95700   6.686   6.096   0.446  0.1330 -0.2351 -0.3933
  709MOL0     H95701   6.905   6.430   0.304  1.2462 -1.1809 -1.1395
  709MOL0     H95702   7.120   6.499   0.229 -1.1320 -0.9270 -0.1766
  709MOL0     H95703   7.223   6.667   0.152  0.3555  0.4617 -0.3017
  709MOL0     H95704   7.350   6.547   0.168 -2.1498  0.6955 -2.7250
  709MOL0     H95705   7.441   6.740   0.056  0.2576 -1.3526 -0.4711
  709MOL0     H95706   7.517   6.676   0.194 -1.0497 -0.5454  0.0047
  709MOL0     H95707   7.468   6.852   0.321  1.4580  0.2222 -0.2698
  709MOL0     H95708   7.317   6.906   0.235  0.1677  0.6039  0.9473
  709MOL0     H95709   7.457   7.007   0.061  3.0942 -1.2759 -1.0424
  709MOL0     H95710   7.509   7.075   0.214  2.2884  0.5815 -0.9156
  709MOL0     H95711   7.867   6.912   0.132  0.0363  0.8280 -3.0898
  709MOL0     H95712   7.193   6.678   0.615 -0.8844 -0.0606  0.5549
  709MOL0     H95713   6.924   6.677   0.742 -2.8889 -1.3147 -1.2012
  709MOL0     H95714   6.930   6.499   0.781 -1.1798  1.8466  0.4243
  709MOL0     H95715   7.071   6.592   0.794 -0.5425  0.3317  0.6147
  710MOL0     O95716   8.691   8.169   3.103  0.1083 -0.1247 -0.1354
  710MOL0     C95717   8.683   8.232   2.996  0.8300 -0.2575 -0.5816
  710MOL0     O95718   8.779   8.313   2.943 -0.3746  0.2018 -0.4107
  710MOL0     C95719   8.882   8.347   3.021  0.1173  0.5518 -0.6573
  710MOL0     C95720   9.011   8.294   2.968 -0.6556 -0.8120 -0.8811
  710MOL0     C95721   9.130   8.329   3.037 -0.4305  0.2469 -0.4989
  710MOL0     C95722   9.127   8.418   3.152 -0.4641  0.4558 -0.5742
  710MOL0     O95723   9.245   8.446   3.219 -0.3556 -0.9894  0.2233
  710MOL0     C95724   9.238   8.448   3.363 -0.4287  0.1106  0.8235
  710MOL0     C95725   9.190   8.318   3.417 -0.2355 -0.2542  0.3038
  710MOL0     C95726   9.201   8.314   3.563 -0.6876 -0.1408 -0.9467
  710MOL0     C95727   9.345   8.305   3.627 -0.0197 -0.5258  0.0675
  710MOL0     C95728   9.347   8.324   3.781  0.4901  0.7132  0.1943
  710MOL0     C95729   9.253   8.237   3.867 -0.4183 -0.4428  0.3259
  710MOL0     C95730   9.235   8.286   4.013 -0.2627  0.6505  0.2902
  710MOL0     C95731   9.150   8.419   4.037 -0.0663  0.0687 -0.1932
  710MOL0     N95732   9.060   8.389   4.149 -0.4506  0.3702  0.5044
  710MOL0     C95733   9.116   8.359   4.275 -0.1942  0.2342 -0.1363
  710MOL0     C95734   9.020   8.401   4.366 -1.0600  0.5629 -0.0422
  710MOL0     C95735   9.028   8.402   4.519 -0.6312  0.2495 -0.5478
  710MOL0     C95736   9.041   8.547   4.570  0.0760 -0.0045 -0.1198
  710MOL0     C95737   9.087   8.539   4.712  0.2879  0.4889  0.5298
  710MOL0     C95738   9.125   8.682   4.754  0.0901  0.3954  0.1150
  710MOL0     O95739   9.115   8.702   4.894 -0.4938  0.0962 -0.2860
  710MOL0     C95740   8.991   8.697   4.953 -0.0705 -0.6690  0.2317
  710MOL0     C95741   8.866   8.726   4.883 -0.2976 -0.4405 -1.0371
  710MOL0     C95742   8.740   8.727   4.945  0.1109 -0.0017 -0.1177
  710MOL0     C95743   8.735   8.681   5.078 -0.9145 -0.3657 -0.9944
  710MOL0     C95744   8.613   8.679   5.163  0.2352 -0.0562 -0.4402
  710MOL0     O95745   8.491   8.687   5.109  0.4983  0.1187 -0.3111
  710MOL0     C95746   8.366   8.711   5.166 -0.7265  0.4637  0.2292
  710MOL0     C95747   8.333   8.655   5.292 -0.1036 -0.0175  0.2874
  710MOL0     C95748   8.210   8.681   5.346 -0.5915 -0.4477 -0.0889
  710MOL0     C95749   8.113   8.752   5.285 -0.0130 -0.0607 -0.4259
  710MOL0     O95750   7.991   8.771   5.349 -0.1907  0.3324 -0.2152
  710MOL0     C95751   7.890   8.802   5.267 -0.3403  0.3964 -0.3772
  710MOL0     C95752   7.757   8.831   5.341 -0.3364 -0.1861  0.2232
  710MOL0     C95753   7.717   8.744   5.452  0.4762  0.2068 -0.1014
  710MOL0     C95754   7.736   8.598   5.426  0.2311  0.5550 -0.2384
  710MOL0     C95755   7.628   8.542   5.330  0.1898 -0.4465  0.5980
  710MOL0     C95756   7.635   8.385   5.310 -0.2419 -1.1689  0.1443
  710MOL0     C95757   7.552   8.341   5.194 -0.4282 -0.5052  0.5883
  710MOL0     C95758   7.574   8.196   5.149  0.2248 -0.9666  0.7942
  710MOL0    Cl95759   7.730   8.173   5.064 -0.3773  0.4273 -0.4154
  710MOL0     C95760   8.140   8.796   5.159  0.0748 -0.4325  0.3859
  710MOL0     C95761   8.257   8.772   5.097 -0.8659 -0.5143 -0.6692
  710MOL0     O95762   8.636   8.671   5.281  0.1314  0.6178 -0.4078
  710MOL0     C95763   8.850   8.638   5.145  0.8222  0.8965 -0.1694
  710MOL0     C95764   8.976   8.646   5.085  0.5564  0.4838  0.8346
  710MOL0     N95765   8.914   8.440   4.285 -0.7171 -0.5021  0.3769
  710MOL0     N95766   8.935   8.432   4.158  0.4010  1.0416  1.0194
  710MOL0     C95767   9.002   8.474   3.193 -0.4426 -0.0877 -0.7060
  710MOL0     C95768   8.884   8.429   3.131 -0.4190 -0.3656  0.3088
  710MOL0     C95769   8.555   8.219   2.919 -0.6863  0.3496  0.6413
  710MOL0     C95770   8.542   8.287   2.791 -0.4660 -1.1404  0.3684
  710MOL0     C95771   8.424   8.282   2.715  0.1894 -0.2062 -0.4430
  710MOL0     C95772   8.307   8.227   2.772 -0.3313  0.1421 -0.8514
  710MOL0     O95773   8.200   8.249   2.691  0.5190 -0.1588 -0.1299
  710MOL0     C95774   8.071   8.208   2.743 -0.0188 -0.2379  0.5180
  710MOL0     C95775   7.956   8.268   2.659  0.3531  0.3697  0.0998
  710MOL0     C95776   7.945   8.420   2.702 -0.0672 -0.4777  1.0298
  710MOL0     C95777   7.849   8.504   2.611 -0.1353  0.3878  0.2787
  710MOL0     C95778   7.711   8.448   2.618 -0.1379 -0.5622 -0.1506
  710MOL0     C95779   7.595   8.421   2.620 -0.0432  1.1966  0.2603
  710MOL0     C95780   8.309   8.165   2.896  0.5311  0.1912  0.0672
  710MOL0     C95781   8.432   8.154   2.961  0.2904  0.1477 -0.6207
  710MOL0     C95782   8.427   8.059   3.079 -0.0729 -0.1231 -0.6520
  710MOL0     H95783   9.025   8.227   2.884  0.2664 -1.2523 -0.3938
  710MOL0     H95784   9.223   8.291   2.996  0.6773 -1.7037  3.2986
  710MOL0     H95785   9.338   8.467   3.403 -0.3646  1.9136 -0.0472
  710MOL0     H95786   9.171   8.522   3.408 -0.7870 -1.5924  3.2854
  710MOL0     H95787   9.233   8.230   3.368  1.9933  1.7513 -1.5802
  710MOL0     H95788   9.083   8.319   3.394 -0.1408  1.4785 -0.1708
  710MOL0     H95789   9.144   8.226   3.593 -0.8487  0.4588  0.5718
  710MOL0     H95790   9.150   8.403   3.600  0.8011  0.2551  0.2537
  710MOL0     H95791   9.380   8.202   3.611 -1.7883 -0.7069 -3.5786
  710MOL0     H95792   9.412   8.381   3.587 -3.5148  0.9360 -3.6865
  710MOL0     H95793   9.448   8.305   3.817  1.0319 -0.2552 -1.7563
  710MOL0     H95794   9.328   8.429   3.806  1.7587  0.9595  0.2068
  710MOL0     H95795   9.149   8.233   3.832 -0.0522 -2.8342 -0.7261
  710MOL0     H95796   9.289   8.134   3.874 -0.5975 -0.3748  2.9582
  710MOL0     H95797   9.328   8.292   4.071 -1.8958  0.1117  3.1801
  710MOL0     H95798   9.186   8.207   4.071  1.6002  2.2184  4.3493
  710MOL0     H95799   9.216   8.504   4.053  0.6318 -0.4459 -0.3054
  710MOL0     H95800   9.095   8.452   3.948 -1.5084 -0.5541  0.4229
  710MOL0     H95801   9.218   8.324   4.292 -0.0204  0.1982 -1.1541
  710MOL0     H95802   8.942   8.352   4.564 -2.2754  2.7060 -0.7635
  710MOL0     H95803   9.121   8.356   4.551 -0.2809  2.8774  2.6836
  710MOL0     H95804   9.121   8.598   4.517  1.0333 -0.4806  0.8351
  710MOL0     H95805   8.945   8.599   4.561  1.1055  2.3296  1.5198
  710MOL0     H95806   9.187   8.494   4.714  2.0879  4.0251  2.8446
  710MOL0     H95807   9.012   8.492   4.776 -1.4999  0.8089 -1.2466
  710MOL0     H95808   9.053   8.748   4.705 -1.5640 -0.9652  0.6001
  710MOL0     H95809   9.221   8.711   4.711 -1.6487  0.5908 -4.1625
  710MOL0     H95810   8.862   8.767   4.783  1.3553 -0.2269 -1.0416
  710MOL0     H95811   8.652   8.757   4.889 -0.8504  0.9861  1.8328
  710MOL0     H95812   8.406   8.587   5.335 -3.0789 -3.9233 -0.2920
  710MOL0     H95813   8.179   8.646   5.445 -1.6088  0.3758 -0.0979
  710MOL0     H95814   7.906   8.890   5.205 -1.7264  1.7968  1.1805
  710MOL0     H95815   7.871   8.716   5.201  0.2377 -0.2478  0.2807
  710MOL0     H95816   7.766   8.932   5.383 -0.3727 -0.5969  1.2396
  710MOL0     H95817   7.684   8.828   5.260 -0.0587  1.3592 -0.1153
  710MOL0     H95818   7.781   8.759   5.540  1.2547 -3.3877  0.0840
  710MOL0     H95819   7.612   8.756   5.480  0.9785 -0.3094  2.2653
  710MOL0     H95820   7.722   8.557   5.527  0.8187 -2.4729 -1.2760
  710MOL0     H95821   7.832   8.555   5.394 -0.4719 -1.8389  0.5997
  710MOL0     H95822   7.646   8.586   5.232 -1.9868  1.2125  0.8687
  710MOL0     H95823   7.524   8.571   5.348  0.1733  0.2683 -0.5431
  710MOL0     H95824   7.734   8.343   5.290  0.5232  0.7358 -0.3510
  710MOL0     H95825   7.598   8.339   5.401  1.6169 -1.6683  0.6887
  710MOL0     H95826   7.559   8.409   5.109  4.1219 -1.1817  0.1964
  710MOL0     H95827   7.444   8.350   5.210 -0.9511 -3.3883 -0.6452
  710MOL0     H95828   7.570   8.116   5.224  0.3667 -0.1409  1.7093
  710MOL0     H95829   7.487   8.184   5.085 -3.0870  1.1845  4.4667
  710MOL0     H95830   8.068   8.858   5.107  0.6376  0.0611  0.1853
  710MOL0     H95831   8.277   8.800   4.994 -0.4815 -2.0864 -1.0515
  710MOL0     H95832   8.863   8.600   5.245  0.8195  2.8082  0.6067
  710MOL0     H95833   9.058   8.625   5.153  0.0743  0.5390  1.4391
  710MOL0     H95834   8.998   8.546   3.275 -1.2024 -0.6292 -0.2560
  710MOL0     H95835   8.800   8.478   3.178 -0.2448 -1.3248  1.6667
  710MOL0     H95836   8.626   8.345   2.754 -1.2570 -0.7560 -0.8881
  710MOL0     H95837   8.422   8.330   2.618 -2.6857  0.6119 -0.0719
  710MOL0     H95838   8.055   8.227   2.850  2.5891  1.7917  0.6388
  710MOL0     H95839   8.060   8.099   2.736  1.1466 -0.5019  2.0759
  710MOL0     H95840   7.866   8.221   2.699 -1.5956  2.0939 -2.0531
  710MOL0     H95841   7.957   8.256   2.551 -0.8762 -2.5170  0.3342
  710MOL0     H95842   8.043   8.468   2.690 -0.2098  1.0174  4.7372
  710MOL0     H95843   7.936   8.441   2.809 -2.6360 -1.4891  1.0667
  710MOL0     H95844   7.846   8.608   2.646  0.1153  0.1959  0.8728
  710MOL0     H95845   7.875   8.493   2.505 -2.3861 -3.7913 -0.0439
  710MOL0     H95846   7.489   8.405   2.624 -0.0052  0.7856 -0.2741
  710MOL0     H95847   8.218   8.126   2.939  0.0061  0.3421 -0.8803
  710MOL0     H95848   8.457   8.110   3.171 -1.9396  0.3767 -0.2700
  710MOL0     H95849   8.329   8.017   3.106  0.6843 -1.3544  0.2752
  710MOL0     H95850   8.482   7.969   3.053  0.7175  0.2736 -0.4077
  711MOL0     O95851  11.521   5.270   6.219 -0.3448  0.7365  0.1544
  711MOL0     C95852  11.500   5.252   6.340 -1.1453 -0.4018 -0.0226
  711MOL0     O95853  11.425   5.331   6.419  0.5430 -0.7741  1.1709
  711MOL0     C95854  11.357   5.423   6.349  0.6640  0.5916 -0.2780
  711MOL0     C95855  11.222   5.391   6.315 -0.0494 -1.0257 -0.5443
  711MOL0     C95856  11.139   5.484   6.237 -0.3254 -0.3633 -0.2285
  711MOL0     C95857  11.198   5.613   6.211  0.8110 -0.0162 -0.0299
  711MOL0     O95858  11.123   5.711   6.154 -0.2355 -0.3169 -0.3884
  711MOL0     C95859  11.002   5.745   6.221 -0.8558 -0.4825 -0.0462
  711MOL0     C95860  10.902   5.777   6.116  0.6379 -1.1053 -0.4619
  711MOL0     C95861  10.758   5.816   6.164 -0.0217 -0.0013  0.3478
  711MOL0     C95862  10.740   5.946   6.253 -0.4155 -0.5698 -1.0970
  711MOL0     C95863  10.796   6.079   6.188 -0.2538 -1.1297  0.1021
  711MOL0     C95864  10.780   6.207   6.272 -0.3422 -0.2523  0.2064
  711MOL0     C95865  10.632   6.227   6.321 -0.4079  0.5975 -0.0539
  711MOL0     C95866  10.618   6.346   6.407  0.0410  0.6397 -0.5203
  711MOL0     N95867  10.627   6.476   6.347 -0.7286 -0.5034 -1.0906
  711MOL0     C95868  10.681   6.573   6.426 -0.7079  0.6037  0.1636
  711MOL0     C95869  10.679   6.685   6.350 -0.3111 -0.2920 -0.3992
  711MOL0     C95870  10.722   6.824   6.387  0.2736  0.0764  0.2952
  711MOL0     C95871  10.868   6.846   6.404 -0.7480  0.0263 -0.7015
  711MOL0     C95872  10.958   6.802   6.287  0.7806  0.0757  0.1894
  711MOL0     C95873  11.104   6.801   6.308  0.4676 -0.2831 -0.1210
  711MOL0     O95874  11.183   6.745   6.197 -0.6521 -0.6293  0.1241
  711MOL0     C95875  11.321   6.750   6.201  0.0149 -0.7119  0.0052
  711MOL0     C95876  11.391   6.717   6.088 -0.0481  0.4825  1.0942
  711MOL0     C95877  11.531   6.722   6.078  0.8464  0.0536 -0.7725
  711MOL0     C95878  11.599   6.782   6.185 -0.0255  0.0431  0.7244
  711MOL0     C95879  11.745   6.801   6.170  0.7918  0.3995  0.0184
  711MOL0     O95880  11.810   6.838   6.280 -0.1156  0.9653 -0.6666
  711MOL0     C95881  11.937   6.898   6.263 -0.2311  0.0141 -0.2217
  711MOL0     C95882  11.949   7.036   6.245  1.3511 -0.2397  0.2258
  711MOL0     C95883  12.071   7.108   6.265  0.4401  1.0516 -0.7000
  711MOL0     C95884  12.188   7.035   6.294 -0.3518 -0.6883 -1.0924
  711MOL0     O95885  12.315   7.071   6.333  0.1144  0.5627 -0.5132
  711MOL0     C95886  12.351   7.210   6.341  0.7871 -0.3890  0.6309
  711MOL0     C95887  12.494   7.203   6.360 -0.8736  0.1490  0.2741
  711MOL0     C95888  12.541   7.103   6.464 -0.1498  0.3801  0.4084
  711MOL0     C95889  12.682   7.056   6.427  0.1645  0.5722 -0.3364
  711MOL0     C95890  12.747   6.961   6.524  0.2812  0.7985 -0.3251
  711MOL0     C95891  12.867   7.026   6.606  0.5572 -0.1236 -0.3433
  711MOL0     C95892  12.804   7.078   6.738 -0.3018  0.3381  1.2271
  711MOL0     C95893  12.900   7.147   6.828 -0.8461  0.5902  0.2415
  711MOL0    Cl95894  12.956   7.304   6.764  0.4453 -0.0452  0.5144
  711MOL0     C95895  12.172   6.896   6.307 -0.6205  0.5913 -0.1636
  711MOL0     C95896  12.056   6.829   6.286 -1.1809  0.3832 -0.0999
  711MOL0     O95897  11.795   6.788   6.056  0.3217 -0.9011 -0.7380
  711MOL0     C95898  11.528   6.821   6.300 -0.4033 -0.5906 -0.3926
  711MOL0     C95899  11.390   6.804   6.308 -1.1584  0.4126 -0.2633
  711MOL0     N95900  10.609   6.656   6.234  0.0417  0.0160  1.4343
  711MOL0     N95901  10.583   6.522   6.226  0.2540  0.3020 -0.0396
  711MOL0     C95902  11.334   5.636   6.232 -0.1601  0.5398 -0.4823
  711MOL0     C95903  11.413   5.536   6.294 -0.2287 -0.3770 -0.1861
  711MOL0     C95904  11.566   5.136   6.417 -0.0283 -0.0309 -0.7421
  711MOL0     C95905  11.565   5.148   6.556  0.0270 -0.2316 -0.3338
  711MOL0     C95906  11.609   5.036   6.632  0.2108  0.5125 -0.7145
  711MOL0     C95907  11.667   4.923   6.579 -0.9096 -0.4040 -0.2448
  711MOL0     O95908  11.732   4.820   6.643 -0.0821  0.5614 -0.4400
  711MOL0     C95909  11.697   4.782   6.783  0.5288  0.0865 -0.1430
  711MOL0     C95910  11.559   4.710   6.783  0.6683  0.0241  0.5434
  711MOL0     C95911  11.518   4.675   6.922  0.4359 -0.6337 -0.2342
  711MOL0     C95912  11.388   4.586   6.918 -0.6161 -0.5362  0.3924
  711MOL0     C95913  11.439   4.448   6.903  0.8151 -0.6091  0.2713
  711MOL0     C95914  11.474   4.339   6.876 -0.8702 -0.1219  0.1121
  711MOL0     C95915  11.667   4.917   6.441 -0.0340 -0.5054 -0.3894
  711MOL0     C95916  11.621   5.017   6.361  0.0636 -0.1137 -0.1286
  711MOL0     C95917  11.616   4.995   6.211  0.5466  0.5213  0.5774
  711MOL0     H95918  11.173   5.294   6.327 -0.4357 -0.5315  2.7408
  711MOL0     H95919  11.040   5.451   6.208  0.2126 -0.4549 -2.0662
  711MOL0     H95920  10.962   5.665   6.284  1.0474 -0.6686  1.0060
  711MOL0     H95921  11.013   5.834   6.285  2.6828  1.3843 -2.8682
  711MOL0     H95922  10.880   5.681   6.069 -2.1760 -0.3520 -0.8843
  711MOL0     H95923  10.948   5.852   6.050 -0.4129 -0.9578 -1.0594
  711MOL0     H95924  10.711   5.727   6.209  0.2989 -0.7969 -0.8403
  711MOL0     H95925  10.697   5.835   6.076 -0.9284  2.1883  1.3817
  711MOL0     H95926  10.633   5.958   6.275  0.2360  1.1551  1.7878
  711MOL0     H95927  10.794   5.925   6.346  0.5487 -1.7940 -1.9027
  711MOL0     H95928  10.899   6.075   6.152 -0.7040  1.1653 -1.6869
  711MOL0     H95929  10.747   6.099   6.092 -0.1883  1.3969  0.5372
  711MOL0     H95930  10.848   6.213   6.357  0.1000  1.2347 -0.2128
  711MOL0     H95931  10.814   6.285   6.202  1.0596 -1.3107 -0.3339
  711MOL0     H95932  10.597   6.141   6.378  0.4053 -0.5979 -1.2856
  711MOL0     H95933  10.563   6.239   6.237  0.0219 -2.1066 -0.8937
  711MOL0     H95934  10.518   6.346   6.452  0.8604  0.0194  1.4157
  711MOL0     H95935  10.682   6.331   6.495  3.1493 -1.3808 -2.9059
  711MOL0     H95936  10.719   6.560   6.527 -1.8236 -2.1683  0.3163
  711MOL0     H95937  10.674   6.896   6.321 -0.4820  0.4260  1.2002
  711MOL0     H95938  10.689   6.842   6.490 -0.7524  1.9360 -0.3105
  711MOL0     H95939  10.884   6.952   6.423 -2.0333 -0.2679  2.7491
  711MOL0     H95940  10.898   6.803   6.500 -3.2691 -2.6466 -0.9836
  711MOL0     H95941  10.951   6.879   6.210 -1.8316 -0.9005 -0.6446
  711MOL0     H95942  10.927   6.706   6.245 -0.8521 -0.0784  1.6166
  711MOL0     H95943  11.122   6.738   6.395 -1.1473 -1.6599 -0.7286
  711MOL0     H95944  11.128   6.907   6.325 -0.0048 -0.4588  1.8137
  711MOL0     H95945  11.329   6.668   6.014  2.2819 -1.2265  0.1241
  711MOL0     H95946  11.583   6.688   5.988  0.3071  0.1136 -1.1123
  711MOL0     H95947  11.855   7.082   6.217  0.5112 -1.1843  1.3708
  711MOL0     H95948  12.096   7.212   6.245  0.8499  1.3941  1.4306
  711MOL0     H95949  12.319   7.263   6.251 -0.6882 -1.0674  0.7232
  711MOL0     H95950  12.299   7.255   6.426  1.1525  2.0675 -0.3583
  711MOL0     H95951  12.544   7.186   6.264  0.5241 -0.4993  1.0872
  711MOL0     H95952  12.533   7.303   6.384  2.4506  0.2822 -4.2148
  711MOL0     H95953  12.550   7.150   6.562  3.2512  4.1721 -1.4213
  711MOL0     H95954  12.478   7.013   6.471  0.2730 -0.0720 -1.1462
  711MOL0     H95955  12.735   7.150   6.412 -1.7920  1.9140  0.8086
  711MOL0     H95956  12.690   7.004   6.331 -3.3393  2.1075 -1.6064
  711MOL0     H95957  12.793   6.874   6.475 -0.8270 -3.0614  4.6339
  711MOL0     H95958  12.672   6.930   6.597  0.9372  2.1980  0.9858
  711MOL0     H95959  12.941   6.949   6.627 -1.4456 -1.9460  0.3474
  711MOL0     H95960  12.910   7.101   6.538 -1.3805  0.1937 -1.2870
  711MOL0     H95961  12.765   7.007   6.813  3.1546 -0.2594  2.6491
  711MOL0     H95962  12.729   7.154   6.715  0.3113  1.9691  4.0831
  711MOL0     H95963  12.839   7.177   6.914  0.6605 -0.1371  1.6187
  711MOL0     H95964  12.981   7.084   6.866 -2.6093 -1.3213  1.0012
  711MOL0     H95965  12.254   6.831   6.331  0.5629  2.5109  1.2666
  711MOL0     H95966  12.052   6.722   6.307  2.6292 -0.1133 -1.0702
  711MOL0     H95967  11.576   6.864   6.388 -0.9301 -3.3114  1.3353
  711MOL0     H95968  11.346   6.845   6.399  3.4072  4.1779  0.5949
  711MOL0     H95969  11.378   5.730   6.199 -1.4323  1.7864  1.1266
  711MOL0     H95970  11.518   5.560   6.309 -1.1225  2.5698  2.8700
  711MOL0     H95971  11.533   5.239   6.607  1.5243  0.6045 -0.8323
  711MOL0     H95972  11.607   5.046   6.740 -2.4357 -0.0862 -0.6290
  711MOL0     H95973  11.700   4.866   6.853 -1.9906 -0.8908  1.2698
  711MOL0     H95974  11.773   4.713   6.822  0.3475 -1.4159 -2.2447
  711MOL0     H95975  11.567   4.629   6.710  1.0299  2.2781 -2.0802
  711MOL0     H95976  11.486   4.776   6.735  1.7416 -0.6243 -2.1588
  711MOL0     H95977  11.490   4.767   6.973 -2.2032 -0.6225 -1.5068
  711MOL0     H95978  11.606   4.633   6.972  1.0289  0.1743 -0.5683
  711MOL0     H95979  11.319   4.592   7.002  1.0041 -2.2428  1.9492
  711MOL0     H95980  11.341   4.625   6.828 -1.0873 -0.9197  0.4708
  711MOL0     H95981  11.490   4.236   6.851 -2.1888 -0.4090  0.3909
  711MOL0     H95982  11.707   4.826   6.398  0.8191  0.2291 -1.1884
  711MOL0     H95983  11.656   5.085   6.162  2.5014  0.1795  1.4442
  711MOL0     H95984  11.678   4.916   6.166 -0.9442  0.5226 -1.6663
  711MOL0     H95985  11.515   4.968   6.178  0.7550 -2.7430  2.2559
  712MOL0     O95986   4.716   3.025   7.040 -0.0145  0.0051  0.3556
  712MOL0     C95987   4.826   2.968   7.031 -0.5199  0.0132  0.3919
  712MOL0     O95988   4.951   3.039   7.024 -0.7689  0.7637 -0.4409
  712MOL0     C95989   4.948   3.165   6.987 -0.4548  0.0239  0.8722
  712MOL0     C95990   4.875   3.206   6.870 -0.2416 -0.5996 -0.4604
  712MOL0     C95991   4.875   3.336   6.825 -0.6225  0.0986  0.9622
  712MOL0     C95992   4.956   3.430   6.892 -1.0838  0.5019 -0.5141
  712MOL0     O95993   4.956   3.570   6.865 -0.1874  0.6160  0.2273
  712MOL0     C95994   4.913   3.616   6.739 -0.3742 -0.2578 -0.1333
  712MOL0     C95995   4.952   3.767   6.739  0.0700 -0.0279  0.3241
  712MOL0     C95996   4.888   3.852   6.846 -0.2694  0.4324 -0.4121
  712MOL0     C95997   4.788   3.955   6.802  0.2230 -0.6293 -0.3861
  712MOL0     C95998   4.745   4.057   6.913  0.1944  0.3778 -0.3235
  712MOL0     C95999   4.599   4.049   6.958  0.4980 -0.4570  0.0461
  712MOL0     C96000   4.579   4.138   7.080  0.7844  0.8752 -0.7554
  712MOL0     C96001   4.431   4.139   7.110 -0.1585  0.2270  0.6546
  712MOL0     N96002   4.356   4.236   7.025 -0.1638  0.2368 -0.3022
  712MOL0     C96003   4.350   4.371   7.029  0.0343 -0.6464 -0.0749
  712MOL0     C96004   4.267   4.405   6.929  0.1198 -0.4252  0.2787
  712MOL0     C96005   4.219   4.537   6.890 -0.0196 -0.6974 -0.1472
  712MOL0     C96006   4.333   4.633   6.854 -0.2646  0.2702  0.5500
  712MOL0     C96007   4.432   4.572   6.747  0.8695 -0.2007  0.0043
  712MOL0     C96008   4.557   4.671   6.726  1.1164  0.4309 -0.7143
  712MOL0     O96009   4.532   4.809   6.681 -0.1674  0.4361 -0.5760
  712MOL0     C96010   4.532   4.911   6.774  1.1440 -0.2482  0.1601
  712MOL0     C96011   4.601   4.919   6.893 -0.0618  0.6384  0.7249
  712MOL0     C96012   4.600   5.045   6.962 -0.0037 -0.0864 -0.1578
  712MOL0     C96013   4.519   5.153   6.928 -0.0814  0.0213  0.3608
  712MOL0     C96014   4.536   5.286   6.998  0.6300  0.9492 -0.9103
  712MOL0     O96015   4.607   5.298   7.118  0.4910 -0.5470 -0.8588
  712MOL0     C96016   4.627   5.420   7.187  0.2836 -0.0822  0.3494
  712MOL0     C96017   4.644   5.542   7.119  0.8292 -0.6208 -0.3331
  712MOL0     C96018   4.671   5.658   7.191  0.8392 -0.2200  0.6625
  712MOL0     C96019   4.694   5.659   7.328  0.0464  0.2837  0.1531
  712MOL0     O96020   4.732   5.781   7.378  0.2207 -0.3851 -0.3817
  712MOL0     C96021   4.649   5.840   7.477 -0.1235  0.8242 -0.3467
  712MOL0     C96022   4.564   5.936   7.404  0.0721 -0.3174 -0.6597
  712MOL0     C96023   4.522   6.040   7.504  0.5478 -0.2400  1.0092
  712MOL0     C96024   4.428   6.133   7.431  0.1315  0.2094  0.0713
  712MOL0     C96025   4.384   6.252   7.528 -0.9998 -0.3346  0.2138
  712MOL0     C96026   4.295   6.350   7.456 -0.2938  0.4922 -1.6351
  712MOL0     C96027   4.230   6.446   7.552 -1.0186  0.9232 -0.2622
  712MOL0     C96028   4.104   6.394   7.610  0.0385  0.2351 -0.5519
  712MOL0    Cl96029   4.051   6.490   7.750 -0.2988  0.3129  0.2052
  712MOL0     C96030   4.677   5.539   7.395 -0.2874  0.4441  0.5092
  712MOL0     C96031   4.651   5.419   7.322 -0.1807 -0.3906 -1.3732
  712MOL0     O96032   4.482   5.381   6.937 -1.3482 -0.9089 -0.0028
  712MOL0     C96033   4.442   5.134   6.820  1.1268 -0.1942 -0.0762
  712MOL0     C96034   4.455   5.018   6.746  0.3580 -0.5978  0.0269
  712MOL0     N96035   4.219   4.292   6.867  0.1797 -0.4530  0.0880
  712MOL0     N96036   4.267   4.195   6.924 -0.2611  0.3174 -0.0542
  712MOL0     C96037   5.043   3.397   7.004 -0.5756 -0.3207 -0.0613
  712MOL0     C96038   5.029   3.263   7.050  0.0926 -0.1362 -1.0075
  712MOL0     C96039   4.833   2.823   7.032  0.3801  0.0718  0.2645
  712MOL0     C96040   4.926   2.768   6.944 -0.1986  0.3497  1.0636
  712MOL0     C96041   4.941   2.623   6.934  0.5013  0.2505  0.0574
  712MOL0     C96042   4.863   2.541   7.020  0.4230  0.8550 -0.4574
  712MOL0     O96043   4.855   2.407   7.025  0.2895 -1.0172  1.7989
  712MOL0     C96044   4.941   2.318   6.953  0.4334 -0.7378 -0.2151
  712MOL0     C96045   4.879   2.283   6.816  0.4410 -0.5799  0.0746
  712MOL0     C96046   4.969   2.190   6.740 -0.3879 -0.1586 -0.1530
  712MOL0     C96047   5.105   2.254   6.693  0.8447  1.0882 -0.1866
  712MOL0     C96048   5.083   2.360   6.592 -0.0100 -0.7045  0.4290
  712MOL0     C96049   5.074   2.433   6.499  0.5154  0.9403 -0.1576
  712MOL0     C96050   4.772   2.605   7.105 -0.2357  0.3447  0.3063
  712MOL0     C96051   4.750   2.741   7.109  0.3297 -0.7171 -0.3997
  712MOL0     C96052   4.649   2.789   7.214  0.3274 -0.6353  0.4612
  712MOL0     H96053   4.814   3.137   6.812 -2.2037  1.7979 -1.4164
  712MOL0     H96054   4.813   3.371   6.744 -0.6212 -1.0788  0.4397
  712MOL0     H96055   4.956   3.567   6.652 -0.6317 -0.6584 -0.0391
  712MOL0     H96056   4.808   3.593   6.720 -0.3226  0.0965 -0.8738
  712MOL0     H96057   4.933   3.805   6.638  0.5727 -1.2847 -0.2617
  712MOL0     H96058   5.060   3.769   6.757  0.0957  1.8891  0.1287
  712MOL0     H96059   4.969   3.909   6.892  1.6743 -0.9421 -1.9746
  712MOL0     H96060   4.846   3.785   6.921  1.1998 -0.1189 -0.0488
  712MOL0     H96061   4.824   4.016   6.718 -0.5062  1.9813  1.0746
  712MOL0     H96062   4.710   3.891   6.760 -2.3494  0.0830  2.8528
  712MOL0     H96063   4.810   4.032   6.997 -1.0123  2.1310  1.2146
  712MOL0     H96064   4.765   4.162   6.886 -1.6109  0.5392 -1.1527
  712MOL0     H96065   4.532   4.075   6.875 -0.9504 -0.5953  1.1304
  712MOL0     H96066   4.570   3.948   6.990 -0.3430 -0.4175 -0.5685
  712MOL0     H96067   4.604   4.242   7.057  3.4032  0.7661  1.1659
  712MOL0     H96068   4.635   4.101   7.166 -2.1554  2.7379  2.1784
  712MOL0     H96069   4.389   4.038   7.097 -1.9697  0.8622  1.2584
  712MOL0     H96070   4.424   4.166   7.215  2.4905  0.6263  0.7928
  712MOL0     H96071   4.400   4.441   7.096  1.8553 -1.8396 -0.0928
  712MOL0     H96072   4.170   4.516   6.795  4.9273 -1.4500 -2.8949
  712MOL0     H96073   4.152   4.564   6.972  1.5748 -0.8490  1.2720
  712MOL0     H96074   4.272   4.716   6.816  1.3230  1.3290  0.2179
  712MOL0     H96075   4.383   4.658   6.948  1.1648  2.2413 -0.6701
  712MOL0     H96076   4.377   4.569   6.653  1.9035 -0.0808 -0.6220
  712MOL0     H96077   4.476   4.472   6.762  3.1148  0.6990 -0.1281
  712MOL0     H96078   4.624   4.626   6.652  1.5087  0.2734 -0.2641
  712MOL0     H96079   4.620   4.674   6.815  1.7268  0.0764 -1.1186
  712MOL0     H96080   4.674   4.845   6.923  1.1444  1.6802  0.4489
  712MOL0     H96081   4.670   5.062   7.043 -0.7472  1.6970  0.1436
  712MOL0     H96082   4.656   5.552   7.011  1.2274  0.9038 -0.1801
  712MOL0     H96083   4.667   5.755   7.142  0.8134 -0.2383  0.6278
  712MOL0     H96084   4.593   5.758   7.523  3.6748 -3.2399 -2.2967
  712MOL0     H96085   4.712   5.888   7.553 -2.8220 -0.7230  3.1763
  712MOL0     H96086   4.620   5.981   7.322  1.0699  0.6395  0.4943
  712MOL0     H96087   4.474   5.889   7.365 -2.0625  2.4174  0.5894
  712MOL0     H96088   4.472   5.979   7.580 -1.1723  0.8970  0.8583
  712MOL0     H96089   4.608   6.095   7.544 -0.4707  1.0266  1.5504
  712MOL0     H96090   4.333   6.090   7.398 -1.0188  1.5585  1.4631
  712MOL0     H96091   4.466   6.183   7.342 -3.6185  0.4094 -1.5800
  712MOL0     H96092   4.478   6.295   7.563 -0.2637  0.3499 -2.4133
  712MOL0     H96093   4.327   6.220   7.616 -3.3044  2.9825  0.1233
  712MOL0     H96094   4.366   6.406   7.394  1.5506 -0.3880 -0.3738
  712MOL0     H96095   4.227   6.301   7.385 -1.5627  1.5482 -1.2054
  712MOL0     H96096   4.211   6.541   7.501  1.3830  0.6074 -1.9514
  712MOL0     H96097   4.296   6.451   7.639 -2.2912 -2.0162  1.0166
  712MOL0     H96098   4.026   6.389   7.533  0.8983 -1.8271 -1.3629
  712MOL0     H96099   4.105   6.288   7.640 -1.5195 -0.2903 -2.1438
  712MOL0     H96100   4.697   5.535   7.501 -2.4311  0.3126  0.9480
  712MOL0     H96101   4.647   5.328   7.381 -3.7846 -0.4988 -1.6121
  712MOL0     H96102   4.368   5.201   6.775 -1.8164 -3.7118 -0.9321
  712MOL0     H96103   4.396   5.008   6.656  0.8909  1.3873 -0.5866
  712MOL0     H96104   5.108   3.469   7.053 -2.6638  2.5832 -1.2394
  712MOL0     H96105   5.091   3.228   7.132 -1.2074  1.2820  0.6439
  712MOL0     H96106   4.986   2.842   6.892  1.9918 -0.9880  1.5837
  712MOL0     H96107   5.020   2.570   6.882  1.5999  0.3417  1.5709
  712MOL0     H96108   4.952   2.226   7.010 -0.4362 -1.2126 -0.7968
  712MOL0     H96109   5.038   2.364   6.930  0.4241  0.3426  1.6978
  712MOL0     H96110   4.857   2.378   6.766 -1.5687 -1.3728 -0.6326
  712MOL0     H96111   4.783   2.231   6.823  0.8870 -1.3311  0.8199
  712MOL0     H96112   4.912   2.162   6.650 -0.1728  1.6503 -0.9002
  712MOL0     H96113   4.985   2.100   6.799 -1.0800  1.1406  2.1494
  712MOL0     H96114   5.153   2.282   6.788 -3.1067  3.2031  1.4425
  712MOL0     H96115   5.166   2.178   6.642  0.7910  1.5859 -1.0045
  712MOL0     H96116   5.074   2.494   6.411  0.0613  0.4468 -0.5023
  712MOL0     H96117   4.721   2.526   7.159  1.2940 -2.4450 -2.0433
  712MOL0     H96118   4.701   2.807   7.308  2.7810 -0.5817 -0.8041
  712MOL0     H96119   4.594   2.874   7.172  0.2636 -0.0071  1.7651
  712MOL0     H96120   4.570   2.717   7.235 -4.7456  4.6188  1.7168
  713MOL0     O96121   1.600   4.988   2.241 -0.5682  0.0857 -0.6810
  713MOL0     C96122   1.583   5.050   2.137 -0.0604  0.1719  0.7529
  713MOL0     O96123   1.639   5.173   2.117 -0.2092  0.0161  0.9404
  713MOL0     C96124   1.682   5.235   2.233 -0.3984  0.2755  1.2201
  713MOL0     C96125   1.819   5.253   2.252  0.0108 -0.8717  0.6996
  713MOL0     C96126   1.874   5.306   2.374 -0.5476  0.3366  0.3029
  713MOL0     C96127   1.776   5.354   2.470  0.3099  0.2662  0.3656
  713MOL0     O96128   1.812   5.415   2.589 -0.3447 -0.3022  0.2183
  713MOL0     C96129   1.951   5.457   2.614 -0.1255 -0.1876 -0.4758
  713MOL0     C96130   2.023   5.329   2.662 -1.0667 -0.2756 -0.2282
  713MOL0     C96131   1.946   5.242   2.765 -0.7171  0.6626 -0.5467
  713MOL0     C96132   1.906   5.329   2.885 -0.5209 -0.0195 -0.7094
  713MOL0     C96133   1.831   5.243   2.991  0.8807  1.5774 -0.8987
  713MOL0     C96134   1.698   5.212   2.935 -0.7944  0.2342  0.3733
  713MOL0     C96135   1.624   5.115   3.022 -0.1055  0.2685 -0.6654
  713MOL0     C96136   1.476   5.084   2.981 -0.3543 -0.7135  0.1017
  713MOL0     N96137   1.433   4.973   3.066 -0.1538  0.8084 -0.5539
  713MOL0     C96138   1.380   4.984   3.197 -0.4445  0.0607 -0.0511
  713MOL0     C96139   1.386   4.857   3.253 -0.1883  0.5289 -0.2212
  713MOL0     C96140   1.339   4.811   3.387 -0.3436  0.0729 -0.4155
  713MOL0     C96141   1.441   4.748   3.476 -0.5118  0.6255 -1.0367
  713MOL0     C96142   1.374   4.709   3.611 -0.0987 -1.1711  0.4044
  713MOL0     C96143   1.364   4.808   3.724  0.8282 -0.7234  1.1809
  713MOL0     O96144   1.355   4.739   3.850  0.0389  0.3388 -0.9023
  713MOL0     C96145   1.331   4.816   3.960 -0.1459  0.2881  0.4914
  713MOL0     C96146   1.200   4.832   4.006 -1.1988 -0.0547 -0.3522
  713MOL0     C96147   1.181   4.904   4.117 -0.0995 -0.9054  0.6500
  713MOL0     C96148   1.278   4.991   4.171 -0.7807  0.4744  0.4132
  713MOL0     C96149   1.264   5.070   4.296  1.3135  0.0838 -0.1077
  713MOL0     O96150   1.143   5.053   4.361  0.1253 -0.1592  0.9041
  713MOL0     C96151   1.125   5.100   4.493 -0.3558 -0.1764 -0.7123
  713MOL0     C96152   0.996   5.130   4.525 -0.9545 -0.3246 -0.3947
  713MOL0     C96153   0.972   5.170   4.657  0.1948 -0.3402  0.5908
  713MOL0     C96154   1.077   5.173   4.752  0.5308  0.4143 -1.2008
  713MOL0     O96155   1.051   5.222   4.880 -0.0472  0.4335  0.3176
  713MOL0     C96156   1.095   5.356   4.907  0.1973 -0.6795  0.3476
  713MOL0     C96157   1.227   5.353   4.982  0.1266  0.3481 -0.4131
  713MOL0     C96158   1.224   5.270   5.104  0.5563  0.1913  0.1964
  713MOL0     C96159   1.350   5.288   5.181 -0.3832 -0.2594 -0.7547
  713MOL0     C96160   1.349   5.206   5.308  0.6939 -0.6044  0.8619
  713MOL0     C96161   1.465   5.224   5.410  0.1034 -0.7625 -0.6416
  713MOL0     C96162   1.458   5.365   5.474 -0.5525  0.8744  0.1097
  713MOL0     C96163   1.563   5.362   5.598  0.9115 -0.0714  0.8172
  713MOL0    Cl96164   1.728   5.344   5.545 -0.2588 -0.0808  0.1998
  713MOL0     C96165   1.205   5.130   4.714 -0.3688  0.8585  0.0579
  713MOL0     C96166   1.231   5.094   4.578  0.1012  0.4625  0.2240
  713MOL0     O96167   1.353   5.153   4.326 -0.7403  0.4178  0.4146
  713MOL0     C96168   1.406   4.980   4.109  0.3101 -0.2954  0.4486
  713MOL0     C96169   1.433   4.891   4.006 -0.2889 -0.0357 -1.0586
  713MOL0     N96170   1.456   4.778   3.163  0.5532 -0.4185 -0.0469
  713MOL0     N96171   1.476   4.842   3.054 -0.0115  0.2485 -0.3176
  713MOL0     C96172   1.640   5.333   2.449  0.3430  0.3664  0.0230
  713MOL0     C96173   1.590   5.278   2.326 -0.3119 -0.4900 -0.2823
  713MOL0     C96174   1.538   4.990   2.003 -0.8554 -0.5864 -0.3542
  713MOL0     C96175   1.511   5.067   1.886 -0.0491 -0.5639 -0.4037
  713MOL0     C96176   1.453   5.001   1.772  0.1179  0.3034  0.5324
  713MOL0     C96177   1.432   4.864   1.757 -0.3188 -0.5544 -0.3308
  713MOL0     O96178   1.374   4.801   1.643  0.1191  0.3842 -0.2818
  713MOL0     C96179   1.407   4.852   1.513  1.0210  0.2287  0.7034
  713MOL0     C96180   1.556   4.839   1.488  0.7523  0.2577  0.3241
  713MOL0     C96181   1.597   4.725   1.394  0.3006 -0.7645 -0.7289
  713MOL0     C96182   1.750   4.719   1.379 -0.7280  0.4823 -0.0950
  713MOL0     C96183   1.824   4.839   1.322 -0.3935 -0.2488  0.5293
  713MOL0     C96184   1.882   4.940   1.270  0.3785  0.3713  0.4492
  713MOL0     C96185   1.468   4.797   1.872  0.1686  0.5591  0.0407
  713MOL0     C96186   1.521   4.853   1.987 -0.8007 -0.1347 -0.4686
  713MOL0     C96187   1.552   4.745   2.092 -0.3039  0.0276 -0.7380
  713MOL0     H96188   1.878   5.199   2.179 -1.5488 -1.4636 -0.1784
  713MOL0     H96189   1.981   5.291   2.387 -0.8699 -1.6799  1.1425
  713MOL0     H96190   1.999   5.500   2.526 -1.1957 -0.8153 -1.3951
  713MOL0     H96191   1.959   5.534   2.692  0.7532 -2.3909  1.7329
  713MOL0     H96192   2.116   5.351   2.716 -2.8106  2.8548  1.7746
  713MOL0     H96193   2.035   5.261   2.577 -2.0341 -0.8165  0.0538
  713MOL0     H96194   2.007   5.155   2.792 -3.5558 -0.8870  1.3794
  713MOL0     H96195   1.858   5.200   2.717 -0.1685 -3.9426  1.8891
  713MOL0     H96196   1.995   5.368   2.934 -0.1488 -3.5349  1.8108
  713MOL0     H96197   1.854   5.419   2.849  1.9248  1.6605 -0.2839
  713MOL0     H96198   1.880   5.146   2.983 -3.7353 -0.8807 -3.2087
  713MOL0     H96199   1.832   5.287   3.091  0.2967 -1.4118  0.5110
  713MOL0     H96200   1.632   5.298   2.920 -0.7226 -0.0639 -1.9761
  713MOL0     H96201   1.692   5.168   2.835 -3.8198  0.2139  0.4725
  713MOL0     H96202   1.625   5.154   3.124 -0.4911  0.8869 -0.8916
  713MOL0     H96203   1.681   5.021   3.026  0.3225  0.5616  3.1334
  713MOL0     H96204   1.406   5.169   2.986  1.4327  1.3056 -4.1765
  713MOL0     H96205   1.468   5.057   2.875 -0.3260  0.1583 -0.1387
  713MOL0     H96206   1.351   5.075   3.248  4.5142  3.4026 -2.4399
  713MOL0     H96207   1.294   4.899   3.432  2.2882  0.3142  2.0200
  713MOL0     H96208   1.254   4.745   3.367 -0.5373 -0.3920  1.6876
  713MOL0     H96209   1.479   4.656   3.432 -0.1329  0.4352 -0.3347
  713MOL0     H96210   1.535   4.801   3.498 -1.3853  1.4193  1.1048
  713MOL0     H96211   1.438   4.634   3.657  1.5583  0.5962  1.1593
  713MOL0     H96212   1.276   4.666   3.589  0.4456 -3.2577  1.7425
  713MOL0     H96213   1.284   4.879   3.702  0.1918 -1.2836  1.6609
  713MOL0     H96214   1.461   4.859   3.716  0.6042 -0.5072 -0.6766
  713MOL0     H96215   1.112   4.795   3.955  0.5078 -2.0995 -2.0330
  713MOL0     H96216   1.084   4.898   4.164 -1.3919  0.6352 -1.6451
  713MOL0     H96217   0.917   5.121   4.452 -3.1198 -0.8873  1.8646
  713MOL0     H96218   0.873   5.201   4.688  1.6164  1.2581  3.9615
  713MOL0     H96219   1.104   5.403   4.808  4.3365  1.2116  1.3731
  713MOL0     H96220   1.023   5.413   4.965  1.1976  0.6064  0.3857
  713MOL0     H96221   1.308   5.314   4.920  0.0703  0.2280 -0.4108
  713MOL0     H96222   1.247   5.459   5.001  1.1606  0.4256 -1.7727
  713MOL0     H96223   1.135   5.283   5.167  0.4782 -4.0090  1.2665
  713MOL0     H96224   1.218   5.165   5.075  1.5284  0.0427  0.4843
  713MOL0     H96225   1.375   5.393   5.202 -0.7142 -0.0435 -1.4404
  713MOL0     H96226   1.437   5.257   5.122  0.5237  1.8079 -0.6120
  713MOL0     H96227   1.347   5.103   5.270  0.4382  0.7364 -3.1912
  713MOL0     H96228   1.251   5.220   5.353  0.1942 -0.7977 -0.1515
  713MOL0     H96229   1.442   5.158   5.494  0.9670 -0.4758 -0.1680
  713MOL0     H96230   1.565   5.197   5.373  2.3843  1.1524  3.3492
  713MOL0     H96231   1.356   5.378   5.511 -0.3794  0.2297  0.8222
  713MOL0     H96232   1.467   5.435   5.390  0.7619  0.7378  0.1288
  713MOL0     H96233   1.559   5.465   5.636 -1.2537  0.2198 -0.0272
  713MOL0     H96234   1.526   5.290   5.671 -1.6827 -0.3730 -0.6523
  713MOL0     H96235   1.289   5.125   4.782 -2.6525 -1.9876  3.0156
  713MOL0     H96236   1.331   5.063   4.550  0.1295  2.2732 -1.9719
  713MOL0     H96237   1.478   5.048   4.152 -2.4773  2.1001  1.6842
  713MOL0     H96238   1.534   4.892   3.968  1.6487  3.4803  3.2862
  713MOL0     H96239   1.573   5.350   2.532  1.4880 -2.5865  1.7044
  713MOL0     H96240   1.486   5.253   2.305 -0.4742 -0.1961  0.1457
  713MOL0     H96241   1.515   5.175   1.887 -1.3949 -0.4999  0.0987
  713MOL0     H96242   1.426   5.071   1.694  1.2831  2.0401  1.6124
  713MOL0     H96243   1.384   4.958   1.503  5.3127  1.3229  0.3852
  713MOL0     H96244   1.349   4.799   1.437  2.2275 -0.7882  0.4568
  713MOL0     H96245   1.606   4.834   1.585 -1.8751  2.8994  1.9610
  713MOL0     H96246   1.597   4.924   1.433  2.0098 -1.2588 -1.2046
  713MOL0     H96247   1.552   4.723   1.295 -2.5970 -3.4616  0.4397
  713MOL0     H96248   1.557   4.634   1.441  0.8019 -1.5312 -1.7505
  713MOL0     H96249   1.791   4.694   1.477  0.0251 -0.0887 -0.5430
  713MOL0     H96250   1.778   4.630   1.322  2.0217 -0.9900  3.1956
  713MOL0     H96251   1.939   5.021   1.231 -0.8284  0.9067 -0.2403
  713MOL0     H96252   1.446   4.691   1.873 -1.4486  0.8616  0.4551
  713MOL0     H96253   1.657   4.735   2.122 -0.5193 -2.7319 -0.6512
  713MOL0     H96254   1.478   4.751   2.173  1.5515  1.1876  0.9756
  713MOL0     H96255   1.540   4.647   2.045  2.4795 -0.8692  0.2406
  714MOL0     O96256  10.997   5.869  11.429 -0.1188  0.1740  0.4330
  714MOL0     C96257  11.116   5.853  11.394  0.3447  0.0198 -0.1083
  714MOL0     O96258  11.215   5.829  11.478 -1.0496  1.0224 -0.2527
  714MOL0     C96259  11.217   5.872  11.608  0.5047  0.8732  0.3048
  714MOL0     C96260  11.127   5.824  11.695  0.1573  0.4466  0.9070
  714MOL0     C96261  11.154   5.841  11.833  0.3573  0.2080  0.7063
  714MOL0     C96262  11.274   5.890  11.879  0.8000 -0.2340 -0.7819
  714MOL0     O96263  11.313   5.908  12.009 -0.4273  0.1394 -0.4013
  714MOL0     C96264  11.446   5.889  12.047  0.8311 -1.2937 -1.0220
  714MOL0     C96265  11.501   6.021  12.099  0.6281 -0.1370 -0.2211
  714MOL0     C96266  11.643   6.015  12.138  0.0974  0.0304 -0.2154
  714MOL0     C96267  11.725   6.138  12.165 -0.0481  0.0296  0.9591
  714MOL0     C96268  11.858   6.102  12.224 -0.3259  0.7184 -0.1693
  714MOL0     C96269  11.919   6.214  12.314 -0.5492  0.0527 -0.6580
  714MOL0     C96270  12.061   6.189  12.362  0.5248  0.9447  1.5440
  714MOL0     C96271  12.136   6.317  12.407  0.4532  0.7910 -0.2116
  714MOL0     N96272  12.075   6.399  12.505 -0.2179 -0.3954 -0.1454
  714MOL0     C96273  12.022   6.367  12.621 -0.4030 -0.1920 -0.3488
  714MOL0     C96274  11.992   6.483  12.682  0.0323  0.5032  0.6910
  714MOL0     C96275  11.949   6.489  12.825  0.1440 -0.8388 -1.0260
  714MOL0     C96276  11.821   6.408  12.862  0.5306  0.2233  0.1388
  714MOL0     C96277  11.763   6.452  13.003  0.1455  0.4663  0.1987
  714MOL0     C96278  11.681   6.587  12.987 -0.6114 -1.3311 -0.4059
  714MOL0     O96279  11.543   6.573  13.006  0.2857  0.1652 -0.3054
  714MOL0     C96280  11.467   6.687  12.995 -0.6276 -0.4164 -1.0467
  714MOL0     C96281  11.328   6.670  12.995  0.0235 -0.7504 -0.2915
  714MOL0     C96282  11.248   6.785  12.984 -0.2222 -0.3725  0.5916
  714MOL0     C96283  11.300   6.914  12.987  0.1001  0.2096  0.6283
  714MOL0     C96284  11.215   7.036  12.980 -0.2884  0.1370  0.6826
  714MOL0     O96285  11.076   7.008  12.992 -0.5189  0.3895  0.9544
  714MOL0     C96286  11.000   7.117  12.992  0.0909 -0.0937 -0.3469
  714MOL0     C96287  10.942   7.163  13.114 -0.7961  0.2599 -0.4533
  714MOL0     C96288  10.854   7.269  13.108  0.3114  0.9182  0.2299
  714MOL0     C96289  10.824   7.339  12.991 -0.4431 -0.8250 -0.0517
  714MOL0     O96290  10.742   7.452  12.987  0.2372  0.3153  0.9067
  714MOL0     C96291  10.736   7.539  13.103 -0.1769  0.5692  0.4481
  714MOL0     C96292  10.696   7.684  13.066 -1.1348 -1.0835  0.3372
  714MOL0     C96293  10.828   7.767  13.043  0.3327 -0.1668 -0.5266
  714MOL0     C96294  10.806   7.893  12.972  0.2867 -0.3507 -0.0250
  714MOL0     C96295  10.934   7.974  12.952 -0.1981 -0.2718 -0.5074
  714MOL0     C96296  10.908   8.109  12.904 -0.5459 -0.2470 -0.2384
  714MOL0     C96297  10.877   8.112  12.751 -0.2799  0.2569 -0.1870
  714MOL0     C96298  10.797   8.240  12.718  0.9406  0.4313 -0.5521
  714MOL0    Cl96299  10.811   8.257  12.551  0.0035 -0.1737  0.0975
  714MOL0     C96300  10.879   7.292  12.874 -0.6459  0.4341 -0.1804
  714MOL0     C96301  10.974   7.184  12.875 -0.4131  0.3498  0.3008
  714MOL0     O96302  11.264   7.143  12.966 -0.3774 -0.8045 -0.2796
  714MOL0     C96303  11.437   6.932  12.993 -0.5144  0.2681 -0.1549
  714MOL0     C96304  11.527   6.823  12.991  0.9014 -0.0377 -0.3504
  714MOL0     N96305  12.017   6.588  12.600 -0.1153 -0.4582  0.5935
  714MOL0     N96306  12.058   6.533  12.483 -0.4872 -0.8760 -0.3796
  714MOL0     C96307  11.360   5.936  11.781  0.0250  0.4778  0.2682
  714MOL0     C96308  11.342   5.916  11.649  1.5952  0.2327  0.3380
  714MOL0     C96309  11.142   5.842  11.246  0.2051  0.3325 -0.5964
  714MOL0     C96310  11.036   5.863  11.165  0.1529 -1.5504 -0.7352
  714MOL0     C96311  11.046   5.865  11.023  0.0868  0.5861 -0.0802
  714MOL0     C96312  11.165   5.820  10.955  0.2885  0.4853  0.5230
  714MOL0     O96313  11.176   5.813  10.816 -0.1406  0.7518 -0.4436
  714MOL0     C96314  11.269   5.708  10.771 -0.6180  0.0922  0.2426
  714MOL0     C96315  11.213   5.662  10.631 -0.4440 -0.4004 -0.1529
  714MOL0     C96316  11.081   5.592  10.643  0.0864 -0.7729 -0.4836
  714MOL0     C96317  11.034   5.559  10.497 -0.7869  0.5070  0.7825
  714MOL0     C96318  10.914   5.482  10.507 -0.5998 -0.4627 -1.1917
  714MOL0     C96319  10.815   5.430  10.537  1.0064 -0.8640  0.0273
  714MOL0     C96320  11.268   5.797  11.051  0.1105 -1.0156 -0.2057
  714MOL0     C96321  11.260   5.803  11.188  0.1451  0.3609  0.0083
  714MOL0     C96322  11.379   5.747  11.259 -0.4307 -0.3405 -0.0759
  714MOL0     H96323  11.040   5.766  11.665 -0.7352  1.6958  0.9914
  714MOL0     H96324  11.090   5.800  11.910 -0.6238 -0.7920 -0.5782
  714MOL0     H96325  11.455   5.816  12.128  0.1611 -0.1384  0.1151
  714MOL0     H96326  11.512   5.867  11.962 -0.7318 -1.2147 -2.2829
  714MOL0     H96327  11.434   6.056  12.178  0.6632 -2.5861  0.9985
  714MOL0     H96328  11.497   6.099  12.022 -1.7310 -0.0699 -0.0866
  714MOL0     H96329  11.698   5.968  12.055  0.5182  1.6979 -0.9243
  714MOL0     H96330  11.637   5.950  12.226 -1.0480 -0.7768 -0.8583
  714MOL0     H96331  11.740   6.188  12.069  1.3760  0.4157  1.3553
  714MOL0     H96332  11.665   6.204  12.227 -1.3774  1.7799 -1.9733
  714MOL0     H96333  11.850   6.020  12.296  0.9630 -0.4464 -1.3074
  714MOL0     H96334  11.925   6.075  12.142 -1.2624  3.1435 -1.8643
  714MOL0     H96335  11.930   6.304  12.252  0.0360 -1.3891 -2.7541
  714MOL0     H96336  11.863   6.244  12.404 -0.0089 -2.5269  0.6313
  714MOL0     H96337  12.119   6.147  12.280  1.9208  0.5785  2.6827
  714MOL0     H96338  12.057   6.113  12.441 -2.2584  0.0617  0.6937
  714MOL0     H96339  12.237   6.285  12.435  0.3783  1.1447  0.4742
  714MOL0     H96340  12.145   6.378  12.317  0.9227 -2.3669 -2.4796
  714MOL0     H96341  12.021   6.268  12.665  1.7230 -0.6916 -1.2698
  714MOL0     H96342  12.033   6.431  12.865  2.7190  1.3759 -2.7667
  714MOL0     H96343  11.952   6.590  12.867  1.6183 -1.5372  0.7221
  714MOL0     H96344  11.736   6.423  12.794  0.2467 -0.3741  0.3601
  714MOL0     H96345  11.855   6.305  12.860  3.2341  1.0334  0.5325
  714MOL0     H96346  11.844   6.463  13.075 -1.3241  0.4758  1.9258
  714MOL0     H96347  11.691   6.376  13.034  3.2436 -2.2244  1.3508
  714MOL0     H96348  11.683   6.637  12.889  3.0199  3.6943  1.7336
  714MOL0     H96349  11.722   6.666  13.051 -1.5236  0.9495 -2.4698
  714MOL0     H96350  11.289   6.569  12.990  2.6017 -1.8747  0.5727
  714MOL0     H96351  11.141   6.769  12.969 -0.0051 -1.2006 -0.1777
  714MOL0     H96352  10.961   7.115  13.209 -3.6891  2.7283  1.5749
  714MOL0     H96353  10.810   7.290  13.205  0.9910 -0.4280  0.8647
  714MOL0     H96354  10.654   7.508  13.169 -1.7583 -0.2597 -1.7801
  714MOL0     H96355  10.824   7.549  13.167 -0.9908  0.9567  1.5461
  714MOL0     H96356  10.620   7.687  12.988 -0.0350 -2.3865 -0.8333
  714MOL0     H96357  10.649   7.728  13.155  0.1522  1.3031 -0.0952
  714MOL0     H96358  10.879   7.795  13.135  2.8182  2.2534 -2.4852
  714MOL0     H96359  10.905   7.716  12.983  0.6259  3.9377 -4.1395
  714MOL0     H96360  10.729   7.950  13.025 -1.6977  0.2931 -3.3109
  714MOL0     H96361  10.768   7.873  12.871  3.1087 -2.7497 -0.7822
  714MOL0     H96362  10.995   7.927  12.874 -0.0927  0.2254 -0.7284
  714MOL0     H96363  10.984   7.981  13.049  1.2906  2.6427 -1.3518
  714MOL0     H96364  10.833   8.158  12.966  0.8282  0.5792  0.8486
  714MOL0     H96365  10.989   8.174  12.939 -0.4655 -0.4071 -0.1215
  714MOL0     H96366  10.827   8.025  12.707  0.2338  0.7983 -1.9031
  714MOL0     H96367  10.968   8.114  12.691  0.1595  1.3567  0.4785
  714MOL0     H96368  10.690   8.229  12.736  0.7650 -0.8648 -2.2121
  714MOL0     H96369  10.839   8.328  12.768 -0.0524  1.2699 -1.1540
  714MOL0     H96370  10.876   7.339  12.776 -1.2252 -1.1348 -0.9467
  714MOL0     H96371  11.014   7.140  12.785 -2.9614  1.7215 -1.6111
  714MOL0     H96372  11.479   7.031  13.007  1.6223 -0.7584  1.2212
  714MOL0     H96373  11.630   6.857  13.000 -0.1702  3.5807 -0.1707
  714MOL0     H96374  11.461   5.972  11.796  0.1260 -0.6073  2.6880
  714MOL0     H96375  11.427   5.941  11.586  2.8422 -1.0989  1.3968
  714MOL0     H96376  10.939   5.897  11.200  1.0933  2.9288 -1.7948
  714MOL0     H96377  10.958   5.899  10.969 -1.8710 -1.9504  1.3188
  714MOL0     H96378  11.260   5.620  10.836 -0.5812  1.4175  2.1340
  714MOL0     H96379  11.369   5.752  10.771 -0.6522  0.2600  2.1297
  714MOL0     H96380  11.287   5.596  10.585  2.8279  2.0146  1.1397
  714MOL0     H96381  11.207   5.748  10.564 -0.5399 -2.0703 -2.3602
  714MOL0     H96382  11.010   5.669  10.676  1.5189  1.0087 -1.3728
  714MOL0     H96383  11.080   5.504  10.709 -2.3535 -1.7268 -1.6899
  714MOL0     H96384  11.007   5.651  10.444  2.5435  0.5282 -1.1455
  714MOL0     H96385  11.106   5.495  10.444 -3.1118 -1.5679 -0.0325
  714MOL0     H96386  10.728   5.381  10.576 -2.5860  2.4812 -2.8783
  714MOL0     H96387  11.366   5.770  11.012  1.1048 -0.3935  1.7432
  714MOL0     H96388  11.407   5.815  11.340  1.5059  0.0233 -0.9937
  714MOL0     H96389  11.353   5.646  11.291  2.0939 -1.7573 -2.0868
  714MOL0     H96390  11.467   5.733  11.195  0.5839  3.2489  0.3125
  715MOL0     O96391   4.157  10.951  10.799 -0.1875  0.4032 -0.7976
  715MOL0     C96392   4.285  10.936  10.778 -0.7803  0.7539  0.1266
  715MOL0     O96393   4.370  11.042  10.777  0.2952  0.0475  0.5706
  715MOL0     C96394   4.328  11.171  10.816  0.4719 -0.1388 -0.2294
  715MOL0     C96395   4.309  11.274  10.726 -0.7408  0.9899  0.9063
  715MOL0     C96396   4.271  11.395  10.767  0.3082 -0.5018  0.3524
  715MOL0     C96397   4.240  11.426  10.900 -0.4648 -0.4375 -0.2616
  715MOL0     O96398   4.206  11.553  10.942 -0.5192  0.7359  0.0739
  715MOL0     C96399   4.242  11.583  11.073 -0.1513 -0.0279 -0.0999
  715MOL0     C96400   4.205  11.732  11.109  0.0899  0.1233 -0.8525
  715MOL0     C96401   4.097  11.750  11.212  0.2709 -0.0022 -0.6049
  715MOL0     C96402   4.040  11.888  11.223 -0.3834 -0.3269  0.1780
  715MOL0     C96403   3.920  11.894  11.126  0.5629 -0.0064  0.4364
  715MOL0     C96404   3.788  11.861  11.193 -0.2787  0.7095 -0.8988
  715MOL0     C96405   3.662  11.890  11.097  0.0300 -0.1017  0.5004
  715MOL0     C96406   3.536  11.859  11.183  0.1551 -0.1908 -0.2269
  715MOL0     N96407   3.536  11.711  11.203 -0.8854 -0.2109  0.2284
  715MOL0     C96408   3.563  11.643  11.320 -0.7482 -0.0115  0.5314
  715MOL0     C96409   3.583  11.516  11.294 -0.4485 -0.0242  0.0927
  715MOL0     C96410   3.588  11.406  11.388  0.0287  0.1378 -0.1102
  715MOL0     C96411   3.496  11.287  11.350  0.4153 -0.6453  0.0819
  715MOL0     C96412   3.493  11.164  11.447  0.4975  0.2823 -0.2506
  715MOL0     C96413   3.630  11.107  11.481 -0.4422 -0.2945  0.5496
  715MOL0     O96414   3.623  11.038  11.600 -0.5787  0.1174 -0.0716
  715MOL0     C96415   3.731  10.953  11.627  0.1865  0.1013  0.4756
  715MOL0     C96416   3.844  10.927  11.542 -0.7131 -0.8097 -0.1428
  715MOL0     C96417   3.956  10.847  11.584  0.2905  1.6112  0.2027
  715MOL0     C96418   3.944  10.782  11.707 -0.0541  0.1179 -0.0426
  715MOL0     C96419   4.064  10.702  11.752  0.3959 -1.5258  0.8521
  715MOL0     O96420   4.135  10.656  11.654 -0.9907  0.0513  0.2920
  715MOL0     C96421   4.254  10.587  11.683 -0.7673  0.0161 -0.4963
  715MOL0     C96422   4.369  10.635  11.757 -0.0505  1.4958 -0.1201
  715MOL0     C96423   4.481  10.551  11.773  0.3590  0.5845 -0.7811
  715MOL0     C96424   4.486  10.433  11.707 -0.1219  0.1885  1.8301
  715MOL0     O96425   4.592  10.364  11.720 -0.2709  0.1138  0.0139
  715MOL0     C96426   4.580  10.230  11.767 -0.3133 -0.4276  1.3193
  715MOL0     C96427   4.720  10.172  11.784  1.6793 -0.2985 -0.0306
  715MOL0     C96428   4.704  10.026  11.834 -0.1200 -0.5210  0.1189
  715MOL0     C96429   4.698   9.926  11.711 -0.0590  0.5660  0.0044
  715MOL0     C96430   4.707   9.779  11.774 -0.2128  0.7369  0.7222
  715MOL0     C96431   4.611   9.669  11.720 -0.6723  0.8952  0.7008
  715MOL0     C96432   4.615   9.655  11.574  0.6235 -0.1384  0.0366
  715MOL0     C96433   4.683   9.525  11.516  0.0175 -0.1449 -0.3991
  715MOL0    Cl96434   4.625   9.362  11.573 -0.1515  0.2976 -0.2613
  715MOL0     C96435   4.396  10.396  11.618  0.6937  0.9193  0.3084
  715MOL0     C96436   4.277  10.471  11.614 -0.9542  0.7301  0.6490
  715MOL0     O96437   4.087  10.685  11.869  0.1718 -0.2538 -0.7203
  715MOL0     C96438   3.829  10.800  11.787  0.1350  0.6117  1.3188
  715MOL0     C96439   3.724  10.892  11.752 -0.7071 -0.2608  0.0394
  715MOL0     N96440   3.577  11.499  11.153 -0.4253 -0.6168 -0.1390
  715MOL0     N96441   3.560  11.614  11.095  0.2115 -0.4688 -0.1308
  715MOL0     C96442   4.243  11.314  10.987 -0.0032  0.7172  1.1769
  715MOL0     C96443   4.282  11.185  10.935 -1.4088 -0.5981 -0.4896
  715MOL0     C96444   4.346  10.808  10.750 -0.8498  0.5459  0.3982
  715MOL0     C96445   4.478  10.791  10.700 -0.1872 -0.1224  0.2022
  715MOL0     C96446   4.539  10.667  10.660 -0.4193 -0.7186  0.8303
  715MOL0     C96447   4.478  10.555  10.709  0.3357  0.1885  0.3734
  715MOL0     O96448   4.549  10.437  10.689 -0.0620  0.1931 -0.3882
  715MOL0     C96449   4.572  10.367  10.808 -0.2428  0.8700 -0.6284
  715MOL0     C96450   4.629  10.237  10.750 -0.1370  0.1795 -0.5883
  715MOL0     C96451   4.684  10.142  10.859 -0.0602  0.2432 -0.4716
  715MOL0     C96452   4.770  10.035  10.800  0.5551  0.7143 -0.2689
  715MOL0     C96453   4.794   9.933  10.899 -0.9226 -0.2907 -0.5179
  715MOL0     C96454   4.825   9.859  10.994 -0.8400  0.1954 -0.2416
  715MOL0     C96455   4.355  10.557  10.770 -0.0943 -0.3440 -0.4903
  715MOL0     C96456   4.286  10.682  10.788 -0.0434  0.2478  0.9189
  715MOL0     C96457   4.153  10.685  10.856  0.1005  0.5113  0.4362
  715MOL0     H96458   4.346  11.256  10.626  0.7284  2.6495  1.1104
  715MOL0     H96459   4.269  11.486  10.708 -0.5630 -0.7266  0.0373
  715MOL0     H96460   4.192  11.521  11.148  0.3654 -1.2498 -0.7243
  715MOL0     H96461   4.350  11.570  11.085  0.1262  0.7698 -1.5286
  715MOL0     H96462   4.170  11.781  11.018 -0.9691  2.1781  0.5757
  715MOL0     H96463   4.295  11.790  11.128  0.1157 -0.1238 -0.1859
  715MOL0     H96464   4.156  11.715  11.297  2.5368 -1.4942 -2.6514
  715MOL0     H96465   4.015  11.678  11.201 -1.9087  2.0352  1.1356
  715MOL0     H96466   3.999  11.921  11.320 -0.9072  1.9636 -0.7552
  715MOL0     H96467   4.107  11.968  11.190 -1.6347  1.0774  0.8763
  715MOL0     H96468   3.905  11.996  11.091 -4.3006 -0.2512  1.2262
  715MOL0     H96469   3.931  11.821  11.045  1.8436 -1.8142  2.1093
  715MOL0     H96470   3.788  11.754  11.214 -0.9876  1.3076  2.8646
  715MOL0     H96471   3.784  11.899  11.296 -1.2150 -0.3627 -0.5281
  715MOL0     H96472   3.661  11.835  11.003 -0.5745 -1.3357  1.1865
  715MOL0     H96473   3.660  11.998  11.086 -0.1308 -0.0637  0.8571
  715MOL0     H96474   3.541  11.906  11.281 -0.6443  0.9276 -0.7011
  715MOL0     H96475   3.444  11.870  11.125 -1.4671  0.5627  2.3491
  715MOL0     H96476   3.576  11.686  11.419 -2.2985  1.3861  0.1840
  715MOL0     H96477   3.689  11.363  11.386 -0.8702 -2.1215  0.2959
  715MOL0     H96478   3.557  11.432  11.489 -0.3064 -0.7046  0.0117
  715MOL0     H96479   3.392  11.320  11.337  0.9531  2.2044  1.8961
  715MOL0     H96480   3.540  11.248  11.258 -0.0741  0.7006 -0.7567
  715MOL0     H96481   3.434  11.080  11.409 -0.3609  1.2145 -0.9995
  715MOL0     H96482   3.453  11.195  11.544 -0.8509  2.7780 -1.5224
  715MOL0     H96483   3.697  11.186  11.515 -0.3536 -0.4676  0.7822
  715MOL0     H96484   3.679  11.050  11.401  2.2663  0.5692  1.4968
  715MOL0     H96485   3.857  10.973  11.445  0.7470  0.7302  0.7348
  715MOL0     H96486   4.039  10.833  11.515  1.5362 -4.1091  2.3455
  715MOL0     H96487   4.355  10.719  11.824 -1.2136  1.5513 -0.4075
  715MOL0     H96488   4.567  10.571  11.835 -0.6976  1.3871  0.4857
  715MOL0     H96489   4.518  10.224  11.856 -2.1422  2.3429  0.3485
  715MOL0     H96490   4.523  10.178  11.689 -0.1796  0.6205  0.5014
  715MOL0     H96491   4.776  10.173  11.690  0.6319 -2.7510 -0.7350
  715MOL0     H96492   4.777  10.235  11.853  0.8755  0.1894  0.2074
  715MOL0     H96493   4.790  10.006  11.898 -1.2443  1.6779  2.5275
  715MOL0     H96494   4.625  10.009  11.908  1.7944 -1.1312  2.1087
  715MOL0     H96495   4.782   9.944  11.643  1.5158 -1.3954  1.3347
  715MOL0     H96496   4.604   9.922  11.655 -0.6403 -3.4265  0.9496
  715MOL0     H96497   4.685   9.790  11.881  2.2813  3.0028  1.1220
  715MOL0     H96498   4.811   9.748  11.760 -0.6737 -1.3478  1.6404
  715MOL0     H96499   4.636   9.575  11.771 -2.4829  1.9288  3.7690
  715MOL0     H96500   4.507   9.688  11.748 -0.6039 -1.5230  2.9695
  715MOL0     H96501   4.664   9.741  11.529  1.1307 -0.2845  0.3074
  715MOL0     H96502   4.514   9.669  11.532  0.1412  1.0118  1.5231
  715MOL0     H96503   4.672   9.524  11.407 -0.8677  1.2464 -0.3514
  715MOL0     H96504   4.790   9.527  11.539 -0.2177  1.2012  0.7358
  715MOL0     H96505   4.396  10.300  11.567  1.1404  2.5419 -3.0414
  715MOL0     H96506   4.199  10.420  11.557  0.3584 -0.6463  0.0064
  715MOL0     H96507   3.832  10.748  11.882  3.2117 -0.4638  0.7360
  715MOL0     H96508   3.644  10.925  11.818  1.0348 -0.0694  2.1433
  715MOL0     H96509   4.230  11.338  11.092  3.5093  1.1950  1.6378
  715MOL0     H96510   4.274  11.112  11.015 -0.6452  0.3755  0.5196
  715MOL0     H96511   4.526  10.882  10.664 -0.4838 -0.8547 -2.2742
  715MOL0     H96512   4.639  10.674  10.618  0.8739  0.5228  3.8097
  715MOL0     H96513   4.493  10.336  10.877  2.0532 -1.0190  1.3407
  715MOL0     H96514   4.634  10.425  10.876  0.2560 -3.8863  3.5925
  715MOL0     H96515   4.714  10.261  10.685  0.8307  2.4250  1.3848
  715MOL0     H96516   4.557  10.174  10.697  2.0579 -1.4894 -1.7660
  715MOL0     H96517   4.593  10.114  10.913 -1.5178  2.5977 -1.5547
  715MOL0     H96518   4.754  10.197  10.922  1.4721 -0.7669 -1.2324
  715MOL0     H96519   4.724   9.985  10.715  1.8351 -2.7901  0.9144
  715MOL0     H96520   4.854  10.089  10.755 -1.0066 -0.8125 -5.6765
  715MOL0     H96521   4.863   9.792  11.069 -1.8781 -0.9920 -0.7597
  715MOL0     H96522   4.299  10.470  10.802  1.9620 -1.2016  0.9411
  715MOL0     H96523   4.078  10.718  10.784 -1.7606  1.4074  2.6668
  715MOL0     H96524   4.119  10.582  10.871  1.1937  0.2981  1.6367
  715MOL0     H96525   4.142  10.740  10.950  1.7544 -1.2011  1.6990
  716MOL0     O96526   8.425   3.542   4.416  0.4066 -0.1806  0.2449
  716MOL0     C96527   8.367   3.650   4.413  0.1641 -0.4508  0.8616
  716MOL0     O96528   8.299   3.698   4.301  0.4899  0.1818 -0.3275
  716MOL0     C96529   8.307   3.635   4.176 -0.9883 -0.1146  0.7667
  716MOL0     C96530   8.431   3.611   4.114 -0.9414 -0.1018 -0.6605
  716MOL0     C96531   8.437   3.557   3.983  0.0406 -0.2726  0.3658
  716MOL0     C96532   8.326   3.561   3.897 -0.2895  0.7207 -0.1223
  716MOL0     O96533   8.321   3.537   3.764 -0.2076 -0.5648  0.5221
  716MOL0     C96534   8.444   3.512   3.699  0.9228  0.5720  0.1529
  716MOL0     C96535   8.435   3.540   3.546  0.1651  0.2983 -0.4853
  716MOL0     C96536   8.334   3.432   3.490 -0.0643 -0.6592 -0.3520
  716MOL0     C96537   8.328   3.432   3.335 -0.8950  0.2822  0.3902
  716MOL0     C96538   8.264   3.308   3.267  0.0052 -0.1208 -0.5061
  716MOL0     C96539   8.254   3.321   3.112  0.1036 -1.0270 -0.2563
  716MOL0     C96540   8.243   3.174   3.041  0.3028 -0.3771 -1.1882
  716MOL0     C96541   8.136   3.084   3.109  0.0045 -0.9779  0.1316
  716MOL0     N96542   8.130   2.958   3.034  0.5888  1.5951 -0.8974
  716MOL0     C96543   8.148   2.832   3.092  0.3784  0.5387  0.0908
  716MOL0     C96544   8.190   2.754   2.981 -0.2551 -0.2524 -0.6362
  716MOL0     C96545   8.212   2.611   2.988  0.2246 -0.3936  0.6089
  716MOL0     C96546   8.337   2.553   3.054 -0.3716 -0.7126  0.4542
  716MOL0     C96547   8.351   2.401   3.010  0.5457 -0.0817 -0.6398
  716MOL0     C96548   8.419   2.326   3.127 -0.2325  0.1461 -0.0261
  716MOL0     O96549   8.414   2.185   3.095  0.8740 -0.3409  0.0430
  716MOL0     C96550   8.433   2.101   3.201  1.0757 -0.7946 -0.0821
  716MOL0     C96551   8.351   1.987   3.197  0.0594  0.0674 -0.1867
  716MOL0     C96552   8.362   1.885   3.286  0.2418 -0.0803 -0.3072
  716MOL0     C96553   8.453   1.902   3.394  0.0797 -0.1187  1.2213
  716MOL0     C96554   8.481   1.792   3.484  0.3367  0.9606 -0.4274
  716MOL0     O96555   8.445   1.657   3.439  0.1482  0.5203  0.2724
  716MOL0     C96556   8.515   1.547   3.492 -0.2530  0.3259 -0.1114
  716MOL0     C96557   8.629   1.491   3.423  0.2965 -0.9435 -0.3182
  716MOL0     C96558   8.694   1.385   3.477  0.9230  0.0224  0.3218
  716MOL0     C96559   8.663   1.329   3.604 -0.1107 -0.0465  0.0249
  716MOL0     O96560   8.741   1.241   3.672  0.7215  0.3672 -0.6035
  716MOL0     C96561   8.862   1.198   3.609  0.5337 -0.5123 -0.4143
  716MOL0     C96562   8.906   1.068   3.684 -0.7580  0.7192  0.1196
  716MOL0     C96563   8.952   1.093   3.833  0.3615  0.5214 -0.5719
  716MOL0     C96564   9.093   1.149   3.828  0.1750  0.2729 -0.1852
  716MOL0     C96565   9.153   1.122   3.975  0.3944 -1.0816 -0.1095
  716MOL0     C96566   9.267   1.210   4.027 -0.5914 -0.5010  0.4452
  716MOL0     C96567   9.291   1.194   4.171  0.4082  0.5852  0.1943
  716MOL0     C96568   9.440   1.241   4.195  0.4434 -0.8436  0.0493
  716MOL0    Cl96569   9.574   1.132   4.164  0.4051 -0.1214 -0.2323
  716MOL0     C96570   8.550   1.385   3.672 -0.4791  0.0919 -1.2441
  716MOL0     C96571   8.483   1.493   3.611 -0.2726  0.4645 -0.3807
  716MOL0     O96572   8.546   1.819   3.590  0.0874  0.1876  0.6589
  716MOL0     C96573   8.516   2.023   3.409 -0.0932 -0.0897 -0.5094
  716MOL0     C96574   8.515   2.112   3.315  0.3765 -0.0161 -0.8074
  716MOL0     N96575   8.189   2.836   2.868  0.0033  0.4916 -0.7301
  716MOL0     N96576   8.139   2.954   2.894 -0.0720  0.5136 -0.6655
  716MOL0     C96577   8.202   3.593   3.955  0.6276 -0.2962  0.6351
  716MOL0     C96578   8.194   3.633   4.086  0.4776  0.7904  0.2342
  716MOL0     C96579   8.358   3.728   4.534 -0.0586  0.4460  0.9084
  716MOL0     C96580   8.244   3.811   4.534  0.3382  0.0901 -0.0783
  716MOL0     C96581   8.230   3.899   4.643 -0.0915 -1.0607  0.0623
  716MOL0     C96582   8.310   3.891   4.756  0.0143 -0.4943  0.6297
  716MOL0     O96583   8.289   3.960   4.872  0.6161 -0.4333 -0.3767
  716MOL0     C96584   8.177   4.049   4.876  0.1036 -0.9119  0.0670
  716MOL0     C96585   8.174   4.123   5.005 -0.6705  0.4174  0.4105
  716MOL0     C96586   8.024   4.163   5.048  0.0040  0.3467  0.2618
  716MOL0     C96587   8.026   4.262   5.168  0.7758  1.1028 -0.3575
  716MOL0     C96588   8.050   4.198   5.298  0.1552  0.9922  1.0068
  716MOL0     C96589   8.066   4.156   5.408 -0.2791  0.5357  0.2054
  716MOL0     C96590   8.413   3.804   4.757  0.0762  1.4182  0.0930
  716MOL0     C96591   8.442   3.722   4.646 -0.1143 -0.3670  0.2967
  716MOL0     C96592   8.562   3.633   4.658  0.2138 -0.5428 -0.5641
  716MOL0     H96593   8.523   3.608   4.171  0.3414 -0.1867 -2.6247
  716MOL0     H96594   8.531   3.534   3.934 -0.3440 -1.8553  0.3344
  716MOL0     H96595   8.526   3.581   3.724  1.7534  0.0632 -1.1011
  716MOL0     H96596   8.482   3.414   3.727  0.9337  0.4919 -0.1440
  716MOL0     H96597   8.539   3.523   3.517  1.5672  0.8523  3.6429
  716MOL0     H96598   8.393   3.637   3.517 -2.0194 -0.8667 -1.4835
  716MOL0     H96599   8.235   3.465   3.525 -0.4250 -0.8389 -1.1755
  716MOL0     H96600   8.355   3.333   3.530  0.5049  0.0051  1.0842
  716MOL0     H96601   8.282   3.524   3.299 -0.8660 -0.2810 -1.1202
  716MOL0     H96602   8.432   3.420   3.302 -0.4523 -3.6494  2.6015
  716MOL0     H96603   8.320   3.217   3.287 -1.7331 -2.0361 -3.5071
  716MOL0     H96604   8.161   3.307   3.303 -0.5529 -2.2955 -1.9607
  716MOL0     H96605   8.166   3.383   3.095 -0.4305 -1.3435  1.2169
  716MOL0     H96606   8.346   3.368   3.075  2.6235 -2.1227  3.8670
  716MOL0     H96607   8.334   3.114   3.042 -0.7110 -1.9494 -0.3012
  716MOL0     H96608   8.217   3.188   2.935  0.0524  2.9136 -0.8045
  716MOL0     H96609   8.174   3.077   3.212 -1.4314  3.0829  1.1285
  716MOL0     H96610   8.037   3.130   3.106 -1.3084 -3.2852  2.7146
  716MOL0     H96611   8.136   2.804   3.196 -2.5807  0.5785 -0.1567
  716MOL0     H96612   8.123   2.561   3.029  1.0553 -3.1399 -0.6487
  716MOL0     H96613   8.206   2.590   2.881  1.3176 -0.0922  0.4781
  716MOL0     H96614   8.426   2.612   3.028  0.4660 -1.2088  2.0475
  716MOL0     H96615   8.311   2.554   3.160 -5.1593 -1.7884 -0.4747
  716MOL0     H96616   8.418   2.396   2.923  0.4329  1.6044 -0.8667
  716MOL0     H96617   8.249   2.369   2.988  0.5247 -0.3950 -0.1073
  716MOL0     H96618   8.357   2.361   3.210  0.2261  0.7227  0.0825
  716MOL0     H96619   8.521   2.364   3.143 -1.0753  4.4687 -3.0123
  716MOL0     H96620   8.290   1.981   3.107  0.7412 -2.9514 -0.5739
  716MOL0     H96621   8.295   1.800   3.281  0.0068  0.1333 -0.8957
  716MOL0     H96622   8.643   1.542   3.328  0.5414 -1.9963 -0.8603
  716MOL0     H96623   8.775   1.355   3.411 -1.2040  0.2288 -2.6251
  716MOL0     H96624   8.844   1.188   3.502 -1.4288  0.2127 -0.2009
  716MOL0     H96625   8.944   1.270   3.614  0.7997 -0.8483  0.2545
  716MOL0     H96626   8.820   1.000   3.673 -1.3876  1.3803  0.7906
  716MOL0     H96627   8.994   1.022   3.638  0.3798  1.0579  1.8514
  716MOL0     H96628   8.889   1.169   3.881 -2.4553 -1.3813 -1.0032
  716MOL0     H96629   8.947   1.004   3.896  0.6686  0.9277  0.0383
  716MOL0     H96630   9.090   1.252   3.791 -0.7532  0.6289  0.8017
  716MOL0     H96631   9.161   1.102   3.758 -0.7720 -1.8715  0.2536
  716MOL0     H96632   9.185   1.018   3.976 -2.7008 -2.1599  1.5237
  716MOL0     H96633   9.072   1.138   4.048 -0.8955  0.5306 -1.7914
  716MOL0     H96634   9.366   1.181   3.990  1.0142  0.4746  3.5872
  716MOL0     H96635   9.252   1.315   3.999  2.6125  0.3450  1.4646
  716MOL0     H96636   9.265   1.095   4.210  0.1061  0.1965 -0.9463
  716MOL0     H96637   9.223   1.262   4.221  1.7026  1.0558  1.3709
  716MOL0     H96638   9.452   1.330   4.133 -0.6452  0.2647  1.3492
  716MOL0     H96639   9.456   1.290   4.292  0.8700  1.0060 -0.9139
  716MOL0     H96640   8.518   1.352   3.770 -1.0275  1.7053 -0.8429
  716MOL0     H96641   8.395   1.530   3.663  1.0418  0.2646  2.1015
  716MOL0     H96642   8.577   2.032   3.498 -2.9071 -1.2634  1.7013
  716MOL0     H96643   8.576   2.198   3.339 -1.3078  0.8566  0.5727
  716MOL0     H96644   8.117   3.584   3.888  0.3997  0.8921  0.7457
  716MOL0     H96645   8.097   3.661   4.126 -0.8176 -3.6272  0.6803
  716MOL0     H96646   8.172   3.816   4.454  2.6396  4.0924 -2.2359
  716MOL0     H96647   8.162   3.983   4.637  2.4025  1.1418  0.8869
  716MOL0     H96648   8.083   3.993   4.877 -0.4860  0.0490  1.5161
  716MOL0     H96649   8.178   4.126   4.798 -3.3241  1.7068  2.3174
  716MOL0     H96650   8.239   4.211   4.992 -2.1264  1.2620 -1.7630
  716MOL0     H96651   8.215   4.048   5.074  2.5852  0.7316 -0.9787
  716MOL0     H96652   7.961   4.077   5.071  1.5591 -0.9312 -0.0728
  716MOL0     H96653   7.967   4.211   4.969  0.0593 -1.0876 -0.6721
  716MOL0     H96654   8.108   4.332   5.155  0.1524  1.9263  0.0599
  716MOL0     H96655   7.933   4.317   5.187  0.9057  0.7281  1.5450
  716MOL0     H96656   8.085   4.114   5.504  0.8509  1.4017  0.3923
  716MOL0     H96657   8.475   3.797   4.845  0.9907 -3.6265 -0.6690
  716MOL0     H96658   8.546   3.527   4.636 -2.2269 -0.7605  1.7669
  716MOL0     H96659   8.649   3.679   4.610  0.1245  1.6423  1.2024
  716MOL0     H96660   8.599   3.631   4.761  1.9697  3.7994 -0.9266
  717MOL0     O96661  10.216   2.986   9.403 -0.0503  0.4931 -1.0207
  717MOL0     C96662  10.164   3.082   9.346 -0.1282 -0.6047 -0.0182
  717MOL0     O96663  10.115   3.083   9.213  0.1435 -0.2880 -0.6377
  717MOL0     C96664  10.158   2.979   9.135  0.1010 -0.7706 -0.2044
  717MOL0     C96665  10.263   3.008   9.040 -0.0466 -0.3277 -0.1475
  717MOL0     C96666  10.292   2.911   8.948 -1.2280 -0.0329 -0.2418
  717MOL0     C96667  10.221   2.797   8.942 -1.2695 -0.3436  1.2821
  717MOL0     O96668  10.275   2.702   8.857 -0.5387 -0.7614 -0.5978
  717MOL0     C96669  10.244   2.559   8.886  0.2966  0.0411  0.2354
  717MOL0     C96670  10.339   2.476   8.793 -0.2491  0.6433 -0.1686
  717MOL0     C96671  10.346   2.350   8.863 -0.1631 -0.2641  0.1672
  717MOL0     C96672  10.428   2.254   8.780 -0.2407  0.0547 -0.3228
  717MOL0     C96673  10.483   2.128   8.844  0.1600 -0.2531 -1.0429
  717MOL0     C96674  10.606   2.155   8.921  1.0961 -0.5268 -0.7202
  717MOL0     C96675  10.669   2.038   8.998  0.2821 -1.0788  0.2840
  717MOL0     C96676  10.704   1.928   8.901  0.0455 -0.7090  0.4550
  717MOL0     N96677  10.783   1.823   8.962  0.2058  0.0150  0.5499
  717MOL0     C96678  10.746   1.762   9.077  0.5105  0.2344  0.1691
  717MOL0     C96679  10.849   1.697   9.131 -0.6262 -0.3865 -0.2468
  717MOL0     C96680  10.858   1.617   9.256 -0.1546  1.3094  0.3706
  717MOL0     C96681  10.744   1.510   9.264 -0.2695  0.0176  0.3365
  717MOL0     C96682  10.761   1.399   9.166  0.3688  0.7885  0.4687
  717MOL0     C96683  10.655   1.287   9.210  0.0799 -0.1001  0.2800
  717MOL0     O96684  10.658   1.186   9.111 -0.3530 -0.3570 -0.4824
  717MOL0     C96685  10.749   1.082   9.116  0.3861  0.4407 -0.6210
  717MOL0     C96686  10.751   0.992   9.012  0.1346  0.0555 -0.1730
  717MOL0     C96687  10.835   0.886   9.003 -0.2598  0.5898 -1.0091
  717MOL0     C96688  10.927   0.861   9.102  0.0825 -0.0415 -0.7276
  717MOL0     C96689  11.021   0.738   9.101  1.1152 -1.2560  0.3071
  717MOL0     O96690  10.995   0.631   9.023 -0.2157 -0.1907 -0.8042
  717MOL0     C96691  11.110   0.562   8.976 -0.2878  0.4570  2.1395
  717MOL0     C96692  11.219   0.626   8.921  0.3379  0.2223 -0.0721
  717MOL0     C96693  11.334   0.558   8.869 -0.2592  0.0978 -0.2478
  717MOL0     C96694  11.340   0.418   8.869  0.7300 -1.3789 -0.2548
  717MOL0     O96695  11.450   0.360   8.821  0.6931  0.2113 -0.9689
  717MOL0     C96696  11.583   0.367   8.877  0.5845 -0.0113 -0.3037
  717MOL0     C96697  11.596   0.353   9.028 -0.1330 -0.7788 -0.2200
  717MOL0     C96698  11.751   0.343   9.070  0.5157 -0.5792 -0.5108
  717MOL0     C96699  11.787   0.411   9.205 -0.6255 -0.8200 -0.0184
  717MOL0     C96700  11.945   0.403   9.224  0.5353 -0.0316 -0.4316
  717MOL0     C96701  11.973   0.475   9.361 -0.7445  0.0457 -0.2521
  717MOL0     C96702  12.113   0.462   9.414 -0.1341  0.5108  0.0635
  717MOL0     C96703  12.138   0.553   9.526  0.1572 -0.7837  0.1727
  717MOL0    Cl96704  12.203   0.701   9.469 -0.4490  0.4938  0.1360
  717MOL0     C96705  11.233   0.350   8.924  0.3076  0.6132 -0.4336
  717MOL0     C96706  11.110   0.421   8.964 -0.7590  0.7046  0.3014
  717MOL0     O96707  11.114   0.745   9.186 -0.1379  0.6051  0.1199
  717MOL0     C96708  10.919   0.940   9.222 -0.1115 -0.5358  0.0540
  717MOL0     C96709  10.828   1.047   9.225 -0.3388 -0.7129 -1.1048
  717MOL0     N96710  10.941   1.703   9.029 -0.0598 -0.6907  0.0600
  717MOL0     N96711  10.901   1.772   8.928 -0.6417  0.5296 -1.4207
  717MOL0     C96712  10.109   2.784   9.022  0.7356  0.7803 -0.2949
  717MOL0     C96713  10.083   2.868   9.125 -0.5229  0.1373  0.2733
  717MOL0     C96714  10.141   3.200   9.434 -0.3387 -0.5204  0.0714
  717MOL0     C96715  10.056   3.298   9.369  0.0893  0.0836  0.1148
  717MOL0     C96716  10.022   3.411   9.434  0.7444  0.6751  0.1221
  717MOL0     C96717  10.067   3.445   9.563 -0.3127 -1.0175 -1.2268
  717MOL0     O96718  10.028   3.563   9.631 -0.8708  0.2157 -0.3573
  717MOL0     C96719   9.967   3.663   9.554  0.1008 -0.2633  0.2413
  717MOL0     C96720   9.967   3.789   9.639 -1.4724 -0.2931  0.5388
  717MOL0     C96721   9.909   3.908   9.550  0.0982  0.0825  1.0541
  717MOL0     C96722   9.893   4.036   9.633 -0.4268  0.3768  0.2090
  717MOL0     C96723   9.911   4.161   9.552 -0.4081 -0.4224  0.4835
  717MOL0     C96724   9.933   4.273   9.495  0.6774 -0.0455 -0.0461
  717MOL0     C96725  10.149   3.357   9.626  0.2404  0.2395  0.7057
  717MOL0     C96726  10.188   3.236   9.564  0.8517  0.7117 -0.3753
  717MOL0     C96727  10.278   3.150   9.639  1.1172  0.3388  0.3891
  717MOL0     H96728  10.317   3.102   9.043 -2.9797  1.4847  0.1134
  717MOL0     H96729  10.376   2.923   8.881 -1.2147 -1.0500 -0.4149
  717MOL0     H96730  10.284   2.549   8.987  0.5171  0.0156  0.1452
  717MOL0     H96731  10.141   2.524   8.873 -0.2831  1.1777  1.5175
  717MOL0     H96732  10.432   2.532   8.793 -1.6783  3.2866  2.5944
  717MOL0     H96733  10.297   2.474   8.691  1.7636  2.2924 -1.0898
  717MOL0     H96734  10.251   2.300   8.886 -0.7122  0.6001 -0.1768
  717MOL0     H96735  10.403   2.363   8.956  0.2227 -0.6345 -0.0118
  717MOL0     H96736  10.354   2.217   8.708 -0.6416 -0.0618  0.1452
  717MOL0     H96737  10.505   2.304   8.721  0.7890 -0.3584  0.6407
  717MOL0     H96738  10.396   2.090   8.898 -1.4994  1.1141 -2.6268
  717MOL0     H96739  10.518   2.051   8.774  3.6558 -0.2427  0.4565
  717MOL0     H96740  10.682   2.194   8.853 -0.8686  0.2310 -2.6326
  717MOL0     H96741  10.585   2.239   8.988 -0.3495  0.6707 -2.5714
  717MOL0     H96742  10.591   2.002   9.066  0.4981 -0.3570  0.9357
  717MOL0     H96743  10.763   2.067   9.046  1.4461 -2.3010 -1.1617
  717MOL0     H96744  10.614   1.874   8.868  0.0442 -0.4843  0.0859
  717MOL0     H96745  10.746   1.966   8.807  2.0482 -2.7739  0.4273
  717MOL0     H96746  10.649   1.781   9.122  0.3101  0.8981 -0.5053
  717MOL0     H96747  10.954   1.564   9.250  0.4486  2.4889 -0.9259
  717MOL0     H96748  10.857   1.655   9.359  1.6718 -2.1092  1.8364
  717MOL0     H96749  10.738   1.466   9.364 -4.5230 -0.2277  0.1681
  717MOL0     H96750  10.649   1.558   9.241  0.9454  1.9354 -0.9843
  717MOL0     H96751  10.855   1.344   9.168 -0.3792 -0.6800 -1.7596
  717MOL0     H96752  10.746   1.441   9.067  3.0520  0.1878 -0.2817
  717MOL0     H96753  10.560   1.340   9.208 -0.9929 -1.8653  1.5081
  717MOL0     H96754  10.679   1.253   9.311 -1.4678 -0.7348  0.4559
  717MOL0     H96755  10.687   1.006   8.926  0.6482 -1.1118 -0.7708
  717MOL0     H96756  10.832   0.816   8.920 -1.3254 -1.2095  0.4839
  717MOL0     H96757  11.215   0.735   8.922  0.5045  0.2880 -2.3084
  717MOL0     H96758  11.418   0.612   8.827  0.5758  1.3425  2.7002
  717MOL0     H96759  11.645   0.290   8.829 -1.4993 -1.2965 -1.0738
  717MOL0     H96760  11.626   0.467   8.864  2.0588 -0.6413 -0.4515
  717MOL0     H96761  11.541   0.437   9.074  0.8109 -0.8967  1.1897
  717MOL0     H96762  11.546   0.266   9.071  1.0627 -1.5624 -0.3801
  717MOL0     H96763  11.766   0.234   9.069 -2.2068 -1.0161 -0.7272
  717MOL0     H96764  11.813   0.397   8.998  0.2317  3.4755  2.0033
  717MOL0     H96765  11.727   0.365   9.285  0.4764 -0.1049  1.2629
  717MOL0     H96766  11.750   0.514   9.195  0.0545 -0.7353 -2.0998
  717MOL0     H96767  12.002   0.454   9.146  4.0119 -2.9702 -0.0943
  717MOL0     H96768  11.973   0.297   9.226 -0.7299 -0.3693  0.3386
  717MOL0     H96769  11.955   0.582   9.344 -2.9199 -0.1424  0.6012
  717MOL0     H96770  11.901   0.442   9.436  0.7064  1.0362  1.6527
  717MOL0     H96771  12.184   0.487   9.334  2.0874  0.9381  2.0537
  717MOL0     H96772  12.127   0.360   9.450  3.1229  0.3792 -1.2252
  717MOL0     H96773  12.039   0.577   9.567  0.7337 -1.6308  2.2141
  717MOL0     H96774  12.206   0.511   9.601 -0.1568  0.0012  0.9306
  717MOL0     H96775  11.232   0.242   8.931 -1.9923  0.6968  1.9814
  717MOL0     H96776  11.026   0.366   9.006 -0.0791  0.5546  1.5104
  717MOL0     H96777  10.985   0.920   9.305  3.0931 -0.2389 -2.2327
  717MOL0     H96778  10.833   1.102   9.319  2.2573 -1.9569 -0.4382
  717MOL0     H96779  10.052   2.692   9.022 -0.2449  1.3559 -1.8133
  717MOL0     H96780   9.992   2.846   9.179 -1.3504 -0.6244 -1.3664
  717MOL0     H96781  10.022   3.281   9.268  2.8098 -0.2882 -0.8372
  717MOL0     H96782   9.956   3.477   9.378 -0.2999 -1.2678 -1.0722
  717MOL0     H96783   9.866   3.647   9.517 -1.0566  2.2018  2.0906
  717MOL0     H96784  10.023   3.677   9.460 -1.7683  2.1878 -0.6075
  717MOL0     H96785  10.070   3.795   9.675 -1.7502 -4.8835  2.7167
  717MOL0     H96786   9.904   3.784   9.729  1.1500  0.8037  2.5771
  717MOL0     H96787   9.819   3.892   9.490  0.9800  4.4244 -1.9299
  717MOL0     H96788   9.992   3.919   9.480  0.0768  3.1847  1.3984
  717MOL0     H96789   9.790   4.034   9.671 -1.3630  3.7525 -1.7219
  717MOL0     H96790   9.966   4.032   9.715  1.2621  3.6280 -0.9632
  717MOL0     H96791   9.952   4.372   9.457 -1.3860  0.7671  0.8432
  717MOL0     H96792  10.176   3.374   9.730  0.1262 -0.8921  0.9413
  717MOL0     H96793  10.308   3.200   9.731 -1.6848 -0.7566  2.0198
  717MOL0     H96794  10.234   3.050   9.645  1.4082 -0.1139 -2.8330
  717MOL0     H96795  10.376   3.141   9.589  0.0173  0.8248 -2.0258
  718MOL0     O96796   6.891   1.458   3.167  0.0647  0.4225  0.0232
  718MOL0     C96797   6.948   1.525   3.254  0.1826  0.1348 -0.3123
  718MOL0     O96798   7.074   1.505   3.273 -0.0966 -0.0878 -0.9790
  718MOL0     C96799   7.150   1.400   3.224  0.4325  0.3195  0.0662
  718MOL0     C96800   7.282   1.403   3.274  0.1306 -0.9058 -0.8218
  718MOL0     C96801   7.380   1.321   3.221 -0.3989  0.4782 -1.1310
  718MOL0     C96802   7.342   1.216   3.130 -0.1967 -0.3923 -0.4376
  718MOL0     O96803   7.439   1.128   3.075  0.3942  0.9534 -0.4535
  718MOL0     C96804   7.575   1.124   3.139 -0.1380  0.1482 -0.2742
  718MOL0     C96805   7.655   1.005   3.072 -0.4492  0.0800 -0.1566
  718MOL0     C96806   7.796   0.971   3.120 -0.0543  0.7283 -0.2329
  718MOL0     C96807   7.863   0.845   3.044 -0.1631  0.2743  1.1507
  718MOL0     C96808   7.979   0.791   3.129 -0.4515 -0.0341  0.1769
  718MOL0     C96809   8.060   0.672   3.073 -0.2480  0.1444  0.3937
  718MOL0     C96810   7.968   0.549   3.047  0.5761  0.4306  0.1381
  718MOL0     C96811   8.049   0.421   3.024  1.2738  0.3623  0.6712
  718MOL0     N96812   8.143   0.375   3.123  0.4706  0.9201  0.2869
  718MOL0     C96813   8.107   0.324   3.237  0.2041 -0.0893  0.1188
  718MOL0     C96814   8.217   0.297   3.313  1.1569 -0.5870 -0.2749
  718MOL0     C96815   8.212   0.213   3.436  1.0208 -0.8904  0.1820
  718MOL0     C96816   8.268   0.282   3.556 -0.7913 -0.1127  0.4928
  718MOL0     C96817   8.349   0.195   3.648  0.1942 -0.3526 -0.8523
  718MOL0     C96818   8.420   0.280   3.753  0.3089 -0.0629 -0.5846
  718MOL0     O96819   8.332   0.366   3.821  0.4579 -0.3525 -0.6138
  718MOL0     C96820   8.371   0.439   3.930  0.0718 -0.3139  0.8409
  718MOL0     C96821   8.283   0.541   3.981 -0.5158 -0.6197  0.7855
  718MOL0     C96822   8.329   0.623   4.089  0.5644  0.2053 -0.4510
  718MOL0     C96823   8.453   0.601   4.149 -0.8396 -0.2779  0.7810
  718MOL0     C96824   8.494   0.690   4.260  0.2317  0.0066  0.4028
  718MOL0     O96825   8.621   0.683   4.299 -0.8106 -0.2263 -0.0474
  718MOL0     C96826   8.668   0.779   4.388  0.2444  0.5135  0.1534
  718MOL0     C96827   8.613   0.790   4.517 -0.1947  0.0474 -0.8506
  718MOL0     C96828   8.667   0.884   4.602 -0.7754 -0.4071  0.0209
  718MOL0     C96829   8.776   0.956   4.558  0.8974  0.2844 -0.2749
  718MOL0     O96830   8.826   1.055   4.621  0.1387 -0.5736  0.0422
  718MOL0     C96831   8.911   1.024   4.737 -0.0405 -1.0431  0.3009
  718MOL0     C96832   9.041   0.950   4.715 -0.8604  0.2631  0.0255
  718MOL0     C96833   9.130   0.922   4.839  0.3768 -0.5740  0.5399
  718MOL0     C96834   9.231   0.813   4.807 -0.2351 -0.2041 -0.2668
  718MOL0     C96835   9.322   0.792   4.926 -0.0451 -0.7024  0.3260
  718MOL0     C96836   9.251   0.725   5.048  0.8435  0.6540 -1.1713
  718MOL0     C96837   9.340   0.747   5.174 -0.7728 -0.1481  0.4232
  718MOL0     C96838   9.277   0.690   5.304  0.7623  0.6064 -0.4209
  718MOL0    Cl96839   9.401   0.675   5.424 -0.2388  0.1318  0.2255
  718MOL0     C96840   8.837   0.928   4.434 -0.5240  0.2649 -0.1909
  718MOL0     C96841   8.784   0.845   4.348 -0.5229  0.7621  0.5673
  718MOL0     O96842   8.413   0.770   4.302 -0.0245  0.0357 -0.0201
  718MOL0     C96843   8.538   0.492   4.106 -0.3020 -0.7261  0.6412
  718MOL0     C96844   8.500   0.416   3.991  0.7839 -0.0434  0.6386
  718MOL0     N96845   8.322   0.338   3.232  0.0834 -0.6265  0.2581
  718MOL0     N96846   8.276   0.388   3.128  1.0150  0.8137  0.0610
  718MOL0     C96847   7.205   1.200   3.096 -1.0446  0.0235  0.2555
  718MOL0     C96848   7.114   1.292   3.140 -0.5469  0.0839 -0.8057
  718MOL0     C96849   6.875   1.634   3.326  0.4001 -0.6124 -1.3316
  718MOL0     C96850   6.786   1.715   3.263  0.2685 -0.0872  0.8606
  718MOL0     C96851   6.713   1.815   3.332  0.0227 -0.0355  0.3388
  718MOL0     C96852   6.732   1.831   3.468  0.3908  0.9121 -0.3177
  718MOL0     O96853   6.660   1.927   3.538  0.0124 -0.4301  0.2998
  718MOL0     C96854   6.653   1.944   3.680 -0.0608 -0.2564  0.1724
  718MOL0     C96855   6.774   2.008   3.738  0.1582 -0.4400  0.2382
  718MOL0     C96856   6.783   2.151   3.677 -1.8402 -0.3636 -1.0945
  718MOL0     C96857   6.675   2.256   3.709  0.0457  0.8555  0.2211
  718MOL0     C96858   6.737   2.381   3.677 -0.0390 -0.9979 -0.4124
  718MOL0     C96859   6.797   2.485   3.654 -0.3398  0.1903 -0.6301
  718MOL0     C96860   6.825   1.744   3.533 -1.7289  1.2457  0.3463
  718MOL0     C96861   6.903   1.645   3.461 -0.3444  0.0830  0.6917
  718MOL0     C96862   6.996   1.561   3.537  0.9908 -0.3501  0.5546
  718MOL0     H96863   7.298   1.488   3.338 -0.7371 -2.5338  1.7221
  718MOL0     H96864   7.485   1.324   3.248 -0.0153 -0.2817 -2.4525
  718MOL0     H96865   7.614   1.221   3.107 -0.0515  0.2574  0.1626
  718MOL0     H96866   7.570   1.122   3.248  2.0456 -1.8096 -0.1282
  718MOL0     H96867   7.660   1.011   2.962  0.2114 -4.0208 -0.5067
  718MOL0     H96868   7.590   0.917   3.070  0.5649 -0.6776 -0.3625
  718MOL0     H96869   7.776   0.950   3.226  1.2222 -0.9644 -0.2771
  718MOL0     H96870   7.851   1.066   3.120  0.1422  0.6158 -0.3583
  718MOL0     H96871   7.779   0.777   3.022 -1.7664  3.1689 -2.8716
  718MOL0     H96872   7.899   0.887   2.950  0.5016 -2.5782  0.0141
  718MOL0     H96873   8.059   0.864   3.148  1.4080 -1.6285 -1.1564
  718MOL0     H96874   7.946   0.764   3.230  1.4673 -3.3525  0.0293
  718MOL0     H96875   8.119   0.704   2.987 -0.9707  4.7306  1.3893
  718MOL0     H96876   8.134   0.633   3.144 -1.3307 -2.9786  0.0013
  718MOL0     H96877   7.906   0.582   2.963 -0.1938  1.5123  1.0982
  718MOL0     H96878   7.892   0.528   3.122 -1.3509 -3.5539 -2.6128
  718MOL0     H96879   7.985   0.338   2.994 -0.6684  2.3579 -1.0382
  718MOL0     H96880   8.110   0.447   2.936  3.3681 -0.1586  1.8945
  718MOL0     H96881   8.003   0.318   3.267  0.6839 -0.7515  1.7660
  718MOL0     H96882   8.114   0.166   3.454 -0.6813  1.6518 -1.7813
  718MOL0     H96883   8.272   0.127   3.404 -1.7347 -2.5479 -0.8988
  718MOL0     H96884   8.337   0.359   3.520 -0.9059 -0.4772 -0.5585
  718MOL0     H96885   8.180   0.327   3.602 -0.8111  0.6279 -0.2478
  718MOL0     H96886   8.417   0.131   3.591 -0.3432 -0.6982 -1.1142
  718MOL0     H96887   8.275   0.133   3.699  1.3301 -0.4421  0.7782
  718MOL0     H96888   8.490   0.343   3.697  1.7081 -2.1056 -1.3004
  718MOL0     H96889   8.486   0.222   3.819  2.6870  1.5179 -1.4421
  718MOL0     H96890   8.185   0.543   3.934  0.9259  1.6310 -2.4499
  718MOL0     H96891   8.276   0.715   4.109 -1.8111 -1.1604 -0.1191
  718MOL0     H96892   8.523   0.734   4.540  1.3186 -1.4189  1.9855
  718MOL0     H96893   8.633   0.908   4.703  1.4890  0.8073  0.5655
  718MOL0     H96894   8.934   1.117   4.788  0.3090 -0.3764 -1.0286
  718MOL0     H96895   8.854   0.960   4.806 -2.0756 -1.0810 -1.3118
  718MOL0     H96896   9.022   0.861   4.654 -0.8047  2.0639 -2.8140
  718MOL0     H96897   9.108   1.013   4.656  2.1216  0.1597  3.0151
  718MOL0     H96898   9.187   1.011   4.868  3.7927 -2.9648  1.8486
  718MOL0     H96899   9.060   0.892   4.918 -0.8982  0.5064 -0.1433
  718MOL0     H96900   9.286   0.824   4.713  2.4550  1.5157  1.3570
  718MOL0     H96901   9.169   0.723   4.801 -0.2417 -0.1783 -0.6004
  718MOL0     H96902   9.379   0.882   4.947  1.3499 -0.7587 -2.6629
  718MOL0     H96903   9.396   0.718   4.893  0.4585 -0.4982  0.9763
  718MOL0     H96904   9.153   0.768   5.068  0.6874 -0.0200 -0.4312
  718MOL0     H96905   9.223   0.620   5.041  0.5595  0.5544  0.7652
  718MOL0     H96906   9.359   0.854   5.187  2.4431 -0.1542 -2.6448
  718MOL0     H96907   9.438   0.701   5.161 -1.5503 -1.7101 -0.1516
  718MOL0     H96908   9.197   0.753   5.346 -0.0146 -2.0227  2.4537
  718MOL0     H96909   9.231   0.592   5.289 -0.4637  1.0771  0.0716
  718MOL0     H96910   8.921   0.988   4.400  0.8314 -1.8777 -0.8687
  718MOL0     H96911   8.821   0.827   4.247  1.6449 -2.8482  1.8019
  718MOL0     H96912   8.639   0.475   4.144  0.7567 -3.3341 -2.8379
  718MOL0     H96913   8.575   0.355   3.943 -1.0970 -1.0399 -1.2250
  718MOL0     H96914   7.187   1.118   3.026  4.4160 -0.5345 -0.9471
  718MOL0     H96915   7.012   1.272   3.107 -0.3154 -0.6008 -1.1401
  718MOL0     H96916   6.768   1.705   3.156 -0.4045  2.5366  0.6725
  718MOL0     H96917   6.650   1.874   3.266 -0.8505 -0.7678  0.5020
  718MOL0     H96918   6.633   1.849   3.731 -2.6090 -1.2232 -2.3767
  718MOL0     H96919   6.568   2.012   3.691  0.7739  1.1553 -1.5165
  718MOL0     H96920   6.870   1.964   3.709 -0.2367 -0.4388 -1.1153
  718MOL0     H96921   6.772   2.020   3.847 -2.7666 -2.2028  0.4899
  718MOL0     H96922   6.803   2.159   3.570 -1.3365 -0.7040 -1.0284
  718MOL0     H96923   6.882   2.180   3.714 -0.2742 -2.4966 -3.3204
  718MOL0     H96924   6.585   2.236   3.649  1.5492 -0.2511 -1.7970
  718MOL0     H96925   6.646   2.250   3.814  3.9097 -2.4954  1.3432
  718MOL0     H96926   6.852   2.571   3.623 -0.9913  0.3971 -1.2277
  718MOL0     H96927   6.856   1.740   3.637  0.5696 -1.2627 -0.3210
  718MOL0     H96928   7.090   1.614   3.554  2.0014 -1.6642 -0.6429
  718MOL0     H96929   6.965   1.543   3.641  0.6629  3.6211  1.2744
  718MOL0     H96930   7.015   1.459   3.502  1.2208  1.3402 -5.1408
  719MOL0     O96931   9.685   8.382  11.307 -0.3074  0.1101  0.1220
  719MOL0     C96932   9.660   8.267  11.267 -0.2947  0.7562  0.0183
  719MOL0     O96933   9.553   8.240  11.178 -0.3457  0.2767  0.0806
  719MOL0     C96934   9.456   8.335  11.167  0.1063 -0.2115  0.6873
  719MOL0     C96935   9.343   8.314  11.256 -0.4505  0.3718  0.2657
  719MOL0     C96936   9.247   8.418  11.250  0.0171  0.5858 -0.3416
  719MOL0     C96937   9.257   8.527  11.160  0.0957 -0.2545 -0.9277
  719MOL0     O96938   9.178   8.641  11.152 -0.3948  0.5747 -0.1153
  719MOL0     C96939   9.083   8.658  11.251 -0.4250  0.1661  0.2764
  719MOL0     C96940   8.951   8.586  11.219  0.3461 -0.1416  1.0003
  719MOL0     C96941   8.871   8.657  11.101  0.4341  0.8049 -0.7410
  719MOL0     C96942   8.767   8.554  11.045 -1.4110 -0.3923 -0.9731
  719MOL0     C96943   8.670   8.625  10.949 -0.5658 -0.1420  0.2969
  719MOL0     C96944   8.569   8.516  10.915  0.1248 -0.7537 -0.0788
  719MOL0     C96945   8.433   8.581  10.865 -0.1013  0.4247  0.0371
  719MOL0     C96946   8.320   8.485  10.916  0.2511 -0.5206 -0.1667
  719MOL0     N96947   8.295   8.516  11.060 -1.3613  0.7304  0.4643
  719MOL0     C96948   8.250   8.640  11.112 -0.6414 -0.2382 -0.0417
  719MOL0     C96949   8.266   8.621  11.248  0.0076  0.1523  1.0399
  719MOL0     C96950   8.263   8.742  11.338  0.3123 -1.4404  0.3186
  719MOL0     C96951   8.411   8.775  11.379 -1.1425 -0.7668  0.0493
  719MOL0     C96952   8.476   8.907  11.322  0.2291  0.3921 -0.4658
  719MOL0     C96953   8.497   8.901  11.163 -1.0454 -1.1735 -0.6239
  719MOL0     O96954   8.381   8.931  11.094  0.8474  0.6817 -0.4655
  719MOL0     C96955   8.377   9.035  11.003  0.7484  0.4046  0.7419
  719MOL0     C96956   8.316   9.158  11.022  0.3433  0.9448 -1.1601
  719MOL0     C96957   8.314   9.262  10.932 -0.1395  0.1232 -0.5330
  719MOL0     C96958   8.388   9.251  10.814  0.8709  0.5266 -0.7553
  719MOL0     C96959   8.399   9.377  10.723  0.5914  0.4667 -0.0961
  719MOL0     O96960   8.356   9.494  10.772 -0.4225  0.5791  0.0951
  719MOL0     C96961   8.376   9.610  10.705  0.2063  0.3237 -0.6406
  719MOL0     C96962   8.279   9.676  10.613  0.3213 -0.5993 -0.0184
  719MOL0     C96963   8.313   9.805  10.559  0.2892 -0.3655  0.6882
  719MOL0     C96964   8.436   9.871  10.589 -0.9844  0.1201  0.6175
  719MOL0     O96965   8.474   9.980  10.512 -0.5247 -0.1762  0.6444
  719MOL0     C96966   8.591  10.067  10.549  0.3353  0.2807  0.4549
  719MOL0     C96967   8.552  10.141  10.677  0.2397  0.3557  0.2712
  719MOL0     C96968   8.623  10.272  10.701 -0.3747 -0.3861 -0.3527
  719MOL0     C96969   8.548  10.389  10.641 -0.0729  0.3776  0.6255
  719MOL0     C96970   8.629  10.521  10.633 -0.5002  0.8925  0.2249
  719MOL0     C96971   8.666  10.591  10.765  1.4789  0.0075  0.8501
  719MOL0     C96972   8.761  10.712  10.746 -0.3445  0.4622 -0.1893
  719MOL0     C96973   8.776  10.794  10.876 -0.2851  0.1418  0.6501
  719MOL0    Cl96974   8.664  10.936  10.871 -0.1458 -0.2709  0.3896
  719MOL0     C96975   8.523   9.810  10.680  0.4306  0.9945 -0.3715
  719MOL0     C96976   8.494   9.679  10.736  0.1063 -0.0865 -0.0185
  719MOL0     O96977   8.455   9.371  10.612 -0.4651 -0.2342 -0.8456
  719MOL0     C96978   8.452   9.133  10.791 -0.4402 -0.4671  0.5545
  719MOL0     C96979   8.444   9.021  10.880 -0.4220  0.4913  0.3142
  719MOL0     N96980   8.306   8.498  11.277  0.3031  0.2389  1.5465
  719MOL0     N96981   8.315   8.427  11.167 -0.1063 -0.5652  1.0643
  719MOL0     C96982   9.373   8.541  11.084  0.8501 -1.0104  0.0256
  719MOL0     C96983   9.476   8.445  11.087 -0.2847 -0.0681  1.1423
  719MOL0     C96984   9.761   8.151  11.301  0.8684 -0.3312 -0.1793
  719MOL0     C96985   9.775   8.044  11.217  0.3288  0.5243  0.3739
  719MOL0     C96986   9.869   7.950  11.238  0.3686  0.2430  0.0543
  719MOL0     C96987   9.951   7.959  11.350  0.9120  0.6495  0.0955
  719MOL0     O96988  10.050   7.865  11.372 -0.8878 -0.2179 -0.5774
  719MOL0     C96989  10.184   7.899  11.366 -0.7965  0.6197 -0.1273
  719MOL0     C96990  10.277   7.779  11.379 -0.5089  0.4762 -1.2163
  719MOL0     C96991  10.241   7.669  11.276  0.0024  0.3801 -0.2332
  719MOL0     C96992  10.362   7.633  11.197  0.0230 -0.4924  0.3328
  719MOL0     C96993  10.465   7.572  11.282  0.2659 -0.9529  0.1122
  719MOL0     C96994  10.542   7.531  11.364  0.4943  0.8710  0.6355
  719MOL0     C96995   9.908   8.048  11.456 -0.1438  0.9630 -0.5981
  719MOL0     C96996   9.825   8.155  11.428 -0.9005 -0.3336 -0.8988
  719MOL0     C96997   9.781   8.227  11.546 -0.0927  0.9432 -0.8516
  719MOL0     H96998   9.346   8.241  11.336  2.1271  0.2054  0.1227
  719MOL0     H96999   9.167   8.413  11.323  2.9157  1.2256  3.2339
  719MOL0     H97000   9.114   8.641  11.355 -0.0333  1.2544  0.3554
  719MOL0     H97001   9.051   8.763  11.254 -1.4685 -0.0270 -2.0647
  719MOL0     H97002   8.884   8.594  11.305  0.5193  0.3704  1.0911
  719MOL0     H97003   8.979   8.483  11.193  1.3031  0.3228  0.1199
  719MOL0     H97004   8.944   8.683  11.023  2.0334  0.1677  0.4944
  719MOL0     H97005   8.812   8.745  11.128 -1.4991 -0.2604 -1.2734
  719MOL0     H97006   8.814   8.470  10.995  0.5830  0.1597 -0.1287
  719MOL0     H97007   8.708   8.518  11.130  2.3750 -2.1336  1.1796
  719MOL0     H97008   8.624   8.715  10.989 -2.8069 -0.6801 -0.8920
  719MOL0     H97009   8.715   8.650  10.852 -1.3875 -0.5089 -0.1865
  719MOL0     H97010   8.607   8.447  10.840  1.3612 -0.1613 -0.0117
  719MOL0     H97011   8.549   8.456  11.004 -0.0933  1.1576  1.2255
  719MOL0     H97012   8.436   8.572  10.756 -2.7477 -1.3751  0.0044
  719MOL0     H97013   8.416   8.685  10.893  2.1254  0.4753  1.4664
  719MOL0     H97014   8.228   8.499  10.859 -0.1547  1.0806  0.7841
  719MOL0     H97015   8.349   8.381  10.900  1.0741 -0.4893  0.9922
  719MOL0     H97016   8.215   8.728  11.058 -3.0375 -2.2302 -1.9565
  719MOL0     H97017   8.219   8.828  11.286 -0.4386 -1.7817  0.3850
  719MOL0     H97018   8.201   8.717  11.425 -2.1465 -0.9333 -1.2009
  719MOL0     H97019   8.412   8.771  11.488  2.8689  1.7362  0.3258
  719MOL0     H97020   8.482   8.699  11.346 -1.0836 -1.8060  2.3607
  719MOL0     H97021   8.576   8.915  11.365 -0.2039 -1.8178  1.1122
  719MOL0     H97022   8.410   8.992  11.344  3.0457  2.8338 -0.7625
  719MOL0     H97023   8.529   8.800  11.138 -0.0110 -0.6874 -1.3177
  719MOL0     H97024   8.573   8.972  11.129 -0.7641 -0.6723  0.9555
  719MOL0     H97025   8.269   9.175  11.118  1.8080 -0.5146 -0.1154
  719MOL0     H97026   8.246   9.346  10.949 -2.2553 -1.4385 -0.8915
  719MOL0     H97027   8.186   9.630  10.585  1.9339 -2.7933 -2.1672
  719MOL0     H97028   8.251   9.854  10.485 -0.2359 -0.6612  0.9269
  719MOL0     H97029   8.692  10.029  10.564  0.0055 -1.1697 -0.7999
  719MOL0     H97030   8.599  10.142  10.470  2.2448  0.3061  0.6260
  719MOL0     H97031   8.445  10.160  10.676 -0.4844 -3.0469 -0.4968
  719MOL0     H97032   8.567  10.072  10.761  1.2447  2.1397  1.6283
  719MOL0     H97033   8.643  10.291  10.807 -1.4688  1.2563 -0.4084
  719MOL0     H97034   8.713  10.271  10.639 -0.3099  1.2514 -0.3152
  719MOL0     H97035   8.455  10.410  10.695 -1.0204 -3.2070  0.6560
  719MOL0     H97036   8.519  10.354  10.541 -0.2819  1.2347  0.3794
  719MOL0     H97037   8.565  10.589  10.576 -0.6399 -0.1958 -0.9602
  719MOL0     H97038   8.721  10.514  10.575 -1.0128 -0.2140 -0.4971
  719MOL0     H97039   8.578  10.620  10.823  1.1466  0.9944 -0.1020
  719MOL0     H97040   8.732  10.520  10.816  1.6160 -2.4144 -2.3266
  719MOL0     H97041   8.734  10.776  10.661 -1.3193  0.4495  0.1025
  719MOL0     H97042   8.861  10.672  10.727 -0.6165 -0.7458  0.8148
  719MOL0     H97043   8.760  10.725  10.960 -3.6978  1.8153  1.5383
  719MOL0     H97044   8.874  10.839  10.897 -0.7747 -0.0478  3.9972
  719MOL0     H97045   8.620   9.856  10.699  0.7995 -0.2153  0.8243
  719MOL0     H97046   8.553   9.639  10.817 -1.0040  2.6431  2.2752
  719MOL0     H97047   8.523   9.129  10.710 -2.3288  1.9833 -1.3617
  719MOL0     H97048   8.513   8.940  10.863  0.9803  2.2564 -3.2275
  719MOL0     H97049   9.376   8.631  11.025 -3.3706 -0.2223  0.6639
  719MOL0     H97050   9.568   8.452  11.030 -1.7106  0.4279 -1.2675
  719MOL0     H97051   9.718   8.041  11.125  2.0323 -1.0767 -0.6932
  719MOL0     H97052   9.873   7.856  11.185  1.8909  0.8854 -1.0515
  719MOL0     H97053  10.216   7.971  11.442 -3.0197  2.8208 -1.1416
  719MOL0     H97054  10.212   7.936  11.267 -0.7052 -0.3969 -0.4928
  719MOL0     H97055  10.268   7.737  11.479  0.7943  0.5041 -1.0715
  719MOL0     H97056  10.380   7.809  11.361  0.7049 -3.1244 -1.0838
  719MOL0     H97057  10.175   7.712  11.201 -2.9607 -0.2231  1.8295
  719MOL0     H97058  10.191   7.586  11.327 -1.9250  1.3313 -0.4768
  719MOL0     H97059  10.335   7.561  11.119  3.2307 -0.8702 -0.5947
  719MOL0     H97060  10.404   7.719  11.143  0.3827 -0.8337  0.0662
  719MOL0     H97061  10.613   7.497  11.437  1.5567 -1.1914 -1.2349
  719MOL0     H97062   9.961   8.022  11.547 -1.3060  0.4328 -0.0461
  719MOL0     H97063   9.854   8.222  11.627 -1.9858  0.2122  0.8694
  719MOL0     H97064   9.763   8.330  11.513 -4.2739  0.6610  0.0903
  719MOL0     H97065   9.683   8.193  11.580  0.9881  0.3580  1.9069
  720MOL0     O97066   1.227   4.429   5.683  0.0194  0.2968  0.1998
  720MOL0     C97067   1.149   4.441   5.590 -0.0814 -0.1303  0.2015
  720MOL0     O97068   1.010   4.461   5.599 -0.0154  0.3229  0.0824
  720MOL0     C97069   0.981   4.537   5.701  0.2799  0.8330 -0.9566
  720MOL0     C97070   0.979   4.675   5.698 -0.4167 -0.0366  0.3268
  720MOL0     C97071   0.950   4.754   5.806  0.2986 -0.9372 -0.2106
  720MOL0     C97072   0.910   4.694   5.931  0.6234  0.0486 -0.1907
  720MOL0     O97073   0.876   4.781   6.032  0.3136  0.7031 -0.1819
  720MOL0     C97074   0.834   4.734   6.156  1.3069 -1.0918 -0.1671
  720MOL0     C97075   0.759   4.843   6.218 -0.9031 -1.4151 -0.2142
  720MOL0     C97076   0.610   4.871   6.166  0.5662  0.5268 -0.1365
  720MOL0     C97077   0.540   4.991   6.231  0.0506  0.0667 -0.3830
  720MOL0     C97078   0.492   5.094   6.138  0.2067 -0.3637 -0.4734
  720MOL0     C97079   0.397   5.185   6.220 -0.4033  0.3747 -0.5215
  720MOL0     C97080   0.321   5.293   6.140 -0.2538  0.4694  0.2429
  720MOL0     C97081   0.402   5.410   6.117 -0.1943  0.1251 -0.7352
  720MOL0     N97082   0.442   5.434   5.974 -0.0478  0.6990 -0.0089
  720MOL0     C97083   0.359   5.442   5.862 -0.3408 -0.3239  0.4559
  720MOL0     C97084   0.431   5.490   5.756 -0.2406 -0.1115  0.6707
  720MOL0     C97085   0.396   5.516   5.616  0.5024  0.2236 -0.1914
  720MOL0     C97086   0.384   5.669   5.593 -0.1719  1.3763 -0.4676
  720MOL0     C97087   0.233   5.717   5.611 -0.8868 -0.1520 -0.7157
  720MOL0     C97088   0.228   5.859   5.571  0.2150  0.1314  0.7109
  720MOL0     O97089   0.107   5.910   5.624  0.6261  0.6742  0.2071
  720MOL0     C97090   0.040   6.013   5.563 -0.0052 -0.5436  0.0302
  720MOL0     C97091  -0.046   6.074   5.654  0.4579 -0.1015  0.8175
  720MOL0     C97092  -0.107   6.195   5.613 -0.2421  0.3725 -0.4226
  720MOL0     C97093  -0.087   6.244   5.492  0.0944  0.2680 -0.3682
  720MOL0     C97094  -0.156   6.358   5.449 -0.2514 -0.3469 -0.0753
  720MOL0     O97095  -0.226   6.360   5.337 -0.2981  0.5137  0.6769
  720MOL0     C97096  -0.311   6.463   5.306 -0.6759 -1.0903  0.3264
  720MOL0     C97097  -0.383   6.537   5.405  0.1848  0.6676 -0.9689
  720MOL0     C97098  -0.468   6.643   5.371 -0.7608 -0.2523  0.2426
  720MOL0     C97099  -0.483   6.689   5.239  0.0947  0.6637 -0.4062
  720MOL0     O97100  -0.558   6.800   5.213  0.2444 -0.4965  0.3110
  720MOL0     C97101  -0.539   6.874   5.096 -0.3175  0.2112  0.2704
  720MOL0     C97102  -0.633   6.994   5.104  0.2512  0.1164  0.8891
  720MOL0     C97103  -0.781   6.950   5.099  0.0321 -0.0625  0.0314
  720MOL0     C97104  -0.884   7.062   5.109  0.0603  0.2150  1.1711
  720MOL0     C97105  -1.032   7.028   5.068  0.7525 -0.3572 -0.9503
  720MOL0     C97106  -1.090   6.916   5.159 -0.1037 -0.2219  0.0969
  720MOL0     C97107  -1.243   6.898   5.121 -1.9152 -0.1458  0.3996
  720MOL0     C97108  -1.276   6.793   5.016 -0.2316  0.0587  0.7024
  720MOL0    Cl97109  -1.455   6.768   5.008 -0.5046  0.2783  0.0480
  720MOL0     C97110  -0.401   6.616   5.142 -0.0350  0.0340  0.2830
  720MOL0     C97111  -0.314   6.510   5.177  0.8799  0.5288  0.3730
  720MOL0     O97112  -0.154   6.449   5.531 -0.1258 -0.2310 -0.2393
  720MOL0     C97113  -0.014   6.176   5.402 -0.2975 -0.4733 -0.0860
  720MOL0     C97114   0.056   6.060   5.426  0.9672  0.4082 -0.1982
  720MOL0     N97115   0.557   5.524   5.810  0.3429  0.2366  0.2586
  720MOL0     N97116   0.559   5.484   5.930 -0.6148 -0.6146  0.2031
  720MOL0     C97117   0.892   4.552   5.934 -0.2313 -0.4084 -0.7735
  720MOL0     C97118   0.932   4.476   5.821 -0.5355 -0.0005 -0.5566
  720MOL0     C97119   1.206   4.419   5.454  0.1307 -0.1443  0.5572
  720MOL0     C97120   1.119   4.421   5.344 -0.3322  0.1294 -0.7167
  720MOL0     C97121   1.165   4.399   5.217  0.3597 -0.1615 -0.0961
  720MOL0     C97122   1.296   4.395   5.195  0.6567 -0.1686  0.6550
  720MOL0     O97123   1.352   4.408   5.071 -0.1856 -0.1515  0.1464
  720MOL0     C97124   1.282   4.444   4.954 -0.3866 -0.7681  0.2193
  720MOL0     C97125   1.383   4.456   4.836 -0.3073 -0.1368  0.7014
  720MOL0     C97126   1.324   4.535   4.710 -0.2212 -0.1115 -1.0380
  720MOL0     C97127   1.406   4.529   4.585 -0.2863 -1.3558 -0.3303
  720MOL0     C97128   1.364   4.649   4.505 -0.1357 -0.7918 -0.1807
  720MOL0     C97129   1.323   4.740   4.448 -0.0035 -0.6585  0.1176
  720MOL0     C97130   1.387   4.385   5.290 -0.3875 -0.7050 -0.3588
  720MOL0     C97131   1.343   4.385   5.426 -0.3378  0.3037  0.4440
  720MOL0     C97132   1.445   4.372   5.531  0.1980 -0.4215 -0.3480
  720MOL0     H97133   1.002   4.728   5.606  1.9778 -2.1471 -0.3874
  720MOL0     H97134   0.950   4.862   5.795 -2.7386 -0.8633 -0.3232
  720MOL0     H97135   0.755   4.658   6.155  0.6568 -0.4294 -1.1426
  720MOL0     H97136   0.922   4.694   6.207  2.4292  0.8108 -0.5354
  720MOL0     H97137   0.823   4.926   6.186  0.2659 -2.8308 -1.6876
  720MOL0     H97138   0.751   4.847   6.327 -0.1709  0.6405 -0.1907
  720MOL0     H97139   0.541   4.786   6.173 -1.0047  1.7715  0.1671
  720MOL0     H97140   0.607   4.892   6.058  0.1522  1.8373  0.1075
  720MOL0     H97141   0.461   4.953   6.297 -0.5001  0.1356 -0.9926
  720MOL0     H97142   0.609   5.041   6.300 -1.7194 -0.4061  1.8658
  720MOL0     H97143   0.577   5.152   6.099  1.1749 -1.0216  0.6120
  720MOL0     H97144   0.430   5.054   6.057 -2.1389  2.2763 -0.1758
  720MOL0     H97145   0.331   5.128   6.286  0.9851 -0.1077  0.5095
  720MOL0     H97146   0.459   5.248   6.285 -0.8645  1.8463 -1.4551
  720MOL0     H97147   0.235   5.324   6.200  0.5439  1.7454  0.7501
  720MOL0     H97148   0.294   5.247   6.044 -3.7482  1.4511  0.6062
  720MOL0     H97149   0.352   5.497   6.158 -4.7307 -3.5803  2.7608
  720MOL0     H97150   0.491   5.407   6.179 -0.1317 -2.3785 -0.8313
  720MOL0     H97151   0.255   5.413   5.855 -1.3747  3.0026  0.1358
  720MOL0     H97152   0.472   5.472   5.551  1.5459 -0.8037  1.6467
  720MOL0     H97153   0.299   5.473   5.588  1.3717 -1.2588 -1.0524
  720MOL0     H97154   0.445   5.733   5.658  0.5872  1.4506 -1.2264
  720MOL0     H97155   0.411   5.676   5.487  3.0409 -2.0948 -0.0990
  720MOL0     H97156   0.200   5.721   5.715  0.5375 -1.2463 -0.1927
  720MOL0     H97157   0.164   5.667   5.543  0.4192 -1.1163 -1.3676
  720MOL0     H97158   0.224   5.875   5.463  0.5717 -0.0858  0.6661
  720MOL0     H97159   0.315   5.903   5.621 -1.8445  0.4626  4.3680
  720MOL0     H97160  -0.080   6.017   5.740 -2.9897 -0.2211 -0.4767
  720MOL0     H97161  -0.166   6.255   5.681  0.2420  1.4519 -0.9204
  720MOL0     H97162  -0.382   6.502   5.508 -0.1021  4.0652  0.3348
  720MOL0     H97163  -0.531   6.702   5.436  0.3804  1.2209  0.0552
  720MOL0     H97164  -0.434   6.895   5.074  0.0936 -1.2468  0.7361
  720MOL0     H97165  -0.572   6.841   4.997  0.6405  1.5369 -0.5255
  720MOL0     H97166  -0.621   7.039   5.203 -4.4063 -2.8422  3.1852
  720MOL0     H97167  -0.618   7.069   5.026 -1.0834 -1.1539 -0.6636
  720MOL0     H97168  -0.796   6.905   5.000  1.1357 -0.2386 -0.0661
  720MOL0     H97169  -0.793   6.879   5.181 -1.1555  0.5870  0.4468
  720MOL0     H97170  -0.866   7.143   5.039 -3.1074 -1.0096 -1.3178
  720MOL0     H97171  -0.877   7.104   5.210  0.2762 -0.3282  1.3895
  720MOL0     H97172  -1.032   6.993   4.965  0.1665  1.6178 -1.6717
  720MOL0     H97173  -1.104   7.110   5.062 -0.7595 -1.6585 -1.0587
  720MOL0     H97174  -1.040   6.819   5.151 -1.5195 -1.1185  1.3957
  720MOL0     H97175  -1.083   6.945   5.264 -0.8421  0.6889 -0.0839
  720MOL0     H97176  -1.283   6.997   5.099 -2.8639 -0.1560  1.9606
  720MOL0     H97177  -1.288   6.865   5.215 -1.6203 -0.3538  0.4726
  720MOL0     H97178  -1.232   6.800   4.916 -0.6083 -4.6670 -0.0261
  720MOL0     H97179  -1.237   6.701   5.060 -2.7815 -0.3401  2.3309
  720MOL0     H97180  -0.399   6.651   5.039  0.2483 -0.6788  0.0411
  720MOL0     H97181  -0.266   6.467   5.090  1.7821 -0.3292  1.2665
  720MOL0     H97182  -0.011   6.207   5.298  3.7776 -1.9493 -0.5907
  720MOL0     H97183   0.106   6.008   5.346  1.4613  1.5583 -0.6609
  720MOL0     H97184   0.858   4.494   6.019  2.8694 -1.5744 -0.2064
  720MOL0     H97185   0.934   4.368   5.812  2.3900 -0.1236  0.7529
  720MOL0     H97186   1.013   4.421   5.365 -0.7669 -1.2137 -2.6804
  720MOL0     H97187   1.083   4.409   5.146 -0.7238  1.2640  1.2790
  720MOL0     H97188   1.236   4.542   4.971 -2.0127 -1.4013 -0.3907
  720MOL0     H97189   1.201   4.377   4.926 -1.1116  0.0199  0.3927
  720MOL0     H97190   1.415   4.357   4.801  1.3434  1.0237 -1.2824
  720MOL0     H97191   1.475   4.496   4.879 -1.3533  2.0372  1.0617
  720MOL0     H97192   1.319   4.638   4.748  1.6409 -0.9605  1.8812
  720MOL0     H97193   1.225   4.501   4.681 -0.4486  1.5243 -2.3277
  720MOL0     H97194   1.512   4.533   4.608 -0.3776 -0.2098 -0.0588
  720MOL0     H97195   1.388   4.436   4.530  0.4654 -0.1836 -2.6744
  720MOL0     H97196   1.297   4.831   4.399 -2.7331 -0.0332  2.4627
  720MOL0     H97197   1.493   4.369   5.272 -0.5772  0.1571 -2.4641
  720MOL0     H97198   1.420   4.279   5.584  0.7093 -1.7906 -2.3581
  720MOL0     H97199   1.541   4.350   5.483 -0.4016 -1.0480 -1.3020
  720MOL0     H97200   1.467   4.456   5.597  0.3737  0.0579 -1.0097
  721MOL0     O97201   9.781   8.941   8.897  0.1366  0.2477 -0.7297
  721MOL0     C97202   9.692   9.026   8.897  0.0174 -0.4643 -0.0457
  721MOL0     O97203   9.594   9.040   8.993  0.2573  0.8197 -0.3544
  721MOL0     C97204   9.611   8.960   9.103 -0.2152  0.4859  0.5320
  721MOL0     C97205   9.723   8.975   9.195  0.4389 -0.4329  0.0412
  721MOL0     C97206   9.738   8.874   9.300  0.4440 -0.4254  0.1135
  721MOL0     C97207   9.644   8.766   9.309 -0.5102 -0.9222 -1.4826
  721MOL0     O97208   9.646   8.663   9.407 -0.6655 -0.2243 -0.2791
  721MOL0     C97209   9.719   8.693   9.529  0.4565  0.5479  0.1202
  721MOL0     C97210   9.694   8.599   9.646  0.4697 -0.0846 -0.1029
  721MOL0     C97211   9.572   8.642   9.730 -0.1335  0.2242  0.4517
  721MOL0     C97212   9.545   8.553   9.852  0.3557  0.7860 -0.2891
  721MOL0     C97213   9.463   8.611   9.963 -0.0087 -0.4232 -0.6126
  721MOL0     C97214   9.482   8.530  10.097 -0.3350  0.6101  1.0932
  721MOL0     C97215   9.353   8.516  10.176  0.3967 -1.5448 -0.4643
  721MOL0     C97216   9.361   8.416  10.291 -1.0031 -1.0267  0.8781
  721MOL0     N97217   9.470   8.442  10.394 -0.6545  0.1776 -0.4622
  721MOL0     C97218   9.521   8.563  10.443 -0.5443  0.2295 -0.6720
  721MOL0     C97219   9.622   8.535  10.527 -0.5839 -0.1174 -0.3734
  721MOL0     C97220   9.715   8.618  10.617 -0.0525 -0.6104  0.4874
  721MOL0     C97221   9.658   8.641  10.760  0.3269 -0.5696 -0.4154
  721MOL0     C97222   9.747   8.742  10.842 -0.0733 -0.2102  0.0420
  721MOL0     C97223   9.763   8.706  10.989 -0.4969  0.7370 -0.6177
  721MOL0     O97224   9.860   8.799  11.051  0.7436  1.3821  0.4672
  721MOL0     C97225   9.895   8.765  11.184 -0.7595  0.2300  0.4652
  721MOL0     C97226   9.958   8.864  11.263  0.1176  0.3242  0.7863
  721MOL0     C97227   9.990   8.851  11.396  0.8613  0.4730 -0.2007
  721MOL0     C97228   9.982   8.724  11.455  0.9702  0.6759 -0.1627
  721MOL0     C97229  10.049   8.699  11.579 -0.2020  1.0057 -0.8834
  721MOL0     O97230  10.107   8.813  11.637  0.0429  0.3295  0.7760
  721MOL0     C97231  10.117   8.793  11.772 -0.0600  0.1197  0.6819
  721MOL0     C97232  10.012   8.809  11.856  1.0639 -0.3493 -0.3291
  721MOL0     C97233  10.022   8.810  11.992  0.1265  0.5640 -0.3838
  721MOL0     C97234  10.151   8.783  12.049  0.0050 -0.2567 -0.4308
  721MOL0     O97235  10.179   8.807  12.182 -0.4088  0.1189 -0.2212
  721MOL0     C97236  10.083   8.850  12.278 -0.4821 -0.1563 -0.5695
  721MOL0     C97237  10.150   8.865  12.423  0.6084  0.6440 -0.3764
  721MOL0     C97238  10.241   8.985  12.449  0.5471  0.7696  0.2890
  721MOL0     C97239  10.326   8.984  12.583  0.2674 -0.1824 -0.0971
  721MOL0     C97240  10.250   8.985  12.717  0.0497 -0.2214  0.1214
  721MOL0     C97241  10.331   9.057  12.827 -0.4662  0.7792  0.1348
  721MOL0     C97242  10.470   8.994  12.854  0.2828  0.7287 -0.2621
  721MOL0     C97243  10.535   9.069  12.969  0.6191  0.0228  0.0472
  721MOL0    Cl97244  10.478   9.013  13.126 -0.0471  0.1052 -0.1405
  721MOL0     C97245  10.257   8.763  11.962 -0.0360  0.4420 -0.1583
  721MOL0     C97246  10.238   8.770  11.829 -0.4398  0.0225 -0.4868
  721MOL0     O97247  10.035   8.583  11.634 -0.3709 -0.4033  0.5153
  721MOL0     C97248   9.940   8.614  11.378  0.6354  0.1151  0.3688
  721MOL0     C97249   9.904   8.633  11.243 -0.4703  0.8915 -0.2733
  721MOL0     N97250   9.630   8.396  10.532 -0.0563  0.0959 -0.9535
  721MOL0     N97251   9.537   8.339  10.458 -0.0444  0.9115  0.6095
  721MOL0     C97252   9.549   8.753   9.215 -0.2316 -0.7175  0.1684
  721MOL0     C97253   9.530   8.849   9.113  0.4753  0.4965 -0.3905
  721MOL0     C97254   9.683   9.110   8.773 -0.2771  0.3722  0.3023
  721MOL0     C97255   9.716   9.059   8.646 -0.0265 -0.4201  0.0750
  721MOL0     C97256   9.706   9.140   8.532  0.2651 -0.2673 -0.2960
  721MOL0     C97257   9.686   9.282   8.554 -0.0076 -0.0506  0.3905
  721MOL0     O97258   9.691   9.363   8.441 -0.0376  0.2691 -1.2089
  721MOL0     C97259   9.589   9.462   8.414  0.3184 -0.6956 -0.7612
  721MOL0     C97260   9.450   9.401   8.394 -0.4319  0.1272 -0.4350
  721MOL0     C97261   9.432   9.288   8.286 -0.1347  0.0675  0.3905
  721MOL0     C97262   9.280   9.273   8.239  0.6613 -0.7616 -0.0739
  721MOL0     C97263   9.289   9.163   8.143  0.7571 -0.4667 -1.0605
  721MOL0     C97264   9.295   9.075   8.064 -0.2348  0.9811 -0.5445
  721MOL0     C97265   9.680   9.331   8.685  0.1630 -0.0346  0.4977
  721MOL0     C97266   9.673   9.249   8.793  0.6853 -0.0505  0.1325
  721MOL0     C97267   9.623   9.311   8.922 -1.1411  0.0622  0.7041
  721MOL0     H97268   9.780   9.067   9.188  2.7501 -1.9065 -5.1806
  721MOL0     H97269   9.799   8.883   9.390  0.5801  0.6609 -0.0851
  721MOL0     H97270   9.822   8.682   9.495  1.6423 -2.9704  4.0404
  721MOL0     H97271   9.715   8.793   9.574  2.2265  0.6485  0.1043
  721MOL0     H97272   9.787   8.601   9.702  0.3346  0.0787  0.1186
  721MOL0     H97273   9.685   8.495   9.615  1.1595  0.5883 -2.8252
  721MOL0     H97274   9.482   8.654   9.669  2.1487  1.1190 -2.9817
  721MOL0     H97275   9.587   8.740   9.776  1.0952 -1.0012  2.8684
  721MOL0     H97276   9.507   8.456   9.818 -0.1390 -0.4379  3.2953
  721MOL0     H97277   9.648   8.533   9.883 -0.3688  0.0010  1.7731
  721MOL0     H97278   9.502   8.712   9.979 -0.2624 -0.6215  1.6758
  721MOL0     H97279   9.357   8.598   9.941 -1.0016 -0.0746  3.2574
  721MOL0     H97280   9.506   8.426  10.072 -2.2612  0.3272  0.2438
  721MOL0     H97281   9.569   8.570  10.148 -1.1408  1.2202  2.0288
  721MOL0     H97282   9.273   8.483  10.109  1.4440  0.1054 -2.6274
  721MOL0     H97283   9.325   8.618  10.204 -0.9438 -2.2777  1.1196
  721MOL0     H97284   9.270   8.434  10.348 -0.6844  0.9247  0.8256
  721MOL0     H97285   9.359   8.314  10.250  0.2264 -1.6505  2.2710
  721MOL0     H97286   9.488   8.666  10.429 -0.4666  0.3482 -0.0175
  721MOL0     H97287   9.815   8.575  10.626  0.4526  0.9330  3.4098
  721MOL0     H97288   9.745   8.707  10.560  0.5633 -2.3867 -2.1849
  721MOL0     H97289   9.560   8.688  10.754  0.9068  1.1213  2.0063
  721MOL0     H97290   9.649   8.544  10.811 -1.1228 -0.2070  0.0611
  721MOL0     H97291   9.704   8.842  10.833  1.6307  0.5856  0.1903
  721MOL0     H97292   9.847   8.752  10.798 -0.3244  0.2985 -0.4251
  721MOL0     H97293   9.796   8.603  11.002 -0.6501  0.6057 -1.2040
  721MOL0     H97294   9.665   8.721  11.034 -0.9751  1.2631 -1.7800
  721MOL0     H97295   9.976   8.961  11.219 -0.1812 -0.8149 -2.0846
  721MOL0     H97296  10.025   8.940  11.447  1.6871  0.6055 -0.9728
  721MOL0     H97297   9.915   8.816  11.807  1.6536 -0.4916 -1.5598
  721MOL0     H97298   9.935   8.832  12.052  1.1347 -0.1377  1.3997
  721MOL0     H97299  10.031   8.937  12.236  0.4521 -0.7727 -3.2179
  721MOL0     H97300  10.012   8.767  12.278 -3.5701  2.2834 -1.2468
  721MOL0     H97301  10.055   8.888  12.473 -0.6693  0.6277 -2.6639
  721MOL0     H97302  10.191   8.766  12.445  1.1240  0.6494 -1.2889
  721MOL0     H97303  10.311   8.984  12.365  1.3767 -3.8466  0.7860
  721MOL0     H97304  10.175   9.070  12.430  0.7692  0.3279 -2.9554
  721MOL0     H97305  10.383   9.077  12.581 -1.4388  0.9666 -3.6787
  721MOL0     H97306  10.403   8.906  12.578  1.0157  0.5614 -0.3283
  721MOL0     H97307  10.224   8.883  12.748  0.6665 -0.8231 -1.2317
  721MOL0     H97308  10.153   9.033  12.701  0.3432  0.5453  0.5753
  721MOL0     H97309  10.343   9.165  12.811  0.4596  0.2081 -4.3546
  721MOL0     H97310  10.267   9.039  12.914 -0.4701  1.9943  0.4061
  721MOL0     H97311  10.535   9.012  12.768 -2.7116  0.0835 -2.8051
  721MOL0     H97312  10.453   8.889  12.879 -0.2890  0.5924 -1.1872
  721MOL0     H97313  10.643   9.053  12.964  0.6122 -0.4405  1.1736
  721MOL0     H97314  10.524   9.178  12.961 -0.0661 -0.0653 -0.3114
  721MOL0     H97315  10.358   8.750  12.001 -0.2162  0.4919  0.3304
  721MOL0     H97316  10.323   8.771  11.761  0.4917  0.9739  0.6428
  721MOL0     H97317   9.934   8.513  11.417 -0.8074 -0.5378 -1.3918
  721MOL0     H97318   9.878   8.550  11.178 -1.4217  0.8763  0.1007
  721MOL0     H97319   9.476   8.673   9.211  3.1219 -3.9332 -1.1605
  721MOL0     H97320   9.448   8.845   9.041 -0.2979  0.3669  0.4832
  721MOL0     H97321   9.745   8.955   8.634 -1.8083 -0.8474 -0.8960
  721MOL0     H97322   9.725   9.099   8.434  2.2269 -1.5473  0.5545
  721MOL0     H97323   9.617   9.514   8.322 -0.7652 -0.1833 -0.8216
  721MOL0     H97324   9.590   9.530   8.500 -0.8512  1.5156 -2.3907
  721MOL0     H97325   9.391   9.487   8.363 -1.5675 -0.4506  0.0598
  721MOL0     H97326   9.411   9.367   8.491  0.0591  1.5030  0.2707
  721MOL0     H97327   9.476   9.197   8.328  1.0647  0.0886 -0.7661
  721MOL0     H97328   9.484   9.305   8.191 -0.4777 -3.8780 -0.6620
  721MOL0     H97329   9.216   9.259   8.326  1.4839  2.3113  1.1594
  721MOL0     H97330   9.248   9.365   8.191 -1.5309 -0.9214  0.9501
  721MOL0     H97331   9.313   9.006   7.984 -1.3343 -1.4950  1.2115
  721MOL0     H97332   9.675   9.439   8.692 -2.4839 -0.1406  1.2257
  721MOL0     H97333   9.523   9.272   8.944 -1.4063 -0.0668 -0.6330
  721MOL0     H97334   9.699   9.291   8.998 -0.7078 -2.5892 -0.3044
  721MOL0     H97335   9.621   9.419   8.908 -1.0849 -0.1548 -1.2938
  722MOL0     O97336   5.754   0.511   4.893  0.3443 -0.4170 -0.0191
  722MOL0     C97337   5.714   0.632   4.893  0.1509  1.1617  0.6957
  722MOL0     O97338   5.622   0.690   4.803  0.3590  0.1559  0.2990
  722MOL0     C97339   5.568   0.625   4.687  0.1293  0.2901 -0.5298
  722MOL0     C97340   5.612   0.510   4.627 -0.7148  0.4666 -0.6635
  722MOL0     C97341   5.554   0.459   4.506  0.1083  0.7185 -0.4547
  722MOL0     C97342   5.445   0.524   4.451 -0.0516 -0.4869  0.0032
  722MOL0     O97343   5.391   0.454   4.348 -0.3696  0.7197  0.3357
  722MOL0     C97344   5.248   0.450   4.343  0.0107  0.4391 -0.6744
  722MOL0     C97345   5.209   0.354   4.224 -0.5010 -0.6959 -0.1199
  722MOL0     C97346   5.244   0.206   4.264 -0.5308  0.1639 -0.2419
  722MOL0     C97347   5.224   0.109   4.145  0.6436 -0.0227 -1.1448
  722MOL0     C97348   5.064   0.090   4.114  0.1310  0.3013  0.0850
  722MOL0     C97349   5.033  -0.028   4.025  0.1400 -0.4245 -0.1091
  722MOL0     C97350   5.069  -0.047   3.877 -0.2005 -0.5940  0.2411
  722MOL0     C97351   5.018   0.057   3.781  0.5977 -0.0255  0.0741
  722MOL0     N97352   4.874   0.083   3.792 -0.2273 -0.9471 -0.3012
  722MOL0     C97353   4.784   0.017   3.715 -0.0685 -0.1621  0.6838
  722MOL0     C97354   4.668   0.079   3.728 -0.1885  0.8288 -0.4495
  722MOL0     C97355   4.554   0.056   3.639  0.5261  0.4090  0.4361
  722MOL0     C97356   4.474  -0.076   3.665  0.5315 -1.0599  0.3272
  722MOL0     C97357   4.339  -0.036   3.722 -0.5355  0.4252  0.5233
  722MOL0     C97358   4.350   0.046   3.854  0.0766  0.2973  0.7470
  722MOL0     O97359   4.228   0.037   3.936 -0.1940 -0.0373  0.1568
  722MOL0     C97360   4.116   0.090   3.880 -0.6347  0.5421 -0.7188
  722MOL0     C97361   4.002   0.050   3.946 -0.0208  0.6938  0.1889
  722MOL0     C97362   3.877   0.094   3.904  0.6953 -0.0792 -0.5348
  722MOL0     C97363   3.868   0.187   3.802  0.2595  0.4801 -0.3761
  722MOL0     C97364   3.737   0.217   3.746 -0.1080 -0.4476  0.0268
  722MOL0     O97365   3.728   0.334   3.678 -0.0770 -1.1008  0.5208
  722MOL0     C97366   3.605   0.372   3.629 -0.0100 -0.2022 -0.8414
  722MOL0     C97367   3.517   0.462   3.703 -0.7844 -0.4516  0.4120
  722MOL0     C97368   3.395   0.502   3.639 -0.3511 -0.4916  0.2044
  722MOL0     C97369   3.358   0.462   3.506 -0.0996 -0.0793  0.8901
  722MOL0     O97370   3.238   0.487   3.448  0.0631  0.5237  0.4061
  722MOL0     C97371   3.143   0.582   3.498  0.3152  0.3857 -0.3019
  722MOL0     C97372   3.203   0.717   3.466  0.6997 -1.0361  0.1253
  722MOL0     C97373   3.235   0.719   3.315  0.6377 -0.0618 -0.4170
  722MOL0     C97374   3.254   0.867   3.255  0.8064  0.2371 -0.8037
  722MOL0     C97375   3.380   0.937   3.304 -0.4688 -0.2397 -1.2643
  722MOL0     C97376   3.433   1.056   3.221 -0.1120 -0.2304  0.0089
  722MOL0     C97377   3.572   1.102   3.258 -0.2188  0.3441  0.6468
  722MOL0     C97378   3.674   0.996   3.289 -0.0517 -0.6549  0.4238
  722MOL0    Cl97379   3.839   1.062   3.292 -0.0103  0.1811  0.0745
  722MOL0     C97380   3.444   0.375   3.438 -0.5869  0.0142 -0.5438
  722MOL0     C97381   3.565   0.340   3.502  0.6660  0.8907 -0.0144
  722MOL0     O97382   3.651   0.135   3.771  0.4849  0.1058 -0.1560
  722MOL0     C97383   3.985   0.234   3.748 -0.6017 -0.1222 -0.0599
  722MOL0     C97384   4.108   0.188   3.787 -0.9633  0.0109 -0.5755
  722MOL0     N97385   4.680   0.172   3.828 -0.7912 -0.0402  0.0133
  722MOL0     N97386   4.807   0.170   3.863 -0.0332 -0.1421 -0.7663
  722MOL0     C97387   5.389   0.640   4.521  0.2034 -0.1433 -0.3226
  722MOL0     C97388   5.453   0.685   4.636 -1.2161 -0.9452  0.9157
  722MOL0     C97389   5.801   0.739   4.965  0.9696  0.3613  0.2743
  722MOL0     C97390   5.809   0.870   4.907  0.2670  0.9257 -0.4122
  722MOL0     C97391   5.903   0.957   4.957  0.0883  0.2126  0.9604
  722MOL0     C97392   5.971   0.926   5.086 -0.1748 -0.9750  0.5452
  722MOL0     O97393   6.041   1.013   5.154 -0.1834 -0.2718 -0.0734
  722MOL0     C97394   6.049   1.156   5.130 -0.2708  0.2499 -0.0319
  722MOL0     C97395   5.901   1.233   5.147 -0.2074 -0.3088  0.2969
  722MOL0     C97396   5.893   1.367   5.074  1.5009  0.1053 -0.8377
  722MOL0     C97397   5.757   1.434   5.058  0.4542 -0.2575  0.3112
  722MOL0     C97398   5.761   1.534   4.955  0.6457 -0.3531 -0.3893
  722MOL0     C97399   5.751   1.611   4.863  0.1099 -0.7126  0.0966
  722MOL0     C97400   5.949   0.802   5.142 -0.0075 -0.2081  0.2138
  722MOL0     C97401   5.869   0.705   5.085 -0.1875 -0.7296 -0.3924
  722MOL0     C97402   5.845   0.586   5.158 -0.2770 -0.1709 -0.5708
  722MOL0     H97403   5.699   0.462   4.672 -0.7577  1.8932  1.0196
  722MOL0     H97404   5.596   0.372   4.458 -0.1917  0.2823  0.0640
  722MOL0     H97405   5.226   0.417   4.445 -2.4380 -1.2151 -1.6390
  722MOL0     H97406   5.207   0.549   4.323  1.4743  1.0645 -0.6978
  722MOL0     H97407   5.259   0.398   4.137 -1.9565  2.1268  0.3468
  722MOL0     H97408   5.100   0.359   4.213 -0.3554  2.8128 -1.3903
  722MOL0     H97409   5.192   0.174   4.355 -1.0165  0.2376 -0.4950
  722MOL0     H97410   5.353   0.197   4.276 -0.3939 -0.1414 -1.6112
  722MOL0     H97411   5.267   0.158   4.057  1.7887  1.3436  0.1268
  722MOL0     H97412   5.266   0.009   4.163 -1.3170 -0.4247  1.8905
  722MOL0     H97413   5.009   0.093   4.209 -1.3703  1.0892 -0.7607
  722MOL0     H97414   5.024   0.181   4.068 -2.7462 -1.1184 -0.4665
  722MOL0     H97415   5.072  -0.113   4.082  3.0782  2.0579  1.8744
  722MOL0     H97416   4.924  -0.040   4.017  0.1433  0.6422 -3.0824
  722MOL0     H97417   5.041  -0.149   3.851  0.5749 -1.2864  1.9782
  722MOL0     H97418   5.178  -0.047   3.881 -0.1651  1.6909  3.7950
  722MOL0     H97419   5.065   0.149   3.817 -2.6152  0.5144  3.4070
  722MOL0     H97420   5.050   0.021   3.682 -0.9446 -1.4683  0.0519
  722MOL0     H97421   4.810  -0.035   3.623 -0.2847  1.5464 -0.3883
  722MOL0     H97422   4.476   0.132   3.638 -1.6498 -1.6925 -1.4993
  722MOL0     H97423   4.585   0.039   3.536 -3.4147 -1.6340 -0.6077
  722MOL0     H97424   4.464  -0.134   3.572 -0.9479  1.5070 -1.2358
  722MOL0     H97425   4.531  -0.142   3.731 -1.5008 -4.3802 -0.9724
  722MOL0     H97426   4.286  -0.131   3.740  0.3504  0.4485  4.1824
  722MOL0     H97427   4.265   0.007   3.653  0.9291  3.3124  0.6187
  722MOL0     H97428   4.358   0.152   3.828 -0.3207 -0.0821 -1.0155
  722MOL0     H97429   4.440   0.014   3.908  0.4525  0.9020  0.4863
  722MOL0     H97430   4.004  -0.019   4.029 -0.9420 -0.4122 -0.6710
  722MOL0     H97431   3.788   0.060   3.958  2.0992 -1.6663  0.9243
  722MOL0     H97432   3.550   0.512   3.794 -2.3701  1.4123  0.0279
  722MOL0     H97433   3.324   0.573   3.680  0.8809  0.0639  1.4464
  722MOL0     H97434   3.042   0.574   3.457 -1.6950 -0.3447  4.1710
  722MOL0     H97435   3.128   0.569   3.606 -2.3859  0.6634 -0.5906
  722MOL0     H97436   3.118   0.781   3.492 -0.8593 -2.3541 -1.4104
  722MOL0     H97437   3.287   0.732   3.533 -0.0694 -0.6149  1.0214
  722MOL0     H97438   3.317   0.650   3.294  2.8636  1.9898  1.0952
  722MOL0     H97439   3.149   0.685   3.256  3.1524 -2.0902 -3.2154
  722MOL0     H97440   3.167   0.933   3.272 -2.9102 -3.8274 -2.1284
  722MOL0     H97441   3.272   0.856   3.148  0.3469 -0.9536 -0.7683
  722MOL0     H97442   3.456   0.859   3.317 -0.1872  0.5119  3.2771
  722MOL0     H97443   3.374   0.968   3.409 -0.1774 -0.1016 -1.2876
  722MOL0     H97444   3.433   1.022   3.117  0.2857  0.1975 -0.1348
  722MOL0     H97445   3.365   1.141   3.222  1.3697  0.9872  1.0179
  722MOL0     H97446   3.564   1.166   3.346  0.1926  1.5116 -0.1345
  722MOL0     H97447   3.600   1.164   3.172  0.6077  0.7696  1.2089
  722MOL0     H97448   3.648   0.947   3.383 -1.6830 -0.0006  0.3445
  722MOL0     H97449   3.663   0.914   3.218  0.1926 -1.4279  1.2616
  722MOL0     H97450   3.413   0.354   3.337 -1.1652 -0.6905 -0.2273
  722MOL0     H97451   3.639   0.281   3.448 -1.0797  0.6222 -2.2712
  722MOL0     H97452   3.984   0.295   3.658 -0.4825 -1.0749 -0.7166
  722MOL0     H97453   4.190   0.231   3.731 -0.9840  0.0041 -0.6114
  722MOL0     H97454   5.305   0.699   4.485 -1.0512  0.2314  2.9373
  722MOL0     H97455   5.420   0.781   4.675 -1.2496 -0.4283 -0.3529
  722MOL0     H97456   5.754   0.888   4.815 -2.3709 -0.2545  0.7979
  722MOL0     H97457   5.908   1.056   4.914 -1.1037  1.3558  3.2674
  722MOL0     H97458   6.085   1.162   5.027  2.5351 -0.3363  0.8114
  722MOL0     H97459   6.128   1.198   5.193  4.2324 -2.8233 -3.0037
  722MOL0     H97460   5.884   1.247   5.254  1.8028 -0.5224  0.6843
  722MOL0     H97461   5.824   1.162   5.116  0.7397 -1.7790  1.1550
  722MOL0     H97462   5.934   1.346   4.975  2.3265 -5.4712  0.3645
  722MOL0     H97463   5.949   1.446   5.126  1.0353  0.7446 -1.3044
  722MOL0     H97464   5.681   1.363   5.026  1.6866 -1.3541 -0.2627
  722MOL0     H97465   5.727   1.483   5.151 -0.2420 -0.2469  0.0894
  722MOL0     H97466   5.749   1.667   4.772  1.0293 -1.5126 -0.4402
  722MOL0     H97467   6.013   0.769   5.224  0.2177  0.0336  0.1348
  722MOL0     H97468   5.833   0.493   5.102 -4.2359 -1.0605  1.3912
  722MOL0     H97469   5.931   0.554   5.218 -1.5221 -0.0890  1.3457
  722MOL0     H97470   5.751   0.591   5.215 -0.6230 -0.9861 -1.0496
  723MOL0     O97471  10.070   5.416   8.274 -0.3682 -0.3029 -0.2864
  723MOL0     C97472   9.989   5.447   8.184 -0.7441 -0.2770  0.5317
  723MOL0     O97473  10.024   5.473   8.056  0.4222  0.3098 -0.1892
  723MOL0     C97474  10.151   5.521   8.021  1.0353  1.4299  0.3102
  723MOL0     C97475  10.193   5.484   7.892  0.8733 -0.2606  0.5062
  723MOL0     C97476  10.305   5.542   7.836 -0.1067  0.7187  0.1733
  723MOL0     C97477  10.389   5.623   7.912 -0.0403  0.2245  0.3941
  723MOL0     O97478  10.505   5.678   7.863 -0.2403  0.2634  0.2443
  723MOL0     C97479  10.602   5.584   7.787  0.9251 -1.0251  0.8918
  723MOL0     C97480  10.709   5.671   7.724 -0.3309 -0.0226  1.0923
  723MOL0     C97481  10.798   5.593   7.622 -0.7369 -0.6863  0.8049
  723MOL0     C97482  10.920   5.532   7.688 -0.2819  0.0531  0.0753
  723MOL0     C97483  11.008   5.446   7.597 -0.5932  0.8340  1.1129
  723MOL0     C97484  11.061   5.315   7.660 -0.4267 -0.2041  0.2717
  723MOL0     C97485  11.166   5.245   7.571 -0.3770  0.2004  0.3894
  723MOL0     C97486  11.238   5.137   7.657  0.3099 -0.2245 -0.2669
  723MOL0     N97487  11.140   5.033   7.710 -1.0494 -0.0613  0.2298
  723MOL0     C97488  11.150   4.957   7.823  0.5409 -0.1588 -0.7077
  723MOL0     C97489  11.057   4.853   7.809 -0.5252 -0.5381  0.1106
  723MOL0     C97490  11.031   4.744   7.899  0.2809  0.5569  0.8264
  723MOL0     C97491  11.001   4.782   8.041 -0.3519 -0.0283  0.0825
  723MOL0     C97492  10.904   4.899   8.051 -0.0012 -1.3868  0.3182
  723MOL0     C97493  10.828   4.923   8.184 -0.1012  0.3744  0.7150
  723MOL0     O97494  10.925   4.970   8.276  0.5729  0.0867  0.0423
  723MOL0     C97495  10.881   5.011   8.405 -0.3597  0.6677 -0.1491
  723MOL0     C97496  10.775   4.941   8.464  0.0098 -0.9358  0.7808
  723MOL0     C97497  10.744   4.959   8.598  0.4696  0.1116 -1.1292
  723MOL0     C97498  10.806   5.062   8.678  0.5806  0.4803  0.0212
  723MOL0     C97499  10.761   5.098   8.813  0.0725 -0.2582  0.5945
  723MOL0     O97500  10.807   5.209   8.878 -0.4486  0.1227  0.7074
  723MOL0     C97501  10.769   5.231   9.010 -0.0579  1.0184 -0.1687
  723MOL0     C97502  10.647   5.286   9.039 -0.2735  0.1899 -0.2971
  723MOL0     C97503  10.633   5.329   9.175  1.3888  0.0175 -0.1015
  723MOL0     C97504  10.734   5.313   9.276  0.4883  0.2169 -0.6973
  723MOL0     O97505  10.724   5.371   9.400 -0.3062  0.6186  0.3195
  723MOL0     C97506  10.598   5.419   9.452  0.7282  1.3164  0.5736
  723MOL0     C97507  10.500   5.299   9.480 -0.0443  0.2594  0.7989
  723MOL0     C97508  10.552   5.211   9.590  0.1249  0.5257  0.3432
  723MOL0     C97509  10.439   5.127   9.632  0.6812  0.3198  0.3938
  723MOL0     C97510  10.474   5.039   9.751  0.8887  0.0571  0.6729
  723MOL0     C97511  10.349   4.959   9.806  0.0103 -0.3203  0.2501
  723MOL0     C97512  10.398   4.880   9.926 -1.4431 -0.7528 -0.5959
  723MOL0     C97513  10.277   4.818   9.990  0.3156 -0.4835 -0.6072
  723MOL0    Cl97514  10.197   4.716   9.872 -0.2638 -0.2114  0.3112
  723MOL0     C97515  10.842   5.239   9.244 -0.3108 -0.5716 -0.5021
  723MOL0     C97516  10.863   5.205   9.111  0.2262  0.0149  0.6609
  723MOL0     O97517  10.666   5.034   8.862 -0.4842  0.4973  0.3767
  723MOL0     C97518  10.907   5.123   8.613 -0.5840 -0.7528 -0.9161
  723MOL0     C97519  10.950   5.102   8.479  0.8838 -0.2843 -0.2800
  723MOL0     N97520  10.986   4.885   7.693 -0.0561  0.7946 -0.6103
  723MOL0     N97521  11.034   4.992   7.638 -0.7812  0.6611  0.2192
  723MOL0     C97522  10.345   5.662   8.037  0.4769 -0.1910 -0.0034
  723MOL0     C97523  10.229   5.613   8.097  0.9845  1.3602  1.0312
  723MOL0     C97524   9.852   5.435   8.216 -0.0834 -0.7944  0.5734
  723MOL0     C97525   9.764   5.465   8.116  0.2932  0.2154 -0.8327
  723MOL0     C97526   9.621   5.473   8.130 -1.0961 -0.0997  0.5286
  723MOL0     C97527   9.568   5.437   8.254  0.0931  0.1095  0.0891
  723MOL0     O97528   9.430   5.448   8.265  0.2625  0.0597  0.8386
  723MOL0     C97529   9.366   5.465   8.395  0.4785  0.2260  0.5657
  723MOL0     C97530   9.213   5.429   8.388  1.0155 -0.1219 -0.3931
  723MOL0     C97531   9.126   5.469   8.517  0.8360  0.7131 -0.0866
  723MOL0     C97532   9.152   5.382   8.643 -0.7408  0.2027 -0.2878
  723MOL0     C97533   9.083   5.262   8.669 -0.0018  0.5925 -0.6781
  723MOL0     C97534   9.007   5.166   8.689 -0.4469  0.5010  0.1530
  723MOL0     C97535   9.657   5.395   8.360  0.0456  0.0962  0.1622
  723MOL0     C97536   9.793   5.393   8.340  0.3825 -1.1536 -0.5411
  723MOL0     C97537   9.869   5.325   8.450 -0.4539  0.0838  0.5532
  723MOL0     H97538  10.141   5.412   7.829 -0.2096 -0.6544  1.8006
  723MOL0     H97539  10.325   5.510   7.735 -1.5748 -1.1533  0.4289
  723MOL0     H97540  10.652   5.509   7.848 -0.0048 -1.1239  1.5507
  723MOL0     H97541  10.548   5.538   7.703 -0.8826  1.4029  0.5925
  723MOL0     H97542  10.769   5.712   7.806  1.3115 -3.0137  1.5446
  723MOL0     H97543  10.656   5.751   7.673 -0.1973 -1.2309 -1.0512
  723MOL0     H97544  10.823   5.663   7.542 -0.7265 -4.2567 -2.6170
  723MOL0     H97545  10.725   5.519   7.587 -1.4829  0.1895  0.4899
  723MOL0     H97546  10.978   5.616   7.727  0.4332 -0.8947  1.1170
  723MOL0     H97547  10.876   5.480   7.773  1.0131  0.0857  0.7854
  723MOL0     H97548  10.972   5.431   7.495  0.3701 -0.0490  0.8791
  723MOL0     H97549  11.099   5.505   7.581  1.7173 -2.8544 -0.7801
  723MOL0     H97550  11.100   5.348   7.756  1.5010  1.3848 -0.9669
  723MOL0     H97551  10.985   5.238   7.676  0.1230 -0.5982  1.0736
  723MOL0     H97552  11.241   5.323   7.553  0.3487 -0.3039  1.1170
  723MOL0     H97553  11.129   5.197   7.481  2.0255  3.9141 -2.8908
  723MOL0     H97554  11.334   5.104   7.615 -1.2445 -1.4485 -3.1450
  723MOL0     H97555  11.260   5.189   7.751 -3.5342  2.1248 -0.4704
  723MOL0     H97556  11.220   4.958   7.906 -2.6865 -0.6590  2.2457
  723MOL0     H97557  10.944   4.688   7.862  0.0776 -0.8454  3.2015
  723MOL0     H97558  11.120   4.682   7.902  0.0747  0.2699  0.9985
  723MOL0     H97559  10.957   4.693   8.088 -1.8414  1.3693  1.4634
  723MOL0     H97560  11.088   4.800   8.104  0.2657  0.6489 -0.9361
  723MOL0     H97561  10.827   4.879   7.975  1.2466 -2.7898 -0.6515
  723MOL0     H97562  10.953   4.991   8.020 -3.7675 -0.0732 -2.6163
  723MOL0     H97563  10.785   4.828   8.217  0.6958 -0.5921 -0.9174
  723MOL0     H97564  10.750   4.997   8.169 -1.5245 -1.4321 -1.5060
  723MOL0     H97565  10.727   4.863   8.406  2.4399 -1.7569 -0.2748
  723MOL0     H97566  10.663   4.905   8.645 -1.3956  2.7595 -1.0747
  723MOL0     H97567  10.568   5.295   8.965 -0.3497  0.9671 -0.1335
  723MOL0     H97568  10.546   5.387   9.202 -0.2075 -0.2395 -4.0737
  723MOL0     H97569  10.611   5.476   9.545  3.2444  1.7964 -0.0057
  723MOL0     H97570  10.554   5.497   9.390  1.4947  0.4430 -1.1288
  723MOL0     H97571  10.403   5.344   9.503 -0.4757  0.1385 -0.6505
  723MOL0     H97572  10.503   5.235   9.391  5.0642  1.0320  0.0837
  723MOL0     H97573  10.635   5.154   9.548 -1.8924 -2.8062  0.5428
  723MOL0     H97574  10.589   5.264   9.678 -0.9127 -0.2926  1.3010
  723MOL0     H97575  10.411   5.053   9.556 -1.3192  0.4933  0.8949
  723MOL0     H97576  10.352   5.183   9.668  0.9124 -0.4170  2.2002
  723MOL0     H97577  10.521   5.098   9.831  0.3451  1.5366 -0.0689
  723MOL0     H97578  10.547   4.964   9.719 -0.1924 -0.0890 -1.5994
  723MOL0     H97579  10.268   5.030   9.826 -0.8389 -0.3792 -2.6014
  723MOL0     H97580  10.311   4.901   9.722  1.1682  0.5609 -0.9243
  723MOL0     H97581  10.454   4.948   9.990  3.0078 -2.5327 -2.1838
  723MOL0     H97582  10.459   4.797   9.891  0.0134  0.5308 -1.2005
  723MOL0     H97583  10.312   4.747  10.066  1.4459 -0.0934 -0.7527
  723MOL0     H97584  10.214   4.893  10.038  0.5919 -1.5434  1.5333
  723MOL0     H97585  10.912   5.216   9.323 -0.8427  1.1375  0.5144
  723MOL0     H97586  10.958   5.157   9.088  1.1305 -0.6231  4.8292
  723MOL0     H97587  10.965   5.200   8.663 -0.1933 -0.7819 -1.3145
  723MOL0     H97588  11.036   5.153   8.437 -1.0716  2.3485 -1.4491
  723MOL0     H97589  10.400   5.737   8.095  2.5349 -2.2640  0.8840
  723MOL0     H97590  10.206   5.638   8.200 -1.5408 -1.1840  1.2036
  723MOL0     H97591   9.810   5.501   8.025  0.0394  1.3760 -0.5272
  723MOL0     H97592   9.549   5.500   8.054 -2.4736  1.1758  2.2016
  723MOL0     H97593   9.375   5.572   8.416 -1.1612  0.6934 -0.8620
  723MOL0     H97594   9.412   5.407   8.475  4.9859  1.7506 -0.6330
  723MOL0     H97595   9.204   5.326   8.351 -0.7885  0.2339 -1.0057
  723MOL0     H97596   9.177   5.492   8.306  3.2878 -0.3220 -1.6409
  723MOL0     H97597   9.023   5.453   8.482  1.2103  1.6819 -1.7087
  723MOL0     H97598   9.142   5.576   8.532 -0.9135  0.8408  1.2692
  723MOL0     H97599   9.256   5.354   8.625  0.0406  0.5544  3.0349
  723MOL0     H97600   9.145   5.447   8.731  1.0007  0.8277 -0.5707
  723MOL0     H97601   8.941   5.083   8.702 -1.8845  1.7198  0.9199
  723MOL0     H97602   9.615   5.364   8.455  1.3985 -0.4200  0.6247
  723MOL0     H97603   9.810   5.295   8.537 -0.4908  0.0404  0.5133
  723MOL0     H97604   9.920   5.235   8.413 -1.6731  0.4402 -2.2502
  723MOL0     H97605   9.939   5.400   8.488  1.3725 -0.7244 -1.0540
  724MOL0     O97606   9.866   2.664   5.280 -1.0358 -0.4838 -0.5114
  724MOL0     C97607   9.906   2.721   5.379 -0.4379  0.7480 -0.5621
  724MOL0     O97608   9.835   2.726   5.498 -0.4736  0.0346  0.4311
  724MOL0     C97609   9.699   2.697   5.512 -0.6451 -0.6889  0.7806
  724MOL0     C97610   9.604   2.701   5.409  0.0301  1.0178 -0.2005
  724MOL0     C97611   9.467   2.682   5.440  0.1936  0.5992  0.3071
  724MOL0     C97612   9.424   2.651   5.569 -0.7362  0.4297 -1.2861
  724MOL0     O97613   9.290   2.621   5.576  0.6327  0.4743 -0.1730
  724MOL0     C97614   9.236   2.569   5.698  0.0758  0.3983 -0.0736
  724MOL0     C97615   9.086   2.547   5.693  0.3093 -0.0905 -0.2647
  724MOL0     C97616   9.041   2.462   5.817  0.2306  0.2234  0.0496
  724MOL0     C97617   8.895   2.492   5.866  0.1828 -0.3861  0.2383
  724MOL0     C97618   8.802   2.458   5.752 -0.4089  0.0471  0.4506
  724MOL0     C97619   8.653   2.485   5.790  0.2100 -0.0551  0.3328
  724MOL0     C97620   8.560   2.473   5.661 -0.6678 -0.2134  0.8792
  724MOL0     C97621   8.427   2.545   5.683  0.8617  0.6702  0.0815
  724MOL0     N97622   8.338   2.491   5.789 -0.3037  0.1615  0.6190
  724MOL0     C97623   8.288   2.365   5.805 -0.3165 -0.9720  0.0840
  724MOL0     C97624   8.192   2.379   5.894  0.1022 -0.0848  1.3403
  724MOL0     C97625   8.111   2.278   5.961  0.4651  1.6671  0.5294
  724MOL0     C97626   8.168   2.246   6.096 -1.0170 -1.1885 -0.0783
  724MOL0     C97627   8.090   2.133   6.173 -0.0241 -0.4732 -1.0474
  724MOL0     C97628   7.950   2.163   6.226 -1.1208 -0.5980 -0.1689
  724MOL0     O97629   7.866   2.058   6.260  0.5773 -0.1331  0.2411
  724MOL0     C97630   7.798   1.996   6.158  0.3342 -0.2946  0.3790
  724MOL0     C97631   7.802   2.020   6.022 -0.5548 -0.3529  0.4782
  724MOL0     C97632   7.717   1.952   5.935 -1.2222 -0.9553  0.5663
  724MOL0     C97633   7.626   1.855   5.985 -0.2275 -0.4567 -0.0823
  724MOL0     C97634   7.528   1.785   5.899 -0.2988  0.2350 -0.0947
  724MOL0     O97635   7.410   1.749   5.951 -0.2694  0.0931  0.2071
  724MOL0     C97636   7.313   1.718   5.869 -0.5579  0.1694 -0.0844
  724MOL0     C97637   7.307   1.601   5.805 -0.7114  0.0274  0.2059
  724MOL0     C97638   7.208   1.583   5.704 -0.8465 -0.1958  0.7109
  724MOL0     C97639   7.101   1.671   5.685  0.2754 -0.2785 -0.0195
  724MOL0     O97640   7.000   1.629   5.599 -0.4864  0.7820  0.2669
  724MOL0     C97641   6.893   1.709   5.568 -0.3338  0.3764  0.5726
  724MOL0     C97642   6.782   1.646   5.486 -0.6466  0.0655  0.7770
  724MOL0     C97643   6.682   1.744   5.478  0.8889  0.2351  0.4760
  724MOL0     C97644   6.552   1.679   5.411 -0.1671  0.2483  0.4266
  724MOL0     C97645   6.431   1.763   5.426 -0.2465  0.4382  0.4450
  724MOL0     C97646   6.327   1.728   5.320 -0.9329 -0.1103  0.4213
  724MOL0     C97647   6.204   1.819   5.340 -0.3327 -0.6358 -0.1959
  724MOL0     C97648   6.113   1.794   5.221  0.6890 -0.3337 -0.3388
  724MOL0    Cl97649   6.165   1.861   5.070 -0.2671  0.0222  0.2762
  724MOL0     C97650   7.112   1.794   5.756  0.8778  0.4057  1.0777
  724MOL0     C97651   7.212   1.814   5.854  0.8711 -0.2090  0.8464
  724MOL0     O97652   7.555   1.791   5.780  0.0316 -0.6197 -0.1130
  724MOL0     C97653   7.622   1.836   6.121  1.1641 -0.0922  0.2406
  724MOL0     C97654   7.715   1.896   6.203  0.5661 -0.3810 -0.4074
  724MOL0     N97655   8.194   2.509   5.936 -0.4865  0.3958  0.3697
  724MOL0     N97656   8.278   2.583   5.876  0.1806 -0.8370  0.6630
  724MOL0     C97657   9.518   2.647   5.676 -0.7230  0.2473  0.2424
  724MOL0     C97658   9.656   2.666   5.640 -0.2909 -0.1439  0.6588
  724MOL0     C97659  10.042   2.769   5.387 -0.2875 -0.7386  0.3885
  724MOL0     C97660  10.076   2.867   5.487  0.4250  0.5391  0.6627
  724MOL0     C97661  10.203   2.921   5.507  0.2560 -0.9012  0.9637
  724MOL0     C97662  10.311   2.869   5.438 -0.1853  0.4653 -0.1388
  724MOL0     O97663  10.440   2.908   5.439 -0.0550 -0.2474 -0.0036
  724MOL0     C97664  10.477   3.017   5.513  0.3774 -0.1660  0.8541
  724MOL0     C97665  10.634   3.013   5.502  0.5593 -0.8049 -0.9313
  724MOL0     C97666  10.681   3.134   5.587  0.3730 -0.5851 -0.7483
  724MOL0     C97667  10.833   3.122   5.575 -0.0921  0.4191 -0.4909
  724MOL0     C97668  10.895   3.210   5.675  0.4765 -0.2809 -0.9478
  724MOL0     C97669  10.946   3.276   5.757  0.2353 -0.1884 -0.5208
  724MOL0     C97670  10.284   2.765   5.335 -0.0483 -0.8103 -0.1999
  724MOL0     C97671  10.153   2.710   5.316 -0.2096  0.1165  0.8412
  724MOL0     C97672  10.146   2.602   5.205  0.7002  0.3412 -0.6443
  724MOL0     H97673   9.634   2.721   5.306  0.8925  1.9223  0.2066
  724MOL0     H97674   9.400   2.674   5.355  1.6960 -0.9214 -0.7892
  724MOL0     H97675   9.297   2.485   5.731 -2.0788 -0.7834  1.0981
  724MOL0     H97676   9.250   2.640   5.780  3.1402 -0.1734  0.0390
  724MOL0     H97677   9.066   2.486   5.604 -0.2899 -0.3883  0.0715
  724MOL0     H97678   9.041   2.647   5.685 -0.7059 -0.4763  0.4594
  724MOL0     H97679   9.105   2.483   5.903  0.1530  0.8888 -0.0537
  724MOL0     H97680   9.051   2.355   5.794 -2.1034  0.4752 -2.6395
  724MOL0     H97681   8.876   2.427   5.952 -1.3788  0.0922  0.2930
  724MOL0     H97682   8.883   2.597   5.894  0.5007 -0.0560 -0.8384
  724MOL0     H97683   8.823   2.524   5.667 -0.2301 -1.7916 -1.0116
  724MOL0     H97684   8.803   2.352   5.726 -0.7508 -0.0052  0.6446
  724MOL0     H97685   8.624   2.417   5.870  0.1514  3.2396  3.3875
  724MOL0     H97686   8.653   2.584   5.837  0.5637 -0.1150  0.4638
  724MOL0     H97687   8.552   2.370   5.627  0.2006  0.1359 -0.4742
  724MOL0     H97688   8.615   2.525   5.582  0.2635  0.6816  2.0607
  724MOL0     H97689   8.462   2.645   5.711  1.7762  0.9209 -1.7775
  724MOL0     H97690   8.374   2.544   5.588  0.5784 -1.1712  0.2142
  724MOL0     H97691   8.316   2.275   5.750 -0.5816 -1.5472  0.8756
  724MOL0     H97692   8.010   2.319   5.974 -0.2263 -0.2466  1.4462
  724MOL0     H97693   8.104   2.184   5.906  3.1290  0.5378  1.9822
  724MOL0     H97694   8.274   2.224   6.081 -0.3778  1.9263 -0.7624
  724MOL0     H97695   8.167   2.342   6.150  1.6764 -0.9085 -0.3669
  724MOL0     H97696   8.155   2.128   6.261  0.2627  1.5912 -1.0954
  724MOL0     H97697   8.091   2.042   6.112  2.4213 -1.2902  0.0743
  724MOL0     H97698   7.901   2.227   6.152  1.1484  1.4686 -0.0396
  724MOL0     H97699   7.958   2.238   6.306 -0.5151  1.7845 -2.3267
  724MOL0     H97700   7.870   2.093   5.979 -1.2872  1.4873  2.2892
  724MOL0     H97701   7.725   1.971   5.829  0.6309 -0.0528  0.8202
  724MOL0     H97702   7.388   1.531   5.824  1.4788  2.5828  0.9672
  724MOL0     H97703   7.208   1.489   5.650 -2.4241 -0.8232  1.7293
  724MOL0     H97704   6.853   1.745   5.663  0.8525 -0.5279  1.4439
  724MOL0     H97705   6.931   1.800   5.520  1.9136 -1.4030 -1.2750
  724MOL0     H97706   6.815   1.604   5.391 -1.6705 -2.0169  1.2693
  724MOL0     H97707   6.736   1.564   5.542 -3.2282  0.8757 -0.0299
  724MOL0     H97708   6.639   1.779   5.572 -3.1276 -1.6421 -0.4550
  724MOL0     H97709   6.717   1.835   5.427  1.2754  0.1055  0.4982
  724MOL0     H97710   6.529   1.585   5.461  2.0747  1.1753  3.5633
  724MOL0     H97711   6.583   1.666   5.307  1.6056 -0.8633  1.0487
  724MOL0     H97712   6.453   1.870   5.419 -0.4356  0.5813  1.7844
  724MOL0     H97713   6.385   1.759   5.525  0.7525 -1.2425  0.8744
  724MOL0     H97714   6.371   1.728   5.220 -0.3285  1.0621  0.6743
  724MOL0     H97715   6.294   1.625   5.339  1.6743 -1.3467 -1.2432
  724MOL0     H97716   6.226   1.925   5.330  1.9580 -1.1679 -1.4685
  724MOL0     H97717   6.149   1.800   5.433 -0.6893 -0.5125 -0.3821
  724MOL0     H97718   6.087   1.688   5.212  1.1262 -0.7963  2.7063
  724MOL0     H97719   6.018   1.842   5.249  1.1562  0.1804  0.3904
  724MOL0     H97720   7.037   1.872   5.746  1.0545  0.4478 -0.0788
  724MOL0     H97721   7.220   1.912   5.900 -0.6497  1.2664 -1.7254
  724MOL0     H97722   7.555   1.756   6.152  0.8543  0.2231  0.3961
  724MOL0     H97723   7.709   1.841   6.297  0.3595 -1.5973 -1.1227
  724MOL0     H97724   9.484   2.635   5.778 -1.4976  0.3715  0.0025
  724MOL0     H97725   9.722   2.667   5.726  0.7658  0.2237 -0.1237
  724MOL0     H97726   9.990   2.914   5.532  0.1354 -0.9592  1.7478
  724MOL0     H97727  10.202   3.001   5.580 -0.9646  1.5567 -1.5214
  724MOL0     H97728  10.443   3.009   5.617 -2.6950  0.9257  0.0633
  724MOL0     H97729  10.435   3.105   5.463  1.5356 -1.0615 -1.8852
  724MOL0     H97730  10.670   3.033   5.401  4.6236 -0.5661  0.3907
  724MOL0     H97731  10.687   2.925   5.539 -0.6398 -1.4637 -0.7113
  724MOL0     H97732  10.646   3.142   5.690 -1.2313  1.9527 -1.4020
  724MOL0     H97733  10.656   3.225   5.532  2.4494  0.3138 -0.3253
  724MOL0     H97734  10.862   3.022   5.609 -1.9565 -0.2321 -0.6919
  724MOL0     H97735  10.874   3.130   5.474  0.1436 -1.4008 -0.5727
  724MOL0     H97736  10.995   3.333   5.834 -1.0178  0.2847 -0.0461
  724MOL0     H97737  10.377   2.743   5.284 -0.0258 -1.0154 -0.0707
  724MOL0     H97738  10.087   2.517   5.241  0.2201  1.9086  2.5911
  724MOL0     H97739  10.093   2.657   5.127 -0.8149  1.8161  1.3512
  724MOL0     H97740  10.246   2.560   5.188  0.6803  0.6515 -1.5873
  725MOL0     O97741   9.186   1.940   8.720  0.4600 -0.7035 -0.3100
  725MOL0     C97742   9.089   1.889   8.662  0.7996  0.4535  0.3667
  725MOL0     O97743   9.082   1.752   8.625 -0.8699  0.0452 -0.3235
  725MOL0     C97744   9.196   1.670   8.645  0.5929  0.2565 -0.1758
  725MOL0     C97745   9.336   1.698   8.634  0.3601 -0.0383  0.1931
  725MOL0     C97746   9.430   1.592   8.642  0.0076  0.2847  0.8909
  725MOL0     C97747   9.393   1.458   8.653 -0.1780  0.5506 -1.4030
  725MOL0     O97748   9.487   1.361   8.645  0.0109 -0.0709  0.7306
  725MOL0     C97749   9.435   1.222   8.631 -0.6764 -0.8972  0.8125
  725MOL0     C97750   9.548   1.137   8.604  0.0489  0.4074  0.0039
  725MOL0     C97751   9.505   0.989   8.598 -0.0091 -0.0134  0.3352
  725MOL0     C97752   9.578   0.907   8.489  0.7399  0.5095  0.0356
  725MOL0     C97753   9.512   0.771   8.463  0.1798  0.5188 -0.1763
  725MOL0     C97754   9.631   0.674   8.426  0.0645 -0.8965  0.9119
  725MOL0     C97755   9.582   0.524   8.442 -0.2635 -0.0795 -0.2892
  725MOL0     C97756   9.503   0.451   8.338  0.2446 -0.3508  0.0728
  725MOL0     N97757   9.573   0.446   8.211  0.1740  0.3525  0.0298
  725MOL0     C97758   9.701   0.415   8.183  0.7552  0.6960 -0.0128
  725MOL0     C97759   9.714   0.444   8.049 -0.9767  0.3104 -0.9292
  725MOL0     C97760   9.841   0.424   7.968 -0.5242  0.2104 -0.0367
  725MOL0     C97761   9.903   0.551   7.928  0.4828 -0.0788  0.4245
  725MOL0     C97762   9.938   0.647   8.047  0.6644 -0.2225 -0.3050
  725MOL0     C97763  10.028   0.746   7.992 -1.0251 -0.8005 -0.4047
  725MOL0     O97764  10.160   0.691   7.962 -0.0899 -0.3335 -0.2720
  725MOL0     C97765  10.247   0.766   7.872  0.2527  0.3825 -0.4990
  725MOL0     C97766  10.366   0.702   7.834 -0.5620 -0.4872  0.3776
  725MOL0     C97767  10.448   0.747   7.731 -0.1906  0.2418  0.5285
  725MOL0     C97768  10.416   0.861   7.652  0.9172 -0.4911 -0.2055
  725MOL0     C97769  10.478   0.897   7.521 -0.1883 -0.6142 -0.0772
  725MOL0     O97770  10.592   0.839   7.476  0.6382 -0.1936  0.3882
  725MOL0     C97771  10.640   0.886   7.359 -0.3114 -0.4550  0.5858
  725MOL0     C97772  10.588   0.844   7.228 -0.0216  0.5656 -0.8362
  725MOL0     C97773  10.640   0.902   7.109  0.2873 -0.3788  0.5285
  725MOL0     C97774  10.725   1.012   7.110 -0.8925  0.3697  0.3762
  725MOL0     O97775  10.762   1.067   6.992  0.2262 -0.3784 -0.0539
  725MOL0     C97776  10.793   1.205   6.992  0.1896 -0.3984  0.0203
  725MOL0     C97777  10.846   1.242   6.854 -0.0747  0.0885  0.0140
  725MOL0     C97778  10.902   1.381   6.859  0.1496 -0.1415  0.4965
  725MOL0     C97779  10.953   1.418   6.716  0.0820  0.5154 -0.3720
  725MOL0     C97780  11.014   1.562   6.725 -0.3279 -0.5245  0.2467
  725MOL0     C97781  11.074   1.605   6.584  0.6994  0.1799 -1.3520
  725MOL0     C97782  10.960   1.621   6.477 -0.8201 -0.0599  0.2833
  725MOL0     C97783  11.001   1.720   6.366 -0.2298 -0.4961  0.4034
  725MOL0    Cl97784  10.864   1.705   6.231  0.1472  0.2049  0.0249
  725MOL0     C97785  10.783   1.042   7.235 -0.1296  0.1555 -0.1278
  725MOL0     C97786  10.744   0.979   7.359 -0.2092 -0.4619  0.7879
  725MOL0     O97787  10.416   0.979   7.457 -0.2246  0.4743  0.5749
  725MOL0     C97788  10.298   0.934   7.689 -0.1493 -0.7936 -0.4564
  725MOL0     C97789  10.227   0.885   7.803  0.0615 -0.3312  0.3261
  725MOL0     N97790   9.590   0.497   7.995 -0.2291 -0.1622  0.0765
  725MOL0     N97791   9.514   0.498   8.104  0.8176 -0.2737  1.0593
  725MOL0     C97792   9.259   1.431   8.673  0.6674  1.3944 -1.1301
  725MOL0     C97793   9.162   1.537   8.671  0.7086  0.2719  0.4366
  725MOL0     C97794   8.989   1.982   8.613 -0.3868  0.4038 -0.6186
  725MOL0     C97795   8.861   1.964   8.665 -0.4338  0.5367 -0.1593
  725MOL0     C97796   8.768   2.053   8.611  0.3643 -1.1442  0.2477
  725MOL0     C97797   8.791   2.152   8.516 -0.4576  0.3287 -0.4438
  725MOL0     O97798   8.705   2.228   8.441 -0.0623  0.5051  0.2379
  725MOL0     C97799   8.565   2.185   8.445 -0.8162  1.6053 -0.1572
  725MOL0     C97800   8.484   2.291   8.387 -0.4405 -1.2134  0.1161
  725MOL0     C97801   8.502   2.301   8.235  0.9605 -0.4538 -0.5036
  725MOL0     C97802   8.381   2.339   8.164 -0.9970  0.4642 -1.0232
  725MOL0     C97803   8.320   2.465   8.214 -0.6817 -0.0136  0.5162
  725MOL0     C97804   8.271   2.568   8.258 -0.4081  0.4379 -0.4365
  725MOL0     C97805   8.924   2.156   8.466 -0.4057 -0.0390 -0.3893
  725MOL0     C97806   9.023   2.080   8.523  1.0393  0.2978  0.8817
  725MOL0     C97807   9.161   2.095   8.462  0.7500 -0.5113 -1.1460
  725MOL0     H97808   9.377   1.790   8.594  0.4341 -1.3664 -3.1399
  725MOL0     H97809   9.531   1.625   8.623 -1.0918  2.5807 -1.5797
  725MOL0     H97810   9.397   1.195   8.731 -1.1791 -3.5823 -0.0239
  725MOL0     H97811   9.354   1.214   8.558  2.5364  0.7935 -3.3400
  725MOL0     H97812   9.611   1.137   8.693  0.4245 -0.1144 -0.2573
  725MOL0     H97813   9.597   1.184   8.518  0.1294  2.2131  0.9831
  725MOL0     H97814   9.401   0.990   8.564  0.9768 -0.8439 -3.1943
  725MOL0     H97815   9.518   0.950   8.699 -1.1558 -0.8304  0.1855
  725MOL0     H97816   9.560   0.960   8.395 -0.2615 -2.1108 -1.3502
  725MOL0     H97817   9.681   0.897   8.523 -0.3929 -2.7001  3.1761
  725MOL0     H97818   9.475   0.733   8.559  0.2572 -0.9740 -0.7088
  725MOL0     H97819   9.434   0.763   8.387  1.0217  0.5121 -1.0645
  725MOL0     H97820   9.668   0.695   8.325  0.3358  3.1552  1.7069
  725MOL0     H97821   9.717   0.686   8.493  1.6258  1.3784 -1.2892
  725MOL0     H97822   9.518   0.529   8.530 -1.8315  3.5882 -1.4479
  725MOL0     H97823   9.674   0.480   8.481  0.4196  2.2979  0.9732
  725MOL0     H97824   9.454   0.359   8.370 -1.8835 -0.1676 -2.3332
  725MOL0     H97825   9.416   0.515   8.319 -0.2501 -0.9950  0.1485
  725MOL0     H97826   9.781   0.383   8.248 -0.9158  1.1708  2.3887
  725MOL0     H97827   9.918   0.374   8.029  2.1898  0.8338 -2.7103
  725MOL0     H97828   9.830   0.349   7.890 -1.4404 -2.8400  2.7924
  725MOL0     H97829   9.982   0.533   7.855  0.5596  3.1387 -0.4422
  725MOL0     H97830   9.822   0.595   7.868 -1.5013 -2.4796  1.1595
  725MOL0     H97831   9.995   0.586   8.119 -0.5827 -2.0687 -0.7967
  725MOL0     H97832   9.850   0.690   8.095  1.6032  0.6312  0.7019
  725MOL0     H97833  10.038   0.837   8.052 -3.6085 -1.8295  1.7761
  725MOL0     H97834   9.985   0.793   7.904 -2.2066  1.5581  1.3318
  725MOL0     H97835  10.377   0.606   7.883 -3.9896 -2.2321 -1.8726
  725MOL0     H97836  10.541   0.691   7.727  0.0038  0.6183 -0.3472
  725MOL0     H97837  10.505   0.774   7.232 -0.4571  0.8755 -3.2406
  725MOL0     H97838  10.625   0.877   7.004 -0.4992  1.1555  0.2371
  725MOL0     H97839  10.710   1.265   7.030 -0.2500 -1.5067  0.8790
  725MOL0     H97840  10.880   1.230   7.053  0.8113 -0.2331 -0.9191
  725MOL0     H97841  10.921   1.170   6.821 -0.0704  0.2589 -0.3567
  725MOL0     H97842  10.773   1.228   6.774 -0.0295  1.2291 -0.2516
  725MOL0     H97843  10.820   1.450   6.881 -0.5729 -1.6091  2.7366
  725MOL0     H97844  10.974   1.385   6.941 -1.6433  3.0115  2.1045
  725MOL0     H97845  10.872   1.412   6.643  0.8151  0.2090 -1.1780
  725MOL0     H97846  11.025   1.345   6.678  0.3438 -1.2047  2.9928
  725MOL0     H97847  11.100   1.562   6.793  0.1483 -1.0746 -0.3430
  725MOL0     H97848  10.940   1.636   6.758  0.2338  1.3041 -2.3464
  725MOL0     H97849  11.132   1.694   6.610  1.4264 -0.4066 -0.9513
  725MOL0     H97850  11.146   1.529   6.554  0.2491 -0.7730 -0.0915
  725MOL0     H97851  10.874   1.659   6.534  1.0775  2.1384  1.8838
  725MOL0     H97852  10.935   1.521   6.439 -0.7748  0.2820 -0.6648
  725MOL0     H97853  11.014   1.824   6.396  3.9183 -0.5831 -0.4699
  725MOL0     H97854  11.094   1.691   6.316 -1.3336 -0.7868 -1.5847
  725MOL0     H97855  10.857   1.122   7.235 -0.9999  1.0453 -2.1098
  725MOL0     H97856  10.783   1.017   7.453 -0.9719 -0.2255  1.0155
  725MOL0     H97857  10.276   1.023   7.630  2.1682  0.2095  0.0878
  725MOL0     H97858  10.135   0.930   7.838 -1.4468 -3.6643  0.9729
  725MOL0     H97859   9.221   1.329   8.670  0.6765  1.2662  1.3203
  725MOL0     H97860   9.057   1.508   8.675  0.7240  0.3233  1.5152
  725MOL0     H97861   8.850   1.888   8.741 -0.6467  1.2032  0.4895
  725MOL0     H97862   8.676   2.040   8.666 -0.1217  3.1781  0.7885
  725MOL0     H97863   8.525   2.168   8.545 -0.9040 -1.2428 -0.5842
  725MOL0     H97864   8.559   2.093   8.386  2.5351  1.6482 -0.7940
  725MOL0     H97865   8.514   2.388   8.428 -0.4863 -0.7694 -0.8905
  725MOL0     H97866   8.386   2.257   8.421  0.6503 -1.1916  3.6978
  725MOL0     H97867   8.521   2.198   8.204  0.9289 -0.7146  0.3384
  725MOL0     H97868   8.582   2.375   8.223  0.0393  0.8458  0.9933
  725MOL0     H97869   8.400   2.352   8.057 -0.4316 -1.2019 -1.1481
  725MOL0     H97870   8.305   2.261   8.170 -2.2220  1.5233 -2.0122
  725MOL0     H97871   8.235   2.660   8.299 -2.7716 -1.7527  2.8960
  725MOL0     H97872   8.952   2.229   8.391 -0.2660 -1.8339 -2.1953
  725MOL0     H97873   9.170   2.135   8.360  0.9827 -0.5923 -1.1590
  725MOL0     H97874   9.203   2.172   8.527  1.5476 -3.3662  1.9849
  725MOL0     H97875   9.214   1.999   8.465 -0.7417 -1.4096 -1.9403
  726MOL0     O97876   2.702   6.350   6.543  0.3018  0.2929 -0.6848
  726MOL0     C97877   2.627   6.334   6.642 -0.7592  0.0799  0.7460
  726MOL0     O97878   2.550   6.231   6.665  0.7792  0.4113 -0.7966
  726MOL0     C97879   2.517   6.140   6.575  0.0450 -0.3513  0.9378
  726MOL0     C97880   2.557   6.010   6.585  0.6364  0.3366 -0.3208
  726MOL0     C97881   2.520   5.908   6.489 -0.1050 -0.6277  0.5484
  726MOL0     C97882   2.446   5.937   6.375 -0.0898  0.4500  0.2557
  726MOL0     O97883   2.412   5.843   6.271 -0.2158 -0.5884  0.2050
  726MOL0     C97884   2.320   5.880   6.167 -0.3895 -0.4009 -0.8768
  726MOL0     C97885   2.278   5.751   6.083  0.7029 -0.8849  0.4984
  726MOL0     C97886   2.392   5.721   5.988 -0.9776  0.8074  0.2857
  726MOL0     C97887   2.358   5.654   5.852  0.4749 -0.6826  0.0731
  726MOL0     C97888   2.291   5.520   5.863 -0.1200 -0.3696  0.7702
  726MOL0     C97889   2.153   5.492   5.788  0.1360 -0.3728  0.4579
  726MOL0     C97890   2.172   5.499   5.630  0.2267  0.8846 -0.3272
  726MOL0     C97891   2.221   5.366   5.566 -0.2734 -0.2779 -0.3741
  726MOL0     N97892   2.364   5.339   5.568  0.5023 -0.1642 -0.6773
  726MOL0     C97893   2.462   5.427   5.560 -1.1054 -0.3904 -0.7286
  726MOL0     C97894   2.575   5.352   5.597 -0.6618 -0.8853  0.1458
  726MOL0     C97895   2.710   5.398   5.606  0.0678 -0.0846  0.0374
  726MOL0     C97896   2.743   5.483   5.735 -0.1337 -0.3084 -0.8469
  726MOL0     C97897   2.882   5.548   5.710  0.0823  0.1188  0.3239
  726MOL0     C97898   2.941   5.585   5.844  0.0179 -0.5923  0.6152
  726MOL0     O97899   2.861   5.686   5.913 -0.7285  0.0540 -0.3138
  726MOL0     C97900   2.893   5.712   6.041 -0.5764  0.3017  0.0181
  726MOL0     C97901   3.004   5.670   6.110 -0.1910  0.1299  0.8033
  726MOL0     C97902   3.018   5.709   6.238 -0.1247  0.1101 -0.1843
  726MOL0     C97903   2.936   5.798   6.306  0.4265 -0.1346  0.0652
  726MOL0     C97904   2.962   5.834   6.449  0.1312  0.9723 -0.7286
  726MOL0     O97905   2.858   5.836   6.533  0.0225 -0.2600 -0.1639
  726MOL0     C97906   2.886   5.844   6.666 -0.3437  0.0929  0.4842
  726MOL0     C97907   2.870   5.968   6.717 -0.1611 -0.7010 -0.8474
  726MOL0     C97908   2.876   5.983   6.859  0.1317  0.2522  0.2519
  726MOL0     C97909   2.909   5.880   6.940 -0.3557  1.1815 -1.0137
  726MOL0     O97910   2.937   5.899   7.074 -0.2753  0.4320 -0.2810
  726MOL0     C97911   3.044   5.985   7.093 -0.6302 -0.6578 -0.0835
  726MOL0     C97912   3.171   5.916   7.149  0.5730 -0.4769 -0.7395
  726MOL0     C97913   3.210   5.788   7.072  0.1366  0.0434 -0.1137
  726MOL0     C97914   3.275   5.831   6.943 -0.0869 -0.5413  0.0523
  726MOL0     C97915   3.383   5.935   6.952  0.5003 -0.3795  0.0857
  726MOL0     C97916   3.454   5.939   6.820 -0.9153 -0.0384  1.4717
  726MOL0     C97917   3.375   6.016   6.706 -1.2174 -0.5311  0.5894
  726MOL0     C97918   3.453   6.131   6.628 -0.5351  0.3194  0.0315
  726MOL0    Cl97919   3.375   6.225   6.492 -0.5743  0.8344 -0.4657
  726MOL0     C97920   2.926   5.756   6.886 -0.5021  0.2859  0.2525
  726MOL0     C97921   2.918   5.734   6.752  0.1324  0.7044 -0.4123
  726MOL0     O97922   3.080   5.845   6.487 -0.1395  0.3372  0.0553
  726MOL0     C97923   2.822   5.836   6.244  1.0660 -0.1080  0.4789
  726MOL0     C97924   2.803   5.791   6.110  1.1549 -0.2014  0.4587
  726MOL0     N97925   2.534   5.222   5.635  0.1523 -0.3291 -0.0665
  726MOL0     N97926   2.405   5.219   5.612 -0.3470  0.4473 -0.1397
  726MOL0     C97927   2.391   6.069   6.363 -0.5462  0.1310  0.5158
  726MOL0     C97928   2.436   6.164   6.460  1.4589 -0.0881  0.6089
  726MOL0     C97929   2.632   6.437   6.749 -0.0550 -0.1673  0.0886
  726MOL0     C97930   2.672   6.400   6.874 -0.1451 -0.2992 -0.0444
  726MOL0     C97931   2.679   6.493   6.979 -0.5001  0.1248  0.4797
  726MOL0     C97932   2.637   6.625   6.956  0.2990 -0.3664 -0.2197
  726MOL0     O97933   2.641   6.710   7.066 -0.5761 -0.6078 -0.3033
  726MOL0     C97934   2.565   6.828   7.080 -0.6999  0.9136 -0.0479
  726MOL0     C97935   2.580   6.882   7.226 -0.2788  0.5964  0.0133
  726MOL0     C97936   2.729   6.881   7.290  0.2436  0.1185  0.7080
  726MOL0     C97937   2.823   6.983   7.237  1.3546 -0.1356  0.5965
  726MOL0     C97938   2.960   6.957   7.275  0.4638 -0.1058  0.4306
  726MOL0     C97939   3.073   6.956   7.316 -0.8197  0.0680 -0.3498
  726MOL0     C97940   2.594   6.666   6.828  0.4939 -0.6706 -0.0904
  726MOL0     C97941   2.590   6.574   6.723 -0.2021 -0.0574 -1.3980
  726MOL0     C97942   2.571   6.625   6.580  0.1445 -0.4608  0.5495
  726MOL0     H97943   2.609   5.971   6.672  0.3639 -0.8761 -0.6843
  726MOL0     H97944   2.555   5.806   6.505  0.8077 -0.1962  1.4424
  726MOL0     H97945   2.230   5.893   6.228  0.5570 -0.9487  0.6896
  726MOL0     H97946   2.358   5.960   6.103 -0.8829  0.7477  0.2264
  726MOL0     H97947   2.191   5.774   6.020  1.6276  2.6605  0.2717
  726MOL0     H97948   2.262   5.672   6.156  2.1951  1.6335  3.8468
  726MOL0     H97949   2.464   5.660   6.042 -1.6398 -0.2556 -0.0043
  726MOL0     H97950   2.440   5.815   5.958  0.4657 -0.5632 -1.9550
  726MOL0     H97951   2.296   5.728   5.800 -1.7701 -2.4485  0.0788
  726MOL0     H97952   2.445   5.620   5.796  1.1582 -0.9608  1.2690
  726MOL0     H97953   2.367   5.444   5.843  0.1955  0.3614 -0.9903
  726MOL0     H97954   2.263   5.502   5.967  3.5024 -1.2248  1.7333
  726MOL0     H97955   2.114   5.393   5.813 -0.9643 -0.3493 -0.9988
  726MOL0     H97956   2.073   5.564   5.812 -2.0468 -3.2352  2.4376
  726MOL0     H97957   2.242   5.576   5.598  4.4444 -3.4560 -2.9261
  726MOL0     H97958   2.065   5.516   5.611 -0.5095  0.0556  2.5583
  726MOL0     H97959   2.167   5.279   5.606 -0.5167 -0.1289 -0.3762
  726MOL0     H97960   2.213   5.372   5.457  1.6741 -1.4626 -0.6352
  726MOL0     H97961   2.459   5.530   5.525  0.1116 -0.7796 -2.0777
  726MOL0     H97962   2.781   5.315   5.596  2.8758  2.1645 -0.2692
  726MOL0     H97963   2.720   5.460   5.517 -0.2012 -1.0727 -0.6971
  726MOL0     H97964   2.665   5.557   5.757 -1.1644 -0.8620 -2.3994
  726MOL0     H97965   2.739   5.405   5.811 -0.0290  0.1327 -0.3805
  726MOL0     H97966   2.896   5.626   5.635  2.4742 -1.3917 -0.9128
  726MOL0     H97967   2.940   5.463   5.673  0.4809  0.7784 -0.5984
  726MOL0     H97968   3.034   5.638   5.822  0.5180 -1.9979 -0.8923
  726MOL0     H97969   2.955   5.495   5.904 -1.8631 -0.5314  1.2128
  726MOL0     H97970   3.081   5.612   6.060  0.3549  0.3372  1.3890
  726MOL0     H97971   3.106   5.673   6.291  0.0491 -0.6811 -0.9736
  726MOL0     H97972   2.849   6.056   6.658 -0.1763  0.8583  1.3525
  726MOL0     H97973   2.868   6.085   6.894 -0.3934  0.0017  0.8929
  726MOL0     H97974   3.072   6.050   7.010  1.2873 -1.5621 -0.1942
  726MOL0     H97975   3.010   6.058   7.168  0.3207  0.3403 -0.5941
  726MOL0     H97976   3.259   5.978   7.169  1.1220 -1.0540 -1.3131
  726MOL0     H97977   3.152   5.893   7.254  0.5522 -3.9405 -1.3655
  726MOL0     H97978   3.282   5.723   7.123 -0.3593 -2.2911 -2.2147
  726MOL0     H97979   3.124   5.722   7.060  1.3737 -2.0083  1.5549
  726MOL0     H97980   3.194   5.883   6.890 -0.5194  0.4092  1.6022
  726MOL0     H97981   3.300   5.745   6.880 -3.4451 -0.1547 -2.0470
  726MOL0     H97982   3.464   5.908   7.021  1.4571  0.1036 -0.8123
  726MOL0     H97983   3.343   6.034   6.974 -0.3601 -0.7075  0.0442
  726MOL0     H97984   3.550   5.990   6.835  0.6504 -2.5362  0.4418
  726MOL0     H97985   3.479   5.837   6.790 -0.3008  0.4189  0.3746
  726MOL0     H97986   3.289   6.065   6.754 -0.5163  1.5913 -0.1867
  726MOL0     H97987   3.345   5.934   6.640  0.8558 -0.9703  0.1273
  726MOL0     H97988   3.491   6.211   6.692 -1.6021  1.2007 -0.4077
  726MOL0     H97989   3.546   6.092   6.585  2.1240  4.6573  1.1974
  726MOL0     H97990   2.931   5.672   6.954 -1.4924  0.4519  0.5457
  726MOL0     H97991   2.945   5.641   6.702 -2.2300 -0.7016  0.7509
  726MOL0     H97992   2.750   5.892   6.303 -0.4191  0.1671 -1.4575
  726MOL0     H97993   2.720   5.839   6.059 -2.2433 -1.5590  4.1778
  726MOL0     H97994   2.324   6.090   6.280 -0.4487 -0.2422  0.3399
  726MOL0     H97995   2.391   6.262   6.461  3.4844  0.8920  1.5075
  726MOL0     H97996   2.695   6.297   6.900 -0.3792 -0.9221 -2.0926
  726MOL0     H97997   2.715   6.456   7.074  0.3040  2.9052  1.3434
  726MOL0     H97998   2.461   6.804   7.060 -0.6676  0.2110  0.6103
  726MOL0     H97999   2.603   6.899   7.005  0.4788 -1.5153 -1.8717
  726MOL0     H98000   2.514   6.815   7.283 -0.3767  0.4476 -0.2705
  726MOL0     H98001   2.530   6.979   7.227 -1.0963  0.1932 -0.5089
  726MOL0     H98002   2.771   6.781   7.282 -1.7024 -0.6704 -0.3322
  726MOL0     H98003   2.719   6.898   7.397  0.6212  0.3962  0.7018
  726MOL0     H98004   2.825   6.975   7.128  3.0326  0.3896  0.5591
  726MOL0     H98005   2.778   7.077   7.270  2.3107  0.8538 -0.8197
  726MOL0     H98006   3.175   6.932   7.339 -0.0980  1.4962 -1.8094
  726MOL0     H98007   2.571   6.770   6.811 -2.2964 -1.2412 -0.2295
  726MOL0     H98008   2.669   6.622   6.531  1.3024 -0.5382  2.7261
  726MOL0     H98009   2.505   6.555   6.529 -0.2025  0.3109 -0.0751
  726MOL0     H98010   2.521   6.723   6.576  0.4137 -0.3669 -1.3722
  727MOL0     O98011   0.650   8.157   2.710  0.9102  0.4129 -0.1314
  727MOL0     C98012   0.751   8.088   2.740 -0.4852  0.3433 -0.3881
  727MOL0     O98013   0.845   8.057   2.654  0.6489  0.1224 -0.6092
  727MOL0     C98014   0.845   8.123   2.532  0.3518  1.0025  0.2582
  727MOL0     C98015   0.968   8.179   2.483  1.7980  0.3893 -0.3329
  727MOL0     C98016   0.970   8.257   2.362  1.5011  0.3116 -0.0862
  727MOL0     C98017   0.853   8.284   2.289 -0.1628 -0.6034 -0.0371
  727MOL0     O98018   0.876   8.387   2.189  0.4171 -0.4914  0.0885
  727MOL0     C98019   0.769   8.396   2.086  0.0538  0.5532 -0.3247
  727MOL0     C98020   0.770   8.266   1.998  0.0748  0.2027 -0.1407
  727MOL0     C98021   0.714   8.283   1.858  0.6837  0.3549 -0.0115
  727MOL0     C98022   0.559   8.299   1.857  0.2598 -0.0857 -0.0830
  727MOL0     C98023   0.512   8.360   1.725  0.1405  0.5414 -0.5924
  727MOL0     C98024   0.546   8.512   1.701  0.3141 -0.6109 -0.3922
  727MOL0     C98025   0.486   8.609   1.809  0.8970 -1.4243  0.3819
  727MOL0     C98026   0.542   8.746   1.769  0.4021 -0.3512 -0.0690
  727MOL0     N98027   0.679   8.761   1.831  0.7056 -0.1984 -0.9005
  727MOL0     C98028   0.695   8.782   1.967  0.0393 -0.7407  0.1525
  727MOL0     C98029   0.815   8.842   1.981  0.2719  0.6339 -0.2088
  727MOL0     C98030   0.878   8.872   2.113 -0.7668  0.5296  0.6609
  727MOL0     C98031   0.971   8.993   2.109  0.4422  0.5451  0.2355
  727MOL0     C98032   1.054   9.016   2.229  0.4950 -1.0017 -0.7959
  727MOL0     C98033   1.143   9.133   2.234  0.7260  0.1145  0.2828
  727MOL0     O98034   1.066   9.253   2.207  0.3442 -0.4222  0.3416
  727MOL0     C98035   1.124   9.373   2.236  0.2000  0.6560  0.4615
  727MOL0     C98036   1.256   9.389   2.286 -0.3881  0.8575 -0.6721
  727MOL0     C98037   1.311   9.517   2.305 -0.3511 -0.7221  1.0364
  727MOL0     C98038   1.227   9.628   2.284 -0.1617  0.2856 -0.0109
  727MOL0     C98039   1.285   9.772   2.305  0.9086  0.8855  0.2152
  727MOL0     O98040   1.415   9.796   2.323  0.1428 -0.2197  0.3320
  727MOL0     C98041   1.455   9.924   2.301 -0.1329 -0.4254  0.5153
  727MOL0     C98042   1.419  10.000   2.193 -0.4047 -0.5854  0.5349
  727MOL0     C98043   1.474  10.129   2.169 -0.0248  0.1123  0.1449
  727MOL0     C98044   1.570  10.179   2.256 -0.8380 -0.0783  0.5199
  727MOL0     O98045   1.634  10.304   2.228 -0.0462  0.4012  0.2246
  727MOL0     C98046   1.755  10.350   2.293  0.1691  1.1376  0.3713
  727MOL0     C98047   1.794  10.481   2.232 -0.5511 -0.1881 -0.2360
  727MOL0     C98048   1.898  10.539   2.326 -0.0387 -0.3964  0.3512
  727MOL0     C98049   1.971  10.647   2.251 -0.6208 -0.5356  0.4207
  727MOL0     C98050   2.056  10.600   2.134 -0.2985  0.1147 -0.0475
  727MOL0     C98051   2.176  10.692   2.113 -1.2192 -0.2142  0.6561
  727MOL0     C98052   2.248  10.705   1.984  0.2948 -0.4895 -0.0039
  727MOL0     C98053   2.335  10.820   1.965 -0.7133  0.3839  0.5633
  727MOL0    Cl98054   2.473  10.816   2.091 -0.7453 -0.3197 -0.1840
  727MOL0     C98055   1.609  10.098   2.363  0.8149 -0.0292 -0.1356
  727MOL0     C98056   1.548   9.978   2.392 -0.0838  0.8631  0.9941
  727MOL0     O98057   1.194   9.858   2.323  0.3004 -0.0414 -0.8257
  727MOL0     C98058   1.094   9.604   2.247 -0.0730  0.6634 -0.5550
  727MOL0     C98059   1.045   9.484   2.219 -0.3068  0.3023  0.9933
  727MOL0     N98060   0.862   8.864   1.855 -0.1169 -0.0786  0.3254
  727MOL0     N98061   0.784   8.817   1.763  0.2028 -0.5260  0.5247
  727MOL0     C98062   0.741   8.219   2.324  1.2503 -0.6565 -1.3308
  727MOL0     C98063   0.730   8.137   2.442  0.0111  0.0875 -0.3236
  727MOL0     C98064   0.778   8.034   2.876  0.0539 -0.0135 -0.0955
  727MOL0     C98065   0.909   8.000   2.910  0.0008  0.1463  0.2431
  727MOL0     C98066   0.937   7.958   3.043  0.4951 -0.1412  0.5527
  727MOL0     C98067   0.833   7.926   3.141  0.0541  0.2142  0.9444
  727MOL0     O98068   0.857   7.867   3.255 -1.5915  0.0831 -0.1573
  727MOL0     C98069   0.995   7.844   3.295  0.5447  0.1836  0.0442
  727MOL0     C98070   1.067   7.961   3.358 -0.5223 -0.5474  0.2404
  727MOL0     C98071   0.992   8.014   3.480 -0.1959  0.5809  0.0620
  727MOL0     C98072   1.029   8.148   3.532  0.7382  0.0083  0.4073
  727MOL0     C98073   0.934   8.189   3.633  0.4630  0.1709 -0.8389
  727MOL0     C98074   0.872   8.227   3.729  0.2246 -0.0415 -0.4785
  727MOL0     C98075   0.702   7.962   3.109 -0.0314  0.3827  0.9725
  727MOL0     C98076   0.679   8.027   2.979 -0.4738  0.2371 -0.4886
  727MOL0     C98077   0.540   8.079   2.971  0.3608  0.7167 -0.3775
  727MOL0     H98078   1.044   8.158   2.557  0.4451  1.8412  1.5810
  727MOL0     H98079   1.065   8.302   2.335 -1.0388  4.4143 -3.4721
  727MOL0     H98080   0.668   8.403   2.129 -0.5866  0.7731 -1.8111
  727MOL0     H98081   0.788   8.481   2.021 -0.2317 -0.0886 -1.2614
  727MOL0     H98082   0.723   8.176   2.039  0.6367 -1.4123 -2.7632
  727MOL0     H98083   0.872   8.228   1.984  1.6123  2.6918  3.1366
  727MOL0     H98084   0.735   8.191   1.804 -1.2509  0.0082 -0.2333
  727MOL0     H98085   0.765   8.367   1.810  0.0380  1.9158  1.8798
  727MOL0     H98086   0.517   8.199   1.874  2.2721 -0.9569  0.0425
  727MOL0     H98087   0.528   8.370   1.934  3.0333  2.0889 -0.8092
  727MOL0     H98088   0.547   8.292   1.647  0.9435 -3.3162  2.7683
  727MOL0     H98089   0.404   8.344   1.727  0.1643  0.2917  1.3158
  727MOL0     H98090   0.655   8.522   1.702  0.3639  0.5231  4.4119
  727MOL0     H98091   0.502   8.538   1.604 -0.5845 -2.3410 -0.5018
  727MOL0     H98092   0.518   8.584   1.911  1.6260 -2.5140 -0.0942
  727MOL0     H98093   0.377   8.608   1.801  0.9651 -0.6481 -0.7966
  727MOL0     H98094   0.547   8.747   1.660 -0.8243 -0.2506 -0.1414
  727MOL0     H98095   0.464   8.810   1.812  1.8231  0.7335  0.9930
  727MOL0     H98096   0.638   8.743   2.051  1.5822 -0.7872  1.2358
  727MOL0     H98097   0.803   8.902   2.187 -0.6483 -0.5313  1.2355
  727MOL0     H98098   0.944   8.791   2.146  1.8789  2.3936  0.3071
  727MOL0     H98099   1.041   8.984   2.026  0.8601 -1.1205  0.7391
  727MOL0     H98100   0.910   9.079   2.080 -0.0911  0.0435 -0.1546
  727MOL0     H98101   1.097   8.923   2.266 -0.7288 -1.4713 -0.5220
  727MOL0     H98102   0.976   9.046   2.300  3.0203 -0.1697  1.8138
  727MOL0     H98103   1.226   9.128   2.163 -0.5646 -4.6319 -1.2277
  727MOL0     H98104   1.185   9.141   2.335 -2.4599 -1.6451  1.8728
  727MOL0     H98105   1.319   9.302   2.301 -0.5240  0.8114 -0.3612
  727MOL0     H98106   1.412   9.535   2.341 -0.9088 -0.8390  2.7224
  727MOL0     H98107   1.347   9.964   2.120  3.0981 -2.0476 -2.5199
  727MOL0     H98108   1.439  10.189   2.086  1.1568 -2.6683 -2.5830
  727MOL0     H98109   1.743  10.361   2.401  1.2393  1.5690  0.4622
  727MOL0     H98110   1.848  10.296   2.274 -2.1366 -3.6807  1.1980
  727MOL0     H98111   1.831  10.466   2.130  3.5608  1.1818  0.8489
  727MOL0     H98112   1.708  10.549   2.227 -0.7757 -0.0601  3.3227
  727MOL0     H98113   1.847  10.581   2.413 -0.9341  1.2256 -0.8792
  727MOL0     H98114   1.969  10.463   2.360  0.2166 -0.9211 -1.2365
  727MOL0     H98115   2.042  10.701   2.315  2.1176 -1.9476 -1.2494
  727MOL0     H98116   1.898  10.726   2.231  0.4138  0.6544  1.1745
  727MOL0     H98117   1.999  10.585   2.043  0.7945  0.5490 -0.8284
  727MOL0     H98118   2.103  10.503   2.150 -0.9792 -0.4210 -1.2215
  727MOL0     H98119   2.147  10.793   2.144 -0.0172 -0.6010  3.3699
  727MOL0     H98120   2.253  10.680   2.190 -2.0380  0.3196  1.5918
  727MOL0     H98121   2.182  10.707   1.896  2.2568 -0.8948 -1.5554
  727MOL0     H98122   2.295  10.607   1.971 -1.9390 -1.6981  0.4539
  727MOL0     H98123   2.400  10.799   1.880  0.1585 -0.2331  1.3672
  727MOL0     H98124   2.300  10.924   1.960  2.5403  1.5511 -0.2557
  727MOL0     H98125   1.678  10.128   2.442 -4.1748  2.1700  3.9847
  727MOL0     H98126   1.573   9.909   2.472  4.4387  1.4474  0.3403
  727MOL0     H98127   1.029   9.691   2.244 -1.2088 -0.1440  0.1570
  727MOL0     H98128   0.943   9.477   2.183 -0.7947  0.4629  2.3051
  727MOL0     H98129   0.644   8.240   2.280  0.7718 -1.5804 -0.7527
  727MOL0     H98130   0.635   8.087   2.458  2.0039 -3.7438  0.7220
  727MOL0     H98131   0.985   7.981   2.836  1.4592  1.9970  1.2117
  727MOL0     H98132   1.040   7.924   3.045  0.9844  1.1456 -0.6583
  727MOL0     H98133   1.062   7.811   3.215  2.4785  0.2181  1.5587
  727MOL0     H98134   1.004   7.763   3.368  0.2757  0.0550 -0.0654
  727MOL0     H98135   1.070   8.047   3.291  0.7357 -1.2976 -0.7460
  727MOL0     H98136   1.173   7.934   3.369  0.1033  1.5619 -0.3021
  727MOL0     H98137   1.009   7.939   3.558  1.3026  1.0722  0.2374
  727MOL0     H98138   0.887   8.018   3.452  0.2515  3.5698 -1.5394
  727MOL0     H98139   1.129   8.160   3.575  0.2247  2.5422  1.0650
  727MOL0     H98140   1.027   8.217   3.446 -0.3291  0.3532  0.6856
  727MOL0     H98141   0.807   8.247   3.813 -1.1777 -1.9906 -1.0368
  727MOL0     H98142   0.632   7.960   3.192 -2.3859 -2.5021 -0.8654
  727MOL0     H98143   0.470   8.033   3.042 -0.3518  0.4335 -1.2299
  727MOL0     H98144   0.530   8.187   2.986  4.8112  1.3287 -0.7001
  727MOL0     H98145   0.489   8.049   2.879  3.1326 -0.2971 -1.6663
  728MOL0     O98146   4.197   5.128   7.791  0.5443 -0.4706 -0.2759
  728MOL0     C98147   4.228   5.108   7.671  0.3287  0.1394 -0.7161
  728MOL0     O98148   4.137   5.099   7.562 -0.0525  0.6166  0.4732
  728MOL0     C98149   4.011   5.097   7.599 -0.0035 -0.9763 -0.0366
  728MOL0     C98150   3.950   5.198   7.674 -0.2574 -0.1988  0.1735
  728MOL0     C98151   3.808   5.202   7.691 -0.4164  0.0717  0.1136
  728MOL0     C98152   3.726   5.104   7.638 -0.1529  0.2815 -0.7302
  728MOL0     O98153   3.591   5.115   7.650  0.5713  0.3508  0.6106
  728MOL0     C98154   3.540   5.142   7.782 -0.3888  0.7570 -0.7092
  728MOL0     C98155   3.425   5.057   7.821  0.0432 -0.2443 -0.6572
  728MOL0     C98156   3.465   4.928   7.890  0.7006 -0.0598  0.9725
  728MOL0     C98157   3.359   4.808   7.873  0.4753 -0.8616  0.1712
  728MOL0     C98158   3.329   4.758   7.734 -0.6135  0.3046 -0.8594
  728MOL0     C98159   3.449   4.681   7.663  0.3549  0.0993  1.5634
  728MOL0     C98160   3.406   4.652   7.518 -0.0121  0.8133 -0.4662
  728MOL0     C98161   3.521   4.622   7.421 -0.4481  0.0447 -0.2413
  728MOL0     N98162   3.628   4.522   7.467  0.0158 -0.3224 -0.0033
  728MOL0     C98163   3.728   4.541   7.554 -0.1844  0.1084 -0.8129
  728MOL0     C98164   3.783   4.420   7.581  0.2782 -0.8239  0.7378
  728MOL0     C98165   3.898   4.370   7.674 -0.0901  1.0219 -0.9020
  728MOL0     C98166   4.024   4.437   7.626 -0.1052  0.0581  0.3257
  728MOL0     C98167   4.145   4.367   7.682  0.3304 -0.7585 -0.2701
  728MOL0     C98168   4.169   4.415   7.822 -0.2711  0.2806  0.1068
  728MOL0     O98169   4.299   4.362   7.868  0.5397 -0.1239 -0.4505
  728MOL0     C98170   4.325   4.385   8.003 -0.0048 -0.0324  0.7217
  728MOL0     C98171   4.258   4.475   8.085 -0.0652  0.4748 -0.5512
  728MOL0     C98172   4.288   4.489   8.224  0.3361 -0.1830  0.4823
  728MOL0     C98173   4.405   4.419   8.278  0.3267  0.0022  0.5070
  728MOL0     C98174   4.432   4.426   8.418 -0.3799  0.0969 -0.0216
  728MOL0     O98175   4.489   4.315   8.468 -0.8876 -0.0555  0.4733
  728MOL0     C98176   4.527   4.309   8.601 -0.0809 -0.3510 -0.5167
  728MOL0     C98177   4.654   4.361   8.645  1.1370 -0.2596  0.0700
  728MOL0     C98178   4.699   4.341   8.771  0.1420 -0.6797  0.1211
  728MOL0     C98179   4.608   4.278   8.865 -0.8329  0.4483 -0.6474
  728MOL0     O98180   4.671   4.248   8.990  0.2524 -0.3282  0.8563
  728MOL0     C98181   4.628   4.128   9.063  0.3190 -1.0442 -0.2924
  728MOL0     C98182   4.622   4.176   9.209  0.0079 -0.4871  0.5601
  728MOL0     C98183   4.616   4.056   9.307 -0.6969 -0.2611  0.8307
  728MOL0     C98184   4.616   4.103   9.453 -0.0554 -0.2437  0.2272
  728MOL0     C98185   4.756   4.151   9.500 -0.7357  1.2845 -0.4399
  728MOL0     C98186   4.772   4.173   9.650  0.4802 -0.4671  0.0723
  728MOL0     C98187   4.668   4.266   9.703 -0.0167  0.2999 -1.0064
  728MOL0     C98188   4.725   4.348   9.818 -0.1641 -1.4938  0.2332
  728MOL0    Cl98189   4.794   4.515   9.776 -0.8225 -0.1114  0.0811
  728MOL0     C98190   4.484   4.233   8.823  0.5762  0.3144  0.1015
  728MOL0     C98191   4.446   4.242   8.693 -0.5255  0.9784 -0.5893
  728MOL0     O98192   4.394   4.526   8.482  0.2104 -0.1890 -0.1949
  728MOL0     C98193   4.465   4.334   8.189  0.0423 -0.5168 -0.0173
  728MOL0     C98194   4.434   4.318   8.058  0.1310 -0.4495  0.4135
  728MOL0     N98195   3.716   4.327   7.503 -0.9263 -0.4031 -0.3016
  728MOL0     N98196   3.623   4.389   7.439 -0.2043 -0.4596 -0.5912
  728MOL0     C98197   3.783   4.994   7.571  0.0544 -0.9214  0.6987
  728MOL0     C98198   3.926   5.002   7.545  0.3376  1.6598  0.8954
  728MOL0     C98199   4.368   5.111   7.636 -1.1605 -0.1481 -0.5774
  728MOL0     C98200   4.404   5.088   7.503  0.7486 -1.0611 -0.4722
  728MOL0     C98201   4.535   5.057   7.459 -0.5925 -0.6452  0.8747
  728MOL0     C98202   4.640   5.064   7.539 -0.4976  0.3871 -0.5059
  728MOL0     O98203   4.764   5.031   7.496 -0.3239  0.3192  0.0213
  728MOL0     C98204   4.813   4.908   7.564 -1.0104  0.3175 -0.2767
  728MOL0     C98205   4.874   4.817   7.456  0.2414 -0.1961 -0.3793
  728MOL0     C98206   4.957   4.706   7.526  0.0988 -0.5861 -0.1007
  728MOL0     C98207   4.979   4.597   7.429  1.3291 -0.0660 -0.7452
  728MOL0     C98208   5.109   4.546   7.441 -0.2314 -0.7961 -1.1319
  728MOL0     C98209   5.224   4.508   7.442 -0.1582  0.5136  1.0670
  728MOL0     C98210   4.619   5.096   7.670 -0.3854  1.2994  0.3856
  728MOL0     C98211   4.486   5.115   7.722 -0.1758 -0.4993  0.3732
  728MOL0     C98212   4.477   5.128   7.868  0.3010  0.9092 -0.4512
  728MOL0     H98213   4.022   5.272   7.708  1.1172 -1.9279  1.1920
  728MOL0     H98214   3.767   5.293   7.733 -0.5414  1.5490 -2.9093
  728MOL0     H98215   3.610   5.132   7.865 -0.6111 -1.8049 -0.7380
  728MOL0     H98216   3.519   5.249   7.788  1.9322  1.2840 -1.1988
  728MOL0     H98217   3.378   5.043   7.723 -1.1747  0.9438 -0.2814
  728MOL0     H98218   3.363   5.119   7.887  1.2923 -1.3820  1.7171
  728MOL0     H98219   3.477   4.936   7.999 -2.5625 -1.3807  1.5500
  728MOL0     H98220   3.562   4.898   7.849  0.2382  2.0425 -1.9167
  728MOL0     H98221   3.383   4.717   7.927  2.2428 -1.5934 -1.7070
  728MOL0     H98222   3.261   4.850   7.898  1.0792 -0.1615  1.4807
  728MOL0     H98223   3.245   4.688   7.738 -0.2310 -0.2456 -2.0811
  728MOL0     H98224   3.301   4.835   7.663  1.9974  0.7724 -1.4912
  728MOL0     H98225   3.536   4.748   7.659  1.6207 -1.5282  0.2803
  728MOL0     H98226   3.487   4.592   7.715  2.6926  0.2992  0.3267
  728MOL0     H98227   3.348   4.736   7.480 -2.7466 -0.3045  0.9710
  728MOL0     H98228   3.353   4.556   7.520  3.2822 -1.1972 -1.1623
  728MOL0     H98229   3.476   4.600   7.324  0.6310 -1.5880 -0.4068
  728MOL0     H98230   3.580   4.712   7.403 -0.9380  0.2408 -0.8992
  728MOL0     H98231   3.765   4.631   7.603 -1.2932  0.4552 -0.5874
  728MOL0     H98232   3.878   4.379   7.781 -0.3024 -1.9779 -0.6078
  728MOL0     H98233   3.903   4.261   7.670  1.2443  0.6848  3.7087
  728MOL0     H98234   4.022   4.419   7.518 -0.0693 -2.6508  0.6973
  728MOL0     H98235   4.033   4.545   7.639 -1.6537  1.0444 -4.6374
  728MOL0     H98236   4.220   4.404   7.612 -1.0884  2.5335 -0.2220
  728MOL0     H98237   4.160   4.261   7.661  0.1975 -0.1154 -4.3182
  728MOL0     H98238   4.089   4.381   7.889 -0.6087 -0.0374 -0.4533
  728MOL0     H98239   4.190   4.522   7.829  0.7875  0.0013  1.7097
  728MOL0     H98240   4.173   4.530   8.047 -2.5017 -1.2740  1.9054
  728MOL0     H98241   4.234   4.563   8.283  0.3904  0.9282 -0.8222
  728MOL0     H98242   4.710   4.427   8.579  1.4115  0.7503  1.2723
  728MOL0     H98243   4.794   4.388   8.793 -0.4593  2.0377 -2.4131
  728MOL0     H98244   4.537   4.071   9.040  2.1915 -4.1341 -0.5680
  728MOL0     H98245   4.701   4.049   9.043  0.3910 -0.3634 -3.1343
  728MOL0     H98246   4.715   4.232   9.221  0.6010  0.0051 -4.2496
  728MOL0     H98247   4.538   4.246   9.218 -0.0283 -0.4629  0.1048
  728MOL0     H98248   4.519   4.013   9.284  0.7553 -3.6968  0.5237
  728MOL0     H98249   4.686   3.975   9.283  1.2962  1.7068 -0.4603
  728MOL0     H98250   4.575   4.012   9.496  0.1023 -1.2849 -1.7041
  728MOL0     H98251   4.543   4.184   9.461 -0.6260 -0.7232 -0.0331
  728MOL0     H98252   4.784   4.238   9.441  0.7750  1.6378  0.7287
  728MOL0     H98253   4.833   4.078   9.470 -3.8772 -1.4697 -2.5821
  728MOL0     H98254   4.750   4.074   9.692  0.4225 -0.8436 -0.8210
  728MOL0     H98255   4.874   4.208   9.668 -0.1069  0.3858  2.0254
  728MOL0     H98256   4.578   4.216   9.739  0.7504 -1.7957 -1.8743
  728MOL0     H98257   4.621   4.330   9.628 -0.9735 -2.8513 -3.2881
  728MOL0     H98258   4.650   4.371   9.894  0.0272 -1.2079  0.3364
  728MOL0     H98259   4.802   4.293   9.872  0.4938 -0.4869  0.3517
  728MOL0     H98260   4.424   4.181   8.897  1.7691 -2.4114 -0.7028
  728MOL0     H98261   4.366   4.186   8.645 -0.7582 -0.4468  1.3397
  728MOL0     H98262   4.565   4.305   8.220  0.3269  2.2494  2.0500
  728MOL0     H98263   4.493   4.262   7.986 -3.3537 -1.2985 -2.0252
  728MOL0     H98264   3.719   4.916   7.531  0.1385  0.4184 -2.3180
  728MOL0     H98265   3.962   4.933   7.469 -0.2170  1.4609  0.8089
  728MOL0     H98266   4.326   5.094   7.428 -1.2313  0.8400  1.5611
  728MOL0     H98267   4.555   5.021   7.358 -0.5000 -0.3708  0.7944
  728MOL0     H98268   4.733   4.853   7.613  1.0952 -0.6986  2.2113
  728MOL0     H98269   4.884   4.945   7.638 -1.7848  0.3321  0.4791
  728MOL0     H98270   4.953   4.869   7.401  1.7057 -1.4031  0.4920
  728MOL0     H98271   4.807   4.780   7.378  0.5517  0.0205 -0.7513
  728MOL0     H98272   4.908   4.660   7.612  0.8364 -1.3635 -0.0914
  728MOL0     H98273   5.048   4.749   7.567 -0.9751  1.7582  0.0115
  728MOL0     H98274   4.904   4.518   7.443  0.6189  0.7072 -0.1346
  728MOL0     H98275   4.967   4.641   7.329 -0.9156 -0.7115 -0.8066
  728MOL0     H98276   5.328   4.485   7.436 -0.5956 -1.1280 -2.0614
  728MOL0     H98277   4.702   5.083   7.737  0.5201 -3.4476 -1.3039
  728MOL0     H98278   4.403   5.206   7.888 -1.1067 -0.7007  0.9454
  728MOL0     H98279   4.442   5.040   7.922  1.1724 -0.2331 -1.6904
  728MOL0     H98280   4.577   5.149   7.907  1.3949 -1.3290 -1.8500
  729MOL0     O98281   3.185  10.865   9.142  0.6766 -0.3593  0.3592
  729MOL0     C98282   3.166  10.835   9.028 -0.7261  0.3024  0.5428
  729MOL0     O98283   3.265  10.808   8.940  0.5439  0.0489  0.2918
  729MOL0     C98284   3.394  10.826   8.984  0.2115  0.6476 -0.4843
  729MOL0     C98285   3.462  10.953   8.966  0.3002 -0.3724  0.0028
  729MOL0     C98286   3.594  10.984   9.008  0.5994  0.2123 -0.1556
  729MOL0     C98287   3.670  10.876   9.045 -0.3847  0.2263 -0.8445
  729MOL0     O98288   3.800  10.909   9.068  0.2147  0.7182 -0.4657
  729MOL0     C98289   3.880  10.877   9.181  0.2491  0.8983  0.0932
  729MOL0     C98290   3.976  10.767   9.143  0.3130 -0.0375 -0.3586
  729MOL0     C98291   3.942  10.620   9.145  0.3442  0.5027  0.7914
  729MOL0     C98292   4.048  10.529   9.201  0.0780  0.6509  0.8511
  729MOL0     C98293   4.071  10.519   9.350 -0.6556 -0.2011 -0.6646
  729MOL0     C98294   4.189  10.417   9.374 -0.7264  0.1881  0.4534
  729MOL0     C98295   4.241  10.386   9.518  0.0897 -0.5585 -0.2681
  729MOL0     C98296   4.123  10.365   9.617 -0.1549  0.3716 -0.1619
  729MOL0     N98297   4.046  10.248   9.589  0.2053 -0.6017 -1.2525
  729MOL0     C98298   4.094  10.116   9.607  0.2467  0.1023 -1.1184
  729MOL0     C98299   4.002  10.046   9.534 -0.2132 -0.0350  0.9549
  729MOL0     C98300   3.996   9.901   9.515  0.1604  1.2663  0.7299
  729MOL0     C98301   4.033   9.856   9.381 -0.8365  0.5397 -0.8173
  729MOL0     C98302   4.162   9.928   9.338  0.6872  0.0644  0.3827
  729MOL0     C98303   4.221   9.888   9.206  0.2254 -0.4212  0.5191
  729MOL0     O98304   4.129   9.926   9.087 -0.6399  0.0778 -0.2713
  729MOL0     C98305   4.121  10.049   9.031 -0.5827  0.2790 -0.7225
  729MOL0     C98306   4.057  10.075   8.911 -0.1434 -0.0408  1.5282
  729MOL0     C98307   4.063  10.201   8.841 -0.5067 -0.0881 -0.6003
  729MOL0     C98308   4.124  10.312   8.904  0.4096 -0.1089 -0.0591
  729MOL0     C98309   4.132  10.445   8.846 -0.5724  0.3657  0.0442
  729MOL0     O98310   4.236  10.514   8.888  0.7069 -0.1999 -0.5476
  729MOL0     C98311   4.261  10.631   8.814  0.9204  0.5582 -0.8118
  729MOL0     C98312   4.363  10.627   8.723  0.5769  0.2189  0.1226
  729MOL0     C98313   4.399  10.733   8.637 -0.9849  0.8366  1.1579
  729MOL0     C98314   4.317  10.845   8.642 -0.3891  0.3406  0.8940
  729MOL0     O98315   4.341  10.950   8.563 -0.5820  0.0058 -0.4798
  729MOL0     C98316   4.282  10.940   8.435  0.4726  1.2942  0.0987
  729MOL0     C98317   4.166  11.035   8.429  0.0102 -0.1922 -0.5482
  729MOL0     C98318   4.213  11.181   8.409  0.3311  0.1604 -0.4717
  729MOL0     C98319   4.186  11.231   8.260  0.5494  0.0075 -0.4136
  729MOL0     C98320   4.240  11.134   8.152  0.2459 -0.0829  0.1915
  729MOL0     C98321   4.233  11.197   8.014 -0.5950  0.0017 -0.7868
  729MOL0     C98322   4.316  11.130   7.910  0.3040  0.7657  0.9507
  729MOL0     C98323   4.309  11.208   7.780  0.7255 -1.0082 -0.0762
  729MOL0    Cl98324   4.131  11.216   7.723 -0.4713 -0.6906 -0.6009
  729MOL0     C98325   4.220  10.861   8.729  0.8134 -0.4040 -0.4105
  729MOL0     C98326   4.187  10.750   8.811 -0.4546  0.0707  0.6408
  729MOL0     O98327   4.050  10.478   8.758  0.6093  0.3433  0.5536
  729MOL0     C98328   4.190  10.284   9.024 -0.3333  0.1278 -0.3113
  729MOL0     C98329   4.182  10.161   9.084 -0.1791  0.4362 -0.0279
  729MOL0     N98330   3.909  10.133   9.479  0.1567 -0.3402 -0.7228
  729MOL0     N98331   3.936  10.246   9.508  0.2035 -0.4031  0.4011
  729MOL0     C98332   3.609  10.747   9.073 -0.8523  0.5773 -0.1943
  729MOL0     C98333   3.479  10.727   9.029  0.2834 -1.2988 -0.6047
  729MOL0     C98334   3.028  10.836   8.972 -0.3136 -0.6456 -0.5361
  729MOL0     C98335   3.009  10.890   8.837 -0.0898  0.2142 -0.0035
  729MOL0     C98336   2.880  10.912   8.788 -0.6789 -0.0771 -0.1208
  729MOL0     C98337   2.763  10.888   8.868 -0.1979 -0.6840 -1.8305
  729MOL0     O98338   2.635  10.896   8.814  0.4725 -0.7592 -0.2646
  729MOL0     C98339   2.565  10.770   8.788 -0.4015  1.0570 -0.6982
  729MOL0     C98340   2.631  10.690   8.669  0.7120  0.4468 -0.0607
  729MOL0     C98341   2.648  10.756   8.527 -0.2063 -0.6616  0.2694
  729MOL0     C98342   2.729  10.659   8.435 -0.4459  0.4611  0.8500
  729MOL0     C98343   2.873  10.675   8.472  0.3371 -0.4985 -0.6500
  729MOL0     C98344   2.983  10.696   8.517 -0.5253  0.6836 -0.0035
  729MOL0     C98345   2.791  10.846   9.003  0.8962  0.6982  0.8204
  729MOL0     C98346   2.922  10.807   9.050  0.0274 -1.0368  0.2712
  729MOL0     C98347   2.929  10.739   9.181  0.2385 -0.4701 -0.8702
  729MOL0     H98348   3.397  11.035   8.937  1.9898  0.9876 -0.1237
  729MOL0     H98349   3.625  11.088   9.007  0.3577  0.3319  1.5989
  729MOL0     H98350   3.924  10.971   9.218  0.5776  0.7991 -0.0420
  729MOL0     H98351   3.820  10.836   9.262 -0.2857  0.3235 -0.5791
  729MOL0     H98352   4.058  10.777   9.215  0.6734 -0.6621 -0.6717
  729MOL0     H98353   4.013  10.791   9.043 -1.9449 -2.8020 -1.9835
  729MOL0     H98354   3.910  10.590   9.045 -1.1572 -2.6362  2.0838
  729MOL0     H98355   3.858  10.601   9.212  0.3271 -4.3960 -0.2221
  729MOL0     H98356   4.031  10.425   9.174  3.3681 -0.3543  2.1859
  729MOL0     H98357   4.142  10.544   9.148  0.1198  1.1182  1.0474
  729MOL0     H98358   4.073  10.618   9.396  1.2056  0.6604 -2.4535
  729MOL0     H98359   3.981  10.481   9.399  0.0885 -0.7444  0.3060
  729MOL0     H98360   4.161  10.319   9.331 -2.8300  0.4214  1.1607
  729MOL0     H98361   4.276  10.451   9.317 -0.3285  2.1276  2.1454
  729MOL0     H98362   4.302  10.472   9.547  0.1907 -0.1110 -1.6961
  729MOL0     H98363   4.300  10.295   9.532 -0.6853 -0.7482  2.3661
  729MOL0     H98364   4.166  10.350   9.717 -1.3274 -2.5437  0.0034
  729MOL0     H98365   4.058  10.451   9.603 -0.4011  0.3299  0.6317
  729MOL0     H98366   4.178  10.088   9.670  0.1317  2.1119 -0.0110
  729MOL0     H98367   4.058   9.851   9.589 -0.6582  1.8395  1.8294
  729MOL0     H98368   3.891   9.878   9.533  0.4927 -0.5359  0.5833
  729MOL0     H98369   4.056   9.749   9.386  0.3554  0.7924 -0.5408
  729MOL0     H98370   3.953   9.859   9.306 -1.3564 -1.2424 -0.3857
  729MOL0     H98371   4.240   9.923   9.415  0.3449 -0.2147  0.7144
  729MOL0     H98372   4.142  10.036   9.330  2.3367  0.4682  1.2250
  729MOL0     H98373   4.236   9.781   9.215 -0.5559 -0.3900  2.9555
  729MOL0     H98374   4.320   9.934   9.194  0.9622 -2.2199 -0.6915
  729MOL0     H98375   4.008   9.994   8.858 -1.2501  0.5966  1.5487
  729MOL0     H98376   4.001  10.204   8.753  1.3255 -0.9800 -1.9799
  729MOL0     H98377   4.419  10.535   8.719 -1.7515 -1.4323  2.2446
  729MOL0     H98378   4.476  10.709   8.565 -3.3395  1.0121 -1.6282
  729MOL0     H98379   4.351  10.958   8.352  0.4863 -3.8500 -1.3874
  729MOL0     H98380   4.243  10.838   8.419  3.6154  0.5324 -4.9428
  729MOL0     H98381   4.106  11.009   8.342  0.4694 -1.8924 -0.3972
  729MOL0     H98382   4.101  11.015   8.514 -2.3411 -3.0943 -2.8045
  729MOL0     H98383   4.166  11.264   8.462  1.2298  1.9317 -2.2937
  729MOL0     H98384   4.317  11.201   8.438 -0.1402 -1.1710  2.4587
  729MOL0     H98385   4.235  11.327   8.244  1.9717  0.0425  3.3271
  729MOL0     H98386   4.079  11.236   8.236  0.7501 -1.0860 -1.7173
  729MOL0     H98387   4.184  11.041   8.143 -3.0660  1.8553 -1.0629
  729MOL0     H98388   4.342  11.105   8.179 -0.5064 -3.0991  0.1391
  729MOL0     H98389   4.130  11.190   7.980 -1.3332 -0.4951  1.4025
  729MOL0     H98390   4.268  11.300   8.026 -1.4362  0.2096  0.0044
  729MOL0     H98391   4.275  11.029   7.904 -2.1887  1.7290  0.3584
  729MOL0     H98392   4.422  11.113   7.932 -0.3792 -1.9497  2.7023
  729MOL0     H98393   4.338  11.312   7.798  0.6403 -0.4438 -2.7602
  729MOL0     H98394   4.367  11.167   7.697  1.3156 -1.3870  0.5211
  729MOL0     H98395   4.176  10.960   8.731  0.1677 -0.6815 -0.7689
  729MOL0     H98396   4.095  10.757   8.867 -3.1344 -0.6576 -3.2289
  729MOL0     H98397   4.239  10.358   9.088 -0.4443 -1.5453  1.8237
  729MOL0     H98398   4.241  10.166   9.175 -0.1082  2.1849 -0.1303
  729MOL0     H98399   3.662  10.661   9.113 -3.5899 -1.7979 -1.2763
  729MOL0     H98400   3.425  10.635   9.050 -2.1918  0.6030  2.2583
  729MOL0     H98401   3.100  10.904   8.779 -1.3009  0.2809 -1.9767
  729MOL0     H98402   2.868  10.954   8.689 -1.3259  1.3490  0.5318
  729MOL0     H98403   2.462  10.788   8.757 -1.3920 -0.0637  1.6715
  729MOL0     H98404   2.547  10.712   8.879  0.4379  1.1681 -0.4554
  729MOL0     H98405   2.565  10.605   8.653 -1.2566  1.8978 -0.0502
  729MOL0     H98406   2.730  10.659   8.704  1.6551  3.2964  0.1025
  729MOL0     H98407   2.701  10.852   8.526 -1.4375  0.2962 -5.5023
  729MOL0     H98408   2.553  10.774   8.477  1.0028 -2.5957 -3.0748
  729MOL0     H98409   2.689  10.557   8.439 -3.3938  1.3181 -2.1078
  729MOL0     H98410   2.719  10.693   8.332 -0.4340 -1.6855  0.0793
  729MOL0     H98411   3.072  10.729   8.566 -1.9514  1.8045  1.9713
  729MOL0     H98412   2.703  10.828   9.064  0.9753  0.4788  0.8726
  729MOL0     H98413   2.832  10.714   9.226 -0.4340 -2.0091 -3.0248
  729MOL0     H98414   2.996  10.653   9.191  4.9399  2.5694 -2.7488
  729MOL0     H98415   2.967  10.810   9.255 -0.5077 -0.4874 -0.4631
  730MOL0     O98416   6.421   4.268   7.446 -0.2521 -0.2663 -0.0577
  730MOL0     C98417   6.523   4.223   7.391  0.7879  0.3961 -0.5170
  730MOL0     O98418   6.651   4.277   7.398  0.3552 -0.1921  0.3095
  730MOL0     C98419   6.671   4.398   7.451 -0.1825 -0.1188  0.1405
  730MOL0     C98420   6.741   4.491   7.376 -0.3905  0.2303  0.4368
  730MOL0     C98421   6.764   4.622   7.415 -0.8890  0.0852 -0.1652
  730MOL0     C98422   6.716   4.657   7.548  0.3042 -0.5324  0.0808
  730MOL0     O98423   6.731   4.779   7.600 -0.2110 -0.2989 -0.7111
  730MOL0     C98424   6.814   4.782   7.724 -0.1965  0.2054 -0.4091
  730MOL0     C98425   6.886   4.909   7.718 -0.9410 -0.0596 -0.3331
  730MOL0     C98426   6.966   4.919   7.861 -0.0957 -0.2930  0.8809
  730MOL0     C98427   7.030   5.053   7.872 -0.0851  0.4584  0.6097
  730MOL0     C98428   7.110   5.089   7.989 -0.9104  0.7300 -0.1394
  730MOL0     C98429   7.246   5.016   7.999 -0.0468  0.9421 -0.9208
  730MOL0     C98430   7.343   5.076   8.107  0.2704 -0.5594 -0.6426
  730MOL0     C98431   7.278   5.072   8.240 -0.7081 -0.4188  0.3820
  730MOL0     N98432   7.374   5.090   8.360 -0.2306  0.3054  0.7624
  730MOL0     C98433   7.450   5.207   8.389  0.8821  0.0519 -0.2245
  730MOL0     C98434   7.526   5.172   8.499  0.6279  0.4737  1.5139
  730MOL0     C98435   7.632   5.259   8.556  0.4967 -0.0318 -0.0386
  730MOL0     C98436   7.747   5.247   8.459  0.0479  0.7545  0.0397
  730MOL0     C98437   7.807   5.102   8.437 -0.8217 -0.0137  0.3501
  730MOL0     C98438   7.927   5.095   8.332  0.0097 -0.5244 -0.0714
  730MOL0     O98439   8.052   5.147   8.385 -0.1372  0.1416  0.8394
  730MOL0     C98440   8.163   5.134   8.308 -0.2239  0.2725 -0.2701
  730MOL0     C98441   8.168   5.091   8.172 -0.7445  0.7478 -0.0175
  730MOL0     C98442   8.292   5.068   8.109 -1.4360  0.5473 -0.9602
  730MOL0     C98443   8.411   5.098   8.182  0.0835 -1.5476  0.2863
  730MOL0     C98444   8.534   5.117   8.108  0.3074  0.2455  0.0974
  730MOL0     O98445   8.536   5.060   7.988 -0.3040 -0.3163 -0.5320
  730MOL0     C98446   8.663   5.037   7.936  0.2285  0.0793  0.0271
  730MOL0     C98447   8.764   5.136   7.915  0.6021  0.2502 -0.4539
  730MOL0     C98448   8.884   5.102   7.848 -0.6558  0.0666  0.2585
  730MOL0     C98449   8.908   4.974   7.805  0.5333  0.2329  0.0418
  730MOL0     O98450   9.028   4.935   7.750 -0.5380 -0.1014 -0.0383
  730MOL0     C98451   9.035   4.888   7.612  0.4788  0.1397  1.0710
  730MOL0     C98452   9.007   5.001   7.520  0.5313  0.0738  0.0148
  730MOL0     C98453   9.084   4.994   7.379  0.4551 -0.5462 -0.2072
  730MOL0     C98454   9.079   5.120   7.306 -0.5375 -1.2008  0.4074
  730MOL0     C98455   9.152   5.113   7.174  0.2055 -0.2903 -0.5333
  730MOL0     C98456   9.202   5.247   7.122  0.1832  0.9364  0.7948
  730MOL0     C98457   9.322   5.220   7.009  1.0614  0.9133 -0.9986
  730MOL0     C98458   9.357   5.343   6.921  0.3109  0.1428 -0.4334
  730MOL0    Cl98459   9.337   5.496   7.003 -0.4845  0.0691 -0.2223
  730MOL0     C98460   8.815   4.871   7.836 -0.1979 -0.0705 -0.1465
  730MOL0     C98461   8.688   4.899   7.898  0.6965 -1.1165  0.3319
  730MOL0     O98462   8.631   5.169   8.163  0.7258  1.1417  0.1162
  730MOL0     C98463   8.405   5.147   8.316 -1.1239 -0.6356 -0.2580
  730MOL0     C98464   8.280   5.159   8.381 -1.0062 -0.1688 -0.4996
  730MOL0     N98465   7.497   5.036   8.531 -0.1628  0.0959 -0.2747
  730MOL0     N98466   7.408   4.988   8.452  0.0770 -0.0259 -0.0347
  730MOL0     C98467   6.648   4.555   7.625 -0.8417 -0.9491  0.1140
  730MOL0     C98468   6.627   4.432   7.576  0.1254 -0.5409  0.0106
  730MOL0     C98469   6.516   4.094   7.326  0.6182 -0.4617 -0.2980
  730MOL0     C98470   6.420   4.076   7.230  0.5206  0.9198  0.5815
  730MOL0     C98471   6.412   3.948   7.175  1.2103  0.1167 -0.1861
  730MOL0     C98472   6.492   3.834   7.208 -0.3000  2.0425  0.3094
  730MOL0     O98473   6.478   3.719   7.138  0.0034 -0.3511  0.2815
  730MOL0     C98474   6.481   3.599   7.214  0.2985  0.7829 -0.1342
  730MOL0     C98475   6.351   3.575   7.298 -0.6619 -0.4973  0.4131
  730MOL0     C98476   6.225   3.554   7.216 -0.0055 -0.8289  0.0819
  730MOL0     C98477   6.096   3.612   7.279 -0.0282 -0.0306  0.4434
  730MOL0     C98478   6.079   3.582   7.421  0.3272  0.6166 -0.8464
  730MOL0     C98479   6.057   3.542   7.527 -0.0868 -0.3339 -1.1439
  730MOL0     C98480   6.588   3.864   7.301 -1.3241 -0.1945 -0.5717
  730MOL0     C98481   6.608   3.988   7.352  0.8941  0.4718  0.2404
  730MOL0     C98482   6.719   4.006   7.441  0.3193 -0.5731  0.5730
  730MOL0     H98483   6.802   4.452   7.294 -0.4285 -1.7633  1.2866
  730MOL0     H98484   6.831   4.687   7.360  5.0552 -3.4017  2.0055
  730MOL0     H98485   6.744   4.791   7.808  2.0381 -0.8449  1.6678
  730MOL0     H98486   6.878   4.695   7.739  0.0993  0.5288  0.2310
  730MOL0     H98487   6.824   4.994   7.690 -0.3885  0.2452 -0.6497
  730MOL0     H98488   6.958   4.907   7.636 -0.0666  1.8577  0.3370
  730MOL0     H98489   7.045   4.844   7.872  1.0499  0.2418 -2.3734
  730MOL0     H98490   6.892   4.907   7.941 -0.4417  0.4314  0.6764
  730MOL0     H98491   7.101   5.064   7.790  0.1987  0.0463  0.7997
  730MOL0     H98492   6.955   5.131   7.855 -0.9005 -0.5013 -0.3498
  730MOL0     H98493   7.134   5.195   7.981 -1.1682  0.8760  0.8831
  730MOL0     H98494   7.067   5.077   8.089  0.2196  0.1661  0.2920
  730MOL0     H98495   7.221   4.913   8.026  3.0457  0.2439 -0.2461
  730MOL0     H98496   7.301   5.012   7.904  2.4066 -0.1765  0.4429
  730MOL0     H98497   7.364   5.177   8.072 -0.6510  0.1079  0.6624
  730MOL0     H98498   7.440   5.026   8.112  1.5830  1.9551  3.4893
  730MOL0     H98499   7.207   5.154   8.256  1.9101  1.7579  1.7754
  730MOL0     H98500   7.233   4.973   8.249  1.9342 -1.5869  2.1258
  730MOL0     H98501   7.452   5.300   8.334 -1.7918 -0.2702 -1.0166
  730MOL0     H98502   7.586   5.358   8.553 -4.3017 -2.0172 -0.8132
  730MOL0     H98503   7.662   5.230   8.657  4.7301  0.2847 -1.0278
  730MOL0     H98504   7.711   5.283   8.363 -1.4909 -1.4368 -0.2759
  730MOL0     H98505   7.827   5.308   8.502  0.8171  0.8797 -1.5199
  730MOL0     H98506   7.732   5.031   8.403 -0.1400 -0.4249 -0.3292
  730MOL0     H98507   7.842   5.061   8.533 -3.2382 -2.6609  0.2188
  730MOL0     H98508   7.900   5.153   8.243 -0.0454  0.9678  0.8715
  730MOL0     H98509   7.951   5.001   8.282  2.0480  1.4206 -3.0882
  730MOL0     H98510   8.076   5.069   8.119  0.0312 -4.1540  0.2760
  730MOL0     H98511   8.292   5.035   8.006 -0.9098  2.8180 -1.7267
  730MOL0     H98512   8.760   5.239   7.950  0.6391  0.1462 -0.1489
  730MOL0     H98513   8.959   5.178   7.830 -0.1293 -0.4022  0.4424
  730MOL0     H98514   9.131   4.844   7.583 -1.6510 -2.4745 -2.8022
  730MOL0     H98515   8.971   4.802   7.591  2.7541 -2.1638  2.8373
  730MOL0     H98516   8.903   5.008   7.485  1.6730 -0.2081 -3.8362
  730MOL0     H98517   9.031   5.093   7.574  3.2441  0.2473 -1.3470
  730MOL0     H98518   9.187   4.959   7.393  0.7056 -1.7317 -3.9371
  730MOL0     H98519   9.036   4.918   7.317  0.6529  0.6924 -1.9795
  730MOL0     H98520   9.122   5.198   7.370  0.9254 -1.3393 -0.3530
  730MOL0     H98521   8.975   5.144   7.280 -1.0455 -0.2754  2.9651
  730MOL0     H98522   9.084   5.054   7.111 -2.3462 -1.2552  2.8344
  730MOL0     H98523   9.241   5.056   7.200 -1.0450 -1.7456  0.7755
  730MOL0     H98524   9.118   5.308   7.087 -0.2615 -0.3712 -0.4820
  730MOL0     H98525   9.254   5.294   7.207  2.0373  1.9585 -0.8285
  730MOL0     H98526   9.294   5.137   6.943 -0.8006  2.1350 -1.8296
  730MOL0     H98527   9.412   5.195   7.066 -0.7706 -1.8712  0.9754
  730MOL0     H98528   9.460   5.340   6.884 -0.0032  0.5178 -1.3677
  730MOL0     H98529   9.288   5.344   6.837  0.9106  2.4360 -0.9580
  730MOL0     H98530   8.834   4.770   7.802 -2.3576 -0.1531 -1.3066
  730MOL0     H98531   8.622   4.813   7.907 -1.0660  0.1714  0.3543
  730MOL0     H98532   8.494   5.194   8.358 -2.1629  2.7888 -1.4957
  730MOL0     H98533   8.280   5.186   8.486  4.1646 -1.7930  0.2321
  730MOL0     H98534   6.606   4.588   7.720 -1.6431  2.2677 -1.2035
  730MOL0     H98535   6.585   4.352   7.635  2.2796 -2.5015 -0.9877
  730MOL0     H98536   6.359   4.161   7.200 -0.1928 -0.1272 -1.0306
  730MOL0     H98537   6.332   3.939   7.102  1.3629 -5.5619 -0.0626
  730MOL0     H98538   6.572   3.593   7.275 -0.2864 -2.4470  0.6456
  730MOL0     H98539   6.493   3.517   7.143 -3.4515  3.2419 -4.1297
  730MOL0     H98540   6.337   3.664   7.360 -0.2345 -0.5596  0.6018
  730MOL0     H98541   6.378   3.485   7.353  2.9786  0.0481 -0.1804
  730MOL0     H98542   6.209   3.447   7.204 -3.1710 -0.3364 -1.0700
  730MOL0     H98543   6.234   3.599   7.116  0.9096 -2.9347 -0.8497
  730MOL0     H98544   6.087   3.721   7.268 -1.6188  0.1791  3.0051
  730MOL0     H98545   6.012   3.572   7.223 -0.1596 -0.0053  0.6235
  730MOL0     H98546   6.052   3.489   7.620 -0.0167 -1.9515 -2.0222
  730MOL0     H98547   6.666   3.792   7.324 -0.2726  1.5323  1.7268
  730MOL0     H98548   6.752   3.906   7.470 -1.7198 -2.1584 -2.1079
  730MOL0     H98549   6.801   4.053   7.388 -0.3953 -0.1527 -0.1821
  730MOL0     H98550   6.687   4.069   7.525  0.4325  0.9986 -0.5259
  731MOL0     O98551   6.012   9.000   8.470 -0.1342  0.8128  0.5593
  731MOL0     C98552   5.976   8.881   8.455  0.3403 -0.0759  0.7695
  731MOL0     O98553   5.843   8.842   8.482  0.1047  0.0022  0.5448
  731MOL0     C98554   5.756   8.940   8.515 -0.8600 -0.2821  0.0866
  731MOL0     C98555   5.735   9.051   8.433 -0.3949  0.0639  0.5552
  731MOL0     C98556   5.651   9.158   8.467 -0.2746  0.7718 -0.1054
  731MOL0     C98557   5.589   9.155   8.596 -0.6258 -0.7251 -0.3761
  731MOL0     O98558   5.510   9.269   8.620  0.1373 -0.0669  0.1244
  731MOL0     C98559   5.401   9.258   8.704  0.8009  1.0233  1.0097
  731MOL0     C98560   5.315   9.387   8.722 -0.2371 -0.0947 -0.3873
  731MOL0     C98561   5.373   9.491   8.812  0.4809 -0.4253 -0.7145
  731MOL0     C98562   5.291   9.611   8.811  0.5004 -0.7861 -0.5628
  731MOL0     C98563   5.355   9.734   8.887  0.1798  0.8260  0.2165
  731MOL0     C98564   5.408   9.690   9.020  0.3450  0.5116  0.3701
  731MOL0     C98565   5.310   9.633   9.117 -0.6599 -0.6205 -1.1825
  731MOL0     C98566   5.357   9.654   9.267 -0.1032  0.4678 -0.2093
  731MOL0     N98567   5.251   9.623   9.361 -0.2810  0.5751  0.0404
  731MOL0     C98568   5.178   9.704   9.454 -0.1216 -0.0293 -0.1075
  731MOL0     C98569   5.066   9.634   9.481  0.2086  0.1970 -0.6991
  731MOL0     C98570   4.947   9.689   9.561 -0.4427  0.4383 -0.8358
  731MOL0     C98571   4.888   9.593   9.665  0.0049 -0.0196 -1.2085
  731MOL0     C98572   4.996   9.512   9.741 -0.2024 -0.5034  0.6576
  731MOL0     C98573   4.932   9.422   9.844 -0.8431 -0.1385 -0.7347
  731MOL0     O98574   4.844   9.328   9.782 -0.3571  0.5099  0.2335
  731MOL0     C98575   4.785   9.228   9.855  0.9182  1.0097  0.0077
  731MOL0     C98576   4.711   9.133   9.780 -0.9507 -0.7811 -0.7922
  731MOL0     C98577   4.671   9.022   9.841  0.1311  0.6257  0.5125
  731MOL0     C98578   4.671   9.007   9.986  0.2976 -0.5052  0.1330
  731MOL0     C98579   4.628   8.884  10.068  0.6773 -0.1263 -0.0857
  731MOL0     O98580   4.620   8.879  10.201  0.5274 -0.6331 -0.4124
  731MOL0     C98581   4.564   8.766  10.254 -0.2960 -0.3272  0.3503
  731MOL0     C98582   4.433   8.770  10.305 -0.0108 -0.4714  0.2384
  731MOL0     C98583   4.383   8.644  10.337  0.1234 -0.8236 -0.4461
  731MOL0     C98584   4.451   8.525  10.323 -0.0733 -0.5221 -0.7455
  731MOL0     O98585   4.401   8.409  10.380 -0.4281  0.0754  0.2888
  731MOL0     C98586   4.434   8.292  10.303 -0.7835 -0.6015 -0.2862
  731MOL0     C98587   4.311   8.211  10.308  0.2368  0.0473 -0.8388
  731MOL0     C98588   4.339   8.074  10.241 -0.2905 -0.3970 -0.2669
  731MOL0     C98589   4.260   7.950  10.308 -0.0364  0.0481  0.5064
  731MOL0     C98590   4.286   7.821  10.228  0.4465  0.6609  0.8176
  731MOL0     C98591   4.430   7.771  10.230 -0.2305 -0.4998  0.0671
  731MOL0     C98592   4.457   7.680  10.122  0.2233  0.2105  0.0738
  731MOL0     C98593   4.603   7.620  10.126  0.2532  0.3805 -0.1042
  731MOL0    Cl98594   4.724   7.755  10.099  0.3207  0.1419 -0.0373
  731MOL0     C98595   4.587   8.527  10.301 -0.2642  0.4114 -0.3198
  731MOL0     C98596   4.648   8.648  10.262  0.2679  0.5292 -0.6737
  731MOL0     O98597   4.612   8.782   9.996 -0.0296 -0.3308 -0.4314
  731MOL0     C98598   4.726   9.122  10.062 -0.2040  0.6083  0.0854
  731MOL0     C98599   4.782   9.226   9.995  0.0602 -0.2840 -0.2547
  731MOL0     N98600   5.081   9.505   9.425 -0.8199  0.1035 -0.0273
  731MOL0     N98601   5.201   9.494   9.373  0.1833 -0.1202 -0.4491
  731MOL0     C98602   5.607   9.041   8.678  0.6142  0.1839 -0.9281
  731MOL0     C98603   5.696   8.936   8.635 -0.1561  0.3199  0.5894
  731MOL0     C98604   6.057   8.784   8.375  0.2555 -0.1965  1.5038
  731MOL0     C98605   6.002   8.661   8.340 -0.7174  0.2194  0.6194
  731MOL0     C98606   6.072   8.559   8.277 -0.1044 -0.2030 -0.3055
  731MOL0     C98607   6.203   8.571   8.237  0.0620 -0.5796 -0.2195
  731MOL0     O98608   6.265   8.469   8.170 -0.1260  0.6783 -0.3094
  731MOL0     C98609   6.205   8.337   8.143  0.3475 -0.3857 -0.1761
  731MOL0     C98610   6.280   8.257   8.046 -0.0632 -0.4960 -0.1719
  731MOL0     C98611   6.205   8.128   8.022 -0.1075 -0.6278  0.4760
  731MOL0     C98612   6.284   8.026   7.945  0.3975  0.3784  0.0042
  731MOL0     C98613   6.242   7.881   7.963  0.9200  0.0350 -0.9573
  731MOL0     C98614   6.202   7.764   7.986  0.5310 -0.5082 -0.9812
  731MOL0     C98615   6.268   8.685   8.279  0.8532  0.4603  0.3937
  731MOL0     C98616   6.195   8.789   8.347  0.0116  0.7243 -0.0119
  731MOL0     C98617   6.280   8.906   8.384  0.4842 -0.2191  0.1767
  731MOL0     H98618   5.766   9.047   8.330 -2.0250  0.4072  0.0281
  731MOL0     H98619   5.648   9.249   8.408 -5.0127  1.5881  1.0292
  731MOL0     H98620   5.333   9.181   8.667 -0.7822  2.0809  1.6030
  731MOL0     H98621   5.422   9.214   8.802  3.0537  1.3218  0.7128
  731MOL0     H98622   5.224   9.351   8.771  1.3713 -1.8363  1.5032
  731MOL0     H98623   5.302   9.442   8.628 -0.1720 -1.4203 -1.2053
  731MOL0     H98624   5.474   9.515   8.777  0.6084 -2.2291 -1.6668
  731MOL0     H98625   5.386   9.453   8.914  3.5189 -1.1665 -1.2819
  731MOL0     H98626   5.276   9.650   8.710 -0.0097  0.3670 -0.0539
  731MOL0     H98627   5.198   9.582   8.860  0.5385 -0.1558 -0.1119
  731MOL0     H98628   5.437   9.780   8.833 -0.2210  0.3028 -0.8533
  731MOL0     H98629   5.290   9.818   8.913 -0.9077  0.0772 -0.0099
  731MOL0     H98630   5.489   9.616   9.013 -1.1528 -1.3452  1.6483
  731MOL0     H98631   5.462   9.775   9.063  1.2652  0.0536  0.1531
  731MOL0     H98632   5.295   9.527   9.094 -2.0716 -0.4072 -1.3149
  731MOL0     H98633   5.216   9.689   9.114  0.4572  1.3823 -0.5773
  731MOL0     H98634   5.435   9.580   9.282 -1.1924 -0.1070  3.4902
  731MOL0     H98635   5.402   9.753   9.282  1.6792 -0.3939  0.3244
  731MOL0     H98636   5.192   9.806   9.490 -0.7571 -0.4179  1.2908
  731MOL0     H98637   4.993   9.772   9.616 -1.7426  3.0890 -3.5010
  731MOL0     H98638   4.865   9.736   9.507 -0.7961  0.7395 -0.0504
  731MOL0     H98639   4.822   9.647   9.734 -0.8089 -1.2613 -0.9661
  731MOL0     H98640   4.835   9.516   9.607  1.9473 -3.0279  0.7351
  731MOL0     H98641   5.053   9.586   9.798  0.3627 -2.5362  2.8952
  731MOL0     H98642   5.054   9.454   9.667 -1.7892  0.2583 -1.2717
  731MOL0     H98643   4.885   9.485   9.921  2.3655  0.0924  1.2019
  731MOL0     H98644   5.016   9.372   9.893 -0.6201  1.6454  0.8061
  731MOL0     H98645   4.706   9.140   9.672  0.6262  0.9279 -0.8107
  731MOL0     H98646   4.631   8.944   9.776  0.6959  0.4520  0.3649
  731MOL0     H98647   4.374   8.861  10.309 -1.8341 -1.6107  0.2817
  731MOL0     H98648   4.282   8.645  10.374  0.0656  0.4055 -0.5907
  731MOL0     H98649   4.462   8.313  10.200 -3.8741 -1.0716 -1.3401
  731MOL0     H98650   4.516   8.240  10.353 -1.8746 -1.9188  0.2201
  731MOL0     H98651   4.295   8.189  10.414 -3.1882 -1.8859 -1.6081
  731MOL0     H98652   4.221   8.259  10.269 -0.7121 -0.3877  0.7092
  731MOL0     H98653   4.321   8.052  10.136 -0.9168 -1.3177  0.0151
  731MOL0     H98654   4.446   8.052  10.252 -0.4919 -1.0674  0.4924
  731MOL0     H98655   4.154   7.976  10.310  0.3285  1.8197 -0.6671
  731MOL0     H98656   4.289   7.937  10.413  3.4168  0.9093 -0.2066
  731MOL0     H98657   4.265   7.837  10.121  1.4517 -0.8049  0.3670
  731MOL0     H98658   4.235   7.734  10.270  1.6797  1.5288  4.4281
  731MOL0     H98659   4.505   7.847  10.207  0.2015 -1.5039 -2.1629
  731MOL0     H98660   4.450   7.724  10.327  0.2852  1.0636  0.7455
  731MOL0     H98661   4.431   7.719  10.024  1.0590 -2.8404 -1.4822
  731MOL0     H98662   4.388   7.595  10.132 -2.3660  2.1383 -0.5541
  731MOL0     H98663   4.620   7.580  10.226  0.2538  0.0586 -0.2314
  731MOL0     H98664   4.607   7.540  10.052 -3.0332 -0.0719  0.0410
  731MOL0     H98665   4.654   8.442  10.295  1.6341  1.6456  1.5931
  731MOL0     H98666   4.754   8.645  10.238  1.0824  1.3810  2.3386
  731MOL0     H98667   4.739   9.115  10.170  1.3116 -2.9941 -0.2116
  731MOL0     H98668   4.830   9.312  10.041  2.3934  0.0108 -2.9738
  731MOL0     H98669   5.550   9.030   8.770 -2.2824 -2.9945 -2.8216
  731MOL0     H98670   5.714   8.845   8.691 -1.1738 -2.6616 -3.4214
  731MOL0     H98671   5.898   8.642   8.360 -0.4087 -0.6390  1.4834
  731MOL0     H98672   6.020   8.463   8.271 -0.7637  0.1099  0.3154
  731MOL0     H98673   6.103   8.359   8.112 -0.9333 -3.6197  1.3168
  731MOL0     H98674   6.202   8.280   8.237 -0.3916  0.5206  0.3665
  731MOL0     H98675   6.377   8.227   8.088  1.3827  2.2856 -1.2590
  731MOL0     H98676   6.303   8.310   7.953  4.2331  2.9975  2.4635
  731MOL0     H98677   6.125   8.162   7.956  0.5652  1.4595  0.6841
  731MOL0     H98678   6.170   8.070   8.109 -1.2920 -1.4973 -0.5442
  731MOL0     H98679   6.274   8.052   7.840  0.1854 -0.3036 -0.1498
  731MOL0     H98680   6.389   8.034   7.977  0.8790  0.4704 -1.5330
  731MOL0     H98681   6.176   7.662   8.002 -1.6836 -0.6624 -4.5279
  731MOL0     H98682   6.369   8.686   8.239  0.1577  1.9290 -1.5247
  731MOL0     H98683   6.275   8.988   8.311 -0.6062 -0.3377  0.1084
  731MOL0     H98684   6.246   8.969   8.466  1.7134  0.3659  0.2581
  731MOL0     H98685   6.385   8.876   8.394  0.4656 -0.1826  0.4753
  732MOL0     O98686   1.237   6.959   7.126 -0.2359 -0.1567 -0.0090
  732MOL0     C98687   1.134   6.910   7.095 -0.2655  0.9312 -0.1721
  732MOL0     O98688   1.127   6.817   6.999  0.5337  0.3247 -0.4821
  732MOL0     C98689   1.229   6.767   6.929  0.0145 -0.7697  0.0325
  732MOL0     C98690   1.193   6.721   6.796 -0.1992  0.2933 -0.8251
  732MOL0     C98691   1.284   6.658   6.722 -0.9372 -0.0762  0.2900
  732MOL0     C98692   1.419   6.644   6.764  0.6071  0.8076 -0.2588
  732MOL0     O98693   1.505   6.555   6.707 -0.3738 -0.5984 -0.3844
  732MOL0     C98694   1.493   6.421   6.744  1.0651 -0.6587 -0.0078
  732MOL0     C98695   1.474   6.326   6.629  0.4195 -0.1485  1.3005
  732MOL0     C98696   1.477   6.191   6.693 -0.6985  0.5424 -0.9274
  732MOL0     C98697   1.420   6.065   6.608 -0.8696  0.1668 -0.7090
  732MOL0     C98698   1.439   5.935   6.678  0.0888  0.5995  0.5389
  732MOL0     C98699   1.368   5.809   6.612 -0.6657 -0.5565 -0.9968
  732MOL0     C98700   1.374   5.685   6.692 -1.0528 -0.5532  0.1674
  732MOL0     C98701   1.350   5.562   6.603 -0.1065 -0.2888 -1.2191
  732MOL0     N98702   1.356   5.435   6.681 -0.1125 -0.0482  0.4454
  732MOL0     C98703   1.374   5.313   6.620  0.0577  0.0970 -0.1672
  732MOL0     C98704   1.402   5.236   6.736  1.0405  0.6599  0.0188
  732MOL0     C98705   1.436   5.092   6.746 -0.4066  0.1440 -0.2622
  732MOL0     C98706   1.579   5.089   6.799 -0.1666  0.6821 -0.5356
  732MOL0     C98707   1.684   5.137   6.694  0.5847 -0.5513  0.4465
  732MOL0     C98708   1.815   5.136   6.770 -0.2474  0.4028 -0.5155
  732MOL0     O98709   1.894   5.239   6.719  0.0222 -0.9345  1.5196
  732MOL0     C98710   1.867   5.365   6.756  0.0536 -0.5918 -1.1686
  732MOL0     C98711   1.922   5.393   6.888 -0.6526  0.1027  0.6508
  732MOL0     C98712   1.906   5.521   6.951  0.6877 -0.8686 -0.4292
  732MOL0     C98713   1.827   5.619   6.882  0.3027 -0.7583 -0.3089
  732MOL0     C98714   1.797   5.754   6.946 -0.5972 -0.0189  0.2932
  732MOL0     O98715   1.800   5.858   6.859  0.0136  0.2675  0.1665
  732MOL0     C98716   1.774   5.992   6.910  0.1756  0.5713  0.2987
  732MOL0     C98717   1.642   6.013   6.951  0.1442  0.5381 -0.2334
  732MOL0     C98718   1.609   6.142   7.003 -0.1282 -0.7831  0.8448
  732MOL0     C98719   1.701   6.245   7.012  0.1785 -0.8378  0.3440
  732MOL0     O98720   1.659   6.374   7.044 -0.2078  0.0781 -0.2943
  732MOL0     C98721   1.730   6.454   7.134  0.2181 -0.0832  0.8215
  732MOL0     C98722   1.701   6.599   7.113 -0.1546 -0.3367  0.1686
  732MOL0     C98723   1.789   6.682   7.202 -1.0233 -0.2461  0.6316
  732MOL0     C98724   1.765   6.828   7.180 -0.6279  0.2320 -0.2034
  732MOL0     C98725   1.890   6.913   7.220 -0.9099  0.5436  1.0131
  732MOL0     C98726   1.902   7.055   7.153 -0.0453 -0.0387 -0.6743
  732MOL0     C98727   1.832   7.161   7.238 -0.6243 -0.5104 -0.2889
  732MOL0     C98728   1.839   7.294   7.159 -1.0199  0.7466  0.5805
  732MOL0    Cl98729   2.011   7.348   7.134  0.4126 -0.1789  0.3308
  732MOL0     C98730   1.831   6.218   6.960 -0.1416  0.0101 -1.0414
  732MOL0     C98731   1.865   6.094   6.912 -0.4324 -1.0777 -1.3153
  732MOL0     O98732   1.788   5.763   7.068  0.1442 -0.1204  0.4311
  732MOL0     C98733   1.782   5.594   6.759  0.8341  0.0302 -0.2862
  732MOL0     C98734   1.809   5.476   6.690  0.0044  1.0860  0.4749
  732MOL0     N98735   1.399   5.314   6.851  0.2631 -0.5409  0.0587
  732MOL0     N98736   1.387   5.441   6.812  0.6370  0.3035 -0.1440
  732MOL0     C98737   1.463   6.704   6.884  0.4082  0.1348  0.6562
  732MOL0     C98738   1.365   6.763   6.965 -0.2108  1.0060 -0.7764
  732MOL0     C98739   1.005   6.949   7.168  0.3641  0.7769 -0.3152
  732MOL0     C98740   0.914   6.843   7.204 -0.5776 -0.5664  1.0599
  732MOL0     C98741   0.793   6.872   7.276 -0.6923  0.0770 -0.3715
  732MOL0     C98742   0.771   7.001   7.329 -0.3778  0.0717 -0.2282
  732MOL0     O98743   0.668   7.032   7.405 -0.3425 -0.0269 -0.9049
  732MOL0     C98744   0.562   6.939   7.432 -0.4409  0.1809  0.1119
  732MOL0     C98745   0.611   6.853   7.547 -0.5096 -1.2181  0.1070
  732MOL0     C98746   0.507   6.762   7.617  0.3263  0.1362  0.7240
  732MOL0     C98747   0.425   6.665   7.527  0.8499  0.5267  0.0117
  732MOL0     C98748   0.502   6.583   7.445  0.2545  0.1431  0.6013
  732MOL0     C98749   0.572   6.509   7.378  0.1093  0.8495 -0.7951
  732MOL0     C98750   0.864   7.109   7.310  1.1485  0.6870 -1.0123
  732MOL0     C98751   0.977   7.077   7.224 -0.0463 -0.6262  0.0595
  732MOL0     C98752   1.056   7.198   7.189  0.0551  0.5075 -0.5660
  732MOL0     H98753   1.090   6.737   6.765 -0.6560  1.1885  1.0483
  732MOL0     H98754   1.244   6.610   6.633 -0.5733 -0.1589  0.1709
  732MOL0     H98755   1.577   6.390   6.807 -1.2240 -1.2295  3.0085
  732MOL0     H98756   1.400   6.412   6.801  0.2999  2.2675 -0.6256
  732MOL0     H98757   1.551   6.329   6.552 -0.4553 -0.3403  0.3984
  732MOL0     H98758   1.381   6.351   6.578  1.7370  1.8221 -0.2832
  732MOL0     H98759   1.418   6.187   6.785 -1.4648  0.4110 -1.4092
  732MOL0     H98760   1.582   6.171   6.713  0.0529  0.6238 -4.1916
  732MOL0     H98761   1.315   6.094   6.598 -0.8668  1.1725  1.6289
  732MOL0     H98762   1.465   6.067   6.508 -2.0618  1.1644 -1.2491
  732MOL0     H98763   1.546   5.911   6.681  0.1176  0.2494 -1.5942
  732MOL0     H98764   1.388   5.940   6.774  2.1553 -0.6260  1.7910
  732MOL0     H98765   1.263   5.840   6.607 -0.8303 -0.9589 -0.1238
  732MOL0     H98766   1.404   5.793   6.510 -1.5488 -2.4852 -1.0446
  732MOL0     H98767   1.294   5.698   6.765 -1.2147  5.8667 -0.6148
  732MOL0     H98768   1.467   5.680   6.749 -2.1297 -1.1066  1.9479
  732MOL0     H98769   1.249   5.572   6.562  0.6418  2.5180 -2.5852
  732MOL0     H98770   1.424   5.552   6.522  0.8965 -5.3300 -0.0310
  732MOL0     H98771   1.389   5.274   6.520  1.3858 -0.9192  0.3983
  732MOL0     H98772   1.373   5.037   6.817 -2.8011  3.4830  0.4458
  732MOL0     H98773   1.431   5.037   6.651 -2.1652 -1.4883  0.7079
  732MOL0     H98774   1.585   5.149   6.890 -0.8497 -0.0928  0.0379
  732MOL0     H98775   1.608   4.985   6.816 -0.8137  0.5578 -0.1751
  732MOL0     H98776   1.654   5.232   6.649 -1.9854 -1.3679  0.2891
  732MOL0     H98777   1.707   5.058   6.622  2.1378 -1.8806  2.2889
  732MOL0     H98778   1.865   5.040   6.756 -0.6927  0.3333 -1.7135
  732MOL0     H98779   1.798   5.157   6.876 -0.4894  1.7659 -0.8137
  732MOL0     H98780   1.975   5.313   6.939  2.4920  2.3060  1.1862
  732MOL0     H98781   1.959   5.537   7.044  0.7927 -3.3561  0.0062
  732MOL0     H98782   1.563   5.940   6.945  0.4602  0.1741 -0.0335
  732MOL0     H98783   1.511   6.159   7.046  0.4753 -0.4008  2.1082
  732MOL0     H98784   1.687   6.432   7.232 -3.8332 -0.0545 -0.7298
  732MOL0     H98785   1.835   6.427   7.149  0.3256 -0.7089 -0.7498
  732MOL0     H98786   1.704   6.621   7.006 -1.0943  0.0267  0.2041
  732MOL0     H98787   1.597   6.625   7.135  0.6163  2.7305  0.6648
  732MOL0     H98788   1.774   6.663   7.308 -0.3288  1.5435  1.0977
  732MOL0     H98789   1.892   6.661   7.169 -2.3467 -1.5549 -3.2830
  732MOL0     H98790   1.686   6.862   7.246  0.4716  0.1670  1.1965
  732MOL0     H98791   1.740   6.850   7.076 -2.0106  0.9020  0.2519
  732MOL0     H98792   1.979   6.866   7.179 -1.0415  2.7102 -2.1056
  732MOL0     H98793   1.888   6.923   7.329  1.1205 -1.4429  1.3005
  732MOL0     H98794   2.009   7.076   7.147 -0.0905  0.1287 -0.9241
  732MOL0     H98795   1.859   7.053   7.052  2.0604  0.0514 -1.6077
  732MOL0     H98796   1.868   7.175   7.340  0.6939 -0.4346 -0.7509
  732MOL0     H98797   1.728   7.131   7.255 -0.6325 -1.1929 -1.4587
  732MOL0     H98798   1.807   7.286   7.055 -1.6106  0.6743  0.7614
  732MOL0     H98799   1.778   7.374   7.203 -2.1996  1.9074 -2.8495
  732MOL0     H98800   1.908   6.292   6.938 -0.5224  0.0358 -2.3441
  732MOL0     H98801   1.968   6.070   6.886  0.3350 -0.5457  0.9993
  732MOL0     H98802   1.736   5.673   6.701  0.2680 -0.2292 -0.2020
  732MOL0     H98803   1.773   5.457   6.590 -1.2080  4.0571  0.2610
  732MOL0     H98804   1.571   6.702   6.897  0.2521 -1.1371  2.0595
  732MOL0     H98805   1.392   6.798   7.064 -3.7145 -0.1450  0.7373
  732MOL0     H98806   0.928   6.745   7.161  1.2539 -1.1220  2.7999
  732MOL0     H98807   0.726   6.788   7.289 -2.5128  1.4350 -0.4892
  732MOL0     H98808   0.549   6.883   7.339 -3.3563  0.9434 -0.0170
  732MOL0     H98809   0.467   6.986   7.457  0.8190  1.5771  2.7293
  732MOL0     H98810   0.642   6.926   7.623 -2.3172  0.0020 -0.2763
  732MOL0     H98811   0.697   6.788   7.524 -0.4445 -1.8251  1.8778
  732MOL0     H98812   0.436   6.819   7.677 -1.4867  0.9180 -1.9719
  732MOL0     H98813   0.570   6.709   7.688  0.6051 -2.5839 -1.3766
  732MOL0     H98814   0.364   6.607   7.597  3.7411  2.1035  4.2108
  732MOL0     H98815   0.360   6.730   7.467  0.9091  2.0253  1.4854
  732MOL0     H98816   0.625   6.438   7.318 -0.6704 -0.0123 -0.4850
  732MOL0     H98817   0.830   7.199   7.360  1.3799  0.8261 -1.1053
  732MOL0     H98818   1.023   7.285   7.248  0.1606 -1.2745  2.3218
  732MOL0     H98819   1.156   7.170   7.224  0.3241  2.2849  0.1981
  732MOL0     H98820   1.047   7.231   7.085 -0.4971 -2.7050 -1.6433
  733MOL0     O98821   9.251   3.013   2.080 -0.0770  0.0181 -0.3713
  733MOL0     C98822   9.179   3.083   2.001 -1.0463  0.1440  0.1001
  733MOL0     O98823   9.172   3.055   1.867  0.5388 -0.6146  0.5530
  733MOL0     C98824   9.275   2.984   1.809 -0.3776 -0.5670  0.2482
  733MOL0     C98825   9.405   3.033   1.801 -0.2302  0.6555  0.5056
  733MOL0     C98826   9.512   2.955   1.757  0.4499  1.0268 -0.2927
  733MOL0     C98827   9.484   2.818   1.721 -0.5194 -0.2800 -0.2366
  733MOL0     O98828   9.592   2.759   1.687 -0.2537 -0.3729  0.5264
  733MOL0     C98829   9.596   2.638   1.613 -0.1692 -0.5636 -0.3390
  733MOL0     C98830   9.737   2.596   1.562 -0.4552 -0.3663 -0.4798
  733MOL0     C98831   9.724   2.473   1.474  0.2836  0.1541  0.3226
  733MOL0     C98832   9.868   2.420   1.460 -0.4089  0.1536  0.6937
  733MOL0     C98833   9.882   2.302   1.354 -0.2724 -0.0127  0.0406
  733MOL0     C98834  10.026   2.244   1.356  1.0587 -0.1356  0.1222
  733MOL0     C98835  10.027   2.140   1.248 -0.0177 -0.9650 -0.5706
  733MOL0     C98836  10.158   2.053   1.238  0.4102  0.3306  0.1791
  733MOL0     N98837  10.195   1.982   1.363 -0.1743  0.2032 -0.0209
  733MOL0     C98838  10.319   1.980   1.410 -0.6443 -0.5501 -0.9257
  733MOL0     C98839  10.321   1.880   1.497  0.1634  0.1865 -0.4848
  733MOL0     C98840  10.424   1.837   1.590  1.1773  0.0283  1.1082
  733MOL0     C98841  10.412   1.907   1.729 -0.4972 -0.5833  0.2049
  733MOL0     C98842  10.414   2.062   1.710  0.6027 -0.4523 -0.3593
  733MOL0     C98843  10.438   2.132   1.847 -0.1524  0.9720 -0.6020
  733MOL0     O98844  10.496   2.262   1.818 -0.3893 -0.0628 -0.3376
  733MOL0     C98845  10.509   2.360   1.919  0.5869  0.0911  0.2494
  733MOL0     C98846  10.573   2.334   2.043  1.1083  0.8912  1.0717
  733MOL0     C98847  10.606   2.447   2.118  0.6485 -0.1085 -0.2509
  733MOL0     C98848  10.578   2.582   2.072  0.0500  0.7054 -0.0216
  733MOL0     C98849  10.630   2.705   2.138  0.4080  0.0419  0.2340
  733MOL0     O98850  10.575   2.823   2.098 -0.5115 -0.2524 -1.1202
  733MOL0     C98851  10.631   2.940   2.136  0.4835  0.0160 -1.3040
  733MOL0     C98852  10.751   2.988   2.106  0.4299  0.0465  0.3285
  733MOL0     C98853  10.790   3.119   2.126 -0.0460 -0.1450 -0.5519
  733MOL0     C98854  10.702   3.207   2.192  0.1958 -0.4113 -0.4671
  733MOL0     O98855  10.736   3.337   2.236 -0.5278 -0.4958 -0.2173
  733MOL0     C98856  10.810   3.411   2.138  0.1183 -0.7244  0.5428
  733MOL0     C98857  10.789   3.556   2.171  0.0036  0.3666 -0.3289
  733MOL0     C98858  10.867   3.603   2.300 -0.0636  0.2390  0.4632
  733MOL0     C98859  10.902   3.751   2.291 -0.1439  0.2968  0.8173
  733MOL0     C98860  10.943   3.799   2.423  0.2939 -0.1405 -0.8655
  733MOL0     C98861  11.053   3.911   2.406 -0.9974 -0.1304  0.2970
  733MOL0     C98862  11.098   3.982   2.539 -0.1071  0.3709  0.0036
  733MOL0     C98863  10.987   4.064   2.606 -0.8397 -0.2144  0.0171
  733MOL0    Cl98864  10.900   4.160   2.475 -0.3383 -0.1658  0.2351
  733MOL0     C98865  10.580   3.162   2.232  0.6577  0.3875  0.2968
  733MOL0     C98866  10.545   3.032   2.201  0.4047 -0.2197 -0.2167
  733MOL0     O98867  10.724   2.695   2.213 -0.6765 -0.5781 -0.2030
  733MOL0     C98868  10.523   2.598   1.950  0.3828  0.2268  0.7675
  733MOL0     C98869  10.490   2.492   1.875 -0.5774 -0.0135 -0.3351
  733MOL0     N98870  10.194   1.823   1.505 -0.9022  0.0227  0.2052
  733MOL0     N98871  10.120   1.899   1.443 -0.4628  0.0283  0.0544
  733MOL0     C98872   9.355   2.766   1.727 -0.0701 -1.0947 -0.0798
  733MOL0     C98873   9.253   2.853   1.756  0.5722 -0.7938  0.5702
  733MOL0     C98874   9.076   3.184   2.042 -0.3681  0.2468  0.6770
  733MOL0     C98875   8.947   3.182   1.974 -0.3785 -0.6639 -0.2883
  733MOL0     C98876   8.856   3.293   1.988  0.0002  0.4191  0.6907
  733MOL0     C98877   8.876   3.397   2.087  0.2642  0.0164  0.1820
  733MOL0     O98878   8.798   3.499   2.133 -0.0044 -0.0944 -0.2572
  733MOL0     C98879   8.660   3.505   2.084 -0.5483  0.2527 -0.2143
  733MOL0     C98880   8.570   3.592   2.171 -0.2526 -0.3101  0.6212
  733MOL0     C98881   8.516   3.514   2.295  0.0917  1.0699 -0.9924
  733MOL0     C98882   8.430   3.390   2.281  0.1959  0.4050 -1.1983
  733MOL0     C98883   8.345   3.389   2.165 -0.8349  0.2833 -1.3876
  733MOL0     C98884   8.273   3.372   2.074  0.6934 -0.2735  0.1038
  733MOL0     C98885   9.002   3.389   2.159 -0.3314  0.2936  0.2847
  733MOL0     C98886   9.103   3.288   2.131 -0.0802 -0.4280  0.5099
  733MOL0     C98887   9.239   3.301   2.196  0.3352 -0.8116 -0.0203
  733MOL0     H98888   9.434   3.118   1.862  3.2789 -1.7697  2.5573
  733MOL0     H98889   9.614   2.988   1.739  1.4285 -0.5914  1.9466
  733MOL0     H98890   9.571   2.550   1.673  2.0017  0.4520  2.2537
  733MOL0     H98891   9.523   2.635   1.532 -1.1332 -2.2345  0.5317
  733MOL0     H98892   9.800   2.579   1.650  2.0788 -2.2119 -2.4833
  733MOL0     H98893   9.786   2.678   1.508  0.2438  1.6766  2.9510
  733MOL0     H98894   9.691   2.497   1.372  3.2144  1.3506 -0.4601
  733MOL0     H98895   9.665   2.395   1.522 -4.5203  3.1152 -0.1018
  733MOL0     H98896   9.939   2.493   1.421 -1.5865  1.6885  1.3349
  733MOL0     H98897   9.908   2.385   1.556  2.8683  2.5193  0.3249
  733MOL0     H98898   9.816   2.219   1.380  2.0224 -1.6542  1.0422
  733MOL0     H98899   9.862   2.339   1.253 -2.5552  1.7409  1.0320
  733MOL0     H98900  10.105   2.315   1.330  3.5758 -1.8765  2.4716
  733MOL0     H98901  10.056   2.202   1.452 -0.4484 -2.5981 -0.3894
  733MOL0     H98902  10.001   2.182   1.151 -3.7874  2.7405  1.6603
  733MOL0     H98903   9.948   2.067   1.271 -1.6909  0.2944 -1.9900
  733MOL0     H98904  10.138   1.973   1.166  0.2899  0.4276  0.1033
  733MOL0     H98905  10.251   2.106   1.213 -0.2615  1.1624 -0.6572
  733MOL0     H98906  10.400   2.042   1.371 -2.9622  2.6736 -1.0440
  733MOL0     H98907  10.395   1.732   1.603 -0.1971  0.0827 -1.0171
  733MOL0     H98908  10.517   1.847   1.533 -0.1519 -2.8517 -1.9491
  733MOL0     H98909  10.314   1.879   1.767 -0.1186 -2.7128 -0.2735
  733MOL0     H98910  10.483   1.863   1.799  0.1563 -1.2971 -0.8723
  733MOL0     H98911  10.321   2.091   1.661  0.6459 -0.4824 -0.4598
  733MOL0     H98912  10.494   2.089   1.641  1.4494  1.5050  1.3021
  733MOL0     H98913  10.501   2.076   1.916 -1.6839  1.0131  0.8947
  733MOL0     H98914  10.341   2.156   1.891  0.6224  1.4116  0.9380
  733MOL0     H98915  10.593   2.232   2.076 -0.4948  0.8542  2.0373
  733MOL0     H98916  10.661   2.452   2.212 -0.2085  2.1818  0.1952
  733MOL0     H98917  10.820   2.915   2.064  0.1156 -0.1710  0.1837
  733MOL0     H98918  10.893   3.153   2.113 -0.6460  1.6088 -1.1148
  733MOL0     H98919  10.917   3.392   2.146 -0.0298 -1.7881  0.2082
  733MOL0     H98920  10.786   3.382   2.035  0.0005  2.6643 -0.5110
  733MOL0     H98921  10.829   3.615   2.089  0.9489  0.0248 -0.1208
  733MOL0     H98922  10.682   3.577   2.179  0.0854  0.5710  0.2232
  733MOL0     H98923  10.801   3.571   2.382  1.6227 -2.3879  0.9036
  733MOL0     H98924  10.957   3.541   2.306 -0.4398 -0.7316 -2.4565
  733MOL0     H98925  10.833   3.820   2.242  2.0662  0.0437 -3.0044
  733MOL0     H98926  10.992   3.756   2.229 -0.6690  0.5895  0.0679
  733MOL0     H98927  10.990   3.723   2.486 -0.0447  1.8570  1.9994
  733MOL0     H98928  10.858   3.833   2.483 -0.7006 -1.1126 -1.6688
  733MOL0     H98929  11.141   3.855   2.373 -0.3821 -0.6777  2.6157
  733MOL0     H98930  11.023   3.983   2.330 -0.6104 -1.9667 -1.6822
  733MOL0     H98931  11.175   4.050   2.501 -0.2424 -1.4080 -3.8800
  733MOL0     H98932  11.136   3.910   2.613  2.1028  0.3662 -1.0771
  733MOL0     H98933  10.928   4.000   2.671 -4.3936  0.7902 -1.9697
  733MOL0     H98934  11.042   4.141   2.661 -0.9338  0.3782 -0.7079
  733MOL0     H98935  10.504   3.218   2.286 -2.1768 -1.9475 -1.0002
  733MOL0     H98936  10.443   3.003   2.225  0.6656  0.1259  1.4589
  733MOL0     H98937  10.505   2.694   1.903  0.6808  0.9287  2.0321
  733MOL0     H98938  10.456   2.509   1.773 -0.2809  2.9708 -0.0171
  733MOL0     H98939   9.340   2.670   1.680  0.4067 -1.1730 -0.0810
  733MOL0     H98940   9.148   2.829   1.749  0.2761 -0.0201  1.9291
  733MOL0     H98941   8.916   3.112   1.898 -0.8851 -1.4694  0.6481
  733MOL0     H98942   8.767   3.278   1.928  0.5786 -3.5451  0.5243
  733MOL0     H98943   8.626   3.401   2.082 -1.0129  0.3577  1.1314
  733MOL0     H98944   8.653   3.554   1.987 -1.6508  1.5698  0.5053
  733MOL0     H98945   8.488   3.614   2.102  0.6967  0.9107 -0.1638
  733MOL0     H98946   8.615   3.686   2.204 -0.4514  1.3487 -3.2460
  733MOL0     H98947   8.460   3.580   2.362 -2.9283 -0.9366 -1.3067
  733MOL0     H98948   8.603   3.490   2.357 -1.4068 -0.8472  0.5121
  733MOL0     H98949   8.492   3.300   2.279 -1.7694 -1.0326 -0.9502
  733MOL0     H98950   8.368   3.381   2.371  2.3475  1.3767  0.4765
  733MOL0     H98951   8.222   3.368   1.980  1.2402  5.7157 -0.8487
  733MOL0     H98952   9.028   3.460   2.237  0.4187 -0.8526  1.1002
  733MOL0     H98953   9.219   3.362   2.285  1.5210  2.7338 -1.9896
  733MOL0     H98954   9.279   3.203   2.225  1.7427 -0.5484 -1.0147
  733MOL0     H98955   9.313   3.343   2.128  2.0851 -1.5256  1.3706
  734MOL0     O98956  10.285   3.242  10.395  0.1067  0.3096 -0.4992
  734MOL0     C98957  10.237   3.198  10.502 -0.7730  0.3301 -0.0086
  734MOL0     O98958  10.310   3.155  10.622  0.3958  0.6696  1.0444
  734MOL0     C98959  10.444   3.179  10.615  1.0470 -0.4226 -0.5962
  734MOL0     C98960  10.483   3.283  10.698 -0.3667 -0.3498  0.7443
  734MOL0     C98961  10.615   3.308  10.700  0.1696  0.5078 -0.7341
  734MOL0     C98962  10.713   3.222  10.641  0.8278 -0.0227 -0.3819
  734MOL0     O98963  10.843   3.255  10.647 -0.0069  0.5761 -0.3887
  734MOL0     C98964  10.937   3.143  10.669  0.6355 -0.1072  0.2633
  734MOL0     C98965  11.067   3.200  10.731 -0.6139  0.1137  0.4425
  734MOL0     C98966  11.137   3.322  10.659 -0.1568 -0.3365  0.1990
  734MOL0     C98967  11.116   3.444  10.744 -0.0153 -0.2444  0.4731
  734MOL0     C98968  11.205   3.450  10.868 -0.4117 -0.2589 -0.0368
  734MOL0     C98969  11.194   3.595  10.930  0.1093  1.0448 -0.1561
  734MOL0     C98970  11.265   3.707  10.852  0.3814  0.6583  0.2524
  734MOL0     C98971  11.275   3.833  10.937  0.0461  0.2318  0.4810
  734MOL0     N98972  11.331   3.942  10.856 -0.0774  0.1423 -0.2986
  734MOL0     C98973  11.279   3.987  10.741  0.2299 -0.2136  0.3808
  734MOL0     C98974  11.344   4.099  10.715  0.7743  0.3682 -1.0283
  734MOL0     C98975  11.320   4.200  10.616 -1.0098 -0.3694 -0.7000
  734MOL0     C98976  11.387   4.174  10.485 -0.1941 -0.2026  0.2892
  734MOL0     C98977  11.301   4.109  10.379 -0.3638  0.5998 -0.1072
  734MOL0     C98978  11.387   4.053  10.264 -0.0764  0.0450  0.0058
  734MOL0     O98979  11.409   4.162  10.173  0.4102  0.3030  0.2518
  734MOL0     C98980  11.510   4.241  10.186 -0.7104 -0.0201 -0.1343
  734MOL0     C98981  11.642   4.200  10.208  0.0398  0.0487  0.1342
  734MOL0     C98982  11.754   4.280  10.228  0.2806 -0.1186  0.6924
  734MOL0     C98983  11.737   4.418  10.209  0.1879  0.0308  0.6329
  734MOL0     C98984  11.853   4.519  10.204 -0.1121  0.6848 -0.3122
  734MOL0     O98985  11.831   4.647  10.163  0.1117  0.6886 -0.7020
  734MOL0     C98986  11.926   4.739  10.189 -0.5989 -0.2585 -0.1508
  734MOL0     C98987  11.910   4.825  10.294  1.0092 -0.2619 -1.1658
  734MOL0     C98988  11.990   4.935  10.319 -0.4181 -0.8455 -0.2800
  734MOL0     C98989  12.109   4.949  10.247 -0.2361  0.1210  0.3874
  734MOL0     O98990  12.182   5.061  10.275 -0.4833 -0.1846  0.5103
  734MOL0     C98991  12.299   5.031  10.364 -0.0967 -1.1896  0.3489
  734MOL0     C98992  12.274   4.964  10.502  0.3409 -0.0941 -0.3228
  734MOL0     C98993  12.192   5.054  10.590 -0.6537  0.4791 -0.4433
  734MOL0     C98994  12.158   4.990  10.731 -1.1440  0.2979  0.4589
  734MOL0     C98995  12.052   5.064  10.820 -0.1345 -0.4433  0.4776
  734MOL0     C98996  12.046   4.985  10.948 -0.0065  0.4365 -1.0469
  734MOL0     C98997  11.921   4.890  10.939  0.2926  0.9496 -0.5794
  734MOL0     C98998  11.900   4.799  11.067 -0.8092  0.2673 -0.9043
  734MOL0    Cl98999  11.758   4.682  11.047  0.4760 -0.5666  0.1568
  734MOL0     C99000  12.128   4.873  10.130 -0.4040 -0.6425  0.8483
  734MOL0     C99001  12.029   4.773  10.099 -0.0721  0.2441  0.6556
  734MOL0     O99002  11.965   4.478  10.234  0.5055 -0.1056 -0.2553
  734MOL0     C99003  11.610   4.468  10.181 -0.3437  0.4588  0.2354
  734MOL0     C99004  11.496   4.378  10.167 -0.5813  0.5247  0.0056
  734MOL0     N99005  11.440   4.126  10.816 -0.5304  0.1726  0.3804
  734MOL0     N99006  11.441   4.014  10.898 -0.2277 -0.9125 -0.0676
  734MOL0     C99007  10.663   3.116  10.560  0.9931 -0.3676 -0.0396
  734MOL0     C99008  10.525   3.090  10.551 -0.3475 -0.3470 -0.0466
  734MOL0     C99009  10.085   3.181  10.497  0.0027 -0.2544  0.3128
  734MOL0     C99010  10.048   3.051  10.514 -0.2764 -0.3562  0.1985
  734MOL0     C99011   9.911   3.024  10.516  0.4632 -0.1578  0.3256
  734MOL0     C99012   9.804   3.126  10.484 -0.0213 -0.0828 -0.6864
  734MOL0     O99013   9.668   3.103  10.471  0.3404  0.6841  0.6844
  734MOL0     C99014   9.621   2.970  10.451  0.2269 -0.2836 -1.4922
  734MOL0     C99015   9.481   2.990  10.401 -0.4465 -0.7840 -0.6981
  734MOL0     C99016   9.391   2.873  10.413  0.3026  0.3263  0.2632
  734MOL0     C99017   9.361   2.820  10.551 -0.4018 -0.0774 -0.4994
  734MOL0     C99018   9.281   2.700  10.530 -0.0584  0.7434 -1.1051
  734MOL0     C99019   9.195   2.614  10.525 -0.1161  0.0231 -0.4027
  734MOL0     C99020   9.858   3.258  10.465 -0.5531 -0.5979  0.7284
  734MOL0     C99021   9.989   3.283  10.483 -0.3608  0.4081 -0.7262
  734MOL0     C99022  10.031   3.425  10.474 -0.1673 -0.3451  0.1299
  734MOL0     H99023  10.416   3.355  10.744  1.7109  0.7151  2.2726
  734MOL0     H99024  10.643   3.401  10.748 -0.5625  0.8487 -0.9437
  734MOL0     H99025  10.901   3.050  10.716  0.9134 -1.3279 -1.8088
  734MOL0     H99026  10.959   3.107  10.568  2.0996 -0.9179  0.8284
  734MOL0     H99027  11.144   3.123  10.724 -0.7029  0.0519  0.1656
  734MOL0     H99028  11.037   3.217  10.835 -1.3498 -6.0194  1.5924
  734MOL0     H99029  11.091   3.336  10.561 -1.6618  1.3878  1.0952
  734MOL0     H99030  11.243   3.305  10.642 -0.2197  0.9554 -1.6423
  734MOL0     H99031  11.144   3.529  10.681  2.5849 -0.4666  1.1985
  734MOL0     H99032  11.011   3.457  10.770 -0.1768  0.9358 -0.7198
  734MOL0     H99033  11.175   3.378  10.944 -0.1350  0.8268  1.1205
  734MOL0     H99034  11.306   3.420  10.838  1.1963  1.9410  2.7107
  734MOL0     H99035  11.085   3.600  10.940 -0.0869 -1.3779 -0.5238
  734MOL0     H99036  11.244   3.598  11.027 -1.6311 -0.7198  0.8593
  734MOL0     H99037  11.210   3.737  10.762 -0.5377 -0.0835  0.5549
  734MOL0     H99038  11.365   3.692  10.811 -0.6399 -1.0708 -1.8067
  734MOL0     H99039  11.181   3.857  10.988  0.4436 -1.6562  2.2293
  734MOL0     H99040  11.354   3.820  11.012 -0.0202  1.8194  0.8560
  734MOL0     H99041  11.190   3.951  10.692 -1.0680  1.5073  1.3752
  734MOL0     H99042  11.213   4.220  10.608 -0.4015  3.1812 -1.7764
  734MOL0     H99043  11.348   4.293  10.665  0.0963 -0.6907 -0.6885
  734MOL0     H99044  11.408   4.272  10.440 -2.7644  0.4920  0.4641
  734MOL0     H99045  11.482   4.125  10.507  1.4969  1.6190 -2.2850
  734MOL0     H99046  11.216   4.172  10.352 -1.4107 -0.9800 -0.6354
  734MOL0     H99047  11.251   4.023  10.424  1.3926 -2.5075 -3.5236
  734MOL0     H99048  11.327   3.968  10.228  0.2093 -0.9540  1.7533
  734MOL0     H99049  11.482   4.008  10.294  1.2258  2.8026  0.3314
  734MOL0     H99050  11.671   4.099  10.182 -1.8651 -0.1616 -1.3882
  734MOL0     H99051  11.850   4.232  10.236 -0.0306 -1.8585 -3.5751
  734MOL0     H99052  11.816   4.819  10.348  0.8448 -0.3988 -1.4627
  734MOL0     H99053  11.961   5.008  10.394  1.2729 -0.3602 -0.0625
  734MOL0     H99054  12.362   4.969  10.299 -0.2360  0.6725 -1.6441
  734MOL0     H99055  12.354   5.123  10.385 -2.9350  0.1998  2.2658
  734MOL0     H99056  12.229   4.868  10.477 -2.1550  1.6247 -3.1377
  734MOL0     H99057  12.372   4.955  10.550 -0.5501 -0.8380  1.4067
  734MOL0     H99058  12.253   5.139  10.623 -1.6557  0.5867  1.2344
  734MOL0     H99059  12.103   5.089  10.538 -0.3012 -0.1300 -1.4773
  734MOL0     H99060  12.248   4.979  10.792  1.4460 -1.1062 -3.3082
  734MOL0     H99061  12.117   4.889  10.721  2.7877 -1.4021 -0.1114
  734MOL0     H99062  11.954   5.067  10.770 -0.3710 -0.4220  0.9343
  734MOL0     H99063  12.080   5.170  10.827 -0.6700 -0.3160  0.7521
  734MOL0     H99064  12.139   4.928  10.964 -0.3019  0.3397  0.4365
  734MOL0     H99065  12.035   5.053  11.033 -0.5808  1.2760 -1.7858
  734MOL0     H99066  11.936   4.822  10.855 -0.9648 -1.4310  1.0127
  734MOL0     H99067  11.831   4.953  10.932 -0.0609  0.3367 -2.0144
  734MOL0     H99068  11.988   4.746  11.104  0.3996  1.2351 -2.2955
  734MOL0     H99069  11.879   4.881  11.135  0.8148 -0.0040 -0.0274
  734MOL0     H99070  12.193   4.904  10.049 -3.6531  1.3898 -1.2620
  734MOL0     H99071  12.036   4.724  10.002 -4.6810  0.8552 -0.1979
  734MOL0     H99072  11.606   4.575  10.160 -1.4460  0.3942  0.0353
  734MOL0     H99073  11.406   4.434  10.145  0.2749  2.1345  0.4340
  734MOL0     H99074  10.737   3.049  10.519  0.3655  0.3297 -2.4843
  734MOL0     H99075  10.478   3.011  10.493 -1.6781  1.0426 -0.9289
  734MOL0     H99076  10.108   2.966  10.544 -0.9987 -1.2322 -0.7859
  734MOL0     H99077   9.888   2.918  10.529 -3.7704  0.6518  1.1134
  734MOL0     H99078   9.636   2.932  10.553  4.6708  3.4195 -0.4115
  734MOL0     H99079   9.687   2.913  10.384 -0.5012  1.2506 -3.6392
  734MOL0     H99080   9.500   3.034  10.302  1.2270  0.9637  0.3393
  734MOL0     H99081   9.420   3.062  10.456  0.5835  0.3762 -1.0413
  734MOL0     H99082   9.423   2.797  10.342 -1.6681  1.0363 -1.4927
  734MOL0     H99083   9.294   2.910  10.377  0.4983  0.9548  0.3809
  734MOL0     H99084   9.449   2.796  10.611 -1.1945  0.2616  0.8266
  734MOL0     H99085   9.294   2.892  10.599 -2.6896 -3.6965  2.1614
  734MOL0     H99086   9.125   2.535  10.507  0.8880 -0.8462 -0.6209
  734MOL0     H99087   9.790   3.333  10.425 -2.4073 -2.4924  0.2067
  734MOL0     H99088  10.140   3.428  10.465 -0.1631 -0.8498  0.0037
  734MOL0     H99089  10.001   3.474  10.380  0.0761  0.0700  0.2678
  734MOL0     H99090   9.995   3.482  10.560  0.4366  2.3280 -1.2525
  735MOL0     O99091   2.911   7.003   7.941  0.5094 -0.3678 -1.0841
  735MOL0     C99092   2.978   6.985   8.042  0.8556  0.6329 -0.2989
  735MOL0     O99093   3.015   7.087   8.130 -0.6320  0.2400 -0.4581
  735MOL0     C99094   2.952   7.205   8.112 -0.3779 -0.3699 -0.7862
  735MOL0     C99095   2.990   7.305   8.021  0.7489 -0.2469  0.7471
  735MOL0     C99096   2.922   7.431   8.017  0.0880 -0.0640  0.1772
  735MOL0     C99097   2.814   7.465   8.097  0.1265 -0.2848 -0.5771
  735MOL0     O99098   2.764   7.593   8.095 -0.3315  0.2049  0.2353
  735MOL0     C99099   2.634   7.627   8.165 -0.8128  0.9443  0.4512
  735MOL0     C99100   2.587   7.758   8.096 -0.0960 -0.1154 -1.0979
  735MOL0     C99101   2.442   7.789   8.109 -0.3931 -0.0858  0.5983
  735MOL0     C99102   2.384   7.913   8.038  0.6764 -0.8496 -0.8823
  735MOL0     C99103   2.230   7.950   8.085 -0.3060 -0.2976 -0.0021
  735MOL0     C99104   2.191   8.079   8.015 -0.1467  1.1822 -0.0590
  735MOL0     C99105   2.058   8.128   8.078  0.1943  0.1035  1.4391
  735MOL0     C99106   1.976   8.196   7.964 -0.1014 -0.1120  0.2595
  735MOL0     N99107   2.030   8.335   7.938 -0.1760  0.1836 -0.0992
  735MOL0     C99108   1.986   8.445   8.001 -0.1855 -0.8438  0.1983
  735MOL0     C99109   2.056   8.546   7.947 -0.1628 -0.2822  1.1013
  735MOL0     C99110   2.046   8.693   7.966  0.9596  0.4078  0.1611
  735MOL0     C99111   2.100   8.736   8.100 -0.1601 -0.0960  0.5475
  735MOL0     C99112   2.164   8.876   8.092 -0.2386  0.3900 -0.0593
  735MOL0     C99113   2.230   8.925   8.221 -0.1362  0.5533  0.8888
  735MOL0     O99114   2.125   8.939   8.309 -0.6469  0.1087 -0.2192
  735MOL0     C99115   2.146   8.960   8.446 -0.3036  0.2197  0.7719
  735MOL0     C99116   2.276   8.926   8.505  1.0316 -0.1732 -0.7729
  735MOL0     C99117   2.281   8.930   8.648 -0.3301 -0.3913  0.3641
  735MOL0     C99118   2.166   8.961   8.724 -0.6576 -0.2761 -0.3179
  735MOL0     C99119   2.173   8.916   8.864  0.0764 -0.4613  0.1043
  735MOL0     O99120   2.079   8.975   8.942  0.6832  0.2144 -0.4265
  735MOL0     C99121   2.076   8.961   9.077  0.3466  0.0113 -0.0016
  735MOL0     C99122   2.036   9.074   9.148 -0.3456  0.0181  0.7402
  735MOL0     C99123   2.006   9.073   9.287 -0.8990  0.1162  0.3304
  735MOL0     C99124   2.033   8.953   9.357  0.3507  0.4425 -1.3238
  735MOL0     O99125   2.024   8.942   9.495  0.3785 -0.3957 -0.0009
  735MOL0     C99126   2.117   9.024   9.570 -0.0769 -0.1467 -0.5912
  735MOL0     C99127   2.168   8.952   9.698  0.0098  0.8287  0.1518
  735MOL0     C99128   2.053   8.920   9.794 -0.3604  0.8901 -0.9011
  735MOL0     C99129   2.014   9.032   9.893 -0.2099  0.1076  0.0616
  735MOL0     C99130   1.893   9.012   9.991  0.2547  0.2668 -0.3459
  735MOL0     C99131   1.926   8.965  10.129  0.0951  0.2322  1.8035
  735MOL0     C99132   1.998   8.824  10.129  0.4671  0.2483  0.6236
  735MOL0     C99133   1.967   8.748  10.252  0.4836  0.2408 -0.0071
  735MOL0    Cl99134   1.808   8.661  10.276  0.1349 -0.2146  0.1495
  735MOL0     C99135   2.081   8.837   9.285 -0.8349 -0.6120  0.2200
  735MOL0     C99136   2.086   8.846   9.149 -0.6408  1.3474  0.3110
  735MOL0     O99137   2.252   8.830   8.896 -0.6439  0.3303 -0.5503
  735MOL0     C99138   2.051   9.005   8.659 -0.1679  0.1395  0.1271
  735MOL0     C99139   2.041   8.996   8.522  0.5046  0.3823 -0.0478
  735MOL0     N99140   2.139   8.503   7.846  0.1158  0.1134 -0.7043
  735MOL0     N99141   2.131   8.375   7.848  0.1500 -0.2163  1.1686
  735MOL0     C99142   2.781   7.361   8.181 -0.0603  0.1721 -0.3074
  735MOL0     C99143   2.842   7.238   8.187 -0.0475 -0.8020  0.1501
  735MOL0     C99144   3.035   6.846   8.068 -0.3956  0.1027  0.2366
  735MOL0     C99145   3.124   6.835   8.175  0.5970  0.5199 -0.1040
  735MOL0     C99146   3.185   6.715   8.201  0.1423  0.3510  0.4688
  735MOL0     C99147   3.154   6.598   8.131 -0.8806 -0.4290 -0.6139
  735MOL0     O99148   3.208   6.471   8.158  0.2663  0.6169 -0.2442
  735MOL0     C99149   3.349   6.458   8.143  0.0083  0.0068  0.1064
  735MOL0     C99150   3.387   6.380   8.018  0.2346  0.2354  0.7784
  735MOL0     C99151   3.539   6.394   8.008  0.2624 -0.4526 -0.3994
  735MOL0     C99152   3.618   6.352   7.878 -0.0996 -0.3786  0.0984
  735MOL0     C99153   3.546   6.399   7.756  0.3958  0.3840 -0.1285
  735MOL0     C99154   3.487   6.445   7.658  0.1620 -0.2526 -1.3168
  735MOL0     C99155   3.070   6.598   8.023  1.2011 -0.4448 -0.3840
  735MOL0     C99156   3.018   6.726   7.987 -0.4281 -1.0434  0.1116
  735MOL0     C99157   2.933   6.720   7.856  0.5237  0.5624 -0.0088
  735MOL0     H99158   3.061   7.272   7.946  1.4015  1.8310  0.3927
  735MOL0     H99159   2.973   7.505   7.956 -1.0053 -1.1165 -2.1795
  735MOL0     H99160   2.559   7.548   8.160  1.9507 -2.0051  1.7616
  735MOL0     H99161   2.654   7.639   8.272 -2.6757  1.3931  0.7840
  735MOL0     H99162   2.607   7.755   7.989  1.1434 -2.5779 -0.8831
  735MOL0     H99163   2.648   7.841   8.132 -0.6339  0.1201 -0.7113
  735MOL0     H99164   2.417   7.794   8.216 -0.1302 -0.9912  0.7103
  735MOL0     H99165   2.403   7.704   8.054  1.4446  0.3732 -1.5745
  735MOL0     H99166   2.454   7.998   8.037 -1.2124  0.8830  1.4463
  735MOL0     H99167   2.378   7.879   7.934  0.0345 -2.9595 -0.1892
  735MOL0     H99168   2.159   7.867   8.090 -1.0332  0.3760  2.2101
  735MOL0     H99169   2.219   7.990   8.186 -2.7299 -0.4476 -0.1481
  735MOL0     H99170   2.270   8.150   8.040  3.5901 -2.2862 -0.9416
  735MOL0     H99171   2.188   8.066   7.906  0.1565  1.5241 -0.1075
  735MOL0     H99172   2.077   8.191   8.165  0.1602  0.4638  1.1855
  735MOL0     H99173   1.990   8.048   8.111 -0.4843 -1.7087 -3.5246
  735MOL0     H99174   1.989   8.139   7.871  0.1833  0.3023  0.0428
  735MOL0     H99175   1.872   8.216   7.993 -0.4703  0.0078 -1.0669
  735MOL0     H99176   1.903   8.463   8.069  1.4583  0.2152  2.0224
  735MOL0     H99177   2.102   8.742   7.885 -2.5272 -0.6863 -3.1916
  735MOL0     H99178   1.943   8.730   7.967  0.6497  0.0930 -3.8472
  735MOL0     H99179   2.027   8.736   8.181  0.6789  0.1358  1.3288
  735MOL0     H99180   2.177   8.659   8.115  0.1743 -0.0848 -0.9377
  735MOL0     H99181   2.085   8.936   8.047 -1.0265 -0.0585  0.6785
  735MOL0     H99182   2.250   8.883   8.025  0.8450  2.7579  1.4489
  735MOL0     H99183   2.285   9.019   8.215  1.3381 -0.3512 -1.1485
  735MOL0     H99184   2.313   8.863   8.256  0.3055  0.2764 -0.5714
  735MOL0     H99185   2.359   8.882   8.451  1.5877  1.5129 -1.3336
  735MOL0     H99186   2.362   8.882   8.703  1.3439  0.2123 -1.4252
  735MOL0     H99187   2.015   9.171   9.103  0.3306 -1.8932 -4.4230
  735MOL0     H99188   1.967   9.163   9.335  1.0025  1.4675 -0.5366
  735MOL0     H99189   2.205   9.040   9.507  0.1592  0.0376 -0.2174
  735MOL0     H99190   2.071   9.114   9.613 -2.2435 -0.5981 -1.7872
  735MOL0     H99191   2.214   8.859   9.666  1.2507  1.6897 -0.6610
  735MOL0     H99192   2.236   9.019   9.750 -1.3149  1.4747  1.1151
  735MOL0     H99193   1.971   8.876   9.737  0.2876 -1.7215  0.0227
  735MOL0     H99194   2.091   8.831   9.845 -1.3842  1.1039  0.2893
  735MOL0     H99195   2.020   9.126   9.837 -1.1876  2.1102  3.0725
  735MOL0     H99196   2.106   9.042   9.952 -0.4348  1.0645  0.2732
  735MOL0     H99197   1.816   8.946   9.950 -0.6028  0.9141  0.2050
  735MOL0     H99198   1.843   9.108   9.998 -1.2028 -0.5637  1.4391
  735MOL0     H99199   1.993   9.037  10.177 -0.8343  1.2994  1.5417
  735MOL0     H99200   1.836   8.950  10.190 -1.9891 -3.6106 -1.6955
  735MOL0     H99201   2.103   8.846  10.150  0.2418 -1.4817  4.4915
  735MOL0     H99202   1.988   8.772  10.034 -1.1848  1.7515 -0.0898
  735MOL0     H99203   2.044   8.675  10.279 -1.0805 -1.8876 -1.0430
  735MOL0     H99204   1.975   8.826  10.328 -0.7845 -0.7821  1.2180
  735MOL0     H99205   2.109   8.746   9.338  0.3032 -0.0872  0.5427
  735MOL0     H99206   2.100   8.755   9.092 -4.1480  1.6200 -1.2312
  735MOL0     H99207   1.959   9.028   8.712  0.2090  1.5927  0.2072
  735MOL0     H99208   1.943   9.009   8.477  0.7782 -0.3056 -0.8695
  735MOL0     H99209   2.689   7.369   8.238  0.6275  1.3538  0.6860
  735MOL0     H99210   2.805   7.156   8.248  0.2299 -1.4407 -0.5269
  735MOL0     H99211   3.164   6.917   8.233  1.8614  0.8172 -1.3464
  735MOL0     H99212   3.261   6.712   8.278  0.4105 -0.7502  0.1889
  735MOL0     H99213   3.388   6.400   8.227 -0.5013  1.2471  1.2491
  735MOL0     H99214   3.395   6.557   8.146 -0.4482  0.3362 -2.0197
  735MOL0     H99215   3.343   6.419   7.927 -0.4133  3.1552  2.2323
  735MOL0     H99216   3.350   6.282   8.052 -0.3787  0.8825  2.0416
  735MOL0     H99217   3.601   6.332   8.073 -1.7416 -0.9682  1.1082
  735MOL0     H99218   3.568   6.494   8.041  0.3545 -0.2733 -1.0027
  735MOL0     H99219   3.707   6.414   7.892 -0.4685 -0.2836  2.3039
  735MOL0     H99220   3.647   6.246   7.875  0.8816 -0.1037 -1.3091
  735MOL0     H99221   3.446   6.475   7.563 -1.3600  0.8197 -0.3664
  735MOL0     H99222   3.060   6.516   7.952 -0.7255 -1.7734  1.2906
  735MOL0     H99223   2.828   6.725   7.887  0.8291  1.7965  0.9137
  735MOL0     H99224   2.959   6.805   7.792  2.1771  1.3559  1.6211
  735MOL0     H99225   2.961   6.631   7.800 -3.3373  0.7365 -2.6235
  736MOL0     O99226   2.587   1.396   1.667 -0.2582  0.1348  0.7872
  736MOL0     C99227   2.609   1.284   1.713  1.0336 -0.2038 -1.0639
  736MOL0     O99228   2.644   1.261   1.839 -0.2815  0.1349 -0.1227
  736MOL0     C99229   2.699   1.363   1.909  0.8980 -0.1917  1.1705
  736MOL0     C99230   2.804   1.445   1.870 -0.0701  0.2226 -0.3370
  736MOL0     C99231   2.870   1.534   1.964  0.6038  0.4832  0.6230
  736MOL0     C99232   2.811   1.551   2.093 -0.5523  0.5566 -0.0787
  736MOL0     O99233   2.876   1.633   2.186  0.1311  1.0909 -0.2142
  736MOL0     C99234   2.988   1.571   2.242 -1.0785  0.1982 -0.4748
  736MOL0     C99235   3.066   1.670   2.332  0.1758  0.0062 -0.8561
  736MOL0     C99236   3.006   1.680   2.470 -0.6774 -0.3749 -0.3245
  736MOL0     C99237   3.083   1.770   2.572 -0.8482 -0.0601 -0.5973
  736MOL0     C99238   2.988   1.807   2.688 -0.0084 -0.3203  0.5880
  736MOL0     C99239   3.071   1.874   2.805  0.1036 -0.0193 -0.0963
  736MOL0     C99240   2.986   1.873   2.927 -0.6568 -0.4055  0.1860
  736MOL0     C99241   2.854   1.949   2.902 -0.4313 -0.6331  0.0088
  736MOL0     N99242   2.758   1.958   3.016  0.0590  0.5267  0.3747
  736MOL0     C99243   2.776   1.943   3.156 -0.3464 -0.4740 -0.5839
  736MOL0     C99244   2.655   1.963   3.210 -0.0034  0.5521 -0.0415
  736MOL0     C99245   2.624   1.945   3.362  0.0183  0.3014  0.8501
  736MOL0     C99246   2.524   1.822   3.370 -0.3887  0.7359  0.7112
  736MOL0     C99247   2.590   1.683   3.336 -0.0309  0.0369 -0.1752
  736MOL0     C99248   2.502   1.559   3.382  0.7592 -0.4641  0.0199
  736MOL0     O99249   2.382   1.560   3.305  0.3484  0.1132 -0.2251
  736MOL0     C99250   2.300   1.445   3.314  1.1097  0.3899  0.2487
  736MOL0     C99251   2.330   1.329   3.391 -0.0812  0.1611 -0.0411
  736MOL0     C99252   2.246   1.211   3.392 -0.2728  0.1063  0.0094
  736MOL0     C99253   2.132   1.205   3.302 -0.3337  0.7343 -0.5819
  736MOL0     C99254   2.048   1.088   3.306  0.3121  0.4714  0.3168
  736MOL0     O99255   2.070   0.999   3.405  0.1057  0.2209  0.2585
  736MOL0     C99256   2.016   0.869   3.408 -0.8532  0.1435  0.2922
  736MOL0     C99257   2.014   0.783   3.306  0.0981 -0.2713  0.1772
  736MOL0     C99258   1.966   0.651   3.327 -0.7679 -0.5685 -0.3453
  736MOL0     C99259   1.921   0.609   3.457  0.1523  0.6237  0.3074
  736MOL0     O99260   1.879   0.476   3.487  0.3069 -0.0500 -0.4005
  736MOL0     C99261   1.848   0.391   3.372 -0.1621  0.2054 -0.1190
  736MOL0     C99262   1.783   0.258   3.415  0.3391  0.7610  0.5697
  736MOL0     C99263   1.630   0.259   3.396  0.4640  0.4897  0.1016
  736MOL0     C99264   1.573   0.341   3.515  1.0316  0.0016  1.6618
  736MOL0     C99265   1.416   0.345   3.502  0.0300 -0.1784  0.2894
  736MOL0     C99266   1.355   0.422   3.612  1.0086  0.2702 -0.3765
  736MOL0     C99267   1.396   0.578   3.603  1.1552 -0.1084 -0.3489
  736MOL0     C99268   1.307   0.675   3.693  0.3176  1.4342  0.1088
  736MOL0    Cl99269   1.324   0.620   3.854 -0.4029 -0.1122 -0.3008
  736MOL0     C99270   1.922   0.699   3.562 -0.6609 -0.5563  0.0222
  736MOL0     C99271   1.971   0.830   3.541 -1.2303  0.1252 -0.0871
  736MOL0     O99272   1.973   1.062   3.214 -0.6587 -0.8187  0.1398
  736MOL0     C99273   2.109   1.322   3.229  0.9748  0.7396  0.4252
  736MOL0     C99274   2.191   1.442   3.233  1.5889  0.3195 -0.7894
  736MOL0     N99275   2.570   2.001   3.108 -0.4622  0.2671  0.1687
  736MOL0     N99276   2.630   1.996   2.996  0.8486 -0.4340 -0.3911
  736MOL0     C99277   2.698   1.468   2.124 -0.3700 -0.2845 -0.4375
  736MOL0     C99278   2.654   1.370   2.039  0.5787 -1.1853 -0.4107
  736MOL0     C99279   2.618   1.160   1.617 -1.0472 -0.5113  0.1551
  736MOL0     C99280   2.681   1.048   1.667 -0.1213  0.3324 -0.2171
  736MOL0     C99281   2.697   0.940   1.577  0.0425 -0.3178 -0.2562
  736MOL0     C99282   2.652   0.940   1.449 -0.5163 -0.8032 -0.4280
  736MOL0     O99283   2.656   0.825   1.372  0.4212 -0.0850  0.0886
  736MOL0     C99284   2.777   0.763   1.363 -0.1642  0.3565  0.7653
  736MOL0     C99285   2.753   0.646   1.273 -0.0700  0.6332 -0.0964
  736MOL0     C99286   2.873   0.552   1.264 -1.0531 -0.8655 -0.2480
  736MOL0     C99287   2.998   0.630   1.201 -0.0244 -0.5346  0.5633
  736MOL0     C99288   3.111   0.537   1.171  0.2629 -0.5078  1.2358
  736MOL0     C99289   3.199   0.456   1.139  0.2192 -0.5794  0.5737
  736MOL0     C99290   2.580   1.048   1.402  0.1788 -1.1156  0.4923
  736MOL0     C99291   2.579   1.168   1.479 -0.2053  0.7135 -0.3592
  736MOL0     C99292   2.533   1.305   1.415 -0.7392 -0.4554  0.1263
  736MOL0     H99293   2.847   1.439   1.771  1.4262 -0.7463  0.3235
  736MOL0     H99294   2.957   1.597   1.944 -0.3608  2.7137  2.8706
  736MOL0     H99295   2.969   1.478   2.296  1.8722 -1.5702 -2.2537
  736MOL0     H99296   3.060   1.544   2.164  1.9552 -4.0214  3.2349
  736MOL0     H99297   3.069   1.773   2.297  0.4442  0.7586  1.2497
  736MOL0     H99298   3.172   1.649   2.344  0.3166  1.3932  0.6201
  736MOL0     H99299   3.002   1.580   2.514 -0.5292  0.9894  3.0726
  736MOL0     H99300   2.900   1.705   2.461 -0.8157 -1.2824 -1.4818
  736MOL0     H99301   3.181   1.732   2.601 -1.6519 -0.3392  2.0593
  736MOL0     H99302   3.117   1.855   2.513 -0.9081 -0.3922 -1.1151
  736MOL0     H99303   2.919   1.886   2.656 -3.0737 -2.9992  0.1727
  736MOL0     H99304   2.941   1.710   2.704 -0.3421 -0.4183 -0.8006
  736MOL0     H99305   3.159   1.810   2.818  0.4583  0.5993  0.6770
  736MOL0     H99306   3.100   1.978   2.788 -0.1028 -0.1636 -1.4073
  736MOL0     H99307   3.042   1.938   2.994  0.7391 -0.8203 -0.5238
  736MOL0     H99308   2.952   1.777   2.966 -1.9031  0.1693  0.5789
  736MOL0     H99309   2.875   2.051   2.869  1.5331 -0.9856  0.0866
  736MOL0     H99310   2.793   1.902   2.824  1.0096  0.2416 -1.7161
  736MOL0     H99311   2.861   1.917   3.218  0.2352  2.7612  0.2001
  736MOL0     H99312   2.708   1.928   3.429 -2.2176 -2.0117  3.3363
  736MOL0     H99313   2.574   2.032   3.406 -1.6545 -1.3303  2.3795
  736MOL0     H99314   2.478   1.815   3.469 -0.3557 -4.0669  0.6140
  736MOL0     H99315   2.444   1.836   3.296  1.9081  1.2455 -1.8748
  736MOL0     H99316   2.691   1.681   3.380 -0.4639 -0.8727  0.8299
  736MOL0     H99317   2.608   1.668   3.229  0.0720 -1.0658 -0.0215
  736MOL0     H99318   2.486   1.559   3.490  0.6668 -2.5432  0.0562
  736MOL0     H99319   2.559   1.467   3.361  1.4790  0.0454 -0.2983
  736MOL0     H99320   2.413   1.325   3.462  0.3656  0.8006 -0.5130
  736MOL0     H99321   2.272   1.129   3.458 -3.0127 -1.0031 -0.1482
  736MOL0     H99322   2.031   0.826   3.208 -3.1427 -1.4183 -1.0177
  736MOL0     H99323   1.977   0.580   3.246  2.2710  0.3211 -0.8510
  736MOL0     H99324   1.779   0.454   3.314  0.1081  0.2018 -0.4524
  736MOL0     H99325   1.939   0.382   3.311  1.3318  1.2040  1.8668
  736MOL0     H99326   1.824   0.175   3.357  0.1516  0.8137  0.3617
  736MOL0     H99327   1.813   0.220   3.513  2.7235 -2.8872 -1.3572
  736MOL0     H99328   1.600   0.281   3.293  1.4201 -3.2537 -1.1388
  736MOL0     H99329   1.586   0.160   3.414 -0.5684  1.0739  0.8865
  736MOL0     H99330   1.617   0.441   3.514  0.6364  0.2134 -1.2004
  736MOL0     H99331   1.608   0.298   3.610 -1.2781  1.9876  3.5360
  736MOL0     H99332   1.363   0.250   3.504 -1.1486  0.3091 -2.6422
  736MOL0     H99333   1.385   0.399   3.411 -0.0712  1.1405  1.0808
  736MOL0     H99334   1.246   0.412   3.612  1.0711 -1.3567 -3.1558
  736MOL0     H99335   1.388   0.383   3.709  0.9784 -0.6073 -0.7086
  736MOL0     H99336   1.394   0.611   3.499 -0.2066  1.2242  0.0503
  736MOL0     H99337   1.497   0.584   3.644  0.8603  3.0610  0.1838
  736MOL0     H99338   1.342   0.778   3.683 -1.7956  2.0438 -1.9334
  736MOL0     H99339   1.204   0.671   3.655  0.9049 -0.0140 -1.4891
  736MOL0     H99340   1.890   0.665   3.660  1.7541 -1.6311  0.5214
  736MOL0     H99341   1.960   0.900   3.623 -0.7915 -1.4855  1.4025
  736MOL0     H99342   2.019   1.321   3.168  0.5215 -1.5845  1.0294
  736MOL0     H99343   2.160   1.530   3.178  1.9030  0.9625  0.0380
  736MOL0     H99344   2.652   1.488   2.221  0.8643  1.4804 -0.1596
  736MOL0     H99345   2.575   1.313   2.088 -1.6937  0.4593 -1.9412
  736MOL0     H99346   2.716   1.043   1.770  0.7476  0.1502 -0.5139
  736MOL0     H99347   2.752   0.855   1.618  0.5761  1.3333  2.7229
  736MOL0     H99348   2.812   0.732   1.462  1.5269  0.1067  0.1348
  736MOL0     H99349   2.853   0.824   1.313 -0.7741 -0.8276 -1.7868
  736MOL0     H99350   2.741   0.695   1.176  4.6809  0.8662 -0.7867
  736MOL0     H99351   2.670   0.580   1.302  0.8827 -0.7488 -0.3945
  736MOL0     H99352   2.859   0.467   1.197  1.1278 -1.2759 -0.2634
  736MOL0     H99353   2.897   0.514   1.363  0.2419 -3.1264 -1.3530
  736MOL0     H99354   2.962   0.673   1.107 -1.4422 -2.1387  0.3266
  736MOL0     H99355   3.029   0.717   1.260 -2.7222  1.2440 -0.4421
  736MOL0     H99356   3.272   0.389   1.099  3.1946  2.1313  0.9763
  736MOL0     H99357   2.557   1.043   1.296 -0.5350 -0.1005  0.5847
  736MOL0     H99358   2.443   1.355   1.451 -0.5539  0.4722 -0.6665
  736MOL0     H99359   2.612   1.379   1.432 -0.0631 -0.4021 -2.7823
  736MOL0     H99360   2.533   1.305   1.306  0.9365 -0.0590  0.1058
  737MOL0     O99361   5.955   1.452   9.199  0.3004  0.2008  0.3542
  737MOL0     C99362   5.861   1.370   9.209  0.4370 -0.2786 -0.8975
  737MOL0     O99363   5.886   1.239   9.191  0.5706  0.1926 -0.0811
  737MOL0     C99364   6.006   1.196   9.152 -0.7030 -0.4031  0.5273
  737MOL0     C99365   6.118   1.204   9.230 -0.7793  1.2747  0.0010
  737MOL0     C99366   6.249   1.174   9.178 -0.2498  0.5138  0.4512
  737MOL0     C99367   6.251   1.137   9.042  0.0485  1.1776 -0.3087
  737MOL0     O99368   6.369   1.099   8.983  0.4120  0.3115  0.5103
  737MOL0     C99369   6.382   1.059   8.845  0.4855  0.2062  0.0129
  737MOL0     C99370   6.529   1.060   8.811  0.3126  0.2980  1.0181
  737MOL0     C99371   6.624   1.004   8.912  0.5949 -0.0285 -0.0686
  737MOL0     C99372   6.602   0.853   8.932  0.0081 -0.3024  0.0792
  737MOL0     C99373   6.716   0.787   9.004 -0.8711  0.5206 -0.6262
  737MOL0     C99374   6.689   0.641   9.019  1.0764 -0.0702  0.4518
  737MOL0     C99375   6.800   0.579   9.106 -0.7722  0.3214  0.0678
  737MOL0     C99376   6.779   0.435   9.161 -0.4017 -0.8612  0.4834
  737MOL0     N99377   6.759   0.339   9.053 -0.1315 -0.0469  0.3173
  737MOL0     C99378   6.644   0.291   9.001 -1.1178 -0.6014 -0.3570
  737MOL0     C99379   6.672   0.177   8.925 -0.4039 -1.3397  0.4725
  737MOL0     C99380   6.576   0.101   8.848 -0.0663 -0.1647 -0.1711
  737MOL0     C99381   6.428   0.129   8.859 -0.0422  0.0154 -0.5441
  737MOL0     C99382   6.341   0.011   8.788 -0.1959 -0.7399  0.8713
  737MOL0     C99383   6.237   0.063   8.691 -0.0091 -0.0907 -0.0203
  737MOL0     O99384   6.141   0.127   8.777  0.6722  0.4802 -0.2670
  737MOL0     C99385   6.046   0.052   8.830  0.9746  0.5535  0.6085
  737MOL0     C99386   6.008   0.088   8.954 -0.3879  0.0022 -0.0052
  737MOL0     C99387   5.907   0.034   9.032  0.1840  0.2779 -0.5892
  737MOL0     C99388   5.846  -0.082   8.984 -0.5053 -0.8697  0.3051
  737MOL0     C99389   5.730  -0.137   9.061  0.5548 -0.4060  0.4198
  737MOL0     O99390   5.672  -0.253   9.009 -0.4357 -0.3193  0.0040
  737MOL0     C99391   5.570  -0.319   9.070 -0.3017  0.7443  0.0706
  737MOL0     C99392   5.474  -0.268   9.168 -0.5702  0.2485 -0.0854
  737MOL0     C99393   5.362  -0.342   9.212  0.2360  0.6186  0.0333
  737MOL0     C99394   5.358  -0.483   9.176  0.0493 -1.1972  0.1113
  737MOL0     O99395   5.246  -0.556   9.202  0.4337 -0.4536  1.4085
  737MOL0     C99396   5.171  -0.581   9.082 -1.2563 -0.4794  0.0249
  737MOL0     C99397   5.080  -0.460   9.047 -0.6685  1.6246  0.4487
  737MOL0     C99398   4.993  -0.438   9.161  0.7208  0.4639  0.0839
  737MOL0     C99399   4.903  -0.324   9.133  0.0679  0.8937 -0.5559
  737MOL0     C99400   4.801  -0.293   9.236 -0.2460  0.3032 -0.6967
  737MOL0     C99401   4.680  -0.222   9.175  0.2746 -0.0489  0.5665
  737MOL0     C99402   4.723  -0.094   9.097 -0.3247  0.3690 -0.0355
  737MOL0     C99403   4.610  -0.016   9.028  0.4474  1.2092 -1.2358
  737MOL0    Cl99404   4.486   0.008   9.153 -0.1537 -0.6327  0.2012
  737MOL0     C99405   5.462  -0.541   9.108 -1.1253 -0.8814 -0.5680
  737MOL0     C99406   5.566  -0.464   9.047 -0.6103  0.2597 -0.8720
  737MOL0     O99407   5.706  -0.093   9.177  0.4828 -0.4613  0.7056
  737MOL0     C99408   5.877  -0.132   8.850  0.4553  0.1697  0.8976
  737MOL0     C99409   5.974  -0.062   8.776 -0.1623 -1.2339  0.1914
  737MOL0     N99410   6.808   0.165   8.931 -0.1754 -0.2263  0.8936
  737MOL0     N99411   6.860   0.263   9.001  0.6572  0.5558 -0.2111
  737MOL0     C99412   6.130   1.109   8.970  0.4936 -0.1347 -0.7238
  737MOL0     C99413   6.008   1.144   9.027  0.4930 -1.1574 -0.1183
  737MOL0     C99414   5.740   1.427   9.273 -0.3165 -0.3799 -0.8179
  737MOL0     C99415   5.723   1.567   9.262 -0.5468 -0.3154 -0.1567
  737MOL0     C99416   5.625   1.636   9.334  1.2312  0.2967  0.5282
  737MOL0     C99417   5.521   1.561   9.398  0.2739 -1.1356 -1.1629
  737MOL0     O99418   5.411   1.613   9.464 -0.4440 -0.2226  0.7702
  737MOL0     C99419   5.402   1.754   9.491  0.7352 -0.2030  0.9240
  737MOL0     C99420   5.460   1.801   9.614  0.2420 -0.0601 -0.7665
  737MOL0     C99421   5.420   1.701   9.731 -0.9656 -0.2605 -0.1845
  737MOL0     C99422   5.517   1.729   9.854  0.4485  0.2152 -0.4234
  737MOL0     C99423   5.528   1.609   9.939  0.2367 -1.0152 -0.3073
  737MOL0     C99424   5.524   1.508  10.009  0.4060 -0.4388 -0.7449
  737MOL0     C99425   5.537   1.419   9.412  0.0518 -1.2574  0.1787
  737MOL0     C99426   5.646   1.353   9.348 -1.0723  0.0663  0.1948
  737MOL0     C99427   5.657   1.204   9.369  0.0847 -0.4235 -0.3940
  737MOL0     H99428   6.096   1.231   9.333  1.3354  1.9516  0.3196
  737MOL0     H99429   6.345   1.170   9.229 -0.3230  3.3472  0.9748
  737MOL0     H99430   6.329   0.964   8.829 -0.2096  1.0214 -3.2924
  737MOL0     H99431   6.335   1.127   8.774  1.6317 -0.7866 -1.8011
  737MOL0     H99432   6.571   1.158   8.784  1.3913 -0.8156 -1.6677
  737MOL0     H99433   6.556   1.006   8.720  1.7872  1.1088  0.9300
  737MOL0     H99434   6.612   1.063   9.003  4.9166 -0.3400  0.8889
  737MOL0     H99435   6.730   1.012   8.888  0.6662 -0.9519 -0.0885
  737MOL0     H99436   6.507   0.826   8.979 -0.0784  2.4316  1.7110
  737MOL0     H99437   6.597   0.803   8.835 -2.9571 -1.2658  0.6340
  737MOL0     H99438   6.804   0.801   8.940 -0.5177 -1.8597 -0.7325
  737MOL0     H99439   6.743   0.837   9.098 -0.9142 -2.2788  1.0014
  737MOL0     H99440   6.594   0.637   9.074 -0.4251 -1.5355 -2.0468
  737MOL0     H99441   6.688   0.596   8.920 -3.2411  0.4627  0.0650
  737MOL0     H99442   6.803   0.640   9.197 -0.4331 -1.1354  1.0609
  737MOL0     H99443   6.894   0.584   9.050 -1.7357 -2.8435 -2.1153
  737MOL0     H99444   6.873   0.412   9.211  0.1600  5.1679  3.0272
  737MOL0     H99445   6.696   0.431   9.233 -0.0615 -1.5777  0.8438
  737MOL0     H99446   6.550   0.341   9.017 -0.2883  2.1054 -3.0020
  737MOL0     H99447   6.617   0.104   8.747  0.3278  1.9143  0.0105
  737MOL0     H99448   6.585  -0.004   8.876 -1.6708 -0.6593 -1.3623
  737MOL0     H99449   6.406   0.144   8.965  0.1085 -1.5844 -0.2645
  737MOL0     H99450   6.399   0.229   8.825 -0.7603 -0.5230 -1.5452
  737MOL0     H99451   6.291  -0.055   8.861 -1.1957  2.6601  3.5849
  737MOL0     H99452   6.413  -0.044   8.728 -0.3446 -2.8218  2.4663
  737MOL0     H99453   6.186  -0.007   8.625 -2.1007  0.7005  0.6708
  737MOL0     H99454   6.288   0.129   8.621 -0.0748  0.0037  0.0203
  737MOL0     H99455   6.050   0.172   9.008 -1.7542  1.4062 -1.0524
  737MOL0     H99456   5.870   0.078   9.124  0.4644 -2.3486  0.8891
  737MOL0     H99457   5.483  -0.170   9.214 -2.4945 -0.0135  0.9444
  737MOL0     H99458   5.279  -0.301   9.268  0.4072  2.2886 -0.8745
  737MOL0     H99459   5.225  -0.626   8.999 -2.8104 -4.7822  1.0934
  737MOL0     H99460   5.100  -0.658   9.114 -0.2324 -0.8218  1.5400
  737MOL0     H99461   5.131  -0.365   9.029  0.9422  0.9062  0.9882
  737MOL0     H99462   5.016  -0.488   8.963 -3.1856  0.6689  2.5632
  737MOL0     H99463   4.947  -0.532   9.193  3.2062  0.2083  3.6223
  737MOL0     H99464   5.051  -0.418   9.252  2.7781 -0.1633 -1.0236
  737MOL0     H99465   4.861  -0.342   9.034 -1.5668  1.2471  0.0425
  737MOL0     H99466   4.966  -0.234   9.128 -0.7115  1.5818  1.0956
  737MOL0     H99467   4.845  -0.227   9.310 -1.6720  0.1257  0.3536
  737MOL0     H99468   4.772  -0.386   9.287  0.0804  1.8969  2.6632
  737MOL0     H99469   4.635  -0.293   9.106  1.7299  0.0264 -0.5215
  737MOL0     H99470   4.616  -0.198   9.261  0.7571  2.9869  0.2050
  737MOL0     H99471   4.790  -0.126   9.016  1.0472  0.4410  1.0325
  737MOL0     H99472   4.769  -0.038   9.179 -1.4441  0.3485  0.6250
  737MOL0     H99473   4.633   0.083   8.989 -0.7414  1.2861 -1.7877
  737MOL0     H99474   4.569  -0.084   8.952 -2.4572 -0.5244  1.6009
  737MOL0     H99475   5.464  -0.649   9.108  2.6723 -1.1283  3.7087
  737MOL0     H99476   5.645  -0.520   8.998  0.1871  0.0337  0.6339
  737MOL0     H99477   5.819  -0.210   8.802 -1.3960  2.9147 -1.6894
  737MOL0     H99478   5.996  -0.086   8.673  2.0178  1.2137 -0.0024
  737MOL0     H99479   6.126   1.076   8.867 -0.1637 -2.4653 -0.0111
  737MOL0     H99480   5.915   1.137   8.972 -0.3079  0.2240  1.0129
  737MOL0     H99481   5.796   1.630   9.212 -1.1095  1.3543  1.0336
  737MOL0     H99482   5.624   1.745   9.333 -0.4859  0.3107 -0.4519
  737MOL0     H99483   5.294   1.774   9.490  0.1971 -2.4722  2.9980
  737MOL0     H99484   5.455   1.815   9.418  3.4033 -1.0798  1.9891
  737MOL0     H99485   5.421   1.902   9.627  0.3539 -0.2230  1.0307
  737MOL0     H99486   5.569   1.807   9.608  0.1615  2.3312 -0.7836
  737MOL0     H99487   5.418   1.597   9.697  2.1459 -0.6787  0.6266
  737MOL0     H99488   5.321   1.729   9.768 -0.6792 -0.7967  1.0367
  737MOL0     H99489   5.617   1.752   9.816 -0.0885 -0.8981 -2.7068
  737MOL0     H99490   5.477   1.816   9.906 -2.4997 -2.8976  3.1132
  737MOL0     H99491   5.518   1.415  10.062  1.7357 -0.3218 -0.3436
  737MOL0     H99492   5.447   1.378   9.457 -0.8630  1.3696  0.9738
  737MOL0     H99493   5.686   1.155   9.276 -0.4275 -1.4212 -0.0364
  737MOL0     H99494   5.730   1.191   9.450 -1.5213 -0.9055  1.0372
  737MOL0     H99495   5.565   1.167   9.416  0.0696  0.3207  0.1933
  738MOL0     O99496   0.933   4.422   0.972  0.3678  1.1574 -0.7347
  738MOL0     C99497   0.848   4.332   0.977 -0.0391 -0.7153  0.1844
  738MOL0     O99498   0.875   4.203   0.957  0.1966 -0.4100  0.2147
  738MOL0     C99499   1.000   4.137   0.963 -0.2553  0.1219  0.5052
  738MOL0     C99500   1.110   4.167   1.045  0.4559 -0.2428 -0.4536
  738MOL0     C99501   1.226   4.089   1.050 -1.2295 -0.6802 -0.3896
  738MOL0     C99502   1.234   3.983   0.975  0.5128  0.1526  0.6165
  738MOL0     O99503   1.357   3.925   0.970  0.0266  0.0964  0.0746
  738MOL0     C99504   1.387   3.809   0.895  0.2555  0.3428  0.6157
  738MOL0     C99505   1.329   3.692   0.989 -0.5705  0.7569 -0.0024
  738MOL0     C99506   1.364   3.538   0.960  0.8173 -0.7112  0.5693
  738MOL0     C99507   1.385   3.500   0.816  0.6101  0.7583  0.4766
  738MOL0     C99508   1.338   3.351   0.801 -0.3051  0.3334  0.8916
  738MOL0     C99509   1.320   3.315   0.649  0.4754  0.2626  0.8144
  738MOL0     C99510   1.444   3.257   0.586  0.2628  0.1862  1.3164
  738MOL0     C99511   1.444   3.284   0.430  0.1537  0.7287 -0.7872
  738MOL0     N99512   1.497   3.417   0.403 -0.6707 -0.0671 -0.6745
  738MOL0     C99513   1.590   3.494   0.476  0.1933  0.0379 -0.2006
  738MOL0     C99514   1.568   3.622   0.434 -0.5336  1.2726 -0.1073
  738MOL0     C99515   1.650   3.745   0.485  0.1446 -0.1515  0.0796
  738MOL0     C99516   1.744   3.795   0.375  0.1387 -0.7418  0.1902
  738MOL0     C99517   1.835   3.919   0.408 -0.0956  0.2596 -0.0509
  738MOL0     C99518   1.931   3.949   0.288  0.5126 -0.6601 -0.2727
  738MOL0     O99519   2.001   3.843   0.225  0.9630  0.2886 -0.3463
  738MOL0     C99520   2.094   3.877   0.138  0.7211  0.3119 -0.2665
  738MOL0     C99521   2.103   4.002   0.090 -0.4962 -0.1533 -0.6921
  738MOL0     C99522   2.194   4.037  -0.006  0.0333  0.7033  0.5611
  738MOL0     C99523   2.293   3.947  -0.039  0.6750  0.7308  0.2240
  738MOL0     C99524   2.404   3.981  -0.137 -0.0448 -0.3834 -0.7733
  738MOL0     O99525   2.457   3.877  -0.203 -0.4862 -0.1433  0.5453
  738MOL0     C99526   2.557   3.892  -0.294  0.8883 -0.8869  1.0285
  738MOL0     C99527   2.629   3.776  -0.318  0.0253  0.7262 -0.3206
  738MOL0     C99528   2.722   3.761  -0.428 -0.0620 -1.1931  0.2298
  738MOL0     C99529   2.741   3.865  -0.516  0.4957 -0.0827 -0.0379
  738MOL0     O99530   2.842   3.859  -0.608 -0.3935  0.5666 -0.2232
  738MOL0     C99531   2.813   3.887  -0.740 -0.1333 -0.3327 -0.5770
  738MOL0     C99532   2.830   3.755  -0.815 -0.5634 -0.4130  0.0986
  738MOL0     C99533   2.704   3.676  -0.806  0.3000  0.4779 -0.1894
  738MOL0     C99534   2.584   3.715  -0.896 -0.8059 -0.6581  0.4306
  738MOL0     C99535   2.552   3.601  -0.998 -0.2180 -0.6047 -0.2229
  738MOL0     C99536   2.656   3.538  -1.084  0.1268  0.6155 -0.3928
  738MOL0     C99537   2.583   3.449  -1.186 -0.1056 -0.2851 -0.2126
  738MOL0     C99538   2.550   3.510  -1.321  0.3775 -0.4729 -0.2318
  738MOL0    Cl99539   2.698   3.512  -1.418  0.0377  0.1155 -0.1860
  738MOL0     C99540   2.663   3.988  -0.490  0.1998  0.5134  1.1254
  738MOL0     C99541   2.573   4.000  -0.380  0.8055  0.0673 -0.5222
  738MOL0     O99542   2.441   4.103  -0.134  0.6166  0.4976 -0.0631
  738MOL0     C99543   2.292   3.815   0.023  0.9803  0.6061  0.2826
  738MOL0     C99544   2.190   3.778   0.107  0.4444 -0.0981  0.8847
  738MOL0     N99545   1.479   3.619   0.327  0.2888 -0.3106 -0.3083
  738MOL0     N99546   1.438   3.500   0.311  0.6037  0.6653 -0.4351
  738MOL0     C99547   1.117   3.938   0.900 -0.1225  0.3908 -1.1419
  738MOL0     C99548   1.001   4.011   0.898 -0.3868 -0.1046 -0.3175
  738MOL0     C99549   0.709   4.382   1.018 -0.3003 -0.1713  0.1400
  738MOL0     C99550   0.706   4.521   1.072  0.0418  0.0379  0.1851
  738MOL0     C99551   0.577   4.575   1.094  0.4318 -0.4276 -0.0693
  738MOL0     C99552   0.462   4.496   1.090  0.1003 -0.7704  0.1798
  738MOL0     O99553   0.348   4.558   1.118  0.6803  0.5489 -0.0848
  738MOL0     C99554   0.254   4.495   1.216 -0.4025 -0.0550  0.2854
  738MOL0     C99555   0.278   4.551   1.359 -0.4588 -0.1402 -0.1355
  738MOL0     C99556   0.253   4.695   1.393 -0.4580 -1.2939  0.2454
  738MOL0     C99557   0.333   4.802   1.314  0.2526 -0.4677 -0.1935
  738MOL0     C99558   0.322   4.937   1.377  1.3678 -0.3190  0.2913
  738MOL0     C99559   0.302   5.028   1.451  0.0362 -0.4729 -0.6096
  738MOL0     C99560   0.464   4.369   1.041 -0.0770  0.0594 -1.1246
  738MOL0     C99561   0.588   4.303   1.009 -0.9669  0.3334 -0.0358
  738MOL0     C99562   0.590   4.154   0.961  0.6607  0.5949  0.5554
  738MOL0     H99563   1.102   4.254   1.109  0.9965 -0.8612  0.4731
  738MOL0     H99564   1.314   4.117   1.106 -0.1602 -2.0465 -1.3093
  738MOL0     H99565   1.347   3.809   0.794 -2.0298  2.0112  1.4585
  738MOL0     H99566   1.496   3.795   0.890 -0.0579 -2.1308 -2.7963
  738MOL0     H99567   1.222   3.706   1.007 -1.0403 -0.4502 -1.6177
  738MOL0     H99568   1.368   3.709   1.089 -2.5179  2.3565  0.5496
  738MOL0     H99569   1.289   3.468   0.998 -1.5265  0.1649 -2.1551
  738MOL0     H99570   1.463   3.525   1.004  1.6897  0.4491 -0.9576
  738MOL0     H99571   1.333   3.554   0.736  1.8669  2.0793  0.5081
  738MOL0     H99572   1.492   3.515   0.797  0.4122 -0.9773 -2.5695
  738MOL0     H99573   1.401   3.274   0.846 -0.3494 -4.2102 -5.3859
  738MOL0     H99574   1.240   3.336   0.848 -0.4355 -0.1141  0.4924
  738MOL0     H99575   1.234   3.246   0.643  0.0302  0.9255 -2.2819
  738MOL0     H99576   1.288   3.405   0.595  0.3531  1.3374  2.5945
  738MOL0     H99577   1.440   3.149   0.598  1.5460 -0.0979 -0.3659
  738MOL0     H99578   1.536   3.298   0.629 -0.1519  3.8162 -0.8003
  738MOL0     H99579   1.507   3.215   0.374  1.3739  1.7194 -0.6742
  738MOL0     H99580   1.342   3.278   0.393  0.2795  0.6305 -1.1143
  738MOL0     H99581   1.653   3.448   0.552  1.6086  1.0501 -0.7338
  738MOL0     H99582   1.580   3.817   0.528 -1.5276 -1.3410 -0.5240
  738MOL0     H99583   1.717   3.714   0.565  0.5215  1.8251  0.5728
  738MOL0     H99584   1.800   3.715   0.326  0.9740  0.1256 -0.3232
  738MOL0     H99585   1.687   3.844   0.295  2.8278 -0.1482 -1.5045
  738MOL0     H99586   1.893   3.888   0.495 -0.2532 -0.9488 -0.3600
  738MOL0     H99587   1.766   3.999   0.438  0.8860  0.8450  0.6894
  738MOL0     H99588   1.995   4.022   0.337 -0.9276 -0.0556  0.7610
  738MOL0     H99589   1.864   4.003   0.220  0.5912 -0.6994 -0.3831
  738MOL0     H99590   2.047   4.086   0.129  1.0408  0.2674  0.7283
  738MOL0     H99591   2.201   4.139  -0.043 -1.2202  1.5305  2.4527
  738MOL0     H99592   2.603   3.689  -0.260 -1.1119  0.2767 -1.4503
  738MOL0     H99593   2.771   3.667  -0.454  2.0579 -0.2961  0.7713
  738MOL0     H99594   2.716   3.935  -0.755  0.4669  1.5655  1.2181
  738MOL0     H99595   2.882   3.961  -0.781  0.3009 -3.0576 -5.4624
  738MOL0     H99596   2.865   3.773  -0.916  2.1594 -1.3065  0.8008
  738MOL0     H99597   2.922   3.712  -0.774  0.5155  3.6285  2.4251
  738MOL0     H99598   2.738   3.573  -0.819  0.5466  0.1753  2.2456
  738MOL0     H99599   2.672   3.673  -0.701  1.3731 -1.0397  0.1358
  738MOL0     H99600   2.598   3.815  -0.938 -0.2044 -1.2961 -0.9616
  738MOL0     H99601   2.496   3.720  -0.831 -1.2191 -2.7948  0.1015
  738MOL0     H99602   2.470   3.644  -1.056  1.6117  0.9360 -1.8034
  738MOL0     H99603   2.499   3.532  -0.931 -0.0584  1.5360  2.2835
  738MOL0     H99604   2.721   3.617  -1.126  1.9853  0.2776  1.6556
  738MOL0     H99605   2.719   3.480  -1.016 -1.3293  0.2172  0.6419
  738MOL0     H99606   2.483   3.418  -1.154 -0.2555  0.2216 -0.1767
  738MOL0     H99607   2.632   3.353  -1.209 -3.4048 -2.1639 -0.0251
  738MOL0     H99608   2.478   3.445  -1.371  1.5148 -1.7194 -0.2854
  738MOL0     H99609   2.513   3.611  -1.300 -0.2779  0.2233 -4.0457
  738MOL0     H99610   2.701   4.071  -0.548 -1.8713 -1.4319 -3.4445
  738MOL0     H99611   2.538   4.098  -0.347  0.1897  0.2510 -1.6536
  738MOL0     H99612   2.352   3.732  -0.013  0.7003  1.2836 -1.9359
  738MOL0     H99613   2.171   3.677   0.143 -3.8362  0.6599  1.3235
  738MOL0     H99614   1.107   3.837   0.862  1.2545  0.5474 -1.9893
  738MOL0     H99615   0.913   3.984   0.842 -0.4248  1.3249 -0.9806
  738MOL0     H99616   0.791   4.589   1.076  1.0394 -0.9989 -1.9745
  738MOL0     H99617   0.552   4.678   1.118 -1.9835 -0.5943 -1.5007
  738MOL0     H99618   0.263   4.386   1.221  1.3103 -0.0868 -1.9226
  738MOL0     H99619   0.152   4.523   1.188 -1.0869 -2.5738 -0.0220
  738MOL0     H99620   0.377   4.516   1.391 -1.1711 -6.8702 -3.6980
  738MOL0     H99621   0.202   4.489   1.407 -1.3400 -0.0490 -1.3894
  738MOL0     H99622   0.269   4.712   1.500 -3.6025  1.6788  0.4462
  738MOL0     H99623   0.148   4.722   1.378  0.0304  2.5598  2.3639
  738MOL0     H99624   0.439   4.775   1.321 -0.5755 -3.8749  1.5718
  738MOL0     H99625   0.311   4.801   1.207 -2.4545  1.4275  0.2703
  738MOL0     H99626   0.280   5.113   1.512 -1.4909  0.3500 -2.2026
  738MOL0     H99627   0.383   4.298   1.051 -0.1226  0.3525  1.2485
  738MOL0     H99628   0.645   4.134   0.869 -0.3492 -0.4946  0.1633
  738MOL0     H99629   0.631   4.094   1.043  3.6616  2.2995  0.4485
  738MOL0     H99630   0.486   4.127   0.940  1.3325 -3.3227  1.4961
  739MOL0     O99631   9.382   2.692   3.055 -0.0861 -0.5121 -0.2386
  739MOL0     C99632   9.269   2.741   3.039  0.0402  0.5975 -0.9595
  739MOL0     O99633   9.167   2.685   2.971 -1.0426 -0.0529 -0.8412
  739MOL0     C99634   9.194   2.567   2.902  0.9145 -0.4565  0.7729
  739MOL0     C99635   9.168   2.443   2.967 -0.9715  0.5588  0.2164
  739MOL0     C99636   9.191   2.325   2.896 -0.0054 -0.6594  0.0960
  739MOL0     C99637   9.255   2.331   2.770  0.9903 -0.0959 -0.2675
  739MOL0     O99638   9.254   2.222   2.691 -0.6547 -1.0729 -0.6227
  739MOL0     C99639   9.118   2.189   2.646 -1.0276 -0.1616  0.0005
  739MOL0     C99640   9.113   2.109   2.509 -0.5856 -0.1185  0.0198
  739MOL0     C99641   9.174   1.970   2.521  0.2163 -0.0057  0.3232
  739MOL0     C99642   9.149   1.893   2.393  0.6513 -0.5285 -0.4239
  739MOL0     C99643   9.226   1.758   2.403  0.1275 -0.2171  0.5547
  739MOL0     C99644   9.387   1.771   2.409  0.2816 -0.1092 -0.8760
  739MOL0     C99645   9.454   1.634   2.402 -0.2155 -0.2546  0.4494
  739MOL0     C99646   9.608   1.637   2.390 -0.4164 -0.8100 -0.5833
  739MOL0     N99647   9.660   1.691   2.515  0.1723  0.3702 -0.1054
  739MOL0     C99648   9.667   1.825   2.542 -0.7753 -0.7265  0.4448
  739MOL0     C99649   9.744   1.829   2.654 -0.3651 -2.2000  0.2196
  739MOL0     C99650   9.783   1.954   2.718 -0.2473 -0.7178 -1.4261
  739MOL0     C99651   9.746   1.951   2.873  0.8725 -1.5814  0.2317
  739MOL0     C99652   9.822   2.056   2.954  0.3419 -0.3259 -0.0064
  739MOL0     C99653   9.751   2.085   3.086 -0.7382 -0.5200 -0.5966
  739MOL0     O99654   9.643   2.183   3.063  0.3217  0.5290 -0.5068
  739MOL0     C99655   9.578   2.239   3.173 -0.7173  0.9600 -0.4406
  739MOL0     C99656   9.486   2.334   3.145 -0.7127  0.8146  1.0397
  739MOL0     C99657   9.402   2.391   3.252 -0.6986 -0.0693 -0.8175
  739MOL0     C99658   9.424   2.354   3.384  0.5488  0.1629 -0.0697
  739MOL0     C99659   9.340   2.413   3.483 -0.6753  0.4926  1.0921
  739MOL0     O99660   9.304   2.538   3.466  0.0586 -0.2088  0.0172
  739MOL0     C99661   9.226   2.614   3.547 -0.1803 -0.2388 -0.8514
  739MOL0     C99662   9.192   2.740   3.485  0.4042  0.4024  0.6316
  739MOL0     C99663   9.116   2.841   3.548 -0.2835 -0.0390  0.2220
  739MOL0     C99664   9.062   2.813   3.672 -0.4004  0.4861 -0.0458
  739MOL0     O99665   8.982   2.896   3.742 -0.5812 -0.8099  0.2343
  739MOL0     C99666   8.991   3.040   3.724  0.2518  0.6123  0.6800
  739MOL0     C99667   8.913   3.118   3.828  0.8548  0.5975 -0.1945
  739MOL0     C99668   8.920   3.270   3.808  0.1766 -0.8718 -1.0297
  739MOL0     C99669   8.869   3.343   3.947  0.1523 -0.2021  0.3558
  739MOL0     C99670   8.824   3.486   3.949  0.8465 -0.5208  0.2182
  739MOL0     C99671   8.778   3.528   4.093  0.5674 -0.6701 -0.1539
  739MOL0     C99672   8.895   3.579   4.174 -0.0691 -0.0913 -1.0802
  739MOL0     C99673   8.846   3.652   4.305 -1.0781 -0.7258  0.7966
  739MOL0    Cl99674   8.735   3.798   4.270 -0.0282  0.4989 -0.2817
  739MOL0     C99675   9.100   2.692   3.737  0.4193 -0.3064  0.1441
  739MOL0     C99676   9.179   2.596   3.676 -0.5938 -0.2922  0.0663
  739MOL0     O99677   9.332   2.346   3.585 -0.3566 -0.0084  0.0669
  739MOL0     C99678   9.520   2.255   3.411 -0.5041 -0.4339  0.7206
  739MOL0     C99679   9.591   2.195   3.308 -0.4725  0.0394 -0.5751
  739MOL0     N99680   9.774   1.699   2.702  0.0436 -0.1238 -0.1977
  739MOL0     N99681   9.728   1.617   2.614  1.4392  0.0529  0.1734
  739MOL0     C99682   9.293   2.443   2.709  0.0518 -0.3972  0.9430
  739MOL0     C99683   9.261   2.567   2.777  0.0748  0.5555 -0.1742
  739MOL0     C99684   9.245   2.866   3.122  0.0845  0.5879  0.1076
  739MOL0     C99685   9.354   2.943   3.153 -0.8950 -1.3644  0.2284
  739MOL0     C99686   9.344   3.065   3.227  0.6604 -0.3252  0.1023
  739MOL0     C99687   9.220   3.099   3.277  0.5658 -0.0196 -0.1796
  739MOL0     O99688   9.202   3.217   3.348  0.1947  0.4927  0.3237
  739MOL0     C99689   9.217   3.333   3.269 -0.9983 -0.3196 -0.0176
  739MOL0     C99690   9.193   3.452   3.365  0.6885 -0.7947  1.1050
  739MOL0     C99691   9.038   3.450   3.380  0.1227 -0.4291  0.8122
  739MOL0     C99692   8.981   3.555   3.463  0.3888 -0.5151  0.1570
  739MOL0     C99693   8.859   3.606   3.397 -0.4908  0.2588 -0.1004
  739MOL0     C99694   8.760   3.661   3.339 -0.0668  0.0103  0.3579
  739MOL0     C99695   9.112   3.016   3.252 -0.0205  0.2216 -0.2300
  739MOL0     C99696   9.133   2.902   3.181  0.6835  0.1308 -0.0039
  739MOL0     C99697   9.015   2.811   3.210  0.6227 -0.4079  0.5695
  739MOL0     H99698   9.129   2.439   3.068 -0.8740 -0.5121  0.2255
  739MOL0     H99699   9.152   2.234   2.940 -1.0525 -0.9605 -1.4045
  739MOL0     H99700   9.070   2.119   2.715  1.2967 -1.0338  0.8472
  739MOL0     H99701   9.051   2.275   2.650 -0.1646  0.4993  1.1463
  739MOL0     H99702   9.163   2.158   2.424 -0.9230 -3.5106 -2.3323
  739MOL0     H99703   9.010   2.100   2.474 -1.4178  0.8777  2.0688
  739MOL0     H99704   9.136   1.910   2.604 -2.4479  2.8751  1.3966
  739MOL0     H99705   9.282   1.980   2.539 -0.4993  2.7438  4.3746
  739MOL0     H99706   9.046   1.862   2.380  1.7149 -3.5397 -2.6699
  739MOL0     H99707   9.190   1.942   2.304 -2.0414  2.8659 -0.0208
  739MOL0     H99708   9.199   1.686   2.481  2.3552 -2.2621 -0.4335
  739MOL0     H99709   9.203   1.710   2.307 -0.0998 -1.3453  1.1491
  739MOL0     H99710   9.429   1.843   2.337  1.8717  1.0436  1.1040
  739MOL0     H99711   9.404   1.808   2.510  0.9416 -1.5252 -0.4415
  739MOL0     H99712   9.409   1.570   2.325 -2.1494  1.2247  0.2871
  739MOL0     H99713   9.425   1.573   2.487 -2.2742  0.9063  0.6214
  739MOL0     H99714   9.644   1.534   2.384  0.4228 -0.5268 -0.5652
  739MOL0     H99715   9.641   1.685   2.298 -0.1087  1.7468  0.7786
  739MOL0     H99716   9.642   1.911   2.480  0.8946  1.2540  2.3034
  739MOL0     H99717   9.892   1.969   2.716 -0.2558 -0.5877 -1.0898
  739MOL0     H99718   9.739   2.044   2.675  3.9101  2.4015  0.1234
  739MOL0     H99719   9.637   1.958   2.883  1.0761  0.0707  1.7299
  739MOL0     H99720   9.766   1.852   2.915  1.9120 -1.1980  0.6804
  739MOL0     H99721   9.842   2.146   2.895 -2.5928 -1.2606 -2.7696
  739MOL0     H99722   9.918   2.019   2.992  0.7485  1.2273  0.5271
  739MOL0     H99723   9.824   2.116   3.160  0.0065  1.4693 -2.0675
  739MOL0     H99724   9.712   1.995   3.134  1.4746 -0.8309  0.7538
  739MOL0     H99725   9.476   2.371   3.043 -1.4173  2.1996  1.5822
  739MOL0     H99726   9.319   2.454   3.221  0.8617  1.9774 -1.0317
  739MOL0     H99727   9.208   2.758   3.379 -1.7914  0.6991  0.2934
  739MOL0     H99728   9.082   2.927   3.492  1.9279  0.3393 -0.6310
  739MOL0     H99729   9.095   3.072   3.713  0.2767 -0.1991 -2.2230
  739MOL0     H99730   8.948   3.067   3.627  1.0167  1.4282  0.5472
  739MOL0     H99731   8.805   3.105   3.818  0.8075  1.2228 -0.5607
  739MOL0     H99732   8.944   3.089   3.929 -0.2184 -1.8599 -0.5127
  739MOL0     H99733   9.022   3.305   3.788  0.2784 -1.2878 -1.2549
  739MOL0     H99734   8.856   3.305   3.727  1.7602  1.3523 -1.4063
  739MOL0     H99735   8.943   3.341   4.027 -1.0326 -3.9051  1.5915
  739MOL0     H99736   8.783   3.280   3.969 -1.0170  1.2621  0.1284
  739MOL0     H99737   8.747   3.494   3.872  3.1280 -0.9472 -2.2526
  739MOL0     H99738   8.900   3.559   3.918 -0.4518  0.5844 -0.4752
  739MOL0     H99739   8.712   3.614   4.100  5.1254  3.0823  2.5605
  739MOL0     H99740   8.726   3.443   4.139  0.1263  0.0602  0.7181
  739MOL0     H99741   8.970   3.631   4.113  0.5622 -1.2844 -1.3703
  739MOL0     H99742   8.938   3.485   4.210 -1.8787  0.0355  1.6928
  739MOL0     H99743   8.801   3.576   4.370 -1.4382  2.5512  4.8331
  739MOL0     H99744   8.938   3.700   4.339 -0.7351  1.0022 -2.1998
  739MOL0     H99745   9.064   2.663   3.835  1.0307 -1.0845  0.1381
  739MOL0     H99746   9.196   2.502   3.726 -0.2541  1.3084  3.1919
  739MOL0     H99747   9.538   2.239   3.516  1.5227 -3.0895  0.0627
  739MOL0     H99748   9.656   2.113   3.338 -2.1454 -0.4850  1.8859
  739MOL0     H99749   9.355   2.438   2.620 -1.2700  0.2214 -0.0461
  739MOL0     H99750   9.293   2.663   2.736  2.2596 -1.0569 -2.5766
  739MOL0     H99751   9.458   2.927   3.125 -1.1051 -3.9052  0.7194
  739MOL0     H99752   9.418   3.141   3.249 -3.3782  3.8795  0.8082
  739MOL0     H99753   9.160   3.347   3.176 -0.9245 -3.7238 -0.6884
  739MOL0     H99754   9.322   3.341   3.239  0.4129 -0.5739  4.2716
  739MOL0     H99755   9.225   3.542   3.312 -0.6633 -1.0878 -0.2961
  739MOL0     H99756   9.261   3.435   3.448  2.2648  0.1191  0.0506
  739MOL0     H99757   9.031   3.357   3.437 -1.9307  0.8519  2.8056
  739MOL0     H99758   8.983   3.440   3.285  0.4560 -0.3315  0.6069
  739MOL0     H99759   8.969   3.526   3.568  0.7689 -2.0312 -0.1972
  739MOL0     H99760   9.051   3.639   3.473 -1.1795  0.6271  2.5239
  739MOL0     H99761   8.678   3.713   3.294  0.5294 -2.0020 -3.5704
  739MOL0     H99762   9.013   3.034   3.294 -0.7604  1.3553 -2.2995
  739MOL0     H99763   9.047   2.707   3.197  2.8300  0.2430  0.4728
  739MOL0     H99764   8.974   2.825   3.311 -0.9061  1.1094 -0.2189
  739MOL0     H99765   8.931   2.824   3.142  1.0193  0.2763  0.2037
  740MOL0     O99766   6.253   1.491  10.076  0.2338 -0.8451  0.4882
  740MOL0     C99767   6.156   1.551  10.111  0.3607  0.1559 -0.7743
  740MOL0     O99768   6.073   1.627  10.026  0.3248 -1.1819 -0.2456
  740MOL0     C99769   6.095   1.628   9.896 -0.1275 -0.4549  0.4572
  740MOL0     C99770   6.224   1.659   9.848 -1.0317 -0.6259  0.1380
  740MOL0     C99771   6.243   1.687   9.716  0.0742  0.4936  0.3026
  740MOL0     C99772   6.136   1.650   9.622 -0.4111  0.0181  0.0365
  740MOL0     O99773   6.150   1.658   9.493 -0.2657  0.2920  0.0292
  740MOL0     C99774   6.144   1.531   9.427 -0.6211 -1.9969  0.2211
  740MOL0     C99775   6.214   1.548   9.294  0.1557  0.4895 -0.6257
  740MOL0     C99776   6.367   1.556   9.302 -0.0398 -0.1974 -0.0991
  740MOL0     C99777   6.430   1.588   9.162  0.1936  0.1954 -0.1190
  740MOL0     C99778   6.573   1.533   9.154  1.5723  0.4801  0.5132
  740MOL0     C99779   6.595   1.380   9.103 -0.5254  0.2657 -0.3404
  740MOL0     C99780   6.734   1.313   9.108  0.1671 -1.3308  0.0263
  740MOL0     C99781   6.749   1.234   9.233  0.7682 -0.3069 -0.1384
  740MOL0     N99782   6.872   1.163   9.258 -0.2532 -0.1280  0.0559
  740MOL0     C99783   6.942   1.089   9.162 -0.0359  0.6809 -0.6290
  740MOL0     C99784   7.033   1.033   9.242 -0.2863  0.3960  0.2962
  740MOL0     C99785   7.124   0.921   9.198  0.8779 -0.0762 -0.8084
  740MOL0     C99786   7.049   0.790   9.219  0.6889  0.0344 -0.9701
  740MOL0     C99787   7.007   0.751   9.361 -0.3186  0.0286  0.7672
  740MOL0     C99788   7.123   0.761   9.468  0.9807 -0.4069  0.4289
  740MOL0     O99789   7.067   0.693   9.584  0.3604 -0.0362  0.2130
  740MOL0     C99790   7.148   0.682   9.691 -0.3545 -0.1990  0.2097
  740MOL0     C99791   7.083   0.657   9.815 -0.6458  1.0636  0.1202
  740MOL0     C99792   7.148   0.657   9.933 -0.1032  0.5942  0.3934
  740MOL0     C99793   7.289   0.682   9.938  0.1270  0.1820  0.4818
  740MOL0     C99794   7.366   0.672  10.064  0.5527 -0.6407 -0.7923
  740MOL0     O99795   7.487   0.731  10.055  0.9743 -0.3662  0.1156
  740MOL0     C99796   7.572   0.712  10.155 -0.1005 -0.1359 -0.4045
  740MOL0     C99797   7.635   0.828  10.204  0.4843  0.3742 -0.6858
  740MOL0     C99798   7.731   0.819  10.307 -0.1466  0.1021  0.8437
  740MOL0     C99799   7.758   0.697  10.369  0.2957 -0.0938 -0.5519
  740MOL0     O99800   7.845   0.674  10.474  0.2764 -0.1954 -0.1174
  740MOL0     C99801   7.894   0.548  10.513 -0.1145 -0.1436 -1.1667
  740MOL0     C99802   8.034   0.563  10.583 -1.2232 -0.2458  0.0605
  740MOL0     C99803   8.139   0.627  10.494  0.1861 -0.2003 -0.7431
  740MOL0     C99804   8.271   0.672  10.572 -0.1453  1.3861  1.0231
  740MOL0     C99805   8.255   0.756  10.695  0.4805 -0.3800 -0.4493
  740MOL0     C99806   8.154   0.883  10.680 -0.0329  0.4261 -0.4771
  740MOL0     C99807   8.214   0.995  10.590  0.0657  0.1829 -0.1432
  740MOL0     C99808   8.281   1.109  10.668  0.5425  0.7742  0.5262
  740MOL0    Cl99809   8.344   1.252  10.563 -0.1960 -0.6650 -0.2659
  740MOL0     C99810   7.711   0.583  10.304 -0.0837 -0.5730 -0.3861
  740MOL0     C99811   7.616   0.589  10.202 -0.4702  0.2908 -0.6090
  740MOL0     O99812   7.320   0.607  10.156  0.1185 -0.6943 -0.7906
  740MOL0     C99813   7.350   0.716   9.815  1.0430  0.1656 -0.2315
  740MOL0     C99814   7.282   0.728   9.694 -0.3937  0.2925 -0.6014
  740MOL0     N99815   7.020   1.067   9.376  0.8532 -0.2716  0.6391
  740MOL0     N99816   6.916   1.137   9.383  0.2603 -0.1598 -0.5490
  740MOL0     C99817   6.005   1.625   9.671 -0.0469 -0.2042 -0.9171
  740MOL0     C99818   5.983   1.612   9.808 -0.0147  0.6440 -0.2233
  740MOL0     C99819   6.132   1.561  10.252  0.2608 -0.7250 -0.0704
  740MOL0     C99820   6.245   1.591  10.333  0.3081  0.9102  0.1109
  740MOL0     C99821   6.235   1.608  10.470 -0.1284 -0.9818  0.0081
  740MOL0     C99822   6.116   1.599  10.535  0.8323 -0.3628 -0.6655
  740MOL0     O99823   6.119   1.603  10.675  0.7461 -0.0226  0.1288
  740MOL0     C99824   5.993   1.638  10.733  0.2093  0.6744  1.0118
  740MOL0     C99825   6.013   1.664  10.885 -0.1755 -0.2583 -0.3976
  740MOL0     C99826   6.071   1.544  10.953 -0.1406  0.2105 -0.3019
  740MOL0     C99827   6.147   1.583  11.076 -0.2646 -1.1839  0.6892
  740MOL0     C99828   6.212   1.468  11.136 -0.1541  0.3944 -0.2354
  740MOL0     C99829   6.273   1.379  11.192 -0.5024 -0.3330  0.4243
  740MOL0     C99830   6.003   1.559  10.458 -0.2266  0.3151  0.8671
  740MOL0     C99831   6.010   1.549  10.317  1.6378 -0.1887  1.7119
  740MOL0     C99832   5.880   1.528  10.243  0.8693  0.0865 -0.4129
  740MOL0     H99833   6.299   1.678   9.925  0.3426  1.8501 -1.6525
  740MOL0     H99834   6.336   1.728   9.679 -0.8981  3.2599  0.7143
  740MOL0     H99835   6.173   1.443   9.485 -3.2433 -2.3828  1.0795
  740MOL0     H99836   6.037   1.521   9.405 -0.4144 -3.8383 -0.1284
  740MOL0     H99837   6.162   1.636   9.256 -3.1958 -0.1797  1.9613
  740MOL0     H99838   6.192   1.460   9.233  2.0844  0.4552 -1.3629
  740MOL0     H99839   6.408   1.463   9.343  0.9491  0.3404  0.1757
  740MOL0     H99840   6.389   1.626   9.383 -1.5021 -0.8659  0.9116
  740MOL0     H99841   6.368   1.531   9.092  0.2841  0.9769 -0.8478
  740MOL0     H99842   6.417   1.693   9.132 -1.2734 -0.4692 -2.0324
  740MOL0     H99843   6.650   1.588   9.100  4.7879 -2.4927  1.6790
  740MOL0     H99844   6.614   1.541   9.255  1.1232  0.3084  0.7142
  740MOL0     H99845   6.514   1.327   9.152  0.0567  1.0319  1.5424
  740MOL0     H99846   6.565   1.389   8.998  0.3125 -2.4388 -0.8752
  740MOL0     H99847   6.805   1.396   9.115  0.3244 -1.2474 -1.9973
  740MOL0     H99848   6.759   1.246   9.025  1.8670  1.4884 -1.8966
  740MOL0     H99849   6.728   1.295   9.322 -0.4488 -1.4591  0.3912
  740MOL0     H99850   6.665   1.166   9.216  0.2716  0.5022 -0.9764
  740MOL0     H99851   6.926   1.066   9.057 -0.7883 -1.9269 -0.0279
  740MOL0     H99852   7.160   0.932   9.095  2.1086  0.5099 -0.3314
  740MOL0     H99853   7.211   0.925   9.265  0.5811 -0.9917 -0.3487
  740MOL0     H99854   6.961   0.802   9.156  1.5715 -1.6417 -2.6333
  740MOL0     H99855   7.117   0.710   9.187  0.9010 -0.1843  0.0036
  740MOL0     H99856   6.968   0.649   9.361 -0.0262 -0.0868  1.3795
  740MOL0     H99857   6.929   0.823   9.389 -0.9958 -0.4030  0.0449
  740MOL0     H99858   7.130   0.868   9.485  0.2511  0.0462 -1.8232
  740MOL0     H99859   7.219   0.725   9.429 -0.7951 -1.9086 -3.0148
  740MOL0     H99860   6.975   0.646   9.812 -0.5616 -0.6308  1.5783
  740MOL0     H99861   7.091   0.643  10.024  1.4377 -0.1558  1.2976
  740MOL0     H99862   7.621   0.922  10.152 -1.7367 -0.1031 -1.0836
  740MOL0     H99863   7.787   0.903  10.347 -0.0052 -0.4332  1.8175
  740MOL0     H99864   7.824   0.502  10.583 -0.2109  3.8669  1.7238
  740MOL0     H99865   7.903   0.478  10.430 -2.2634  0.2352 -1.7760
  740MOL0     H99866   8.019   0.616  10.678  0.1488 -0.8899  0.6682
  740MOL0     H99867   8.070   0.461  10.601  3.2182  0.7199 -1.9296
  740MOL0     H99868   8.156   0.569  10.403  4.2644 -1.2349  0.4932
  740MOL0     H99869   8.091   0.722  10.466  0.5077  0.3646  0.5407
  740MOL0     H99870   8.329   0.714  10.489  0.3302 -0.2838  0.4790
  740MOL0     H99871   8.318   0.579  10.606 -1.3374  0.3255 -0.1279
  740MOL0     H99872   8.351   0.795  10.727  0.6367 -0.1129 -1.2377
  740MOL0     H99873   8.227   0.692  10.780 -0.1137 -2.3148 -2.0126
  740MOL0     H99874   8.058   0.852  10.637 -0.1329 -1.3807  0.8924
  740MOL0     H99875   8.141   0.925  10.780 -0.1861 -0.4721 -0.1059
  740MOL0     H99876   8.148   1.046  10.519  0.0086  0.2111 -0.0701
  740MOL0     H99877   8.291   0.952  10.524  0.5583  3.5702 -1.9709
  740MOL0     H99878   8.213   1.142  10.747  1.5467 -2.4292  2.9184
  740MOL0     H99879   8.359   1.068  10.731  0.8298  0.4948 -0.0014
  740MOL0     H99880   7.716   0.485  10.351  1.0841  0.7009  2.3212
  740MOL0     H99881   7.582   0.498  10.154  1.3100  0.2979 -1.9801
  740MOL0     H99882   7.456   0.723   9.795  1.1333  1.4537  0.6172
  740MOL0     H99883   7.330   0.776   9.610 -0.6532 -3.2221 -2.9591
  740MOL0     H99884   5.918   1.618   9.606 -0.9448  0.7442  0.1391
  740MOL0     H99885   5.884   1.600   9.852 -0.3769  0.8044 -0.9677
  740MOL0     H99886   6.343   1.597  10.288  0.3699 -0.9314 -0.0372
  740MOL0     H99887   6.326   1.625  10.526 -0.7747  1.6300  0.4150
  740MOL0     H99888   5.918   1.558  10.732 -0.1247  0.9525 -1.0604
  740MOL0     H99889   5.940   1.717  10.678  0.1788 -0.2669 -0.3816
  740MOL0     H99890   5.923   1.684  10.944  0.0427 -1.4433  0.3602
  740MOL0     H99891   6.087   1.744  10.894  0.2015 -0.6434 -0.0361
  740MOL0     H99892   6.146   1.495  10.891 -0.0792 -0.7029  0.4704
  740MOL0     H99893   5.992   1.472  10.975  1.0948 -0.9149  0.6100
  740MOL0     H99894   6.224   1.659  11.060 -0.0486 -1.0720  2.1313
  740MOL0     H99895   6.077   1.628  11.147  3.0189  1.4391  2.5336
  740MOL0     H99896   6.341   1.315  11.245  2.4651  2.5640  0.3894
  740MOL0     H99897   5.914   1.520  10.507  0.3250 -3.0285 -0.5300
  740MOL0     H99898   5.808   1.470  10.302  1.0516  0.2113 -0.0605
  740MOL0     H99899   5.829   1.623  10.223  0.2322 -0.1853 -0.1057
  740MOL0     H99900   5.885   1.489  10.141  1.2083  1.8151 -1.0849
  741MOL0     O99901   9.543   0.851   7.273  0.1508  0.5807 -0.3506
  741MOL0     C99902   9.469   0.852   7.174  0.2924 -0.3770 -0.3695
  741MOL0     O99903   9.489   0.928   7.061  0.6107  0.3826 -0.1238
  741MOL0     C99904   9.572   1.030   7.081 -0.5305 -0.2360 -0.1321
  741MOL0     C99905   9.552   1.136   7.169  0.4696  0.3898  0.0663
  741MOL0     C99906   9.646   1.237   7.193  1.1108  0.4876  0.0580
  741MOL0     C99907   9.769   1.233   7.129 -0.4638 -0.6195 -0.2688
  741MOL0     O99908   9.871   1.329   7.147  0.2546  0.6621  0.1909
  741MOL0     C99909   9.877   1.410   7.262  0.0320 -0.3528  0.0806
  741MOL0     C99910   9.999   1.489   7.280 -0.1286  1.2073  0.8399
  741MOL0     C99911  10.005   1.611   7.193 -0.4255  0.6815 -0.1715
  741MOL0     C99912  10.140   1.698   7.188  0.5325 -0.3771 -0.5408
  741MOL0     C99913  10.127   1.825   7.277 -1.1981 -0.9496 -0.8546
  741MOL0     C99914  10.057   1.947   7.213  0.1602 -0.1824 -0.4686
  741MOL0     C99915  10.058   2.061   7.307 -0.5077 -0.4814  0.4642
  741MOL0     C99916  10.013   2.042   7.449 -0.6391  0.2759 -0.0685
  741MOL0     N99917  10.045   2.164   7.527  0.6804 -0.2807 -0.5319
  741MOL0     C99918   9.956   2.230   7.611  0.3881  0.3708  0.6914
  741MOL0     C99919  10.026   2.331   7.648  0.4961 -0.0513 -0.9643
  741MOL0     C99920   9.957   2.443   7.733  0.0055  0.0544  0.3769
  741MOL0     C99921  10.046   2.504   7.848  0.6039  0.9802 -0.5139
  741MOL0     C99922   9.969   2.613   7.917 -0.2642  0.0844 -0.2189
  741MOL0     C99923  10.038   2.657   8.045  0.7543 -0.1778  0.0278
  741MOL0     O99924  10.179   2.683   8.037 -0.3385  0.9642  0.7454
  741MOL0     C99925  10.251   2.609   8.127 -0.0488 -0.3419  1.3553
  741MOL0     C99926  10.289   2.669   8.244 -0.4925  0.0884  0.3833
  741MOL0     C99927  10.379   2.598   8.327 -0.0111 -0.6190  0.5914
  741MOL0     C99928  10.429   2.471   8.288 -0.2680  0.4217  0.2991
  741MOL0     C99929  10.524   2.402   8.379 -0.0882  0.0189 -0.0914
  741MOL0     O99930  10.624   2.324   8.332 -0.3308 -0.4460  0.1248
  741MOL0     C99931  10.710   2.263   8.422 -0.4426  0.0474  1.4557
  741MOL0     C99932  10.746   2.297   8.552 -0.2971  0.4567  0.1186
  741MOL0     C99933  10.851   2.233   8.619  0.1931  0.1054  0.6701
  741MOL0     C99934  10.926   2.134   8.560 -0.3443 -0.3036  0.2919
  741MOL0     O99935  11.026   2.058   8.621 -0.4114 -0.6864  1.0380
  741MOL0     C99936  11.054   2.099   8.755  1.4617  0.5515  0.1456
  741MOL0     C99937  11.185   2.031   8.801  0.8091 -0.2883 -0.0643
  741MOL0     C99938  11.230   2.061   8.940 -0.3464 -0.2421 -0.2697
  741MOL0     C99939  11.184   1.958   9.041 -0.9490  0.2180 -0.1929
  741MOL0     C99940  11.244   1.992   9.176 -0.2999 -0.9683  0.4932
  741MOL0     C99941  11.167   1.895   9.275 -0.3179 -0.5342 -0.0558
  741MOL0     C99942  11.237   1.902   9.407  0.0180  1.2221  1.0255
  741MOL0     C99943  11.139   1.899   9.522 -0.0883 -0.2544 -0.1845
  741MOL0    Cl99944  11.083   1.731   9.524 -0.1339  0.2320 -0.0123
  741MOL0     C99945  10.898   2.098   8.429  0.0520  0.4287  0.5957
  741MOL0     C99946  10.793   2.165   8.359  0.4947  0.1600  0.5580
  741MOL0     O99947  10.492   2.403   8.500 -0.0381 -0.1953  0.8656
  741MOL0     C99948  10.408   2.416   8.164 -0.9749 -0.3975  0.4646
  741MOL0     C99949  10.307   2.483   8.089  0.4843 -0.6022  0.3351
  741MOL0     N99950  10.159   2.312   7.632  0.4016 -0.8871  0.1748
  741MOL0     N99951  10.174   2.211   7.560 -0.2845  0.4548  0.4564
  741MOL0     C99952   9.786   1.132   7.030 -1.0464  0.4764  0.3217
  741MOL0     C99953   9.690   1.035   7.006  0.2096  0.5134  0.4497
  741MOL0     C99954   9.359   0.759   7.186 -0.2518  0.0391 -0.4536
  741MOL0     C99955   9.355   0.673   7.078 -0.4451  0.7094  0.2040
  741MOL0     C99956   9.274   0.558   7.074 -0.3748  0.5135 -0.3068
  741MOL0     C99957   9.206   0.520   7.192  0.8541 -0.0531  0.4622
  741MOL0     O99958   9.123   0.407   7.204 -0.3061  0.0246  0.8440
  741MOL0     C99959   9.144   0.297   7.103  0.2547  0.7789 -0.3520
  741MOL0     C99960   9.072   0.173   7.170  0.0107  0.3909 -0.9844
  741MOL0     C99961   9.109   0.050   7.088 -0.1000 -0.9547 -0.4384
  741MOL0     C99962   9.080  -0.082   7.154 -0.0641  1.3875 -0.0979
  741MOL0     C99963   9.156  -0.126   7.274 -0.5391 -0.3522  0.1052
  741MOL0     C99964   9.199  -0.162   7.383  0.4588  0.9307 -0.9745
  741MOL0     C99965   9.207   0.602   7.307 -0.3739 -0.4765 -0.2054
  741MOL0     C99966   9.281   0.720   7.303  0.1669  0.4867 -0.3087
  741MOL0     C99967   9.289   0.794   7.437  0.1646  0.1764  0.4249
  741MOL0     H99968   9.465   1.129   7.233  0.2902  2.8621  0.1793
  741MOL0     H99969   9.607   1.318   7.255  2.3054  1.3872 -0.3264
  741MOL0     H99970   9.796   1.480   7.282  1.8758  2.0144 -0.3135
  741MOL0     H99971   9.883   1.349   7.353  5.9100  1.9794  1.6675
  741MOL0     H99972  10.091   1.432   7.263  0.5253  2.1281  1.1804
  741MOL0     H99973   9.997   1.517   7.385 -1.3911 -1.6232  1.6681
  741MOL0     H99974   9.927   1.676   7.234 -0.2759 -0.9453  3.0703
  741MOL0     H99975   9.985   1.574   7.092  2.0581 -0.5172 -0.2959
  741MOL0     H99976  10.219   1.640   7.237 -1.4512 -1.9558  0.9677
  741MOL0     H99977  10.178   1.737   7.093  0.3456  2.2285  0.3603
  741MOL0     H99978  10.074   1.794   7.368  0.1424 -0.4500  0.1120
  741MOL0     H99979  10.232   1.848   7.297 -1.2736 -0.8140 -0.6057
  741MOL0     H99980  10.103   1.978   7.119  0.4945  0.9459  0.0404
  741MOL0     H99981   9.949   1.929   7.214  0.3704 -1.8225  1.8489
  741MOL0     H99982   9.995   2.143   7.272  3.4861  2.8517  0.2837
  741MOL0     H99983  10.161   2.096   7.319 -1.2464  1.9335  0.3154
  741MOL0     H99984   9.904   2.027   7.456 -0.7560  0.3798 -1.4531
  741MOL0     H99985  10.068   1.957   7.490  0.2640  1.6911  1.8155
  741MOL0     H99986   9.848   2.224   7.607  0.4763 -1.4073 -0.8346
  741MOL0     H99987   9.928   2.522   7.663 -2.0891  1.4415  2.6376
  741MOL0     H99988   9.871   2.399   7.784 -0.7415  1.3112  0.2458
  741MOL0     H99989  10.087   2.430   7.919 -0.5529  0.5562 -0.2704
  741MOL0     H99990  10.130   2.559   7.805  0.2720  2.1951  0.3301
  741MOL0     H99991   9.869   2.577   7.942  0.3106 -0.5356  1.2629
  741MOL0     H99992   9.967   2.707   7.860  0.5156  0.6626  0.6786
  741MOL0     H99993  10.016   2.571   8.109  2.3248 -3.4774 -3.4373
  741MOL0     H99994   9.995   2.745   8.093  0.9663 -0.9491  1.7098
  741MOL0     H99995  10.248   2.764   8.277 -0.1091  0.1005  0.8402
  741MOL0     H99996  10.396   2.630   8.429  0.9762 -0.1203  0.2790
  741MOL0     H99997  10.699   2.369   8.618 -0.1197  0.4517  0.2510
  741MOL0     H99998  10.857   2.257   8.724 -0.3062  4.8019 -0.1457
  741MOL0     H99999  11.069   2.206   8.768 -0.3653  0.9799 -1.0432
  741MOL0     H    0  10.973   2.074   8.824  1.8922  2.3425  1.3867
  741MOL0     H    1  11.179   1.923   8.783  0.3325 -0.3938  0.6762
  741MOL0     H    2  11.251   2.084   8.733 -0.5439  2.0144  0.3142
  741MOL0     H    3  11.338   2.046   8.934 -0.3669 -1.0741  1.2242
  741MOL0     H    4  11.207   2.158   8.985  1.2001 -2.0113  5.0682
  741MOL0     H    5  11.225   1.859   9.019  3.3017  1.6617  0.3368
  741MOL0     H    6  11.075   1.961   9.048 -1.0118  1.5316 -1.1987
  741MOL0     H    7  11.230   2.096   9.206 -0.2939 -0.7472 -0.2665
  741MOL0     H    8  11.351   1.971   9.181  0.1933  1.2595  0.3882
  741MOL0     H    9  11.064   1.929   9.289  0.1632  1.3547 -0.8136
  741MOL0     H   10  11.165   1.790   9.246  1.2312 -2.5643  5.7202
  741MOL0     H   11  11.284   2.001   9.416  1.3072  0.9442 -1.7782
  741MOL0     H   12  11.316   1.832   9.433 -1.0664  0.7949  3.4743
  741MOL0     H   13  11.196   1.901   9.615  0.6249  0.9389 -0.6282
  741MOL0     H   14  11.054   1.967   9.509  0.4046 -0.0202 -2.6832
  741MOL0     H   15  10.971   2.042   8.371 -1.7817 -0.0884 -1.3344
  741MOL0     H   16  10.778   2.146   8.253  1.2421  0.5792  0.3639
  741MOL0     H   17  10.454   2.323   8.131  3.1102  0.2432  3.5080
  741MOL0     H   18  10.295   2.452   7.986 -1.3859  1.7639 -0.2542
  741MOL0     H   19   9.867   1.136   6.958  1.2850 -0.8616  2.7364
  741MOL0     H   20   9.704   0.959   6.930 -1.3465  1.1515 -0.5173
  741MOL0     H   21   9.412   0.700   6.990  2.4234 -2.3538  0.9414
  741MOL0     H   22   9.283   0.484   6.995 -0.2682 -1.2476  1.2926
  741MOL0     H   23   9.250   0.273   7.091 -0.0524 -2.3692  1.8494
  741MOL0     H   24   9.099   0.325   7.007 -1.9153 -0.9124  0.0691
  741MOL0     H   25   8.963   0.173   7.169 -0.2330 -1.7320  3.2204
  741MOL0     H   26   9.116   0.157   7.269  0.4514 -2.3125 -1.5500
  741MOL0     H   27   9.213   0.042   7.055 -0.2344 -0.4113 -1.0104
  741MOL0     H   28   9.048   0.055   6.997 -3.6730  0.5877  1.8138
  741MOL0     H   29   8.973  -0.092   7.175  0.1209 -3.7397 -0.4676
  741MOL0     H   30   9.092  -0.149   7.069 -1.1483  1.1583 -0.0856
  741MOL0     H   31   9.220  -0.192   7.483  0.5609 -0.2127 -1.3225
  741MOL0     H   32   9.170   0.582   7.407  3.4319  0.9410  1.7007
  741MOL0     H   33   9.330   0.741   7.523  2.6411 -0.4207 -1.0136
  741MOL0     H   34   9.362   0.876   7.429  1.2784 -0.9646 -2.3718
  741MOL0     H   35   9.183   0.816   7.449 -0.7122 -1.7293 -2.5822
  742MOL0     O   36   0.756   9.441   5.408 -0.2411 -0.3779 -0.1191
  742MOL0     C   37   0.772   9.557   5.458  0.5641  0.5008  1.0933
  742MOL0     O   38   0.855   9.645   5.409  0.6728 -0.4676  0.1016
  742MOL0     C   39   0.930   9.609   5.297 -0.0925  0.0771  0.4661
  742MOL0     C   40   0.872   9.599   5.171  0.2308 -0.3290  0.0256
  742MOL0     C   41   0.951   9.590   5.054 -0.4841 -1.2951 -1.0366
  742MOL0     C   42   1.090   9.598   5.064  0.0729 -0.4403  0.3568
  742MOL0     O   43   1.167   9.620   4.955 -0.2141  0.6978 -0.6936
  742MOL0     C   44   1.286   9.548   4.941  0.0965  0.9709  0.3572
  742MOL0     C   45   1.346   9.561   4.798 -0.9502 -0.0061  0.4446
  742MOL0     C   46   1.466   9.463   4.793 -0.3334 -0.1049  0.0500
  742MOL0     C   47   1.492   9.434   4.642  0.0743 -0.7882  0.1419
  742MOL0     C   48   1.610   9.331   4.650 -0.2382  0.5238  0.4551
  742MOL0     C   49   1.630   9.290   4.505  0.2385 -0.7526  0.1346
  742MOL0     C   50   1.737   9.179   4.503 -1.0541  0.0435  0.1929
  742MOL0     C   51   1.728   9.090   4.378 -0.1981 -0.3169  0.3798
  742MOL0     N   52   1.841   9.001   4.375  0.6600  0.3210  0.0436
  742MOL0     C   53   1.840   8.872   4.431 -0.1534 -0.5932  0.2123
  742MOL0     C   54   1.972   8.849   4.448 -0.0158  0.7431 -0.4977
  742MOL0     C   55   2.006   8.723   4.517 -0.2621  1.4220 -0.2167
  742MOL0     C   56   2.133   8.659   4.447 -0.0607  0.4030  0.5107
  742MOL0     C   57   2.082   8.553   4.346 -0.6314  0.5195 -0.1167
  742MOL0     C   58   2.007   8.587   4.217 -0.0286 -0.6825  0.5838
  742MOL0     O   59   2.089   8.644   4.114  0.3576 -0.2301 -0.2296
  742MOL0     C   60   2.172   8.559   4.037 -0.4879  0.0501  0.8059
  742MOL0     C   61   2.287   8.624   3.985  0.4512  0.3086  0.1465
  742MOL0     C   62   2.388   8.554   3.924 -0.2249  0.0328  0.5766
  742MOL0     C   63   2.390   8.408   3.913 -0.4804 -0.9261 -0.4362
  742MOL0     C   64   2.512   8.341   3.864 -0.6878 -0.2426 -0.0860
  742MOL0     O   65   2.498   8.211   3.826  0.2446  0.3549 -1.0981
  742MOL0     C   66   2.600   8.139   3.755  0.4555  1.7183  0.2430
  742MOL0     C   67   2.733   8.166   3.723 -0.4097  0.5773 -0.5075
  742MOL0     C   68   2.809   8.073   3.650  0.2989  0.8498  0.4816
  742MOL0     C   69   2.749   7.953   3.593 -0.4483 -0.1471  0.0817
  742MOL0     O   70   2.852   7.880   3.538  0.5246  0.0928  0.3774
  742MOL0     C   71   2.808   7.748   3.488 -0.3109  0.1104  0.4358
  742MOL0     C   72   2.737   7.762   3.346  0.1019 -0.5533  0.4336
  742MOL0     C   73   2.673   7.628   3.308 -0.5641 -0.3566 -0.9077
  742MOL0     C   74   2.775   7.520   3.269  0.9919  0.4561  0.1634
  742MOL0     C   75   2.715   7.382   3.241  0.2735 -0.3323 -0.1826
  742MOL0     C   76   2.671   7.324   3.371  0.3308  0.7557 -0.0986
  742MOL0     C   77   2.632   7.179   3.347  0.1361  0.0913 -0.3582
  742MOL0     C   78   2.535   7.140   3.464 -0.4090 -0.0230  0.2613
  742MOL0    Cl   79   2.369   7.166   3.423  0.1426  0.6508 -0.1817
  742MOL0     C   80   2.617   7.927   3.621  1.0091 -0.6785 -0.1450
  742MOL0     C   81   2.545   8.013   3.702 -0.0029  0.3024 -1.6231
  742MOL0     O   82   2.617   8.407   3.842  0.1886 -0.8895  1.2465
  742MOL0     C   83   2.270   8.341   3.958  0.4578 -0.2701  0.2895
  742MOL0     C   84   2.165   8.415   4.017  0.1279 -0.6895 -0.0701
  742MOL0     N   85   2.055   8.958   4.402  0.3801  0.1507 -1.1661
  742MOL0     N   86   1.965   9.045   4.370 -0.1612 -0.1729  0.3423
  742MOL0     C   87   1.150   9.590   5.192  1.1066 -1.6187 -1.7879
  742MOL0     C   88   1.065   9.604   5.305 -0.2191 -0.6662 -0.0748
  742MOL0     C   89   0.699   9.583   5.586  0.6954  0.5226  0.7593
  742MOL0     C   90   0.635   9.479   5.657  0.8183 -0.4143  0.5186
  742MOL0     C   91   0.585   9.519   5.783  0.6616  0.7798 -0.2899
  742MOL0     C   92   0.559   9.643   5.823  0.7878 -0.1172 -0.1260
  742MOL0     O   93   0.477   9.652   5.936 -0.1198  0.3827 -0.4061
  742MOL0     C   94   0.420   9.777   5.983 -0.6795 -0.2746  0.3036
  742MOL0     C   95   0.507   9.853   6.078 -0.3511 -1.2482 -0.5664
  742MOL0     C   96   0.561   9.753   6.190 -0.0423  0.2329 -0.4340
  742MOL0     C   97   0.459   9.660   6.265  0.0929 -0.4318 -0.0758
  742MOL0     C   98   0.519   9.614   6.388 -0.3241  0.0752  0.1668
  742MOL0     C   99   0.570   9.577   6.497 -0.3268  0.5143 -0.1483
  742MOL0     C  100   0.620   9.751   5.755 -1.4422  0.1639 -0.0666
  742MOL0     C  101   0.692   9.718   5.630  1.0737 -0.4413 -0.2213
  742MOL0     C  102   0.740   9.839   5.546  0.4093 -0.0208 -0.0907
  742MOL0     H  103   0.766   9.589   5.153  0.9591 -2.6413 -4.4353
  742MOL0     H  104   0.905   9.582   4.957  0.3491 -2.5266 -1.3667
  742MOL0     H  105   1.371   9.564   5.007  0.9677 -3.6446  0.6777
  742MOL0     H  106   1.268   9.441   4.953 -1.6819  1.1742 -0.2687
  742MOL0     H  107   1.371   9.667   4.788 -2.6590  0.1975 -3.2772
  742MOL0     H  108   1.273   9.551   4.717  0.5582  0.9771 -1.0975
  742MOL0     H  109   1.433   9.373   4.845 -1.8606  0.9054  0.8873
  742MOL0     H  110   1.555   9.497   4.848 -1.2974  1.6009  0.6328
  742MOL0     H  111   1.410   9.409   4.575 -0.0902  0.7508 -0.2835
  742MOL0     H  112   1.539   9.526   4.605  1.3306 -2.4465 -2.7933
  742MOL0     H  113   1.705   9.363   4.694 -0.1464  0.7506  0.0929
  742MOL0     H  114   1.582   9.244   4.711  0.3769 -0.3612 -0.4956
  742MOL0     H  115   1.533   9.257   4.466  0.4268  0.4798 -1.4704
  742MOL0     H  116   1.656   9.383   4.453 -0.3409  1.5439  3.6398
  742MOL0     H  117   1.732   9.126   4.599  0.4662 -0.0442  0.2598
  742MOL0     H  118   1.833   9.232   4.506 -0.8618 -0.3010  0.1799
  742MOL0     H  119   1.627   9.046   4.377 -0.3503 -0.0894 -2.2820
  742MOL0     H  120   1.725   9.162   4.296 -1.8137 -1.0872 -0.2952
  742MOL0     H  121   1.756   8.809   4.457 -0.9215 -0.0983 -0.9844
  742MOL0     H  122   2.043   8.750   4.617  0.7528  2.2903 -0.8139
  742MOL0     H  123   1.931   8.647   4.539  3.0376 -1.8672  0.6471
  742MOL0     H  124   2.207   8.732   4.413 -0.0694 -0.0267 -0.4622
  742MOL0     H  125   2.186   8.605   4.526 -2.7650 -0.9309  1.5460
  742MOL0     H  126   2.022   8.474   4.392  0.2816 -1.5151 -2.2119
  742MOL0     H  127   2.166   8.490   4.315 -0.0286  2.0310 -1.6657
  742MOL0     H  128   1.941   8.673   4.233  2.1254  2.1645 -3.6703
  742MOL0     H  129   1.939   8.515   4.172 -0.6004  0.4254 -0.3656
  742MOL0     H  130   2.296   8.731   4.001  1.9884  0.0511  1.2299
  742MOL0     H  131   2.468   8.617   3.888 -1.9047  2.2769  0.5860
  742MOL0     H  132   2.784   8.260   3.741  0.5273  0.6732 -3.2605
  742MOL0     H  133   2.914   8.093   3.633 -0.0316  4.3796  1.5961
  742MOL0     H  134   2.905   7.698   3.486  0.0818  0.5774 -4.4559
  742MOL0     H  135   2.749   7.695   3.564  1.6133 -0.5126  1.5574
  742MOL0     H  136   2.663   7.841   3.364  2.1873  1.1519  2.1008
  742MOL0     H  137   2.798   7.797   3.262 -0.0042  1.4765  1.1393
  742MOL0     H  138   2.624   7.599   3.402 -2.3911 -0.6172 -1.9101
  742MOL0     H  139   2.597   7.629   3.229 -2.3458 -4.3812  0.4744
  742MOL0     H  140   2.853   7.514   3.344 -1.3751  2.5731  3.0166
  742MOL0     H  141   2.828   7.556   3.180  0.1386 -1.7485 -1.3233
  742MOL0     H  142   2.798   7.322   3.202  2.4668  2.3968 -0.0138
  742MOL0     H  143   2.623   7.388   3.183 -0.0035 -1.9503  0.0476
  742MOL0     H  144   2.752   7.316   3.444 -0.0938  1.2862  0.4435
  742MOL0     H  145   2.583   7.377   3.408  0.0274 -0.7087  1.4345
  742MOL0     H  146   2.715   7.109   3.348 -0.0378 -0.1116  0.3049
  742MOL0     H  147   2.570   7.179   3.257 -0.6656 -0.0223  0.1785
  742MOL0     H  148   2.549   7.032   3.478 -1.7275 -0.4681 -1.4768
  742MOL0     H  149   2.569   7.184   3.558  0.0407  0.8100 -0.2801
  742MOL0     H  150   2.582   7.831   3.584  3.9396 -2.0582  0.3634
  742MOL0     H  151   2.443   7.985   3.728  1.6211 -3.6395  1.5306
  742MOL0     H  152   2.268   8.233   3.968  0.3380 -0.4087 -1.0673
  742MOL0     H  153   2.079   8.362   4.056 -0.2213  1.9997  3.2991
  742MOL0     H  154   1.257   9.606   5.204  0.7953 -1.0962  0.6806
  742MOL0     H  155   1.114   9.609   5.402  0.0911 -0.0045 -0.2637
  742MOL0     H  156   0.633   9.375   5.626 -1.0628 -0.7894  1.7346
  742MOL0     H  157   0.561   9.435   5.848 -2.6352  1.8584  0.0792
  742MOL0     H  158   0.326   9.750   6.032 -2.1522  0.6976 -1.8392
  742MOL0     H  159   0.397   9.842   5.899  2.4798  2.3082  1.2200
  742MOL0     H  160   0.446   9.938   6.111  1.5981 -0.5250  1.4375
  742MOL0     H  161   0.594   9.889   6.022  0.1290 -1.8511 -0.2182
  742MOL0     H  162   0.612   9.820   6.261  2.4976  2.4610 -4.0164
  742MOL0     H  163   0.636   9.696   6.134 -1.8261  0.5050 -3.2685
  742MOL0     H  164   0.370   9.717   6.292 -0.2130 -0.9740  0.0584
  742MOL0     H  165   0.432   9.581   6.195 -0.9489 -1.2675  1.2305
  742MOL0     H  166   0.618   9.548   6.588  0.3105 -0.3519 -0.7426
  742MOL0     H  167   0.612   9.857   5.780  0.2980  0.2519  0.2344
  742MOL0     H  168   0.847   9.817   5.552 -0.5595 -6.4861  1.7258
  742MOL0     H  169   0.698   9.837   5.445 -1.0151 -1.1233  0.4970
  742MOL0     H  170   0.735   9.936   5.596  2.9639  0.3423 -0.4098
  743MOL0     O  171   4.130   5.015   9.583 -0.0864  0.1931  0.1022
  743MOL0     C  172   4.036   5.100   9.568 -0.1007  0.4004  0.0211
  743MOL0     O  173   4.030   5.221   9.633 -0.6873  0.0525 -0.5732
  743MOL0     C  174   4.138   5.274   9.696 -0.2063 -0.4082 -0.4179
  743MOL0     C  175   4.104   5.370   9.795 -0.4464  0.0050  1.1198
  743MOL0     C  176   4.206   5.444   9.863  0.1651 -0.0577 -0.2402
  743MOL0     C  177   4.340   5.423   9.842 -0.3399  0.3946  0.0835
  743MOL0     O  178   4.430   5.501   9.906  0.6354  0.1434 -0.1825
  743MOL0     C  179   4.575   5.465   9.910  0.5054 -0.3407 -0.1460
  743MOL0     C  180   4.645   5.555   9.805 -0.1816 -0.3853  0.1118
  743MOL0     C  181   4.793   5.575   9.843 -0.3120  0.2706 -0.0954
  743MOL0     C  182   4.876   5.610   9.719  0.4249 -0.0378  0.0220
  743MOL0     C  183   5.023   5.590   9.727 -0.6092 -0.3866 -0.9865
  743MOL0     C  184   5.085   5.663   9.845 -0.2087 -0.2444  0.2321
  743MOL0     C  185   5.241   5.655   9.842 -0.3741  0.3274 -0.5550
  743MOL0     C  186   5.307   5.687   9.980 -0.1082 -0.5450 -0.1786
  743MOL0     N  187   5.304   5.829  10.033  0.8462  0.7925  0.3053
  743MOL0     C  188   5.194   5.904  10.067 -0.1452 -0.4579  0.9535
  743MOL0     C  189   5.254   6.000  10.133 -0.2535 -1.1020 -0.5458
  743MOL0     C  190   5.179   6.096  10.225 -0.2080  0.1494  0.0932
  743MOL0     C  191   5.211   6.242  10.205  0.1184 -0.4148  0.4591
  743MOL0     C  192   5.213   6.328  10.329  0.3024  0.3004 -0.0622
  743MOL0     C  193   5.064   6.328  10.380  0.3118  0.5086  0.0656
  743MOL0     O  194   4.994   6.418  10.292 -0.1822  0.4228  0.0805
  743MOL0     C  195   5.004   6.552  10.298 -0.0758 -0.3757 -0.1283
  743MOL0     C  196   5.075   6.618  10.400  0.2707 -0.4354  0.4048
  743MOL0     C  197   5.105   6.757  10.395  0.1441  0.2781  0.1344
  743MOL0     C  198   5.060   6.843  10.296 -0.6441 -0.6333  0.6242
  743MOL0     C  199   5.086   6.990  10.289 -1.0428 -0.0592  0.4416
  743MOL0     O  200   5.206   7.034  10.341  0.3689 -0.0659 -0.4463
  743MOL0     C  201   5.235   7.160  10.398  0.2819  0.0259  0.2516
  743MOL0     C  202   5.375   7.190  10.432 -0.4212  0.4744  1.7941
  743MOL0     C  203   5.406   7.308  10.500  0.9110 -0.2395  0.3086
  743MOL0     C  204   5.307   7.411  10.530  0.8109 -0.5782  0.0988
  743MOL0     O  205   5.324   7.534  10.585 -0.2324  0.3191 -0.1955
  743MOL0     C  206   5.342   7.532  10.726 -0.0988 -0.2726 -0.2017
  743MOL0     C  207   5.473   7.594  10.734  0.7186 -0.3688  0.6273
  743MOL0     C  208   5.490   7.614  10.891 -0.2001 -0.4422  0.1767
  743MOL0     C  209   5.634   7.645  10.932 -0.1916 -0.5261  0.4296
  743MOL0     C  210   5.633   7.713  11.070 -0.5706 -0.8038 -0.2799
  743MOL0     C  211   5.582   7.613  11.181 -0.7597 -0.5149 -0.0306
  743MOL0     C  212   5.650   7.654  11.313  0.1738  0.3208 -0.5445
  743MOL0     C  213   5.633   7.544  11.426 -0.2573  0.1527  0.8575
  743MOL0    Cl  214   5.453   7.538  11.491 -0.0430  0.4397 -0.5976
  743MOL0     C  215   5.182   7.385  10.484  0.8705 -0.4743  0.4093
  743MOL0     C  216   5.138   7.262  10.428 -0.6257 -0.9111  0.3130
  743MOL0     O  217   5.002   7.054  10.221  0.3338 -0.1203 -0.2190
  743MOL0     C  218   4.976   6.781  10.197  0.2633  0.5021 -0.1937
  743MOL0     C  219   4.953   6.641  10.198  0.7716  0.5659 -0.2481
  743MOL0     N  220   5.396   6.000  10.132 -0.0369 -0.2119 -0.4553
  743MOL0     N  221   5.423   5.897  10.063 -0.6005  0.0813  0.7177
  743MOL0     C  222   4.367   5.326   9.745 -0.7847  1.2079  0.2778
  743MOL0     C  223   4.276   5.252   9.676  0.8232 -0.3033  0.0486
  743MOL0     C  224   3.920   5.075   9.478  0.0226  0.7942 -0.1522
  743MOL0     C  225   3.843   5.182   9.433  0.5517  0.8121 -0.7074
  743MOL0     C  226   3.728   5.157   9.362  0.8493 -0.5126  0.9702
  743MOL0     C  227   3.694   5.040   9.311  0.2335  0.5862  0.0357
  743MOL0     O  228   3.588   5.038   9.220  0.0135 -0.6286  0.0306
  743MOL0     C  229   3.637   4.987   9.092 -0.4417 -0.2373 -0.4858
  743MOL0     C  230   3.727   5.102   9.021 -0.2637  0.3849  0.0586
  743MOL0     C  231   3.652   5.205   8.942  0.0189  0.1079  0.5643
  743MOL0     C  232   3.743   5.301   8.856 -0.3211  1.0311 -0.4924
  743MOL0     C  233   3.862   5.354   8.932  0.6821 -0.1711 -1.0787
  743MOL0     C  234   3.965   5.377   8.995  0.1240  0.1227  0.0190
  743MOL0     C  235   3.763   4.923   9.355 -0.1869  0.6343  0.2123
  743MOL0     C  236   3.885   4.938   9.427 -0.2229 -0.4299 -0.8930
  743MOL0     C  237   3.950   4.811   9.467 -1.2587 -0.0927  0.0262
  743MOL0     H  238   3.999   5.376   9.820 -0.7258 -0.6103  0.1562
  743MOL0     H  239   4.193   5.520   9.939  1.0301  2.4649 -2.4726
  743MOL0     H  240   4.617   5.513   9.999 -0.7497  0.2489  0.1496
  743MOL0     H  241   4.602   5.360   9.900 -0.3172 -0.7508  1.5675
  743MOL0     H  242   4.598   5.654   9.812  2.3358  0.9582 -0.8332
  743MOL0     H  243   4.637   5.517   9.703  1.4019  0.6720 -0.4392
  743MOL0     H  244   4.818   5.473   9.876 -2.5739 -0.4945 -0.5452
  743MOL0     H  245   4.799   5.647   9.925  0.7164 -1.4599  1.4222
  743MOL0     H  246   4.840   5.543   9.641 -0.3933  1.8701 -1.3067
  743MOL0     H  247   4.853   5.711   9.683 -1.6311 -1.0245 -1.6578
  743MOL0     H  248   5.052   5.486   9.745 -0.1114 -0.2034 -0.6855
  743MOL0     H  249   5.068   5.629   9.635  0.8754 -1.2251 -0.6507
  743MOL0     H  250   5.062   5.770   9.832  2.5695  0.5427  1.1904
  743MOL0     H  251   5.050   5.620   9.939  0.1244 -2.3881 -0.5639
  743MOL0     H  252   5.277   5.719   9.761 -0.3239 -0.9110 -1.5407
  743MOL0     H  253   5.270   5.553   9.816  3.5006  1.1237  0.0229
  743MOL0     H  254   5.253   5.627  10.055  1.4998 -0.6537  0.9273
  743MOL0     H  255   5.413   5.662   9.982  0.4663  1.7681  0.8835
  743MOL0     H  256   5.089   5.887  10.083 -0.1455  0.3600  1.8914
  743MOL0     H  257   5.071   6.089  10.207 -0.3911 -1.7468  1.6566
  743MOL0     H  258   5.213   6.081  10.328  2.0232  2.5433 -0.1976
  743MOL0     H  259   5.313   6.237  10.167 -0.4848  2.4639 -1.9973
  743MOL0     H  260   5.151   6.284  10.123 -1.7275 -3.0270  0.3637
  743MOL0     H  261   5.245   6.431  10.309 -1.2021  0.5723 -1.2315
  743MOL0     H  262   5.282   6.274  10.394  2.5618  0.1406 -2.4108
  743MOL0     H  263   5.054   6.358  10.484  1.7847 -0.4799  0.5279
  743MOL0     H  264   5.012   6.232  10.372  1.1546  0.0141  0.4271
  743MOL0     H  265   5.118   6.572  10.488  2.3447  1.3278  0.3909
  743MOL0     H  266   5.154   6.791  10.486  1.1065 -4.5830  1.7348
  743MOL0     H  267   5.449   7.115  10.408 -2.1079 -0.4828 -0.8460
  743MOL0     H  268   5.508   7.334  10.527  2.1369 -1.1844 -2.8742
  743MOL0     H  269   5.273   7.602  10.773 -0.4730 -1.3308  0.8897
  743MOL0     H  270   5.343   7.434  10.774 -1.5679  0.4807  1.4895
  743MOL0     H  271   5.558   7.534  10.701  1.3494  0.5941  0.4753
  743MOL0     H  272   5.486   7.688  10.681  0.8734 -0.2784  0.8243
  743MOL0     H  273   5.430   7.703  10.914  0.0384  0.2737 -1.7955
  743MOL0     H  274   5.446   7.536  10.954 -2.7553  1.9669  1.6208
  743MOL0     H  275   5.687   7.718  10.872  0.8872  0.1085  2.0816
  743MOL0     H  276   5.691   7.552  10.929  0.2473 -0.2457  0.0578
  743MOL0     H  277   5.565   7.799  11.069  2.2109  1.5738 -0.3367
  743MOL0     H  278   5.736   7.747  11.084 -0.6846  0.6553 -2.5178
  743MOL0     H  279   5.473   7.620  11.192 -0.5514  1.8996  1.0822
  743MOL0     H  280   5.617   7.515  11.147 -0.7538  0.3532 -2.7715
  743MOL0     H  281   5.603   7.748  11.342 -0.3075 -0.3614  0.9669
  743MOL0     H  282   5.759   7.666  11.304  0.1918 -0.1355 -0.9850
  743MOL0     H  283   5.683   7.449  11.406 -0.3186  0.2672  0.1252
  743MOL0     H  284   5.697   7.583  11.506  4.1526 -0.5012 -1.9895
  743MOL0     H  285   5.119   7.473  10.493 -1.9967 -2.2718 -0.8044
  743MOL0     H  286   5.033   7.246  10.408 -0.8169 -0.3040  0.7930
  743MOL0     H  287   4.928   6.834  10.116  2.1963 -1.2907 -2.6909
  743MOL0     H  288   4.910   6.584  10.117 -0.4127 -1.6346  1.8190
  743MOL0     H  289   4.465   5.286   9.724 -1.4780 -0.9457  0.9474
  743MOL0     H  290   4.296   5.187   9.591  3.8233  0.6874 -0.1395
  743MOL0     H  291   3.872   5.281   9.465  3.8960  0.6516 -2.8005
  743MOL0     H  292   3.682   5.252   9.336  1.5754  0.6297  3.5684
  743MOL0     H  293   3.552   4.959   9.029  0.2730 -0.1300 -1.5160
  743MOL0     H  294   3.701   4.898   9.096 -1.8994 -1.2726  0.5643
  743MOL0     H  295   3.790   5.053   8.946  0.3851  0.1085  0.7588
  743MOL0     H  296   3.798   5.150   9.090  1.0881  0.6150 -1.4357
  743MOL0     H  297   3.595   5.257   9.020 -0.0170  0.8960  0.0328
  743MOL0     H  298   3.573   5.158   8.882 -0.4990  0.8415  0.6514
  743MOL0     H  299   3.761   5.244   8.764  0.4461  0.2159  0.1438
  743MOL0     H  300   3.697   5.392   8.816  2.1361  2.2545 -0.7485
  743MOL0     H  301   4.050   5.420   9.045  2.8692 -0.5412 -3.6890
  743MOL0     H  302   3.718   4.827   9.333 -0.8984  1.4117 -2.0253
  743MOL0     H  303   3.890   4.748   9.534  1.6173 -0.1570  2.7344
  743MOL0     H  304   3.966   4.750   9.377  1.4444 -0.1254  0.4595
  743MOL0     H  305   4.052   4.820   9.505 -1.4193 -0.9170  0.6984
  744MOL0     O  306   1.234   4.036   9.686 -0.2332  0.2985  0.3095
  744MOL0     C  307   1.150   4.100   9.750  0.0434  0.9829 -0.1585
  744MOL0     O  308   1.164   4.233   9.781 -0.1511 -0.0535 -0.3391
  744MOL0     C  309   1.293   4.294   9.785  0.3460  0.6594 -0.4178
  744MOL0     C  310   1.373   4.300   9.893  0.2221 -0.4484 -0.7013
  744MOL0     C  311   1.494   4.364   9.894 -0.9510  0.5268  0.1617
  744MOL0     C  312   1.549   4.416   9.772  0.1996 -0.1340  0.6079
  744MOL0     O  313   1.666   4.491   9.779 -0.2196 -0.4135  0.1030
  744MOL0     C  314   1.761   4.433   9.692  0.8037 -1.1799  0.3300
  744MOL0     C  315   1.892   4.505   9.716  0.7254  0.1921 -0.4820
  744MOL0     C  316   1.991   4.477   9.606 -0.7170  0.7260  0.5371
  744MOL0     C  317   2.003   4.586   9.496  0.6886 -0.1457  0.1456
  744MOL0     C  318   2.067   4.716   9.554  0.5446 -0.2889  0.1572
  744MOL0     C  319   2.095   4.808   9.430 -0.0311  0.5118 -0.4770
  744MOL0     C  320   2.208   4.896   9.453  0.4067 -0.0114 -0.5148
  744MOL0     C  321   2.225   4.997   9.340  0.9040  0.3707 -0.0137
  744MOL0     N  322   2.365   5.015   9.307 -0.4024 -0.4906 -0.2287
  744MOL0     C  323   2.441   4.951   9.212  0.7684 -0.0279  0.7599
  744MOL0     C  324   2.562   5.003   9.200 -0.2508  0.2243 -0.1014
  744MOL0     C  325   2.665   4.951   9.097  0.2472  0.2889  0.7192
  744MOL0     C  326   2.804   4.921   9.147 -0.5417 -0.5487 -0.0872
  744MOL0     C  327   2.818   4.771   9.183 -0.5643  0.0302 -0.3288
  744MOL0     C  328   2.741   4.724   9.309  0.4234  0.1991  0.8198
  744MOL0     O  329   2.599   4.700   9.288 -0.4686 -0.1852 -0.1498
  744MOL0     C  330   2.555   4.570   9.268 -0.0817 -0.6796 -0.5670
  744MOL0     C  331   2.418   4.550   9.274  0.2225  0.0732  0.7021
  744MOL0     C  332   2.355   4.430   9.224  0.8688  0.1463  0.3811
  744MOL0     C  333   2.433   4.324   9.176 -0.4965 -0.7670 -0.2155
  744MOL0     C  334   2.370   4.204   9.120  0.0923 -0.0936 -0.3255
  744MOL0     O  335   2.452   4.091   9.099  0.0508  0.2383  0.7750
  744MOL0     C  336   2.377   3.991   9.037 -0.9251  0.5921  0.5846
  744MOL0     C  337   2.345   3.870   9.099 -0.7443  0.3160 -0.1524
  744MOL0     C  338   2.290   3.760   9.035 -0.8250 -0.4881  0.0031
  744MOL0     C  339   2.232   3.777   8.905 -1.1188 -0.5226 -0.0949
  744MOL0     O  340   2.152   3.678   8.851  0.5236  0.2255  0.3446
  744MOL0     C  341   2.018   3.706   8.809 -1.1882  0.5333 -0.3172
  744MOL0     C  342   1.929   3.597   8.863 -0.0626  0.3006 -0.5840
  744MOL0     C  343   1.792   3.647   8.891  0.5907  0.4656 -0.3648
  744MOL0     C  344   1.705   3.533   8.968  1.0349 -0.1456 -0.9093
  744MOL0     C  345   1.551   3.566   8.958 -0.1778 -0.3045  0.8886
  744MOL0     C  346   1.483   3.494   8.835 -0.4343  0.7994  0.2116
  744MOL0     C  347   1.331   3.519   8.824 -0.3430 -0.5588 -0.1139
  744MOL0     C  348   1.301   3.673   8.817  0.6289  0.0016 -0.4528
  744MOL0    Cl  349   1.386   3.762   8.680  0.1693 -0.1647  0.2742
  744MOL0     C  350   2.258   3.899   8.845 -2.1637 -0.3112  0.4166
  744MOL0     C  351   2.330   4.004   8.908 -0.6624 -0.0444  0.3863
  744MOL0     O  352   2.250   4.210   9.087 -0.0667 -0.6162 -0.2905
  744MOL0     C  353   2.571   4.350   9.164  0.3877 -0.4298 -0.1825
  744MOL0     C  354   2.634   4.470   9.209  1.1178 -0.1624  0.6650
  744MOL0     N  355   2.569   5.110   9.281  0.1110 -0.3745  0.5637
  744MOL0     N  356   2.456   5.120   9.348  0.9723 -0.0577  0.6204
  744MOL0     C  357   1.463   4.415   9.656 -0.0548 -0.7543 -0.5486
  744MOL0     C  358   1.344   4.350   9.672  0.7421 -1.4266  0.1399
  744MOL0     C  359   1.019   4.039   9.794  0.3979 -0.0551 -0.4352
  744MOL0     C  360   0.943   4.114   9.886 -0.1942  0.0811 -0.4790
  744MOL0     C  361   0.818   4.073   9.926  0.6162  0.9131 -0.5788
  744MOL0     C  362   0.764   3.953   9.879 -0.1820  0.0235 -0.3057
  744MOL0     O  363   0.629   3.922   9.902 -0.7285 -0.7120  0.4340
  744MOL0     C  364   0.611   3.790   9.962  0.0446  0.2881 -0.8143
  744MOL0     C  365   0.478   3.776  10.036  0.0155  0.6813 -1.0905
  744MOL0     C  366   0.359   3.857   9.991 -0.6096  0.1494 -0.5092
  744MOL0     C  367   0.250   3.819  10.095  0.6065 -0.2700  0.4670
  744MOL0     C  368   0.115   3.854  10.041  1.1429 -0.1155 -0.4315
  744MOL0     C  369   0.009   3.897   9.991  0.7263  0.1517  0.0793
  744MOL0     C  370   0.846   3.871   9.804  1.4795 -0.4217 -0.2884
  744MOL0     C  371   0.965   3.913   9.753 -0.2124  0.1229 -0.1384
  744MOL0     C  372   1.049   3.826   9.660  0.8020  0.1469 -1.1670
  744MOL0     H  373   1.340   4.265   9.990 -0.4357 -1.5500 -1.2977
  744MOL0     H  374   1.568   4.379   9.972 -0.7043  2.5012 -0.4131
  744MOL0     H  375   1.766   4.325   9.712 -1.6215 -1.9240 -2.3111
  744MOL0     H  376   1.733   4.435   9.586  3.1130  1.8195 -0.3489
  744MOL0     H  377   1.936   4.483   9.813 -0.3558  1.0628  0.2329
  744MOL0     H  378   1.863   4.610   9.722 -3.0098 -0.7081  0.5309
  744MOL0     H  379   1.957   4.387   9.555 -2.5398  1.5366  0.2286
  744MOL0     H  380   2.086   4.465   9.659 -1.7817  4.5281  3.8779
  744MOL0     H  381   2.074   4.548   9.422  2.7041 -0.4727  2.1136
  744MOL0     H  382   1.915   4.622   9.442  0.6001 -2.5463 -1.4579
  744MOL0     H  383   2.003   4.777   9.619  1.8089  1.1819  0.0673
  744MOL0     H  384   2.164   4.693   9.598  0.0385 -3.5365 -0.1876
  744MOL0     H  385   2.117   4.741   9.347 -2.5932 -0.4005 -0.5209
  744MOL0     H  386   2.008   4.870   9.409  0.9068  2.5057  1.1495
  744MOL0     H  387   2.294   4.829   9.464 -0.9481 -1.6691  0.4639
  744MOL0     H  388   2.189   4.945   9.549  2.2034 -1.9400  0.9125
  744MOL0     H  389   2.167   4.963   9.254  0.9160  2.2997 -0.8351
  744MOL0     H  390   2.183   5.090   9.380 -1.6419 -0.9880  0.7067
  744MOL0     H  391   2.393   4.877   9.149 -1.4334  1.4439  0.5655
  744MOL0     H  392   2.632   4.857   9.051  2.5764 -0.4063  0.3716
  744MOL0     H  393   2.681   5.022   9.015 -2.0124  1.5647  1.2833
  744MOL0     H  394   2.854   4.949   9.054  1.7956 -0.2163  1.1938
  744MOL0     H  395   2.834   5.002   9.215  0.8573  0.4107 -1.7596
  744MOL0     H  396   2.924   4.749   9.198 -0.1536  3.0079  2.2240
  744MOL0     H  397   2.783   4.716   9.095  1.1584 -2.3579  0.3987
  744MOL0     H  398   2.759   4.799   9.386  0.4662 -0.0290  1.0300
  744MOL0     H  399   2.788   4.633   9.347 -0.8645 -0.3023  1.2693
  744MOL0     H  400   2.355   4.626   9.318 -1.5228 -1.4265  0.9236
  744MOL0     H  401   2.246   4.431   9.226  0.8245  2.4813  3.1914
  744MOL0     H  402   2.402   3.853   9.189 -1.0301  1.0081  0.1698
  744MOL0     H  403   2.289   3.666   9.088  2.9671 -0.7596 -0.1181
  744MOL0     H  404   2.000   3.809   8.839  0.8446  0.2823  2.0878
  744MOL0     H  405   2.018   3.700   8.700  4.5965 -0.6866 -0.5812
  744MOL0     H  406   1.940   3.520   8.785 -1.8658  0.9301 -1.5082
  744MOL0     H  407   1.968   3.559   8.958  0.1928  1.0863 -0.3686
  744MOL0     H  408   1.793   3.743   8.944  0.9826  0.2648 -0.0081
  744MOL0     H  409   1.755   3.656   8.788 -0.6022 -2.2832 -0.2547
  744MOL0     H  410   1.730   3.517   9.074 -2.0096 -2.1963 -0.3836
  744MOL0     H  411   1.724   3.429   8.941  2.4308 -0.8154  2.1605
  744MOL0     H  412   1.530   3.673   8.961 -1.5146 -0.4704 -0.9664
  744MOL0     H  413   1.504   3.535   9.052 -0.7847  3.0140  1.8111
  744MOL0     H  414   1.535   3.527   8.744 -1.6105 -1.1523 -1.2381
  744MOL0     H  415   1.502   3.386   8.834 -1.4199  0.5677 -2.4305
  744MOL0     H  416   1.271   3.468   8.899  1.8227 -3.1312  0.0386
  744MOL0     H  417   1.300   3.483   8.725  0.3393  1.1670 -0.9887
  744MOL0     H  418   1.195   3.696   8.806  0.3733 -0.4935  0.8102
  744MOL0     H  419   1.334   3.717   8.912 -2.8051 -0.8742  1.3029
  744MOL0     H  420   2.212   3.908   8.747 -2.0904 -2.0377  0.1837
  744MOL0     H  421   2.353   4.084   8.839 -0.8729  1.1238  1.6215
  744MOL0     H  422   2.644   4.288   9.113  1.2927 -0.3280  0.9367
  744MOL0     H  423   2.736   4.487   9.176  0.4973  0.1088 -1.2677
  744MOL0     H  424   1.481   4.447   9.554  0.7417  0.4044 -0.0777
  744MOL0     H  425   1.275   4.341   9.589 -3.0466 -1.2719  3.0146
  744MOL0     H  426   0.989   4.208   9.914  1.7937 -1.0052  0.1179
  744MOL0     H  427   0.760   4.145   9.983  1.6881  1.3609 -0.0123
  744MOL0     H  428   0.688   3.768  10.037 -1.2764 -2.7355 -0.1981
  744MOL0     H  429   0.624   3.715   9.883 -0.7803 -1.1744  0.3967
  744MOL0     H  430   0.489   3.806  10.140 -4.4636 -2.9946  0.8293
  744MOL0     H  431   0.454   3.669  10.037  0.0985  0.6385 -2.0972
  744MOL0     H  432   0.319   3.832   9.892  2.7889  0.8295 -2.1967
  744MOL0     H  433   0.385   3.964   9.987 -0.0285  0.0094 -0.5476
  744MOL0     H  434   0.250   3.711  10.115 -1.1708 -0.8120 -1.9376
  744MOL0     H  435   0.253   3.870  10.191 -2.6978 -1.6670  1.4356
  744MOL0     H  436  -0.084   3.927   9.948  0.4567 -0.9738 -0.1394
  744MOL0     H  437   0.804   3.773   9.782 -0.5789  0.2902  0.1938
  744MOL0     H  438   1.150   3.815   9.699  0.8116 -0.3177 -1.3179
  744MOL0     H  439   0.998   3.733   9.685  1.3821  0.0265 -0.4077
  744MOL0     H  440   1.052   3.859   9.555  3.3947  2.5143 -0.4823
  745MOL0     O  441   8.302  11.026   3.021  0.1575 -0.4419 -0.3661
  745MOL0     C  442   8.389  11.105   2.983  0.5261  0.0329  0.2082
  745MOL0     O  443   8.422  11.220   3.047  0.0992  0.4597  0.5510
  745MOL0     C  444   8.398  11.248   3.178  0.3775  0.6661  0.1025
  745MOL0     C  445   8.437  11.372   3.221  0.4000  0.1816 -0.4515
  745MOL0     C  446   8.424  11.404   3.359  0.7224 -0.7527  0.5564
  745MOL0     C  447   8.374  11.312   3.458 -0.3618 -0.9558 -0.1751
  745MOL0     O  448   8.371  11.342   3.583  1.2101  0.7689  0.0327
  745MOL0     C  449   8.385  11.238   3.678 -0.7991  0.5857 -1.0456
  745MOL0     C  450   8.506  11.262   3.773 -0.9552 -0.9187 -0.3348
  745MOL0     C  451   8.511  11.409   3.841 -0.9633 -0.0272  0.2745
  745MOL0     C  452   8.648  11.421   3.918  0.1693 -1.0495 -0.5095
  745MOL0     C  453   8.674  11.557   3.996 -0.2182  0.6877  0.2114
  745MOL0     C  454   8.821  11.582   4.037 -0.0743 -0.3850 -0.4344
  745MOL0     C  455   8.868  11.516   4.162  0.2323  0.4060 -0.4538
  745MOL0     C  456   9.017  11.502   4.161  0.2132 -0.3628  0.0959
  745MOL0     N  457   9.056  11.473   4.301 -0.9945 -0.4187 -0.2305
  745MOL0     C  458   9.140  11.573   4.366 -0.5966  0.7692  1.4015
  745MOL0     C  459   9.178  11.515   4.485  0.4776 -1.1940  0.3356
  745MOL0     C  460   9.292  11.561   4.567  0.1668 -0.2709  0.0857
  745MOL0     C  461   9.258  11.653   4.675  0.0062 -0.2245 -0.9640
  745MOL0     C  462   9.153  11.770   4.642 -0.5724  0.3643 -0.1773
  745MOL0     C  463   9.221  11.907   4.604  0.4419  0.4966  0.2907
  745MOL0     O  464   9.281  11.903   4.473  0.5957  1.1979 -0.4255
  745MOL0     C  465   9.201  11.925   4.365  0.5995  0.2811  1.2684
  745MOL0     C  466   9.238  11.888   4.233  0.0361  0.1409 -0.1274
  745MOL0     C  467   9.154  11.901   4.115  0.1324 -0.8099 -0.6687
  745MOL0     C  468   9.023  11.960   4.137 -0.5137 -0.3701 -0.7680
  745MOL0     C  469   8.941  11.983   4.020 -0.2989 -0.1113 -0.9187
  745MOL0     O  470   8.872  12.097   4.021  0.4963 -0.3642  0.1283
  745MOL0     C  471   8.805  12.160   3.909  0.5746  0.5472 -1.0674
  745MOL0     C  472   8.826  12.110   3.779  0.1805 -0.1702 -0.1462
  745MOL0     C  473   8.749  12.153   3.675  0.6295 -0.0512  0.1474
  745MOL0     C  474   8.651  12.254   3.698 -0.0822  0.3462  0.0596
  745MOL0     O  475   8.568  12.293   3.593  1.0604 -0.4600 -1.0274
  745MOL0     C  476   8.430  12.246   3.606 -0.1431  0.8822 -0.8187
  745MOL0     C  477   8.332  12.319   3.512  0.6970 -1.4380 -0.2164
  745MOL0     C  478   8.336  12.467   3.553  0.6312  1.4531 -0.1900
  745MOL0     C  479   8.195  12.523   3.519 -0.7748  0.0637 -0.2003
  745MOL0     C  480   8.101  12.502   3.634 -0.1061  0.5355 -0.8598
  745MOL0     C  481   7.948  12.483   3.604  1.2478 -0.0021 -1.1939
  745MOL0     C  482   7.869  12.444   3.728  1.2549 -0.5538 -0.5891
  745MOL0     C  483   7.728  12.387   3.694 -0.2306 -0.5006  0.3534
  745MOL0    Cl  484   7.642  12.515   3.602 -0.2015  0.1686 -0.2396
  745MOL0     C  485   8.647  12.317   3.819 -0.0806 -0.1779  0.1176
  745MOL0     C  486   8.711  12.263   3.926 -0.3377 -0.7630  0.1773
  745MOL0     O  487   8.935  11.897   3.945 -0.0082  0.6784  0.1984
  745MOL0     C  488   8.990  11.997   4.267  0.1617 -0.0909 -0.0089
  745MOL0     C  489   9.066  11.975   4.387 -1.2172 -0.0735 -0.4434
  745MOL0     N  490   9.134  11.381   4.470 -0.0088 -0.0110  0.9602
  745MOL0     N  491   9.063  11.353   4.363  0.2460 -0.2284 -0.0349
  745MOL0     C  492   8.329  11.189   3.405  0.0559  0.1682 -0.1403
  745MOL0     C  493   8.348  11.148   3.271 -0.6537 -0.7393  0.1237
  745MOL0     C  494   8.461  11.064   2.869  0.7271 -0.8660 -0.1625
  745MOL0     C  495   8.598  11.055   2.865  0.7604  0.7126  0.4464
  745MOL0     C  496   8.671  11.031   2.743  0.6340  0.5412 -0.8217
  745MOL0     C  497   8.604  11.018   2.619  0.7684 -0.5373 -0.1333
  745MOL0     O  498   8.681  11.007   2.497 -0.3263 -0.5423 -0.1634
  745MOL0     C  499   8.622  10.927   2.393 -0.4441 -0.0845 -0.4747
  745MOL0     C  500   8.732  10.851   2.311 -0.4812  0.8300  0.2043
  745MOL0     C  501   8.765  10.725   2.396  0.2760 -0.8596  0.1810
  745MOL0     C  502   8.871  10.643   2.314 -0.3131 -1.6179 -0.0328
  745MOL0     C  503   8.936  10.556   2.415 -0.2745  0.0333  0.0595
  745MOL0     C  504   8.979  10.487   2.502 -0.2216 -0.2263 -0.8069
  745MOL0     C  505   8.464  11.024   2.621 -0.1851 -0.2976  0.3560
  745MOL0     C  506   8.391  11.045   2.746 -0.1069  0.3146  0.5784
  745MOL0     C  507   8.240  11.045   2.721  0.3972  0.0004  0.3072
  745MOL0     H  508   8.477  11.448   3.155 -2.9764  1.1266 -1.6125
  745MOL0     H  509   8.444  11.503   3.400  2.3161 -1.2907  1.1754
  745MOL0     H  510   8.294  11.227   3.738  0.1789  0.6394  0.5079
  745MOL0     H  511   8.406  11.147   3.622  0.2957  1.8171 -2.7419
  745MOL0     H  512   8.594  11.231   3.716 -0.8246 -0.0831 -0.5971
  745MOL0     H  513   8.508  11.185   3.850 -2.7778  0.2077  0.9241
  745MOL0     H  514   8.421  11.413   3.903 -4.0519 -1.2691 -3.7157
  745MOL0     H  515   8.507  11.488   3.766  2.1220  2.0053  2.0394
  745MOL0     H  516   8.650  11.343   3.995  1.0761  0.3252  0.9309
  745MOL0     H  517   8.727  11.406   3.844  1.6670  4.0471 -0.3516
  745MOL0     H  518   8.654  11.632   3.919  3.8474  2.3386  0.4821
  745MOL0     H  519   8.597  11.557   4.073 -0.0062 -0.2453  0.4428
  745MOL0     H  520   8.890  11.550   3.958  0.5441  0.1512 -0.1165
  745MOL0     H  521   8.839  11.689   4.044  2.2096 -0.7343 -0.0018
  745MOL0     H  522   8.816  11.420   4.168  1.6412 -0.4503 -1.4161
  745MOL0     H  523   8.833  11.575   4.247 -0.7217 -0.4113 -0.2608
  745MOL0     H  524   9.049  11.423   4.092  0.2496  1.1457 -1.6868
  745MOL0     H  525   9.066  11.591   4.121  1.4725  0.5722  3.4633
  745MOL0     H  526   9.170  11.670   4.329 -0.5264 -0.8166 -3.2769
  745MOL0     H  527   9.336  11.479   4.625  2.6859 -0.8405 -2.3959
  745MOL0     H  528   9.370  11.609   4.506  1.7971 -0.2356  2.0920
  745MOL0     H  529   9.198  11.597   4.746 -0.3603  2.9378  1.4707
  745MOL0     H  530   9.348  11.686   4.728 -0.9600 -0.5839  0.9746
  745MOL0     H  531   9.098  11.776   4.737  1.0275  0.4908  0.7782
  745MOL0     H  532   9.094  11.730   4.559  1.0203  2.0716 -2.2451
  745MOL0     H  533   9.287  11.925   4.688 -3.5502 -1.2591  4.2391
  745MOL0     H  534   9.155  11.992   4.623  2.1705  1.4255  2.5077
  745MOL0     H  535   9.339  11.858   4.208 -0.1878 -0.0199 -0.8489
  745MOL0     H  536   9.198  11.877   4.018 -0.2707 -0.0884 -1.0416
  745MOL0     H  537   8.900  12.031   3.770 -0.3706 -0.9370  1.7204
  745MOL0     H  538   8.757  12.104   3.579 -2.4148  1.3507 -0.9611
  745MOL0     H  539   8.422  12.143   3.569 -2.6591  1.7500 -2.9817
  745MOL0     H  540   8.386  12.246   3.706  0.8129  1.6455 -0.3697
  745MOL0     H  541   8.359  12.297   3.408  0.2774  0.9674 -0.8857
  745MOL0     H  542   8.232  12.282   3.536  0.6112  0.2829  2.4832
  745MOL0     H  543   8.359  12.467   3.660  2.0788 -2.5111 -0.3273
  745MOL0     H  544   8.423  12.516   3.508  0.9336  0.5130 -0.6513
  745MOL0     H  545   8.147  12.487   3.427 -0.3338  1.5296 -1.0315
  745MOL0     H  546   8.200  12.632   3.516 -0.2650  0.0658  0.5550
  745MOL0     H  547   8.121  12.588   3.697 -1.5262  1.0985 -1.1257
  745MOL0     H  548   8.133  12.416   3.693  2.4820  2.6599  1.1033
  745MOL0     H  549   7.920  12.580   3.564  1.4187  0.8354  0.6018
  745MOL0     H  550   7.937  12.406   3.528 -1.6787  0.6618 -1.5428
  745MOL0     H  551   7.854  12.529   3.795 -1.3518 -1.1467 -0.2864
  745MOL0     H  552   7.921  12.369   3.789  0.3156 -0.1431  0.7559
  745MOL0     H  553   7.731  12.295   3.634  1.6940 -1.1949  1.4305
  745MOL0     H  554   7.669  12.377   3.786  1.2488  0.1908  1.4148
  745MOL0     H  555   8.587  12.407   3.822  3.1500  2.2326 -1.3305
  745MOL0     H  556   8.712  12.319   4.019 -1.0267 -1.2138  0.4656
  745MOL0     H  557   8.897  12.052   4.276 -0.7449 -1.5862  0.1599
  745MOL0     H  558   9.009  11.995   4.476 -0.6861  1.2754 -0.3759
  745MOL0     H  559   8.280  11.122   3.475  0.6821  0.8811  1.0097
  745MOL0     H  560   8.322  11.045   3.249  3.1131 -1.4809 -1.8346
  745MOL0     H  561   8.642  11.068   2.964  0.5498 -0.4330  0.7069
  745MOL0     H  562   8.779  11.021   2.738  0.6174  0.7520 -1.9535
  745MOL0     H  563   8.564  10.990   2.326 -0.2902  0.5802  0.0076
  745MOL0     H  564   8.549  10.862   2.441  0.4074 -0.7566 -0.0517
  745MOL0     H  565   8.811  10.926   2.307 -1.7538  2.1627 -0.9138
  745MOL0     H  566   8.712  10.829   2.206  0.2014  2.2276 -0.2467
  745MOL0     H  567   8.678  10.661   2.413 -0.7785 -0.0416 -1.7810
  745MOL0     H  568   8.805  10.760   2.491  0.4698  0.4302 -0.3507
  745MOL0     H  569   8.822  10.588   2.233 -1.7604  1.1791 -1.1793
  745MOL0     H  570   8.954  10.698   2.271  1.3337 -0.5943  3.9788
  745MOL0     H  571   9.014  10.417   2.575 -0.8024 -1.5435 -1.7629
  745MOL0     H  572   8.412  11.016   2.526  2.2865 -2.5902 -0.9472
  745MOL0     H  573   8.187  11.108   2.793 -0.1471  0.5990 -0.6006
  745MOL0     H  574   8.225  11.082   2.619 -0.9041 -0.1268  0.4331
  745MOL0     H  575   8.201  10.943   2.724  1.0685 -0.2525  0.5978
  746MOL0     O  576   8.556   4.331   1.741 -0.3552 -0.0999 -0.3139
  746MOL0     C  577   8.437   4.360   1.765  0.0975 -0.4854 -0.8179
  746MOL0     O  578   8.333   4.371   1.681  1.0531  0.3412  0.0025
  746MOL0     C  579   8.344   4.318   1.551 -0.2591  0.2737 -1.0572
  746MOL0     C  580   8.425   4.383   1.456 -0.2978  0.5247  0.2732
  746MOL0     C  581   8.429   4.328   1.332 -0.3689  0.2041  1.0781
  746MOL0     C  582   8.362   4.216   1.297  0.7225 -0.2816  0.6435
  746MOL0     O  583   8.372   4.170   1.169 -0.6917  0.3368  0.7591
  746MOL0     C  584   8.257   4.102   1.114 -0.2544 -0.0472  0.6554
  746MOL0     C  585   8.271   4.079   0.963 -0.6011  0.0985 -0.9010
  746MOL0     C  586   8.384   3.973   0.932 -0.7139 -0.7428 -0.7430
  746MOL0     C  587   8.414   3.974   0.784 -0.5168 -0.3468  0.2176
  746MOL0     C  588   8.294   3.969   0.685  0.7922  1.0177  0.1043
  746MOL0     C  589   8.339   3.951   0.544 -0.1798  0.9856 -0.1083
  746MOL0     C  590   8.437   4.059   0.496  0.5016  0.8710  0.4868
  746MOL0     C  591   8.382   4.201   0.502  0.1474 -0.2630  0.5878
  746MOL0     N  592   8.469   4.303   0.444 -0.0604 -0.0009 -0.7352
  746MOL0     C  593   8.428   4.401   0.357  0.7706  0.0756 -0.0335
  746MOL0     C  594   8.531   4.493   0.354 -0.0516  0.1002  1.1760
  746MOL0     C  595   8.525   4.629   0.273  0.0787  1.2655  0.1404
  746MOL0     C  596   8.498   4.747   0.369 -0.2240 -0.9209  0.3304
  746MOL0     C  597   8.458   4.876   0.297  0.0670  0.3490 -0.2781
  746MOL0     C  598   8.567   4.909   0.192  0.8804  0.8648 -0.0341
  746MOL0     O  599   8.691   4.927   0.250 -0.1648 -0.1216  0.3920
  746MOL0     C  600   8.744   5.039   0.303 -0.0280 -0.2973 -0.0646
  746MOL0     C  601   8.687   5.169   0.289  0.0963  1.0350  0.0250
  746MOL0     C  602   8.754   5.281   0.333  0.4397 -1.1722  0.8870
  746MOL0     C  603   8.863   5.271   0.415  0.2222 -0.3199  0.7853
  746MOL0     C  604   8.924   5.393   0.465  0.0027 -0.3210  0.0727
  746MOL0     O  605   8.852   5.499   0.495  0.2728  0.3115  0.1349
  746MOL0     C  606   8.889   5.594   0.584  0.0989 -0.9971 -1.1057
  746MOL0     C  607   8.786   5.699   0.589  0.3656  1.2008 -0.2963
  746MOL0     C  608   8.788   5.798   0.688  0.7357  0.2655 -0.1705
  746MOL0     C  609   8.907   5.807   0.768  0.4337  0.1324 -0.3574
  746MOL0     O  610   8.925   5.900   0.874 -0.7252  0.3541 -0.2863
  746MOL0     C  611   8.931   5.853   1.015  0.1532 -0.3668  0.5881
  746MOL0     C  612   8.816   5.925   1.096 -0.6526 -0.1630 -0.1040
  746MOL0     C  613   8.688   5.875   1.051  0.7670  0.3389  0.0139
  746MOL0     C  614   8.567   5.892   1.145 -0.1064  0.0957 -0.1376
  746MOL0     C  615   8.449   5.844   1.075 -0.1069 -0.6457  0.6929
  746MOL0     C  616   8.441   5.688   1.075 -0.1055 -0.2761 -0.3032
  746MOL0     C  617   8.295   5.664   1.025  0.4987  0.5862 -0.5807
  746MOL0     C  618   8.256   5.510   1.029 -0.2055 -0.0050 -0.3526
  746MOL0    Cl  619   8.087   5.486   1.017 -0.5288 -0.3343  0.0055
  746MOL0     C  620   9.009   5.707   0.760 -0.1777  0.5103  0.0296
  746MOL0     C  621   8.999   5.599   0.671  0.5817 -0.1336  0.1550
  746MOL0     O  622   9.049   5.380   0.485 -0.0392  0.1684  0.0946
  746MOL0     C  623   8.916   5.147   0.434  1.0657 -0.0751 -0.9559
  746MOL0     C  624   8.858   5.028   0.386  0.9362  0.4277 -0.2452
  746MOL0     N  625   8.633   4.450   0.435  0.0603  0.2789  0.1433
  746MOL0     N  626   8.594   4.327   0.482  0.7451 -0.5038  0.0223
  746MOL0     C  627   8.275   4.154   1.395  0.1793  1.4559  0.5108
  746MOL0     C  628   8.265   4.204   1.524 -0.1512 -0.4266 -0.0752
  746MOL0     C  629   8.398   4.370   1.904  0.3468 -0.5467 -0.0698
  746MOL0     C  630   8.309   4.470   1.936 -0.6880 -0.1956 -0.0907
  746MOL0     C  631   8.259   4.481   2.070 -0.2901 -0.4738  0.9565
  746MOL0     C  632   8.300   4.389   2.174  0.4991  0.1957  0.5535
  746MOL0     O  633   8.254   4.391   2.301 -0.5812  0.0564  1.0610
  746MOL0     C  634   8.312   4.491   2.389  0.4456 -0.2641 -0.5862
  746MOL0     C  635   8.311   4.449   2.525  0.4269 -0.3986 -0.0081
  746MOL0     C  636   8.177   4.416   2.586  0.0109 -0.5156 -0.1093
  746MOL0     C  637   8.062   4.528   2.590  0.3536 -0.5443  1.5637
  746MOL0     C  638   8.095   4.635   2.679  0.4251 -0.1919 -0.3429
  746MOL0     C  639   8.107   4.721   2.763  0.1614  1.4936  0.8144
  746MOL0     C  640   8.381   4.285   2.132  0.4399  0.3505 -0.7074
  746MOL0     C  641   8.426   4.272   2.003  0.2922  1.1239  0.3014
  746MOL0     C  642   8.496   4.142   1.967 -0.0071 -0.2230  0.0647
  746MOL0     H  643   8.481   4.471   1.485 -1.4126  0.8270  1.6164
  746MOL0     H  644   8.491   4.374   1.256 -2.2904  2.2373  0.6569
  746MOL0     H  645   8.229   4.010   1.167 -0.8952 -0.1204  0.2086
  746MOL0     H  646   8.172   4.170   1.116 -0.3858  0.0526 -2.5463
  746MOL0     H  647   8.306   4.173   0.919 -1.0846  2.0773  2.5667
  746MOL0     H  648   8.176   4.035   0.932 -1.4606 -0.1323  1.7648
  746MOL0     H  649   8.365   3.870   0.962 -0.4832 -1.1548 -1.9658
  746MOL0     H  650   8.480   4.000   0.977 -0.3378 -3.7649  0.4849
  746MOL0     H  651   8.463   4.071   0.768  2.5115 -1.9693 -1.0452
  746MOL0     H  652   8.490   3.900   0.758  0.5046  1.0614 -0.9828
  746MOL0     H  653   8.223   3.888   0.704  2.5814 -1.6460 -3.3085
  746MOL0     H  654   8.240   4.063   0.690 -0.4949  0.3761 -1.0977
  746MOL0     H  655   8.396   3.863   0.515  1.8291  2.0305  0.4831
  746MOL0     H  656   8.251   3.956   0.479  0.7369  0.3285 -1.4594
  746MOL0     H  657   8.467   4.055   0.391 -0.9916 -0.6869  0.0711
  746MOL0     H  658   8.532   4.048   0.549  0.6618 -1.4728 -0.1640
  746MOL0     H  659   8.284   4.217   0.455  2.2536  1.3202 -3.8739
  746MOL0     H  660   8.385   4.211   0.611  1.5374 -0.9085  0.6305
  746MOL0     H  661   8.332   4.404   0.308  0.8748  0.8868 -0.2132
  746MOL0     H  662   8.618   4.644   0.217  0.1732  0.8317  0.1790
  746MOL0     H  663   8.443   4.629   0.200  1.1195  1.9263 -1.0688
  746MOL0     H  664   8.412   4.718   0.430 -2.2117  2.1774 -0.7514
  746MOL0     H  665   8.594   4.764   0.420  1.4919 -1.8575 -2.3796
  746MOL0     H  666   8.431   4.959   0.362  0.9336  0.5412 -0.1519
  746MOL0     H  667   8.369   4.859   0.236 -0.1036 -1.4695  0.4110
  746MOL0     H  668   8.549   5.004   0.141 -0.1170 -0.0574 -1.4802
  746MOL0     H  669   8.567   4.834   0.113 -0.6762 -1.0131  1.6464
  746MOL0     H  670   8.597   5.187   0.230 -0.0247 -2.5284 -1.1527
  746MOL0     H  671   8.713   5.380   0.313 -0.8070 -1.9424 -0.6568
  746MOL0     H  672   8.704   5.677   0.522 -0.7948  0.1831  1.3791
  746MOL0     H  673   8.710   5.872   0.704  0.3144  0.0983 -1.3785
  746MOL0     H  674   8.921   5.744   1.008 -2.2207 -0.1167 -1.7372
  746MOL0     H  675   9.019   5.889   1.070  0.0470  1.3193 -0.2805
  746MOL0     H  676   8.830   5.898   1.201 -0.3552  2.6474  0.6361
  746MOL0     H  677   8.835   6.031   1.082 -0.1993 -0.2239  0.0276
  746MOL0     H  678   8.669   5.921   0.954 -0.7932 -0.8447 -0.2754
  746MOL0     H  679   8.693   5.766   1.041 -4.4834 -0.1307 -0.6739
  746MOL0     H  680   8.546   5.991   1.187 -0.7496 -0.8622  1.9237
  746MOL0     H  681   8.580   5.841   1.241  0.4804  0.2678 -0.1158
  746MOL0     H  682   8.448   5.874   0.970  5.0373 -2.4205 -0.1251
  746MOL0     H  683   8.369   5.894   1.132  0.2652  1.0046 -0.1718
  746MOL0     H  684   8.518   5.656   1.004  1.8528 -2.0631  2.4274
  746MOL0     H  685   8.464   5.662   1.178 -0.1577  2.6887  0.5471
  746MOL0     H  686   8.282   5.689   0.920  0.7495  0.2594 -0.6923
  746MOL0     H  687   8.214   5.714   1.080 -1.2643  0.4335 -2.9110
  746MOL0     H  688   8.308   5.454   0.951  1.8555 -1.9923  2.2637
  746MOL0     H  689   8.277   5.459   1.123 -0.8524 -3.6110 -2.0224
  746MOL0     H  690   9.099   5.702   0.820 -0.6503 -3.5552  0.7225
  746MOL0     H  691   9.070   5.517   0.662 -2.0600 -2.6308  0.4378
  746MOL0     H  692   9.001   5.137   0.500 -0.6289  0.2240  1.4386
  746MOL0     H  693   8.899   4.929   0.404 -2.9831 -0.9156  3.0234
  746MOL0     H  694   8.231   4.057   1.373  1.8706  1.1216 -1.7168
  746MOL0     H  695   8.215   4.154   1.607 -0.6839  3.1478  1.9813
  746MOL0     H  696   8.297   4.557   1.871  0.9381  0.8320  0.9123
  746MOL0     H  697   8.201   4.568   2.099  0.3231  0.8288 -1.4623
  746MOL0     H  698   8.234   4.567   2.380 -2.9364 -3.1384  1.7093
  746MOL0     H  699   8.407   4.523   2.346  0.2482 -1.9329 -2.4018
  746MOL0     H  700   8.345   4.540   2.576 -2.9403  0.1783  1.5218
  746MOL0     H  701   8.375   4.361   2.529 -1.5128 -2.1262 -2.9690
  746MOL0     H  702   8.183   4.385   2.691  0.9835  3.1301  1.0345
  746MOL0     H  703   8.128   4.342   2.521 -2.6644  0.1861  0.9840
  746MOL0     H  704   8.045   4.562   2.487 -0.6198  2.8943  2.7180
  746MOL0     H  705   7.976   4.471   2.624  0.0309  0.2525  2.1064
  746MOL0     H  706   8.131   4.790   2.841 -0.2049  2.1397  0.3614
  746MOL0     H  707   8.408   4.207   2.202 -0.8661  0.1870 -0.3569
  746MOL0     H  708   8.479   4.110   1.864 -1.1954 -1.0828  0.4884
  746MOL0     H  709   8.603   4.164   1.967 -0.0356 -0.0741  0.5175
  746MOL0     H  710   8.475   4.054   2.030  0.9867 -0.8324 -0.4373
  747MOL0     O  711   6.114   8.931   6.927 -0.1476  0.1000 -0.0605
  747MOL0     C  712   6.105   9.042   6.878 -0.1133  0.3539  0.7843
  747MOL0     O  713   5.986   9.114   6.875 -0.7919  0.1733  1.0829
  747MOL0     C  714   5.878   9.072   6.940  0.9496  0.5210 -0.1061
  747MOL0     C  715   5.867   9.079   7.078  0.5301 -0.2743 -0.4720
  747MOL0     C  716   5.740   9.067   7.136  0.3469  0.1409 -0.3366
  747MOL0     C  717   5.627   9.035   7.065  0.9745  0.9524  0.2792
  747MOL0     O  718   5.513   9.003   7.134  0.0307 -0.2327  0.3041
  747MOL0     C  719   5.400   8.934   7.081 -0.0406 -1.2261  0.5419
  747MOL0     C  720   5.420   8.785   7.109  1.1429 -0.8452 -0.1294
  747MOL0     C  721   5.551   8.719   7.073  0.7655  0.7151 -0.5292
  747MOL0     C  722   5.535   8.561   7.049 -1.0960  0.5347  0.7658
  747MOL0     C  723   5.533   8.491   7.186  0.3301  0.0339  0.5617
  747MOL0     C  724   5.478   8.346   7.172  0.0092 -1.2665 -0.6649
  747MOL0     C  725   5.321   8.348   7.174 -0.4950 -0.5480  0.0378
  747MOL0     C  726   5.253   8.381   7.305  0.7334  0.7218  0.7839
  747MOL0     N  727   5.111   8.420   7.280 -0.0331  0.1816  0.4807
  747MOL0     C  728   5.069   8.546   7.239  0.0829  0.8292  0.3635
  747MOL0     C  729   4.933   8.526   7.240 -1.0298 -0.0268  1.0652
  747MOL0     C  730   4.831   8.636   7.218 -0.0147  1.1161  0.8653
  747MOL0     C  731   4.688   8.615   7.280  0.9167  0.0765  0.0836
  747MOL0     C  732   4.570   8.708   7.229 -0.6699  0.5205  0.1520
  747MOL0     C  733   4.434   8.650   7.266 -0.3355 -0.2840 -0.0203
  747MOL0     O  734   4.406   8.557   7.169 -0.2030 -0.4871 -0.0542
  747MOL0     C  735   4.284   8.507   7.180  0.2807  0.1021  0.9084
  747MOL0     C  736   4.201   8.496   7.302 -0.5705 -0.7448 -0.1067
  747MOL0     C  737   4.098   8.407   7.319 -0.1348 -0.7770 -0.4954
  747MOL0     C  738   4.058   8.329   7.210  0.8557  0.5468  0.1285
  747MOL0     C  739   3.944   8.237   7.229  1.0862 -0.4264 -0.8217
  747MOL0     O  740   3.948   8.119   7.156  0.5355 -0.1776  0.6357
  747MOL0     C  741   3.844   8.025   7.159  0.1110 -0.5909 -0.3742
  747MOL0     C  742   3.710   8.060   7.150  0.9550  0.6631  0.4252
  747MOL0     C  743   3.614   7.964   7.122  0.1737 -0.2966 -1.0940
  747MOL0     C  744   3.648   7.826   7.119 -0.7656 -1.4429  0.8045
  747MOL0     O  745   3.550   7.734   7.102  0.1979  0.4106  0.0296
  747MOL0     C  746   3.547   7.667   6.980 -0.0336  0.7286  1.1694
  747MOL0     C  747   3.412   7.605   6.984  1.0829  1.5447 -0.1330
  747MOL0     C  748   3.393   7.504   6.871 -0.0966  0.0963  0.7036
  747MOL0     C  749   3.298   7.380   6.901  0.2121  0.8683 -0.4346
  747MOL0     C  750   3.246   7.300   6.782  0.0212  0.2262  0.2556
  747MOL0     C  751   3.136   7.368   6.702 -0.0792 -0.1196  0.2147
  747MOL0     C  752   3.099   7.282   6.575  0.3960  0.6827  0.3284
  747MOL0     C  753   2.963   7.336   6.527 -0.2701 -0.2690 -0.1055
  747MOL0    Cl  754   2.833   7.318   6.654 -0.6811  0.0833 -0.2344
  747MOL0     C  755   3.782   7.788   7.134  0.0587  0.5101  0.1569
  747MOL0     C  756   3.879   7.891   7.165 -0.2582  0.3044  1.0423
  747MOL0     O  757   3.861   8.274   7.320 -0.2696 -0.0407 -0.0357
  747MOL0     C  758   4.126   8.340   7.083 -0.4507 -0.9328 -0.3892
  747MOL0     C  759   4.236   8.428   7.072  0.4672 -0.9537 -0.8023
  747MOL0     N  760   4.903   8.399   7.281  0.8781 -0.0779  0.6844
  747MOL0     N  761   5.010   8.339   7.300 -0.6518 -0.0191 -0.4946
  747MOL0     C  762   5.644   9.028   6.928 -0.0734  0.3520 -0.1499
  747MOL0     C  763   5.768   9.036   6.869  0.7307 -0.5550 -0.0347
  747MOL0     C  764   6.221   9.126   6.866 -0.5770  0.4585 -0.2080
  747MOL0     C  765   6.197   9.243   6.795 -0.3542  0.9335  0.1016
  747MOL0     C  766   6.315   9.307   6.747 -0.5520 -0.2336  0.0642
  747MOL0     C  767   6.442   9.279   6.784 -0.3804 -0.4485 -0.6871
  747MOL0     O  768   6.550   9.346   6.727 -0.2126 -0.1325  0.1408
  747MOL0     C  769   6.644   9.248   6.657 -0.3678 -0.5120  0.2040
  747MOL0     C  770   6.796   9.286   6.662  0.0822  1.0478 -0.0560
  747MOL0     C  771   6.834   9.427   6.661  0.1008 -0.0017  0.1946
  747MOL0     C  772   6.826   9.506   6.532 -0.8089  0.4769 -0.5060
  747MOL0     C  773   6.693   9.489   6.454 -0.7055  0.3397 -0.1913
  747MOL0     C  774   6.589   9.478   6.396  0.8142 -0.1845 -0.0802
  747MOL0     C  775   6.452   9.178   6.889 -0.1957 -0.4638  0.3806
  747MOL0     C  776   6.347   9.096   6.919 -0.1991 -0.0472 -1.4090
  747MOL0     C  777   6.364   8.990   7.023 -0.9653 -0.3783 -0.0538
  747MOL0     H  778   5.953   9.125   7.127  0.2958  0.5984 -0.8561
  747MOL0     H  779   5.741   9.063   7.245  0.8696 -2.8224 -0.3835
  747MOL0     H  780   5.316   8.971   7.140  1.0936  0.8824  0.9326
  747MOL0     H  781   5.378   8.949   6.975 -1.5105  1.4040  1.1355
  747MOL0     H  782   5.343   8.722   7.065  2.9966 -2.1589 -1.6509
  747MOL0     H  783   5.409   8.780   7.218 -1.3560  3.0350 -0.0082
  747MOL0     H  784   5.617   8.729   7.160 -2.0346  1.9784  1.5820
  747MOL0     H  785   5.591   8.764   6.981  2.0711 -0.9482 -0.8322
  747MOL0     H  786   5.453   8.541   6.979  0.4927  1.0094 -1.3235
  747MOL0     H  787   5.616   8.507   6.999 -2.1139  0.4171 -0.8438
  747MOL0     H  788   5.637   8.490   7.220  1.1941 -1.6609 -1.8225
  747MOL0     H  789   5.478   8.550   7.260  1.4452  2.0131 -0.1093
  747MOL0     H  790   5.515   8.286   7.089  2.9057  0.0531 -0.4698
  747MOL0     H  791   5.517   8.298   7.262  0.8943 -1.1238 -0.9659
  747MOL0     H  792   5.288   8.247   7.147 -0.7133 -0.0193 -1.7887
  747MOL0     H  793   5.285   8.412   7.093  2.4665 -2.2336 -2.8169
  747MOL0     H  794   5.257   8.301   7.379 -0.6245 -1.3084 -1.1987
  747MOL0     H  795   5.301   8.469   7.348  1.4078 -0.0087  1.5628
  747MOL0     H  796   5.129   8.636   7.228  2.2912 -0.2998  2.2681
  747MOL0     H  797   4.878   8.716   7.276  4.6062 -0.9339  0.4202
  747MOL0     H  798   4.824   8.648   7.110 -0.3973 -0.6981  0.6603
  747MOL0     H  799   4.653   8.514   7.257  0.1683  0.3160  0.1564
  747MOL0     H  800   4.697   8.629   7.388 -2.2935 -0.3570  0.5135
  747MOL0     H  801   4.583   8.725   7.122  1.5500 -0.3979  0.2143
  747MOL0     H  802   4.577   8.806   7.278  2.1462  1.6146 -2.1334
  747MOL0     H  803   4.362   8.733   7.272  1.1722  0.9966  1.5453
  747MOL0     H  804   4.440   8.607   7.366 -2.6522 -2.1327 -0.5897
  747MOL0     H  805   4.217   8.559   7.389  1.4461 -2.1900  0.6450
  747MOL0     H  806   4.046   8.422   7.412  1.7885  2.3093  0.2424
  747MOL0     H  807   3.684   8.165   7.150  2.5113  1.0833 -0.7813
  747MOL0     H  808   3.513   7.998   7.099 -0.6823 -4.0346 -3.6601
  747MOL0     H  809   3.556   7.743   6.902  1.3469 -0.2420  0.3450
  747MOL0     H  810   3.622   7.588   6.972 -0.5546  0.2893  0.4416
  747MOL0     H  811   3.398   7.561   7.083 -0.4448  3.5213  0.6046
  747MOL0     H  812   3.332   7.679   6.971 -1.0007 -0.8605 -1.7742
  747MOL0     H  813   3.356   7.566   6.789  3.7791  3.2100  1.0487
  747MOL0     H  814   3.494   7.484   6.837  0.5547  3.0910  0.6012
  747MOL0     H  815   3.215   7.419   6.960  0.6475  2.8929 -1.0428
  747MOL0     H  816   3.349   7.312   6.969 -2.9646 -1.2922  0.0075
  747MOL0     H  817   3.207   7.202   6.812  0.6719  0.0488  0.5600
  747MOL0     H  818   3.332   7.280   6.718 -0.1578  0.4072 -0.0403
  747MOL0     H  819   3.052   7.392   6.768  0.2677 -1.4694  1.1879
  747MOL0     H  820   3.179   7.462   6.665  1.7993 -1.6443 -1.7305
  747MOL0     H  821   3.098   7.178   6.607 -1.7809  0.8043  0.8086
  747MOL0     H  822   3.178   7.304   6.503 -1.3763  2.6298 -1.1655
  747MOL0     H  823   2.980   7.443   6.508  2.3020  0.1545  3.4687
  747MOL0     H  824   2.940   7.292   6.430  2.1442  1.6707 -1.6879
  747MOL0     H  825   3.810   7.684   7.136  0.0669  0.5162  0.6382
  747MOL0     H  826   3.983   7.862   7.177 -0.4966 -0.2990  1.7390
  747MOL0     H  827   4.102   8.264   7.010 -1.3695 -1.0471  0.0059
  747MOL0     H  828   4.301   8.412   6.986 -0.4056 -0.1258 -1.6462
  747MOL0     H  829   5.561   8.998   6.865  1.2040 -0.8012 -1.3468
  747MOL0     H  830   5.764   9.039   6.761 -0.0565  1.8765  0.0057
  747MOL0     H  831   6.099   9.276   6.762 -1.3730  0.8149  2.7910
  747MOL0     H  832   6.313   9.374   6.662  2.3051 -0.4974 -0.3080
  747MOL0     H  833   6.615   9.241   6.552  4.2002  0.5618 -1.3523
  747MOL0     H  834   6.633   9.145   6.695 -1.3488 -1.5069 -2.5305
  747MOL0     H  835   6.847   9.242   6.577 -3.4006 -1.7916 -0.9222
  747MOL0     H  836   6.835   9.234   6.749 -0.0452 -2.1623 -1.7665
  747MOL0     H  837   6.931   9.438   6.710  1.0128 -3.0983 -0.7120
  747MOL0     H  838   6.761   9.467   6.733 -3.8925 -4.0093 -1.1949
  747MOL0     H  839   6.845   9.612   6.554 -0.6551  1.4317 -4.5101
  747MOL0     H  840   6.913   9.492   6.467  0.8084  0.8925  1.4522
  747MOL0     H  841   6.497   9.443   6.355  0.5480 -1.2670  1.3478
  747MOL0     H  842   6.546   9.174   6.942 -0.6606  3.0473  1.7659
  747MOL0     H  843   6.333   8.890   6.992  1.1831 -0.6708 -1.4504
  747MOL0     H  844   6.467   8.984   7.060 -1.2408 -1.1994  0.6004
  747MOL0     H  845   6.299   9.026   7.103 -0.4146  1.0045 -0.1991
  748MOL0     O  846   5.906   9.625  10.006 -0.7457 -0.0729  0.4570
  748MOL0     C  847   5.896   9.518   9.947 -0.5798  0.9666 -0.7447
  748MOL0     O  848   5.994   9.463   9.868 -0.4270  0.5003  0.6192
  748MOL0     C  849   6.114   9.530   9.834  0.6109  0.8723 -0.5973
  748MOL0     C  850   6.169   9.490   9.718 -0.1107  0.0620  0.9592
  748MOL0     C  851   6.305   9.534   9.688  1.2109  0.1448 -0.3859
  748MOL0     C  852   6.369   9.633   9.764 -0.0388  0.7562  0.3073
  748MOL0     O  853   6.493   9.672   9.720  0.1502 -0.4969 -0.1063
  748MOL0     C  854   6.523   9.808   9.755  0.0875  0.0393  0.4101
  748MOL0     C  855   6.600   9.879   9.647 -0.1085 -0.4413 -0.1537
  748MOL0     C  856   6.737   9.813   9.610  0.6950  0.0827  0.1085
  748MOL0     C  857   6.826   9.883   9.505 -1.0707  0.3772  0.7054
  748MOL0     C  858   6.944   9.787   9.464  0.1934  0.4866  0.7267
  748MOL0     C  859   7.055   9.800   9.575  0.0210  0.7195  0.2863
  748MOL0     C  860   7.190   9.742   9.524  0.5103 -0.4728  0.5846
  748MOL0     C  861   7.182   9.596   9.478 -0.0429 -0.1826 -0.2897
  748MOL0     N  862   7.159   9.504   9.582 -0.2463  0.1923 -0.8350
  748MOL0     C  863   7.202   9.500   9.711  0.3835 -0.4853 -0.3159
  748MOL0     C  864   7.128   9.409   9.773  0.2446 -0.6713  0.0413
  748MOL0     C  865   7.136   9.371   9.915  0.9477 -0.2018  0.3586
  748MOL0     C  866   7.057   9.459  10.004 -0.2788 -0.3458 -1.0415
  748MOL0     C  867   6.900   9.463   9.990 -0.7473 -0.0958  0.5029
  748MOL0     C  868   6.860   9.585   9.907 -0.1956  0.1289  0.0923
  748MOL0     O  869   6.885   9.712   9.975 -1.0343 -0.2503  0.1967
  748MOL0     C  870   6.781   9.771  10.046  0.2806 -0.1439  0.3588
  748MOL0     C  871   6.802   9.908  10.073 -1.2038  0.2860 -0.7898
  748MOL0     C  872   6.720   9.984  10.162  0.2087 -0.5486  0.0670
  748MOL0     C  873   6.598   9.930  10.212 -0.2668 -0.4544 -0.2719
  748MOL0     C  874   6.516  10.019  10.300 -0.0085 -0.0453 -0.1387
  748MOL0     O  875   6.577  10.135  10.331  0.7206  0.2082  0.7242
  748MOL0     C  876   6.505  10.233  10.392  0.1311  0.0791 -0.5113
  748MOL0     C  877   6.473  10.346  10.320  0.4329 -0.1133  0.1202
  748MOL0     C  878   6.393  10.444  10.389 -0.6010  0.0060 -0.0058
  748MOL0     C  879   6.364  10.433  10.530 -0.1622  0.3696  0.0960
  748MOL0     O  880   6.286  10.513  10.597  0.9956 -0.3932  0.1449
  748MOL0     C  881   6.235  10.633  10.548  1.1230  0.4010  0.0854
  748MOL0     C  882   6.169  10.696  10.673 -0.4450 -0.3274  1.0552
  748MOL0     C  883   6.074  10.815  10.639 -0.5973  0.3680  0.6595
  748MOL0     C  884   5.930  10.771  10.604 -0.1623  0.2173 -0.1026
  748MOL0     C  885   5.848  10.902  10.562  0.2363 -0.1434  0.2101
  748MOL0     C  886   5.796  10.886  10.421 -0.8309 -0.5611  0.1997
  748MOL0     C  887   5.715  11.006  10.376 -0.3528  1.1670 -0.1408
  748MOL0     C  888   5.634  10.978  10.254 -0.0115 -0.6870 -0.0586
  748MOL0    Cl  889   5.498  10.870  10.298 -0.1444 -0.2611  0.1451
  748MOL0     C  890   6.407  10.316  10.598 -0.4805 -0.3292 -0.1630
  748MOL0     C  891   6.481  10.226  10.531  0.1342 -0.3958  0.6283
  748MOL0     O  892   6.411   9.987  10.350  0.0625  0.0234 -0.4433
  748MOL0     C  893   6.562   9.795  10.170 -0.6730 -0.7096 -0.5989
  748MOL0     C  894   6.654   9.719  10.087  0.4854  0.5128  0.3298
  748MOL0     N  895   7.033   9.362   9.677 -0.8070 -1.7431 -0.7801
  748MOL0     N  896   7.054   9.416   9.566  1.2314 -0.8054  0.3533
  748MOL0     C  897   6.302   9.673   9.874  0.1245  0.4931 -0.2111
  748MOL0     C  898   6.182   9.624   9.912  0.2882 -0.4137  0.4067
  748MOL0     C  899   5.784   9.429   9.985 -0.0666 -0.2877  0.4178
  748MOL0     C  900   5.732   9.344   9.880  0.4161  0.0467 -0.0578
  748MOL0     C  901   5.622   9.264   9.901 -0.3063  0.6315 -0.5013
  748MOL0     C  902   5.555   9.276  10.028 -0.2396  0.8179  0.2284
  748MOL0     O  903   5.432   9.214  10.044  0.2797  0.0191  1.0594
  748MOL0     C  904   5.422   9.090   9.979  0.3858 -0.7078 -0.5563
  748MOL0     C  905   5.358   8.996  10.082  0.6008  0.4080  0.6539
  748MOL0     C  906   5.208   9.054  10.112 -0.1553 -0.0915  0.3377
  748MOL0     C  907   5.111   8.955  10.150  0.8030  0.2188 -0.4415
  748MOL0     C  908   5.156   8.870  10.258  0.8789 -0.3046  0.0824
  748MOL0     C  909   5.183   8.793  10.346 -0.2867  0.3849  0.1503
  748MOL0     C  910   5.593   9.369  10.121 -0.1431 -0.1347  0.0495
  748MOL0     C  911   5.714   9.436  10.111 -0.1100  0.2757  1.5131
  748MOL0     C  912   5.742   9.530  10.211  0.1064 -0.5236 -0.1672
  748MOL0     H  913   6.120   9.419   9.652  0.9761  0.1613  0.0208
  748MOL0     H  914   6.336   9.501   9.590 -0.4335  0.8241 -1.1763
  748MOL0     H  915   6.425   9.857   9.763 -0.5257 -1.1346  0.2759
  748MOL0     H  916   6.575   9.816   9.851 -0.0218 -1.7046  0.6427
  748MOL0     H  917   6.611   9.983   9.678 -1.4825 -0.0621 -0.8821
  748MOL0     H  918   6.530   9.882   9.563 -0.5262  0.6174  0.2188
  748MOL0     H  919   6.708   9.716   9.569  1.2023  0.4589 -1.2115
  748MOL0     H  920   6.788   9.789   9.704 -1.1186 -2.4909  0.5282
  748MOL0     H  921   6.767   9.898   9.415 -1.6575 -1.8438  0.6574
  748MOL0     H  922   6.867   9.979   9.538 -1.2464  0.6041  0.2654
  748MOL0     H  923   6.913   9.683   9.451  0.1831  0.3068  2.1199
  748MOL0     H  924   6.982   9.823   9.368 -0.1009  0.0821  0.4525
  748MOL0     H  925   7.075   9.900   9.612  1.4477  0.3486  0.5814
  748MOL0     H  926   7.022   9.741   9.661 -1.0530  0.2706 -0.4005
  748MOL0     H  927   7.268   9.743   9.601  1.8195 -1.3529 -0.6930
  748MOL0     H  928   7.230   9.797   9.439  0.4602 -2.3726 -0.7155
  748MOL0     H  929   7.116   9.570   9.395  0.2668 -1.9152 -0.0198
  748MOL0     H  930   7.280   9.569   9.438 -0.1341  1.2484 -1.5816
  748MOL0     H  931   7.279   9.561   9.756 -1.2198  1.6500 -0.3079
  748MOL0     H  932   7.102   9.267   9.914  0.7329 -0.4960 -5.9682
  748MOL0     H  933   7.242   9.375   9.940  0.9178  1.9222  0.3491
  748MOL0     H  934   7.071   9.420  10.105 -2.9899  1.5496  0.1875
  748MOL0     H  935   7.088   9.563  10.013 -0.6195 -0.3075 -0.1902
  748MOL0     H  936   6.838   9.482  10.078 -4.0803 -1.1520 -1.4314
  748MOL0     H  937   6.861   9.376   9.937 -0.2172  0.3344 -0.6256
  748MOL0     H  938   6.753   9.569   9.889  0.3998 -2.0908 -2.0349
  748MOL0     H  939   6.917   9.586   9.814 -0.3420 -3.0249 -0.1348
  748MOL0     H  940   6.890   9.952  10.027 -0.2096  1.5311  2.0986
  748MOL0     H  941   6.763  10.081  10.185  0.1066 -0.8565  1.6699
  748MOL0     H  942   6.487  10.365  10.214  0.6709  0.7714  0.2940
  748MOL0     H  943   6.344  10.528  10.341 -0.5895  1.3830  2.2842
  748MOL0     H  944   6.311  10.696  10.501 -0.4539  2.3349  0.0440
  748MOL0     H  945   6.163  10.621  10.467  2.1439 -0.4186 -0.7391
  748MOL0     H  946   6.107  10.625  10.729 -0.0857  0.5096  2.5597
  748MOL0     H  947   6.246  10.737  10.738 -2.8767  3.1747  2.0321
  748MOL0     H  948   6.066  10.876  10.729 -0.0354  0.9709  0.3058
  748MOL0     H  949   6.121  10.870  10.557 -1.7640 -0.2397 -0.4697
  748MOL0     H  950   5.892  10.734  10.699  0.1231  1.2470  0.4310
  748MOL0     H  951   5.929  10.688  10.533  2.6121 -0.7944  0.9043
  748MOL0     H  952   5.909  10.992  10.568  0.7958 -0.5188  0.2221
  748MOL0     H  953   5.760  10.917  10.625  0.2438 -4.0545  1.4199
  748MOL0     H  954   5.882  10.866  10.356  1.4620 -3.1068  3.6299
  748MOL0     H  955   5.734  10.796  10.423 -0.9618 -0.4598  1.3472
  748MOL0     H  956   5.782  11.088  10.347 -1.2793  1.3167 -1.9952
  748MOL0     H  957   5.649  11.043  10.455 -0.4502 -0.1822  0.4210
  748MOL0     H  958   5.589  11.070  10.218 -1.7441 -1.4749  0.0011
  748MOL0     H  959   5.698  10.939  10.174  0.1284  0.7307 -0.6614
  748MOL0     H  960   6.371  10.312  10.700  1.6556  1.4983  0.7636
  748MOL0     H  961   6.526  10.159  10.603 -2.2074 -0.3789  2.2172
  748MOL0     H  962   6.477   9.748  10.217  0.6286 -3.0496 -0.4088
  748MOL0     H  963   6.626   9.616  10.070 -2.3037  1.5529 -2.3680
  748MOL0     H  964   6.363   9.737   9.936  0.6435  0.2709 -0.4839
  748MOL0     H  965   6.147   9.672  10.003 -0.1856  1.9534 -0.9255
  748MOL0     H  966   5.792   9.341   9.790  1.3701  1.8306  0.4630
  748MOL0     H  967   5.592   9.201   9.818 -0.1875  2.7634 -2.2456
  748MOL0     H  968   5.515   9.035   9.961  0.4419 -0.3042 -1.5711
  748MOL0     H  969   5.359   9.106   9.891  1.2725  1.5980 -0.8482
  748MOL0     H  970   5.408   8.976  10.177  2.5070 -0.5935 -0.4961
  748MOL0     H  971   5.350   8.894  10.043  1.3430 -0.4743  2.6772
  748MOL0     H  972   5.157   9.113  10.035 -1.6628 -0.0420  1.3232
  748MOL0     H  973   5.221   9.132  10.187  4.2523  0.7566 -1.0403
  748MOL0     H  974   5.016   8.999  10.184  0.1325  0.4260 -2.4601
  748MOL0     H  975   5.097   8.889  10.064 -2.1004 -1.4657  1.1386
  748MOL0     H  976   5.221   8.727  10.421  0.6938 -1.0549 -1.5368
  748MOL0     H  977   5.532   9.410  10.201  0.0424 -0.3463  0.3027
  748MOL0     H  978   5.849   9.524  10.234  0.4711 -0.0109 -1.6471
  748MOL0     H  979   5.711   9.632  10.185  2.2666  0.0763 -0.5428
  748MOL0     H  980   5.693   9.508  10.307  0.6931  0.3593  0.3550
  749MOL0     O  981   1.120   6.446  10.392  0.1755  0.3727 -0.2668
  749MOL0     C  982   1.023   6.506  10.433  0.1455 -0.8342 -0.5593
  749MOL0     O  983   1.026   6.601  10.520 -0.3421  0.1271 -0.2426
  749MOL0     C  984   1.129   6.681  10.544  0.0179  0.7215  0.6219
  749MOL0     C  985   1.161   6.707  10.675 -0.1666  0.5792  1.2025
  749MOL0     C  986   1.254   6.812  10.704 -0.5709 -0.0613  0.1047
  749MOL0     C  987   1.320   6.881  10.603  0.8136  0.4180  0.4571
  749MOL0     O  988   1.403   6.988  10.629 -0.2463  0.3935  0.1489
  749MOL0     C  989   1.525   6.928  10.669  0.2460 -0.4534  0.9746
  749MOL0     C  990   1.629   7.032  10.706  0.2708  0.0424 -0.7041
  749MOL0     C  991   1.589   7.087  10.845 -0.4862  0.5114 -0.1136
  749MOL0     C  992   1.690   7.187  10.889  0.1342 -0.4143 -0.8632
  749MOL0     C  993   1.627   7.290  10.985 -0.6747  0.1290  1.1659
  749MOL0     C  994   1.715   7.402  11.022  1.4017 -0.3448 -0.1162
  749MOL0     C  995   1.651   7.464  11.141 -0.0905  0.6493  1.1021
  749MOL0     C  996   1.720   7.595  11.179 -0.6232  0.3099 -1.5076
  749MOL0     N  997   1.645   7.640  11.296  0.4582 -0.6572 -0.4091
  749MOL0     C  998   1.616   7.575  11.415  0.2261  0.0340 -0.6957
  749MOL0     C  999   1.539   7.658  11.484 -0.0171  0.4406  0.0380
  749MOL0     C 1000   1.476   7.626  11.621 -0.1460  0.0325  0.3371
  749MOL0     C 1001   1.340   7.546  11.611  0.4069  0.3537 -0.0550
  749MOL0     C 1002   1.254   7.527  11.739 -0.1678 -0.1133 -0.0620
  749MOL0     C 1003   1.123   7.453  11.695  0.3785  0.2840 -0.1550
  749MOL0     O 1004   1.125   7.320  11.760 -0.2833  0.2673  1.4308
  749MOL0     C 1005   1.131   7.320  11.900  0.3420  0.3844 -0.2860
  749MOL0     C 1006   1.178   7.205  11.964 -1.3624  0.0235  0.0548
  749MOL0     C 1007   1.201   7.209  12.104  0.6773 -0.0590 -0.5146
  749MOL0     C 1008   1.157   7.319  12.184  0.5195  1.0429  0.4654
  749MOL0     C 1009   1.177   7.317  12.327  0.0792 -0.0400 -0.7610
  749MOL0     O 1010   1.083   7.394  12.403  0.4563  0.1055 -0.1644
  749MOL0     C 1011   1.083   7.391  12.542  0.0420  0.2530  0.4204
  749MOL0     C 1012   1.088   7.509  12.610  0.4407 -0.2894  0.1044
  749MOL0     C 1013   1.079   7.511  12.746 -0.1188 -0.4152 -0.5848
  749MOL0     C 1014   1.068   7.396  12.824 -0.1823 -0.0518  0.1183
  749MOL0     O 1015   1.058   7.418  12.965  0.5002 -0.5691  0.2734
  749MOL0     C 1016   1.044   7.298  13.054 -0.9522 -1.0872  0.7870
  749MOL0     C 1017   1.029   7.356  13.193  0.3521 -0.9281  0.3369
  749MOL0     C 1018   1.165   7.416  13.248  1.2400  0.1196  0.0417
  749MOL0     C 1019   1.164   7.437  13.400  0.7256 -0.2811  0.1027
  749MOL0     C 1020   1.306   7.464  13.451 -0.0187  0.8674  0.2770
  749MOL0     C 1021   1.310   7.508  13.604 -1.0775  0.1730  0.7132
  749MOL0     C 1022   1.443   7.583  13.614 -0.0932 -0.0879 -0.1754
  749MOL0     C 1023   1.567   7.493  13.633  0.6018 -0.3981  0.3946
  749MOL0    Cl 1024   1.693   7.603  13.719  0.4665 -0.1360 -0.2835
  749MOL0     C 1025   1.071   7.276  12.754  0.4678  0.7316  0.1997
  749MOL0     C 1026   1.067   7.274  12.613  0.1349 -0.0681 -0.4135
  749MOL0     O 1027   1.265   7.251  12.375 -0.8865  1.0883  0.5328
  749MOL0     C 1028   1.086   7.415  12.125 -0.3032 -0.8541  0.8999
  749MOL0     C 1029   1.081   7.424  11.985  0.5485 -0.7052 -0.5014
  749MOL0     N 1030   1.516   7.770  11.400 -0.6343 -0.4238 -0.6739
  749MOL0     N 1031   1.590   7.769  11.297  0.4132 -0.0014 -0.3860
  749MOL0     C 1032   1.286   6.853  10.470  1.2262  0.0044  0.0760
  749MOL0     C 1033   1.198   6.752  10.439 -0.0808 -0.1166 -0.8743
  749MOL0     C 1034   0.896   6.507  10.357  0.6883  0.9778 -0.7903
  749MOL0     C 1035   0.803   6.605  10.371 -0.2725 -0.2923 -0.2447
  749MOL0     C 1036   0.696   6.624  10.286  0.1678 -0.7846 -0.6287
  749MOL0     C 1037   0.672   6.540  10.178  0.0434 -0.4131 -0.5358
  749MOL0     O 1038   0.561   6.565  10.098 -0.1164 -0.4558  0.1983
  749MOL0     C 1039   0.512   6.465  10.003  0.7417 -0.8137 -0.5803
  749MOL0     C 1040   0.365   6.487   9.954  0.0859 -0.4124  0.5392
  749MOL0     C 1041   0.359   6.391   9.836  0.8407 -0.6472  1.2852
  749MOL0     C 1042   0.226   6.378   9.792  0.2183  1.0489  1.5573
  749MOL0     C 1043   0.226   6.288   9.678 -0.8141  0.2629  0.1192
  749MOL0     C 1044   0.219   6.226   9.565  0.2560  0.1956  0.0171
  749MOL0     C 1045   0.756   6.430  10.168 -0.1501  0.2348  0.4125
  749MOL0     C 1046   0.857   6.399  10.265  0.2594  0.7598  0.3741
  749MOL0     C 1047   0.932   6.270  10.246 -0.5953 -0.1578  1.0359
  749MOL0     H 1048   1.107   6.653  10.753  1.6171 -0.9686  1.4478
  749MOL0     H 1049   1.275   6.842  10.806  1.2396 -1.3878  0.1551
  749MOL0     H 1050   1.502   6.866  10.756 -2.3114  0.7042  1.2135
  749MOL0     H 1051   1.552   6.854  10.593 -1.0889 -1.6671  1.6382
  749MOL0     H 1052   1.624   7.113  10.633  1.0675  0.1104 -0.6891
  749MOL0     H 1053   1.726   6.982  10.714 -0.6003 -1.5135  1.0636
  749MOL0     H 1054   1.584   7.005  10.918 -1.3563 -0.8262 -1.6017
  749MOL0     H 1055   1.486   7.124  10.841 -0.2881  1.1678  0.7000
  749MOL0     H 1056   1.782   7.146  10.932 -2.2764 -3.7605  1.6097
  749MOL0     H 1057   1.719   7.246  10.802 -1.7801  2.0769  0.0490
  749MOL0     H 1058   1.524   7.308  10.955 -0.4774 -3.6266 -2.5853
  749MOL0     H 1059   1.615   7.238  11.080 -1.5760  0.2234  1.1103
  749MOL0     H 1060   1.814   7.367  11.052  1.2544 -2.3616 -1.7152
  749MOL0     H 1061   1.726   7.468  10.935 -1.8803  0.7328  0.1681
  749MOL0     H 1062   1.650   7.386  11.218  2.1657 -2.8154 -2.0041
  749MOL0     H 1063   1.553   7.508  11.122 -0.0186  1.2840  2.1346
  749MOL0     H 1064   1.821   7.572  11.212 -1.7229 -1.0608  1.2536
  749MOL0     H 1065   1.732   7.667  11.098 -0.4704  2.3494  0.2390
  749MOL0     H 1066   1.636   7.475  11.450 -0.5776 -1.1234 -3.3412
  749MOL0     H 1067   1.552   7.580  11.685  0.2205 -1.8326 -1.3219
  749MOL0     H 1068   1.453   7.727  11.656 -7.1351 -0.5255 -1.3289
  749MOL0     H 1069   1.276   7.584  11.531  2.0842  1.7888 -0.7748
  749MOL0     H 1070   1.370   7.448  11.571  0.5275  1.0272 -1.6535
  749MOL0     H 1071   1.227   7.624  11.782  1.6422  0.1060  0.7091
  749MOL0     H 1072   1.297   7.464  11.817 -0.7380  1.3787  1.4984
  749MOL0     H 1073   1.122   7.439  11.586  3.2716 -0.4498 -0.1843
  749MOL0     H 1074   1.036   7.511  11.724  0.3879 -0.5285  1.5978
  749MOL0     H 1075   1.199   7.132  11.886 -2.0156  1.8165 -1.8971
  749MOL0     H 1076   1.247   7.119  12.143  0.2887 -1.7988 -3.6983
  749MOL0     H 1077   1.096   7.602  12.554  0.2288 -0.7885 -0.7764
  749MOL0     H 1078   1.081   7.606  12.798  0.1899 -0.3193 -0.7697
  749MOL0     H 1079   0.967   7.228  13.018 -0.3227  0.2396 -3.7711
  749MOL0     H 1080   1.135   7.237  13.064  1.2600  1.9042  0.2840
  749MOL0     H 1081   0.954   7.435  13.194  1.4867  0.1637  0.4739
  749MOL0     H 1082   0.991   7.270  13.251 -0.7763 -0.4892  0.2772
  749MOL0     H 1083   1.256   7.357  13.231  1.6338  0.5763  0.5299
  749MOL0     H 1084   1.181   7.509  13.193  0.2889 -0.8866 -2.0642
  749MOL0     H 1085   1.108   7.358  13.449 -1.6498  1.0126 -0.3583
  749MOL0     H 1086   1.107   7.529  13.417  0.8455  0.1019 -1.3882
  749MOL0     H 1087   1.331   7.552  13.392  0.5371 -0.2462 -1.2289
  749MOL0     H 1088   1.377   7.382  13.437  1.9761  2.2821  1.5148
  749MOL0     H 1089   1.216   7.564  13.610 -2.6308 -2.3455  1.1060
  749MOL0     H 1090   1.324   7.425  13.673  4.0758  0.0128 -0.1326
  749MOL0     H 1091   1.440   7.644  13.705 -1.0920 -0.5912  0.1416
  749MOL0     H 1092   1.454   7.659  13.537 -1.0240  1.5326  1.2251
  749MOL0     H 1093   1.551   7.408  13.701 -0.2612 -0.0373  0.6614
  749MOL0     H 1094   1.605   7.454  13.538 -1.1595  1.7561 -1.2993
  749MOL0     H 1095   1.074   7.176  12.795 -0.2324  0.4622 -0.3761
  749MOL0     H 1096   1.052   7.186  12.552 -0.0569  0.8195 -1.6705
  749MOL0     H 1097   1.026   7.488  12.177 -0.1487  1.0757 -1.4726
  749MOL0     H 1098   1.017   7.503  11.946  0.6945  1.2118  2.7492
  749MOL0     H 1099   1.329   6.899  10.381  0.6294 -1.1089 -0.8250
  749MOL0     H 1100   1.176   6.751  10.333 -1.6846  3.2123 -0.7232
  749MOL0     H 1101   0.809   6.688  10.441 -1.3520 -1.1203  0.8774
  749MOL0     H 1102   0.632   6.712  10.294 -0.7255 -1.2444 -2.2543
  749MOL0     H 1103   0.514   6.368  10.054 -2.4127 -2.0786 -2.6133
  749MOL0     H 1104   0.582   6.460   9.918  1.8153  0.1827  0.2132
  749MOL0     H 1105   0.341   6.590   9.926  1.9493 -0.1825 -0.3912
  749MOL0     H 1106   0.305   6.459  10.041 -0.0412  0.8354  0.8653
  749MOL0     H 1107   0.405   6.295   9.858  2.9403 -0.3849 -1.3666
  749MOL0     H 1108   0.414   6.441   9.755  1.1869 -0.2378  1.7679
  749MOL0     H 1109   0.164   6.328   9.867  1.9926 -1.1653  1.6231
  749MOL0     H 1110   0.179   6.474   9.767 -0.9750 -0.1401 -1.1706
  749MOL0     H 1111   0.207   6.164   9.479 -0.4521 -0.0363  0.2750
  749MOL0     H 1112   0.742   6.361  10.085  0.8400 -0.0843  0.5048
  749MOL0     H 1113   0.893   6.203  10.168  0.5281  0.3674 -0.0116
  749MOL0     H 1114   1.033   6.287  10.207 -1.0771 -1.9272 -1.2328
  749MOL0     H 1115   0.940   6.220  10.343  1.6391  2.1301  2.1355
  750MOL0     O 1116   8.996   7.862   5.887  0.4371 -0.2104 -0.0819
  750MOL0     C 1117   9.046   7.758   5.925 -1.1089  0.9028  1.1196
  750MOL0     O 1118   9.008   7.632   5.870 -0.1244 -0.0308 -0.1816
  750MOL0     C 1119   8.901   7.640   5.789 -1.1066  0.4441  0.2956
  750MOL0     C 1120   8.928   7.647   5.648  0.5578  0.3380 -0.3311
  750MOL0     C 1121   8.824   7.648   5.559  0.4930 -0.6391  0.0960
  750MOL0     C 1122   8.692   7.674   5.606 -0.4553 -0.3619 -1.2174
  750MOL0     O 1123   8.596   7.687   5.506 -0.3266 -0.6163 -0.2917
  750MOL0     C 1124   8.542   7.825   5.508 -0.2424 -0.9040 -0.7339
  750MOL0     C 1125   8.408   7.849   5.579  0.6294 -1.5554  0.3230
  750MOL0     C 1126   8.292   7.752   5.542 -0.0608 -0.3909 -0.9329
  750MOL0     C 1127   8.156   7.777   5.605 -0.8269  0.2790  0.5024
  750MOL0     C 1128   8.063   7.658   5.568  0.6802  0.9740  0.3866
  750MOL0     C 1129   8.013   7.589   5.697  0.7134 -0.4835 -0.5787
  750MOL0     C 1130   7.913   7.481   5.658 -0.1839 -0.2970  1.1773
  750MOL0     C 1131   7.891   7.375   5.769  0.1462 -0.0712  0.0446
  750MOL0     N 1132   7.771   7.297   5.745 -0.5612  0.1602  0.1012
  750MOL0     C 1133   7.766   7.196   5.650 -0.3201 -0.5509  0.0452
  750MOL0     C 1134   7.638   7.161   5.649  0.4855  0.6287  1.2709
  750MOL0     C 1135   7.560   7.054   5.581 -0.4188 -0.0557 -0.0750
  750MOL0     C 1136   7.551   7.084   5.429  0.3628  0.7697 -0.3742
  750MOL0     C 1137   7.456   6.982   5.378  0.2594  0.3630 -0.2858
  750MOL0     C 1138   7.448   6.974   5.226 -0.5611  0.5708 -0.4102
  750MOL0     O 1139   7.405   6.839   5.204  0.4309  0.1801  0.1039
  750MOL0     C 1140   7.387   6.799   5.070  0.3252  0.0107 -0.8327
  750MOL0     C 1141   7.305   6.879   4.978 -0.5430  0.7275 -0.3430
  750MOL0     C 1142   7.285   6.834   4.849 -0.0530  0.0264 -0.6304
  750MOL0     C 1143   7.344   6.717   4.797 -0.2146  0.0942 -0.6383
  750MOL0     C 1144   7.312   6.674   4.664 -1.2719  0.1428  1.0386
  750MOL0     O 1145   7.372   6.566   4.601  0.1140  0.5476  0.4326
  750MOL0     C 1146   7.365   6.543   4.466  0.6908  0.0973  0.7166
  750MOL0     C 1147   7.390   6.412   4.423 -0.2099  0.0692 -0.0868
  750MOL0     C 1148   7.405   6.379   4.280  0.6017  0.8008  1.4039
  750MOL0     C 1149   7.389   6.479   4.179 -0.4649  0.4330  0.1541
  750MOL0     O 1150   7.406   6.449   4.045  0.7852  0.4653  0.4523
  750MOL0     C 1151   7.304   6.493   3.964 -0.7546 -0.0812  1.2659
  750MOL0     C 1152   7.270   6.397   3.849  0.7349 -0.3042 -0.5212
  750MOL0     C 1153   7.400   6.356   3.777  0.3759  1.2916 -0.1151
  750MOL0     C 1154   7.382   6.285   3.641  0.7649 -0.9710  0.0769
  750MOL0     C 1155   7.337   6.380   3.533 -0.8330  1.0198  0.0057
  750MOL0     C 1156   7.296   6.304   3.414  0.6064 -0.1259  0.6503
  750MOL0     C 1157   7.364   6.332   3.280 -1.0606 -0.3941 -0.7202
  750MOL0     C 1158   7.463   6.221   3.241 -0.5043  1.1365  0.1876
  750MOL0    Cl 1159   7.570   6.177   3.378 -0.1133  0.2791  0.0559
  750MOL0     C 1160   7.378   6.613   4.230  0.2307 -0.2662  0.6437
  750MOL0     C 1161   7.357   6.645   4.367  0.0997 -0.0166  0.6284
  750MOL0     O 1162   7.232   6.746   4.607  0.3424  0.4435 -0.2202
  750MOL0     C 1163   7.411   6.644   4.897  0.3871  0.3535  0.3027
  750MOL0     C 1164   7.435   6.683   5.031  0.4285 -0.4601  0.2271
  750MOL0     N 1165   7.564   7.253   5.734 -1.1154 -0.2713 -1.0964
  750MOL0     N 1166   7.650   7.331   5.794  0.2515 -0.7284 -0.1549
  750MOL0     C 1167   8.663   7.669   5.742 -0.6730 -0.4235  0.3928
  750MOL0     C 1168   8.767   7.647   5.835 -0.3015  0.7041  0.1030
  750MOL0     C 1169   9.166   7.764   6.017  0.1941 -0.1694  1.1038
  750MOL0     C 1170   9.161   7.860   6.117 -0.8301  0.4479 -0.2343
  750MOL0     C 1171   9.266   7.881   6.198  0.4104  0.4786 -0.4179
  750MOL0     C 1172   9.380   7.801   6.185 -0.2547  0.5932  0.5636
  750MOL0     O 1173   9.488   7.808   6.279  0.3120 -0.1571  0.1204
  750MOL0     C 1174   9.544   7.945   6.272 -0.5146  0.2858 -0.9755
  750MOL0     C 1175   9.684   7.958   6.215 -0.2856  0.5296 -0.5185
  750MOL0     C 1176   9.742   8.100   6.227  0.2185  0.5627 -1.1498
  750MOL0     C 1177   9.856   8.110   6.126 -0.1234 -0.0644 -0.6740
  750MOL0     C 1178   9.978   8.043   6.183 -0.6772 -0.0708 -0.4090
  750MOL0     C 1179  10.067   7.994   6.248 -0.5842  1.1243 -0.0245
  750MOL0     C 1180   9.390   7.705   6.084 -0.4398  0.1172 -0.9883
  750MOL0     C 1181   9.286   7.686   5.997 -0.2733 -0.0166 -0.6285
  750MOL0     C 1182   9.310   7.597   5.882 -0.2189 -0.3283 -0.3801
  750MOL0     H 1183   9.026   7.665   5.604  1.2005  1.8954  1.5581
  750MOL0     H 1184   8.848   7.665   5.454 -0.6120  3.8878  0.3380
  750MOL0     H 1185   8.613   7.896   5.551  1.0950 -1.7410 -1.5063
  750MOL0     H 1186   8.521   7.858   5.406  2.3432  1.6887 -0.5460
  750MOL0     H 1187   8.367   7.948   5.556  4.0967 -0.5572 -2.3933
  750MOL0     H 1188   8.423   7.852   5.687 -0.1466  0.8949  0.4247
  750MOL0     H 1189   8.331   7.662   5.590  2.1326  0.7972 -0.3754
  750MOL0     H 1190   8.283   7.740   5.433 -0.2784 -1.9926 -0.7514
  750MOL0     H 1191   8.173   7.793   5.712  0.8069 -1.7226  0.6077
  750MOL0     H 1192   8.111   7.872   5.575  1.8851  1.8842  1.1650
  750MOL0     H 1193   7.982   7.703   5.510 -0.5087  3.0417  3.3726
  750MOL0     H 1194   8.119   7.578   5.520  2.7421  1.4787  1.7940
  750MOL0     H 1195   8.098   7.538   5.743 -0.5619 -0.0519  2.5219
  750MOL0     H 1196   7.961   7.665   5.756 -0.2538 -0.7988 -1.0058
  750MOL0     H 1197   7.949   7.434   5.566 -1.7865  2.4622 -0.9828
  750MOL0     H 1198   7.819   7.530   5.633 -0.0452 -1.1840 -1.2891
  750MOL0     H 1199   7.983   7.315   5.769 -0.1039 -0.4548 -0.0532
  750MOL0     H 1200   7.894   7.410   5.872 -0.3377 -2.2284  0.8385
  750MOL0     H 1201   7.851   7.156   5.596  2.4275  1.7491  2.2936
  750MOL0     H 1202   7.617   6.962   5.596  0.2837  0.3693 -0.1342
  750MOL0     H 1203   7.462   7.053   5.629 -1.1558 -1.7795 -1.4685
  750MOL0     H 1204   7.518   7.188   5.418 -0.5995  0.4200 -0.9719
  750MOL0     H 1205   7.652   7.071   5.389 -0.6477 -0.7038 -2.6597
  750MOL0     H 1206   7.357   7.011   5.414 -0.7695 -1.9360 -1.0616
  750MOL0     H 1207   7.486   6.880   5.405  2.0359  0.8591 -0.2822
  750MOL0     H 1208   7.550   6.974   5.187 -0.9388  2.3084 -1.5028
  750MOL0     H 1209   7.390   7.053   5.177 -2.8279 -1.0568 -0.5631
  750MOL0     H 1210   7.260   6.962   5.031  1.8586  0.0307  3.2515
  750MOL0     H 1211   7.208   6.887   4.793  0.2513  1.6432  0.4226
  750MOL0     H 1212   7.384   6.336   4.499  0.5670 -0.0919 -0.1841
  750MOL0     H 1213   7.416   6.276   4.249 -1.1091  0.8506  0.5208
  750MOL0     H 1214   7.222   6.528   4.027 -1.3591  0.2212  0.3228
  750MOL0     H 1215   7.343   6.586   3.922  0.1022 -0.6300  0.8198
  750MOL0     H 1216   7.212   6.311   3.883  1.5358 -0.3333  0.8425
  750MOL0     H 1217   7.205   6.451   3.779  2.5044  0.7807 -1.4161
  750MOL0     H 1218   7.461   6.446   3.761  1.8878  0.6629  1.6963
  750MOL0     H 1219   7.458   6.293   3.845 -0.9530  1.2708  1.0273
  750MOL0     H 1220   7.304   6.208   3.641 -0.0405 -0.7844 -6.8703
  750MOL0     H 1221   7.476   6.235   3.617 -0.2939 -4.1426  1.8869
  750MOL0     H 1222   7.416   6.451   3.507 -1.4342  0.7368 -2.8730
  750MOL0     H 1223   7.252   6.444   3.560 -2.0448 -0.9345  1.1259
  750MOL0     H 1224   7.322   6.199   3.432 -0.1584 -0.2841  0.8618
  750MOL0     H 1225   7.189   6.294   3.396  0.6013 -0.0718  0.6514
  750MOL0     H 1226   7.432   6.417   3.298 -1.7171 -0.3310  1.6942
  750MOL0     H 1227   7.286   6.350   3.205 -1.3017 -0.2430 -0.4342
  750MOL0     H 1228   7.403   6.138   3.202  2.0239 -1.1325  0.8884
  750MOL0     H 1229   7.513   6.256   3.150 -0.7593  1.9258  0.3439
  750MOL0     H 1230   7.377   6.680   4.145 -3.2707  1.7889  2.1112
  750MOL0     H 1231   7.344   6.752   4.386  0.2003 -0.0120  0.6766
  750MOL0     H 1232   7.424   6.539   4.875 -0.8178 -0.1012  1.5876
  750MOL0     H 1233   7.468   6.606   5.099 -0.4860 -1.8731 -0.8497
  750MOL0     H 1234   8.562   7.695   5.772 -1.4298 -1.0357 -1.4692
  750MOL0     H 1235   8.742   7.656   5.940 -1.3782 -1.5866  0.1089
  750MOL0     H 1236   9.079   7.929   6.134 -1.4795 -0.7277  1.9581
  750MOL0     H 1237   9.252   7.955   6.277  0.8832  2.7901 -2.3655
  750MOL0     H 1238   9.546   7.984   6.374 -2.0661 -1.4303 -0.2305
  750MOL0     H 1239   9.483   8.017   6.217  1.1476  1.8109 -0.9106
  750MOL0     H 1240   9.684   7.921   6.111 -1.2730 -1.3106  0.0822
  750MOL0     H 1241   9.758   7.898   6.268 -2.2985 -0.6748  1.0747
  750MOL0     H 1242   9.777   8.108   6.330  0.6062 -1.5350 -1.0760
  750MOL0     H 1243   9.665   8.176   6.215 -0.8500  0.1402  2.0884
  750MOL0     H 1244   9.825   8.071   6.029 -0.0124  1.7586 -1.4758
  750MOL0     H 1245   9.887   8.212   6.100 -2.3513  0.1942 -2.6855
  750MOL0     H 1246  10.149   7.952   6.304 -1.7229 -0.7068  0.3682
  750MOL0     H 1247   9.485   7.660   6.055 -0.8862 -1.7268  0.2706
  750MOL0     H 1248   9.245   7.510   5.896 -2.6623  1.5701  0.9902
  750MOL0     H 1249   9.279   7.652   5.793  0.0191  1.2220  0.4634
  750MOL0     H 1250   9.413   7.562   5.875  0.1671  0.4936  0.8248
  751MOL0     O 1251   7.156   6.422   7.263  0.3507  0.2642  0.7146
  751MOL0     C 1252   7.036   6.460   7.248 -0.3210  0.3563  0.6975
  751MOL0     O 1253   6.943   6.392   7.176  0.4162  1.0375 -0.2170
  751MOL0     C 1254   6.969   6.266   7.127  0.0341  0.2801 -1.0853
  751MOL0     C 1255   7.065   6.255   7.025 -0.9440  0.0641 -0.0418
  751MOL0     C 1256   7.089   6.133   6.960 -0.6634 -0.7546  0.2786
  751MOL0     C 1257   7.016   6.019   6.999 -0.4430 -0.6101 -0.2307
  751MOL0     O 1258   7.042   5.885   6.955 -0.8345  0.9170 -0.7861
  751MOL0     C 1259   7.169   5.853   6.896 -1.5176  0.0009 -0.2576
  751MOL0     C 1260   7.161   5.712   6.830 -0.2277  0.3252  0.6727
  751MOL0     C 1261   7.294   5.655   6.804  0.3110 -0.1612 -0.4587
  751MOL0     C 1262   7.290   5.520   6.738 -0.6019 -0.1383 -0.2877
  751MOL0     C 1263   7.413   5.439   6.769  0.0346 -0.1766 -0.0525
  751MOL0     C 1264   7.406   5.290   6.732 -0.0146 -0.0850  0.7927
  751MOL0     C 1265   7.416   5.264   6.580  0.1992  0.2251 -0.2850
  751MOL0     C 1266   7.305   5.164   6.536 -0.4517  0.3756 -0.4773
  751MOL0     N 1267   7.185   5.239   6.504  0.0540 -0.1817 -0.6797
  751MOL0     C 1268   7.174   5.327   6.401 -0.6281 -0.3066 -1.0491
  751MOL0     C 1269   7.055   5.396   6.410  0.9309  0.6838 -0.5188
  751MOL0     C 1270   6.979   5.487   6.317  0.0175  0.8043  0.5361
  751MOL0     C 1271   6.852   5.405   6.269 -0.7623  0.1944  0.0953
  751MOL0     C 1272   6.748   5.494   6.198  0.3858  0.3351 -0.2545
  751MOL0     C 1273   6.643   5.542   6.286 -0.5462 -0.0297  0.1353
  751MOL0     O 1274   6.552   5.634   6.235 -0.0322 -0.2606 -0.3186
  751MOL0     C 1275   6.488   5.614   6.117 -0.2773 -0.2244  0.5249
  751MOL0     C 1276   6.432   5.483   6.093 -0.1971 -0.1094 -0.5390
  751MOL0     C 1277   6.390   5.443   5.964 -0.2603  0.1433 -1.2772
  751MOL0     C 1278   6.392   5.530   5.853 -0.5522  0.8935 -0.1098
  751MOL0     C 1279   6.355   5.485   5.726  0.1816 -0.8651  0.0148
  751MOL0     O 1280   6.330   5.348   5.709  0.3809 -0.4450 -0.5467
  751MOL0     C 1281   6.296   5.298   5.586  0.2848  0.0050 -0.3303
  751MOL0     C 1282   6.367   5.338   5.474  0.0754 -0.5155 -0.1433
  751MOL0     C 1283   6.326   5.275   5.350 -0.7226 -0.7389 -0.6798
  751MOL0     C 1284   6.231   5.180   5.340  0.1401  0.6160 -0.3900
  751MOL0     O 1285   6.178   5.122   5.224  0.6137 -0.8116 -0.0588
  751MOL0     C 1286   6.232   5.144   5.089  0.4250 -0.6479 -0.0899
  751MOL0     C 1287   6.174   5.054   4.983 -0.2962  0.6440 -0.6910
  751MOL0     C 1288   6.020   5.058   4.976 -0.1759  0.4402 -0.1465
  751MOL0     C 1289   5.977   4.975   4.864  0.2132  0.3642  0.2711
  751MOL0     C 1290   5.816   4.950   4.858 -0.1995 -0.5821  0.0174
  751MOL0     C 1291   5.793   4.869   4.729  0.5410  0.0892 -0.0942
  751MOL0     C 1292   5.654   4.893   4.674 -0.0402  0.3457  0.3390
  751MOL0     C 1293   5.539   4.821   4.754  0.0821 -0.6200 -0.5410
  751MOL0    Cl 1294   5.386   4.912   4.725 -0.5124 -0.1220  0.2319
  751MOL0     C 1295   6.158   5.142   5.455  0.1389 -0.3512 -0.6452
  751MOL0     C 1296   6.193   5.205   5.577  0.0959 -1.0254  0.4229
  751MOL0     O 1297   6.334   5.574   5.645 -0.7551 -0.5399  1.0019
  751MOL0     C 1298   6.436   5.660   5.878  0.4852  0.4517  0.3837
  751MOL0     C 1299   6.484   5.704   6.013  0.6604  0.5313  0.6988
  751MOL0     N 1300   6.996   5.346   6.523  0.4679 -0.4652  0.3348
  751MOL0     N 1301   7.075   5.258   6.584 -0.4430  0.4754  0.9839
  751MOL0     C 1302   6.911   6.033   7.095 -0.1999  0.2024  0.3846
  751MOL0     C 1303   6.901   6.152   7.165  0.0190  0.1496  0.0259
  751MOL0     C 1304   6.986   6.574   7.327 -0.4539  0.0357 -0.5619
  751MOL0     C 1305   6.864   6.626   7.283  0.5360  0.2130  0.8530
  751MOL0     C 1306   6.804   6.724   7.358  0.2925 -0.3834  0.3628
  751MOL0     C 1307   6.868   6.779   7.471 -0.0244  0.0736  0.4362
  751MOL0     O 1308   6.777   6.864   7.532 -0.3033  0.1203 -0.1945
  751MOL0     C 1309   6.813   6.927   7.660  0.1706  0.3063 -0.8131
  751MOL0     C 1310   6.717   7.044   7.678  0.4612 -0.1274  0.1665
  751MOL0     C 1311   6.737   7.122   7.809  0.8676 -0.9621  1.5249
  751MOL0     C 1312   6.661   7.257   7.814 -0.5134  0.4397  0.3392
  751MOL0     C 1313   6.516   7.252   7.764 -0.5593  0.1584  0.3971
  751MOL0     C 1314   6.406   7.232   7.717  0.2072  0.4575 -0.2102
  751MOL0     C 1315   6.992   6.734   7.507 -0.4631 -0.1632 -0.0432
  751MOL0     C 1316   7.050   6.618   7.442  0.2270 -0.1506  0.3421
  751MOL0     C 1317   7.174   6.546   7.504 -0.0187 -0.9522 -0.1242
  751MOL0     H 1318   7.110   6.340   6.975  1.0291 -0.5958  0.5304
  751MOL0     H 1319   7.170   6.127   6.889  0.3863  1.7002  1.1389
  751MOL0     H 1320   7.213   5.926   6.827 -1.1602 -0.4025 -0.4620
  751MOL0     H 1321   7.246   5.854   6.974 -1.5269 -1.6904 -0.1932
  751MOL0     H 1322   7.109   5.726   6.734  1.9967  1.5822 -0.4094
  751MOL0     H 1323   7.105   5.639   6.890  0.6365  0.8137  2.1156
  751MOL0     H 1324   7.342   5.644   6.902 -0.2147  2.5130  0.1687
  751MOL0     H 1325   7.359   5.723   6.748  0.4838  0.6938  0.7388
  751MOL0     H 1326   7.218   5.454   6.787 -0.2180 -0.8254 -0.6158
  751MOL0     H 1327   7.269   5.541   6.633  3.1981 -1.9253 -1.6141
  751MOL0     H 1328   7.501   5.493   6.732  1.3219 -1.0039  1.6428
  751MOL0     H 1329   7.427   5.454   6.876  1.6948  3.7223 -0.6650
  751MOL0     H 1330   7.497   5.240   6.765 -0.2383 -1.1587 -0.1525
  751MOL0     H 1331   7.319   5.245   6.779 -0.9580  1.6157  0.7608
  751MOL0     H 1332   7.516   5.227   6.557  1.6056  3.5050  0.0549
  751MOL0     H 1333   7.410   5.359   6.525  2.6646  0.6768  0.1046
  751MOL0     H 1334   7.343   5.094   6.461 -0.2938 -4.3530  3.5245
  751MOL0     H 1335   7.282   5.102   6.623 -1.6989  2.7161  0.9768
  751MOL0     H 1336   7.231   5.349   6.311  1.1702  0.6730  0.2784
  751MOL0     H 1337   6.947   5.576   6.371 -1.9676  1.0240 -0.9114
  751MOL0     H 1338   7.031   5.526   6.229 -0.6367  1.7428  0.5489
  751MOL0     H 1339   6.882   5.340   6.186  0.8536 -1.6367  2.0160
  751MOL0     H 1340   6.798   5.348   6.345 -1.4799 -0.2056 -0.6891
  751MOL0     H 1341   6.706   5.438   6.114  1.9341  1.2204 -1.7095
  751MOL0     H 1342   6.791   5.587   6.160 -1.9918  1.2273 -0.9436
  751MOL0     H 1343   6.697   5.602   6.361  2.3520  0.8645 -2.4799
  751MOL0     H 1344   6.590   5.456   6.327 -2.3105  0.5699 -0.7666
  751MOL0     H 1345   6.429   5.408   6.171 -0.5843 -2.0649 -2.3563
  751MOL0     H 1346   6.361   5.338   5.961 -1.0779  0.0955  2.6622
  751MOL0     H 1347   6.451   5.406   5.465  2.3588 -3.2977 -1.9563
  751MOL0     H 1348   6.362   5.314   5.256  1.1819 -0.4737  0.1101
  751MOL0     H 1349   6.217   5.247   5.055  4.8542  0.0051 -0.5764
  751MOL0     H 1350   6.339   5.121   5.086  0.2887 -1.3547  0.3173
  751MOL0     H 1351   6.225   5.063   4.887 -3.0717  0.1301 -2.3163
  751MOL0     H 1352   6.201   4.951   5.005  0.8226  0.3519 -3.1370
  751MOL0     H 1353   5.970   5.020   5.065 -1.2796  1.0230 -0.4964
  751MOL0     H 1354   5.968   5.152   4.953 -2.8974 -0.8560  0.3887
  751MOL0     H 1355   6.023   4.876   4.868  2.6711  1.3247 -1.8115
  751MOL0     H 1356   6.020   5.014   4.772  1.7222  0.1750  0.8668
  751MOL0     H 1357   5.769   5.048   4.843 -3.5920 -1.9666  0.4818
  751MOL0     H 1358   5.771   4.916   4.952  3.2468 -0.8942  1.7078
  751MOL0     H 1359   5.867   4.913   4.661  0.5542 -1.0522 -0.8617
  751MOL0     H 1360   5.818   4.763   4.743 -2.4982 -0.4404  2.4820
  751MOL0     H 1361   5.653   4.854   4.572 -1.0035  1.3343 -0.0465
  751MOL0     H 1362   5.645   5.002   4.669 -0.0843  0.2972 -0.9896
  751MOL0     H 1363   5.534   4.714   4.731  2.2159 -1.0548  0.7539
  751MOL0     H 1364   5.559   4.830   4.861  0.1664 -2.4310 -0.3722
  751MOL0     H 1365   6.078   5.069   5.452 -1.1539  1.0210 -0.6506
  751MOL0     H 1366   6.136   5.196   5.668  0.9175  0.0681  1.0722
  751MOL0     H 1367   6.437   5.712   5.783  1.2254 -1.7795 -0.8893
  751MOL0     H 1368   6.520   5.806   6.020 -0.5042  1.3614 -3.1630
  751MOL0     H 1369   6.842   5.958   7.133 -1.0096  1.2534  1.0562
  751MOL0     H 1370   6.824   6.165   7.240  1.3388  0.4911  1.3615
  751MOL0     H 1371   6.826   6.613   7.182 -1.5984 -0.6267  1.6938
  751MOL0     H 1372   6.707   6.750   7.316 -0.6378 -4.0116 -0.1111
  751MOL0     H 1373   6.919   6.939   7.684  0.0237  2.2031 -0.9317
  751MOL0     H 1374   6.771   6.854   7.730 -0.7268 -0.3112 -1.9634
  751MOL0     H 1375   6.615   7.005   7.679 -0.0971  1.2705  1.2954
  751MOL0     H 1376   6.726   7.101   7.586 -2.4509  0.3336  0.0956
  751MOL0     H 1377   6.842   7.152   7.807  0.4242  0.6466 -0.1100
  751MOL0     H 1378   6.722   7.054   7.894 -2.0322 -2.5024 -0.0500
  751MOL0     H 1379   6.661   7.298   7.915  1.7750  1.2427  0.0781
  751MOL0     H 1380   6.723   7.316   7.745 -2.7309  2.5556  0.0349
  751MOL0     H 1381   6.313   7.207   7.669  1.5232  0.2100 -2.8434
  751MOL0     H 1382   7.050   6.787   7.582 -0.7806  3.9290 -2.3905
  751MOL0     H 1383   7.266   6.539   7.445  2.5457  1.8450  3.1429
  751MOL0     H 1384   7.208   6.595   7.595  1.3163 -1.7805 -0.1528
  751MOL0     H 1385   7.134   6.452   7.544  3.4866 -1.2347  3.3204
  752MOL0     O 1386   5.209   6.924   1.428 -0.2671 -1.0716  0.9184
  752MOL0     C 1387   5.231   6.803   1.425 -0.2246  0.3428 -0.5075
  752MOL0     O 1388   5.148   6.720   1.358 -0.1800 -0.0152  0.2579
  752MOL0     C 1389   5.026   6.755   1.291 -0.0948 -0.2531  0.2966
  752MOL0     C 1390   4.944   6.868   1.301  0.4986 -0.8395 -0.2695
  752MOL0     C 1391   4.827   6.873   1.238 -0.7250  1.1777  0.1254
  752MOL0     C 1392   4.789   6.770   1.149 -0.1342 -0.1002  0.8933
  752MOL0     O 1393   4.671   6.782   1.069 -0.3661 -0.6695 -0.4395
  752MOL0     C 1394   4.563   6.863   1.121 -0.6591  0.4147 -0.0444
  752MOL0     C 1395   4.446   6.858   1.019  0.9445  0.3066 -1.4843
  752MOL0     C 1396   4.305   6.891   1.081  0.2874 -0.4946  1.3852
  752MOL0     C 1397   4.218   6.918   0.959  0.4833 -0.3662  0.1980
  752MOL0     C 1398   4.072   6.919   0.982  0.5147  0.4905 -0.5813
  752MOL0     C 1399   4.008   6.780   0.988 -0.6422  0.2512 -0.6678
  752MOL0     C 1400   3.853   6.804   0.990 -0.9369  0.3106 -0.1930
  752MOL0     C 1401   3.769   6.675   1.010  0.7380  0.0287 -0.0797
  752MOL0     N 1402   3.750   6.597   0.890 -0.6481 -0.2034 -0.5170
  752MOL0     C 1403   3.648   6.623   0.800  0.9034  0.8632  0.1777
  752MOL0     C 1404   3.658   6.531   0.700 -1.1217  0.5286 -0.2733
  752MOL0     C 1405   3.579   6.509   0.578  0.3331  0.0113  1.0489
  752MOL0     C 1406   3.503   6.640   0.535 -0.1858 -1.1441 -0.0590
  752MOL0     C 1407   3.608   6.747   0.493 -0.5347  0.2263  0.0357
  752MOL0     C 1408   3.560   6.892   0.449  0.5491  0.6045 -0.3323
  752MOL0     O 1409   3.495   6.873   0.317 -0.4849 -0.5587 -0.2764
  752MOL0     C 1410   3.435   6.989   0.273  0.1737 -0.2029 -0.5127
  752MOL0     C 1411   3.342   6.966   0.172  0.6456 -0.0464  0.0236
  752MOL0     C 1412   3.267   7.072   0.115 -0.7134  0.0925 -0.1612
  752MOL0     C 1413   3.277   7.202   0.177 -0.1225 -0.7405 -0.6760
  752MOL0     C 1414   3.196   7.314   0.138  0.3380 -0.5884 -0.0345
  752MOL0     O 1415   3.204   7.426   0.223  0.6712  0.0602 -0.2628
  752MOL0     C 1416   3.107   7.524   0.207 -0.4984 -0.0973 -0.0475
  752MOL0     C 1417   3.018   7.559   0.317 -0.3040  0.4522  0.4458
  752MOL0     C 1418   2.922   7.668   0.305 -0.2237  0.4501  0.3546
  752MOL0     C 1419   2.917   7.738   0.187 -0.0901 -0.9296 -0.4650
  752MOL0     O 1420   2.832   7.852   0.174  0.9818 -0.8599  0.7242
  752MOL0     C 1421   2.867   7.960   0.088  0.2903 -0.8401  1.2831
  752MOL0     C 1422   2.771   8.077   0.113  0.0498 -0.3732  0.3702
  752MOL0     C 1423   2.839   8.206   0.147  0.0180  0.5639  1.0292
  752MOL0     C 1424   2.856   8.288   0.018  0.0728 -0.4076 -0.0195
  752MOL0     C 1425   2.922   8.423   0.046 -0.4886  0.6851  0.1662
  752MOL0     C 1426   2.935   8.514  -0.070 -0.5533 -0.1974 -0.2029
  752MOL0     C 1427   2.939   8.660  -0.023  0.4235 -0.4804 -0.2576
  752MOL0     C 1428   2.938   8.760  -0.140 -0.3158  0.5206  0.0023
  752MOL0    Cl 1429   2.782   8.760  -0.240 -0.1546  0.2866  0.2417
  752MOL0     C 1430   3.012   7.708   0.082  0.6708 -0.2081 -0.4608
  752MOL0     C 1431   3.092   7.594   0.094 -0.2146 -0.0844 -0.2591
  752MOL0     O 1432   3.125   7.314   0.043  0.1791  0.4463  0.3703
  752MOL0     C 1433   3.358   7.217   0.289  1.0239  0.4717  0.3732
  752MOL0     C 1434   3.440   7.117   0.344  0.8728 -0.5143  0.3025
  752MOL0     N 1435   3.749   6.445   0.751 -0.9137  0.5534  0.0183
  752MOL0     N 1436   3.819   6.482   0.848  0.5917 -0.1058 -0.1840
  752MOL0     C 1437   4.868   6.663   1.136 -0.0540  0.0220  0.6925
  752MOL0     C 1438   4.990   6.654   1.203  0.1183 -0.8024 -0.1847
  752MOL0     C 1439   5.367   6.767   1.438 -0.2692  1.1091 -0.0060
  752MOL0     C 1440   5.440   6.692   1.347 -0.6970  0.4573  0.8174
  752MOL0     C 1441   5.571   6.639   1.369  0.3114  0.0460  0.1112
  752MOL0     C 1442   5.635   6.673   1.489  0.5886 -1.2624  0.0502
  752MOL0     O 1443   5.750   6.616   1.536  0.1857 -0.0446  0.0598
  752MOL0     C 1444   5.839   6.546   1.459 -1.0731  0.2764  0.1442
  752MOL0     C 1445   5.963   6.510   1.546  0.0905  0.7611  0.2097
  752MOL0     C 1446   5.929   6.402   1.651  0.1473  0.1310 -0.3560
  752MOL0     C 1447   6.049   6.352   1.734  0.1432 -0.6788  0.4114
  752MOL0     C 1448   5.998   6.260   1.840 -0.2498 -0.4328  0.0756
  752MOL0     C 1449   5.946   6.164   1.895  0.3979  0.2940  0.2043
  752MOL0     C 1450   5.565   6.766   1.576  1.2051 -0.1377 -0.2035
  752MOL0     C 1451   5.433   6.807   1.560 -0.3647 -0.4936  0.2391
  752MOL0     C 1452   5.374   6.887   1.673 -0.6244  0.2735 -0.1669
  752MOL0     H 1453   4.971   6.958   1.357 -1.4135 -0.8316  0.7083
  752MOL0     H 1454   4.766   6.959   1.261 -0.2471  1.0115  2.1389
  752MOL0     H 1455   4.519   6.825   1.214 -3.4478 -1.0139 -1.8053
  752MOL0     H 1456   4.602   6.964   1.131 -1.1895  0.8481 -1.9514
  752MOL0     H 1457   4.440   6.752   0.991  0.6506 -0.3966  0.9620
  752MOL0     H 1458   4.470   6.924   0.936 -1.0556  1.1355 -1.4781
  752MOL0     H 1459   4.285   6.967   1.156 -0.0272  0.5987  0.2363
  752MOL0     H 1460   4.271   6.792   1.113  1.7902 -0.6901  2.4703
  752MOL0     H 1461   4.262   7.013   0.927  1.4004  0.3870  3.3498
  752MOL0     H 1462   4.240   6.844   0.881  0.6323  1.7434 -1.8775
  752MOL0     H 1463   4.044   6.968   1.076  0.0995 -1.2012  0.2111
  752MOL0     H 1464   4.026   6.966   0.895  2.7017  1.6938 -1.1843
  752MOL0     H 1465   4.035   6.729   0.895 -0.3116  1.5122 -1.2843
  752MOL0     H 1466   4.044   6.719   1.071  1.0642  1.1810 -0.6753
  752MOL0     H 1467   3.834   6.842   0.890 -0.2723 -3.1424 -1.7890
  752MOL0     H 1468   3.825   6.871   1.072 -0.8282 -0.0209  0.1198
  752MOL0     H 1469   3.823   6.617   1.086  1.8708 -3.6568 -3.3168
  752MOL0     H 1470   3.675   6.713   1.051  1.0346 -0.5847  1.2150
  752MOL0     H 1471   3.571   6.699   0.814 -2.0548 -1.4149 -2.3467
  752MOL0     H 1472   3.629   6.476   0.487  0.4784  2.6090  0.0870
  752MOL0     H 1473   3.501   6.434   0.597 -0.7145  1.1025  1.2203
  752MOL0     H 1474   3.440   6.628   0.446  1.5746 -3.7301 -1.0461
  752MOL0     H 1475   3.448   6.701   0.608  0.3370  2.2284 -2.2872
  752MOL0     H 1476   3.658   6.717   0.401 -3.0915  0.4532 -1.5258
  752MOL0     H 1477   3.680   6.766   0.574 -0.0236  0.1304 -0.3924
  752MOL0     H 1478   3.641   6.964   0.430  1.3875 -0.3480 -0.4625
  752MOL0     H 1479   3.493   6.932   0.526  2.0059 -0.1586  1.4016
  752MOL0     H 1480   3.334   6.866   0.132  3.2669 -0.6148  0.7511
  752MOL0     H 1481   3.200   7.053   0.032 -0.4252 -0.0276 -0.3662
  752MOL0     H 1482   3.025   7.511   0.414  1.0186  1.4635  0.8823
  752MOL0     H 1483   2.860   7.694   0.390  0.4785  0.5095  0.8567
  752MOL0     H 1484   2.973   7.988   0.096  0.2967 -0.8460  1.2187
  752MOL0     H 1485   2.834   7.927  -0.011 -0.4011 -0.5410  1.4127
  752MOL0     H 1486   2.719   8.089   0.017  0.2317 -2.0121  0.0442
  752MOL0     H 1487   2.689   8.059   0.183 -2.5101 -1.3829 -2.6669
  752MOL0     H 1488   2.779   8.254   0.225 -2.7867 -1.3429  0.1811
  752MOL0     H 1489   2.940   8.188   0.184  1.3660 -0.4217 -2.6372
  752MOL0     H 1490   2.763   8.315  -0.032  0.9892  1.4584 -0.8175
  752MOL0     H 1491   2.918   8.237  -0.057  3.1236  1.3739  1.0908
  752MOL0     H 1492   3.023   8.396   0.078 -0.2931  1.2199  0.0160
  752MOL0     H 1493   2.876   8.478   0.128  0.0264  0.5555  0.5466
  752MOL0     H 1494   3.026   8.494  -0.127 -1.8941 -4.6405 -1.1685
  752MOL0     H 1495   2.853   8.503  -0.142 -2.2937 -1.3547  1.8422
  752MOL0     H 1496   3.032   8.667   0.035  0.2469 -3.0707  0.5087
  752MOL0     H 1497   2.863   8.685   0.051  2.3059  3.5399  0.5551
  752MOL0     H 1498   2.947   8.866  -0.111  0.3254  0.5498 -0.2856
  752MOL0     H 1499   3.020   8.738  -0.209 -2.0497 -0.3882 -1.8909
  752MOL0     H 1500   3.004   7.760  -0.013  0.0284 -0.4839 -0.5605
  752MOL0     H 1501   3.166   7.582   0.015 -0.3913  0.1315 -0.4590
  752MOL0     H 1502   3.359   7.313   0.340  2.2174  0.8413 -0.2988
  752MOL0     H 1503   3.505   7.134   0.429  0.6514  0.6855  0.2548
  752MOL0     H 1504   4.839   6.582   1.070 -1.6322  0.8494  0.3028
  752MOL0     H 1505   5.075   6.588   1.195  2.3122  1.5919  1.7724
  752MOL0     H 1506   5.386   6.664   1.257  0.1928  1.6495 -0.1210
  752MOL0     H 1507   5.608   6.571   1.293 -4.1745 -1.6910 -0.8188
  752MOL0     H 1508   5.876   6.609   1.378 -0.9765  0.9375  0.6902
  752MOL0     H 1509   5.797   6.452   1.422 -2.4002  0.3875  1.2574
  752MOL0     H 1510   6.010   6.605   1.575 -0.7342  2.4277 -3.3161
  752MOL0     H 1511   6.034   6.454   1.484  0.2567  0.3361  0.7850
  752MOL0     H 1512   5.886   6.311   1.607  2.1994  0.6208 -3.7434
  752MOL0     H 1513   5.849   6.434   1.719 -1.4289 -1.9619 -1.0922
  752MOL0     H 1514   6.109   6.297   1.661  0.6188  0.3768 -0.0192
  752MOL0     H 1515   6.103   6.439   1.774 -1.6957  1.5369 -1.6373
  752MOL0     H 1516   5.900   6.083   1.948  1.6240 -0.9419 -0.5461
  752MOL0     H 1517   5.610   6.779   1.674  3.0289 -6.2773  0.1398
  752MOL0     H 1518   5.396   6.993   1.659 -1.0106  0.1316 -2.0344
  752MOL0     H 1519   5.266   6.874   1.681 -0.8243  2.2763  1.1035
  752MOL0     H 1520   5.407   6.843   1.768  2.2454 -0.3194 -1.3205
  753MOL0     O 1521   2.482   1.487   0.931 -0.7488  0.2986 -0.4794
  753MOL0     C 1522   2.399   1.559   0.891 -0.2421  1.0458 -0.3163
  753MOL0     O 1523   2.410   1.689   0.878 -0.9078  0.5071 -0.2989
  753MOL0     C 1524   2.520   1.765   0.923  0.3516  0.1166  0.1037
  753MOL0     C 1525   2.571   1.867   0.844  0.0632  0.6288 -0.4260
  753MOL0     C 1526   2.678   1.951   0.895  0.3601 -0.7123  0.1653
  753MOL0     C 1527   2.740   1.918   1.021 -0.3935 -0.4388  0.1955
  753MOL0     O 1528   2.844   1.990   1.078 -0.5951  0.2332  0.2733
  753MOL0     C 1529   2.840   2.131   1.080  1.3650 -0.2046  0.5041
  753MOL0     C 1530   2.906   2.177   1.212  0.2371  0.8278  0.0956
  753MOL0     C 1531   2.881   2.088   1.337 -0.8399 -0.2327 -0.0535
  753MOL0     C 1532   2.743   2.113   1.387  1.1222  0.2245  0.2246
  753MOL0     C 1533   2.682   2.001   1.475 -0.1639 -0.3526 -0.4599
  753MOL0     C 1534   2.763   1.963   1.598  0.0656 -0.2581  0.2041
  753MOL0     C 1535   2.744   1.823   1.652  0.5912  0.0324 -0.2402
  753MOL0     C 1536   2.814   1.710   1.580 -0.8233  0.4034 -0.4174
  753MOL0     N 1537   2.960   1.734   1.577 -0.7266 -0.4439  0.0024
  753MOL0     C 1538   3.029   1.760   1.457 -0.5625  0.2581 -0.1597
  753MOL0     C 1539   3.152   1.803   1.496  0.0335 -0.9046 -0.2654
  753MOL0     C 1540   3.247   1.837   1.393  0.3944  0.0047  0.4609
  753MOL0     C 1541   3.256   1.977   1.339  0.1968  0.4576  0.0737
  753MOL0     C 1542   3.308   2.078   1.443  0.5565  1.2171  0.2089
  753MOL0     C 1543   3.378   2.198   1.382  0.2681 -0.1060 -0.0312
  753MOL0     O 1544   3.275   2.274   1.312  0.7131 -0.3817  0.2126
  753MOL0     C 1545   3.258   2.411   1.331 -0.6495  0.5327 -1.0711
  753MOL0     C 1546   3.135   2.472   1.351 -0.6981  0.8176  0.1451
  753MOL0     C 1547   3.137   2.610   1.380  0.1599  0.0990 -0.6316
  753MOL0     C 1548   3.257   2.681   1.386 -0.0844  0.1432 -0.0514
  753MOL0     C 1549   3.265   2.831   1.413  0.1059 -0.7379  0.7816
  753MOL0     O 1550   3.388   2.878   1.437  0.2686  0.0053 -0.1815
  753MOL0     C 1551   3.391   3.007   1.490  0.4243  0.0783  0.3405
  753MOL0     C 1552   3.452   3.121   1.430 -0.0832  0.6787  0.2201
  753MOL0     C 1553   3.473   3.246   1.492 -0.0099 -0.1613  0.4134
  753MOL0     C 1554   3.435   3.272   1.623  0.1522  0.2333  0.1140
  753MOL0     O 1555   3.435   3.397   1.672  0.4794  1.1397  0.6141
  753MOL0     C 1556   3.342   3.442   1.777  0.0770 -0.5154  0.3671
  753MOL0     C 1557   3.370   3.589   1.829 -0.2127  0.3612 -0.1659
  753MOL0     C 1558   3.514   3.628   1.796 -0.0096  0.4639 -0.1796
  753MOL0     C 1559   3.568   3.764   1.854 -0.1929 -0.5331 -1.5251
  753MOL0     C 1560   3.696   3.802   1.786 -0.2490 -0.0118  0.0928
  753MOL0     C 1561   3.822   3.723   1.840 -0.3353  0.0200 -1.0091
  753MOL0     C 1562   3.943   3.722   1.738  0.1579  0.8169  0.1742
  753MOL0     C 1563   4.006   3.862   1.730  0.9395  0.9569 -0.2090
  753MOL0    Cl 1564   4.146   3.843   1.605 -0.0908  0.0216  0.1239
  753MOL0     C 1565   3.368   3.168   1.690 -0.0906 -0.1816 -0.2224
  753MOL0     C 1566   3.344   3.037   1.614  0.2578 -0.3216 -1.3557
  753MOL0     O 1567   3.162   2.901   1.422 -0.1707  0.5204  0.6267
  753MOL0     C 1568   3.374   2.615   1.365 -0.3739 -0.0395  0.3878
  753MOL0     C 1569   3.373   2.479   1.334  0.5567 -0.4457 -0.3868
  753MOL0     N 1570   3.162   1.795   1.635  0.3926 -1.0750  0.7438
  753MOL0     N 1571   3.043   1.755   1.680 -0.3738 -0.3875 -0.3533
  753MOL0     C 1572   2.687   1.809   1.097 -0.3661 -0.8050 -0.9356
  753MOL0     C 1573   2.579   1.737   1.045 -0.1496  1.0987  0.3893
  753MOL0     C 1574   2.276   1.490   0.852 -0.4201  0.0405  1.3147
  753MOL0     C 1575   2.169   1.566   0.798 -0.2861  0.0029 -0.8209
  753MOL0     C 1576   2.044   1.504   0.756  0.0153 -0.3059 -0.3977
  753MOL0     C 1577   2.024   1.372   0.767 -0.5948 -0.1789  0.4530
  753MOL0     O 1578   1.908   1.304   0.739 -0.2504 -0.1725 -0.3658
  753MOL0     C 1579   1.862   1.301   0.602  0.8214  0.3060  0.5095
  753MOL0     C 1580   1.827   1.158   0.573 -0.3948  0.1504  0.5671
  753MOL0     C 1581   1.960   1.072   0.563  0.2137 -0.0586  0.2129
  753MOL0     C 1582   1.942   0.930   0.515  0.5144  0.0427  1.5215
  753MOL0     C 1583   1.876   0.853   0.629 -0.2771 -0.3235 -0.2330
  753MOL0     C 1584   1.824   0.803   0.725 -0.0692  0.2143 -0.1364
  753MOL0     C 1585   2.123   1.300   0.830  0.3523 -0.4815 -0.1233
  753MOL0     C 1586   2.248   1.344   0.871 -0.6437 -0.7746  0.7147
  753MOL0     C 1587   2.345   1.240   0.933 -0.3389 -0.2278 -0.4301
  753MOL0     H 1588   2.534   1.888   0.744 -0.8807 -0.0655 -0.2337
  753MOL0     H 1589   2.714   2.035   0.836 -4.2705  0.3203 -1.5590
  753MOL0     H 1590   2.903   2.166   0.997  2.7599 -0.9475  1.2149
  753MOL0     H 1591   2.740   2.175   1.076  0.7944 -1.1234  2.7852
  753MOL0     H 1592   2.852   2.270   1.233 -0.5062  0.1204  1.4599
  753MOL0     H 1593   3.014   2.188   1.198  0.1125  1.4290 -0.4126
  753MOL0     H 1594   2.943   2.117   1.423 -1.7596 -1.0425  0.9144
  753MOL0     H 1595   2.898   1.981   1.320 -1.5541 -0.0426 -2.3133
  753MOL0     H 1596   2.736   2.209   1.439  0.0655  0.9631 -1.2146
  753MOL0     H 1597   2.686   2.132   1.296  2.4103  0.6353 -0.5146
  753MOL0     H 1598   2.580   2.033   1.499 -0.8620  1.4222 -4.7182
  753MOL0     H 1599   2.680   1.914   1.409  0.3887  0.1779 -1.2023
  753MOL0     H 1600   2.871   1.982   1.591  0.3578 -2.0609 -0.5196
  753MOL0     H 1601   2.721   2.027   1.677 -1.1877 -1.0591  0.2040
  753MOL0     H 1602   2.637   1.800   1.640 -1.2117  5.5582  2.1413
  753MOL0     H 1603   2.772   1.812   1.757 -1.6177 -2.2704  0.2196
  753MOL0     H 1604   2.800   1.615   1.633 -0.5878  0.6415  0.0767
  753MOL0     H 1605   2.774   1.698   1.478 -1.0972  1.4100 -0.4356
  753MOL0     H 1606   2.993   1.738   1.357  1.6773  0.2192 -1.0129
  753MOL0     H 1607   3.342   1.815   1.443 -2.4786 -2.4916  5.6915
  753MOL0     H 1608   3.242   1.771   1.306 -1.9844 -0.4243  0.8555
  753MOL0     H 1609   3.324   1.989   1.255  1.1562 -2.3374  0.3452
  753MOL0     H 1610   3.158   2.005   1.298  0.4553  1.2814  0.0104
  753MOL0     H 1611   3.385   2.026   1.502  0.4141 -1.0839 -1.5151
  753MOL0     H 1612   3.231   2.107   1.515 -0.2100 -0.7486  0.2412
  753MOL0     H 1613   3.451   2.163   1.309  0.3377 -1.5564  0.7021
  753MOL0     H 1614   3.426   2.257   1.461 -1.6885 -0.7121  1.6931
  753MOL0     H 1615   3.047   2.413   1.331 -1.2318  1.2855  1.0817
  753MOL0     H 1616   3.044   2.666   1.387  1.3952  2.1581  0.0965
  753MOL0     H 1617   3.483   3.125   1.326 -4.4417  2.8519 -1.2453
  753MOL0     H 1618   3.504   3.337   1.441 -1.0175  0.3637  0.7112
  753MOL0     H 1619   3.240   3.449   1.737  0.5462  1.2788 -0.6101
  753MOL0     H 1620   3.356   3.375   1.862  3.9881  2.1924  2.1768
  753MOL0     H 1621   3.299   3.653   1.777 -0.5143  0.7429  0.6957
  753MOL0     H 1622   3.346   3.587   1.936  0.0353 -2.1788 -0.0909
  753MOL0     H 1623   3.570   3.539   1.826 -2.7307 -0.9542  1.0964
  753MOL0     H 1624   3.511   3.646   1.688 -1.0428 -2.0391 -0.6414
  753MOL0     H 1625   3.580   3.756   1.963  0.7739  0.5446 -1.5411
  753MOL0     H 1626   3.498   3.845   1.831 -1.4768 -1.0944  0.1238
  753MOL0     H 1627   3.713   3.909   1.799 -1.2411  0.7466 -3.6150
  753MOL0     H 1628   3.696   3.781   1.678  1.2170 -1.3160  0.3063
  753MOL0     H 1629   3.856   3.763   1.936 -1.6875 -1.6324  0.2229
  753MOL0     H 1630   3.790   3.622   1.864 -2.4888  0.9541  0.3829
  753MOL0     H 1631   3.908   3.700   1.637 -1.0718  2.7679  0.1217
  753MOL0     H 1632   4.019   3.644   1.745 -1.5922 -0.9327  0.7554
  753MOL0     H 1633   3.933   3.938   1.700 -0.5349 -0.5381 -0.5195
  753MOL0     H 1634   4.053   3.894   1.824  1.5428 -0.5910  0.0474
  753MOL0     H 1635   3.333   3.193   1.789  1.9760  6.2944 -0.6529
  753MOL0     H 1636   3.290   2.959   1.667  1.4303 -0.9437 -1.0386
  753MOL0     H 1637   3.468   2.666   1.350 -0.3089 -0.4538 -0.7521
  753MOL0     H 1638   3.465   2.429   1.306  1.1273  0.0706  0.5040
  753MOL0     H 1639   2.736   1.807   1.194 -0.0521  1.7781 -0.9730
  753MOL0     H 1640   2.532   1.659   1.104  0.6745 -0.0854 -0.4840
  753MOL0     H 1641   2.167   1.673   0.784 -1.2231 -0.1165 -1.7838
  753MOL0     H 1642   1.974   1.576   0.716  2.1911  1.4364 -1.2915
  753MOL0     H 1643   1.931   1.345   0.530 -0.0208  1.5215  0.4238
  753MOL0     H 1644   1.775   1.367   0.602 -0.0861 -0.8535 -0.0440
  753MOL0     H 1645   1.774   1.154   0.477  0.7132 -1.1044 -0.0224
  753MOL0     H 1646   1.755   1.122   0.647  0.6240 -2.6404  0.3107
  753MOL0     H 1647   2.011   1.072   0.659 -0.3706 -2.0571  0.5786
  753MOL0     H 1648   2.021   1.125   0.489  0.8512  0.6308  1.2034
  753MOL0     H 1649   1.860   0.928   0.443 -0.9152  0.0814  3.0937
  753MOL0     H 1650   2.036   0.882   0.486  1.8367  2.9086  0.7058
  753MOL0     H 1651   1.763   0.765   0.804  0.4125  2.6365  1.5022
  753MOL0     H 1652   2.094   1.196   0.839 -4.0241  0.7086  1.9688
  753MOL0     H 1653   2.442   1.239   0.882 -0.7645  2.1417 -1.4038
  753MOL0     H 1654   2.366   1.258   1.039  2.8678  3.0902 -1.3859
  753MOL0     H 1655   2.308   1.137   0.928 -2.4840  0.5709 -2.6999
  754MOL0     O 1656   6.113   2.049  10.884  0.6801  0.2995  0.7238
  754MOL0     C 1657   6.153   2.020  10.772  0.0835  0.3076 -0.4035
  754MOL0     O 1658   6.273   1.975  10.751 -0.7104  0.7285  0.1411
  754MOL0     C 1659   6.369   1.965  10.857 -1.1173 -0.2831  0.4460
  754MOL0     C 1660   6.392   2.066  10.949 -0.2826 -0.2648  0.2927
  754MOL0     C 1661   6.503   2.050  11.031  1.1695 -0.3159  0.0101
  754MOL0     C 1662   6.579   1.935  11.033 -0.2680  0.0281  0.4773
  754MOL0     O 1663   6.688   1.935  11.119 -0.4204  0.6514  0.1909
  754MOL0     C 1664   6.649   1.885  11.246 -0.1218 -0.4154 -0.0886
  754MOL0     C 1665   6.619   1.742  11.252  0.2416 -0.1768 -0.1786
  754MOL0     C 1666   6.475   1.702  11.230  0.0120 -0.0021  0.3199
  754MOL0     C 1667   6.391   1.667  11.354 -0.3650 -0.1444 -0.2961
  754MOL0     C 1668   6.390   1.776  11.460 -0.4697 -0.0409  0.9587
  754MOL0     C 1669   6.295   1.762  11.586 -0.1512 -0.1227 -0.4208
  754MOL0     C 1670   6.329   1.869  11.692 -0.9053  0.2732  0.0212
  754MOL0     C 1671   6.470   1.846  11.771 -1.2714  0.4399  0.2140
  754MOL0     N 1672   6.484   1.944  11.879 -0.9020  0.1862 -0.2597
  754MOL0     C 1673   6.388   1.961  11.974  0.0795  0.3027 -0.8776
  754MOL0     C 1674   6.426   2.072  12.048  0.6767  1.1193 -0.2690
  754MOL0     C 1675   6.356   2.125  12.167  0.7655 -0.2377  0.2375
  754MOL0     C 1676   6.229   2.202  12.117 -1.3987 -0.1926 -0.1160
  754MOL0     C 1677   6.158   2.271  12.236  0.9598  0.1084  0.4416
  754MOL0     C 1678   6.210   2.403  12.258 -0.1412 -0.0087  0.2868
  754MOL0     O 1679   6.189   2.490  12.147 -0.2152 -0.6049  0.1206
  754MOL0     C 1680   6.229   2.622  12.158 -0.3569  0.2298 -0.2609
  754MOL0     C 1681   6.188   2.710  12.057 -0.0026  0.8213 -0.3925
  754MOL0     C 1682   6.224   2.850  12.057  0.0100  0.8046  0.2755
  754MOL0     C 1683   6.307   2.897  12.156  0.5747 -0.2381 -0.0001
  754MOL0     C 1684   6.360   3.035  12.160  0.9504  1.1364  0.2383
  754MOL0     O 1685   6.376   3.068  12.293 -0.6538  0.6673 -0.0413
  754MOL0     C 1686   6.407   3.188  12.341  0.0593 -0.8486  0.5041
  754MOL0     C 1687   6.377   3.200  12.475  0.1958  0.1753 -0.3844
  754MOL0     C 1688   6.404   3.318  12.547  0.2720  0.3578 -0.1188
  754MOL0     C 1689   6.464   3.423  12.482 -0.2995 -0.5586 -1.1483
  754MOL0     O 1690   6.496   3.543  12.547  0.1142  0.1967  0.2816
  754MOL0     C 1691   6.484   3.545  12.693  0.2728  0.2766  0.1602
  754MOL0     C 1692   6.519   3.680  12.751 -0.4227 -0.2263 -0.2266
  754MOL0     C 1693   6.679   3.702  12.746 -0.3703  0.1205 -0.2863
  754MOL0     C 1694   6.748   3.733  12.609  0.0826 -0.2395 -1.1621
  754MOL0     C 1695   6.898   3.754  12.641  0.0492 -0.1258  1.1209
  754MOL0     C 1696   6.977   3.812  12.519  0.8034  0.2620  0.4040
  754MOL0     C 1697   7.123   3.822  12.538 -1.3799  0.0117 -0.0455
  754MOL0     C 1698   7.175   3.931  12.637  0.2378 -0.0801 -0.3690
  754MOL0    Cl 1699   7.140   4.104  12.590 -0.1971 -0.3816 -0.0867
  754MOL0     C 1700   6.499   3.411  12.345  0.4441  0.4960 -0.1871
  754MOL0     C 1701   6.472   3.294  12.277  0.3211  0.2820  0.3731
  754MOL0     O 1702   6.393   3.092  12.058  0.3334  0.5215  0.5964
  754MOL0     C 1703   6.358   2.804  12.257  0.1582  0.5010  0.3604
  754MOL0     C 1704   6.310   2.674  12.257  0.0320  0.5686 -0.6439
  754MOL0     N 1705   6.561   2.097  12.017  0.5549 -0.5549 -0.8973
  754MOL0     N 1706   6.590   2.031  11.911 -0.4899 -0.1419 -0.0918
  754MOL0     C 1707   6.558   1.834  10.938 -0.0163 -0.3690  1.1069
  754MOL0     C 1708   6.455   1.853  10.849  0.4375  0.4223 -0.4830
  754MOL0     C 1709   6.051   2.009  10.663 -0.0916  0.6919  0.0109
  754MOL0     C 1710   6.092   1.943  10.545  1.8791  0.6752 -0.9434
  754MOL0     C 1711   6.005   1.924  10.441  0.3744  0.2709 -0.4291
  754MOL0     C 1712   5.875   1.981  10.445  0.0470  0.5962  0.3236
  754MOL0     O 1713   5.801   1.955  10.333 -0.1333 -0.0241 -0.1998
  754MOL0     C 1714   5.852   1.937  10.201  0.4737 -0.1314  0.2926
  754MOL0     C 1715   5.916   2.074  10.159  0.1408 -0.3704  0.0594
  754MOL0     C 1716   5.844   2.203  10.180  0.3177  0.3387 -0.5135
  754MOL0     C 1717   5.921   2.335  10.153  0.6099  0.1039  0.7617
  754MOL0     C 1718   5.935   2.333  10.010 -0.4847  0.1447  0.2828
  754MOL0     C 1719   5.938   2.341   9.884 -0.1144  0.5783  0.0354
  754MOL0     C 1720   5.837   2.044  10.553 -0.0367 -0.1910  0.1849
  754MOL0     C 1721   5.911   2.049  10.677  0.2042 -0.6624  0.9410
  754MOL0     C 1722   5.843   2.115  10.800  0.1785  0.7075 -0.5595
  754MOL0     H 1723   6.336   2.159  10.938  0.5234 -0.0649 -3.9024
  754MOL0     H 1724   6.519   2.131  11.102 -1.8422  2.1943 -1.8922
  754MOL0     H 1725   6.731   1.909  11.314  1.0341 -1.6307 -0.9928
  754MOL0     H 1726   6.572   1.951  11.287 -0.8659  0.9282 -3.3633
  754MOL0     H 1727   6.645   1.703  11.351  1.9259  0.5722 -0.2881
  754MOL0     H 1728   6.695   1.696  11.188  0.5559  2.4045 -1.8171
  754MOL0     H 1729   6.461   1.623  11.157  2.7374  0.6282 -1.0069
  754MOL0     H 1730   6.427   1.790  11.185  0.0006 -0.7308 -1.1236
  754MOL0     H 1731   6.285   1.647  11.339  0.1889 -4.5749  0.3565
  754MOL0     H 1732   6.431   1.570  11.383 -0.7431 -0.4196 -0.6894
  754MOL0     H 1733   6.493   1.787  11.493  0.7404 -0.7902 -2.2419
  754MOL0     H 1734   6.377   1.873  11.411 -1.5346 -0.0430  1.2075
  754MOL0     H 1735   6.192   1.787  11.560  0.6556  5.2410  0.3870
  754MOL0     H 1736   6.300   1.660  11.624  1.1797  0.8487  2.3140
  754MOL0     H 1737   6.240   1.861  11.755  0.6566 -2.1403  2.1336
  754MOL0     H 1738   6.329   1.968  11.646 -0.6241 -0.1763 -0.9879
  754MOL0     H 1739   6.473   1.740  11.799  1.5973  0.8085  1.6486
  754MOL0     H 1740   6.554   1.855  11.701 -0.8877 -2.1207  0.2406
  754MOL0     H 1741   6.295   1.905  11.982 -1.6590  2.9175 -1.5079
  754MOL0     H 1742   6.326   2.043  12.232  0.6863  0.2107  0.7776
  754MOL0     H 1743   6.427   2.192  12.217 -1.7695  0.9467  2.4876
  754MOL0     H 1744   6.268   2.260  12.033  2.0887 -5.3922 -2.6058
  754MOL0     H 1745   6.169   2.124  12.068 -3.4788  1.5257 -0.4369
  754MOL0     H 1746   6.155   2.215  12.330 -0.1121  0.2244  0.4947
  754MOL0     H 1747   6.053   2.284  12.206  1.6484  2.9939 -1.1494
  754MOL0     H 1748   6.318   2.392  12.275  0.2065  0.4841 -1.4136
  754MOL0     H 1749   6.163   2.453  12.343  0.6114 -1.7412  1.7963
  754MOL0     H 1750   6.122   2.686  11.973 -0.5523  2.8910 -0.6209
  754MOL0     H 1751   6.184   2.922  11.987 -0.9855 -0.0948 -0.1038
  754MOL0     H 1752   6.343   3.113  12.530 -1.1002  0.7906 -0.1760
  754MOL0     H 1753   6.385   3.316  12.654 -2.8682  2.6932 -0.5050
  754MOL0     H 1754   6.380   3.524  12.719  1.4637 -0.9298  4.9030
  754MOL0     H 1755   6.551   3.475  12.744  0.0480  1.9691  3.0390
  754MOL0     H 1756   6.467   3.756  12.692 -0.3529 -0.6451 -0.8409
  754MOL0     H 1757   6.492   3.692  12.856 -0.0552 -1.4922  0.0283
  754MOL0     H 1758   6.694   3.785  12.815  1.6835  1.7639 -2.5588
  754MOL0     H 1759   6.720   3.615  12.798 -2.6194 -0.7310  0.1733
  754MOL0     H 1760   6.701   3.825  12.572 -2.9130 -2.4115 -3.2220
  754MOL0     H 1761   6.726   3.659  12.532  0.5707  0.2589 -1.7881
  754MOL0     H 1762   6.947   3.662  12.674  1.0939 -0.3669 -0.9558
  754MOL0     H 1763   6.906   3.826  12.723 -0.3288 -0.3927  1.3922
  754MOL0     H 1764   6.967   3.737  12.439  1.9955  0.5351 -0.0259
  754MOL0     H 1765   6.948   3.912  12.487  2.9884  0.4137 -1.3592
  754MOL0     H 1766   7.161   3.846  12.438 -2.2828  0.5620 -0.2636
  754MOL0     H 1767   7.170   3.729  12.573  1.0240  1.8340  1.8951
  754MOL0     H 1768   7.122   3.912  12.731  3.6484 -2.1536  1.3450
  754MOL0     H 1769   7.281   3.911  12.657 -0.6868 -1.1751  5.0367
  754MOL0     H 1770   6.537   3.489  12.280 -1.8522  1.1666 -0.8084
  754MOL0     H 1771   6.516   3.285  12.179 -3.4621  3.5822 -1.9127
  754MOL0     H 1772   6.425   2.829  12.339 -1.7294  2.6538  1.3617
  754MOL0     H 1773   6.350   2.614  12.337 -0.4975  2.1944  0.9048
  754MOL0     H 1774   6.639   1.764  10.921  1.5384  1.8529 -1.8060
  754MOL0     H 1775   6.431   1.784  10.769  0.0390  0.4886 -0.4235
  754MOL0     H 1776   6.190   1.898  10.529  2.4965  2.3476 -2.2066
  754MOL0     H 1777   6.038   1.871  10.353  0.1689 -1.2339  0.3537
  754MOL0     H 1778   5.771   1.907  10.134  2.0186  1.0885 -2.3046
  754MOL0     H 1779   5.935   1.867  10.189  1.1285  0.3378  1.7992
  754MOL0     H 1780   5.946   2.060  10.055  0.6573 -2.8025  0.4699
  754MOL0     H 1781   6.009   2.078  10.216  1.0936 -0.8925 -1.4190
  754MOL0     H 1782   5.821   2.225  10.285 -1.6341 -0.8848 -0.6225
  754MOL0     H 1783   5.752   2.211  10.121  0.6322  4.1518 -0.7066
  754MOL0     H 1784   5.865   2.426  10.176 -2.2734 -0.7664 -2.0889
  754MOL0     H 1785   6.013   2.345  10.210  0.7454 -0.5890  0.6760
  754MOL0     H 1786   5.967   2.327   9.782  0.4916 -2.7941  0.5361
  754MOL0     H 1787   5.735   2.080  10.557 -0.1042 -0.5036  3.0945
  754MOL0     H 1788   5.898   2.203  10.835 -1.4604  0.5842  2.7398
  754MOL0     H 1789   5.736   2.127  10.780 -0.3428 -1.3574  0.6297
  754MOL0     H 1790   5.854   2.044  10.884  1.8742  3.5378  1.8057
  755MOL0     O 1791   6.142   0.768   9.595  0.1457  0.5350  0.1402
  755MOL0     C 1792   6.048   0.687   9.557 -0.2439  0.2321  0.4329
  755MOL0     O 1793   6.047   0.550   9.583 -0.7027  0.2794 -0.4840
  755MOL0     C 1794   6.123   0.503   9.690 -0.0453  0.1144  0.6360
  755MOL0     C 1795   6.263   0.509   9.684 -1.3999 -0.5711 -1.0292
  755MOL0     C 1796   6.352   0.454   9.780 -0.3761  0.2680  0.4889
  755MOL0     C 1797   6.297   0.368   9.879  0.1880 -0.5338  0.1042
  755MOL0     O 1798   6.359   0.307   9.983 -0.0250  0.0447 -0.0578
  755MOL0     C 1799   6.495   0.271   9.967 -0.2345  0.2621 -0.2149
  755MOL0     C 1800   6.596   0.369  10.026 -0.5242 -1.0336  0.0528
  755MOL0     C 1801   6.740   0.327  10.014  0.2547 -0.1427 -0.1330
  755MOL0     C 1802   6.829   0.446  10.042  0.0918 -0.9221 -1.2477
  755MOL0     C 1803   6.823   0.508  10.182 -0.1414 -0.9570 -0.0015
  755MOL0     C 1804   6.825   0.419  10.302  0.6086 -0.6706  0.4664
  755MOL0     C 1805   6.947   0.324  10.312  0.6228 -0.6223  0.5651
  755MOL0     C 1806   7.085   0.392  10.326  0.0483  0.7354  0.8900
  755MOL0     N 1807   7.118   0.453  10.446  0.1749 -0.7382 -0.1206
  755MOL0     C 1808   7.234   0.514  10.449  0.1242  0.0244 -0.3002
  755MOL0     C 1809   7.228   0.604  10.553 -0.9841  0.7512  1.0854
  755MOL0     C 1810   7.345   0.693  10.596  0.8039 -0.2311 -0.3909
  755MOL0     C 1811   7.385   0.807  10.493 -0.3430 -0.1941  0.0095
  755MOL0     C 1812   7.279   0.923  10.483 -0.0346  0.2271 -0.8492
  755MOL0     C 1813   7.346   1.059  10.516  0.3193  0.2793  0.4131
  755MOL0     O 1814   7.469   1.085  10.442 -0.1377 -0.3709 -0.2843
  755MOL0     C 1815   7.518   1.217  10.443  0.1985 -0.8230  0.2480
  755MOL0     C 1816   7.591   1.253  10.331 -0.7573  0.2397 -0.9251
  755MOL0     C 1817   7.659   1.380  10.317  0.2514  0.5419 -0.0897
  755MOL0     C 1818   7.617   1.480  10.408 -0.3837 -0.2579 -0.2843
  755MOL0     C 1819   7.688   1.616  10.410 -0.6436 -0.2429  0.3422
  755MOL0     O 1820   7.656   1.708  10.509  0.2202 -0.2020 -0.3516
  755MOL0     C 1821   7.701   1.835  10.504  0.5967 -0.0738  0.1285
  755MOL0     C 1822   7.734   1.910  10.621 -0.3211 -0.2949  0.1205
  755MOL0     C 1823   7.771   2.046  10.608 -0.3634 -0.3081 -0.2286
  755MOL0     C 1824   7.750   2.115  10.485 -0.0684  0.8478  0.0770
  755MOL0     O 1825   7.783   2.242  10.453 -0.0517  0.4071  0.4869
  755MOL0     C 1826   7.896   2.301  10.511 -1.0530  0.1035 -0.3716
  755MOL0     C 1827   7.988   2.359  10.405  0.5700 -0.1215 -0.9991
  755MOL0     C 1828   8.061   2.478  10.465 -0.9229 -0.3116  0.1271
  755MOL0     C 1829   8.154   2.530  10.360 -0.4207 -0.6097 -0.0952
  755MOL0     C 1830   8.253   2.635  10.422  0.0057 -0.7008  0.4252
  755MOL0     C 1831   8.357   2.573  10.522  0.4528 -0.1598 -0.0907
  755MOL0     C 1832   8.445   2.462  10.465 -0.7497 -0.3758 -0.3833
  755MOL0     C 1833   8.584   2.464  10.533  0.5072  0.1311 -0.6339
  755MOL0    Cl 1834   8.607   2.306  10.594  0.3870  0.5843  0.0660
  755MOL0     C 1835   7.703   2.040  10.380  0.1216 -0.5428 -0.1435
  755MOL0     C 1836   7.679   1.910  10.386 -1.0352  1.1116 -0.6803
  755MOL0     O 1837   7.782   1.629  10.336 -0.8427  0.2333  0.2132
  755MOL0     C 1838   7.527   1.448  10.518 -0.3621 -0.3898  0.0406
  755MOL0     C 1839   7.486   1.319  10.536  0.6096  1.2707 -0.1190
  755MOL0     N 1840   7.105   0.571  10.615  0.3665 -2.1855 -0.5707
  755MOL0     N 1841   7.038   0.488  10.550 -0.2003 -0.4179 -0.0132
  755MOL0     C 1842   6.159   0.354   9.889  1.5243 -0.3922 -0.0997
  755MOL0     C 1843   6.070   0.423   9.790  0.1307 -0.0767  0.2978
  755MOL0     C 1844   5.932   0.727   9.468 -0.4193  0.8338 -0.6681
  755MOL0     C 1845   5.804   0.681   9.515  0.1666 -0.1310  0.2217
  755MOL0     C 1846   5.683   0.723   9.453 -0.8657 -0.1317 -0.4606
  755MOL0     C 1847   5.696   0.824   9.349 -0.1994 -0.8158 -0.9981
  755MOL0     O 1848   5.583   0.882   9.298 -0.1156  0.1975  0.1310
  755MOL0     C 1849   5.552   0.840   9.165 -0.2242 -0.1225  0.7839
  755MOL0     C 1850   5.432   0.906   9.097  0.4737 -0.9867  0.1590
  755MOL0     C 1851   5.444   0.926   8.946 -0.2171  0.1672 -0.4550
  755MOL0     C 1852   5.543   1.036   8.894 -0.1672  0.1869 -0.6280
  755MOL0     C 1853   5.514   1.163   8.973  0.1589  0.0970 -0.8123
  755MOL0     C 1854   5.492   1.266   9.032  0.0527  0.7516 -0.5543
  755MOL0     C 1855   5.823   0.872   9.312  0.3657 -0.3383  0.3374
  755MOL0     C 1856   5.944   0.821   9.365 -0.4886 -1.4100 -0.1436
  755MOL0     C 1857   6.071   0.867   9.306 -0.2750  0.5061 -0.3771
  755MOL0     H 1858   6.303   0.573   9.606  0.7684 -1.4735 -0.7072
  755MOL0     H 1859   6.456   0.483   9.786 -0.9296  2.5230  0.2980
  755MOL0     H 1860   6.506   0.172  10.013 -0.3209  0.2505 -0.2180
  755MOL0     H 1861   6.505   0.243   9.862 -2.4864 -2.7849  0.2213
  755MOL0     H 1862   6.586   0.381  10.134 -0.1700 -1.2902  0.1169
  755MOL0     H 1863   6.573   0.470   9.989 -1.7372 -0.8501  1.2475
  755MOL0     H 1864   6.753   0.283   9.914  0.4513 -2.3443  0.8096
  755MOL0     H 1865   6.766   0.245  10.081  1.2120 -0.4890 -0.9021
  755MOL0     H 1866   6.935   0.423  10.027  0.2074 -2.0026  0.8712
  755MOL0     H 1867   6.799   0.532   9.981  0.0403 -0.9512 -1.2632
  755MOL0     H 1868   6.911   0.572  10.197  0.0971 -1.1072 -0.6887
  755MOL0     H 1869   6.735   0.572  10.180  0.8851  0.8866  4.0887
  755MOL0     H 1870   6.830   0.464  10.401 -3.0629  0.8508  0.1365
  755MOL0     H 1871   6.737   0.354  10.303 -0.8221  1.0771 -1.6156
  755MOL0     H 1872   6.948   0.269  10.217 -0.9378 -0.3704  0.3871
  755MOL0     H 1873   6.927   0.248  10.387 -1.5814 -1.9256 -1.2242
  755MOL0     H 1874   7.151   0.305  10.312 -0.4016  0.4488  0.5231
  755MOL0     H 1875   7.099   0.458  10.241 -0.6608 -0.6253 -0.3306
  755MOL0     H 1876   7.313   0.514  10.375  0.0887  4.2320 -0.5315
  755MOL0     H 1877   7.332   0.736  10.696  0.1656  0.3660 -0.7239
  755MOL0     H 1878   7.437   0.633  10.594  0.6907 -0.4160 -0.1860
  755MOL0     H 1879   7.485   0.849  10.508  0.8108 -2.4819 -0.7545
  755MOL0     H 1880   7.398   0.752  10.399 -3.0616  0.2556 -0.7055
  755MOL0     H 1881   7.203   0.913  10.561 -0.1291 -1.3838 -1.1081
  755MOL0     H 1882   7.225   0.920  10.387 -0.2735 -1.1876 -0.6882
  755MOL0     H 1883   7.343   1.067  10.625 -0.5159 -0.8564  0.4974
  755MOL0     H 1884   7.277   1.141  10.495  1.7244  1.0791 -1.2857
  755MOL0     H 1885   7.588   1.176  10.254 -1.1849 -1.9680  1.1905
  755MOL0     H 1886   7.723   1.414  10.236  1.4286  1.8147  1.3263
  755MOL0     H 1887   7.732   1.858  10.716 -1.1264 -0.9258 -0.2283
  755MOL0     H 1888   7.796   2.102  10.697 -3.7353  1.0530  0.0456
  755MOL0     H 1889   7.858   2.388  10.565 -0.1215  1.3120 -1.5706
  755MOL0     H 1890   7.942   2.234  10.583 -1.3574 -0.0266 -0.2977
  755MOL0     H 1891   8.068   2.290  10.377  0.1477 -1.4063  0.8482
  755MOL0     H 1892   7.934   2.400  10.319 -2.6599 -1.3367  0.3216
  755MOL0     H 1893   7.990   2.555  10.497 -0.2217  1.0644 -1.5174
  755MOL0     H 1894   8.109   2.440  10.556  1.4915  3.5667  0.6664
  755MOL0     H 1895   8.102   2.579  10.277  1.2862  0.1072 -0.7924
  755MOL0     H 1896   8.206   2.441  10.323  4.1783  0.0221  3.8417
  755MOL0     H 1897   8.199   2.718  10.468 -0.9990 -0.2144 -1.5214
  755MOL0     H 1898   8.299   2.681  10.333 -2.1081 -2.3496 -1.6396
  755MOL0     H 1899   8.402   2.662  10.568 -0.1765  0.6442 -0.9752
  755MOL0     H 1900   8.296   2.529  10.600 -1.5310  0.3130 -1.3089
  755MOL0     H 1901   8.451   2.491  10.359 -5.6129 -0.6664 -0.9679
  755MOL0     H 1902   8.396   2.365  10.470 -2.6871  0.5789  0.2118
  755MOL0     H 1903   8.659   2.494  10.459  3.3201 -1.0507  1.5538
  755MOL0     H 1904   8.592   2.537  10.614  0.2062 -1.4281  0.8724
  755MOL0     H 1905   7.671   2.094  10.292 -2.3748  1.4896  1.8490
  755MOL0     H 1906   7.645   1.852  10.300  0.6251 -1.9126  0.5432
  755MOL0     H 1907   7.487   1.523  10.586 -0.5044 -0.0711 -0.3969
  755MOL0     H 1908   7.412   1.296  10.612  0.4005 -0.8804 -0.9127
  755MOL0     H 1909   6.114   0.279   9.952  3.0256 -0.1137  1.3659
  755MOL0     H 1910   5.965   0.398   9.800  0.1047 -0.2608 -0.3905
  755MOL0     H 1911   5.804   0.623   9.606  0.3721  0.3102  0.5043
  755MOL0     H 1912   5.588   0.689   9.493 -1.0642  0.1895 -0.6475
  755MOL0     H 1913   5.523   0.735   9.162 -0.2841 -0.0889 -0.5899
  755MOL0     H 1914   5.639   0.864   9.104 -0.4771  2.7520  1.4103
  755MOL0     H 1915   5.416   1.008   9.134  1.1432 -1.4919  1.9420
  755MOL0     H 1916   5.334   0.863   9.120 -0.4545  0.3066 -1.1757
  755MOL0     H 1917   5.343   0.933   8.905 -0.5722 -1.8370 -0.0008
  755MOL0     H 1918   5.475   0.834   8.896  1.1124  0.1937  0.2742
  755MOL0     H 1919   5.643   0.995   8.912 -0.9157 -1.2645  0.3716
  755MOL0     H 1920   5.530   1.053   8.787 -0.0889 -0.6765 -0.7776
  755MOL0     H 1921   5.488   1.352   9.096 -3.0351 -0.1225  0.6507
  755MOL0     H 1922   5.827   0.937   9.225 -1.3821 -1.9956 -1.0501
  755MOL0     H 1923   6.097   0.960   9.357 -1.9016  1.1728 -0.7041
  755MOL0     H 1924   6.145   0.786   9.307 -1.9718 -1.1299 -1.2336
  755MOL0     H 1925   6.058   0.894   9.201 -4.3518  0.2662 -0.0814
  756MOL0     O 1926   7.452   8.030   6.358 -0.2224 -0.2104 -0.4808
  756MOL0     C 1927   7.417   8.129   6.423  0.3212 -0.4883 -0.5618
  756MOL0     O 1928   7.323   8.123   6.526  0.1937  0.2253  0.0073
  756MOL0     C 1929   7.233   8.024   6.526  0.1174 -0.5191  0.1342
  756MOL0     C 1930   7.217   7.952   6.644  0.9935  0.5430  0.4820
  756MOL0     C 1931   7.122   7.853   6.654 -0.1575  0.1275 -0.4264
  756MOL0     C 1932   7.038   7.819   6.543  0.0198  0.0436 -0.6045
  756MOL0     O 1933   6.947   7.715   6.551 -0.4499  0.0650  0.2116
  756MOL0     C 1934   6.954   7.627   6.668  0.1081  0.1252 -0.2452
  756MOL0     C 1935   6.857   7.508   6.629 -1.2251 -0.6192 -0.3521
  756MOL0     C 1936   6.720   7.543   6.581 -0.0077  0.7080  0.1710
  756MOL0     C 1937   6.618   7.430   6.569  0.6125 -0.4170 -0.2180
  756MOL0     C 1938   6.584   7.387   6.711 -0.6302 -1.6336  0.0551
  756MOL0     C 1939   6.462   7.291   6.730  0.5213  0.8951 -0.6798
  756MOL0     C 1940   6.501   7.154   6.683  0.4803  0.7850 -0.2269
  756MOL0     C 1941   6.372   7.066   6.680  0.3992  0.1577 -0.5552
  756MOL0     N 1942   6.302   7.061   6.548  0.1012 -0.2402 -0.0217
  756MOL0     C 1943   6.220   7.157   6.498 -0.2799  0.1998  0.4638
  756MOL0     C 1944   6.227   7.137   6.361 -1.0086  0.3906 -0.2379
  756MOL0     C 1945   6.162   7.219   6.256 -0.1652 -0.1195  0.3573
  756MOL0     C 1946   6.245   7.354   6.231  0.7766 -0.1038  0.0168
  756MOL0     C 1947   6.338   7.349   6.108  0.8742  0.6349  0.0043
  756MOL0     C 1948   6.285   7.329   5.968 -0.5147 -0.5993 -0.9369
  756MOL0     O 1949   6.176   7.416   5.939  0.3126 -0.3087  0.4004
  756MOL0     C 1950   6.119   7.384   5.819 -0.6392  0.3690 -0.8426
  756MOL0     C 1951   6.055   7.507   5.768  1.1261  0.3638 -0.7292
  756MOL0     C 1952   6.004   7.514   5.641  0.3170  0.0543  0.6162
  756MOL0     C 1953   6.009   7.402   5.552  0.0893  0.0730 -0.1153
  756MOL0     C 1954   5.956   7.403   5.412 -0.3321  0.7813 -1.0834
  756MOL0     O 1955   5.893   7.290   5.365  0.7027 -0.2693  0.1539
  756MOL0     C 1956   5.856   7.286   5.233  0.5731  0.3756 -0.7725
  756MOL0     C 1957   5.943   7.325   5.128  0.7612 -0.3764 -1.3169
  756MOL0     C 1958   5.901   7.299   5.002  0.1113 -0.0787 -0.3793
  756MOL0     C 1959   5.781   7.250   4.960 -0.4453  0.4815 -0.5981
  756MOL0     O 1960   5.757   7.240   4.818 -0.5816 -0.0742  0.2573
  756MOL0     C 1961   5.630   7.279   4.764  0.1855  0.1272 -0.2567
  756MOL0     C 1962   5.631   7.433   4.739  0.0530 -0.1522 -0.4298
  756MOL0     C 1963   5.738   7.495   4.645 -1.1157  0.1962  0.8415
  756MOL0     C 1964   5.693   7.627   4.606  1.0121  0.1850 -0.3039
  756MOL0     C 1965   5.785   7.711   4.523  0.9521 -0.5676  0.0054
  756MOL0     C 1966   5.731   7.851   4.514  0.0812  0.0267  0.9621
  756MOL0     C 1967   5.586   7.880   4.465  0.5411 -0.4439 -0.0813
  756MOL0     C 1968   5.544   8.025   4.494 -0.5640 -0.3722  0.4847
  756MOL0    Cl 1969   5.520   8.059   4.663 -0.1582 -0.0587  0.6520
  756MOL0     C 1970   5.694   7.220   5.057  0.0573 -0.0571 -0.2416
  756MOL0     C 1971   5.727   7.246   5.198 -0.4145  0.8288 -0.1085
  756MOL0     O 1972   5.975   7.508   5.347  0.1151  0.5557 -0.0539
  756MOL0     C 1973   6.063   7.282   5.605 -0.7541 -0.3767  0.7731
  756MOL0     C 1974   6.121   7.269   5.733  0.0085 -0.3617 -0.4957
  756MOL0     N 1975   6.296   7.020   6.330 -0.9344 -0.5927  0.5471
  756MOL0     N 1976   6.351   6.983   6.443  0.1721  0.7016 -0.0860
  756MOL0     C 1977   7.052   7.895   6.418 -1.4407  0.5717 -0.5415
  756MOL0     C 1978   7.160   7.984   6.408 -0.0853  0.9484  0.8884
  756MOL0     C 1979   7.487   8.260   6.403  0.6196  0.2843 -0.4496
  756MOL0     C 1980   7.428   8.378   6.461  0.0437  0.2049 -0.5473
  756MOL0     C 1981   7.490   8.505   6.439  0.0860 -0.6698 -0.2339
  756MOL0     C 1982   7.609   8.509   6.366 -0.3929  0.3589 -0.2727
  756MOL0     O 1983   7.668   8.631   6.346 -0.7777 -0.3028 -0.8175
  756MOL0     C 1984   7.662   8.675   6.214 -0.3560 -0.1704 -0.0244
  756MOL0     C 1985   7.749   8.803   6.210 -0.7341 -1.0506 -0.3566
  756MOL0     C 1986   7.672   8.930   6.257 -0.4928 -0.0931 -0.1580
  756MOL0     C 1987   7.757   9.057   6.241 -0.1426  0.0377  0.2696
  756MOL0     C 1988   7.727   9.140   6.355 -0.0825  0.7113 -0.0913
  756MOL0     C 1989   7.727   9.227   6.440  0.5745  0.2589  0.0627
  756MOL0     C 1990   7.680   8.395   6.333  0.4444 -0.0400 -0.1991
  756MOL0     C 1991   7.616   8.271   6.341  0.0063 -0.9769 -0.1061
  756MOL0     C 1992   7.694   8.162   6.273  0.5001  0.4131  0.8249
  756MOL0     H 1993   7.273   7.992   6.727  0.8542 -1.4568  1.5983
  756MOL0     H 1994   7.122   7.798   6.748  2.3033 -1.6190 -1.3395
  756MOL0     H 1995   7.053   7.585   6.691 -1.0385 -2.4014  0.4805
  756MOL0     H 1996   6.911   7.682   6.752  1.1401  1.2047 -0.3956
  756MOL0     H 1997   6.857   7.438   6.713  3.1467  0.2462  0.6269
  756MOL0     H 1998   6.908   7.452   6.550  0.8723  2.2164 -1.1315
  756MOL0     H 1999   6.736   7.584   6.481 -0.2497  0.5690  0.0735
  756MOL0     H 2000   6.678   7.626   6.638 -2.6617  0.8126 -1.7166
  756MOL0     H 2001   6.529   7.457   6.511 -1.3591 -1.7756  1.9878
  756MOL0     H 2002   6.665   7.346   6.517 -1.0525 -1.2459 -0.4592
  756MOL0     H 2003   6.667   7.331   6.755  3.2936  3.6386  0.3295
  756MOL0     H 2004   6.566   7.473   6.776  2.0094 -1.4862  0.6974
  756MOL0     H 2005   6.440   7.289   6.837 -2.1009  1.3853 -1.1526
  756MOL0     H 2006   6.373   7.330   6.679  0.4436  2.5715  0.6618
  756MOL0     H 2007   6.581   7.114   6.746 -0.2306 -3.3967 -1.6496
  756MOL0     H 2008   6.542   7.149   6.582 -1.1560  0.2323 -0.8944
  756MOL0     H 2009   6.395   6.966   6.718 -0.1437 -0.6379 -2.2126
  756MOL0     H 2010   6.291   7.114   6.736  0.4197 -1.9418  1.4104
  756MOL0     H 2011   6.177   7.242   6.549  0.5776  0.5218  0.6632
  756MOL0     H 2012   6.147   7.163   6.164 -0.5212  0.4949  0.0342
  756MOL0     H 2013   6.067   7.260   6.290 -0.2302  0.0965 -0.0707
  756MOL0     H 2014   6.171   7.427   6.196 -1.0771 -2.3327 -0.9356
  756MOL0     H 2015   6.302   7.390   6.317 -3.0558  2.4248  1.8028
  756MOL0     H 2016   6.421   7.281   6.133  0.2041 -0.3693 -0.4119
  756MOL0     H 2017   6.387   7.446   6.105  0.5261  0.8134  0.0432
  756MOL0     H 2018   6.262   7.223   5.958 -0.7120 -0.7335  0.6498
  756MOL0     H 2019   6.360   7.341   5.890 -0.7901 -1.5277 -1.3579
  756MOL0     H 2020   6.048   7.599   5.825 -1.1728 -0.6279  0.7617
  756MOL0     H 2021   5.947   7.603   5.615 -0.0782 -0.6205 -0.9289
  756MOL0     H 2022   6.040   7.373   5.138  1.7284 -1.7843 -3.1978
  756MOL0     H 2023   5.983   7.309   4.931  1.2222 -3.0958  0.3410
  756MOL0     H 2024   5.616   7.245   4.661  0.0897  1.3641 -0.6668
  756MOL0     H 2025   5.546   7.250   4.828 -1.3268  3.5986 -0.4418
  756MOL0     H 2026   5.531   7.464   4.708 -0.8521 -1.2622  1.2773
  756MOL0     H 2027   5.648   7.491   4.830 -3.1799  0.1513  0.0916
  756MOL0     H 2028   5.839   7.504   4.684  0.2225 -1.3142 -1.9716
  756MOL0     H 2029   5.749   7.431   4.557  0.9332 -1.3190  2.1103
  756MOL0     H 2030   5.662   7.684   4.694 -0.4590  0.8928 -1.2334
  756MOL0     H 2031   5.602   7.601   4.552  2.6156 -0.4888 -2.8454
  756MOL0     H 2032   5.787   7.670   4.421  1.6167  3.7894 -1.9358
  756MOL0     H 2033   5.890   7.715   4.553  1.4575  0.4833 -1.7374
  756MOL0     H 2034   5.747   7.894   4.613  3.5322 -1.6330  1.2559
  756MOL0     H 2035   5.796   7.888   4.435 -0.2379 -1.1358  0.1335
  756MOL0     H 2036   5.518   7.823   4.529  1.1895 -0.2138  0.8371
  756MOL0     H 2037   5.571   7.854   4.360 -3.5992  1.1825 -0.0607
  756MOL0     H 2038   5.599   8.104   4.442 -1.4665  0.1197  0.2371
  756MOL0     H 2039   5.445   8.030   4.446  0.7549 -0.0088 -2.3967
  756MOL0     H 2040   5.595   7.179   5.040 -0.9375  1.8357  0.6322
  756MOL0     H 2041   5.653   7.223   5.274 -0.1795 -0.2166 -0.1761
  756MOL0     H 2042   6.077   7.194   5.543 -2.0115  1.5956 -2.5952
  756MOL0     H 2043   6.157   7.171   5.762 -2.0267 -0.7456  1.0143
  756MOL0     H 2044   7.006   7.859   6.327 -0.7195 -3.1667  0.4179
  756MOL0     H 2045   7.171   8.033   6.312 -0.5366 -2.8079 -1.2949
  756MOL0     H 2046   7.337   8.368   6.519  0.2443  0.1886 -0.2368
  756MOL0     H 2047   7.434   8.594   6.466 -0.2483  0.1691 -3.3132
  756MOL0     H 2048   7.559   8.691   6.181 -0.7567  1.9438  1.9459
  756MOL0     H 2049   7.715   8.603   6.152  1.6482 -0.2014  1.6211
  756MOL0     H 2050   7.785   8.812   6.107 -0.6087 -0.7231 -0.2857
  756MOL0     H 2051   7.838   8.793   6.273 -0.6701 -1.8270 -0.5529
  756MOL0     H 2052   7.637   8.920   6.360 -1.1209  1.1824 -0.2343
  756MOL0     H 2053   7.586   8.952   6.193 -1.1511 -0.8346  0.4366
  756MOL0     H 2054   7.861   9.028   6.224 -1.2652 -2.8909 -2.9081
  756MOL0     H 2055   7.730   9.101   6.145  0.6374 -2.0482 -0.9602
  756MOL0     H 2056   7.732   9.309   6.509  0.8342 -0.2921  0.7208
  756MOL0     H 2057   7.771   8.407   6.274 -0.4264 -2.2851 -2.1869
  756MOL0     H 2058   7.771   8.191   6.200  2.1816 -1.6506  1.6814
  756MOL0     H 2059   7.739   8.106   6.355  0.7532 -0.0872  0.3485
  756MOL0     H 2060   7.631   8.092   6.218  1.4959 -0.7034  1.0737
  757MOL0     O 2061   3.351  11.217   1.282 -0.7795  0.1412 -0.6668
  757MOL0     C 2062   3.253  11.174   1.224  0.9578 -0.1567 -0.2113
  757MOL0     O 2063   3.131  11.233   1.207 -0.3574  0.0327  0.3752
  757MOL0     C 2064   3.076  11.276   1.321  0.0538 -0.1389 -0.3980
  757MOL0     C 2065   3.120  11.249   1.453  0.0106 -1.1837 -0.1520
  757MOL0     C 2066   3.060  11.314   1.563  0.1131 -0.5257 -0.6554
  757MOL0     C 2067   2.952  11.405   1.546  0.6522 -0.0358  0.2960
  757MOL0     O 2068   2.895  11.477   1.647 -0.1584 -0.2932  0.3361
  757MOL0     C 2069   2.962  11.484   1.777  0.1654  0.1091  1.0442
  757MOL0     C 2070   2.938  11.613   1.858 -0.0148 -0.1962  0.6725
  757MOL0     C 2071   2.969  11.611   2.004  0.1049 -0.1007 -0.2995
  757MOL0     C 2072   2.883  11.500   2.065 -0.0318 -0.8105  0.3178
  757MOL0     C 2073   2.893  11.507   2.220 -0.1141 -0.7157 -1.0370
  757MOL0     C 2074   2.781  11.436   2.297 -0.3041  0.0573  0.5114
  757MOL0     C 2075   2.648  11.515   2.296 -0.1684 -1.0572 -0.2023
  757MOL0     C 2076   2.555  11.487   2.414 -0.6093 -0.1495  0.1582
  757MOL0     N 2077   2.495  11.350   2.411 -0.1066  0.3543  0.1860
  757MOL0     C 2078   2.375  11.321   2.363  0.3198  0.3217  0.6358
  757MOL0     C 2079   2.363  11.188   2.375  0.2272  0.2551  0.7572
  757MOL0     C 2080   2.243  11.122   2.331 -0.2147  0.3702 -0.8250
  757MOL0     C 2081   2.112  11.158   2.404 -0.0402 -0.1914  0.4032
  757MOL0     C 2082   2.112  11.143   2.556  0.0467  0.3861  0.0114
  757MOL0     C 2083   2.190  11.246   2.642 -0.0680 -1.2943  0.5745
  757MOL0     O 2084   2.139  11.372   2.591 -0.1127  0.1276  0.3057
  757MOL0     C 2085   2.216  11.485   2.619  0.1653  0.0580  0.1367
  757MOL0     C 2086   2.325  11.497   2.707  0.1825  0.3495 -0.2277
  757MOL0     C 2087   2.394  11.611   2.719  0.3147 -0.4094  0.8587
  757MOL0     C 2088   2.360  11.719   2.630  0.2396  0.4028 -0.3467
  757MOL0     C 2089   2.434  11.848   2.636 -0.4782 -0.1116  1.1753
  757MOL0     O 2090   2.401  11.945   2.541 -0.4537  0.0070 -0.5465
  757MOL0     C 2091   2.453  12.076   2.542 -0.2822  0.6992 -0.0856
  757MOL0     C 2092   2.568  12.099   2.461 -0.2486 -0.9325  0.2750
  757MOL0     C 2093   2.632  12.224   2.463  0.3963 -0.3211 -0.7185
  757MOL0     C 2094   2.586  12.333   2.548  1.0039 -0.7903  0.0926
  757MOL0     O 2095   2.654  12.446   2.572  0.5251 -0.4274  0.3381
  757MOL0     C 2096   2.765  12.479   2.488 -0.0997  0.8263 -0.5636
  757MOL0     C 2097   2.855  12.599   2.549  0.4117  0.6924  0.2945
  757MOL0     C 2098   2.785  12.733   2.550  0.5434 -0.5419  1.0247
  757MOL0     C 2099   2.697  12.765   2.664  0.7895 -0.2943 -0.0757
  757MOL0     C 2100   2.618  12.891   2.670  0.7735  0.6528  0.3437
  757MOL0     C 2101   2.699  13.010   2.727 -0.5270 -0.8615  0.5294
  757MOL0     C 2102   2.596  13.125   2.762  0.0490  1.2053 -0.3539
  757MOL0     C 2103   2.608  13.174   2.906 -0.0122  0.4418  0.7938
  757MOL0    Cl 2104   2.599  13.030   3.025 -0.0878  0.3119  0.3863
  757MOL0     C 2105   2.460  12.310   2.617 -0.2024  1.6233  0.2123
  757MOL0     C 2106   2.402  12.179   2.619 -0.1902  0.8319 -0.2530
  757MOL0     O 2107   2.505  11.869   2.732 -0.7129  0.6425  0.3353
  757MOL0     C 2108   2.263  11.692   2.526 -0.2093  0.0064  0.0918
  757MOL0     C 2109   2.194  11.573   2.521  0.9313 -0.7605 -0.1903
  757MOL0     N 2110   2.474  11.144   2.446 -0.2211  0.4219 -0.2423
  757MOL0     N 2111   2.554  11.242   2.475 -0.3872 -1.0171  0.6748
  757MOL0     C 2112   2.907  11.427   1.412 -0.0158  0.7960  0.2793
  757MOL0     C 2113   2.969  11.368   1.303  1.1961 -0.4523  0.2286
  757MOL0     C 2114   3.264  11.043   1.158 -0.6514 -0.1435 -0.2287
  757MOL0     C 2115   3.155  10.952   1.159  0.0253 -0.4018 -0.8902
  757MOL0     C 2116   3.168  10.824   1.094 -0.4775  0.0039  0.3195
  757MOL0     C 2117   3.285  10.780   1.046 -0.0418  0.3045 -0.1583
  757MOL0     O 2118   3.289  10.648   0.987  0.1146 -0.3093  0.0441
  757MOL0     C 2119   3.419  10.591   0.948 -1.1723  1.0604 -0.2034
  757MOL0     C 2120   3.426  10.446   0.987  0.7924  0.3735 -0.0609
  757MOL0     C 2121   3.348  10.365   0.884  0.8513  0.5939 -0.3533
  757MOL0     C 2122   3.342  10.216   0.930  0.5508 -0.0385 -0.2460
  757MOL0     C 2123   3.223  10.154   0.883  0.3348 -0.4302 -0.4861
  757MOL0     C 2124   3.126  10.114   0.830  0.1274  0.2959  0.3268
  757MOL0     C 2125   3.393  10.869   1.044 -0.3148  0.0944  0.1524
  757MOL0     C 2126   3.380  11.004   1.087  0.3332  0.3262 -0.8265
  757MOL0     C 2127   3.491  11.097   1.068  0.5726  1.5481  0.1863
  757MOL0     H 2128   3.200  11.178   1.471 -2.6096 -3.9253  1.6418
  757MOL0     H 2129   3.098  11.294   1.662 -1.5789 -0.9930 -0.0552
  757MOL0     H 2130   2.934  11.389   1.825  2.8608 -1.0601  0.4833
  757MOL0     H 2131   3.070  11.468   1.768 -0.0889 -2.2590  1.3531
  757MOL0     H 2132   2.835  11.645   1.839  0.6059  0.5754 -1.8645
  757MOL0     H 2133   3.003  11.688   1.811  0.5781 -0.5357  0.9313
  757MOL0     H 2134   2.942  11.705   2.052 -3.4444 -0.7611 -0.7608
  757MOL0     H 2135   3.079  11.610   2.010  0.2486 -2.5858 -1.8452
  757MOL0     H 2136   2.779  11.511   2.034  0.0237  1.9422  0.8452
  757MOL0     H 2137   2.914  11.400   2.033 -1.4433 -1.2782  0.3225
  757MOL0     H 2138   2.982  11.461   2.265  1.5312  3.4600  0.4364
  757MOL0     H 2139   2.897  11.614   2.244 -0.3182 -0.7200 -0.9775
  757MOL0     H 2140   2.779  11.336   2.253  1.8401  0.9702 -1.9676
  757MOL0     H 2141   2.804  11.426   2.403  1.4073 -3.1234 -0.0288
  757MOL0     H 2142   2.596  11.486   2.204  2.7364  0.6805 -2.5919
  757MOL0     H 2143   2.667  11.621   2.315 -2.3576 -1.3184  5.2890
  757MOL0     H 2144   2.609  11.499   2.508 -1.9914  1.2050  0.8237
  757MOL0     H 2145   2.472  11.559   2.416  1.0144  1.7769  1.5746
  757MOL0     H 2146   2.301  11.382   2.313  1.1550 -0.2931 -1.4412
  757MOL0     H 2147   2.231  11.147   2.225  0.5211  2.6747 -0.4217
  757MOL0     H 2148   2.271  11.016   2.339 -0.7860  0.3007  0.3602
  757MOL0     H 2149   2.084  11.262   2.383  2.0755 -0.0254 -2.1214
  757MOL0     H 2150   2.021  11.109   2.369 -0.6138  0.3813  1.0587
  757MOL0     H 2151   2.146  11.039   2.566  0.4624  0.1836 -2.7649
  757MOL0     H 2152   2.011  11.166   2.591 -0.3965  3.5324 -2.8823
  757MOL0     H 2153   2.297  11.238   2.619  0.2225  1.6034  0.6040
  757MOL0     H 2154   2.174  11.243   2.750  2.3684 -1.1898  1.0023
  757MOL0     H 2155   2.362  11.415   2.768  0.8789  2.4130  2.3045
  757MOL0     H 2156   2.479  11.633   2.782  1.4073  1.4419 -1.0973
  757MOL0     H 2157   2.619  12.014   2.418  0.8922 -1.1856  2.0061
  757MOL0     H 2158   2.733  12.225   2.422  0.3635 -0.6662 -0.8131
  757MOL0     H 2159   2.831  12.392   2.490 -1.2054 -0.0316 -0.6178
  757MOL0     H 2160   2.734  12.502   2.385 -0.1705 -0.9014 -0.9618
  757MOL0     H 2161   2.894  12.585   2.650  4.2320  1.0661 -0.9734
  757MOL0     H 2162   2.942  12.605   2.483 -1.0350  0.6338 -1.7211
  757MOL0     H 2163   2.865  12.809   2.551  1.2313 -1.1606 -1.0399
  757MOL0     H 2164   2.725  12.734   2.459  1.7705 -0.4168  0.1907
  757MOL0     H 2165   2.768  12.757   2.748  2.8330 -0.0315 -1.6987
  757MOL0     H 2166   2.633  12.678   2.683  2.0395 -1.0795  0.7406
  757MOL0     H 2167   2.527  12.872   2.728 -0.7750 -0.3600 -2.2646
  757MOL0     H 2168   2.575  12.914   2.573 -2.3461  1.5031  1.7881
  757MOL0     H 2169   2.760  12.984   2.814  2.8852 -1.1276 -1.7557
  757MOL0     H 2170   2.774  13.044   2.656 -1.3900  1.2585  0.5514
  757MOL0     H 2171   2.493  13.091   2.748  0.6287 -2.7732  3.0031
  757MOL0     H 2172   2.632  13.208   2.700  2.6816  0.3063 -0.1617
  757MOL0     H 2173   2.712  13.208   2.916  0.6330 -1.5895  1.4750
  757MOL0     H 2174   2.539  13.256   2.927 -0.2042  0.6576 -0.5977
  757MOL0     H 2175   2.399  12.380   2.673 -0.6032  1.9521 -0.6186
  757MOL0     H 2176   2.318  12.157   2.684  0.7534 -3.3777 -0.1725
  757MOL0     H 2177   2.243  11.769   2.452  1.0696 -0.4808 -0.7985
  757MOL0     H 2178   2.123  11.552   2.442  0.1061  1.0051  0.0434
  757MOL0     H 2179   2.820  11.492   1.399 -1.3015 -1.1751 -1.6187
  757MOL0     H 2180   2.937  11.391   1.202  0.6567 -1.8076  0.0700
  757MOL0     H 2181   3.066  10.981   1.214  2.1356 -0.1513  2.7161
  757MOL0     H 2182   3.080  10.764   1.073 -0.4185  0.0843 -0.1556
  757MOL0     H 2183   3.510  10.636   0.988 -1.3585  2.1527 -0.9616
  757MOL0     H 2184   3.435  10.609   0.841 -0.3020  0.6195 -0.1595
  757MOL0     H 2185   3.387  10.434   1.089 -1.5005  0.9090 -0.8316
  757MOL0     H 2186   3.528  10.408   0.979  0.2492 -1.2714  0.4625
  757MOL0     H 2187   3.391  10.367   0.784  0.8254 -1.2814 -0.4384
  757MOL0     H 2188   3.252  10.418   0.884  0.9134  0.8008 -2.5492
  757MOL0     H 2189   3.436  10.168   0.900  0.4912  0.1468 -0.7399
  757MOL0     H 2190   3.337  10.209   1.039 -4.4625  0.4125 -0.2285
  757MOL0     H 2191   3.042  10.082   0.771  0.6257  0.4814 -0.4900
  757MOL0     H 2192   3.482  10.845   0.986  0.0819 -0.9173  1.1518
  757MOL0     H 2193   3.538  11.120   1.164 -0.7786  1.4292  0.8990
  757MOL0     H 2194   3.568  11.040   1.016 -1.2167  0.2150 -1.1451
  757MOL0     H 2195   3.463  11.189   1.015  1.1732  0.3004 -2.4808
  758MOL0     O 2196   7.227   8.898   4.273 -0.3380  0.0685 -0.1861
  758MOL0     C 2197   7.322   8.974   4.271 -0.0128  0.0649 -0.6215
  758MOL0     O 2198   7.336   9.068   4.373  0.1020  0.4500 -0.3641
  758MOL0     C 2199   7.240   9.061   4.478  0.2329  0.7532  0.4154
  758MOL0     C 2200   7.227   8.944   4.560  0.1391 -0.2995  0.0189
  758MOL0     C 2201   7.132   8.928   4.660 -0.1060  0.9823 -0.6697
  758MOL0     C 2202   7.051   9.038   4.690  0.3342  0.5425  0.2783
  758MOL0     O 2203   6.951   9.037   4.784 -0.2280  0.3401  0.7947
  758MOL0     C 2204   6.896   8.911   4.822  1.1314 -0.3469 -0.3935
  758MOL0     C 2205   6.790   8.911   4.933 -0.4830  0.1750 -0.0111
  758MOL0     C 2206   6.842   8.948   5.067  0.5212  0.0903 -0.0890
  758MOL0     C 2207   6.729   8.990   5.165 -0.0705 -0.1093 -0.6055
  758MOL0     C 2208   6.674   9.133   5.136  0.6008 -0.8241 -0.0984
  758MOL0     C 2209   6.778   9.247   5.122 -0.0213 -0.6940 -0.1801
  758MOL0     C 2210   6.708   9.391   5.146 -1.2200  0.1218  0.4347
  758MOL0     C 2211   6.630   9.423   5.268  0.8711 -0.6826 -0.0013
  758MOL0     N 2212   6.709   9.411   5.391  0.5463 -0.2439 -0.4249
  758MOL0     C 2213   6.825   9.488   5.427 -0.6717 -0.2315 -0.3457
  758MOL0     C 2214   6.847   9.456   5.561 -0.7438 -0.2730 -0.6452
  758MOL0     C 2215   6.969   9.499   5.651  0.4357  0.0432  0.1459
  758MOL0     C 2216   7.101   9.505   5.570 -0.1947  0.2016  0.1290
  758MOL0     C 2217   7.221   9.487   5.668  0.3936  0.1568  0.0788
  758MOL0     C 2218   7.358   9.486   5.601  0.3381  0.1671  0.2834
  758MOL0     O 2219   7.451   9.428   5.681 -0.0195 -0.6514 -0.4138
  758MOL0     C 2220   7.477   9.296   5.692 -0.5375 -0.1840  0.2602
  758MOL0     C 2221   7.588   9.259   5.768 -0.2316 -0.0514  0.4435
  758MOL0     C 2222   7.612   9.119   5.788  0.2916  0.1859  0.3255
  758MOL0     C 2223   7.523   9.019   5.744 -0.3342 -0.1085 -0.4782
  758MOL0     C 2224   7.551   8.870   5.765 -0.6582 -0.3022  0.3841
  758MOL0     O 2225   7.456   8.782   5.732  0.2202  0.3566 -0.1905
  758MOL0     C 2226   7.455   8.647   5.780 -0.0096  0.1666 -0.6909
  758MOL0     C 2227   7.440   8.622   5.919 -0.0052  1.2892 -0.6102
  758MOL0     C 2228   7.444   8.491   5.970  0.5807 -0.2683 -0.5992
  758MOL0     C 2229   7.459   8.386   5.884  0.4016  0.4245 -0.1238
  758MOL0     O 2230   7.476   8.247   5.919  0.0920 -0.0128 -0.4142
  758MOL0     C 2231   7.384   8.192   6.016 -0.2566 -0.6278 -0.0691
  758MOL0     C 2232   7.380   8.036   5.982  0.9875 -0.8285 -0.2075
  758MOL0     C 2233   7.247   7.974   6.016  0.4860  0.2514  0.6580
  758MOL0     C 2234   7.130   7.994   5.917  0.0102  0.6582 -0.3092
  758MOL0     C 2235   7.000   7.925   5.953  0.1493  0.0722  0.5412
  758MOL0     C 2236   6.899   7.947   5.843  0.3803  0.5919 -0.5720
  758MOL0     C 2237   6.768   7.871   5.879  0.4844 -1.1176 -0.6620
  758MOL0     C 2238   6.669   7.935   5.986  0.3214  0.1651 -0.9520
  758MOL0    Cl 2239   6.519   7.820   6.013 -0.0400  0.3600 -0.1529
  758MOL0     C 2240   7.475   8.408   5.748 -0.3879  0.5018  0.0479
  758MOL0     C 2241   7.471   8.538   5.698  0.0372 -0.5256  1.4893
  758MOL0     O 2242   7.662   8.841   5.816  0.2605  0.1447 -0.2714
  758MOL0     C 2243   7.411   9.067   5.680  0.2261  0.1589 -0.5949
  758MOL0     C 2244   7.396   9.197   5.645  0.0513 -0.3960  0.2451
  758MOL0     N 2245   6.747   9.370   5.601 -1.1438 -0.0113 -0.8467
  758MOL0     N 2246   6.670   9.342   5.501  0.2637  0.4372 -0.0288
  758MOL0     C 2247   7.090   9.167   4.634  0.4874  0.8366  0.6153
  758MOL0     C 2248   7.184   9.174   4.532 -0.5838 -0.7986 -0.3131
  758MOL0     C 2249   7.408   8.993   4.153 -0.3441  0.4523  0.3195
  758MOL0     C 2250   7.491   9.107   4.144  0.6318  0.0893 -0.6847
  758MOL0     C 2251   7.585   9.120   4.043 -0.9416  0.1590  0.1044
  758MOL0     C 2252   7.606   9.021   3.945  0.0823  0.1639 -0.1994
  758MOL0     O 2253   7.697   9.023   3.839  0.3490 -0.0109  0.7279
  758MOL0     C 2254   7.820   9.091   3.851  0.0602 -0.1583 -0.3592
  758MOL0     C 2255   7.922   9.027   3.944  0.0631  0.0774 -0.0726
  758MOL0     C 2256   7.919   8.881   3.929  0.0177  1.7050  0.3638
  758MOL0     C 2257   8.045   8.826   3.985 -0.3440 -0.2991 -0.9404
  758MOL0     C 2258   8.037   8.686   4.016  0.1640  0.9658  0.7908
  758MOL0     C 2259   8.040   8.560   4.028 -1.1520 -0.3311 -1.2000
  758MOL0     C 2260   7.521   8.912   3.951  0.1011 -0.5240 -0.8227
  758MOL0     C 2261   7.418   8.899   4.050 -0.4960  0.8866 -1.0861
  758MOL0     C 2262   7.327   8.772   4.030 -0.2750 -0.7151 -0.3247
  758MOL0     H 2263   7.276   8.850   4.535 -0.0339 -0.0749 -1.2147
  758MOL0     H 2264   7.125   8.827   4.698  2.3936  0.8353 -0.3998
  758MOL0     H 2265   6.849   8.855   4.741 -1.6405 -0.2572  1.0298
  758MOL0     H 2266   6.973   8.857   4.877  0.1711  2.1192  3.8586
  758MOL0     H 2267   6.751   8.809   4.939  0.5700 -0.1582  2.6850
  758MOL0     H 2268   6.705   8.970   4.899 -2.0015 -2.1637 -0.5407
  758MOL0     H 2269   6.910   9.031   5.052  0.4926 -0.2161 -2.1738
  758MOL0     H 2270   6.897   8.865   5.112  0.3854 -0.1806 -0.4179
  758MOL0     H 2271   6.651   8.915   5.152 -1.2692  1.0339 -0.1846
  758MOL0     H 2272   6.764   8.979   5.268  2.4313 -4.6391 -1.6657
  758MOL0     H 2273   6.604   9.133   5.053 -0.1819  2.6048  0.4257
  758MOL0     H 2274   6.608   9.145   5.223  1.0378 -1.5628  0.3515
  758MOL0     H 2275   6.862   9.235   5.192 -0.3479 -0.7693  0.1994
  758MOL0     H 2276   6.822   9.249   5.022 -0.7556 -1.9727 -0.5511
  758MOL0     H 2277   6.648   9.407   5.056  0.8432  2.3029 -0.6753
  758MOL0     H 2278   6.778   9.475   5.150 -1.2907  0.2571 -0.8127
  758MOL0     H 2279   6.577   9.518   5.256  0.9047 -0.2732  2.4859
  758MOL0     H 2280   6.558   9.341   5.280  0.6791 -0.9603 -2.4437
  758MOL0     H 2281   6.888   9.551   5.364 -1.2097 -0.4052 -1.0730
  758MOL0     H 2282   6.950   9.592   5.706 -1.5094  0.0836 -0.5212
  758MOL0     H 2283   6.971   9.420   5.727  0.8178  1.0595  1.2324
  758MOL0     H 2284   7.101   9.422   5.500  0.5860 -1.5508  2.1133
  758MOL0     H 2285   7.117   9.595   5.509  2.0577 -1.0339 -1.2368
  758MOL0     H 2286   7.198   9.388   5.708 -1.0949 -0.6607 -2.5508
  758MOL0     H 2287   7.220   9.562   5.748 -0.4840 -1.4821  1.6773
  758MOL0     H 2288   7.388   9.588   5.575 -3.9446  1.6577  0.4496
  758MOL0     H 2289   7.335   9.441   5.504 -1.9176 -1.5487  1.5072
  758MOL0     H 2290   7.651   9.340   5.804  1.6935 -0.4033 -1.8954
  758MOL0     H 2291   7.693   9.081   5.849 -0.9463 -3.5526 -0.1164
  758MOL0     H 2292   7.406   8.700   5.987 -2.1635  0.1797 -0.3572
  758MOL0     H 2293   7.431   8.474   6.076  1.8760 -5.3507 -0.9723
  758MOL0     H 2294   7.413   8.214   6.119 -2.5572 -2.8250  1.1535
  758MOL0     H 2295   7.282   8.227   5.995 -0.8760 -2.6606 -0.6741
  758MOL0     H 2296   7.398   8.017   5.876  1.3933  0.2082 -0.3348
  758MOL0     H 2297   7.451   7.976   6.041 -0.9550 -2.1142  0.9321
  758MOL0     H 2298   7.264   7.866   6.028  3.7160  0.6381  0.4740
  758MOL0     H 2299   7.210   8.013   6.111 -0.4935 -1.9606  1.2682
  758MOL0     H 2300   7.159   7.960   5.817 -0.2462 -0.8110  0.1040
  758MOL0     H 2301   7.123   8.100   5.891 -0.5815  0.0875 -2.6485
  758MOL0     H 2302   6.969   7.953   6.054 -1.2605 -1.2849  0.5167
  758MOL0     H 2303   7.017   7.817   5.960  1.2349  0.0921 -1.2210
  758MOL0     H 2304   6.880   8.054   5.827  2.8878  1.0242 -1.1297
  758MOL0     H 2305   6.949   7.921   5.750 -0.7889  1.9182 -1.6063
  758MOL0     H 2306   6.790   7.773   5.922  1.1321 -0.8365 -0.3309
  758MOL0     H 2307   6.711   7.862   5.786 -2.2815  2.4173  0.4672
  758MOL0     H 2308   6.711   7.951   6.085 -2.2253 -0.6737  0.3652
  758MOL0     H 2309   6.644   8.035   5.949  1.9236  0.5846 -0.9815
  758MOL0     H 2310   7.497   8.334   5.672 -1.0062 -1.7355  1.9042
  758MOL0     H 2311   7.492   8.551   5.592 -0.8037  2.1135  1.5720
  758MOL0     H 2312   7.336   8.998   5.645  1.7275 -2.7842  1.5582
  758MOL0     H 2313   7.309   9.228   5.588 -1.3889 -0.6497  2.2424
  758MOL0     H 2314   7.044   9.262   4.661 -0.0304  0.9948 -0.7199
  758MOL0     H 2315   7.203   9.273   4.492  0.5530 -0.9969 -0.3080
  758MOL0     H 2316   7.475   9.177   4.225 -2.9434  0.8495 -1.8805
  758MOL0     H 2317   7.652   9.205   4.032 -0.3559 -0.5943 -2.9294
  758MOL0     H 2318   7.799   9.193   3.887 -1.2689 -1.3073  2.4465
  758MOL0     H 2319   7.861   9.115   3.753 -0.4856  4.8063  0.3607
  758MOL0     H 2320   7.885   9.046   4.045 -3.9153 -0.3395 -1.2626
  758MOL0     H 2321   8.018   9.076   3.928  0.9208 -1.5588 -0.0646
  758MOL0     H 2322   7.910   8.849   3.825  0.8806  2.7843 -0.0699
  758MOL0     H 2323   7.839   8.841   3.992  2.2878  0.8472  2.8835
  758MOL0     H 2324   8.132   8.838   3.919  1.7078 -3.1839  0.9599
  758MOL0     H 2325   8.078   8.869   4.079 -2.1826 -1.0458  0.0950
  758MOL0     H 2326   8.039   8.453   4.029  2.5949 -0.5723 -3.3228
  758MOL0     H 2327   7.537   8.828   3.885  1.3425 -0.3298 -0.7953
  758MOL0     H 2328   7.351   8.708   3.944 -2.1564 -3.1632  0.8388
  758MOL0     H 2329   7.338   8.703   4.115 -0.9540 -1.3234 -0.7141
  758MOL0     H 2330   7.223   8.803   4.041  0.0061  1.0867 -2.2244
  759MOL0     O 2331   1.513   7.936   0.603 -0.4852 -1.0019 -0.6480
  759MOL0     C 2332   1.414   7.947   0.674  0.5045 -0.0570 -0.0429
  759MOL0     O 2333   1.289   7.941   0.623  0.0492  0.6170 -0.5749
  759MOL0     C 2334   1.275   7.969   0.486  0.8420  0.2507  0.1654
  759MOL0     C 2335   1.319   8.086   0.414 -0.1352  0.7376 -0.2743
  759MOL0     C 2336   1.293   8.104   0.279 -0.5809 -0.1518 -0.1535
  759MOL0     C 2337   1.224   8.009   0.197 -0.2255 -0.1777  0.7056
  759MOL0     O 2338   1.185   8.026   0.069  0.3723  0.9498  0.1868
  759MOL0     C 2339   1.147   8.152   0.012  0.5144  0.7259 -0.2382
  759MOL0     C 2340   1.179   8.168  -0.141  0.6604 -1.0360 -0.8806
  759MOL0     C 2341   1.330   8.164  -0.157  0.1749  0.3248 -0.6504
  759MOL0     C 2342   1.412   8.263  -0.078 -0.2707 -0.2575 -0.2214
  759MOL0     C 2343   1.352   8.404  -0.085  0.2232  0.3379  0.9892
  759MOL0     C 2344   1.457   8.506  -0.020 -0.4985 -0.0043  0.8133
  759MOL0     C 2345   1.428   8.513   0.136 -1.0223 -0.0321  0.2850
  759MOL0     C 2346   1.560   8.553   0.219 -0.0417  0.9653 -0.4870
  759MOL0     N 2347   1.613   8.416   0.266  0.6234 -0.4699  0.1006
  759MOL0     C 2348   1.700   8.328   0.199 -0.1160 -0.4982  0.2563
  759MOL0     C 2349   1.697   8.223   0.285 -0.1540 -0.6744 -0.1909
  759MOL0     C 2350   1.753   8.087   0.254  0.3932  0.0392 -0.3675
  759MOL0     C 2351   1.658   7.974   0.288  1.3638 -0.8755  0.5560
  759MOL0     C 2352   1.728   7.840   0.258  0.2918 -0.0202 -0.1081
  759MOL0     C 2353   1.673   7.731   0.348 -0.8256  0.6378  0.8148
  759MOL0     O 2354   1.739   7.613   0.307  0.5629 -0.4526  0.1268
  759MOL0     C 2355   1.708   7.503   0.383 -0.0677  1.0038  0.1032
  759MOL0     C 2356   1.593   7.465   0.455 -0.7228  0.1707 -0.6911
  759MOL0     C 2357   1.582   7.339   0.526 -0.2059  0.4768 -0.3842
  759MOL0     C 2358   1.684   7.256   0.535  0.1654  0.0982 -0.4792
  759MOL0     C 2359   1.669   7.135   0.616 -0.3988  0.0197 -1.1618
  759MOL0     O 2360   1.791   7.072   0.659  0.8701 -0.0044  0.6045
  759MOL0     C 2361   1.786   6.943   0.704  0.4888 -0.4684  0.1498
  759MOL0     C 2362   1.886   6.853   0.655 -0.9467 -0.4964  0.2222
  759MOL0     C 2363   1.894   6.718   0.693 -0.4512 -0.3170 -0.5527
  759MOL0     C 2364   1.783   6.667   0.771  1.0248 -0.1393  0.5169
  759MOL0     O 2365   1.760   6.530   0.791 -0.6277  0.5250 -0.1985
  759MOL0     C 2366   1.768   6.442   0.672  0.5631 -0.2728 -0.1582
  759MOL0     C 2367   1.733   6.293   0.693  0.3737  0.6695 -0.4741
  759MOL0     C 2368   1.667   6.231   0.564 -0.0645  0.3205  0.3533
  759MOL0     C 2369   1.759   6.214   0.444 -0.0969 -0.3701  0.1469
  759MOL0     C 2370   1.796   6.068   0.429 -0.2872  0.2623  0.4988
  759MOL0     C 2371   1.889   6.047   0.305  0.5414 -0.8002 -0.3584
  759MOL0     C 2372   1.924   5.900   0.279 -0.3184 -0.5235 -0.1591
  759MOL0     C 2373   2.049   5.878   0.193  0.3787  0.7442 -0.4113
  759MOL0    Cl 2374   2.059   5.706   0.176 -0.6422  0.2134 -0.1340
  759MOL0     C 2375   1.687   6.760   0.823  0.4952 -0.5013 -0.5160
  759MOL0     C 2376   1.685   6.895   0.785 -0.5300  0.3738 -0.6379
  759MOL0     O 2377   1.551   7.101   0.653 -0.8053  0.6761 -0.2807
  759MOL0     C 2378   1.810   7.302   0.478  1.3281  0.4709 -0.6529
  759MOL0     C 2379   1.817   7.409   0.392  0.4781 -0.8774  0.2592
  759MOL0     N 2380   1.639   8.256   0.404 -0.6514  0.1402 -0.6497
  759MOL0     N 2381   1.591   8.374   0.389 -0.3251 -0.3419 -0.0348
  759MOL0     C 2382   1.172   7.899   0.270 -1.6864 -0.1952  0.1905
  759MOL0     C 2383   1.204   7.877   0.411  0.2556 -0.5322  0.1883
  759MOL0     C 2384   1.434   7.917   0.816 -0.1533  0.1070  0.4814
  759MOL0     C 2385   1.496   8.005   0.902  0.8030 -1.3990  0.4715
  759MOL0     C 2386   1.518   7.973   1.029  0.4739 -0.2710 -0.9348
  759MOL0     C 2387   1.462   7.855   1.088 -0.2387 -0.0104  0.6683
  759MOL0     O 2388   1.482   7.827   1.222  0.6277  0.1137  0.1341
  759MOL0     C 2389   1.475   7.689   1.257  0.1582 -0.0419  0.1330
  759MOL0     C 2390   1.546   7.671   1.390 -0.2226  0.2874  0.3825
  759MOL0     C 2391   1.456   7.720   1.501  0.8132 -0.3732 -0.2953
  759MOL0     C 2392   1.531   7.740   1.633  0.2625 -0.6384 -0.2798
  759MOL0     C 2393   1.616   7.629   1.677 -0.7550  0.1974 -0.1563
  759MOL0     C 2394   1.680   7.526   1.707 -0.2263  0.5395  0.9650
  759MOL0     C 2395   1.388   7.767   1.007  0.0096  0.5418 -0.7615
  759MOL0     C 2396   1.389   7.798   0.871  0.6533  0.6140  0.5530
  759MOL0     C 2397   1.329   7.704   0.775  0.5818  0.0614 -0.2606
  759MOL0     H 2398   1.376   8.164   0.463  0.9048 -0.0188 -0.2613
  759MOL0     H 2399   1.335   8.199   0.246  0.6938  0.6729  3.3685
  759MOL0     H 2400   1.040   8.169   0.032  0.2739  1.1700 -1.7687
  759MOL0     H 2401   1.193   8.229   0.075 -0.6792 -0.5182  2.2854
  759MOL0     H 2402   1.138   8.265  -0.170 -0.7840 -0.5640  2.2796
  759MOL0     H 2403   1.117   8.096  -0.194 -1.2726 -0.3146  0.3102
  759MOL0     H 2404   1.349   8.181  -0.264  0.8841 -1.1833 -0.7967
  759MOL0     H 2405   1.368   8.062  -0.143  1.3732  0.3833 -2.9825
  759MOL0     H 2406   1.437   8.253   0.028 -0.5183  3.3331  0.3178
  759MOL0     H 2407   1.511   8.276  -0.124  1.1424 -0.1838  2.6154
  759MOL0     H 2408   1.334   8.421  -0.191 -1.3125  1.2328  1.3679
  759MOL0     H 2409   1.258   8.416  -0.031 -0.4609  0.2258 -0.1440
  759MOL0     H 2410   1.556   8.475  -0.053 -2.4432 -3.2924 -2.9551
  759MOL0     H 2411   1.449   8.603  -0.069  0.7727  0.6088  1.7878
  759MOL0     H 2412   1.401   8.417   0.180  0.8113 -0.1159  1.3555
  759MOL0     H 2413   1.351   8.590   0.142 -0.1889  1.3440 -3.5330
  759MOL0     H 2414   1.637   8.598   0.157 -0.2297  2.1918  0.1482
  759MOL0     H 2415   1.537   8.622   0.300 -1.7445 -0.9143  0.7540
  759MOL0     H 2416   1.752   8.336   0.104  1.0557 -1.8416  0.7390
  759MOL0     H 2417   1.788   8.085   0.150  0.2833  0.9432 -0.4340
  759MOL0     H 2418   1.839   8.076   0.320  0.6091  2.9416 -0.0313
  759MOL0     H 2419   1.627   7.976   0.393 -0.0562  2.3648  0.1961
  759MOL0     H 2420   1.568   7.969   0.226  1.7728  1.6674 -0.3961
  759MOL0     H 2421   1.836   7.847   0.275  0.5048 -1.9973 -0.4007
  759MOL0     H 2422   1.711   7.823   0.151  1.3358 -0.7242 -0.1856
  759MOL0     H 2423   1.565   7.726   0.357 -0.6938  0.7971  3.2210
  759MOL0     H 2424   1.714   7.755   0.447  1.4014 -2.6967  0.8926
  759MOL0     H 2425   1.520   7.537   0.489  1.5280  0.5545  4.1157
  759MOL0     H 2426   1.500   7.319   0.594 -0.0219 -2.3783 -0.8943
  759MOL0     H 2427   1.959   6.878   0.579 -1.7062  0.6795 -0.1501
  759MOL0     H 2428   1.982   6.664   0.661  1.7005  0.6259  3.2172
  759MOL0     H 2429   1.703   6.474   0.590  1.5472 -0.9964 -1.2545
  759MOL0     H 2430   1.868   6.448   0.629  0.1942  0.3441 -0.9600
  759MOL0     H 2431   1.831   6.255   0.724 -1.5866 -2.0194  3.2247
  759MOL0     H 2432   1.655   6.276   0.768 -2.9630  0.9554 -3.6295
  759MOL0     H 2433   1.616   6.140   0.598 -0.9495 -0.1915 -2.1245
  759MOL0     H 2434   1.588   6.294   0.522 -0.3925 -1.7554 -2.4315
  759MOL0     H 2435   1.852   6.272   0.443  2.0419 -3.1943  4.3057
  759MOL0     H 2436   1.700   6.234   0.354 -1.0973  0.8235  1.0482
  759MOL0     H 2437   1.705   6.009   0.429 -0.9584  1.2722  0.7959
  759MOL0     H 2438   1.852   6.041   0.519  1.8616 -3.7776 -1.7533
  759MOL0     H 2439   1.827   6.087   0.224  0.8400 -2.0459 -1.2319
  759MOL0     H 2440   1.984   6.098   0.319 -0.8470  1.6092  1.0196
  759MOL0     H 2441   1.839   5.851   0.229  1.1691 -2.4885 -0.9007
  759MOL0     H 2442   1.943   5.854   0.377  1.4016  4.1127  2.0016
  759MOL0     H 2443   2.031   5.909   0.090 -1.0010 -2.9098 -1.4363
  759MOL0     H 2444   2.141   5.925   0.229 -2.1819  5.4840  0.7872
  759MOL0     H 2445   1.607   6.726   0.887 -1.7624  1.9376 -1.8625
  759MOL0     H 2446   1.605   6.948   0.836  1.0595 -0.4806  3.0465
  759MOL0     H 2447   1.902   7.245   0.488 -0.7255 -3.2404 -0.7734
  759MOL0     H 2448   1.907   7.441   0.341 -1.3676  2.0960 -1.4309
  759MOL0     H 2449   1.114   7.828   0.211  1.8324 -1.4733 -2.0122
  759MOL0     H 2450   1.161   7.789   0.456 -1.0119  0.2391  0.5398
  759MOL0     H 2451   1.547   8.094   0.866  0.7465 -0.9875  1.3860
  759MOL0     H 2452   1.565   8.038   1.102 -2.4547  2.2889 -1.0762
  759MOL0     H 2453   1.527   7.630   1.182 -0.3758  0.1908 -0.4317
  759MOL0     H 2454   1.375   7.646   1.267  0.6598 -0.8616  2.1417
  759MOL0     H 2455   1.646   7.715   1.391  0.3281 -0.9291  1.5665
  759MOL0     H 2456   1.578   7.568   1.403  0.8098  0.6095  0.5296
  759MOL0     H 2457   1.375   7.648   1.516  0.8564 -0.3352  0.1325
  759MOL0     H 2458   1.406   7.810   1.463  1.0393 -1.7112 -4.1488
  759MOL0     H 2459   1.602   7.823   1.631 -0.2089 -0.2362 -0.4692
  759MOL0     H 2460   1.451   7.771   1.701 -0.0218  0.8674 -1.2385
  759MOL0     H 2461   1.736   7.437   1.726  0.0515  0.4612 -0.1560
  759MOL0     H 2462   1.341   7.677   1.046 -0.1922  1.9785  2.6825
  759MOL0     H 2463   1.303   7.611   0.826 -2.8483  1.6059  1.1224
  759MOL0     H 2464   1.236   7.736   0.728  0.5279 -1.6217 -1.4076
  759MOL0     H 2465   1.401   7.682   0.696  1.5806  1.3056  0.2700
  760MOL0     O 2466   8.803  10.202   9.736  0.1654  0.5843 -0.3950
  760MOL0     C 2467   8.700  10.149   9.782 -0.8688 -0.2630  0.4113
  760MOL0     O 2468   8.584  10.211   9.806  0.0746 -0.5222 -0.0418
  760MOL0     C 2469   8.561  10.350   9.816 -0.7914 -0.7079 -0.0370
  760MOL0     C 2470   8.426  10.388   9.813  0.4507 -0.4420  1.0644
  760MOL0     C 2471   8.395  10.532   9.824  0.3781  1.0384 -1.1112
  760MOL0     C 2472   8.490  10.632   9.837 -0.0765 -0.1328  0.0412
  760MOL0     O 2473   8.454  10.768   9.832  0.3977  0.0533  0.5562
  760MOL0     C 2474   8.335  10.819   9.901 -0.5210 -0.0481 -0.0693
  760MOL0     C 2475   8.370  10.946   9.973 -1.0619 -0.5156 -0.2689
  760MOL0     C 2476   8.254  11.019  10.039 -0.2393  0.2220 -0.4226
  760MOL0     C 2477   8.292  11.153  10.121 -0.5033  0.6187  0.7856
  760MOL0     C 2478   8.391  11.143  10.234 -0.9559 -0.2245 -0.3111
  760MOL0     C 2479   8.397  11.270  10.312 -0.2468  0.5314 -0.7232
  760MOL0     C 2480   8.521  11.287  10.391 -0.4561  0.3843  0.1709
  760MOL0     C 2481   8.565  11.433  10.385  0.3604  0.1996  0.5742
  760MOL0     N 2482   8.616  11.470  10.257 -0.3376 -0.0300  0.9463
  760MOL0     C 2483   8.634  11.601  10.225  0.0369 -0.5584 -0.1070
  760MOL0     C 2484   8.665  11.607  10.091  0.7643  0.0518  0.1293
  760MOL0     C 2485   8.702  11.732  10.014 -0.5026  0.6686  0.4315
  760MOL0     C 2486   8.857  11.750  10.009  0.3609  0.2538  0.1056
  760MOL0     C 2487   8.887  11.876   9.947 -0.5966  0.2408  0.3589
  760MOL0     C 2488   9.035  11.893   9.937 -0.5914 -1.0819  0.8598
  760MOL0     O 2489   9.072  12.031   9.888 -0.2198 -0.3877 -0.4305
  760MOL0     C 2490   9.036  12.093   9.768 -0.1069 -0.4394 -0.4350
  760MOL0     C 2491   8.998  12.018   9.657  0.0492  0.7190 -0.4157
  760MOL0     C 2492   8.971  12.079   9.539 -0.3360 -0.4054 -0.5668
  760MOL0     C 2493   8.964  12.219   9.523 -1.2436 -0.4144 -0.7560
  760MOL0     C 2494   8.928  12.275   9.399 -0.3242  0.7059 -0.8070
  760MOL0     O 2495   8.881  12.187   9.297  0.2213  0.0663  0.1724
  760MOL0     C 2496   8.847  12.240   9.178 -0.3846  0.2544  0.1966
  760MOL0     C 2497   8.796  12.375   9.149  0.8498  0.3586 -1.4083
  760MOL0     C 2498   8.759  12.399   9.021 -0.6552 -0.9188 -0.1607
  760MOL0     C 2499   8.771  12.299   8.920 -0.2283 -0.0265  0.0805
  760MOL0     O 2500   8.732  12.311   8.788  0.1617 -0.8894 -0.6035
  760MOL0     C 2501   8.676  12.432   8.736 -0.2312  0.5418 -0.2596
  760MOL0     C 2502   8.785  12.526   8.679 -0.2817 -0.1517  0.3710
  760MOL0     C 2503   8.718  12.656   8.652  0.4831 -0.7042  0.2827
  760MOL0     C 2504   8.822  12.739   8.553  1.0498 -0.0085 -0.4081
  760MOL0     C 2505   8.844  12.877   8.615 -0.5960  0.1378 -0.3072
  760MOL0     C 2506   8.711  12.959   8.595 -0.2056  0.4079  0.5907
  760MOL0     C 2507   8.758  13.097   8.628 -0.4152  0.0595 -0.0142
  760MOL0     C 2508   8.650  13.201   8.664  0.2830  0.2392  0.2828
  760MOL0    Cl 2509   8.627  13.304   8.520  0.2659 -0.4147  0.2008
  760MOL0     C 2510   8.805  12.171   8.955  0.3667 -0.2587 -0.1078
  760MOL0     C 2511   8.849  12.142   9.078 -0.2636  0.7399 -0.0767
  760MOL0     O 2512   8.935  12.405   9.389 -0.8295  0.3523 -0.3604
  760MOL0     C 2513   9.001  12.287   9.638  0.2760  0.0953  0.3337
  760MOL0     C 2514   9.036  12.233   9.755 -1.5332 -0.3780 -1.1889
  760MOL0     N 2515   8.661  11.472  10.051 -0.6858  0.4994  0.4877
  760MOL0     N 2516   8.639  11.391  10.148 -1.0499  0.2016  0.0756
  760MOL0     C 2517   8.619  10.594   9.830  0.8531 -0.3829  0.8907
  760MOL0     C 2518   8.654  10.454   9.826 -0.2402 -0.3508  0.4938
  760MOL0     C 2519   8.684  10.003   9.799  0.1376 -1.0755 -0.2084
  760MOL0     C 2520   8.554   9.948   9.820 -0.2866 -0.3511 -0.2589
  760MOL0     C 2521   8.530   9.815   9.849 -0.6156 -0.1017 -0.1809
  760MOL0     C 2522   8.637   9.724   9.863 -0.2297 -1.0838  0.8491
  760MOL0     O 2523   8.603   9.598   9.888  0.4352 -0.1190 -1.0985
  760MOL0     C 2524   8.691   9.493   9.851 -0.6868 -0.4067  0.4695
  760MOL0     C 2525   8.645   9.349   9.896  0.5236  0.0475  0.1443
  760MOL0     C 2526   8.540   9.291   9.801  0.2907  0.7087  0.0769
  760MOL0     C 2527   8.483   9.151   9.844 -1.2223 -0.2033  0.0472
  760MOL0     C 2528   8.362   9.126   9.762  0.3867  0.9685  0.0950
  760MOL0     C 2529   8.264   9.079   9.700  0.0863 -0.1802  0.5529
  760MOL0     C 2530   8.772   9.775   9.842  0.1389  0.0441 -0.4807
  760MOL0     C 2531   8.799   9.915   9.821 -0.1853 -0.3228  0.2792
  760MOL0     C 2532   8.942   9.955   9.822 -0.6279  0.2230  0.3566
  760MOL0     H 2533   8.342  10.319   9.806 -1.6941  1.9676  1.6647
  760MOL0     H 2534   8.288  10.551   9.828  0.1174 -0.1620 -1.9576
  760MOL0     H 2535   8.262  10.843   9.823  1.0766  2.7910 -0.8651
  760MOL0     H 2536   8.303  10.741   9.970  0.1543 -0.5351 -0.2958
  760MOL0     H 2537   8.423  11.027   9.924 -1.0298  0.3751  1.1770
  760MOL0     H 2538   8.420  10.917  10.066 -1.9723  1.0662  0.7731
  760MOL0     H 2539   8.189  10.946  10.088  2.1275 -2.0516 -0.4610
  760MOL0     H 2540   8.186  11.050   9.959 -2.6037 -0.9915  0.9767
  760MOL0     H 2541   8.329  11.222  10.044  1.2189 -2.0985 -1.0400
  760MOL0     H 2542   8.195  11.192  10.150 -0.0806  0.1682  2.9503
  760MOL0     H 2543   8.364  11.060  10.300 -4.5608 -0.3118 -1.6777
  760MOL0     H 2544   8.485  11.134  10.180 -0.2508 -0.3763  0.9040
  760MOL0     H 2545   8.406  11.354  10.241  0.0680  2.3663  1.3797
  760MOL0     H 2546   8.303  11.276  10.368 -0.3195  0.3255 -0.8219
  760MOL0     H 2547   8.605  11.231  10.348  1.9359  2.6486  1.5647
  760MOL0     H 2548   8.494  11.259  10.493 -0.8733 -2.9436 -0.7505
  760MOL0     H 2549   8.470  11.483  10.404 -1.2322 -1.7835 -1.5682
  760MOL0     H 2550   8.634  11.450  10.468  1.0686 -0.7645  0.2066
  760MOL0     H 2551   8.636  11.678  10.301 -2.9830  0.1305 -0.6140
  760MOL0     H 2552   8.660  11.743   9.913 -0.6356  0.0206  0.4162
  760MOL0     H 2553   8.668  11.816  10.075 -0.8374  1.2752 -0.5530
  760MOL0     H 2554   8.894  11.756  10.112  1.1889  1.2898 -0.2355
  760MOL0     H 2555   8.896  11.660   9.962 -0.7907  0.4074 -1.2185
  760MOL0     H 2556   8.835  11.946  10.013 -2.2529 -1.3760  0.8307
  760MOL0     H 2557   8.832  11.875   9.852 -0.3610  0.7213  0.2144
  760MOL0     H 2558   9.066  11.818   9.865 -0.3393 -2.7591  2.6314
  760MOL0     H 2559   9.084  11.875  10.034  4.0222  0.9110 -0.8052
  760MOL0     H 2560   8.990  11.909   9.659 -1.5918  0.8248  0.6151
  760MOL0     H 2561   8.946  12.005   9.464 -1.1665 -1.6153  0.8464
  760MOL0     H 2562   8.764  12.431   9.237  0.5798 -1.3282 -0.3866
  760MOL0     H 2563   8.721  12.497   8.998  0.7492 -0.3886 -0.3086
  760MOL0     H 2564   8.606  12.400   8.658  1.0934 -0.4739 -1.0840
  760MOL0     H 2565   8.625  12.485   8.816  2.2539 -0.3215  2.0262
  760MOL0     H 2566   8.853  12.539   8.765 -0.8027 -1.0779  0.9337
  760MOL0     H 2567   8.840  12.481   8.596 -1.5456 -0.7253 -0.1705
  760MOL0     H 2568   8.628  12.644   8.592  1.4205 -1.3889 -1.0367
  760MOL0     H 2569   8.702  12.711   8.745 -2.5316  0.2565 -0.6743
  760MOL0     H 2570   8.769  12.748   8.458  0.3150 -1.0764 -0.1092
  760MOL0     H 2571   8.919  12.696   8.528  1.0144  0.3229 -1.1400
  760MOL0     H 2572   8.924  12.920   8.554 -1.0568 -1.5904 -2.2251
  760MOL0     H 2573   8.875  12.882   8.720  1.7093  4.5902 -0.9559
  760MOL0     H 2574   8.670  12.958   8.493  1.9124 -0.5236 -0.3058
  760MOL0     H 2575   8.632  12.912   8.655 -1.4339  2.0957  0.3680
  760MOL0     H 2576   8.832  13.130   8.554 -0.1628 -0.2459  0.0996
  760MOL0     H 2577   8.812  13.086   8.723  2.1689  0.0887 -1.4072
  760MOL0     H 2578   8.560  13.182   8.722  1.3335 -0.2750  1.8114
  760MOL0     H 2579   8.693  13.259   8.746  0.8198  1.5729 -0.9008
  760MOL0     H 2580   8.796  12.089   8.885  3.1566 -3.1602  2.5960
  760MOL0     H 2581   8.882  12.039   9.088 -0.4933  0.5005 -1.5615
  760MOL0     H 2582   9.004  12.395   9.639 -0.3106  0.1138  0.4960
  760MOL0     H 2583   9.065  12.301   9.835  2.1488 -0.4783 -2.2240
  760MOL0     H 2584   8.677  10.681   9.801 -1.5239  0.8710 -0.3665
  760MOL0     H 2585   8.757  10.422   9.820 -0.6300 -1.9620  1.6311
  760MOL0     H 2586   8.456   9.995   9.823 -1.0160 -1.8022 -0.2272
  760MOL0     H 2587   8.424   9.793   9.863 -0.6236 -1.6016 -2.1511
  760MOL0     H 2588   8.786   9.520   9.899 -3.0304  0.2035  5.3658
  760MOL0     H 2589   8.696   9.496   9.742 -1.3966  1.0021  0.4584
  760MOL0     H 2590   8.609   9.369   9.998  0.6463  0.7615  0.0507
  760MOL0     H 2591   8.733   9.285   9.902  0.4000 -0.0310  1.3544
  760MOL0     H 2592   8.580   9.289   9.699  0.8605 -0.9575  0.2983
  760MOL0     H 2593   8.452   9.356   9.798 -1.2340 -1.2475  0.9946
  760MOL0     H 2594   8.566   9.084   9.819  2.8373  4.1752  0.3361
  760MOL0     H 2595   8.457   9.148   9.950 -0.4317  5.7070  0.7229
  760MOL0     H 2596   8.176   9.048   9.646  0.5677  1.8155 -1.5085
  760MOL0     H 2597   8.854   9.705   9.842 -0.9984 -1.3372 -0.9362
  760MOL0     H 2598   8.989   9.948   9.724 -2.5305 -1.9865 -0.5018
  760MOL0     H 2599   8.951  10.061   9.845  1.5028  0.8141 -2.7619
  760MOL0     H 2600   8.996   9.889   9.891  3.4239 -0.3771 -3.0093
  761MOL0     O 2601   7.238   6.992   7.191 -0.1672  0.1416  0.1087
  761MOL0     C 2602   7.268   6.875   7.199  0.5800 -0.0138 -0.6632
  761MOL0     O 2603   7.346   6.815   7.293  0.4968  0.4200 -0.8689
  761MOL0     C 2604   7.446   6.881   7.364  0.3451  0.1357 -0.4465
  761MOL0     C 2605   7.491   6.817   7.475 -0.3355 -0.2372  0.3356
  761MOL0     C 2606   7.597   6.871   7.543 -0.2280 -0.3140 -0.2858
  761MOL0     C 2607   7.645   7.005   7.516  0.1683  0.6264 -0.8238
  761MOL0     O 2608   7.737   7.062   7.603  0.4568  0.4787  0.1514
  761MOL0     C 2609   7.759   7.195   7.603 -0.9130 -0.0372  0.4911
  761MOL0     C 2610   7.819   7.252   7.727  0.2637 -0.1459 -0.3533
  761MOL0     C 2611   7.708   7.271   7.827 -0.1871  0.5657 -0.0832
  761MOL0     C 2612   7.758   7.325   7.964 -0.3385  0.5169  0.3922
  761MOL0     C 2613   7.644   7.376   8.042  0.2633  0.6799  1.7259
  761MOL0     C 2614   7.689   7.406   8.180 -0.1304  0.5059  1.2411
  761MOL0     C 2615   7.578   7.484   8.247 -0.4552  0.1639 -0.2766
  761MOL0     C 2616   7.441   7.412   8.245  0.4497  0.4612 -0.0948
  761MOL0     N 2617   7.440   7.283   8.316 -0.6329 -0.0233 -0.2448
  761MOL0     C 2618   7.442   7.164   8.257  0.6782  0.3081 -0.3876
  761MOL0     C 2619   7.425   7.070   8.355 -0.5791 -0.1418  1.0107
  761MOL0     C 2620   7.418   6.922   8.332 -0.0511 -0.5810  0.7799
  761MOL0     C 2621   7.307   6.852   8.237 -0.7794  0.4725  0.0553
  761MOL0     C 2622   7.171   6.857   8.301 -0.1608  1.3051  0.6047
  761MOL0     C 2623   7.145   6.771   8.432  0.4779  0.3930  0.2592
  761MOL0     O 2624   7.007   6.771   8.480 -0.0163  0.5233 -0.6556
  761MOL0     C 2625   6.982   6.847   8.596 -0.2524  0.4834 -0.3388
  761MOL0     C 2626   7.048   6.962   8.621 -1.1075 -0.1923 -1.0488
  761MOL0     C 2627   7.060   7.025   8.747  0.2927  0.3663 -0.9464
  761MOL0     C 2628   6.971   6.983   8.842  1.3971  0.0857  0.0716
  761MOL0     C 2629   6.961   7.051   8.974  0.2066 -0.8251 -0.6066
  761MOL0     O 2630   7.070   7.050   9.054  0.3367  0.7702 -0.1313
  761MOL0     C 2631   7.063   7.106   9.180 -0.8337 -0.1999 -0.1260
  761MOL0     C 2632   7.165   7.052   9.264  1.1610 -0.5157 -0.4358
  761MOL0     C 2633   7.176   7.097   9.394 -1.0294  0.0895  0.0292
  761MOL0     C 2634   7.095   7.208   9.443  0.2212  0.2192  0.2134
  761MOL0     O 2635   7.099   7.263   9.574 -0.5427  0.0538  0.6191
  761MOL0     C 2636   7.193   7.367   9.595  0.7972  0.3642  0.8229
  761MOL0     C 2637   7.331   7.311   9.643  0.3412 -0.3246  0.9168
  761MOL0     C 2638   7.440   7.416   9.642  0.6227 -1.2271 -0.5185
  761MOL0     C 2639   7.422   7.526   9.752 -0.1764 -0.2481  0.7267
  761MOL0     C 2640   7.522   7.641   9.739 -0.6480  0.4038 -0.5001
  761MOL0     C 2641   7.494   7.740   9.628 -1.0207  0.5604  0.0470
  761MOL0     C 2642   7.625   7.833   9.601 -0.1904  0.3594 -0.2894
  761MOL0     C 2643   7.621   7.970   9.672 -0.6624 -0.7229  1.1644
  761MOL0    Cl 2644   7.499   8.085   9.609 -0.4710 -0.3227 -0.2049
  761MOL0     C 2645   6.992   7.257   9.358 -0.0038 -0.2417 -0.7832
  761MOL0     C 2646   6.985   7.216   9.226 -0.0657  0.6013 -0.6543
  761MOL0     O 2647   6.845   7.076   9.010 -0.6585 -0.4819  0.3606
  761MOL0     C 2648   6.884   6.869   8.814 -0.1601 -0.2922  0.5560
  761MOL0     C 2649   6.893   6.800   8.690  0.3071 -0.1699 -1.1793
  761MOL0     N 2650   7.435   7.134   8.476 -0.6412  0.2659  0.5810
  761MOL0     N 2651   7.446   7.262   8.451  0.0483 -0.0054 -0.3098
  761MOL0     C 2652   7.589   7.070   7.408  0.6721 -0.0926 -0.6665
  761MOL0     C 2653   7.486   7.011   7.329 -0.2886 -0.0611 -0.1323
  761MOL0     C 2654   7.213   6.780   7.092 -0.2613 -0.7285  0.2314
  761MOL0     C 2655   7.103   6.831   7.017  0.4314  0.6402  0.2070
  761MOL0     C 2656   7.048   6.754   6.918 -0.7784 -0.1752  0.0400
  761MOL0     C 2657   7.094   6.632   6.882  0.5765  0.1135 -0.1707
  761MOL0     O 2658   7.047   6.552   6.775 -0.0343  0.2124 -0.3703
  761MOL0     C 2659   6.977   6.613   6.673  0.1716  0.1694  0.9362
  761MOL0     C 2660   6.835   6.591   6.698 -1.0177 -0.4595  1.1596
  761MOL0     C 2661   6.776   6.452   6.693  0.2037 -0.5626 -0.6365
  761MOL0     C 2662   6.795   6.382   6.833 -0.6706 -0.5724 -0.0224
  761MOL0     C 2663   6.723   6.249   6.840 -0.4513  0.2568  0.6986
  761MOL0     C 2664   6.667   6.137   6.844  0.0594 -0.6323 -0.4727
  761MOL0     C 2665   7.209   6.587   6.938 -0.5777  0.2476  0.3453
  761MOL0     C 2666   7.272   6.661   7.040 -0.4671 -0.5435 -0.0014
  761MOL0     C 2667   7.390   6.588   7.104  0.2174 -0.2710 -0.7056
  761MOL0     H 2668   7.454   6.720   7.507  0.9595 -0.6582  0.6174
  761MOL0     H 2669   7.642   6.815   7.625 -2.9402  0.0001  1.5246
  761MOL0     H 2670   7.829   7.200   7.519 -0.2340 -2.1102  0.8715
  761MOL0     H 2671   7.666   7.246   7.581  0.9847  1.9211 -4.4529
  761MOL0     H 2672   7.854   7.354   7.709  0.8799  0.1072  1.9347
  761MOL0     H 2673   7.897   7.190   7.772 -0.6404 -1.6426 -0.7797
  761MOL0     H 2674   7.645   7.181   7.835 -1.0362  1.1422 -0.1245
  761MOL0     H 2675   7.647   7.353   7.788  0.9238  2.9321  2.7693
  761MOL0     H 2676   7.801   7.238   8.015  0.2512  0.2663 -0.4927
  761MOL0     H 2677   7.828   7.406   7.939 -1.8677  1.5756 -0.6480
  761MOL0     H 2678   7.610   7.470   7.999 -0.7735 -0.1494  0.6508
  761MOL0     H 2679   7.557   7.310   8.028 -2.4533  4.0004  1.7393
  761MOL0     H 2680   7.700   7.307   8.225 -1.7171  0.0665  0.7268
  761MOL0     H 2681   7.780   7.467   8.170 -0.2049  0.8712  2.5468
  761MOL0     H 2682   7.565   7.578   8.194 -0.5544 -1.0529 -2.5299
  761MOL0     H 2683   7.612   7.496   8.350  0.1167  1.7196 -0.6338
  761MOL0     H 2684   7.371   7.485   8.286 -1.4242 -0.2235 -1.8745
  761MOL0     H 2685   7.400   7.390   8.146 -0.3008 -2.0937  0.7079
  761MOL0     H 2686   7.445   7.139   8.151  0.0553 -0.3384 -0.2583
  761MOL0     H 2687   7.512   6.900   8.280  1.3963  1.3934  2.3900
  761MOL0     H 2688   7.417   6.868   8.428  2.1467 -1.0840  0.5815
  761MOL0     H 2689   7.312   6.901   8.140  1.6804  0.9097  0.3334
  761MOL0     H 2690   7.326   6.747   8.214 -0.9962  0.7915 -1.6666
  761MOL0     H 2691   7.116   6.812   8.218  2.5089 -1.8578  0.3528
  761MOL0     H 2692   7.134   6.960   8.303 -1.5888  0.9923 -2.9254
  761MOL0     H 2693   7.208   6.804   8.515  2.0101  0.5633 -0.9373
  761MOL0     H 2694   7.163   6.672   8.392 -5.5648  0.0401 -2.7907
  761MOL0     H 2695   7.113   7.003   8.545  0.8703 -2.1208 -0.5043
  761MOL0     H 2696   7.129   7.108   8.763  0.2354 -0.1370  3.0687
  761MOL0     H 2697   7.230   6.970   9.234 -0.9436 -1.5027 -2.5572
  761MOL0     H 2698   7.256   7.061   9.458 -1.5952  0.8654  1.2296
  761MOL0     H 2699   7.209   7.428   9.506  1.3833  1.4588  1.6571
  761MOL0     H 2700   7.146   7.443   9.659  1.5428  0.8079  0.8563
  761MOL0     H 2701   7.322   7.267   9.742 -2.0260 -2.2540 -0.0530
  761MOL0     H 2702   7.363   7.226   9.582 -2.6550 -0.4543 -0.6725
  761MOL0     H 2703   7.538   7.371   9.661  1.2579  0.2254 -0.1806
  761MOL0     H 2704   7.437   7.462   9.543  1.3457 -1.4052 -0.6289
  761MOL0     H 2705   7.445   7.470   9.844 -1.1010 -2.8682 -0.5283
  761MOL0     H 2706   7.318   7.554   9.770 -0.5972 -1.5523  0.4667
  761MOL0     H 2707   7.619   7.594   9.723  0.3706  0.9879  3.0833
  761MOL0     H 2708   7.531   7.700   9.831  1.4108  0.1651 -0.5099
  761MOL0     H 2709   7.465   7.685   9.538 -1.2862  1.8685 -0.6975
  761MOL0     H 2710   7.405   7.800   9.650 -1.9383 -0.9490  0.5981
  761MOL0     H 2711   7.621   7.864   9.496  1.6904  1.5533 -0.0605
  761MOL0     H 2712   7.720   7.786   9.628  0.2491  0.1542 -2.0286
  761MOL0     H 2713   7.617   7.949   9.780  0.4833 -0.2961  1.2971
  761MOL0     H 2714   7.718   8.020   9.663 -1.3372  0.2171 -2.9966
  761MOL0     H 2715   6.940   7.341   9.401  2.9517  0.4555  1.8375
  761MOL0     H 2716   6.909   7.269   9.170 -3.5964 -1.9856  1.2157
  761MOL0     H 2717   6.822   6.818   8.888  1.9493 -2.1227  1.1725
  761MOL0     H 2718   6.838   6.711   8.659  1.3565 -0.8177 -1.2189
  761MOL0     H 2719   7.618   7.169   7.375  1.6450  0.9121  2.8458
  761MOL0     H 2720   7.460   7.048   7.231  2.7897 -2.0698 -1.8951
  761MOL0     H 2721   7.068   6.933   7.027  1.0041  0.6825  2.3404
  761MOL0     H 2722   6.951   6.790   6.887 -0.9977 -1.2751 -0.6036
  761MOL0     H 2723   7.004   6.583   6.572 -2.1536  2.6413 -0.5453
  761MOL0     H 2724   6.991   6.721   6.665 -3.1043  0.6750  0.8804
  761MOL0     H 2725   6.781   6.645   6.619 -0.4976  1.1285  1.8440
  761MOL0     H 2726   6.812   6.629   6.798 -0.6837 -3.1246  2.3201
  761MOL0     H 2727   6.809   6.396   6.605 -1.3059 -1.9362 -0.3728
  761MOL0     H 2728   6.667   6.451   6.683  0.0379 -4.6786 -0.1940
  761MOL0     H 2729   6.901   6.372   6.858 -0.0067  1.6582 -1.6735
  761MOL0     H 2730   6.747   6.445   6.909 -4.7805  0.2369 -2.9396
  761MOL0     H 2731   6.604   6.050   6.847 -1.5443  0.5263  0.8214
  761MOL0     H 2732   7.253   6.495   6.900 -0.1333  0.2049  0.9442
  761MOL0     H 2733   7.437   6.520   7.032  0.7502  1.1409 -1.7330
  761MOL0     H 2734   7.466   6.654   7.149 -1.5576  1.8300 -0.6309
  761MOL0     H 2735   7.364   6.539   7.199  3.2444  1.5740  1.2783
  762MOL0     O 2736   1.585   2.849   4.351  0.1816  0.1526 -0.6870
  762MOL0     C 2737   1.515   2.905   4.434  0.2323 -0.0527 -0.2819
  762MOL0     O 2738   1.551   2.930   4.553  0.1151 -0.0704 -0.8246
  762MOL0     C 2739   1.662   2.894   4.606 -1.4633  0.1930  0.3651
  762MOL0     C 2740   1.789   2.925   4.554 -0.1278 -0.2980 -0.1982
  762MOL0     C 2741   1.901   2.880   4.631  0.6495 -0.9816  0.2495
  762MOL0     C 2742   1.891   2.808   4.744  0.0996  0.4708 -0.1127
  762MOL0     O 2743   2.013   2.773   4.789 -0.8825  0.7956 -0.0637
  762MOL0     C 2744   2.026   2.742   4.930  0.6138  1.3741  0.1568
  762MOL0     C 2745   2.162   2.817   4.972  0.9291  0.3111 -0.1886
  762MOL0     C 2746   2.157   2.974   4.977 -0.1713  0.0065 -1.1318
  762MOL0     C 2747   2.139   3.052   4.850  0.4331 -0.8628  0.5949
  762MOL0     C 2748   2.113   3.197   4.870  0.0871 -0.3056 -0.9350
  762MOL0     C 2749   2.232   3.275   4.918 -0.6684  0.1236  0.1874
  762MOL0     C 2750   2.215   3.362   5.037 -0.6090 -0.0164  0.4959
  762MOL0     C 2751   2.096   3.465   5.025 -0.2278 -0.4905 -0.0923
  762MOL0     N 2752   2.130   3.583   5.100  0.5049  0.1498 -0.3872
  762MOL0     C 2753   2.099   3.711   5.062  0.3945  0.4994  0.5784
  762MOL0     C 2754   2.130   3.789   5.163  0.2549 -1.4049 -0.3243
  762MOL0     C 2755   2.131   3.943   5.150  0.7655  0.0790 -0.3663
  762MOL0     C 2756   2.000   4.007   5.188  0.8390  0.1954 -0.9075
  762MOL0     C 2757   1.968   4.032   5.334  0.2659  0.5555  0.0585
  762MOL0     C 2758   1.963   3.909   5.423 -0.0693  0.5721  0.4472
  762MOL0     O 2759   1.913   3.948   5.550 -0.0891  0.3272 -0.0504
  762MOL0     C 2760   1.923   3.849   5.644  0.3077  0.1379  0.3467
  762MOL0     C 2761   1.975   3.711   5.635 -0.6523 -0.1063  0.1524
  762MOL0     C 2762   1.973   3.620   5.740 -0.0697  0.1272  0.5595
  762MOL0     C 2763   1.928   3.663   5.863 -0.5389 -0.0243 -0.2960
  762MOL0     C 2764   1.913   3.569   5.976 -0.0325 -1.0120  0.0553
  762MOL0     O 2765   1.919   3.626   6.101 -0.0046  0.1379 -1.2056
  762MOL0     C 2766   1.944   3.559   6.224 -0.2804 -0.6016 -0.3059
  762MOL0     C 2767   1.996   3.643   6.323  0.5700  0.1777 -0.2412
  762MOL0     C 2768   2.023   3.599   6.445 -0.1711 -0.7771 -0.8054
  762MOL0     C 2769   1.990   3.471   6.476  0.6583  0.2092 -0.5642
  762MOL0     O 2770   2.032   3.445   6.608 -0.2101  0.5733 -1.0321
  762MOL0     C 2771   2.021   3.317   6.675 -0.6947 -0.0098  0.2665
  762MOL0     C 2772   2.164   3.280   6.731 -0.4416 -0.5200  0.1980
  762MOL0     C 2773   2.157   3.140   6.801  1.1613  0.2644 -0.2009
  762MOL0     C 2774   2.286   3.102   6.874  1.8644 -0.3818  0.0815
  762MOL0     C 2775   2.308   2.955   6.884 -0.1170  1.1425  0.1684
  762MOL0     C 2776   2.330   2.885   6.743 -0.2261 -0.2158  0.4749
  762MOL0     C 2777   2.415   2.762   6.759 -0.3764  0.1273  0.2178
  762MOL0     C 2778   2.430   2.686   6.625  0.5037 -0.4550  0.2091
  762MOL0    Cl 2779   2.533   2.786   6.522 -0.6963  0.4594 -0.1423
  762MOL0     C 2780   1.940   3.377   6.383 -0.4446 -0.2192  0.7818
  762MOL0     C 2781   1.915   3.429   6.259 -0.3793 -0.3782 -0.1714
  762MOL0     O 2782   1.953   3.454   5.946  0.4622  0.0340 -0.0922
  762MOL0     C 2783   1.870   3.790   5.882 -0.0520 -0.4402 -0.5839
  762MOL0     C 2784   1.875   3.889   5.773  0.2197 -0.9770 -0.4502
  762MOL0     N 2785   2.177   3.717   5.270  0.4139 -0.6984 -0.0729
  762MOL0     N 2786   2.179   3.594   5.234  0.7457  0.2604  1.0672
  762MOL0     C 2787   1.767   2.774   4.796  0.5734  0.4244 -0.2689
  762MOL0     C 2788   1.651   2.821   4.726 -0.4464  0.5605  0.2343
  762MOL0     C 2789   1.387   2.969   4.386 -0.2537 -0.1415  0.5851
  762MOL0     C 2790   1.356   2.951   4.251 -0.1427 -0.0605 -0.9067
  762MOL0     C 2791   1.240   2.992   4.197 -0.8871 -0.1641  0.2257
  762MOL0     C 2792   1.147   3.070   4.274 -0.7556  0.0529 -0.0582
  762MOL0     O 2793   1.041   3.129   4.203  0.2244 -0.2392 -0.0996
  762MOL0     C 2794   0.925   3.156   4.285 -0.2438 -0.2230  0.0103
  762MOL0     C 2795   0.800   3.163   4.190  0.4969 -1.0810  0.3306
  762MOL0     C 2796   0.758   3.015   4.150 -0.8989  0.5812 -0.1680
  762MOL0     C 2797   0.646   3.008   4.044  0.0972  0.3006 -0.7174
  762MOL0     C 2798   0.519   3.038   4.112  0.3771  0.5479 -0.1985
  762MOL0     C 2799   0.422   3.071   4.183  0.3173 -0.5844 -0.5688
  762MOL0     C 2800   1.170   3.086   4.412 -0.8817 -0.4364  0.0233
  762MOL0     C 2801   1.290   3.045   4.466 -0.7873  1.0011  0.1083
  762MOL0     C 2802   1.311   3.073   4.619 -0.7611  0.1785 -0.3968
  762MOL0     H 2803   1.792   2.978   4.460 -1.6380 -0.0467 -0.1269
  762MOL0     H 2804   2.002   2.903   4.601 -0.1025  0.9585 -1.0051
  762MOL0     H 2805   1.943   2.761   4.998  0.2942  1.3286 -0.2207
  762MOL0     H 2806   2.047   2.636   4.947  3.6872  2.0810  1.6384
  762MOL0     H 2807   2.257   2.790   4.926  1.7733  0.1655  1.5564
  762MOL0     H 2808   2.175   2.808   5.080 -1.2912  5.1461  0.7332
  762MOL0     H 2809   2.252   3.007   5.019  1.4430 -3.4912 -1.6686
  762MOL0     H 2810   2.069   3.005   5.033 -1.5017 -0.9586 -2.5988
  762MOL0     H 2811   2.221   3.038   4.778  0.2382 -1.4621  0.4835
  762MOL0     H 2812   2.048   3.015   4.804  1.3329 -1.7283 -0.5518
  762MOL0     H 2813   2.075   3.238   4.776 -0.3314 -0.0713 -0.6696
  762MOL0     H 2814   2.025   3.200   4.936 -0.4850 -3.2260 -1.4438
  762MOL0     H 2815   2.318   3.207   4.928 -2.3805 -2.0106  1.1494
  762MOL0     H 2816   2.266   3.331   4.830  3.3793 -3.7918 -1.1762
  762MOL0     H 2817   2.308   3.419   5.029 -0.5007 -0.3232 -0.6296
  762MOL0     H 2818   2.201   3.315   5.135 -5.0350 -2.1755 -0.9010
  762MOL0     H 2819   2.082   3.491   4.919  0.6893  2.8023  0.4704
  762MOL0     H 2820   2.010   3.412   5.067 -1.5461  1.5999  0.0000
  762MOL0     H 2821   2.069   3.746   4.964 -0.2160  3.7678  1.7813
  762MOL0     H 2822   2.216   3.975   5.210  0.0008 -1.9524  1.9554
  762MOL0     H 2823   2.144   3.985   5.049  1.2756  0.1163 -0.2862
  762MOL0     H 2824   1.992   4.104   5.139  1.5871 -0.0128 -1.4517
  762MOL0     H 2825   1.920   3.941   5.151 -0.7407 -0.6444  3.4140
  762MOL0     H 2826   1.881   4.097   5.343  0.4667  0.6086  2.2382
  762MOL0     H 2827   2.047   4.101   5.366  0.4278 -1.2356  4.1378
  762MOL0     H 2828   2.062   3.864   5.433  0.0141  0.3792 -1.0103
  762MOL0     H 2829   1.894   3.845   5.368 -0.9144  1.0961  0.8727
  762MOL0     H 2830   2.005   3.678   5.537 -0.9888  1.1251 -0.3861
  762MOL0     H 2831   2.004   3.521   5.709  1.9427  1.8547 -3.7388
  762MOL0     H 2832   2.039   3.739   6.298  0.6479  0.3943  0.7102
  762MOL0     H 2833   2.074   3.659   6.519  1.6171 -1.6693 -1.2514
  762MOL0     H 2834   1.943   3.326   6.751 -0.8363  1.2144  0.0010
  762MOL0     H 2835   1.992   3.243   6.599  0.8463  0.7214 -1.0998
  762MOL0     H 2836   2.225   3.282   6.640 -2.7865  2.7861 -1.5171
  762MOL0     H 2837   2.196   3.358   6.801  1.2034 -2.8944  2.2429
  762MOL0     H 2838   2.079   3.150   6.876 -0.6206 -0.1889 -1.9117
  762MOL0     H 2839   2.133   3.069   6.720  3.9251 -1.1923  0.1338
  762MOL0     H 2840   2.281   3.156   6.969 -1.9153 -0.9468  0.3382
  762MOL0     H 2841   2.369   3.132   6.808  1.5378  0.2455 -0.0556
  762MOL0     H 2842   2.227   2.906   6.939 -0.7500  0.2805 -1.4687
  762MOL0     H 2843   2.403   2.943   6.936 -0.8068 -2.4024  0.8959
  762MOL0     H 2844   2.237   2.850   6.696  0.6181 -2.0685  0.1095
  762MOL0     H 2845   2.383   2.956   6.678 -0.3609  0.9661  1.6180
  762MOL0     H 2846   2.361   2.700   6.831 -3.3801  1.0984 -1.0499
  762MOL0     H 2847   2.517   2.788   6.790 -1.3349  1.2530  2.6763
  762MOL0     H 2848   2.479   2.593   6.655 -2.5621 -1.6656  1.8979
  762MOL0     H 2849   2.335   2.656   6.580  2.2080 -2.7418 -2.2504
  762MOL0     H 2850   1.916   3.274   6.406  1.4168 -0.8524  0.0124
  762MOL0     H 2851   1.873   3.359   6.188 -2.4945  1.7164 -1.1481
  762MOL0     H 2852   1.827   3.817   5.978 -0.0240  1.4144 -1.0553
  762MOL0     H 2853   1.836   3.990   5.774 -0.2099 -1.1346 -0.8305
  762MOL0     H 2854   1.748   2.724   4.891  0.9072 -1.0837 -0.9751
  762MOL0     H 2855   1.556   2.794   4.771  0.3747 -0.1741  1.6099
  762MOL0     H 2856   1.421   2.896   4.183 -1.1593 -0.4132 -1.6288
  762MOL0     H 2857   1.235   2.968   4.091 -0.1964 -0.6853  0.2953
  762MOL0     H 2858   0.940   3.247   4.343  0.0888  0.6421 -1.3738
  762MOL0     H 2859   0.914   3.081   4.364 -0.9360 -0.0173  0.1174
  762MOL0     H 2860   0.806   3.219   4.096 -1.6911  0.3993  1.0096
  762MOL0     H 2861   0.733   3.224   4.252  1.0876 -0.1033  0.0294
  762MOL0     H 2862   0.716   2.970   4.240 -2.7545 -0.5605 -1.5197
  762MOL0     H 2863   0.848   2.961   4.119 -0.7399  0.2803  0.7806
  762MOL0     H 2864   0.664   3.090   3.974 -1.0711  1.1120 -0.1011
  762MOL0     H 2865   0.654   2.911   3.993  2.3365  1.0829 -1.9516
  762MOL0     H 2866   0.347   3.125   4.238 -0.5223 -1.1015 -1.1698
  762MOL0     H 2867   1.087   3.118   4.474  2.6792  4.2627  3.0234
  762MOL0     H 2868   1.402   3.133   4.629  0.5658 -1.4981 -1.8326
  762MOL0     H 2869   1.232   3.124   4.675 -1.1135 -1.6537  0.8511
  762MOL0     H 2870   1.314   2.978   4.671 -1.1831  2.0755  3.4461
  763MOL0     O 2871   0.406   4.897   3.621  0.7067  0.9245  0.6023
  763MOL0     C 2872   0.379   4.867   3.740  0.1828  0.5718 -0.7625
  763MOL0     O 2873   0.341   4.740   3.776 -0.7315 -0.2916  0.0349
  763MOL0     C 2874   0.336   4.647   3.677 -0.0788 -0.4184 -0.4556
  763MOL0     C 2875   0.232   4.634   3.588 -0.0129 -0.3368  0.9002
  763MOL0     C 2876   0.233   4.525   3.489  0.1756  0.2466 -0.8034
  763MOL0     C 2877   0.334   4.434   3.475 -0.0262 -0.0222  0.4240
  763MOL0     O 2878   0.322   4.330   3.389 -0.0953  0.5003 -0.0153
  763MOL0     C 2879   0.427   4.300   3.298  0.5374 -0.2219  0.9143
  763MOL0     C 2880   0.426   4.164   3.228  0.2760 -0.0651 -0.3627
  763MOL0     C 2881   0.298   4.156   3.132 -0.6223  0.6687 -0.2743
  763MOL0     C 2882   0.284   4.031   3.050 -0.3572 -0.7067  0.2038
  763MOL0     C 2883   0.283   3.908   3.134  0.7251  0.0897  0.5998
  763MOL0     C 2884   0.141   3.882   3.190  0.6637  0.8478 -0.3824
  763MOL0     C 2885   0.145   3.753   3.279  0.0096  0.7699  0.4943
  763MOL0     C 2886   0.205   3.769   3.424 -0.5593 -0.6407  0.5341
  763MOL0     N 2887   0.166   3.649   3.509 -0.7542 -0.7667  0.8014
  763MOL0     C 2888   0.045   3.598   3.532 -0.3448 -0.4079 -0.5798
  763MOL0     C 2889   0.071   3.482   3.608 -0.2135 -0.0093 -1.2493
  763MOL0     C 2890  -0.033   3.389   3.670 -0.9272 -0.1900  0.4785
  763MOL0     C 2891  -0.140   3.464   3.754 -0.1602 -0.4004  0.6252
  763MOL0     C 2892  -0.222   3.366   3.839 -0.2020 -0.1339 -0.8293
  763MOL0     C 2893  -0.322   3.288   3.754 -0.9621  0.5854 -0.3471
  763MOL0     O 2894  -0.371   3.173   3.818 -0.5077  0.6211 -0.7751
  763MOL0     C 2895  -0.289   3.062   3.828  0.0465 -0.0935  0.5481
  763MOL0     C 2896  -0.155   3.052   3.789  0.1743  0.1117 -0.6224
  763MOL0     C 2897  -0.070   2.955   3.831 -0.4273 -0.2308 -0.3241
  763MOL0     C 2898  -0.116   2.847   3.905  0.1679  0.0249 -0.1415
  763MOL0     C 2899  -0.029   2.748   3.960 -0.1341  0.4055 -0.0762
  763MOL0     O 2900   0.104   2.776   3.961  0.6514 -0.0816  0.5653
  763MOL0     C 2901   0.190   2.678   3.991  0.4370 -0.9609  0.5827
  763MOL0     C 2902   0.177   2.540   3.962 -0.1406 -0.3055  0.6293
  763MOL0     C 2903   0.285   2.460   4.002  0.4662 -0.0997 -1.0629
  763MOL0     C 2904   0.406   2.507   4.039  0.6187  0.3061  0.9038
  763MOL0     O 2905   0.510   2.420   4.075  0.3688  0.2619 -0.2288
  763MOL0     C 2906   0.610   2.464   4.170 -0.4455 -0.9089  0.3119
  763MOL0     C 2907   0.710   2.349   4.188 -0.2241 -0.1256  0.7885
  763MOL0     C 2908   0.834   2.401   4.268  0.6036 -0.9076  0.6821
  763MOL0     C 2909   0.874   2.322   4.393 -0.1259 -0.4186 -0.7641
  763MOL0     C 2910   0.921   2.173   4.366 -0.7457  0.1961 -0.1715
  763MOL0     C 2911   1.025   2.160   4.252 -0.4360 -0.9949  0.4123
  763MOL0     C 2912   1.093   2.015   4.249  0.1092  0.1527  0.2862
  763MOL0     C 2913   0.989   1.914   4.204  0.2517  1.4831  0.6921
  763MOL0    Cl 2914   1.091   1.765   4.189 -0.1766 -0.0865  0.2559
  763MOL0     C 2915   0.414   2.641   4.059  0.2735 -0.1512  0.5174
  763MOL0     C 2916   0.307   2.731   4.034 -0.5338  0.3514 -0.5067
  763MOL0     O 2917  -0.078   2.642   4.004  0.2828  0.0256 -0.4978
  763MOL0     C 2918  -0.260   2.845   3.934  0.1673  0.1317 -0.3693
  763MOL0     C 2919  -0.339   2.952   3.894  0.4302 -0.2440  0.3673
  763MOL0     N 2920   0.208   3.479   3.631 -0.3322  0.7480 -0.6995
  763MOL0     N 2921   0.261   3.579   3.575 -0.4779  0.4220  0.0737
  763MOL0     C 2922   0.436   4.440   3.578  0.3920  0.0073 -0.6421
  763MOL0     C 2923   0.439   4.543   3.668  0.7047  1.0645 -0.3853
  763MOL0     C 2924   0.354   4.979   3.831  0.2850 -1.0668  0.4839
  763MOL0     C 2925   0.270   4.974   3.942  0.2411 -0.4310 -1.1717
  763MOL0     C 2926   0.231   5.089   4.010  0.7872  0.1344  0.3491
  763MOL0     C 2927   0.283   5.212   3.978 -0.2342 -0.5834  0.4820
  763MOL0     O 2928   0.248   5.315   4.056 -0.4664 -0.2326 -0.7422
  763MOL0     C 2929   0.268   5.449   4.012  0.1988 -0.0056  0.4281
  763MOL0     C 2930   0.199   5.544   4.100  0.3557 -0.5229  0.4065
  763MOL0     C 2931   0.051   5.507   4.136  1.0758  0.2317 -0.1183
  763MOL0     C 2932   0.017   5.588   4.263 -0.7972 -0.7089  0.6586
  763MOL0     C 2933  -0.125   5.588   4.287 -0.2813  0.0528 -0.0455
  763MOL0     C 2934  -0.237   5.597   4.308 -0.8934 -0.0902 -0.3401
  763MOL0     C 2935   0.377   5.218   3.875 -0.0642 -0.3507  0.7043
  763MOL0     C 2936   0.421   5.106   3.803 -0.2104 -1.5071  0.6074
  763MOL0     C 2937   0.537   5.132   3.702  0.0949 -0.7342 -0.1327
  763MOL0     H 2938   0.154   4.709   3.595  1.1665  1.1501 -0.8326
  763MOL0     H 2939   0.154   4.523   3.414 -0.8165 -1.7284  0.2151
  763MOL0     H 2940   0.430   4.379   3.223 -2.7158  0.3370  1.2079
  763MOL0     H 2941   0.505   4.306   3.375  0.0412 -1.0802  1.5076
  763MOL0     H 2942   0.425   4.083   3.302  1.8039 -0.5588 -0.8424
  763MOL0     H 2943   0.522   4.149   3.178  1.4921 -0.0857  1.8456
  763MOL0     H 2944   0.296   4.243   3.066 -2.1754  2.5000  2.0208
  763MOL0     H 2945   0.208   4.168   3.192 -0.4364  2.6344 -0.3073
  763MOL0     H 2946   0.200   4.040   2.981  1.1677 -0.0565 -1.6636
  763MOL0     H 2947   0.381   4.025   3.000  0.4982  2.7270  1.1625
  763MOL0     H 2948   0.294   3.820   3.070  3.0608  2.1460 -2.0986
  763MOL0     H 2949   0.357   3.900   3.215 -1.8185 -2.4933  2.8936
  763MOL0     H 2950   0.104   3.967   3.248 -0.3589 -0.6821  1.3243
  763MOL0     H 2951   0.066   3.883   3.110  0.2095  2.3724  0.0329
  763MOL0     H 2952   0.203   3.676   3.227 -0.8108  1.7214 -1.9482
  763MOL0     H 2953   0.043   3.719   3.297 -0.1861  1.3502  0.4955
  763MOL0     H 2954   0.309   3.796   3.439 -0.2083 -1.8337  0.3525
  763MOL0     H 2955   0.152   3.851   3.475  0.7127  1.2415 -1.0152
  763MOL0     H 2956  -0.051   3.626   3.490 -2.1257 -0.5828  3.0019
  763MOL0     H 2957  -0.076   3.335   3.585 -1.7368  0.7701  0.2573
  763MOL0     H 2958   0.014   3.315   3.736 -2.0053  0.7091  2.3251
  763MOL0     H 2959  -0.094   3.541   3.816 -2.4689  0.7091  1.0768
  763MOL0     H 2960  -0.207   3.513   3.683 -0.1605 -1.2017  0.0563
  763MOL0     H 2961  -0.270   3.423   3.919  1.3724 -2.4791  1.9719
  763MOL0     H 2962  -0.162   3.300   3.902 -0.9043  0.6900  0.7572
  763MOL0     H 2963  -0.282   3.251   3.659 -0.8488 -2.9407  0.9354
  763MOL0     H 2964  -0.413   3.347   3.741 -2.8746 -1.4964  2.3371
  763MOL0     H 2965  -0.115   3.138   3.737 -0.2671  0.9809  0.4155
  763MOL0     H 2966   0.030   2.975   3.793 -2.0544  2.7289 -3.4921
  763MOL0     H 2967   0.088   2.510   3.907 -2.3188  1.4464  2.9249
  763MOL0     H 2968   0.269   2.353   3.997 -0.9130  0.0971 -1.2679
  763MOL0     H 2969   0.672   2.549   4.140 -0.6566 -0.0354  2.2188
  763MOL0     H 2970   0.567   2.484   4.268 -0.9658 -0.0761 -0.0742
  763MOL0     H 2971   0.644   2.272   4.231 -3.3451  1.8586 -0.0713
  763MOL0     H 2972   0.735   2.322   4.085 -2.6214 -0.0301  0.1194
  763MOL0     H 2973   0.917   2.396   4.197 -0.8817  0.3245 -1.2574
  763MOL0     H 2974   0.815   2.508   4.286  1.4448 -0.2669 -1.7661
  763MOL0     H 2975   0.793   2.323   4.466 -0.4243 -1.0739 -1.0711
  763MOL0     H 2976   0.948   2.380   4.448  0.5584 -1.6557 -0.3350
  763MOL0     H 2977   0.846   2.093   4.358  0.4600 -1.0169  0.2881
  763MOL0     H 2978   0.975   2.144   4.457 -0.6018 -2.4902 -1.0373
  763MOL0     H 2979   0.980   2.177   4.154 -1.4556 -1.2502  0.8227
  763MOL0     H 2980   1.108   2.229   4.272 -0.5948 -1.1252  1.6474
  763MOL0     H 2981   1.126   1.988   4.349  2.8574  0.4543 -0.4727
  763MOL0     H 2982   1.179   2.008   4.183  0.3043  0.1131  0.5445
  763MOL0     H 2983   0.908   1.890   4.275 -0.2020 -2.4016 -0.8827
  763MOL0     H 2984   0.955   1.938   4.103  0.8140  1.6334  0.5381
  763MOL0     H 2985   0.508   2.686   4.090  1.3485 -1.5730 -0.5283
  763MOL0     H 2986   0.326   2.837   4.042  0.8567  0.0821  0.0829
  763MOL0     H 2987  -0.315   2.768   3.988 -2.6116  2.8329  0.9852
  763MOL0     H 2988  -0.442   2.971   3.922 -1.0927  0.3341 -4.5041
  763MOL0     H 2989   0.508   4.359   3.570  1.8684  0.8677  2.5013
  763MOL0     H 2990   0.513   4.547   3.747 -1.2900  2.4617  1.5074
  763MOL0     H 2991   0.223   4.880   3.971 -0.4030  0.9017  2.6836
  763MOL0     H 2992   0.149   5.080   4.081 -0.3216  2.2198 -0.5689
  763MOL0     H 2993   0.234   5.454   3.908  3.6993 -4.2006 -1.2509
  763MOL0     H 2994   0.374   5.476   4.016  0.0790  1.7141 -3.3590
  763MOL0     H 2995   0.214   5.645   4.061 -0.1467  0.4050  2.4373
  763MOL0     H 2996   0.260   5.549   4.191  1.3815  4.0100 -0.2712
  763MOL0     H 2997   0.034   5.400   4.151  1.3043  0.1026 -0.7542
  763MOL0     H 2998  -0.015   5.534   4.053  0.3116 -2.2108 -0.3868
  763MOL0     H 2999   0.065   5.535   4.346  0.9050  0.3385  0.4012
  763MOL0     H 3000   0.039   5.694   4.250 -2.6942 -0.4198 -0.4804
  763MOL0     H 3001  -0.338   5.591   4.343  0.6481 -4.5241  4.7731
  763MOL0     H 3002   0.415   5.314   3.842  0.5282 -1.2259 -1.2855
  763MOL0     H 3003   0.607   5.051   3.726  0.0242 -1.4704 -2.1913
  763MOL0     H 3004   0.501   5.121   3.599  0.2766  0.9551 -0.3973
  763MOL0     H 3005   0.583   5.230   3.715 -2.6928  0.6437 -0.0163
  764MOL0     O 3006   4.566   6.193   6.297  0.3202  0.7358 -0.3739
  764MOL0     C 3007   4.608   6.156   6.402 -0.9026  0.2537 -0.1078
  764MOL0     O 3008   4.583   6.045   6.468 -0.2463 -0.8713  0.3749
  764MOL0     C 3009   4.516   5.954   6.394 -0.5874  0.2784  0.3080
  764MOL0     C 3010   4.581   5.871   6.289  0.9538  0.8599 -0.2268
  764MOL0     C 3011   4.501   5.790   6.202  0.0183 -0.0632 -0.7716
  764MOL0     C 3012   4.369   5.764   6.238 -0.4217 -0.6590  0.0405
  764MOL0     O 3013   4.296   5.675   6.165  0.6377 -0.2736 -0.7272
  764MOL0     C 3014   4.164   5.716   6.117 -0.1605  0.0417  0.2891
  764MOL0     C 3015   4.156   5.656   5.969  0.2716 -0.0580 -0.3490
  764MOL0     C 3016   4.243   5.737   5.867  0.4102 -0.6070  0.6601
  764MOL0     C 3017   4.252   5.655   5.741 -0.0489 -0.3664 -0.0535
  764MOL0     C 3018   4.355   5.544   5.751  1.0143  0.7264 -0.2256
  764MOL0     C 3019   4.305   5.418   5.683  0.1204  0.6455  1.0636
  764MOL0     C 3020   4.319   5.423   5.531 -0.6355  0.4826  0.3166
  764MOL0     C 3021   4.188   5.437   5.452 -1.0204 -0.4231 -0.1657
  764MOL0     N 3022   4.204   5.527   5.334 -0.2136  0.2042  0.7087
  764MOL0     C 3023   4.294   5.522   5.236 -0.1591 -0.2463  0.5097
  764MOL0     C 3024   4.256   5.618   5.147 -0.8520 -0.3057 -0.2685
  764MOL0     C 3025   4.327   5.659   5.023  0.0243 -0.2667  0.0118
  764MOL0     C 3026   4.420   5.787   5.034 -0.7536  0.5915  0.1532
  764MOL0     C 3027   4.476   5.828   4.900  0.9895  0.4816  0.2999
  764MOL0     C 3028   4.500   5.981   4.888  0.1278  0.3805 -0.1581
  764MOL0     O 3029   4.613   5.995   4.802  0.1088  0.0469  0.3986
  764MOL0     C 3030   4.738   5.960   4.845  0.3466  0.4788  0.8916
  764MOL0     C 3031   4.774   5.938   4.975 -0.5754 -0.5022  0.7547
  764MOL0     C 3032   4.912   5.935   5.013  0.2147  1.3229  0.6956
  764MOL0     C 3033   5.014   5.956   4.918  0.3111 -0.4714 -0.4133
  764MOL0     C 3034   5.157   5.947   4.955  0.5007 -0.1280  0.2054
  764MOL0     O 3035   5.252   5.963   4.860  0.2975  0.2831  0.3541
  764MOL0     C 3036   5.381   5.942   4.888  0.5034  1.1729  0.6817
  764MOL0     C 3037   5.443   5.818   4.900  0.0796  0.1760 -0.2490
  764MOL0     C 3038   5.582   5.812   4.925 -1.0969 -0.6282  0.4176
  764MOL0     C 3039   5.661   5.927   4.921  0.0947  0.4185 -0.2158
  764MOL0     O 3040   5.789   5.899   4.921 -1.0519 -0.8512  0.1713
  764MOL0     C 3041   5.885   5.987   4.969  0.6157 -0.7819 -0.5069
  764MOL0     C 3042   6.022   5.933   4.972  0.1181 -0.0141 -0.8253
  764MOL0     C 3043   6.121   6.041   5.007  0.3638  0.0327 -0.6276
  764MOL0     C 3044   6.265   5.993   5.030  0.2416  0.0301  0.3309
  764MOL0     C 3045   6.351   6.114   5.057  0.4648  0.7229  0.2520
  764MOL0     C 3046   6.485   6.076   5.110  1.3766 -0.3929  0.8986
  764MOL0     C 3047   6.576   6.201   5.118  0.1370 -0.4945 -0.0367
  764MOL0     C 3048   6.712   6.156   5.174  0.0558 -0.2195  0.1110
  764MOL0    Cl 3049   6.721   6.063   5.313  0.1811 -0.2228  0.3827
  764MOL0     C 3050   5.599   6.055   4.909 -0.0842 -0.0385  0.7251
  764MOL0     C 3051   5.460   6.057   4.887 -0.6863  0.3975  0.3192
  764MOL0     O 3052   5.172   5.919   5.074 -0.4848 -0.7384 -0.0770
  764MOL0     C 3053   4.979   5.992   4.793  0.0663 -0.8846  0.6393
  764MOL0     C 3054   4.846   5.989   4.752 -0.0713  0.7554 -0.6085
  764MOL0     N 3055   4.156   5.686   5.198  0.1588 -0.4660  0.3032
  764MOL0     N 3056   4.123   5.634   5.302 -0.7616  0.1971 -0.7766
  764MOL0     C 3057   4.309   5.839   6.339 -0.3855 -0.2595 -0.6761
  764MOL0     C 3058   4.378   5.937   6.414 -0.4056  0.1316  0.2687
  764MOL0     C 3059   4.712   6.240   6.458  0.1871  1.0456 -0.1968
  764MOL0     C 3060   4.847   6.215   6.416 -0.3734  0.3478 -0.1728
  764MOL0     C 3061   4.952   6.264   6.487  0.3809 -0.0900  0.2178
  764MOL0     C 3062   4.939   6.344   6.604 -0.2081 -1.1768  0.4065
  764MOL0     O 3063   5.047   6.391   6.660  0.5094  0.0635  0.0351
  764MOL0     C 3064   5.140   6.300   6.720 -0.1941  0.1238  0.2581
  764MOL0     C 3065   5.237   6.347   6.826 -0.4414  0.3017 -0.2676
  764MOL0     C 3066   5.265   6.221   6.917 -0.6578 -0.0204  0.2497
  764MOL0     C 3067   5.355   6.254   7.035  0.6241  0.3683 -0.2438
  764MOL0     C 3068   5.276   6.308   7.146  0.2266  0.3533 -1.0644
  764MOL0     C 3069   5.206   6.363   7.223 -0.0540  0.6389  0.0464
  764MOL0     C 3070   4.803   6.377   6.640  0.6417 -0.5595 -0.4366
  764MOL0     C 3071   4.687   6.322   6.569 -0.4139  0.1613  0.6552
  764MOL0     C 3072   4.553   6.362   6.613  0.5122  0.3500 -0.1660
  764MOL0     H 3073   4.689   5.870   6.279  1.0262  2.4182  0.1122
  764MOL0     H 3074   4.545   5.735   6.119 -0.3164 -1.1035 -0.2819
  764MOL0     H 3075   4.099   5.664   6.188 -0.0688 -2.9787 -1.6284
  764MOL0     H 3076   4.151   5.824   6.111 -0.0285  0.0107 -0.6042
  764MOL0     H 3077   4.051   5.653   5.937  0.0092  3.2574 -0.0855
  764MOL0     H 3078   4.202   5.557   5.977  0.1026 -0.0624  0.7798
  764MOL0     H 3079   4.337   5.760   5.918 -1.0639  3.0361  2.0927
  764MOL0     H 3080   4.185   5.827   5.844 -0.5163 -1.6145 -1.1830
  764MOL0     H 3081   4.155   5.611   5.714  0.5404 -0.9316 -1.3218
  764MOL0     H 3082   4.282   5.720   5.658 -1.0770  1.1678  0.7190
  764MOL0     H 3083   4.448   5.581   5.706 -0.4002  4.2778 -0.5374
  764MOL0     H 3084   4.381   5.529   5.856 -2.6100  0.4480  0.7695
  764MOL0     H 3085   4.366   5.332   5.712  1.3938  0.9970 -0.4307
  764MOL0     H 3086   4.199   5.403   5.704 -0.0178  1.6293  1.0931
  764MOL0     H 3087   4.374   5.334   5.500  2.2915  1.1969  2.9597
  764MOL0     H 3088   4.382   5.506   5.498 -0.7296 -0.3817 -2.2180
  764MOL0     H 3089   4.143   5.339   5.435 -0.0764 -1.0205  0.6307
  764MOL0     H 3090   4.118   5.484   5.522  0.9121 -0.8496  2.2233
  764MOL0     H 3091   4.381   5.457   5.226  2.8079  2.7991  3.6297
  764MOL0     H 3092   4.389   5.579   4.983  2.1680  1.4953 -0.4122
  764MOL0     H 3093   4.258   5.686   4.943 -0.6958  0.6651  0.9125
  764MOL0     H 3094   4.360   5.872   5.069 -1.2191  0.3638 -0.0875
  764MOL0     H 3095   4.507   5.765   5.097  0.1838 -1.3988 -1.7359
  764MOL0     H 3096   4.404   5.792   4.826 -0.0956  1.4295  0.8613
  764MOL0     H 3097   4.569   5.773   4.881  0.8267  0.6373 -1.0003
  764MOL0     H 3098   4.522   6.029   4.984 -1.6654 -2.9730  2.1397
  764MOL0     H 3099   4.415   6.029   4.838  0.7973  1.0172 -0.7117
  764MOL0     H 3100   4.694   5.932   5.048 -0.5077  1.8965  1.1325
  764MOL0     H 3101   4.939   5.909   5.115  3.0279  4.2265  0.8662
  764MOL0     H 3102   5.380   5.734   4.876 -1.0676  0.3146  2.0105
  764MOL0     H 3103   5.630   5.715   4.933  0.0054 -0.2972 -1.4985
  764MOL0     H 3104   5.895   6.064   4.892 -2.6393  0.6120  0.2967
  764MOL0     H 3105   5.857   6.022   5.068  1.7955  0.4524 -0.5869
  764MOL0     H 3106   6.029   5.864   5.057 -0.9853 -1.1288 -1.6026
  764MOL0     H 3107   6.043   5.888   4.875 -0.0259  1.6699 -1.6664
  764MOL0     H 3108   6.113   6.123   4.936 -0.2102  0.0241 -0.5746
  764MOL0     H 3109   6.094   6.085   5.104  1.4449 -2.9711  1.1848
  764MOL0     H 3110   6.303   5.931   4.949 -0.5926  3.6993 -3.1922
  764MOL0     H 3111   6.267   5.931   5.120 -4.5423 -3.6112 -1.6539
  764MOL0     H 3112   6.302   6.190   5.118 -0.2880  1.0874 -0.7864
  764MOL0     H 3113   6.363   6.165   4.961 -1.4327  3.4647  1.3417
  764MOL0     H 3114   6.466   6.037   5.211 -1.5839  0.2431  0.6692
  764MOL0     H 3115   6.523   5.998   5.043 -0.3325  2.2458 -3.5754
  764MOL0     H 3116   6.534   6.271   5.190  0.4743 -0.0106 -0.3020
  764MOL0     H 3117   6.605   6.253   5.026  2.2948 -0.3603  0.6647
  764MOL0     H 3118   6.762   6.107   5.089 -1.9719 -1.8657 -0.2067
  764MOL0     H 3119   6.764   6.249   5.200  0.4712 -0.2432 -0.5905
  764MOL0     H 3120   5.672   6.135   4.908  0.3977 -0.4714  0.7914
  764MOL0     H 3121   5.422   6.157   4.864  1.9967  1.6019  0.6798
  764MOL0     H 3122   5.057   6.021   4.723  0.1604 -1.2072  0.6108
  764MOL0     H 3123   4.818   6.019   4.652 -0.1473  1.9356 -0.2417
  764MOL0     H 3124   4.202   5.839   6.360 -0.4592 -0.7337 -1.0493
  764MOL0     H 3125   4.327   5.998   6.488  1.2200  2.4248 -0.4195
  764MOL0     H 3126   4.863   6.165   6.322 -0.8901 -1.1345  0.4955
  764MOL0     H 3127   5.049   6.242   6.444  0.9147 -1.4677  1.9846
  764MOL0     H 3128   5.188   6.243   6.640 -1.2255 -3.8379  2.2357
  764MOL0     H 3129   5.078   6.225   6.771 -1.3886  1.8863  1.5261
  764MOL0     H 3130   5.195   6.434   6.878  0.6461  2.3815 -2.6453
  764MOL0     H 3131   5.324   6.380   6.769  0.9163 -0.5886  1.2373
  764MOL0     H 3132   5.316   6.154   6.847  1.3755  0.7886  0.8750
  764MOL0     H 3133   5.184   6.157   6.955 -0.2007 -2.0478 -1.9363
  764MOL0     H 3134   5.408   6.159   7.048  0.7078  0.3983 -0.3653
  764MOL0     H 3135   5.431   6.329   7.015 -0.8731  2.2522  0.8533
  764MOL0     H 3136   5.162   6.423   7.301 -0.5730 -1.4694  1.4686
  764MOL0     H 3137   4.800   6.441   6.727  2.0628 -2.0530  0.7681
  764MOL0     H 3138   4.561   6.373   6.722 -0.9375  0.4114 -0.0495
  764MOL0     H 3139   4.520   6.457   6.573 -0.3874  0.4204  0.7147
  764MOL0     H 3140   4.474   6.288   6.598  0.1982  1.3966 -5.3837
  765MOL0     O 3141   3.715   8.014   9.574  1.0258  0.0402  0.8438
  765MOL0     C 3142   3.813   8.055   9.507  0.1102  0.0429  0.9231
  765MOL0     O 3143   3.895   8.151   9.552 -0.3591  0.7751  0.4741
  765MOL0     C 3144   3.859   8.237   9.656  0.1037 -0.0923 -0.2983
  765MOL0     C 3145   3.733   8.290   9.676  0.6171 -0.1168  1.5629
  765MOL0     C 3146   3.706   8.388   9.772 -0.3503 -0.7183 -0.1740
  765MOL0     C 3147   3.805   8.435   9.855  0.2814  0.5960  0.1354
  765MOL0     O 3148   3.775   8.529   9.945 -0.6330  0.5286  0.4537
  765MOL0     C 3149   3.864   8.645   9.962  0.1392 -0.3924 -0.5912
  765MOL0     C 3150   3.770   8.759  10.001 -0.9694 -0.7299 -0.6417
  765MOL0     C 3151   3.681   8.796   9.884  0.3420  0.0104 -0.1191
  765MOL0     C 3152   3.640   8.937   9.891  0.0593 -0.2384  0.6065
  765MOL0     C 3153   3.522   8.979   9.811  0.5583  0.3096  0.7733
  765MOL0     C 3154   3.518   8.935   9.661 -1.4730 -0.1976 -0.0646
  765MOL0     C 3155   3.389   8.990   9.589  0.0624  0.7364  0.8870
  765MOL0     C 3156   3.393   8.947   9.436  0.3669 -0.9298  0.1036
  765MOL0     N 3157   3.255   8.958   9.381 -0.8312  0.3611 -0.2085
  765MOL0     C 3158   3.154   8.864   9.374  1.5030  0.3797 -0.6948
  765MOL0     C 3159   3.053   8.925   9.315  0.5923 -0.3535  1.4775
  765MOL0     C 3160   2.915   8.860   9.286 -0.3190 -1.1443 -0.6569
  765MOL0     C 3161   2.921   8.708   9.269 -0.2543  0.3661  0.1207
  765MOL0     C 3162   3.010   8.669   9.158 -0.1808  0.0148  0.1802
  765MOL0     C 3163   3.055   8.525   9.180 -1.0033  0.4912  0.4221
  765MOL0     O 3164   3.125   8.489   9.298 -0.4743  0.0520 -0.5234
  765MOL0     C 3165   3.254   8.525   9.322 -0.3370  0.3031  0.5977
  765MOL0     C 3166   3.339   8.580   9.227 -0.8784 -1.6618 -0.7624
  765MOL0     C 3167   3.468   8.617   9.254  0.5944  0.4426 -0.6989
  765MOL0     C 3168   3.536   8.581   9.372  0.2460  0.3957 -0.2435
  765MOL0     C 3169   3.679   8.606   9.384 -0.2103 -0.0170  0.7684
  765MOL0     O 3170   3.743   8.545   9.482  0.3907  0.4749  0.5804
  765MOL0     C 3171   3.882   8.567   9.488 -0.3831 -0.0743 -0.6828
  765MOL0     C 3172   3.975   8.471   9.429  0.2753 -0.9588  0.1275
  765MOL0     C 3173   4.112   8.484   9.442  0.3268 -0.2615 -0.1620
  765MOL0     C 3174   4.163   8.601   9.497  0.9330  1.0391 -0.4330
  765MOL0     O 3175   4.296   8.631   9.471 -0.4441  1.0558 -0.1691
  765MOL0     C 3176   4.386   8.519   9.442  0.1362  0.4678  0.6234
  765MOL0     C 3177   4.528   8.575   9.438 -0.8156  0.1783 -0.3166
  765MOL0     C 3178   4.581   8.613   9.575 -0.9229  0.3047  0.4164
  765MOL0     C 3179   4.735   8.634   9.570 -0.2142  0.2372  0.1598
  765MOL0     C 3180   4.775   8.713   9.690 -0.5808  0.2963 -0.6032
  765MOL0     C 3181   4.931   8.742   9.705 -0.1710 -0.6596 -0.1973
  765MOL0     C 3182   5.013   8.626   9.755 -0.1614 -0.5974 -0.5978
  765MOL0     C 3183   5.160   8.661   9.735 -0.0066 -0.1501  0.7910
  765MOL0    Cl 3184   5.229   8.809   9.815  0.1728 -0.4814 -0.3523
  765MOL0     C 3185   4.079   8.693   9.557  0.4091  0.4807  1.0553
  765MOL0     C 3186   3.940   8.674   9.564 -0.3207 -0.9446  0.5079
  765MOL0     O 3187   3.740   8.663   9.291  0.0358 -0.2835 -0.3504
  765MOL0     C 3188   3.448   8.519   9.469  0.0998  0.0125 -0.1574
  765MOL0     C 3189   3.309   8.499   9.440 -0.0157 -0.2577 -0.4018
  765MOL0     N 3190   3.071   9.055   9.292  0.1427  0.2206  0.4337
  765MOL0     N 3191   3.196   9.075   9.336 -0.2870  0.4029 -0.0319
  765MOL0     C 3192   3.928   8.376   9.845  0.1984  0.9150  0.5490
  765MOL0     C 3193   3.959   8.277   9.751 -0.1458  0.8653  0.4798
  765MOL0     C 3194   3.875   7.966   9.396  0.6328 -0.5326 -1.4140
  765MOL0     C 3195   3.972   8.027   9.310  0.4793 -0.1951  0.4652
  765MOL0     C 3196   4.017   7.976   9.189 -0.2683 -0.0114 -0.6583
  765MOL0     C 3197   3.965   7.847   9.153  0.1952 -0.7874 -0.0650
  765MOL0     O 3198   3.991   7.788   9.031 -0.0616  0.1500 -0.0957
  765MOL0     C 3199   3.956   7.860   8.914 -0.8853 -0.1697  0.6725
  765MOL0     C 3200   3.814   7.908   8.911  0.6764 -0.5205  0.8928
  765MOL0     C 3201   3.712   7.787   8.903  0.9718  0.4925 -1.2997
  765MOL0     C 3202   3.574   7.843   8.942 -0.4164  0.0428 -0.7094
  765MOL0     C 3203   3.462   7.749   8.944  0.5428 -0.2581  0.1044
  765MOL0     C 3204   3.377   7.666   8.977 -0.2683 -0.2660  0.1082
  765MOL0     C 3205   3.882   7.783   9.241 -0.0233  0.9129  0.4671
  765MOL0     C 3206   3.828   7.837   9.355 -0.1402  0.4717  0.2860
  765MOL0     C 3207   3.720   7.748   9.423  0.7591 -0.1907  0.1558
  765MOL0     H 3208   3.653   8.263   9.607 -0.3980  1.0757  2.2248
  765MOL0     H 3209   3.605   8.426   9.787  0.0495  0.3064 -0.0261
  765MOL0     H 3210   3.934   8.637  10.046  1.0468  1.5258 -1.1151
  765MOL0     H 3211   3.917   8.671   9.870 -1.2550  1.6412 -0.8978
  765MOL0     H 3212   3.826   8.845  10.039 -0.3840 -1.4533  0.1736
  765MOL0     H 3213   3.699   8.727  10.078 -1.4253  1.6117 -0.0098
  765MOL0     H 3214   3.599   8.725   9.895  0.8684 -0.3852  1.5490
  765MOL0     H 3215   3.728   8.786   9.786 -2.4670 -0.3348 -1.5262
  765MOL0     H 3216   3.630   8.981   9.991  0.2476 -0.7805  0.8670
  765MOL0     H 3217   3.734   8.982   9.859 -0.0395 -0.1838  0.3874
  765MOL0     H 3218   3.429   8.941   9.854 -0.3359 -0.8408 -1.9490
  765MOL0     H 3219   3.519   9.088   9.808  0.7383  0.3108 -1.8927
  765MOL0     H 3220   3.609   8.970   9.611 -1.7148  2.2363  1.0720
  765MOL0     H 3221   3.501   8.827   9.656 -1.1587 -0.3576  1.7773
  765MOL0     H 3222   3.386   9.099   9.602 -0.4447  0.8650 -0.1729
  765MOL0     H 3223   3.306   8.957   9.653  1.3712  1.3103  2.9888
  765MOL0     H 3224   3.473   9.001   9.384 -0.5222  0.0992 -0.2184
  765MOL0     H 3225   3.422   8.842   9.431 -0.8470 -1.4060  1.8985
  765MOL0     H 3226   3.155   8.760   9.404 -1.6840 -0.3191 -2.6263
  765MOL0     H 3227   2.858   8.884   9.376 -1.0374  1.7913 -1.7476
  765MOL0     H 3228   2.863   8.903   9.199  3.8336 -0.8554 -3.3143
  765MOL0     H 3229   2.954   8.667   9.365  1.3553  2.4350  0.5208
  765MOL0     H 3230   2.818   8.675   9.248 -0.4007  0.8649  0.0238
  765MOL0     H 3231   3.091   8.741   9.146 -1.4596  1.5541  0.4963
  765MOL0     H 3232   2.957   8.681   9.063 -0.3421  4.0544  0.6064
  765MOL0     H 3233   3.111   8.491   9.093 -2.1355 -1.8490  0.5155
  765MOL0     H 3234   2.970   8.456   9.188  0.0044 -1.0334 -1.1605
  765MOL0     H 3235   3.303   8.607   9.128  1.8997  0.3941 -1.3332
  765MOL0     H 3236   3.508   8.677   9.173 -0.5153  1.9483 -0.1843
  765MOL0     H 3237   3.926   8.385   9.385 -1.4445 -1.3016  2.4969
  765MOL0     H 3238   4.176   8.407   9.399  0.1261 -1.0392  0.8894
  765MOL0     H 3239   4.382   8.442   9.520  0.4907 -0.7477 -0.5149
  765MOL0     H 3240   4.379   8.482   9.339  0.8239  1.5930  0.1487
  765MOL0     H 3241   4.583   8.485   9.408 -1.5892  0.0512 -1.4063
  765MOL0     H 3242   4.544   8.656   9.367  0.3911 -1.9145 -2.5987
  765MOL0     H 3243   4.521   8.697   9.611 -0.5578  0.0295  1.6903
  765MOL0     H 3244   4.554   8.537   9.649 -3.5470  1.5677  0.8824
  765MOL0     H 3245   4.767   8.690   9.481 -2.7030 -2.4318 -2.6629
  765MOL0     H 3246   4.785   8.539   9.552  0.9561  1.1150 -1.5868
  765MOL0     H 3247   4.738   8.668   9.783 -2.9519  0.8915 -1.1964
  765MOL0     H 3248   4.738   8.816   9.686  2.0949  1.3204 -1.4231
  765MOL0     H 3249   4.970   8.789   9.615 -0.4086  1.8528  0.9383
  765MOL0     H 3250   4.942   8.816   9.785  0.6293 -2.1558  1.1520
  765MOL0     H 3251   4.979   8.540   9.697 -0.6095  1.1773 -3.1376
  765MOL0     H 3252   4.991   8.602   9.859 -1.3877 -2.9729 -1.3399
  765MOL0     H 3253   5.213   8.570   9.762  1.0921  0.7574  1.8122
  765MOL0     H 3254   5.160   8.681   9.628  1.0436  1.1498  1.0026
  765MOL0     H 3255   4.127   8.788   9.577 -1.6908  2.0635 -1.0066
  765MOL0     H 3256   3.883   8.744   9.625 -2.3853 -0.7898 -1.4660
  765MOL0     H 3257   3.492   8.495   9.566 -2.2564  1.0449  1.2652
  765MOL0     H 3258   3.248   8.438   9.506 -1.7434  0.7333 -1.0354
  765MOL0     H 3259   4.014   8.415   9.900  1.9655  1.1368 -2.1977
  765MOL0     H 3260   4.058   8.233   9.740 -0.4170  0.6511 -1.5707
  765MOL0     H 3261   4.001   8.132   9.320 -1.3482  0.1571  3.4376
  765MOL0     H 3262   4.076   8.031   9.116  0.7052  1.1368  0.9147
  765MOL0     H 3263   3.980   7.807   8.822  0.0555  3.4387 -1.3498
  765MOL0     H 3264   4.020   7.948   8.917 -2.5875  1.1762 -0.6342
  765MOL0     H 3265   3.795   7.972   8.825 -1.6742 -1.3677  0.6999
  765MOL0     H 3266   3.794   7.968   9.000  2.5788  1.5580  0.0102
  765MOL0     H 3267   3.749   7.715   8.976 -2.5660  0.6971  0.9113
  765MOL0     H 3268   3.696   7.738   8.806 -1.9413  0.4936 -0.9158
  765MOL0     H 3269   3.576   7.894   9.039  0.4672 -1.3267  0.0256
  765MOL0     H 3270   3.541   7.921   8.873  1.7449  1.9096  0.2088
  765MOL0     H 3271   3.316   7.586   9.014  0.1167 -0.4922  0.2542
  765MOL0     H 3272   3.858   7.685   9.199  3.3111  1.4798 -3.4123
  765MOL0     H 3273   3.634   7.730   9.358  1.2715  1.5053 -1.0484
  765MOL0     H 3274   3.761   7.657   9.469  1.2097  0.1128  0.3632
  765MOL0     H 3275   3.679   7.793   9.515 -1.0622  1.5649 -1.4168
  766MOL0     O 3276   4.220   6.774   7.139  0.6704 -0.5355 -0.4512
  766MOL0     C 3277   4.118   6.791   7.211 -0.0228  0.5567  0.1263
  766MOL0     O 3278   3.989   6.800   7.152 -0.3207  0.3099  0.0589
  766MOL0     C 3279   3.966   6.761   7.024  0.0498 -0.5951  0.1915
  766MOL0     C 3280   3.861   6.826   6.960 -0.2883 -0.5163 -0.0398
  766MOL0     C 3281   3.830   6.806   6.832  0.2045  0.7753 -0.4027
  766MOL0     C 3282   3.889   6.700   6.766  0.5030  0.2126 -0.7583
  766MOL0     O 3283   3.843   6.676   6.640  0.1029 -0.1258 -0.1325
  766MOL0     C 3284   3.845   6.536   6.607 -0.1114 -0.0708 -0.4221
  766MOL0     C 3285   3.742   6.505   6.507  0.1836  0.5235 -0.3493
  766MOL0     C 3286   3.745   6.366   6.445 -0.7622  0.2869 -0.4930
  766MOL0     C 3287   3.668   6.370   6.313  0.2736 -0.4285 -0.9218
  766MOL0     C 3288   3.638   6.238   6.242  0.6358  0.0412 -0.3537
  766MOL0     C 3289   3.602   6.235   6.092 -0.0213 -0.9665  0.2616
  766MOL0     C 3290   3.605   6.098   6.030 -0.0250 -0.1403  0.3931
  766MOL0     C 3291   3.745   6.045   6.027 -0.1392  0.1840  0.1798
  766MOL0     N 3292   3.768   5.945   5.917 -0.0589  0.3281 -0.1064
  766MOL0     C 3293   3.772   5.976   5.781 -0.5284  0.2646 -0.5609
  766MOL0     C 3294   3.782   5.849   5.726 -0.6810  0.3403  0.3716
  766MOL0     C 3295   3.783   5.817   5.576  0.2167  0.2169 -0.0958
  766MOL0     C 3296   3.924   5.789   5.528 -0.3387 -0.1296 -0.8690
  766MOL0     C 3297   4.029   5.896   5.545 -0.2451 -0.9843  0.2737
  766MOL0     C 3298   4.006   6.023   5.469  0.2458  0.0010 -0.7925
  766MOL0     O 3299   4.126   6.100   5.496  0.2861  0.2343  0.0908
  766MOL0     C 3300   4.107   6.233   5.489 -0.6546 -0.4750 -0.0362
  766MOL0     C 3301   4.086   6.300   5.609 -0.8342 -0.1299  1.0466
  766MOL0     C 3302   4.068   6.446   5.610  0.6763  0.5239 -0.2448
  766MOL0     C 3303   4.088   6.514   5.489  0.3322  0.0320 -1.1407
  766MOL0     C 3304   4.086   6.670   5.489 -0.6397  0.3069 -0.6967
  766MOL0     O 3305   4.098   6.732   5.367 -0.3873  0.1968  0.3404
  766MOL0     C 3306   4.119   6.861   5.364  0.1070  0.2449 -0.0340
  766MOL0     C 3307   4.247   6.906   5.370  0.4211  0.4819  0.3300
  766MOL0     C 3308   4.283   7.043   5.362 -0.3206 -1.0995 -0.3135
  766MOL0     C 3309   4.182   7.137   5.336  0.7938 -0.6388  0.1649
  766MOL0     O 3310   4.187   7.280   5.316  0.3429 -0.1348  0.4319
  766MOL0     C 3311   4.319   7.336   5.327  0.1703  0.7039 -0.3493
  766MOL0     C 3312   4.300   7.490   5.315 -0.9760 -0.1620  0.4879
  766MOL0     C 3313   4.180   7.548   5.390  0.5546 -0.1158 -0.3656
  766MOL0     C 3314   4.111   7.652   5.286  1.0583 -0.1581 -0.3422
  766MOL0     C 3315   3.997   7.732   5.359 -1.1980 -0.0329 -0.0381
  766MOL0     C 3316   3.922   7.836   5.277 -0.1581 -0.3158  0.1310
  766MOL0     C 3317   3.797   7.888   5.355  0.1555 -0.1144  0.4348
  766MOL0     C 3318   3.671   7.925   5.279 -0.2118 -0.0403  0.8733
  766MOL0    Cl 3319   3.536   7.985   5.383  0.5435 -0.7435 -0.0017
  766MOL0     C 3320   4.052   7.085   5.331  0.2318  0.3588 -0.3544
  766MOL0     C 3321   4.020   6.945   5.343 -0.4888  0.6368 -0.5259
  766MOL0     O 3322   4.083   6.723   5.599  0.5963  0.2231  0.3559
  766MOL0     C 3323   4.128   6.446   5.373  0.2721  0.1637 -0.4684
  766MOL0     C 3324   4.131   6.308   5.374  0.2403  0.7418  0.5696
  766MOL0     N 3325   3.767   5.751   5.825 -0.0499 -0.7853  0.5240
  766MOL0     N 3326   3.755   5.810   5.937 -0.9543  0.0191 -0.5448
  766MOL0     C 3327   3.985   6.620   6.830  0.1715 -0.5239  0.4890
  766MOL0     C 3328   4.034   6.659   6.957  0.5433  0.5649  0.1043
  766MOL0     C 3329   4.139   6.808   7.358 -0.2807  0.0393  0.0224
  766MOL0     C 3330   4.273   6.814   7.404 -0.1076  0.5963  0.2174
  766MOL0     C 3331   4.306   6.839   7.536 -0.2405  0.3047 -0.1901
  766MOL0     C 3332   4.207   6.856   7.626 -0.4812  0.0402  0.2221
  766MOL0     O 3333   4.236   6.849   7.761  0.2437 -0.4034 -0.2342
  766MOL0     C 3334   4.327   6.757   7.811 -0.4318 -0.1057  0.9882
  766MOL0     C 3335   4.288   6.714   7.950  0.1287  0.6219  0.6610
  766MOL0     C 3336   4.328   6.822   8.058  1.3684  0.0933 -0.1464
  766MOL0     C 3337   4.325   6.752   8.193 -0.1258 -0.8841  0.8280
  766MOL0     C 3338   4.191   6.729   8.244  0.0867  0.3588 -0.1190
  766MOL0     C 3339   4.088   6.710   8.301  0.1004  0.1245  0.3074
  766MOL0     C 3340   4.075   6.856   7.588 -0.6540 -0.2885  0.7440
  766MOL0     C 3341   4.035   6.820   7.451  0.8810 -0.4866 -0.7945
  766MOL0     C 3342   3.879   6.809   7.433 -0.3530  0.3248 -0.3915
  766MOL0     H 3343   3.811   6.902   7.020  0.0059 -2.0647  2.3311
  766MOL0     H 3344   3.757   6.868   6.782  2.3100  1.9951 -2.1417
  766MOL0     H 3345   3.938   6.509   6.557  1.7612 -2.6091  3.9059
  766MOL0     H 3346   3.824   6.464   6.686 -3.7164  0.0593 -1.0882
  766MOL0     H 3347   3.740   6.588   6.435 -0.3230  1.2362  0.4626
  766MOL0     H 3348   3.649   6.516   6.564  1.4268 -0.7283  2.0523
  766MOL0     H 3349   3.691   6.298   6.512  2.4269 -1.3731  0.6135
  766MOL0     H 3350   3.845   6.321   6.436 -0.7895 -0.6985  2.7478
  766MOL0     H 3351   3.573   6.423   6.327  1.7568  1.6260  3.0541
  766MOL0     H 3352   3.723   6.423   6.234 -0.7296  1.5545 -0.3456
  766MOL0     H 3353   3.732   6.186   6.266  1.0822  1.9964  2.6287
  766MOL0     H 3354   3.565   6.177   6.296  2.7511 -1.0690  1.4292
  766MOL0     H 3355   3.502   6.277   6.081  0.9309  1.5138  0.5137
  766MOL0     H 3356   3.663   6.310   6.040 -3.2508  3.8565  2.7046
  766MOL0     H 3357   3.564   6.113   5.930  1.2445  0.1921 -0.0917
  766MOL0     H 3358   3.532   6.041   6.089  0.5928 -1.3555  0.0105
  766MOL0     H 3359   3.815   6.128   6.011  2.3386 -1.4186  2.0089
  766MOL0     H 3360   3.773   5.989   6.116 -5.0043 -3.8928 -0.4393
  766MOL0     H 3361   3.771   6.079   5.747  2.0426  1.4758  2.5658
  766MOL0     H 3362   3.719   5.731   5.557 -0.8980  0.7078  1.2677
  766MOL0     H 3363   3.739   5.906   5.528 -0.8252 -1.2779 -2.0848
  766MOL0     H 3364   3.967   5.701   5.577 -0.1268  0.9654  0.9927
  766MOL0     H 3365   3.909   5.778   5.420  1.7420 -0.1327 -1.2000
  766MOL0     H 3366   4.123   5.849   5.515 -0.0736  0.9506 -2.6268
  766MOL0     H 3367   4.031   5.918   5.652 -2.5196  1.0863 -0.0298
  766MOL0     H 3368   3.915   6.076   5.499 -0.6181 -1.7234 -0.2498
  766MOL0     H 3369   4.008   5.995   5.363  3.9867  0.4253 -0.9634
  766MOL0     H 3370   4.075   6.239   5.698 -3.0641 -1.2283  0.0899
  766MOL0     H 3371   4.041   6.499   5.701 -1.9887  4.0590 -2.8265
  766MOL0     H 3372   4.313   6.826   5.403  3.3789  3.3348  1.9131
  766MOL0     H 3373   4.388   7.060   5.384 -0.4300  0.9223 -1.1804
  766MOL0     H 3374   4.346   7.309   5.429  1.6292  0.0777 -0.8768
  766MOL0     H 3375   4.394   7.295   5.259 -0.7997 -1.0056 -0.4532
  766MOL0     H 3376   4.393   7.537   5.346 -1.0797  1.2161 -1.1131
  766MOL0     H 3377   4.299   7.511   5.207 -0.8636  0.0889  0.5363
  766MOL0     H 3378   4.110   7.469   5.418 -1.2211  1.6297  0.3328
  766MOL0     H 3379   4.215   7.600   5.480 -2.5558  2.1491 -0.2866
  766MOL0     H 3380   4.065   7.593   5.206  1.0889  0.6545 -0.9748
  766MOL0     H 3381   4.186   7.723   5.250  2.2768 -0.9315  0.5759
  766MOL0     H 3382   4.059   7.794   5.425 -1.0168  1.7270 -1.7740
  766MOL0     H 3383   3.926   7.669   5.414  0.8963  0.6854  3.8202
  766MOL0     H 3384   3.989   7.916   5.244 -0.6102 -0.4836 -1.2306
  766MOL0     H 3385   3.888   7.786   5.186 -1.6484  1.4992 -0.3811
  766MOL0     H 3386   3.819   7.973   5.421  0.1442 -0.0553  0.3626
  766MOL0     H 3387   3.771   7.818   5.435 -1.2746 -0.8261 -0.5869
  766MOL0     H 3388   3.689   7.996   5.198  3.5602 -2.7048 -0.8933
  766MOL0     H 3389   3.639   7.835   5.226  1.3255 -0.0105 -0.1378
  766MOL0     H 3390   3.956   7.135   5.320 -0.8202 -1.5746 -0.4314
  766MOL0     H 3391   3.917   6.911   5.331 -1.8320  4.4989 -1.4283
  766MOL0     H 3392   4.169   6.491   5.283 -2.9952  0.5096 -1.9290
  766MOL0     H 3393   4.151   6.250   5.284 -0.2518  1.9016 -0.3325
  766MOL0     H 3394   4.048   6.546   6.782  1.1564 -0.0041  0.9465
  766MOL0     H 3395   4.119   6.605   6.999 -1.5744 -0.3654  3.6912
  766MOL0     H 3396   4.360   6.816   7.339  1.0557  1.2426  1.7254
  766MOL0     H 3397   4.406   6.829   7.578 -0.5572 -4.5067 -0.0849
  766MOL0     H 3398   4.427   6.797   7.794  0.6822 -3.7482 -2.7880
  766MOL0     H 3399   4.326   6.665   7.752 -2.4073  2.2860 -3.1345
  766MOL0     H 3400   4.343   6.622   7.967 -1.3456 -0.6762 -1.1860
  766MOL0     H 3401   4.182   6.686   7.953  0.5872 -1.8523 -1.9878
  766MOL0     H 3402   4.271   6.914   8.042 -1.5463 -2.0943 -4.1053
  766MOL0     H 3403   4.433   6.852   8.044  1.8848 -1.1880  0.8630
  766MOL0     H 3404   4.376   6.655   8.201 -0.3553 -0.9830  1.1110
  766MOL0     H 3405   4.383   6.819   8.257  1.1623 -2.7003  1.6793
  766MOL0     H 3406   3.997   6.686   8.352 -1.7324 -3.2407 -3.8315
  766MOL0     H 3407   4.000   6.889   7.660  0.2327 -0.1641  1.6279
  766MOL0     H 3408   3.827   6.772   7.521 -1.5218  1.7345 -0.4528
  766MOL0     H 3409   3.826   6.897   7.395  0.5796  0.1033 -2.3616
  766MOL0     H 3410   3.859   6.731   7.359 -0.4469  0.7216 -0.7908
  767MOL0     O 3411   8.828   9.340   8.071 -0.1604 -0.3902 -0.0971
  767MOL0     C 3412   8.846   9.239   8.142  0.6193  1.0236  0.9284
  767MOL0     O 3413   8.859   9.104   8.096 -0.7950  0.2741 -0.1196
  767MOL0     C 3414   8.818   9.067   7.973 -0.1027 -0.5178 -0.6675
  767MOL0     C 3415   8.715   9.129   7.896  0.9501 -0.3419 -0.0817
  767MOL0     C 3416   8.678   9.067   7.770 -0.3931  0.4210 -0.2760
  767MOL0     C 3417   8.740   8.952   7.733 -1.2430 -0.4937  0.7161
  767MOL0     O 3418   8.697   8.873   7.618  1.4206  0.3289 -0.8737
  767MOL0     C 3419   8.600   8.929   7.527  0.7136  0.1136  0.5581
  767MOL0     C 3420   8.557   8.830   7.411  0.2707 -0.8598  1.0065
  767MOL0     C 3421   8.473   8.715   7.465 -0.4756  0.1856 -0.0759
  767MOL0     C 3422   8.408   8.635   7.352 -0.3679 -0.5909 -0.3359
  767MOL0     C 3423   8.348   8.503   7.408  0.1877  0.4247  0.1647
  767MOL0     C 3424   8.251   8.438   7.310 -1.4393  0.6414 -0.7153
  767MOL0     C 3425   8.203   8.304   7.361 -0.8122  0.1899  0.7471
  767MOL0     C 3426   8.257   8.176   7.293 -0.6191 -0.4636  0.6143
  767MOL0     N 3427   8.402   8.140   7.322 -0.2367 -0.0212  0.0844
  767MOL0     C 3428   8.515   8.197   7.273  0.2996 -1.0237 -0.3060
  767MOL0     C 3429   8.613   8.153   7.348 -1.6744  0.2280  0.7861
  767MOL0     C 3430   8.758   8.194   7.329  0.1690 -0.6686 -0.2723
  767MOL0     C 3431   8.813   8.247   7.461 -0.0634  0.8100  1.0115
  767MOL0     C 3432   8.766   8.398   7.487  0.4288  0.1737 -0.6283
  767MOL0     C 3433   8.815   8.439   7.613 -0.1660 -0.4127  0.1164
  767MOL0     O 3434   8.953   8.447   7.607 -0.3807  0.2760 -0.3052
  767MOL0     C 3435   9.016   8.486   7.717  0.0457  0.0362  0.2708
  767MOL0     C 3436   8.954   8.539   7.837  0.5322  0.2009 -0.2287
  767MOL0     C 3437   9.031   8.573   7.953  0.7396 -0.2435 -0.7853
  767MOL0     C 3438   9.171   8.570   7.948 -0.5586 -0.6499  0.2178
  767MOL0     C 3439   9.252   8.609   8.064 -0.1749  0.0104 -0.4823
  767MOL0     O 3440   9.384   8.597   8.047  0.1541 -0.2915  0.4404
  767MOL0     C 3441   9.451   8.618   8.165 -0.2619 -0.4525  0.2292
  767MOL0     C 3442   9.467   8.744   8.222 -0.0992 -0.0459 -0.5320
  767MOL0     C 3443   9.537   8.771   8.336  0.3146 -0.2188 -0.2656
  767MOL0     C 3444   9.581   8.669   8.417  0.1517 -0.0129  0.6194
  767MOL0     O 3445   9.651   8.712   8.533  0.1949  0.8198 -0.7566
  767MOL0     C 3446   9.707   8.608   8.621  0.7306  0.2428  0.6617
  767MOL0     C 3447   9.780   8.658   8.751  0.1581 -0.6399  0.6120
  767MOL0     C 3448   9.843   8.547   8.837 -0.5613  0.4556 -0.0131
  767MOL0     C 3449   9.924   8.617   8.949  0.7677 -0.9074  0.0352
  767MOL0     C 3450   9.970   8.516   9.066 -0.1645  1.8115 -0.7302
  767MOL0     C 3451  10.023   8.593   9.186 -0.9732 -0.5858 -0.3854
  767MOL0     C 3452  10.098   8.496   9.287  1.0986  0.4079 -0.3037
  767MOL0     C 3453  10.001   8.400   9.364 -0.0863 -0.1461 -0.6776
  767MOL0    Cl 3454  10.091   8.243   9.401 -0.3571 -0.0832 -0.2455
  767MOL0     C 3455   9.577   8.538   8.351  0.4516 -0.5310 -0.4367
  767MOL0     C 3456   9.512   8.515   8.230 -0.2140  0.1613  1.0383
  767MOL0     O 3457   9.195   8.661   8.156 -0.2504 -0.5322 -0.4938
  767MOL0     C 3458   9.234   8.545   7.825 -0.5480  0.0925  0.1489
  767MOL0     C 3459   9.155   8.503   7.717  0.1808  0.3761 -0.6363
  767MOL0     N 3460   8.568   8.061   7.434 -0.4969  0.1948 -0.6472
  767MOL0     N 3461   8.443   8.051   7.415 -0.6974  0.5232  0.1388
  767MOL0     C 3462   8.852   8.894   7.799  0.6915 -0.2716  0.1169
  767MOL0     C 3463   8.893   8.960   7.923  0.1393  0.2754 -0.2811
  767MOL0     C 3464   8.854   9.260   8.287 -0.5235 -0.8620 -0.1131
  767MOL0     C 3465   8.850   9.392   8.329 -0.2069  0.4594 -0.0845
  767MOL0     C 3466   8.860   9.417   8.460 -0.6406  0.9824  0.1361
  767MOL0     C 3467   8.894   9.326   8.557  0.2779  0.6909 -0.4117
  767MOL0     O 3468   8.928   9.355   8.686  0.4262  0.2979 -1.0008
  767MOL0     C 3469   8.919   9.491   8.731  0.2341  0.7528 -1.3438
  767MOL0     C 3470   8.932   9.505   8.881  0.2688 -0.8920 -0.5416
  767MOL0     C 3471   9.073   9.505   8.946 -0.3894  0.7515  0.1772
  767MOL0     C 3472   9.076   9.487   9.103 -0.5183 -0.4594  1.4735
  767MOL0     C 3473   9.211   9.454   9.150  0.3789  0.6643  0.2939
  767MOL0     C 3474   9.317   9.419   9.195  0.8867  0.1675  0.1238
  767MOL0     C 3475   8.882   9.190   8.511 -0.7856 -0.2599 -0.3909
  767MOL0     C 3476   8.860   9.157   8.383 -0.0982  0.6912 -0.0216
  767MOL0     C 3477   8.842   9.003   8.356  0.7210 -0.6763  0.8965
  767MOL0     H 3478   8.668   9.220   7.932 -1.2581 -1.1150 -0.8669
  767MOL0     H 3479   8.594   9.117   7.724 -1.1249 -0.8336 -0.3504
  767MOL0     H 3480   8.513   8.972   7.577 -0.5659  0.2457 -1.6186
  767MOL0     H 3481   8.648   9.020   7.487 -2.1727  0.8745 -1.5251
  767MOL0     H 3482   8.644   8.792   7.357 -1.0581 -2.6034 -0.0193
  767MOL0     H 3483   8.488   8.885   7.345 -1.9434 -1.6017  2.5873
  767MOL0     H 3484   8.402   8.753   7.539  0.5052 -0.3466  1.1657
  767MOL0     H 3485   8.541   8.660   7.531  1.0398  2.4839  0.3845
  767MOL0     H 3486   8.327   8.701   7.318 -2.5925 -2.0349  1.7703
  767MOL0     H 3487   8.477   8.611   7.271 -0.4012 -0.0641 -0.5286
  767MOL0     H 3488   8.438   8.443   7.426 -0.3356 -0.2528  0.5857
  767MOL0     H 3489   8.288   8.499   7.499 -2.5621  1.2318 -1.4832
  767MOL0     H 3490   8.163   8.501   7.290 -0.9849  0.9734 -1.7619
  767MOL0     H 3491   8.297   8.428   7.211 -1.0029  0.0703 -0.4587
  767MOL0     H 3492   8.094   8.301   7.351 -0.6542 -1.3680 -1.0032
  767MOL0     H 3493   8.225   8.301   7.468 -0.7289 -2.1834  0.7058
  767MOL0     H 3494   8.189   8.099   7.332 -1.9391 -0.2330 -1.1110
  767MOL0     H 3495   8.248   8.177   7.184  0.3932  2.2949  0.4958
  767MOL0     H 3496   8.523   8.254   7.181 -0.0267  0.1507  0.3765
  767MOL0     H 3497   8.818   8.114   7.287  1.9046 -0.4282  1.6035
  767MOL0     H 3498   8.763   8.285   7.268 -2.5821  0.7752  1.4678
  767MOL0     H 3499   8.778   8.180   7.541 -3.9308 -0.5361 -1.5245
  767MOL0     H 3500   8.921   8.239   7.443 -0.2912 -0.7490  0.2126
  767MOL0     H 3501   8.658   8.408   7.505  0.5869  2.4881 -0.7343
  767MOL0     H 3502   8.806   8.466   7.411  6.7272 -1.4394  0.6758
  767MOL0     H 3503   8.796   8.357   7.683 -2.0466 -0.8696 -0.8716
  767MOL0     H 3504   8.761   8.527   7.647  2.2869  1.0456  0.4815
  767MOL0     H 3505   8.852   8.542   7.876  0.5336  3.1728 -0.2302
  767MOL0     H 3506   8.987   8.604   8.047  2.1515 -1.4241  0.3199
  767MOL0     H 3507   9.420   8.835   8.184  1.9453  0.4236 -2.0973
  767MOL0     H 3508   9.544   8.871   8.377 -2.0820  0.6007 -1.6706
  767MOL0     H 3509   9.623   8.542   8.644  0.3777  0.1313 -0.8582
  767MOL0     H 3510   9.783   8.551   8.568  1.4574  2.8684 -1.3622
  767MOL0     H 3511   9.859   8.727   8.718  1.2737 -1.4659  1.4818
  767MOL0     H 3512   9.705   8.716   8.806  1.3278 -0.0692  1.6477
  767MOL0     H 3513   9.770   8.475   8.876  0.6138 -2.0019 -2.0430
  767MOL0     H 3514   9.918   8.485   8.787  0.8333  1.3578  0.9053
  767MOL0     H 3515   9.842   8.678   8.990 -1.1863 -2.7557 -0.9234
  767MOL0     H 3516  10.004   8.683   8.915 -0.7669  0.4211 -1.1398
  767MOL0     H 3517  10.047   8.449   9.027  2.4032  3.4143  1.2850
  767MOL0     H 3518   9.888   8.454   9.102 -0.1703  2.8568  1.1926
  767MOL0     H 3519  10.091   8.673   9.155 -2.8358  1.1719 -0.1785
  767MOL0     H 3520   9.938   8.645   9.231 -0.8283  1.9686 -2.8156
  767MOL0     H 3521  10.165   8.556   9.350  2.8909 -1.0607 -0.7123
  767MOL0     H 3522  10.163   8.437   9.222  2.1944  0.2556  0.8758
  767MOL0     H 3523   9.964   8.433   9.461 -3.0722 -2.2636 -0.9647
  767MOL0     H 3524   9.912   8.378   9.305 -0.3664  1.4628 -0.9019
  767MOL0     H 3525   9.628   8.447   8.381 -0.4762 -1.3628 -1.3291
  767MOL0     H 3526   9.524   8.421   8.177  0.6231  0.4467  0.7110
  767MOL0     H 3527   9.341   8.551   7.807  0.1857  0.5644  3.9664
  767MOL0     H 3528   9.206   8.479   7.624 -1.0323 -2.9635 -0.5864
  767MOL0     H 3529   8.894   8.800   7.763  0.3523 -0.6769  0.7672
  767MOL0     H 3530   8.962   8.917   7.995  0.1642  0.6442 -0.0818
  767MOL0     H 3531   8.849   9.478   8.263  0.0665 -0.4347 -1.2884
  767MOL0     H 3532   8.875   9.522   8.480  0.3621  0.6067  1.4991
  767MOL0     H 3533   8.821   9.528   8.699  0.8427  3.6167 -0.2193
  767MOL0     H 3534   8.993   9.552   8.678  0.0673  1.4475 -0.8012
  767MOL0     H 3535   8.864   9.437   8.932 -0.6634  0.1933 -0.2868
  767MOL0     H 3536   8.880   9.598   8.905 -3.2335 -3.1734  1.7031
  767MOL0     H 3537   9.114   9.605   8.928 -0.3692  1.6198  3.9774
  767MOL0     H 3538   9.124   9.422   8.898 -2.3373 -2.6369  3.3659
  767MOL0     H 3539   9.056   9.585   9.146  1.1975 -0.2650  1.9235
  767MOL0     H 3540   9.007   9.405   9.126 -3.9226  1.1270 -2.0543
  767MOL0     H 3541   9.419   9.403   9.225  1.0104  1.0210  0.1640
  767MOL0     H 3542   8.884   9.114   8.588  0.1661  1.2769  1.1629
  767MOL0     H 3543   8.833   8.942   8.446  2.3763 -3.6916 -0.8277
  767MOL0     H 3544   8.744   8.989   8.309 -0.0608 -0.1567  2.3020
  767MOL0     H 3545   8.928   8.963   8.301 -0.4083 -1.7590 -0.1484
  768MOL0     O 3546   6.655   6.649   9.629  0.5822  0.4129 -0.0351
  768MOL0     C 3547   6.722   6.732   9.690 -0.5337 -1.1224  0.3061
  768MOL0     O 3548   6.672   6.834   9.774 -0.0159  0.4436  0.4997
  768MOL0     C 3549   6.553   6.808   9.835  1.1250 -0.1485  0.3180
  768MOL0     C 3550   6.529   6.686   9.898 -0.3762  0.1415 -0.0728
  768MOL0     C 3551   6.396   6.649   9.946 -0.8595 -0.3712  0.6737
  768MOL0     C 3552   6.303   6.757   9.949  0.0586  0.7984 -0.0100
  768MOL0     O 3553   6.175   6.747   9.990  0.3578  0.8088 -0.2112
  768MOL0     C 3554   6.131   6.638  10.067 -0.4536 -0.1636 -0.4661
  768MOL0     C 3555   5.977   6.673  10.085 -0.1795  0.1304  0.5021
  768MOL0     C 3556   5.931   6.556  10.180 -0.6390 -0.9919 -0.2169
  768MOL0     C 3557   5.781   6.582  10.211 -0.2784  0.2889 -0.8086
  768MOL0     C 3558   5.717   6.462  10.289 -0.6567 -0.0481  0.1037
  768MOL0     C 3559   5.570   6.510  10.324  0.4406 -0.8746 -0.2459
  768MOL0     C 3560   5.575   6.598  10.441  0.0480 -0.1557 -1.0668
  768MOL0     C 3561   5.436   6.619  10.503 -0.6396  0.9886  0.3295
  768MOL0     N 3562   5.447   6.715  10.608  0.4690  0.8185 -0.8993
  768MOL0     C 3563   5.427   6.847  10.599 -0.0243 -0.6144  0.0577
  768MOL0     C 3564   5.443   6.904  10.719 -0.0584  0.4984  0.7094
  768MOL0     C 3565   5.438   7.055  10.722  0.0462 -0.6590 -0.7961
  768MOL0     C 3566   5.474   7.120  10.853 -0.2535 -0.2765  0.4201
  768MOL0     C 3567   5.627   7.094  10.889 -0.0983  0.8322  0.0214
  768MOL0     C 3568   5.681   7.185  10.990  0.1748 -0.1826 -0.2038
  768MOL0     O 3569   5.738   7.297  10.920 -0.0524  0.4308 -0.0968
  768MOL0     C 3570   5.862   7.358  10.961 -0.5149 -0.2263  0.6820
  768MOL0     C 3571   5.934   7.430  10.864  0.4098  0.7040 -0.4297
  768MOL0     C 3572   6.065   7.492  10.887  0.6911 -0.1129 -0.0122
  768MOL0     C 3573   6.123   7.473  11.014  0.9035 -0.0937  0.5111
  768MOL0     C 3574   6.245   7.547  11.048 -1.3469  0.1398  0.1344
  768MOL0     O 3575   6.347   7.477  11.111  0.5467 -0.3912  0.3886
  768MOL0     C 3576   6.474   7.528  11.113 -0.0902 -0.0299 -0.0429
  768MOL0     C 3577   6.556   7.469  11.208  0.6997  0.4131 -0.6475
  768MOL0     C 3578   6.686   7.508  11.224  0.5128 -0.6248 -0.6625
  768MOL0     C 3579   6.751   7.606  11.145  0.2521  0.2650 -0.8914
  768MOL0     O 3580   6.877   7.649  11.170 -0.4868  0.0767 -0.6384
  768MOL0     C 3581   6.946   7.722  11.071 -0.4849 -0.0469  0.2445
  768MOL0     C 3582   7.093   7.741  11.099  0.3056 -0.5651 -0.1659
  768MOL0     C 3583   7.136   7.822  11.230 -0.7378  0.0478  0.5938
  768MOL0     C 3584   7.289   7.845  11.249  0.7924  0.1302 -0.7756
  768MOL0     C 3585   7.340   7.943  11.359 -0.3787  0.2378  0.2166
  768MOL0     C 3586   7.290   8.083  11.356 -0.2419 -0.2190 -0.7834
  768MOL0     C 3587   7.301   8.165  11.224  0.0535  0.6951  0.0321
  768MOL0     C 3588   7.443   8.199  11.194 -0.0922 -0.0091 -0.1858
  768MOL0    Cl 3589   7.507   8.324  11.299 -0.4106  0.1166  0.0282
  768MOL0     C 3590   6.671   7.655  11.043 -0.1779 -0.1450  0.1764
  768MOL0     C 3591   6.538   7.622  11.032  0.2977 -0.9178  0.6670
  768MOL0     O 3592   6.252   7.662  10.995 -0.3325  0.5729  0.3413
  768MOL0     C 3593   6.050   7.392  11.104 -0.2039 -0.1910 -0.3616
  768MOL0     C 3594   5.924   7.341  11.085  0.2353  0.2554 -0.4967
  768MOL0     N 3595   5.463   6.800  10.808 -0.0771  0.6295 -0.7640
  768MOL0     N 3596   5.477   6.690  10.742  0.1211  0.6062  0.5117
  768MOL0     C 3597   6.329   6.881   9.899 -0.2324 -0.4902  0.6950
  768MOL0     C 3598   6.454   6.905   9.838 -1.1020 -0.0841  0.3527
  768MOL0     C 3599   6.872   6.753   9.681  0.0018  0.9807  0.5842
  768MOL0     C 3600   6.924   6.878   9.728 -0.6702 -0.2965  0.1341
  768MOL0     C 3601   7.059   6.919   9.720 -0.2540 -0.0900  0.0655
  768MOL0     C 3602   7.141   6.825   9.666  0.1598  0.2787 -0.1546
  768MOL0     O 3603   7.272   6.861   9.653  0.0390 -1.2276 -0.0229
  768MOL0     C 3604   7.376   6.766   9.618  0.2337 -0.2885 -0.0449
  768MOL0     C 3605   7.390   6.656   9.737  0.8264  0.7672 -0.1615
  768MOL0     C 3606   7.526   6.619   9.797 -0.1848 -0.3638 -1.0197
  768MOL0     C 3607   7.606   6.535   9.709 -0.2373 -0.6347 -0.1928
  768MOL0     C 3608   7.548   6.492   9.578  0.1639 -0.2390 -0.6182
  768MOL0     C 3609   7.515   6.455   9.469  0.2015 -0.6439 -0.3584
  768MOL0     C 3610   7.096   6.704   9.609  0.1725  0.5437 -0.0711
  768MOL0     C 3611   6.967   6.660   9.623  0.8709 -0.1975 -0.0738
  768MOL0     C 3612   6.924   6.520   9.584 -0.3392  0.5138 -0.1304
  768MOL0     H 3613   6.614   6.622   9.916 -0.7221  0.0874  1.5135
  768MOL0     H 3614   6.352   6.555   9.977 -0.1450 -0.8729  0.1806
  768MOL0     H 3615   6.139   6.540  10.018 -0.7327 -0.0631 -0.7141
  768MOL0     H 3616   6.173   6.636  10.168 -0.3287  0.2223 -0.5112
  768MOL0     H 3617   5.929   6.668   9.987 -1.0198 -3.1318  0.9591
  768MOL0     H 3618   5.968   6.771  10.133  1.3832  0.6050 -0.1048
  768MOL0     H 3619   5.998   6.547  10.266  1.6298 -1.1050 -1.8941
  768MOL0     H 3620   5.949   6.465  10.122 -1.3634 -1.3219  0.0633
  768MOL0     H 3621   5.782   6.679  10.263 -1.1314  2.9159 -5.1871
  768MOL0     H 3622   5.720   6.601  10.122 -2.8033  2.8662  1.2679
  768MOL0     H 3623   5.722   6.376  10.221  1.6811 -1.4396  1.8685
  768MOL0     H 3624   5.771   6.437  10.381 -0.9383  0.6101  0.4538
  768MOL0     H 3625   5.514   6.561  10.244 -0.2991  1.5402  1.6626
  768MOL0     H 3626   5.512   6.420  10.344  0.1348 -1.2253 -2.5363
  768MOL0     H 3627   5.617   6.697  10.423 -0.5571  0.5478  1.1222
  768MOL0     H 3628   5.639   6.546  10.514  0.5112 -0.1633 -1.4762
  768MOL0     H 3629   5.356   6.659  10.440 -0.7764  1.7665  0.9849
  768MOL0     H 3630   5.416   6.519  10.543  2.4428 -0.1049 -0.5642
  768MOL0     H 3631   5.406   6.889  10.501  0.5734 -1.4878 -0.4559
  768MOL0     H 3632   5.527   7.082  10.664 -1.1944 -0.4120 -2.6829
  768MOL0     H 3633   5.345   7.101  10.687  0.5056 -0.0879 -1.3079
  768MOL0     H 3634   5.454   7.228  10.852 -2.0814 -0.5696  1.3678
  768MOL0     H 3635   5.402   7.096  10.932  0.1314 -0.2414  0.7886
  768MOL0     H 3636   5.675   7.112  10.792 -2.5833 -3.0184 -2.1973
  768MOL0     H 3637   5.641   6.989  10.918  0.0690  0.4099 -1.4761
  768MOL0     H 3638   5.758   7.137  11.051  1.7082  0.5403 -1.4963
  768MOL0     H 3639   5.600   7.213  11.058 -0.0084  0.4439 -0.6700
  768MOL0     H 3640   5.873   7.443  10.775 -0.2026 -2.9439 -0.6972
  768MOL0     H 3641   6.096   7.557  10.806 -0.5411 -0.1640 -0.5598
  768MOL0     H 3642   6.515   7.396  11.278 -1.5795  2.4796  0.3034
  768MOL0     H 3643   6.757   7.463  11.292 -0.1433 -0.4365  0.1552
  768MOL0     H 3644   6.935   7.664  10.978 -3.5431 -0.8830  1.0295
  768MOL0     H 3645   6.913   7.825  11.056 -0.0165  0.5421  2.8499
  768MOL0     H 3646   7.140   7.642  11.106  0.1580 -0.5108  3.8230
  768MOL0     H 3647   7.128   7.787  11.006 -3.0857 -2.9623 -2.8556
  768MOL0     H 3648   7.098   7.924  11.245 -0.1574  0.2295  0.8616
  768MOL0     H 3649   7.087   7.778  11.316  0.2063  0.5201  1.3913
  768MOL0     H 3650   7.320   7.881  11.150  1.8489  1.7213  0.1007
  768MOL0     H 3651   7.343   7.751  11.266  3.4277  1.5590 -0.7427
  768MOL0     H 3652   7.448   7.940  11.344 -0.0285 -0.2656  2.4834
  768MOL0     H 3653   7.316   7.888  11.450 -0.5056 -2.0621 -1.1458
  768MOL0     H 3654   7.183   8.084  11.378 -0.2738  0.1204 -0.9520
  768MOL0     H 3655   7.333   8.145  11.436 -3.2693  1.0248  0.0257
  768MOL0     H 3656   7.247   8.259  11.237  1.1134  1.2937  0.3185
  768MOL0     H 3657   7.246   8.107  11.150 -0.2300  2.0443 -0.8448
  768MOL0     H 3658   7.501   8.108  11.209 -2.3083 -1.3186  0.9016
  768MOL0     H 3659   7.456   8.235  11.091 -2.3337 -0.1935 -0.5893
  768MOL0     H 3660   6.711   7.734  10.979 -1.8365 -0.5233 -1.4059
  768MOL0     H 3661   6.487   7.656  10.942  1.5131  0.1075  0.3275
  768MOL0     H 3662   6.090   7.377  11.204  0.0387  1.9496 -0.0812
  768MOL0     H 3663   5.877   7.281  11.163  1.4631 -1.3691 -0.9342
  768MOL0     H 3664   6.248   6.953   9.906  1.0296  1.3313 -1.5529
  768MOL0     H 3665   6.480   6.999   9.790 -1.3543  0.7543  1.8148
  768MOL0     H 3666   6.860   6.957   9.767 -1.5050 -1.2621  0.7900
  768MOL0     H 3667   7.095   7.018   9.746  0.3177 -0.5766  1.1716
  768MOL0     H 3668   7.472   6.817   9.604  0.0239  0.5667  1.4460
  768MOL0     H 3669   7.359   6.717   9.522 -0.2026 -1.1178  0.4450
  768MOL0     H 3670   7.340   6.567   9.699 -1.3553  1.2237  1.4754
  768MOL0     H 3671   7.332   6.684   9.825 -0.2804 -1.6749 -0.0533
  768MOL0     H 3672   7.496   6.560   9.884 -3.5107  2.7870  0.2137
  768MOL0     H 3673   7.584   6.708   9.825 -0.5204 -0.5319  0.2864
  768MOL0     H 3674   7.708   6.572   9.692  0.3816 -1.6790  1.0461
  768MOL0     H 3675   7.623   6.445   9.769  2.6649 -1.3439 -1.9207
  768MOL0     H 3676   7.481   6.422   9.373  4.4463  0.8137 -2.6127
  768MOL0     H 3677   7.161   6.637   9.553 -0.7845 -1.2823  0.8767
  768MOL0     H 3678   6.857   6.513   9.498 -0.9701 -2.0262  0.4683
  768MOL0     H 3679   7.013   6.459   9.570 -0.0086  0.9258  0.1576
  768MOL0     H 3680   6.865   6.470   9.662 -1.2208 -0.4807 -1.3822
  769MOL0     O 3681  11.251   3.483   8.539  0.4381 -0.4070 -0.3742
  769MOL0     C 3682  11.149   3.534   8.480 -1.2470 -0.2236 -0.1719
  769MOL0     O 3683  11.114   3.666   8.481  0.1135 -0.0639 -0.1121
  769MOL0     C 3684  11.204   3.755   8.532 -0.3223 -0.1213 -0.0362
  769MOL0     C 3685  11.218   3.785   8.671  0.7457  0.9705  0.1483
  769MOL0     C 3686  11.310   3.875   8.712 -0.0589 -0.6368 -0.0159
  769MOL0     C 3687  11.407   3.936   8.624  0.2635  1.0555 -1.0163
  769MOL0     O 3688  11.496   4.024   8.687 -0.7545 -0.7773  0.7158
  769MOL0     C 3689  11.600   4.087   8.606  0.6604 -0.4797  0.0442
  769MOL0     C 3690  11.548   4.223   8.565 -0.7222 -0.5322  0.2746
  769MOL0     C 3691  11.589   4.277   8.426  0.1294  0.0164 -0.6934
  769MOL0     C 3692  11.737   4.286   8.390  0.1547 -0.5420 -0.4345
  769MOL0     C 3693  11.760   4.277   8.243 -0.4576  0.0939 -0.6002
  769MOL0     C 3694  11.755   4.134   8.190 -0.9329  0.5007  0.5779
  769MOL0     C 3695  11.802   4.126   8.040 -0.5735 -0.1094  0.4635
  769MOL0     C 3696  11.716   4.193   7.933 -0.0437 -0.2756  0.0600
  769MOL0     N 3697  11.597   4.112   7.913  0.4523  0.1255  0.1221
  769MOL0     C 3698  11.597   4.007   7.827  0.5866  0.2196 -0.6823
  769MOL0     C 3699  11.463   3.994   7.797  1.0202 -0.1620  1.3089
  769MOL0     C 3700  11.393   3.896   7.707 -0.0646  0.6335 -0.2229
  769MOL0     C 3701  11.318   3.968   7.604 -0.1096 -0.2002  0.3191
  769MOL0     C 3702  11.202   4.061   7.633 -0.5962  0.0652 -0.8656
  769MOL0     C 3703  11.120   4.075   7.502 -0.5953 -0.4585 -0.3320
  769MOL0     O 3704  11.204   4.108   7.385  1.0171  0.5130  0.2041
  769MOL0     C 3705  11.128   4.157   7.284  0.3857 -0.3191 -0.3705
  769MOL0     C 3706  11.196   4.239   7.194 -0.3596  0.5562  0.1255
  769MOL0     C 3707  11.136   4.277   7.078 -0.3319 -0.3763 -0.2281
  769MOL0     C 3708  11.009   4.236   7.040 -0.1147  0.9527 -1.6028
  769MOL0     C 3709  10.955   4.280   6.911  0.2727  0.8784  1.1511
  769MOL0     O 3710  10.839   4.209   6.884  0.1951  0.6829 -0.6510
  769MOL0     C 3711  10.745   4.235   6.796 -0.3236 -0.4027  0.5574
  769MOL0     C 3712  10.624   4.171   6.816 -0.1173 -0.6984 -1.2591
  769MOL0     C 3713  10.519   4.184   6.723  0.4906 -0.5805  0.3310
  769MOL0     C 3714  10.522   4.265   6.612 -0.6128 -0.5558  1.7227
  769MOL0     O 3715  10.434   4.280   6.514  0.2995 -0.2205 -0.2795
  769MOL0     C 3716  10.326   4.194   6.517  0.1754  0.4671 -0.0930
  769MOL0     C 3717  10.227   4.246   6.407 -0.2771 -0.1788  0.3064
  769MOL0     C 3718  10.101   4.169   6.405  0.0328  0.1176 -0.6842
  769MOL0     C 3719  10.002   4.219   6.305 -0.7858 -0.2468  1.2117
  769MOL0     C 3720   9.860   4.174   6.325  0.0350 -0.0338 -0.0726
  769MOL0     C 3721   9.765   4.211   6.203 -0.0419  0.3950  0.8178
  769MOL0     C 3722   9.777   4.127   6.085  0.1051  0.8397  0.8356
  769MOL0     C 3723   9.664   4.162   5.990  0.1743 -0.6773 -0.0394
  769MOL0    Cl 3724   9.511   4.061   6.013  0.5664 -0.3692  0.2361
  769MOL0     C 3725  10.646   4.342   6.609 -0.1711  0.4550  0.1752
  769MOL0     C 3726  10.749   4.324   6.692 -0.0282  0.6211 -0.2257
  769MOL0     O 3727  11.005   4.362   6.839 -0.3138 -0.0670  0.7273
  769MOL0     C 3728  10.939   4.149   7.133  0.0990  0.1952  0.2500
  769MOL0     C 3729  11.005   4.105   7.249 -0.1079 -0.1255  0.8558
  769MOL0     N 3730  11.388   4.082   7.878  0.9264 -0.1966 -0.1430
  769MOL0     N 3731  11.469   4.149   7.941 -0.8184 -1.0132  0.6407
  769MOL0     C 3732  11.394   3.904   8.489  0.9572  0.1941 -0.2200
  769MOL0     C 3733  11.285   3.814   8.445 -0.7250 -0.0476  0.3556
  769MOL0     C 3734  11.050   3.443   8.428  0.5532  0.5559  1.2001
  769MOL0     C 3735  10.944   3.502   8.366  0.0681  0.0287  0.3446
  769MOL0     C 3736  10.838   3.435   8.296  0.0123  0.0878 -0.5712
  769MOL0     C 3737  10.833   3.298   8.304  0.3301 -0.0436  0.3162
  769MOL0     O 3738  10.728   3.223   8.245 -0.1148 -0.1699  0.0750
  769MOL0     C 3739  10.693   3.103   8.309  0.0042  0.6043 -0.4266
  769MOL0     C 3740  10.569   3.055   8.224  0.7642 -0.5109  0.4817
  769MOL0     C 3741  10.436   3.137   8.243 -0.1468  0.8557 -0.0825
  769MOL0     C 3742  10.322   3.066   8.325  0.0680  0.0773  0.9559
  769MOL0     C 3743  10.349   3.056   8.471  0.6713 -0.7566  0.7464
  769MOL0     C 3744  10.405   3.057   8.579  0.4453  1.2623 -0.0956
  769MOL0     C 3745  10.941   3.231   8.365 -0.4824  0.2328 -0.1629
  769MOL0     C 3746  11.050   3.303   8.426  0.0865  0.2675 -1.5880
  769MOL0     C 3747  11.147   3.213   8.490  1.5541  0.2847 -0.2625
  769MOL0     H 3748  11.152   3.717   8.724  0.6942 -0.6424 -1.8262
  769MOL0     H 3749  11.310   3.901   8.818  0.6711  2.7801 -0.7501
  769MOL0     H 3750  11.693   4.101   8.662  0.6909 -0.0451 -0.1080
  769MOL0     H 3751  11.640   4.038   8.517 -0.2952  0.2832 -0.8252
  769MOL0     H 3752  11.571   4.303   8.635 -0.6522 -0.5704  0.2956
  769MOL0     H 3753  11.440   4.210   8.548 -0.4798  0.9533 -3.5049
  769MOL0     H 3754  11.550   4.379   8.411  3.6360  1.5307 -0.6162
  769MOL0     H 3755  11.542   4.203   8.361  0.3754 -0.3046 -0.5093
  769MOL0     H 3756  11.771   4.387   8.413 -0.6364  0.0033 -1.5387
  769MOL0     H 3757  11.796   4.216   8.450  1.9005  1.0325 -0.2516
  769MOL0     H 3758  11.711   4.355   8.184  1.0989  1.7836  0.2160
  769MOL0     H 3759  11.866   4.303   8.234 -0.1043 -1.1996 -0.3727
  769MOL0     H 3760  11.805   4.072   8.264 -1.9157  0.8503  1.5650
  769MOL0     H 3761  11.658   4.083   8.192  0.9584 -3.5442  0.3655
  769MOL0     H 3762  11.819   4.022   8.010 -1.6083 -0.4445  0.9549
  769MOL0     H 3763  11.902   4.168   8.032 -1.6724  3.2145  2.2164
  769MOL0     H 3764  11.685   4.289   7.977  1.6306 -1.1443  3.5020
  769MOL0     H 3765  11.777   4.204   7.843  3.9183  1.9392  2.6885
  769MOL0     H 3766  11.669   3.959   7.761 -0.6326  0.9314 -2.6390
  769MOL0     H 3767  11.477   3.840   7.666 -2.2291 -0.5643 -3.3078
  769MOL0     H 3768  11.328   3.833   7.768  2.2652 -0.8772  0.8361
  769MOL0     H 3769  11.395   4.027   7.552  0.6385 -1.0235  0.4759
  769MOL0     H 3770  11.301   3.883   7.537 -0.3227  0.4749 -0.5088
  769MOL0     H 3771  11.244   4.159   7.659 -1.9169 -0.0491  2.0635
  769MOL0     H 3772  11.140   4.028   7.717 -1.0367 -2.6234 -2.1315
  769MOL0     H 3773  11.057   4.162   7.525  1.7110  0.6437  2.4662
  769MOL0     H 3774  11.051   3.993   7.481 -1.8374 -0.0468  1.8465
  769MOL0     H 3775  11.292   4.277   7.227  1.0752 -2.4489 -0.2319
  769MOL0     H 3776  11.178   4.348   7.008 -2.3288  0.3105 -0.7943
  769MOL0     H 3777  10.606   4.122   6.911  0.0426  1.6664  0.0573
  769MOL0     H 3778  10.432   4.130   6.760  0.6428  1.6371  4.6212
  769MOL0     H 3779  10.367   4.100   6.479  3.3323  2.2186 -1.4238
  769MOL0     H 3780  10.282   4.183   6.617 -2.6730  0.6536 -1.2427
  769MOL0     H 3781  10.209   4.351   6.431 -1.3916 -0.1102 -0.7181
  769MOL0     H 3782  10.280   4.241   6.311  2.5633  0.3009  1.7360
  769MOL0     H 3783  10.119   4.063   6.384  2.7613  0.8165 -2.3962
  769MOL0     H 3784  10.065   4.175   6.508  3.5445 -1.8192  0.8560
  769MOL0     H 3785  10.037   4.193   6.205  1.0113  0.5761  1.5741
  769MOL0     H 3786  10.005   4.328   6.310 -1.1088 -0.0761 -1.3338
  769MOL0     H 3787   9.821   4.229   6.411  0.2614  0.8246 -0.5042
  769MOL0     H 3788   9.858   4.066   6.337 -1.3185 -0.1680 -1.1598
  769MOL0     H 3789   9.662   4.202   6.239  0.3498 -2.0795  1.5160
  769MOL0     H 3790   9.785   4.315   6.178 -2.3242  1.6329  3.5813
  769MOL0     H 3791   9.761   4.019   6.097 -2.8793  0.8127 -2.1550
  769MOL0     H 3792   9.872   4.141   6.033  0.2015 -1.2154  0.3605
  769MOL0     H 3793   9.635   4.265   6.013 -1.4788 -0.9158 -0.9131
  769MOL0     H 3794   9.700   4.155   5.887 -0.0332 -5.2026 -0.0048
  769MOL0     H 3795  10.651   4.411   6.526  0.0869 -0.8713 -0.9636
  769MOL0     H 3796  10.833   4.387   6.665 -1.0252  0.2717 -5.0206
  769MOL0     H 3797  10.843   4.106   7.108  0.6493 -1.9753  1.5807
  769MOL0     H 3798  10.955   4.029   7.309  0.7081 -0.5400  1.0221
  769MOL0     H 3799  11.463   3.933   8.410  0.1081  1.9608 -0.3715
  769MOL0     H 3800  11.272   3.790   8.340 -1.7888 -1.2819  0.7353
  769MOL0     H 3801  10.933   3.610   8.364 -0.2864  0.2505  4.3841
  769MOL0     H 3802  10.758   3.488   8.245 -1.5332 -3.5757 -2.3503
  769MOL0     H 3803  10.679   3.109   8.417  1.0941 -3.4532  0.1089
  769MOL0     H 3804  10.777   3.035   8.287 -0.1587 -0.1513  1.2105
  769MOL0     H 3805  10.537   2.952   8.244 -0.3681 -0.1686  0.4742
  769MOL0     H 3806  10.598   3.066   8.119 -1.9337  0.4192 -0.2606
  769MOL0     H 3807  10.384   3.142   8.147  0.6251 -2.7429 -0.8571
  769MOL0     H 3808  10.444   3.236   8.287  0.9592  1.7570 -2.1933
  769MOL0     H 3809  10.229   3.123   8.326  0.9009  1.6579 -1.7022
  769MOL0     H 3810  10.318   2.965   8.285 -1.7434  0.6606 -0.4661
  769MOL0     H 3811  10.445   3.052   8.679 -0.8802  1.9994  0.4985
  769MOL0     H 3812  10.941   3.123   8.363  0.3300  0.2350 -0.4988
  769MOL0     H 3813  11.237   3.203   8.429  0.0281 -0.5337 -2.5016
  769MOL0     H 3814  11.187   3.256   8.583  2.8435  0.1279 -0.7237
  769MOL0     H 3815  11.103   3.115   8.510 -2.5922  2.0728  0.3713
  770MOL0     O 3816   4.562   4.710   4.058 -0.3372  0.1102 -0.0743
  770MOL0     C 3817   4.573   4.692   4.181 -0.2304  0.2989  0.5931
  770MOL0     O 3818   4.654   4.759   4.254 -0.8480 -0.4262 -0.6455
  770MOL0     C 3819   4.789   4.731   4.253  0.5101  0.2672 -0.6354
  770MOL0     C 3820   4.874   4.793   4.340 -0.1128 -0.1359  0.0683
  770MOL0     C 3821   5.010   4.766   4.330  0.1468  0.5559 -0.0459
  770MOL0     C 3822   5.066   4.666   4.254 -0.6413 -0.0448  0.5949
  770MOL0     O 3823   5.209   4.660   4.260  0.5765  0.0025 -0.7713
  770MOL0     C 3824   5.275   4.553   4.187  0.4507 -1.0049 -0.3697
  770MOL0     C 3825   5.426   4.573   4.175 -0.7957 -0.3709  0.5743
  770MOL0     C 3826   5.518   4.450   4.169 -0.5309  0.6028 -0.8929
  770MOL0     C 3827   5.654   4.475   4.104 -0.3367 -0.5934 -0.1203
  770MOL0     C 3828   5.758   4.368   4.124  0.0685  0.0169 -0.1312
  770MOL0     C 3829   5.883   4.367   4.053 -0.6810 -0.0389  0.2042
  770MOL0     C 3830   5.966   4.495   4.094  1.1219 -0.5084  0.0061
  770MOL0     C 3831   6.103   4.498   4.032  0.3315  0.5323  0.3882
  770MOL0     N 3832   6.195   4.426   4.106  0.5639  0.2841  0.1787
  770MOL0     C 3833   6.169   4.326   4.194 -0.3472  0.0636  0.2980
  770MOL0     C 3834   6.292   4.307   4.254  0.9552  0.0460 -0.1001
  770MOL0     C 3835   6.316   4.212   4.366 -0.9817 -0.2130 -0.3037
  770MOL0     C 3836   6.434   4.123   4.358  0.6336  1.4985  0.4821
  770MOL0     C 3837   6.425   4.031   4.488 -0.9717  0.5404 -0.8522
  770MOL0     C 3838   6.563   3.965   4.519  0.2887 -1.4475 -0.2607
  770MOL0     O 3839   6.534   3.862   4.604  0.3519 -0.3356  0.2629
  770MOL0     C 3840   6.515   3.877   4.740 -0.8018 -0.5065 -0.1742
  770MOL0     C 3841   6.446   3.780   4.819  0.0095  0.3754  0.5162
  770MOL0     C 3842   6.429   3.796   4.956  0.4947  0.2860 -0.4905
  770MOL0     C 3843   6.469   3.919   5.023  0.7007  0.1035  0.3816
  770MOL0     C 3844   6.446   3.950   5.165  0.5057 -1.0713  0.1464
  770MOL0     O 3845   6.528   4.042   5.225  0.2342 -0.4434 -0.1984
  770MOL0     C 3846   6.514   4.094   5.353 -0.4179 -0.0967 -0.4434
  770MOL0     C 3847   6.595   4.200   5.381  0.6615 -0.9525  0.3789
  770MOL0     C 3848   6.592   4.248   5.517  0.4679 -0.4045 -1.3023
  770MOL0     C 3849   6.504   4.207   5.621  0.1663 -0.6404 -0.2730
  770MOL0     O 3850   6.480   4.284   5.728  0.4255 -0.1951 -0.4017
  770MOL0     C 3851   6.411   4.217   5.841  0.7209 -0.1104 -0.0780
  770MOL0     C 3852   6.447   4.298   5.960  0.6281 -0.0938 -0.2307
  770MOL0     C 3853   6.388   4.447   5.951 -0.1784 -0.1891  0.0321
  770MOL0     C 3854   6.472   4.546   6.044 -0.2494  0.2053 -0.3898
  770MOL0     C 3855   6.462   4.520   6.191 -0.2535  1.1160 -0.5475
  770MOL0     C 3856   6.343   4.600   6.252  0.2926  0.2937 -0.1717
  770MOL0     C 3857   6.354   4.600   6.403 -0.7923 -0.5279 -0.9888
  770MOL0     C 3858   6.235   4.664   6.470 -0.5694 -1.6259  0.3882
  770MOL0    Cl 3859   6.238   4.844   6.415  0.3969  0.2146 -0.2940
  770MOL0     C 3860   6.425   4.093   5.583  0.5845  0.2986 -1.2816
  770MOL0     C 3861   6.427   4.042   5.451 -1.1375  0.2183 -1.0693
  770MOL0     O 3862   6.346   3.893   5.222 -0.4291 -0.0976  0.0845
  770MOL0     C 3863   6.525   4.010   4.942 -0.2110  0.2648 -0.2168
  770MOL0     C 3864   6.563   3.988   4.812  0.0770  0.0616 -1.0757
  770MOL0     N 3865   6.390   4.390   4.194 -0.3773  0.6620  0.5583
  770MOL0     N 3866   6.327   4.455   4.101 -0.3932  0.3118 -0.5935
  770MOL0     C 3867   4.977   4.591   4.174 -0.2609  0.3332 -0.2997
  770MOL0     C 3868   4.842   4.636   4.165 -0.3820  0.1727 -0.0850
  770MOL0     C 3869   4.493   4.589   4.253 -0.4723  0.0276 -0.8173
  770MOL0     C 3870   4.527   4.573   4.392  0.0082  0.2394  0.5481
  770MOL0     C 3871   4.463   4.484   4.468  0.7843  0.2091 -0.2851
  770MOL0     C 3872   4.361   4.409   4.412 -0.1387  0.0922 -0.1393
  770MOL0     O 3873   4.271   4.347   4.502  0.2086 -0.3412  0.4957
  770MOL0     C 3874   4.324   4.235   4.568 -0.4985 -0.1093  0.1827
  770MOL0     C 3875   4.230   4.117   4.567 -0.4912  0.7725  0.4994
  770MOL0     C 3876   4.101   4.130   4.652 -0.3710 -0.2924  0.3056
  770MOL0     C 3877   4.113   4.125   4.809  0.0496  1.0817  0.1353
  770MOL0     C 3878   3.983   4.155   4.874  1.0259  0.6153 -0.0414
  770MOL0     C 3879   3.871   4.173   4.928 -0.1998 -0.9830  0.0088
  770MOL0     C 3880   4.330   4.413   4.278 -0.7291 -0.4218  0.4380
  770MOL0     C 3881   4.398   4.502   4.196  0.9605  0.0111 -0.0763
  770MOL0     C 3882   4.325   4.522   4.058 -0.0911  0.3317 -0.4386
  770MOL0     H 3883   4.831   4.874   4.399  2.1795  0.7830  0.6086
  770MOL0     H 3884   5.077   4.825   4.392  0.3660  1.6750 -1.2941
  770MOL0     H 3885   5.268   4.463   4.249 -0.0088  0.1490  1.3054
  770MOL0     H 3886   5.236   4.536   4.086  2.2534  1.7218 -1.6602
  770MOL0     H 3887   5.457   4.639   4.257 -2.0806  0.5192  0.3757
  770MOL0     H 3888   5.445   4.633   4.086  0.6104  1.4215  1.9893
  770MOL0     H 3889   5.461   4.375   4.114  1.0528 -0.7325 -0.7958
  770MOL0     H 3890   5.537   4.408   4.269 -2.3544  0.7958 -0.4384
  770MOL0     H 3891   5.652   4.501   3.998  1.0301 -1.3836 -0.3588
  770MOL0     H 3892   5.696   4.566   4.149 -2.7510  0.5210  0.0133
  770MOL0     H 3893   5.787   4.359   4.229  0.5186 -1.5778 -0.3691
  770MOL0     H 3894   5.709   4.276   4.090  0.8228  0.6680 -3.3079
  770MOL0     H 3895   5.933   4.272   4.078  0.1725  0.7451  1.6342
  770MOL0     H 3896   5.872   4.383   3.946  0.4086  1.4420  0.2767
  770MOL0     H 3897   5.964   4.507   4.202  0.2667 -0.2952 -0.0227
  770MOL0     H 3898   5.914   4.590   4.078  3.3814  0.9315  0.7485
  770MOL0     H 3899   6.101   4.470   3.926  4.4350  0.4984  0.1679
  770MOL0     H 3900   6.131   4.604   4.030  0.6023  0.4533 -0.9595
  770MOL0     H 3901   6.083   4.276   4.237  0.2251  1.0306  2.7706
  770MOL0     H 3902   6.353   4.264   4.455 -0.5714 -1.3155  0.1941
  770MOL0     H 3903   6.221   4.160   4.378 -0.8407 -0.4903 -0.3796
  770MOL0     H 3904   6.439   4.066   4.265 -0.5687 -1.9734  2.3708
  770MOL0     H 3905   6.524   4.185   4.356  0.0714  2.4727  2.2235
  770MOL0     H 3906   6.345   3.957   4.471  1.8111 -2.6856 -0.8598
  770MOL0     H 3907   6.421   4.103   4.570  6.2070 -0.7089  1.2354
  770MOL0     H 3908   6.630   4.036   4.569 -2.7191  0.2271  1.7466
  770MOL0     H 3909   6.619   3.931   4.432  0.9422 -0.9874 -0.0317
  770MOL0     H 3910   6.422   3.682   4.777  1.9658  0.6866 -1.5069
  770MOL0     H 3911   6.382   3.712   5.005  1.1187  0.8670  1.1821
  770MOL0     H 3912   6.658   4.257   5.313 -1.6602  0.9698 -0.3089
  770MOL0     H 3913   6.654   4.334   5.536 -2.8551  2.0378 -0.5047
  770MOL0     H 3914   6.306   4.215   5.810  0.3884 -0.9805  1.0637
  770MOL0     H 3915   6.445   4.116   5.864 -0.5118 -1.1272 -2.3381
  770MOL0     H 3916   6.412   4.254   6.054  1.8072  0.5888  0.5722
  770MOL0     H 3917   6.556   4.288   5.962  0.4500 -2.5164  1.3167
  770MOL0     H 3918   6.393   4.483   5.847 -1.4695  1.8289  0.6014
  770MOL0     H 3919   6.281   4.439   5.973 -0.4405  2.1636 -0.1206
  770MOL0     H 3920   6.451   4.652   6.023 -0.8829 -0.0451 -1.0356
  770MOL0     H 3921   6.578   4.540   6.020  0.9650  3.5490  2.9522
  770MOL0     H 3922   6.556   4.547   6.240 -1.5661  1.0045  2.2420
  770MOL0     H 3923   6.446   4.413   6.206 -2.5143  1.7137  2.3356
  770MOL0     H 3924   6.357   4.706   6.227  1.8370  0.9364  2.9445
  770MOL0     H 3925   6.249   4.568   6.206  1.1943  0.7430 -2.4849
  770MOL0     H 3926   6.442   4.653   6.441  1.6209 -4.1709 -1.0451
  770MOL0     H 3927   6.362   4.495   6.432  0.1776  0.0954  1.1466
  770MOL0     H 3928   6.146   4.619   6.426 -1.2346 -0.4098  0.4444
  770MOL0     H 3929   6.229   4.659   6.579 -0.1056  0.9327  0.6088
  770MOL0     H 3930   6.354   4.048   5.651  0.9476 -0.2580 -1.2601
  770MOL0     H 3931   6.367   3.953   5.433  0.7484 -0.9676 -1.7557
  770MOL0     H 3932   6.550   4.103   4.992  2.3318  0.3757 -1.5421
  770MOL0     H 3933   6.638   4.056   4.774  1.1239 -1.5541 -2.0293
  770MOL0     H 3934   5.013   4.517   4.103 -4.8414  1.4045 -4.2811
  770MOL0     H 3935   4.770   4.576   4.110 -0.6933  1.6904 -1.4187
  770MOL0     H 3936   4.592   4.648   4.435 -1.3513  1.5788  0.3640
  770MOL0     H 3937   4.483   4.475   4.574 -0.2354 -0.6143 -0.1495
  770MOL0     H 3938   4.341   4.252   4.675 -0.8431  1.9283 -0.0607
  770MOL0     H 3939   4.413   4.203   4.513 -2.1259 -2.1034 -1.4177
  770MOL0     H 3940   4.285   4.031   4.607 -0.8722  0.0131 -0.5423
  770MOL0     H 3941   4.212   4.089   4.462 -0.3001 -2.6375  1.2390
  770MOL0     H 3942   4.032   4.052   4.619  0.9858 -1.7334  0.7910
  770MOL0     H 3943   4.055   4.227   4.630  1.2702  0.4891  0.1363
  770MOL0     H 3944   4.143   4.023   4.832  0.1316  0.3710 -2.7234
  770MOL0     H 3945   4.192   4.188   4.851  0.9878 -1.1687  1.9479
  770MOL0     H 3946   3.770   4.183   4.964 -0.2093 -0.6741 -0.0977
  770MOL0     H 3947   4.236   4.369   4.246 -0.9434  1.8822 -2.4629
  770MOL0     H 3948   4.235   4.460   4.051 -0.1285 -0.0391  2.2631
  770MOL0     H 3949   4.297   4.625   4.035 -1.9791 -1.1650 -6.8077
  770MOL0     H 3950   4.391   4.500   3.974 -2.2804 -0.5590 -2.0155
  771MOL0     O 3951   5.392   5.050   8.380  0.1720 -0.0421 -0.8040
  771MOL0     C 3952   5.477   5.094   8.457  0.8483  1.1389  1.0567
  771MOL0     O 3953   5.607   5.123   8.417 -1.1675  0.1932  0.1297
  771MOL0     C 3954   5.653   5.110   8.287 -0.4354 -0.2594 -0.1740
  771MOL0     C 3955   5.589   5.106   8.163 -0.3634 -0.4291 -0.3344
  771MOL0     C 3956   5.667   5.106   8.048  0.0430 -0.9203  0.4464
  771MOL0     C 3957   5.809   5.105   8.053  0.8525 -0.6038 -0.0750
  771MOL0     O 3958   5.903   5.121   7.957  0.6687 -0.0076 -0.1532
  771MOL0     C 3959   5.879   5.204   7.838 -0.7585  0.7356  0.6717
  771MOL0     C 3960   5.925   5.350   7.858  0.5721  0.6303 -1.2138
  771MOL0     C 3961   6.075   5.359   7.837  0.9105 -0.5492  0.4040
  771MOL0     C 3962   6.118   5.477   7.744  0.3135  0.7120  0.3034
  771MOL0     C 3963   6.269   5.492   7.750 -0.6835 -0.1646  1.0938
  771MOL0     C 3964   6.305   5.628   7.687  0.8293 -0.1851  0.3516
  771MOL0     C 3965   6.450   5.642   7.667 -0.2434 -0.4507  0.3532
  771MOL0     C 3966   6.507   5.750   7.754 -0.3542  0.2436  0.2575
  771MOL0     N 3967   6.641   5.776   7.711  0.2594  0.1254  1.0558
  771MOL0     C 3968   6.747   5.708   7.755 -0.0870  0.1859  0.3262
  771MOL0     C 3969   6.845   5.723   7.654 -0.1118 -0.0110  0.1965
  771MOL0     C 3970   6.983   5.667   7.666 -0.0797  0.4896 -0.2221
  771MOL0     C 3971   7.086   5.761   7.694 -0.2420 -0.2690  0.1516
  771MOL0     C 3972   7.097   5.881   7.594 -0.1250 -0.9363 -0.8709
  771MOL0     C 3973   7.216   5.980   7.632  1.0564  0.8647  0.0679
  771MOL0     O 3974   7.221   6.038   7.763 -1.0750 -0.1570 -0.3013
  771MOL0     C 3975   7.301   6.149   7.785 -0.5393 -0.3284  0.3294
  771MOL0     C 3976   7.408   6.179   7.705  0.3259 -0.3323 -0.6638
  771MOL0     C 3977   7.488   6.293   7.723 -0.7419  0.3861 -0.3392
  771MOL0     C 3978   7.473   6.381   7.837 -1.0617  0.0239  0.1421
  771MOL0     C 3979   7.555   6.504   7.869  0.5567  0.5244 -0.4826
  771MOL0     O 3980   7.529   6.565   7.993 -0.2516 -0.0582  0.5806
  771MOL0     C 3981   7.615   6.650   8.053  0.3773 -1.6380 -1.1216
  771MOL0     C 3982   7.701   6.745   7.991 -0.4231  0.1127 -0.3983
  771MOL0     C 3983   7.797   6.825   8.078 -1.3529 -0.0476  0.4789
  771MOL0     C 3984   7.797   6.815   8.216 -0.5147  1.1813 -0.7337
  771MOL0     O 3985   7.895   6.877   8.284  0.2788 -0.7649 -0.4875
  771MOL0     C 3986   7.841   6.956   8.385 -0.0637  0.2021 -0.2128
  771MOL0     C 3987   7.955   7.006   8.477 -0.3407  0.4153  0.3050
  771MOL0     C 3988   7.956   7.158   8.479 -0.4181  0.3700  0.8026
  771MOL0     C 3989   8.013   7.229   8.350 -0.3036  0.0171  0.1222
  771MOL0     C 3990   8.019   7.372   8.380 -0.7186  0.3006  0.7680
  771MOL0     C 3991   8.067   7.455   8.256  0.2810  0.0226 -0.4933
  771MOL0     C 3992   8.113   7.590   8.289  0.1571 -0.0971 -0.3477
  771MOL0     C 3993   8.005   7.689   8.338  0.0944 -0.3423  0.6076
  771MOL0    Cl 3994   7.865   7.698   8.221 -0.0671  0.0345 -0.4837
  771MOL0     C 3995   7.704   6.727   8.274 -0.0909 -0.1464 -0.7454
  771MOL0     C 3996   7.613   6.647   8.196  0.2344  0.6077 -0.4445
  771MOL0     O 3997   7.640   6.536   7.793  0.7524  0.9774 -0.2669
  771MOL0     C 3998   7.360   6.347   7.923  0.0212  0.0671 -0.4965
  771MOL0     C 3999   7.273   6.236   7.881  0.6284 -0.6016 -0.3239
  771MOL0     N 4000   6.796   5.811   7.559 -0.1960 -0.1718  0.9354
  771MOL0     N 4001   6.673   5.836   7.590 -0.3333 -0.0575 -0.4125
  771MOL0     C 4002   5.863   5.091   8.175 -0.4843  0.6100 -0.2114
  771MOL0     C 4003   5.792   5.101   8.288  0.0217  0.9449  0.3151
  771MOL0     C 4004   5.438   5.138   8.596 -0.2825 -0.1127 -0.0971
  771MOL0     C 4005   5.503   5.258   8.646  0.0007  0.3593 -0.3381
  771MOL0     C 4006   5.464   5.323   8.774  0.3973  0.8664  0.0473
  771MOL0     C 4007   5.362   5.257   8.852 -0.4789 -0.6981  0.0278
  771MOL0     O 4008   5.319   5.300   8.977  0.5835 -0.2206  0.0839
  771MOL0     C 4009   5.368   5.426   9.035  0.4305  0.6278  0.6650
  771MOL0     C 4010   5.365   5.418   9.187  0.8220  0.3577 -0.6130
  771MOL0     C 4011   5.253   5.333   9.235 -0.1532  0.6252 -0.0900
  771MOL0     C 4012   5.220   5.342   9.383 -0.1528  0.1974 -0.3076
  771MOL0     C 4013   5.341   5.356   9.462  0.3127  0.8783 -0.4339
  771MOL0     C 4014   5.444   5.373   9.516  0.4872  0.1330 -0.7882
  771MOL0     C 4015   5.294   5.148   8.795  0.0315 -0.6111  0.8041
  771MOL0     C 4016   5.331   5.091   8.672  0.7438 -0.3458 -0.4964
  771MOL0     C 4017   5.269   4.960   8.643  0.3351  0.7084  0.7465
  771MOL0     H 4018   5.482   5.110   8.147 -0.0942  0.4744 -2.1318
  771MOL0     H 4019   5.614   5.101   7.954 -2.1072  1.0999  1.4618
  771MOL0     H 4020   5.929   5.150   7.757 -1.6885 -2.2323  1.9484
  771MOL0     H 4021   5.773   5.197   7.814 -0.9203 -0.4694  1.5995
  771MOL0     H 4022   5.888   5.385   7.955  0.7576 -0.1389 -0.8577
  771MOL0     H 4023   5.882   5.420   7.785  0.2052  2.9820  1.1012
  771MOL0     H 4024   6.112   5.270   7.786 -0.2792 -0.0181 -1.4742
  771MOL0     H 4025   6.126   5.366   7.933  0.7338  0.7435  0.4190
  771MOL0     H 4026   6.083   5.475   7.640 -0.0027 -0.4760  0.4204
  771MOL0     H 4027   6.063   5.561   7.787 -2.0776 -0.3380 -0.5353
  771MOL0     H 4028   6.318   5.469   7.845  2.3905  2.4705  0.2960
  771MOL0     H 4029   6.305   5.420   7.677 -1.3325  1.4701 -0.9370
  771MOL0     H 4030   6.255   5.636   7.590 -0.5302 -0.8269  0.9746
  771MOL0     H 4031   6.272   5.704   7.758  2.9238 -1.4281  2.8194
  771MOL0     H 4032   6.468   5.670   7.563  3.9403  0.0107  1.0513
  771MOL0     H 4033   6.486   5.539   7.669 -2.7504 -1.5515 -2.4890
  771MOL0     H 4034   6.452   5.842   7.729 -1.1003 -0.0618  0.7303
  771MOL0     H 4035   6.504   5.728   7.861 -0.7029 -2.1081 -0.1890
  771MOL0     H 4036   6.766   5.667   7.853  1.1998  0.8589  0.3703
  771MOL0     H 4037   6.995   5.581   7.733 -0.1163 -1.3121 -2.4134
  771MOL0     H 4038   7.005   5.628   7.567 -1.7243 -0.3063 -0.3187
  771MOL0     H 4039   7.071   5.815   7.788  2.1742 -2.0434  1.7056
  771MOL0     H 4040   7.179   5.703   7.698 -0.9796 -1.6349 -1.2931
  771MOL0     H 4041   7.011   5.949   7.602  0.3721 -0.5260  1.8192
  771MOL0     H 4042   7.115   5.846   7.492  0.1375 -0.6878 -0.9114
  771MOL0     H 4043   7.230   6.062   7.561  2.5156  0.7369  0.1706
  771MOL0     H 4044   7.303   5.915   7.622 -0.8114 -2.1176  1.6835
  771MOL0     H 4045   7.425   6.114   7.619 -0.3758 -2.9160  1.0155
  771MOL0     H 4046   7.575   6.305   7.659 -0.5519  0.6684 -0.0309
  771MOL0     H 4047   7.710   6.753   7.883 -1.1822 -0.8274 -0.5401
  771MOL0     H 4048   7.874   6.891   8.039  0.2531 -0.6980  2.3758
  771MOL0     H 4049   7.787   7.037   8.336 -0.1725  0.8327  0.9251
  771MOL0     H 4050   7.759   6.907   8.439 -0.0119 -1.5397 -1.6386
  771MOL0     H 4051   7.932   6.968   8.577  0.7330  1.1985  0.8655
  771MOL0     H 4052   8.052   6.966   8.447  0.0581  3.0223 -2.2927
  771MOL0     H 4053   7.857   7.198   8.505 -1.3613 -0.9645 -0.5714
  771MOL0     H 4054   8.014   7.188   8.567  0.9006 -0.5422  0.2664
  771MOL0     H 4055   7.951   7.196   8.266  2.3413 -1.0736 -1.5103
  771MOL0     H 4056   8.114   7.201   8.321 -0.2738  1.7451 -1.6288
  771MOL0     H 4057   8.094   7.393   8.456  0.8810  2.0137 -1.1449
  771MOL0     H 4058   7.918   7.398   8.412 -2.0237 -3.8372  0.5540
  771MOL0     H 4059   8.152   7.395   8.220  1.1063  0.1079  1.2246
  771MOL0     H 4060   7.998   7.463   8.172 -0.9319  1.7843  0.6181
  771MOL0     H 4061   8.149   7.646   8.201  1.0972  1.4748  0.9794
  771MOL0     H 4062   8.196   7.599   8.360 -0.5945  2.1240  0.3499
  771MOL0     H 4063   7.972   7.637   8.428  1.4441 -4.9935 -1.3049
  771MOL0     H 4064   8.050   7.788   8.346 -0.4067  0.0027 -0.4907
  771MOL0     H 4065   7.708   6.710   8.381  1.5367 -3.7961 -1.2561
  771MOL0     H 4066   7.559   6.561   8.234  0.0767  2.2743  3.5286
  771MOL0     H 4067   7.332   6.420   7.998  1.7638  0.4049 -0.1418
  771MOL0     H 4068   7.188   6.214   7.944  1.2202  1.2715  1.2304
  771MOL0     H 4069   5.969   5.112   8.188  0.2681 -0.9632 -2.8735
  771MOL0     H 4070   5.837   5.105   8.387 -0.4003  2.7094  0.4656
  771MOL0     H 4071   5.595   5.300   8.608  0.7459  0.6857  1.7145
  771MOL0     H 4072   5.520   5.412   8.803  0.4725  0.2627  1.8513
  771MOL0     H 4073   5.308   5.509   8.996  2.1777  1.3409 -0.6529
  771MOL0     H 4074   5.471   5.443   9.002 -0.6690 -1.2307 -4.6985
  771MOL0     H 4075   5.351   5.516   9.233 -2.4367 -1.1357  1.9755
  771MOL0     H 4076   5.451   5.364   9.227 -1.0871  0.1585  3.8088
  771MOL0     H 4077   5.285   5.230   9.219 -0.8529  0.7898 -3.1292
  771MOL0     H 4078   5.163   5.351   9.176 -0.1365  1.3707  0.0985
  771MOL0     H 4079   5.147   5.416   9.415  1.6252  1.3260  1.3700
  771MOL0     H 4080   5.160   5.253   9.405 -1.4675  0.9229 -0.8459
  771MOL0     H 4081   5.534   5.406   9.565  0.0767  1.4942 -0.8984
  771MOL0     H 4082   5.218   5.103   8.857 -3.0776  0.9592 -1.5848
  771MOL0     H 4083   5.219   4.963   8.546  1.6816  1.2745  0.0389
  771MOL0     H 4084   5.336   4.874   8.652 -0.8426 -0.3721 -0.3504
  771MOL0     H 4085   5.196   4.942   8.722 -0.5347 -2.4048 -0.6168
  772MOL0     O 4086   9.581   5.705  10.649 -0.2978 -0.3223 -0.6077
  772MOL0     C 4087   9.542   5.716  10.530 -0.3908  0.5101 -0.6510
  772MOL0     O 4088   9.549   5.618  10.428 -0.0654 -0.2115 -0.1464
  772MOL0     C 4089   9.596   5.491  10.456 -0.5694  0.2720  0.4036
  772MOL0     C 4090   9.729   5.454  10.456 -0.0524  0.4435 -0.5221
  772MOL0     C 4091   9.775   5.335  10.513 -0.3494 -0.8339  0.2033
  772MOL0     C 4092   9.681   5.246  10.570 -0.6638  0.2188  0.3737
  772MOL0     O 4093   9.718   5.123  10.613  0.8023  0.7850 -0.5841
  772MOL0     C 4094   9.730   5.017  10.515  0.5769 -0.2752  1.0486
  772MOL0     C 4095   9.834   4.915  10.552 -0.7947  0.3274  0.0668
  772MOL0     C 4096   9.913   4.872  10.435  0.3231 -0.1628  0.6138
  772MOL0     C 4097   9.950   4.732  10.480  0.4277  0.2804 -0.8215
  772MOL0     C 4098  10.028   4.652  10.369 -0.0633  0.2997 -0.0761
  772MOL0     C 4099   9.935   4.572  10.275  0.0582  0.3335  0.6497
  772MOL0     C 4100  10.001   4.508  10.146 -0.1052  0.7408 -0.3106
  772MOL0     C 4101  10.112   4.416  10.193  0.1339  0.7368 -0.1919
  772MOL0     N 4102  10.150   4.329  10.083 -1.4016 -0.4184  0.4493
  772MOL0     C 4103  10.226   4.378   9.977 -0.1126  0.4586 -0.6879
  772MOL0     C 4104  10.184   4.298   9.870 -0.6943 -0.6753 -0.7289
  772MOL0     C 4105  10.236   4.305   9.736 -0.1925 -0.0513  0.5691
  772MOL0     C 4106  10.256   4.161   9.678 -0.3056  0.3220  0.2263
  772MOL0     C 4107  10.333   4.167   9.541  0.2994 -0.6156 -1.0480
  772MOL0     C 4108  10.238   4.222   9.428  0.2225 -0.1582 -1.1014
  772MOL0     O 4109  10.309   4.231   9.308 -0.2165  0.0494  0.5263
  772MOL0     C 4110  10.246   4.305   9.212 -0.6730 -0.4504  0.2044
  772MOL0     C 4111  10.114   4.270   9.175  0.0121  0.1944  0.4661
  772MOL0     C 4112  10.060   4.335   9.059  0.6509  0.0135 -0.5007
  772MOL0     C 4113  10.122   4.441   8.992 -0.3811 -0.3984 -0.2395
  772MOL0     C 4114  10.053   4.511   8.886  0.4518  1.2655  1.2465
  772MOL0     O 4115   9.931   4.460   8.845  0.1933  0.0707 -0.4473
  772MOL0     C 4116   9.853   4.493   8.737 -0.0002 -1.2516  0.1656
  772MOL0     C 4117   9.905   4.545   8.622  0.4704  0.0174 -0.3311
  772MOL0     C 4118   9.828   4.591   8.511  0.6680  0.1384 -0.5067
  772MOL0     C 4119   9.687   4.587   8.521  0.0788  0.4755 -0.4054
  772MOL0     O 4120   9.615   4.620   8.408 -0.0413 -0.1494  0.7371
  772MOL0     C 4121   9.474   4.635   8.415 -0.2589  0.9857 -0.7783
  772MOL0     C 4122   9.426   4.678   8.279 -0.1354  0.8042 -0.1745
  772MOL0     C 4123   9.278   4.700   8.278 -0.5156 -0.3406  0.0699
  772MOL0     C 4124   9.234   4.756   8.140 -0.6521 -0.3210  0.8516
  772MOL0     C 4125   9.086   4.779   8.126  0.1059  0.5189  0.0044
  772MOL0     C 4126   9.038   4.904   8.196 -0.4897 -0.1049 -0.4032
  772MOL0     C 4127   9.120   5.037   8.160 -0.3147  0.0738 -1.0727
  772MOL0     C 4128   9.023   5.153   8.181 -0.3864  0.1514 -0.3672
  772MOL0    Cl 4129   8.972   5.177   8.355 -0.1292 -0.2430 -0.0087
  772MOL0     C 4130   9.639   4.535   8.636  0.6219 -0.5117  0.2506
  772MOL0     C 4131   9.717   4.489   8.743  1.0504 -0.1515  0.2472
  772MOL0     O 4132  10.096   4.614   8.842 -0.9068 -0.5486  0.4131
  772MOL0     C 4133  10.251   4.477   9.036 -0.2404  0.6290 -0.0781
  772MOL0     C 4134  10.308   4.408   9.138  0.1444 -0.1257  0.3135
  772MOL0     N 4135  10.089   4.206   9.914  1.0134  0.4193  0.4585
  772MOL0     N 4136  10.070   4.224  10.044 -0.0166  0.8136  0.2989
  772MOL0     C 4137   9.546   5.277  10.566 -0.2825  0.0998 -0.1307
  772MOL0     C 4138   9.511   5.401  10.513 -0.6690  0.2881  1.3954
  772MOL0     C 4139   9.486   5.850  10.488  0.2716  0.1579 -1.1471
  772MOL0     C 4140   9.422   5.858  10.364 -0.2893  1.2863  0.0419
  772MOL0     C 4141   9.365   5.976  10.331  0.5256  0.3334 -0.1621
  772MOL0     C 4142   9.383   6.089  10.392 -0.5487  0.4772  0.0234
  772MOL0     O 4143   9.321   6.198  10.332 -0.3774  1.1249 -0.3910
  772MOL0     C 4144   9.267   6.290  10.417  0.6126 -1.0987 -0.0857
  772MOL0     C 4145   9.149   6.243  10.501  0.0056  0.3489  1.1243
  772MOL0     C 4146   9.104   6.363  10.592 -0.9412  0.4884  0.0187
  772MOL0     C 4147   8.991   6.321  10.682 -0.4225 -0.1038 -0.3554
  772MOL0     C 4148   9.049   6.273  10.807 -1.0529  0.6789  0.5342
  772MOL0     C 4149   9.104   6.247  10.914 -0.3786 -0.2290 -0.2897
  772MOL0     C 4150   9.452   6.083  10.514  0.2969 -0.7718 -0.3858
  772MOL0     C 4151   9.488   5.964  10.572 -0.2325  0.5875  0.0323
  772MOL0     C 4152   9.500   5.961  10.724 -0.1682  0.6094 -0.1012
  772MOL0     H 4153   9.801   5.530  10.430 -0.7624  0.8255 -1.4024
  772MOL0     H 4154   9.879   5.309  10.532 -0.6211 -0.1580  2.9143
  772MOL0     H 4155   9.628   4.980  10.502 -0.2728  2.6629 -2.1499
  772MOL0     H 4156   9.764   5.057  10.419  0.2734  0.9491  1.4280
  772MOL0     H 4157   9.788   4.831  10.605  1.1479 -0.0489  1.2506
  772MOL0     H 4158   9.906   4.952  10.625  0.6118 -0.8595 -0.6685
  772MOL0     H 4159   9.999   4.938  10.421 -0.5182  0.6474 -0.9631
  772MOL0     H 4160   9.857   4.868  10.342  0.1661 -2.1290  0.7402
  772MOL0     H 4161  10.011   4.751  10.569 -1.2170 -1.3758  0.7708
  772MOL0     H 4162   9.868   4.663  10.501  1.4216 -1.5998 -2.6685
  772MOL0     H 4163  10.095   4.719  10.315 -1.2078  2.3087  0.8830
  772MOL0     H 4164  10.092   4.580  10.420 -0.7027 -0.2673 -0.0523
  772MOL0     H 4165   9.898   4.491  10.338  0.0673 -0.2070 -0.0296
  772MOL0     H 4166   9.859   4.639  10.233  1.9653  1.4563 -1.2215
  772MOL0     H 4167  10.050   4.585  10.087 -0.8308 -0.1856 -2.2180
  772MOL0     H 4168   9.929   4.443  10.096  0.3434  0.2917 -0.3831
  772MOL0     H 4169  10.195   4.481  10.222 -1.1308  1.1659  2.8422
  772MOL0     H 4170  10.081   4.352  10.276  0.5362 -2.0241 -2.0179
  772MOL0     H 4171  10.295   4.462   9.975 -0.7513  0.9848 -1.1178
  772MOL0     H 4172  10.175   4.375   9.678  1.1570  2.7311  2.2700
  772MOL0     H 4173  10.337   4.347   9.735  0.3343 -1.1663  1.9845
  772MOL0     H 4174  10.307   4.102   9.754 -1.8414 -1.1008  0.2109
  772MOL0     H 4175  10.162   4.106   9.666 -0.3471  0.2082  1.0222
  772MOL0     H 4176  10.355   4.062   9.518 -3.2045 -1.5587 -0.6559
  772MOL0     H 4177  10.418   4.235   9.552  0.9927 -1.8754  3.0275
  772MOL0     H 4178  10.195   4.319   9.453 -0.8148 -0.1354 -2.8343
  772MOL0     H 4179  10.154   4.153   9.427 -0.8400  1.0850 -2.7983
  772MOL0     H 4180  10.068   4.187   9.228 -1.3063 -0.2846 -1.3131
  772MOL0     H 4181   9.958   4.305   9.035  1.8466 -2.0396 -3.6519
  772MOL0     H 4182  10.008   4.577   8.614 -0.6729  4.5256  0.2060
  772MOL0     H 4183   9.876   4.636   8.425 -0.6894 -1.6187 -2.2652
  772MOL0     H 4184   9.427   4.539   8.438 -0.1881  1.2401  0.4632
  772MOL0     H 4185   9.450   4.721   8.478  0.7794  1.1103 -0.5487
  772MOL0     H 4186   9.480   4.770   8.256 -0.8662  1.5730  1.1239
  772MOL0     H 4187   9.439   4.591   8.213 -3.5495 -2.8855  3.4716
  772MOL0     H 4188   9.225   4.610   8.309 -1.6587  0.3910  0.3126
  772MOL0     H 4189   9.254   4.782   8.347 -0.2223 -0.2233  0.0377
  772MOL0     H 4190   9.256   4.673   8.072  0.2588 -0.2856  1.0908
  772MOL0     H 4191   9.289   4.845   8.110 -0.9518 -0.1157  0.9030
  772MOL0     H 4192   9.029   4.696   8.169  0.7229  0.1101  0.0521
  772MOL0     H 4193   9.060   4.798   8.022  1.2859 -0.5626 -0.5027
  772MOL0     H 4194   8.940   4.916   8.150 -0.4327  1.9404 -0.0642
  772MOL0     H 4195   9.024   4.872   8.300 -2.9897  1.2260 -0.2697
  772MOL0     H 4196   9.152   5.037   8.055  1.9380 -1.4214 -0.4380
  772MOL0     H 4197   9.205   5.060   8.224 -0.9808  0.7469 -0.4047
  772MOL0     H 4198   9.065   5.245   8.142 -0.8080  0.0971 -0.9686
  772MOL0     H 4199   8.934   5.134   8.120 -1.3505  2.7775  0.1227
  772MOL0     H 4200   9.531   4.526   8.626  0.8283 -0.8627 -2.3062
  772MOL0     H 4201   9.669   4.432   8.822 -0.5252  1.0649  0.2341
  772MOL0     H 4202  10.308   4.546   8.976 -0.8312  0.7199 -0.5472
  772MOL0     H 4203  10.405   4.440   9.175 -0.0341  2.4600 -1.1877
  772MOL0     H 4204   9.483   5.200  10.609 -0.3084  0.2969  0.1888
  772MOL0     H 4205   9.404   5.419  10.513 -0.4899  1.4652  2.0012
  772MOL0     H 4206   9.418   5.765  10.308  0.7353  0.7337  0.8517
  772MOL0     H 4207   9.294   5.973  10.249 -2.0551 -0.1072  1.9564
  772MOL0     H 4208   9.243   6.375  10.352 -1.4662 -0.1642  1.7738
  772MOL0     H 4209   9.342   6.327  10.488 -0.5851  0.9472  0.2077
  772MOL0     H 4210   9.188   6.158  10.557  0.7113  1.0432  1.6931
  772MOL0     H 4211   9.072   6.209  10.430  0.6256 -1.7702  1.4017
  772MOL0     H 4212   9.050   6.436  10.531  1.4281  3.3395  1.0657
  772MOL0     H 4213   9.188   6.413  10.641 -0.3794  1.4214 -1.7943
  772MOL0     H 4214   8.914   6.398  10.695 -0.7253 -0.7435  2.1619
  772MOL0     H 4215   8.939   6.231  10.649  0.0218  0.1006 -1.6783
  772MOL0     H 4216   9.155   6.214  11.002 -0.0754 -1.3269 -0.8671
  772MOL0     H 4217   9.465   6.180  10.561  0.7145 -0.2830 -1.4869
  772MOL0     H 4218   9.409   5.909  10.758  0.0683 -0.2942 -0.8159
  772MOL0     H 4219   9.586   5.902  10.757 -1.3345 -1.9010 -1.2829
  772MOL0     H 4220   9.511   6.061  10.767  1.6831 -0.4425  2.1292
  773MOL0     O 4221   6.162   5.110   1.794 -0.1362 -0.1518  0.9300
  773MOL0     C 4222   6.148   5.041   1.894 -1.0979  1.0723  0.2008
  773MOL0     O 4223   6.119   5.084   2.022  0.6389  0.1074 -0.4082
  773MOL0     C 4224   6.080   5.215   2.026 -0.0131  0.2940 -0.1175
  773MOL0     C 4225   6.171   5.318   2.056  0.7955  0.1184 -0.8701
  773MOL0     C 4226   6.127   5.450   2.074 -0.2927 -0.1464 -0.2970
  773MOL0     C 4227   5.990   5.477   2.070  0.7798 -0.7775 -0.7450
  773MOL0     O 4228   5.954   5.607   2.111 -0.1528 -0.5946 -0.9511
  773MOL0     C 4229   5.906   5.683   2.000 -0.3014 -1.0910  1.0991
  773MOL0     C 4230   5.845   5.811   2.059 -0.5486  0.0203 -0.1979
  773MOL0     C 4231   5.708   5.797   2.130  0.2592  0.0684  0.2194
  773MOL0     C 4232   5.647   5.939   2.162  0.3430 -0.9479  0.4469
  773MOL0     C 4233   5.512   5.927   2.238 -0.2883 -0.2565 -0.2278
  773MOL0     C 4234   5.402   5.843   2.163  0.7793 -0.5664 -0.0391
  773MOL0     C 4235   5.345   5.929   2.051  0.1038 -0.0669 -0.2750
  773MOL0     C 4236   5.242   6.028   2.113 -0.4907 -0.4380 -0.4641
  773MOL0     N 4237   5.182   6.131   2.024  0.1574  0.5115 -0.7604
  773MOL0     C 4238   5.229   6.252   1.973 -0.1711 -1.6460 -1.4714
  773MOL0     C 4239   5.121   6.309   1.914 -0.5126 -0.5991 -0.4820
  773MOL0     C 4240   5.113   6.448   1.844 -1.3164  0.8649 -0.2605
  773MOL0     C 4241   5.146   6.552   1.946 -0.0857  0.6558 -0.7226
  773MOL0     C 4242   5.130   6.685   1.884  0.1196 -0.2077  0.3484
  773MOL0     C 4243   5.003   6.733   1.823  0.4302  0.4910 -0.0700
  773MOL0     O 4244   5.034   6.878   1.801  0.3274  0.5435  0.2427
  773MOL0     C 4245   4.948   6.943   1.716 -0.5161  0.2890 -0.8021
  773MOL0     C 4246   4.829   6.895   1.670  0.3142 -0.5210 -0.4492
  773MOL0     C 4247   4.749   6.977   1.579 -0.7133 -1.3040  0.0123
  773MOL0     C 4248   4.799   7.107   1.536  0.2819  0.1371  0.3560
  773MOL0     C 4249   4.729   7.171   1.426 -0.2125  0.2476 -0.0115
  773MOL0     O 4250   4.594   7.180   1.427  0.4312 -0.2510  0.1069
  773MOL0     C 4251   4.521   7.248   1.337  0.7553  0.9103  1.0277
  773MOL0     C 4252   4.416   7.188   1.264 -0.3987  0.1317 -0.4634
  773MOL0     C 4253   4.354   7.254   1.159 -0.1327  0.4288 -0.2878
  773MOL0     C 4254   4.407   7.376   1.117  0.6269  0.4063 -0.1422
  773MOL0     O 4255   4.342   7.430   1.015  0.0574  0.3019 -0.6143
  773MOL0     C 4256   4.421   7.467   0.905  0.4392  0.8989  0.2791
  773MOL0     C 4257   4.325   7.444   0.786  0.1233  0.1738 -0.2190
  773MOL0     C 4258   4.238   7.565   0.766 -0.5388  0.9699 -0.2720
  773MOL0     C 4259   4.142   7.549   0.643 -0.3104  0.3409  0.8640
  773MOL0     C 4260   4.110   7.679   0.567  0.3020 -0.8525 -0.7450
  773MOL0     C 4261   4.034   7.661   0.429 -0.4045  0.4699 -0.6037
  773MOL0     C 4262   4.105   7.554   0.344 -0.4998 -0.4835 -0.3881
  773MOL0     C 4263   4.071   7.588   0.195 -0.7497 -0.0772  0.1707
  773MOL0    Cl 4264   4.101   7.450   0.103  0.2926 -0.2588 -0.3253
  773MOL0     C 4265   4.498   7.442   1.197  0.0814 -1.2443  0.3675
  773MOL0     C 4266   4.556   7.379   1.307  0.3323 -0.7708  0.6503
  773MOL0     O 4267   4.803   7.236   1.351 -0.1855  0.3385 -0.5175
  773MOL0     C 4268   4.914   7.156   1.598  0.0219  0.7491  0.4769
  773MOL0     C 4269   4.986   7.073   1.686  0.8010 -0.3725  0.0011
  773MOL0     N 4270   5.013   6.219   1.924  0.1878  0.5902 -0.6782
  773MOL0     N 4271   5.048   6.119   1.999 -0.8453  0.4989 -0.3017
  773MOL0     C 4272   5.901   5.379   2.036  0.2965  0.5796 -0.3019
  773MOL0     C 4273   5.946   5.247   2.024  0.1125 -0.4017  0.8562
  773MOL0     C 4274   6.169   4.897   1.884  0.3613 -0.0399  0.0313
  773MOL0     C 4275   6.093   4.818   1.972 -0.5618 -0.2921  0.3652
  773MOL0     C 4276   6.091   4.685   1.967  0.5211  0.7000  0.5110
  773MOL0     C 4277   6.175   4.610   1.875  0.4465 -0.8333 -0.2181
  773MOL0     O 4278   6.191   4.477   1.873 -0.0126  0.6170 -0.0493
  773MOL0     C 4279   6.110   4.398   1.958 -0.0875 -0.5495  1.4248
  773MOL0     C 4280   6.128   4.252   1.909 -0.0355  0.3214 -0.4665
  773MOL0     C 4281   6.020   4.213   1.818 -0.3288  0.0210  0.0300
  773MOL0     C 4282   5.879   4.228   1.871 -0.6052 -0.5896  1.1864
  773MOL0     C 4283   5.858   4.144   1.993  0.0272 -0.4866 -0.6904
  773MOL0     C 4284   5.827   4.086   2.089 -0.1989  1.1243  0.1908
  773MOL0     C 4285   6.247   4.687   1.784  0.1391 -0.0186  0.0200
  773MOL0     C 4286   6.243   4.836   1.784  0.0716  0.7463 -0.2348
  773MOL0     C 4287   6.319   4.903   1.674  0.4054 -0.3416 -0.8479
  773MOL0     H 4288   6.276   5.292   2.064  1.2625  2.3317  1.5188
  773MOL0     H 4289   6.198   5.526   2.104 -0.3474  0.0158 -0.5828
  773MOL0     H 4290   5.993   5.698   1.936 -1.2138 -0.0313  0.0735
  773MOL0     H 4291   5.825   5.629   1.951 -1.1040 -1.1649  2.4469
  773MOL0     H 4292   5.840   5.860   1.961  1.1524  0.4121 -0.1115
  773MOL0     H 4293   5.916   5.853   2.131 -2.4172  0.4722  1.4569
  773MOL0     H 4294   5.704   5.732   2.218  1.1516 -0.4302 -0.1054
  773MOL0     H 4295   5.646   5.749   2.054 -1.6811  2.5146  0.1007
  773MOL0     H 4296   5.717   5.996   2.224 -0.5680 -1.4482  1.9971
  773MOL0     H 4297   5.627   5.991   2.068  0.9807  0.4036  1.0228
  773MOL0     H 4298   5.541   5.881   2.333 -1.0255 -1.9479 -0.7726
  773MOL0     H 4299   5.470   6.022   2.270 -2.5586 -0.4551 -2.2494
  773MOL0     H 4300   5.430   5.747   2.118 -3.5285 -1.9455 -0.2695
  773MOL0     H 4301   5.321   5.834   2.236 -1.3286  0.9782 -2.0446
  773MOL0     H 4302   5.291   5.858   1.988  0.8252 -1.2691  0.4163
  773MOL0     H 4303   5.418   5.988   1.994  1.7932 -1.6426  0.1525
  773MOL0     H 4304   5.159   5.979   2.164 -0.2149 -1.0826 -0.6153
  773MOL0     H 4305   5.296   6.091   2.185 -3.3700 -0.1838  1.6048
  773MOL0     H 4306   5.322   6.302   1.998 -0.5163 -1.7005  0.0088
  773MOL0     H 4307   5.177   6.453   1.756  1.1453  2.6015  1.4877
  773MOL0     H 4308   5.009   6.457   1.810 -0.7920 -1.1552 -2.7200
  773MOL0     H 4309   5.081   6.549   2.033 -1.0041  4.2415 -1.1324
  773MOL0     H 4310   5.252   6.543   1.973 -0.0002 -1.0192 -1.4624
  773MOL0     H 4311   5.205   6.689   1.805  0.1669  0.3625  0.4169
  773MOL0     H 4312   5.158   6.741   1.974 -1.1313  1.2689 -0.1365
  773MOL0     H 4313   4.922   6.714   1.894  0.0488 -0.2766 -0.6942
  773MOL0     H 4314   4.977   6.683   1.729  0.1179  1.8498 -0.7277
  773MOL0     H 4315   4.779   6.804   1.702 -2.0718  1.6677  2.7838
  773MOL0     H 4316   4.664   6.927   1.532 -2.8539  0.9169  1.2919
  773MOL0     H 4317   4.369   7.096   1.297  3.7928 -1.1172  2.9628
  773MOL0     H 4318   4.277   7.197   1.107 -0.0605 -0.0405  0.1106
  773MOL0     H 4319   4.450   7.571   0.922 -1.3142  1.2459  1.4108
  773MOL0     H 4320   4.511   7.408   0.884 -2.4651 -2.6411 -4.3345
  773MOL0     H 4321   4.384   7.423   0.696  1.1696  1.1344  0.2098
  773MOL0     H 4322   4.268   7.351   0.787 -1.6144  1.1840 -0.9423
  773MOL0     H 4323   4.181   7.585   0.857 -2.1337  1.3730 -1.3178
  773MOL0     H 4324   4.306   7.648   0.745 -1.5331  1.6504 -0.8702
  773MOL0     H 4325   4.066   7.473   0.664 -0.1821  0.5786  2.3517
  773MOL0     H 4326   4.206   7.492   0.575 -0.6820  1.2655 -0.2923
  773MOL0     H 4327   4.204   7.729   0.540 -0.3021 -0.5847 -2.4925
  773MOL0     H 4328   4.061   7.754   0.630  0.4033  0.3185 -1.9914
  773MOL0     H 4329   3.927   7.637   0.436 -0.2721  0.0963  0.3483
  773MOL0     H 4330   4.049   7.762   0.388 -2.2524  1.0001 -0.0903
  773MOL0     H 4331   4.055   7.460   0.367 -1.7773  0.1765 -0.3177
  773MOL0     H 4332   4.212   7.548   0.363 -0.3215  0.7935 -0.8427
  773MOL0     H 4333   3.968   7.622   0.184 -0.4037  0.8340 -0.3485
  773MOL0     H 4334   4.118   7.683   0.168 -1.0041 -0.5266 -2.0048
  773MOL0     H 4335   4.527   7.541   1.163 -0.6574 -0.4578  1.9306
  773MOL0     H 4336   4.628   7.434   1.367 -1.3151  2.5271 -0.1251
  773MOL0     H 4337   4.972   7.246   1.578  3.3350 -1.3926 -0.4744
  773MOL0     H 4338   5.083   7.109   1.719  0.4188 -0.1286  0.9036
  773MOL0     H 4339   5.793   5.391   2.036  0.0984 -0.3812  2.9847
  773MOL0     H 4340   5.876   5.167   2.002  1.0544 -0.4617 -2.4750
  773MOL0     H 4341   6.028   4.864   2.046 -1.2921  3.2005 -2.1973
  773MOL0     H 4342   6.020   4.629   2.027 -0.5453 -1.4791 -2.5237
  773MOL0     H 4343   6.009   4.438   1.954  0.0654 -0.1016  1.8589
  773MOL0     H 4344   6.150   4.400   2.060  2.5452 -4.3641  0.7172
  773MOL0     H 4345   6.129   4.179   1.991 -0.0432  1.6600  0.7774
  773MOL0     H 4346   6.225   4.243   1.860 -0.5087 -1.6700 -1.1132
  773MOL0     H 4347   6.031   4.108   1.787 -2.8477 -0.1944 -0.3758
  773MOL0     H 4348   6.030   4.270   1.725  1.0544  1.6222  1.1092
  773MOL0     H 4349   5.857   4.328   1.910  2.1369 -0.0471  1.5626
  773MOL0     H 4350   5.805   4.211   1.792  3.6717 -1.4213 -3.1262
  773MOL0     H 4351   5.786   4.025   2.167  2.5082  1.3321  1.9384
  773MOL0     H 4352   6.306   4.623   1.718 -1.0835 -2.9057  1.5134
  773MOL0     H 4353   6.375   4.837   1.607  1.7184  2.7447 -3.0662
  773MOL0     H 4354   6.258   4.964   1.607 -0.4692  0.3156  0.5085
  773MOL0     H 4355   6.384   4.977   1.723 -1.7902  0.4795  0.9630
  774MOL0     O 4356   9.171   6.056   7.570 -0.5145 -0.6623 -0.9854
  774MOL0     C 4357   9.116   6.052   7.682 -0.9757 -0.7045  0.2523
  774MOL0     O 4358   8.999   6.127   7.714 -0.0658 -0.8201 -0.1438
  774MOL0     C 4359   8.934   6.187   7.607  0.2428 -0.6658 -0.5126
  774MOL0     C 4360   8.860   6.105   7.519  0.4426  0.0665  0.1666
  774MOL0     C 4361   8.778   6.154   7.419 -0.4817 -0.1668  0.1442
  774MOL0     C 4362   8.779   6.291   7.390  0.6596 -0.2289 -0.4263
  774MOL0     O 4363   8.715   6.332   7.272  0.1117 -0.2045  0.3096
  774MOL0     C 4364   8.570   6.353   7.276 -0.2240  0.1608 -0.1299
  774MOL0     C 4365   8.506   6.296   7.150  0.3752 -0.7445  0.3622
  774MOL0     C 4366   8.354   6.323   7.133 -0.4666 -0.5234 -0.9914
  774MOL0     C 4367   8.276   6.245   7.247 -0.0460  0.5536 -0.6901
  774MOL0     C 4368   8.133   6.299   7.255 -0.4471  0.2081 -0.1475
  774MOL0     C 4369   8.039   6.205   7.336 -0.8571  0.7284  0.0923
  774MOL0     C 4370   8.049   6.244   7.477  0.1872 -0.5079  0.2209
  774MOL0     C 4371   7.987   6.139   7.581  0.4054 -0.1108 -0.2781
  774MOL0     N 4372   7.999   6.178   7.720 -0.2726  0.1123 -0.1438
  774MOL0     C 4373   7.924   6.273   7.785  0.0858 -0.3411 -0.2232
  774MOL0     C 4374   7.974   6.266   7.911 -0.4445  0.8382 -0.9570
  774MOL0     C 4375   7.931   6.354   8.032 -0.0401  1.0716  0.0342
  774MOL0     C 4376   8.020   6.340   8.162 -0.2185  0.1408 -0.8804
  774MOL0     C 4377   7.961   6.394   8.290 -0.1862 -0.5950 -0.2739
  774MOL0     C 4378   8.056   6.396   8.411 -0.2546  0.2395  0.3876
  774MOL0     O 4379   8.205   6.407   8.392 -0.3602 -0.1763  0.3019
  774MOL0     C 4380   8.264   6.525   8.361 -0.2333 -0.1585  0.2375
  774MOL0     C 4381   8.192   6.640   8.341  0.2267 -0.4141  0.1116
  774MOL0     C 4382   8.258   6.768   8.323 -1.0231  0.4890  0.3099
  774MOL0     C 4383   8.389   6.773   8.301  0.4934 -1.2080 -0.2810
  774MOL0     C 4384   8.463   6.902   8.275 -0.8767  0.0924  0.1275
  774MOL0     O 4385   8.399   7.017   8.325  0.0391  0.5653  0.4892
  774MOL0     C 4386   8.459   7.135   8.327  0.6773 -0.3715  0.9926
  774MOL0     C 4387   8.419   7.240   8.248  1.2359  0.0380 -0.7947
  774MOL0     C 4388   8.491   7.363   8.251 -0.2758 -0.0231 -1.0753
  774MOL0     C 4389   8.606   7.374   8.338  0.6877 -0.2907  0.0181
  774MOL0     O 4390   8.669   7.502   8.340  0.5154  0.2807  0.2047
  774MOL0     C 4391   8.805   7.507   8.395 -0.1123 -0.6807  0.0746
  774MOL0     C 4392   8.873   7.635   8.372  0.6176  0.3169  0.8534
  774MOL0     C 4393   8.967   7.682   8.484 -0.7025 -0.1670  0.2681
  774MOL0     C 4394   9.110   7.615   8.479  0.6468 -0.0601 -0.2446
  774MOL0     C 4395   9.120   7.473   8.538  0.0832 -0.8199  0.1465
  774MOL0     C 4396   9.251   7.398   8.494 -0.2930 -1.3058  0.0953
  774MOL0     C 4397   9.276   7.267   8.564 -0.0575  0.0769 -0.0276
  774MOL0     C 4398   9.386   7.183   8.525 -0.1268 -0.2219 -0.1968
  774MOL0    Cl 4399   9.384   7.129   8.359  0.3307 -0.1254 -0.0186
  774MOL0     C 4400   8.649   7.259   8.398 -0.5088 -0.2865  0.2710
  774MOL0     C 4401   8.584   7.135   8.391  0.6092  0.9196  0.0811
  774MOL0     O 4402   8.581   6.899   8.236  0.0405 -0.1730 -0.5395
  774MOL0     C 4403   8.458   6.651   8.296  0.1524 -0.4468  0.0621
  774MOL0     C 4404   8.395   6.531   8.315 -0.1270 -0.1808 -0.4277
  774MOL0     N 4405   8.077   6.169   7.916  0.5439  0.2247  0.6107
  774MOL0     N 4406   8.088   6.117   7.801  0.2704 -0.5450  0.1573
  774MOL0     C 4407   8.869   6.372   7.459  0.0941 -0.8408  0.6407
  774MOL0     C 4408   8.943   6.321   7.566 -0.0699 -0.2803  0.1082
  774MOL0     C 4409   9.185   5.981   7.791  0.9968  0.4628  0.0137
  774MOL0     C 4410   9.126   5.979   7.919  1.2558 -0.2284  0.4463
  774MOL0     C 4411   9.191   5.916   8.027  0.7731  0.2870 -0.2980
  774MOL0     C 4412   9.315   5.862   8.014  0.4355 -0.3515 -0.2259
  774MOL0     O 4413   9.356   5.806   8.127  0.4039  0.0483  0.4700
  774MOL0     C 4414   9.499   5.772   8.148  0.2569  0.0857 -1.1320
  774MOL0     C 4415   9.583   5.896   8.194  1.0119  0.0158  0.8301
  774MOL0     C 4416   9.546   5.976   8.313 -0.2036  0.6213 -0.2579
  774MOL0     C 4417   9.656   6.068   8.365  0.1486  1.0863  0.2585
  774MOL0     C 4418   9.670   6.183   8.278 -0.0994 -0.0808  1.0115
  774MOL0     C 4419   9.677   6.260   8.183 -0.6221 -0.0621  0.2035
  774MOL0     C 4420   9.366   5.840   7.882 -0.1848 -0.2466 -0.0802
  774MOL0     C 4421   9.296   5.899   7.767 -0.2284  0.0638  0.3141
  774MOL0     C 4422   9.353   5.882   7.628 -0.0810 -0.0727  0.5472
  774MOL0     H 4423   8.856   6.000   7.547  3.1883  0.0154  0.6150
  774MOL0     H 4424   8.725   6.074   7.367  0.3780 -1.1060  0.6861
  774MOL0     H 4425   8.527   6.312   7.368 -1.6549  0.7807 -0.4908
  774MOL0     H 4426   8.554   6.460   7.285  0.7553  0.2817  0.2997
  774MOL0     H 4427   8.528   6.189   7.147 -0.0285 -0.8121 -0.3372
  774MOL0     H 4428   8.550   6.349   7.065 -2.8093  3.3056  0.9493
  774MOL0     H 4429   8.316   6.300   7.033 -0.4840  0.1871 -1.1556
  774MOL0     H 4430   8.333   6.429   7.148 -0.6849 -0.9440  2.6071
  774MOL0     H 4431   8.283   6.138   7.229 -0.3612  0.1281  1.4757
  774MOL0     H 4432   8.321   6.255   7.347 -0.7242  0.3159 -0.3553
  774MOL0     H 4433   8.140   6.400   7.295  1.0456 -0.0391  0.2704
  774MOL0     H 4434   8.097   6.300   7.152 -0.9267 -2.4239 -0.0862
  774MOL0     H 4435   7.939   6.213   7.292  0.6024  2.6376 -3.3397
  774MOL0     H 4436   8.060   6.100   7.314 -3.7314  0.4984 -2.2170
  774MOL0     H 4437   7.987   6.333   7.492  0.8608 -0.2550  1.7020
  774MOL0     H 4438   8.153   6.251   7.507  0.1938 -3.3116  1.1387
  774MOL0     H 4439   7.883   6.117   7.557  0.6396 -2.7588  0.7969
  774MOL0     H 4440   8.043   6.047   7.562  3.0519  1.7562 -2.3294
  774MOL0     H 4441   7.850   6.341   7.744  0.2685 -0.8449 -1.4253
  774MOL0     H 4442   7.923   6.460   8.004  0.2272  0.5999 -1.9328
  774MOL0     H 4443   7.830   6.315   8.048  0.2146  0.1448 -0.5698
  774MOL0     H 4444   8.053   6.237   8.179  1.2008  0.6003 -0.7319
  774MOL0     H 4445   8.101   6.407   8.133  0.0100  0.0361 -0.4790
  774MOL0     H 4446   7.875   6.332   8.317  1.0584 -2.1332  0.2938
  774MOL0     H 4447   7.918   6.493   8.270 -1.7653 -1.4540 -1.4353
  774MOL0     H 4448   8.048   6.294   8.450  0.4490  0.2953  0.7048
  774MOL0     H 4449   8.027   6.463   8.493 -1.5952  1.9273 -1.3796
  774MOL0     H 4450   8.084   6.648   8.336  0.1122 -0.3580  1.9503
  774MOL0     H 4451   8.196   6.855   8.305 -2.0562 -0.7358 -2.8458
  774MOL0     H 4452   8.331   7.234   8.186  1.1522  0.5666 -0.7325
  774MOL0     H 4453   8.455   7.446   8.191 -1.7639 -1.1486 -1.7973
  774MOL0     H 4454   8.798   7.475   8.499 -1.3012 -3.4585 -0.7742
  774MOL0     H 4455   8.878   7.446   8.341  0.1212  2.1237 -3.1219
  774MOL0     H 4456   8.922   7.631   8.274 -3.6104  1.4076 -1.5734
  774MOL0     H 4457   8.795   7.711   8.364  0.3341 -0.1480 -1.8318
  774MOL0     H 4458   9.000   7.786   8.474 -0.1448 -0.3779 -0.1714
  774MOL0     H 4459   8.927   7.681   8.585  1.0076 -1.0711  0.9791
  774MOL0     H 4460   9.172   7.684   8.536 -1.4148  0.8635  1.0084
  774MOL0     H 4461   9.139   7.611   8.373  2.6032 -1.2158  0.2866
  774MOL0     H 4462   9.047   7.405   8.492 -0.6426  2.3410 -3.9342
  774MOL0     H 4463   9.120   7.495   8.645  2.0662  1.4032 -0.2306
  774MOL0     H 4464   9.249   7.379   8.387  1.8747 -0.4324 -0.1458
  774MOL0     H 4465   9.332   7.466   8.521 -0.5571 -0.3182 -1.4762
  774MOL0     H 4466   9.185   7.205   8.564 -2.3198  3.1486 -0.6059
  774MOL0     H 4467   9.288   7.298   8.669 -0.9913 -1.6844  0.6455
  774MOL0     H 4468   9.481   7.236   8.544 -1.0773  1.9445 -1.1130
  774MOL0     H 4469   9.387   7.093   8.587 -1.0579 -0.8338 -1.0636
  774MOL0     H 4470   8.743   7.265   8.451 -1.2229 -1.6247  1.7789
  774MOL0     H 4471   8.616   7.046   8.444 -3.0414 -0.3874  0.3768
  774MOL0     H 4472   8.554   6.640   8.245 -0.3890 -3.2097 -0.5123
  774MOL0     H 4473   8.450   6.437   8.319 -1.4435 -0.9659 -0.0861
  774MOL0     H 4474   8.874   6.476   7.431  0.4999 -0.0863  3.2289
  774MOL0     H 4475   9.007   6.391   7.619 -0.2231 -1.3324  1.7960
  774MOL0     H 4476   9.029   6.023   7.936  1.5395  0.0573  1.4018
  774MOL0     H 4477   9.153   5.925   8.128 -0.8295  1.0118 -0.9274
  774MOL0     H 4478   9.545   5.711   8.070 -1.5695 -4.9876  1.3382
  774MOL0     H 4479   9.490   5.696   8.226  0.6756 -1.8391 -2.8885
  774MOL0     H 4480   9.592   5.964   8.109 -2.8138  1.4028  1.3459
  774MOL0     H 4481   9.683   5.853   8.209  1.1954  0.4546  0.9005
  774MOL0     H 4482   9.552   5.909   8.400  1.2621 -1.6792 -2.0001
  774MOL0     H 4483   9.449   6.025   8.299  0.0363  0.7700 -1.4657
  774MOL0     H 4484   9.636   6.097   8.469  2.0305  2.0210  0.3931
  774MOL0     H 4485   9.745   6.005   8.364 -0.7558 -0.2761  1.6688
  774MOL0     H 4486   9.664   6.313   8.092 -0.3484 -1.0116 -0.4044
  774MOL0     H 4487   9.454   5.778   7.866 -0.2968 -0.2586 -0.6766
  774MOL0     H 4488   9.420   5.795   7.631  0.5225  0.3596 -0.0278
  774MOL0     H 4489   9.280   5.856   7.552 -0.3146 -0.9624  1.0610
  774MOL0     H 4490   9.402   5.972   7.588  1.4489 -0.4052  1.5564
  775MOL0     O 4491   1.858   1.830  10.651 -0.3625  1.0798 -0.2820
  775MOL0     C 4492   1.804   1.740  10.713  0.0756 -0.5921 -0.2150
  775MOL0     O 4493   1.826   1.604  10.708  0.6053 -0.4913  0.6450
  775MOL0     C 4494   1.915   1.561  10.618 -0.3341 -0.7819  1.0006
  775MOL0     C 4495   1.857   1.522  10.496 -0.4338  1.1172  0.8993
  775MOL0     C 4496   1.931   1.492  10.387  0.1569 -0.1928  0.0059
  775MOL0     C 4497   2.071   1.458  10.403 -0.0812 -0.2963 -0.3990
  775MOL0     O 4498   2.131   1.408  10.292  0.4278  0.7861  0.0074
  775MOL0     C 4499   2.267   1.387  10.283 -0.5667  0.0363 -0.4489
  775MOL0     C 4500   2.293   1.321  10.147  0.2650  0.5265 -0.7505
  775MOL0     C 4501   2.237   1.179  10.136 -0.4096  0.3408 -0.4156
  775MOL0     C 4502   2.272   1.115  10.002 -0.6233  0.4432 -1.0829
  775MOL0     C 4503   2.414   1.070  10.003  0.8166  0.0688  1.3757
  775MOL0     C 4504   2.431   0.965   9.897 -0.7377 -0.5960 -0.8096
  775MOL0     C 4505   2.582   0.937   9.876  0.2401  0.2057  0.5385
  775MOL0     C 4506   2.625   0.945   9.723  0.5798 -0.0666  0.7664
  775MOL0     N 4507   2.775   0.938   9.708  0.2702  0.4763  0.8527
  775MOL0     C 4508   2.860   1.017   9.630 -0.4100  0.1989  0.0382
  775MOL0     C 4509   2.978   0.963   9.644 -0.9158 -0.3820  1.0452
  775MOL0     C 4510   3.088   1.012   9.548  0.0882  0.4399  0.0829
  775MOL0     C 4511   3.238   0.981   9.587  0.1836  0.0358 -0.5731
  775MOL0     C 4512   3.275   1.055   9.713 -0.2288 -0.3159  0.0335
  775MOL0     C 4513   3.413   1.014   9.746 -0.4405 -0.7056  0.0094
  775MOL0     O 4514   3.503   1.045   9.637  1.1431  0.3808  0.5670
  775MOL0     C 4515   3.636   1.044   9.648  0.1401  0.5169 -0.7219
  775MOL0     C 4516   3.699   0.998   9.766 -1.1195  0.1364  0.8321
  775MOL0     C 4517   3.841   0.996   9.767 -0.3711  0.0709 -1.0681
  775MOL0     C 4518   3.926   1.023   9.655  0.1960 -0.2124 -0.8399
  775MOL0     C 4519   4.067   0.984   9.648  1.4774 -0.5930 -0.6687
  775MOL0     O 4520   4.123   0.989   9.770  0.3250  0.9887  0.8451
  775MOL0     C 4521   4.245   0.916   9.779  0.9448  0.7793  0.6570
  775MOL0     C 4522   4.376   0.975   9.766  0.1335  0.0770 -0.2027
  775MOL0     C 4523   4.494   0.900   9.793 -0.2529  0.2516 -0.2511
  775MOL0     C 4524   4.490   0.769   9.827 -0.7152 -0.9794 -0.3244
  775MOL0     O 4525   4.611   0.702   9.865 -0.3462  0.2112  0.3331
  775MOL0     C 4526   4.739   0.756   9.819  1.1748 -0.1318 -0.0937
  775MOL0     C 4527   4.855   0.659   9.825  0.6620  0.6303 -0.2118
  775MOL0     C 4528   4.831   0.512   9.761  0.3743  0.0903 -0.3142
  775MOL0     C 4529   4.915   0.503   9.635 -0.0247  0.4298  0.4850
  775MOL0     C 4530   4.932   0.357   9.596  0.9376 -0.1718  0.0931
  775MOL0     C 4531   4.942   0.347   9.438 -0.0757  0.3192 -0.4428
  775MOL0     C 4532   5.013   0.209   9.402  0.6126  0.2875  0.3123
  775MOL0     C 4533   5.029   0.179   9.251  0.5994 -0.8882 -0.0512
  775MOL0    Cl 4534   5.070   0.005   9.260 -0.3545  0.0312  0.1494
  775MOL0     C 4535   4.366   0.709   9.827 -0.2130 -0.2850  1.0063
  775MOL0     C 4536   4.244   0.777   9.810  0.6786 -0.7256  0.6210
  775MOL0     O 4537   4.113   0.946   9.546 -0.3527  0.1027 -0.6412
  775MOL0     C 4538   3.851   1.069   9.550  0.2157 -0.5263  0.2293
  775MOL0     C 4539   3.716   1.078   9.548  0.4339 -0.6142  0.3892
  775MOL0     N 4540   2.970   0.847   9.723  1.0970 -0.1873 -0.5197
  775MOL0     N 4541   2.850   0.839   9.759  0.7908  0.5663 -0.4968
  775MOL0     C 4542   2.134   1.486  10.525 -0.1806 -0.1613 -0.2131
  775MOL0     C 4543   2.053   1.546  10.627 -0.1722 -0.1294 -0.7633
  775MOL0     C 4544   1.695   1.792  10.798 -0.4226 -0.2315 -0.3515
  775MOL0     C 4545   1.636   1.692  10.878  0.0309 -0.1338  0.4852
  775MOL0     C 4546   1.538   1.731  10.970  0.5480  0.7309  0.4718
  775MOL0     C 4547   1.494   1.858  10.988  0.5335 -0.6115  0.3080
  775MOL0     O 4548   1.385   1.883  11.064 -0.6893  0.2173 -0.1193
  775MOL0     C 4549   1.325   1.761  11.118 -0.5588 -0.0286 -0.5082
  775MOL0     C 4550   1.195   1.806  11.182  0.3769  0.8492  0.3449
  775MOL0     C 4551   1.196   1.908  11.296  0.5199  0.4611  0.3146
  775MOL0     C 4552   1.059   1.907  11.369  0.3433  0.1664 -0.0317
  775MOL0     C 4553   1.067   1.992  11.491  0.8116  0.4102 -0.2553
  775MOL0     C 4554   1.092   2.065  11.584  0.9293  0.0006  0.4358
  775MOL0     C 4555   1.552   1.962  10.914  0.4123 -0.0816  0.5293
  775MOL0     C 4556   1.652   1.933  10.815  0.7764  0.4720 -0.0096
  775MOL0     C 4557   1.697   2.061  10.736  0.5222  0.4117  0.4280
  775MOL0     H 4558   1.750   1.526  10.484 -0.8244 -0.9581  2.9723
  775MOL0     H 4559   1.874   1.466  10.298  1.3558 -3.5152  0.0777
  775MOL0     H 4560   2.318   1.484  10.289 -0.5025  0.0240 -0.8041
  775MOL0     H 4561   2.306   1.317  10.357 -1.2270  0.5183  0.3755
  775MOL0     H 4562   2.402   1.319  10.140  0.2337  1.6163 -1.8397
  775MOL0     H 4563   2.246   1.381  10.069 -2.3173 -0.3929 -0.0156
  775MOL0     H 4564   2.128   1.189  10.143 -0.4548  0.5495 -1.2963
  775MOL0     H 4565   2.277   1.118  10.217  4.9143  2.3816 -1.0775
  775MOL0     H 4566   2.201   1.033   9.990 -1.8908  0.9213  2.2644
  775MOL0     H 4567   2.261   1.193   9.926 -0.9668  0.4989 -0.9784
  775MOL0     H 4568   2.471   1.162   9.986  1.7797 -0.7958 -0.3774
  775MOL0     H 4569   2.437   1.021  10.098 -1.7270 -0.5582  1.7548
  775MOL0     H 4570   2.390   0.869   9.928 -4.5217  0.2411 -2.6336
  775MOL0     H 4571   2.381   0.988   9.802 -2.7362 -1.7228 -0.0720
  775MOL0     H 4572   2.627   0.841   9.901  0.8376 -0.0929 -1.5035
  775MOL0     H 4573   2.645   1.005   9.934  0.1144  0.0267  0.8889
  775MOL0     H 4574   2.582   0.854   9.678  1.9692 -1.5908  2.3649
  775MOL0     H 4575   2.586   1.036   9.675  3.8828  0.4384 -1.2849
  775MOL0     H 4576   2.824   1.095   9.564  0.2187 -1.2108 -2.0982
  775MOL0     H 4577   3.071   0.968   9.449  0.1145 -0.1698  0.3481
  775MOL0     H 4578   3.086   1.121   9.559  0.2590  0.6720 -1.7649
  775MOL0     H 4579   3.249   0.876   9.616 -0.8649  0.2968  0.9012
  775MOL0     H 4580   3.301   0.986   9.498  0.1456 -1.4762 -0.7205
  775MOL0     H 4581   3.210   1.016   9.791  2.0260  1.5314  3.0718
  775MOL0     H 4582   3.268   1.164   9.704 -2.7403 -0.4582 -0.2635
  775MOL0     H 4583   3.421   0.910   9.777  0.1620 -0.8222 -0.5009
  775MOL0     H 4584   3.436   1.080   9.830 -3.0240  1.5249 -0.9007
  775MOL0     H 4585   3.647   0.972   9.857  0.9955 -3.6785  1.1596
  775MOL0     H 4586   3.876   0.945   9.857 -0.9758 -1.3059 -1.5957
  775MOL0     H 4587   4.384   1.081   9.742  0.0318  0.0875 -0.1869
  775MOL0     H 4588   4.589   0.952   9.786  0.6498 -1.1913  0.7223
  775MOL0     H 4589   4.728   0.765   9.711 -0.5215  1.0567  0.1474
  775MOL0     H 4590   4.760   0.854   9.864 -0.4385 -1.3955  3.8481
  775MOL0     H 4591   4.936   0.702   9.766  0.0878 -1.9717 -3.1407
  775MOL0     H 4592   4.894   0.646   9.926 -1.1421 -0.6418  0.3816
  775MOL0     H 4593   4.840   0.434   9.837 -0.3213  0.5822  0.2773
  775MOL0     H 4594   4.729   0.502   9.723 -1.3227  4.0057  2.5372
  775MOL0     H 4595   5.012   0.547   9.660  0.1680 -0.4795  1.3809
  775MOL0     H 4596   4.855   0.563   9.566 -0.4122  1.4605  1.6733
  775MOL0     H 4597   4.846   0.297   9.628  1.4587 -0.5685  0.7859
  775MOL0     H 4598   5.029   0.318   9.630  1.7646  2.9107  1.6621
  775MOL0     H 4599   4.844   0.357   9.391 -0.8536 -1.0193  0.8285
  775MOL0     H 4600   5.012   0.425   9.404  0.5898 -0.8567 -1.8722
  775MOL0     H 4601   4.952   0.137   9.458 -0.6639  1.1339  0.0426
  775MOL0     H 4602   5.114   0.222   9.443  1.8066 -0.3728 -2.2242
  775MOL0     H 4603   4.942   0.193   9.186  1.4768  1.2144 -0.8272
  775MOL0     H 4604   5.106   0.245   9.212 -2.0148  1.6942 -1.2336
  775MOL0     H 4605   4.365   0.601   9.831  2.2864 -0.4488 -0.3594
  775MOL0     H 4606   4.144   0.737   9.799  0.1804  1.0524 -2.9094
  775MOL0     H 4607   3.911   1.104   9.468 -2.4977  2.2564 -0.7742
  775MOL0     H 4608   3.674   1.133   9.464  3.0931  0.0319 -0.6021
  775MOL0     H 4609   2.239   1.469  10.543 -0.1846 -0.2236 -0.2459
  775MOL0     H 4610   2.090   1.571  10.726 -1.6247 -2.0130  0.3232
  775MOL0     H 4611   1.658   1.588  10.857 -1.7806 -0.0830 -2.1328
  775MOL0     H 4612   1.495   1.641  11.012 -2.0608  1.5889 -0.1655
  775MOL0     H 4613   1.393   1.710  11.187  1.0523  1.3145 -1.0458
  775MOL0     H 4614   1.305   1.692  11.035 -1.3972 -0.5303  0.0918
  775MOL0     H 4615   1.158   1.714  11.229  2.2963  0.5378  1.3643
  775MOL0     H 4616   1.120   1.839  11.110  0.1230  1.3777  0.8404
  775MOL0     H 4617   1.210   2.014  11.272  2.7101  0.4843  1.5044
  775MOL0     H 4618   1.275   1.877  11.364  0.5158  1.0078  0.5671
  775MOL0     H 4619   0.972   1.929  11.307 -0.6846  0.1545  1.3494
  775MOL0     H 4620   1.058   1.802  11.399  1.5444  0.5680  1.5617
  775MOL0     H 4621   1.109   2.125  11.671 -1.0404  1.0017  0.1960
  775MOL0     H 4622   1.533   2.068  10.929  5.1686  0.8559  1.2734
  775MOL0     H 4623   1.657   2.054  10.634 -3.1525  3.2636  1.4592
  775MOL0     H 4624   1.674   2.154  10.789 -3.2039  0.8323 -1.5603
  775MOL0     H 4625   1.806   2.058  10.734  0.7656  0.6382  4.6965
  776MOL0     O 4626   9.552   1.596   7.442 -0.3748 -0.0075  0.4030
  776MOL0     C 4627   9.628   1.643   7.524 -0.2934 -0.9895 -0.1692
  776MOL0     O 4628   9.727   1.584   7.593 -0.3103 -0.1558  0.4285
  776MOL0     C 4629   9.743   1.445   7.596 -0.6047 -0.5544 -0.1355
  776MOL0     C 4630   9.861   1.403   7.665  0.6195  0.7259 -0.2262
  776MOL0     C 4631   9.907   1.264   7.654 -0.3898 -0.8981 -0.2225
  776MOL0     C 4632   9.835   1.164   7.590  1.2463 -0.1832 -0.3371
  776MOL0     O 4633   9.880   1.034   7.596 -0.5629  0.1156  0.5997
  776MOL0     C 4634   9.810   0.931   7.526 -0.0804  0.6935  1.1407
  776MOL0     C 4635   9.846   0.942   7.378  0.3831 -0.3526  0.9650
  776MOL0     C 4636   9.986   0.897   7.343 -0.2664  0.8852  0.6281
  776MOL0     C 4637  10.030   0.924   7.208 -0.0217 -0.4886  0.7519
  776MOL0     C 4638  10.180   0.886   7.187  0.5269  0.2759 -0.4469
  776MOL0     C 4639  10.238   0.911   7.049  0.2997 -0.4598  0.5508
  776MOL0     C 4640  10.237   1.058   7.019 -0.6062 -0.1847  0.0113
  776MOL0     C 4641  10.320   1.154   7.102 -0.4637 -0.0201  0.1837
  776MOL0     N 4642  10.353   1.269   7.022 -0.3300 -0.3832  0.0782
  776MOL0     C 4643  10.439   1.280   6.926 -0.4168  0.4033 -0.1684
  776MOL0     C 4644  10.425   1.405   6.866 -0.2612 -0.3309  0.4269
  776MOL0     C 4645  10.519   1.453   6.759  0.6756 -0.3157 -0.2003
  776MOL0     C 4646  10.463   1.447   6.622  0.6329  0.2943 -0.3933
  776MOL0     C 4647  10.575   1.447   6.510  0.0506  0.0128 -0.0193
  776MOL0     C 4648  10.531   1.517   6.378 -0.1360  0.0076  0.4333
  776MOL0     O 4649  10.427   1.423   6.332 -0.8494 -1.3248  0.1880
  776MOL0     C 4650  10.386   1.443   6.197 -0.1691 -0.1459 -0.6165
  776MOL0     C 4651  10.434   1.544   6.108 -0.8246  0.2993  0.1186
  776MOL0     C 4652  10.399   1.556   5.975  0.1356 -0.1451  0.3335
  776MOL0     C 4653  10.285   1.487   5.930  0.9768  0.5146  0.5067
  776MOL0     C 4654  10.232   1.498   5.789  0.7708 -0.0699  0.0403
  776MOL0     O 4655  10.327   1.550   5.705  0.4601  0.1298 -0.2701
  776MOL0     C 4656  10.282   1.598   5.576 -0.0821  0.0153  0.5313
  776MOL0     C 4657  10.155   1.647   5.553  0.9246 -0.1615  0.3535
  776MOL0     C 4658  10.103   1.685   5.424  0.0588  0.0865  0.0122
  776MOL0     C 4659  10.194   1.703   5.313  0.7345  0.4584  0.2604
  776MOL0     O 4660  10.162   1.724   5.183  0.5213 -0.3948  0.4292
  776MOL0     C 4661  10.029   1.777   5.170 -0.6191 -0.1471 -0.5002
  776MOL0     C 4662  10.004   1.775   5.011  1.1141  1.1480 -0.7170
  776MOL0     C 4663   9.950   1.636   4.979  0.9683  0.4132  0.6978
  776MOL0     C 4664   9.860   1.631   4.852 -0.3970 -1.0522 -0.1613
  776MOL0     C 4665   9.815   1.492   4.831  0.8114  0.1303  0.0211
  776MOL0     C 4666   9.709   1.488   4.722  0.3206  0.3861  0.8328
  776MOL0     C 4667   9.667   1.337   4.699 -0.0072 -0.1799  0.2570
  776MOL0     C 4668   9.545   1.329   4.600  0.1918 -0.2429 -0.8632
  776MOL0    Cl 4669   9.498   1.162   4.592  0.3288  0.0921 -0.0646
  776MOL0     C 4670  10.325   1.678   5.344 -0.3241  0.1654  0.0631
  776MOL0     C 4671  10.373   1.620   5.466  0.0307  0.3685  0.1442
  776MOL0     O 4672  10.119   1.455   5.765  0.2473 -0.3914  0.2002
  776MOL0     C 4673  10.232   1.397   6.014 -0.8225  0.2802 -0.0545
  776MOL0     C 4674  10.282   1.371   6.144  0.6523  0.7305  0.9037
  776MOL0     N 4675  10.321   1.460   6.924 -0.5290 -1.1230  0.0253
  776MOL0     N 4676  10.280   1.381   7.019 -0.4008  0.4206 -0.6397
  776MOL0     C 4677   9.716   1.213   7.524 -0.4759 -0.3031  0.2762
  776MOL0     C 4678   9.670   1.340   7.535 -0.4451  0.2433  0.1210
  776MOL0     C 4679   9.605   1.784   7.567  0.4275  0.5628 -0.2158
  776MOL0     C 4680   9.461   1.822   7.561  0.0899  0.1145  0.3360
  776MOL0     C 4681   9.429   1.952   7.597 -0.1035  0.2450 -0.4934
  776MOL0     C 4682   9.530   2.044   7.628  0.3144 -0.1598  0.4694
  776MOL0     O 4683   9.508   2.174   7.653  0.0953 -0.7940  0.3959
  776MOL0     C 4684   9.431   2.243   7.550 -0.2011  0.5811  0.9162
  776MOL0     C 4685   9.464   2.388   7.567  0.1433 -0.2974  0.8289
  776MOL0     C 4686   9.373   2.457   7.676 -0.4062 -0.0937 -0.5747
  776MOL0     C 4687   9.394   2.613   7.689 -0.6828 -0.2887 -0.2386
  776MOL0     C 4688   9.312   2.673   7.584  0.7152  0.6936 -1.1606
  776MOL0     C 4689   9.238   2.720   7.491  0.2768  0.3185  0.2858
  776MOL0     C 4690   9.662   2.002   7.640  1.3857  0.4224  0.5789
  776MOL0     C 4691   9.704   1.872   7.621  0.3936 -0.3747 -0.0142
  776MOL0     C 4692   9.844   1.846   7.666  0.7821 -0.5487  0.6116
  776MOL0     H 4693   9.903   1.476   7.734 -0.9088 -0.4820  2.1477
  776MOL0     H 4694   9.986   1.232   7.721 -0.1222  2.8952  1.5394
  776MOL0     H 4695   9.835   0.834   7.569 -1.6965 -0.5795 -0.5921
  776MOL0     H 4696   9.702   0.946   7.530  0.1070  2.2391  1.1505
  776MOL0     H 4697   9.826   1.047   7.357  1.0210 -0.1562  1.3310
  776MOL0     H 4698   9.775   0.881   7.320  0.3098 -1.6937  2.3858
  776MOL0     H 4699  10.003   0.793   7.371 -1.5990  0.9536  1.7730
  776MOL0     H 4700  10.042   0.955   7.418 -0.5945 -3.1733  4.3687
  776MOL0     H 4701   9.961   0.877   7.137 -3.4193 -1.0458  4.1253
  776MOL0     H 4702  10.027   1.031   7.188 -0.0874 -0.7756 -0.9350
  776MOL0     H 4703  10.233   0.934   7.269 -1.1082 -1.5683  1.8288
  776MOL0     H 4704  10.195   0.780   7.213  1.2387 -0.2119 -2.5685
  776MOL0     H 4705  10.340   0.874   7.038  1.0468  1.2385  1.4298
  776MOL0     H 4706  10.180   0.866   6.968 -0.9326  1.5531  0.2400
  776MOL0     H 4707  10.130   1.078   7.034 -0.3636  1.9007 -0.7077
  776MOL0     H 4708  10.266   1.065   6.914  2.1835 -2.5781  0.5064
  776MOL0     H 4709  10.269   1.165   7.199  0.3312 -1.9231  0.8697
  776MOL0     H 4710  10.418   1.114   7.133  0.1030  1.2143  0.0352
  776MOL0     H 4711  10.517   1.207   6.907 -0.8048  0.1280 -0.7148
  776MOL0     H 4712  10.533   1.559   6.782 -2.2141  0.2653 -0.7055
  776MOL0     H 4713  10.618   1.406   6.762  0.9265  0.0644 -1.5300
  776MOL0     H 4714  10.412   1.350   6.622 -0.4851  0.8350  1.2970
  776MOL0     H 4715  10.386   1.522   6.600 -0.2778 -0.3935  0.3528
  776MOL0     H 4716  10.586   1.344   6.475 -0.5820 -0.4911  1.2126
  776MOL0     H 4717  10.677   1.474   6.539  0.8731 -1.5947 -1.1900
  776MOL0     H 4718  10.612   1.506   6.305 -1.3016 -2.2228 -0.6193
  776MOL0     H 4719  10.510   1.623   6.392 -1.0197  0.2134 -2.0289
  776MOL0     H 4720  10.510   1.615   6.141 -1.2556  1.4328 -1.1799
  776MOL0     H 4721  10.452   1.635   5.924  0.8663 -2.6073 -3.0912
  776MOL0     H 4722  10.082   1.670   5.630 -0.2247  5.9383 -2.0188
  776MOL0     H 4723   9.996   1.700   5.423  0.0963  0.3432 -0.7048
  776MOL0     H 4724   9.952   1.716   5.218 -0.1233  0.2862  0.9083
  776MOL0     H 4725  10.014   1.879   5.207 -1.0625  0.9684 -3.4402
  776MOL0     H 4726   9.929   1.850   4.986  1.2082  1.1374 -1.0513
  776MOL0     H 4727  10.097   1.794   4.955 -0.3451  1.4911 -3.1557
  776MOL0     H 4728  10.022   1.558   4.956 -0.3107  0.1798 -3.3979
  776MOL0     H 4729   9.877   1.615   5.058 -1.4141  3.8511 -0.2943
  776MOL0     H 4730   9.927   1.652   4.769 -0.3238 -0.2017  0.1044
  776MOL0     H 4731   9.786   1.712   4.857  2.2113  1.5427 -0.6786
  776MOL0     H 4732   9.772   1.446   4.920 -3.0237 -1.2642 -2.2960
  776MOL0     H 4733   9.906   1.439   4.803  0.9242 -1.1075  2.4979
  776MOL0     H 4734   9.629   1.556   4.754 -1.3384 -0.6392 -0.8731
  776MOL0     H 4735   9.741   1.533   4.627  1.7287 -2.7890 -0.3026
  776MOL0     H 4736   9.629   1.295   4.792  0.3308  2.0624  1.4955
  776MOL0     H 4737   9.751   1.272   4.672  0.9152  1.0205  0.1102
  776MOL0     H 4738   9.466   1.395   4.636 -0.4222 -0.5850 -1.5483
  776MOL0     H 4739   9.557   1.377   4.503 -0.5907  2.7037  0.3937
  776MOL0     H 4740  10.396   1.687   5.263  1.7444  2.7093  1.9867
  776MOL0     H 4741  10.480   1.614   5.482  0.4893  1.4977 -2.1892
  776MOL0     H 4742  10.157   1.321   5.997 -1.7851  1.0055  0.8028
  776MOL0     H 4743  10.238   1.290   6.202 -2.8391  1.9357  0.1720
  776MOL0     H 4744   9.650   1.143   7.473  0.0508 -0.5750 -0.0474
  776MOL0     H 4745   9.578   1.373   7.487 -0.2911  2.0851  1.0150
  776MOL0     H 4746   9.389   1.752   7.521  0.6762  1.4255 -3.4945
  776MOL0     H 4747   9.325   1.983   7.596 -0.8744 -2.0697 -2.2482
  776MOL0     H 4748   9.324   2.227   7.560 -0.2740  1.2492  1.2914
  776MOL0     H 4749   9.465   2.204   7.454 -0.6718 -2.5348  1.9237
  776MOL0     H 4750   9.440   2.447   7.477  2.4615 -0.2723  0.1594
  776MOL0     H 4751   9.571   2.405   7.581  1.0060 -0.0691 -4.0856
  776MOL0     H 4752   9.394   2.410   7.773 -1.1830 -1.4446 -1.0227
  776MOL0     H 4753   9.266   2.436   7.669 -0.1756 -2.0044  0.7359
  776MOL0     H 4754   9.361   2.666   7.778  0.1719  1.7775 -1.0776
  776MOL0     H 4755   9.500   2.624   7.660 -0.8534  0.9121 -0.4722
  776MOL0     H 4756   9.192   2.764   7.404  2.0976  1.4479 -0.1626
  776MOL0     H 4757   9.722   2.086   7.674 -0.9779  2.6383 -0.3063
  776MOL0     H 4758   9.882   1.752   7.623  1.0338 -0.2555  0.1906
  776MOL0     H 4759   9.923   1.920   7.653  0.7939 -0.8530 -1.3958
  776MOL0     H 4760   9.843   1.825   7.774  2.8126  2.9098  1.4413
  777MOL0     O 4761   0.824   5.585   8.985 -0.4224  0.1243 -0.0796
  777MOL0     C 4762   0.880   5.622   9.089 -0.7539 -0.2996 -0.5794
  777MOL0     O 4763   1.004   5.677   9.093 -0.4729 -0.2642  0.1560
  777MOL0     C 4764   1.057   5.748   8.980 -1.5034 -0.3185  0.1097
  777MOL0     C 4765   1.190   5.726   8.970 -0.7699 -0.5441  0.4869
  777MOL0     C 4766   1.258   5.787   8.867  0.5617 -1.2067  0.2648
  777MOL0     C 4767   1.193   5.873   8.771 -0.1109 -0.6281 -0.2775
  777MOL0     O 4768   1.249   5.935   8.670  0.4316  0.2809  0.8506
  777MOL0     C 4769   1.381   5.900   8.638 -0.3231  0.5437  1.5494
  777MOL0     C 4770   1.430   5.997   8.530 -0.3688  0.0995 -0.7291
  777MOL0     C 4771   1.572   5.949   8.495  0.3507 -0.7508  0.1604
  777MOL0     C 4772   1.657   6.058   8.438  0.2416 -0.0563  1.0105
  777MOL0     C 4773   1.738   6.148   8.541  0.1211 -0.3929  0.0588
  777MOL0     C 4774   1.837   6.243   8.468  0.4621  1.0956  0.5475
  777MOL0     C 4775   1.769   6.369   8.389  0.7923 -0.0820 -0.0801
  777MOL0     C 4776   1.854   6.424   8.277  0.3369 -0.5623 -0.2807
  777MOL0     N 4777   1.777   6.520   8.200  0.6373 -0.0805  0.2197
  777MOL0     C 4778   1.764   6.658   8.236  0.2399  0.3129  0.2592
  777MOL0     C 4779   1.657   6.694   8.160  0.3891  0.0164  0.2002
  777MOL0     C 4780   1.566   6.811   8.186  0.0511 -0.1987 -0.9354
  777MOL0     C 4781   1.422   6.765   8.197 -0.5206  0.2242 -0.5985
  777MOL0     C 4782   1.398   6.655   8.308  0.4528 -0.5319  0.8186
  777MOL0     C 4783   1.244   6.611   8.306  0.2719 -0.4752 -0.9559
  777MOL0     O 4784   1.176   6.728   8.339  0.2328  0.2255  0.1875
  777MOL0     C 4785   1.038   6.712   8.346  0.5140  0.9692 -0.2072
  777MOL0     C 4786   0.967   6.595   8.332 -0.5590 -0.4423 -0.2806
  777MOL0     C 4787   0.830   6.595   8.345  0.1042  0.1939  0.4031
  777MOL0     C 4788   0.758   6.715   8.364 -0.0626  0.3754 -0.9810
  777MOL0     C 4789   0.608   6.713   8.372 -0.2840  0.4625  0.4732
  777MOL0     O 4790   0.540   6.821   8.416 -0.8592 -0.1573 -0.2354
  777MOL0     C 4791   0.410   6.815   8.442 -0.0810  0.9361  0.6270
  777MOL0     C 4792   0.323   6.778   8.340 -0.3583 -0.5635 -0.3102
  777MOL0     C 4793   0.192   6.799   8.366  0.6445  0.4776  1.3395
  777MOL0     C 4794   0.146   6.848   8.484  0.7532 -0.2958 -0.0046
  777MOL0     O 4795   0.011   6.865   8.512  0.8495  0.0651  0.3471
  777MOL0     C 4796  -0.095   6.822   8.413  0.2141  0.3324  0.2706
  777MOL0     C 4797  -0.238   6.814   8.471  0.2373 -0.7408 -0.2260
  777MOL0     C 4798  -0.245   6.737   8.603  0.8048 -0.1025 -0.4414
  777MOL0     C 4799  -0.210   6.592   8.615  0.3388  0.0964 -0.0872
  777MOL0     C 4800  -0.312   6.491   8.568 -0.2871 -0.4616 -0.6461
  777MOL0     C 4801  -0.322   6.491   8.415 -0.4330  0.6958 -0.6821
  777MOL0     C 4802  -0.411   6.377   8.350  0.0075 -0.0985  0.4391
  777MOL0     C 4803  -0.333   6.246   8.323  0.2243 -1.0148  0.7533
  777MOL0    Cl 4804  -0.275   6.176   8.479 -0.2633  0.0836 -0.2577
  777MOL0     C 4805   0.235   6.864   8.590 -0.4383  0.1315 -0.6808
  777MOL0     C 4806   0.362   6.846   8.565 -0.8632  0.1362 -0.1028
  777MOL0     O 4807   0.560   6.601   8.344 -0.5468 -0.2392 -0.3079
  777MOL0     C 4808   0.829   6.839   8.371  0.8360 -0.5644  0.5378
  777MOL0     C 4809   0.964   6.833   8.359 -0.3966  0.5300 -0.0065
  777MOL0     N 4810   1.630   6.595   8.075  0.4841 -0.1515 -0.1932
  777MOL0     N 4811   1.696   6.489   8.095 -0.3513 -1.2154 -0.0652
  777MOL0     C 4812   1.052   5.896   8.784  0.1358  0.0165 -0.0444
  777MOL0     C 4813   0.982   5.828   8.890 -0.2834 -0.6889  0.9787
  777MOL0     C 4814   0.829   5.592   9.226  0.3802 -0.8711 -0.2016
  777MOL0     C 4815   0.907   5.590   9.337 -0.3947  1.1159 -0.5915
  777MOL0     C 4816   0.856   5.560   9.469  0.3383 -0.4433 -0.2054
  777MOL0     C 4817   0.720   5.533   9.486  0.5154 -0.2017 -0.0333
  777MOL0     O 4818   0.675   5.490   9.610 -0.2921 -0.2096  0.6515
  777MOL0     C 4819   0.536   5.464   9.624  0.1280  0.1633  0.4142
  777MOL0     C 4820   0.501   5.496   9.770  0.1929  0.5191 -0.3488
  777MOL0     C 4821   0.374   5.428   9.824  0.4054  0.4782 -0.8291
  777MOL0     C 4822   0.347   5.449   9.971  0.8582  0.3063  0.4916
  777MOL0     C 4823   0.437   5.359  10.039 -0.2237  0.6665 -0.4297
  777MOL0     C 4824   0.494   5.257  10.072 -0.3549  0.4493 -0.4698
  777MOL0     C 4825   0.633   5.550   9.377 -0.5681  0.8848 -0.4132
  777MOL0     C 4826   0.690   5.560   9.250  0.1998  0.6361 -0.0992
  777MOL0     C 4827   0.598   5.539   9.137 -0.0262 -0.6728 -0.5382
  777MOL0     H 4828   1.247   5.655   9.028  2.5522  1.1778 -0.3658
  777MOL0     H 4829   1.361   5.756   8.853 -0.3108 -3.3828 -2.0270
  777MOL0     H 4830   1.442   5.917   8.727  2.3020  0.8532 -0.2180
  777MOL0     H 4831   1.394   5.798   8.603  1.2279  1.7189 -1.6637
  777MOL0     H 4832   1.425   6.097   8.574  2.5399 -0.5262  1.3233
  777MOL0     H 4833   1.354   5.980   8.454 -0.0323 -0.6245 -0.9198
  777MOL0     H 4834   1.551   5.878   8.415 -0.0768  0.8693 -1.2496
  777MOL0     H 4835   1.620   5.894   8.576 -1.2138 -3.0223 -0.3799
  777MOL0     H 4836   1.736   6.000   8.390 -0.6938 -1.3183  0.9223
  777MOL0     H 4837   1.601   6.115   8.363  1.1013 -0.8898 -0.2922
  777MOL0     H 4838   1.664   6.207   8.597  0.2521  0.9048 -1.0937
  777MOL0     H 4839   1.804   6.090   8.606  0.4472  1.8535  1.8725
  777MOL0     H 4840   1.912   6.267   8.544  1.3243  0.0339  0.0688
  777MOL0     H 4841   1.883   6.182   8.389 -1.2345  2.4615 -1.6464
  777MOL0     H 4842   1.743   6.441   8.467  0.1479 -1.3807  0.9671
  777MOL0     H 4843   1.671   6.357   8.340  0.7765 -2.1835  0.3619
  777MOL0     H 4844   1.932   6.491   8.315 -0.8156  2.3689 -2.7242
  777MOL0     H 4845   1.902   6.353   8.210  2.5732 -0.6589  1.2949
  777MOL0     H 4846   1.805   6.719   8.316 -1.9484 -0.5293  2.1591
  777MOL0     H 4847   1.599   6.855   8.281 -2.0226 -2.3370  0.8982
  777MOL0     H 4848   1.565   6.882   8.103 -1.3159  3.1771  1.7292
  777MOL0     H 4849   1.361   6.852   8.219  1.9438  1.1933  3.3899
  777MOL0     H 4850   1.384   6.721   8.105  0.2935 -0.0598 -0.8142
  777MOL0     H 4851   1.425   6.698   8.405  2.8900  2.9970 -1.1981
  777MOL0     H 4852   1.456   6.565   8.285  0.2754 -0.7258  1.1208
  777MOL0     H 4853   1.223   6.539   8.386 -2.9593  4.5446  3.3526
  777MOL0     H 4854   1.205   6.598   8.205 -0.7742  0.2521 -0.6622
  777MOL0     H 4855   1.005   6.496   8.307  1.0397  0.8694 -3.6494
  777MOL0     H 4856   0.761   6.513   8.358 -3.5000  3.0547  1.2472
  777MOL0     H 4857   0.370   6.751   8.246  0.0359  3.4661 -1.4451
  777MOL0     H 4858   0.118   6.771   8.291  3.6469  1.3179 -2.2528
  777MOL0     H 4859  -0.093   6.888   8.326 -0.3520  1.3015  0.9588
  777MOL0     H 4860  -0.064   6.722   8.382  2.1723  1.3074 -1.1404
  777MOL0     H 4861  -0.274   6.916   8.489 -0.7832 -0.8716 -1.3956
  777MOL0     H 4862  -0.300   6.764   8.395  0.6971 -1.7525  0.0540
  777MOL0     H 4863  -0.200   6.795   8.684 -0.8987  1.6615 -0.6871
  777MOL0     H 4864  -0.350   6.757   8.625  0.7012  1.1583 -1.9212
  777MOL0     H 4865  -0.184   6.590   8.722 -0.0958  0.3136  0.0304
  777MOL0     H 4866  -0.118   6.566   8.564  1.4476  0.3994  1.6651
  777MOL0     H 4867  -0.403   6.515   8.623 -0.4926 -0.5896 -0.9302
  777MOL0     H 4868  -0.281   6.393   8.607  1.4483 -0.1864 -1.2491
  777MOL0     H 4869  -0.358   6.586   8.372 -2.2813  0.1204 -0.5183
  777MOL0     H 4870  -0.224   6.463   8.377 -1.7867 -1.6186 -2.7888
  777MOL0     H 4871  -0.442   6.427   8.257  3.0044 -1.9427 -1.7559
  777MOL0     H 4872  -0.499   6.367   8.413 -1.2555 -1.9398 -1.4738
  777MOL0     H 4873  -0.398   6.171   8.277 -0.9006  0.3963 -0.0185
  777MOL0     H 4874  -0.245   6.261   8.261 -1.8414  1.6276 -1.8164
  777MOL0     H 4875   0.187   6.886   8.685 -3.0247 -1.8718 -1.3907
  777MOL0     H 4876   0.434   6.858   8.645 -1.1808  1.3010  0.0248
  777MOL0     H 4877   0.788   6.939   8.376  2.7703  0.2871  0.2993
  777MOL0     H 4878   1.040   6.911   8.357  2.2064 -1.7835  1.0899
  777MOL0     H 4879   0.999   5.955   8.710  0.5354  1.5194  0.8353
  777MOL0     H 4880   0.875   5.845   8.898  0.0471  2.0150  0.7430
  777MOL0     H 4881   1.014   5.606   9.332  0.1205 -1.4023  0.4968
  777MOL0     H 4882   0.918   5.565   9.557 -3.1913  2.4838  2.3699
  777MOL0     H 4883   0.521   5.359   9.597 -2.5415  1.1181 -2.3801
  777MOL0     H 4884   0.465   5.523   9.565  0.4302 -1.1461 -1.3044
  777MOL0     H 4885   0.489   5.603   9.784  0.1210  0.1582  3.6194
  777MOL0     H 4886   0.591   5.469   9.827  1.0486 -0.2361 -1.9908
  777MOL0     H 4887   0.376   5.322   9.797 -0.8753 -0.4808  2.3549
  777MOL0     H 4888   0.293   5.484   9.777 -2.0676 -1.4093  0.9545
  777MOL0     H 4889   0.364   5.554   9.995  0.9795  0.7205 -1.2919
  777MOL0     H 4890   0.241   5.456   9.998  0.9141  1.1918  0.4979
  777MOL0     H 4891   0.540   5.162  10.087  1.1775  1.5230  2.3894
  777MOL0     H 4892   0.526   5.540   9.393 -0.3644 -1.7866 -0.2321
  777MOL0     H 4893   0.578   5.631   9.082 -2.1701  1.2853  3.1040
  777MOL0     H 4894   0.633   5.459   9.071 -1.0107  0.2070 -2.1999
  777MOL0     H 4895   0.500   5.515   9.181  0.6112  1.3334  2.2055
  778MOL0     O 4896  11.114   8.411   5.323  0.6122  0.7080  0.3397
  778MOL0     C 4897  11.185   8.477   5.245  0.4553  0.2986 -0.9494
  778MOL0     O 4898  11.308   8.446   5.202  0.3116 -0.4818  0.9718
  778MOL0     C 4899  11.372   8.360   5.282 -0.0048  0.5465 -0.7755
  778MOL0     C 4900  11.323   8.228   5.284  0.4784 -0.6893 -0.0031
  778MOL0     C 4901  11.392   8.135   5.361 -0.4761 -0.1102 -0.2213
  778MOL0     C 4902  11.501   8.170   5.444  0.2624 -0.3269  0.2161
  778MOL0     O 4903  11.574   8.087   5.523 -0.7784 -0.1921 -0.6519
  778MOL0     C 4904  11.538   7.948   5.532  0.1395  0.1874  0.0128
  778MOL0     C 4905  11.581   7.884   5.406 -0.5403 -0.3502  0.2420
  778MOL0     C 4906  11.667   7.756   5.412 -0.8532 -0.5243 -0.1479
  778MOL0     C 4907  11.818   7.791   5.442  0.2719 -0.5258  0.5827
  778MOL0     C 4908  11.886   7.656   5.476  0.7808 -0.0842 -0.2076
  778MOL0     C 4909  12.034   7.660   5.493  0.7976 -0.0929  0.1570
  778MOL0     C 4910  12.093   7.519   5.535  0.6837 -0.3661  0.1722
  778MOL0     C 4911  12.069   7.416   5.427 -0.1015  0.2118 -0.4015
  778MOL0     N 4912  12.145   7.290   5.440  1.0559 -0.5404 -0.3270
  778MOL0     C 4913  12.121   7.181   5.525  0.2388 -0.3672 -0.2413
  778MOL0     C 4914  12.209   7.085   5.483 -0.3607 -0.2103 -0.1025
  778MOL0     C 4915  12.232   6.957   5.563 -0.5372  0.4534 -0.2717
  778MOL0     C 4916  12.340   6.865   5.504 -0.1899  0.6665 -0.2040
  778MOL0     C 4917  12.481   6.888   5.561  0.1824 -0.4715 -0.2862
  778MOL0     C 4918  12.583   6.795   5.485 -1.1551 -0.4747 -0.1568
  778MOL0     O 4919  12.553   6.661   5.494 -0.8463  0.6651 -0.6124
  778MOL0     C 4920  12.625   6.575   5.409  0.7557  0.0879  0.8472
  778MOL0     C 4921  12.740   6.614   5.335  0.0434  0.5971 -0.3177
  778MOL0     C 4922  12.806   6.516   5.257  0.1619  0.8476 -1.3152
  778MOL0     C 4923  12.752   6.376   5.253 -0.0167 -0.7133 -0.3043
  778MOL0     C 4924  12.825   6.284   5.158 -0.3989  1.0890 -0.5774
  778MOL0     O 4925  12.928   6.331   5.081 -0.4641 -0.4212  0.4528
  778MOL0     C 4926  12.966   6.268   4.969 -0.3155  0.3498 -1.1015
  778MOL0     C 4927  12.878   6.218   4.873  0.3973 -0.2655  0.9011
  778MOL0     C 4928  12.934   6.172   4.753 -0.4483  0.4572 -0.2327
  778MOL0     C 4929  13.072   6.151   4.739  0.1438  0.4048  0.4194
  778MOL0     O 4930  13.127   6.086   4.625 -0.0054 -0.0319  0.5282
  778MOL0     C 4931  13.032   6.038   4.530 -0.6851  0.6483  0.9394
  778MOL0     C 4932  12.936   5.915   4.569 -0.4027 -1.2789  0.1908
  778MOL0     C 4933  13.013   5.782   4.605  0.3141  0.5360  0.7788
  778MOL0     C 4934  12.935   5.673   4.688  0.0151 -0.6263  0.6384
  778MOL0     C 4935  13.009   5.536   4.682  0.4828 -0.0804  0.0647
  778MOL0     C 4936  13.137   5.546   4.775  1.1343  1.1241  0.9310
  778MOL0     C 4937  13.207   5.407   4.754  1.4746  0.1018 -1.1720
  778MOL0     C 4938  13.308   5.401   4.863  0.9101  0.3911  1.5255
  778MOL0    Cl 4939  13.401   5.244   4.866 -0.5697 -0.3985 -0.7598
  778MOL0     C 4940  13.157   6.203   4.832  0.5755 -0.5679 -0.7522
  778MOL0     C 4941  13.104   6.261   4.948 -0.8133  0.1327 -0.7739
  778MOL0     O 4942  12.774   6.173   5.147  0.5392 -0.1667 -0.0627
  778MOL0     C 4943  12.629   6.348   5.314 -0.4857  0.4758  0.2336
  778MOL0     C 4944  12.572   6.446   5.396 -0.1376  0.1758  0.8933
  778MOL0     N 4945  12.289   7.130   5.388 -0.2966 -0.4524  0.4652
  778MOL0     N 4946  12.243   7.251   5.359  0.1286 -0.7149  0.3474
  778MOL0     C 4947  11.543   8.302   5.456 -0.4058 -0.5548 -0.3696
  778MOL0     C 4948  11.478   8.399   5.374 -0.1395 -0.3674  0.7709
  778MOL0     C 4949  11.131   8.596   5.180 -0.0564 -0.1397  0.3832
  778MOL0     C 4950  11.203   8.717   5.182  0.2399 -0.3822 -0.5547
  778MOL0     C 4951  11.159   8.830   5.122  0.2388 -0.9402  0.6459
  778MOL0     C 4952  11.052   8.828   5.039  0.4593 -0.0961  1.5977
  778MOL0     O 4953  10.998   8.936   4.986  0.0141 -0.4216  0.4675
  778MOL0     C 4954  10.989   9.048   5.079  0.0943  0.6704  0.3147
  778MOL0     C 4955  10.875   9.133   5.026 -0.0705 -0.1253 -0.6224
  778MOL0     C 4956  10.732   9.069   5.025  0.1099 -0.6995 -0.0337
  778MOL0     C 4957  10.634   9.186   4.994 -0.0587  0.0254  0.6947
  778MOL0     C 4958  10.640   9.238   4.849 -0.4583 -0.9921  0.2643
  778MOL0     C 4959  10.640   9.299   4.742  0.9695  0.7145 -0.1970
  778MOL0     C 4960  10.979   8.708   5.030 -0.8989  0.8132  1.0384
  778MOL0     C 4961  11.015   8.590   5.108  0.1251 -0.7793  0.0608
  778MOL0     C 4962  10.935   8.458   5.107  0.1140  0.6263  0.0450
  778MOL0     H 4963  11.235   8.189   5.233 -0.2206 -3.4963  3.0063
  778MOL0     H 4964  11.357   8.032   5.360  0.0298 -0.2988  0.3777
  778MOL0     H 4965  11.594   7.902   5.614 -2.0521 -2.5348  0.1576
  778MOL0     H 4966  11.440   7.913   5.566  0.9161 -1.3629  0.7786
  778MOL0     H 4967  11.641   7.950   5.343  1.8247 -3.3131 -0.8776
  778MOL0     H 4968  11.497   7.846   5.346 -0.2521 -1.6862  0.6530
  778MOL0     H 4969  11.662   7.702   5.317 -1.6578  2.8237 -2.2004
  778MOL0     H 4970  11.632   7.705   5.502 -0.5914  0.1950  0.3684
  778MOL0     H 4971  11.871   7.827   5.353 -0.4138 -3.0830 -0.9721
  778MOL0     H 4972  11.822   7.865   5.523 -0.7273  0.2747 -0.0818
  778MOL0     H 4973  11.842   7.624   5.571 -1.9943  0.4997 -1.1958
  778MOL0     H 4974  11.846   7.578   5.410  1.2609 -1.2389  0.8190
  778MOL0     H 4975  12.085   7.678   5.398 -1.2594 -1.2092 -1.2132
  778MOL0     H 4976  12.063   7.724   5.577  0.8859 -0.5839  0.5061
  778MOL0     H 4977  12.070   7.484   5.636  1.9913  2.1433  1.4309
  778MOL0     H 4978  12.201   7.533   5.531  0.9375 -2.2063 -0.3753
  778MOL0     H 4979  11.963   7.389   5.429 -0.0167 -0.3612  3.1619
  778MOL0     H 4980  12.094   7.467   5.333 -0.1965  1.8013  0.3972
  778MOL0     H 4981  12.054   7.171   5.610  1.2196 -4.6426  0.2220
  778MOL0     H 4982  12.264   6.997   5.660  0.5564  0.7727 -0.7493
  778MOL0     H 4983  12.143   6.895   5.580 -0.5410  1.0371  2.0911
  778MOL0     H 4984  12.310   6.761   5.522  1.1606  0.3388  0.3303
  778MOL0     H 4985  12.340   6.879   5.396 -1.2247  0.3288 -0.2623
  778MOL0     H 4986  12.485   6.878   5.670  1.1920  1.7262 -0.0712
  778MOL0     H 4987  12.520   6.990   5.551 -4.5563  1.4542 -3.0202
  778MOL0     H 4988  12.686   6.811   5.517 -0.7620 -1.6993 -0.7518
  778MOL0     H 4989  12.572   6.830   5.383 -2.6058  1.2110  0.5343
  778MOL0     H 4990  12.783   6.714   5.345 -0.1278  0.4394  3.4661
  778MOL0     H 4991  12.900   6.548   5.214  2.3311  0.3799  2.5984
  778MOL0     H 4992  12.770   6.220   4.882  0.3392  3.3956  0.8007
  778MOL0     H 4993  12.859   6.149   4.679 -0.4777  1.8571 -0.6614
  778MOL0     H 4994  12.991   6.123   4.475 -1.0704 -0.1009  0.0420
  778MOL0     H 4995  13.099   5.995   4.455 -0.5900  0.1186  1.3244
  778MOL0     H 4996  12.859   5.936   4.644 -2.2674 -2.2351 -1.3638
  778MOL0     H 4997  12.889   5.886   4.475  0.2490  0.2887 -0.6682
  778MOL0     H 4998  13.053   5.732   4.517 -0.5266 -0.0990  0.7558
  778MOL0     H 4999  13.104   5.818   4.655  2.7444  1.4819 -3.7356
  778MOL0     H 5000  12.840   5.653   4.637  0.4307 -3.4954  0.8400
  778MOL0     H 5001  12.919   5.705   4.791  1.3447  0.9231  0.4049
  778MOL0     H 5002  13.041   5.520   4.579  0.5031 -0.7254  0.1693
  778MOL0     H 5003  12.947   5.453   4.716  0.3646 -0.0825 -0.1538
  778MOL0     H 5004  13.196   5.623   4.726  2.4845 -0.9187 -0.8213
  778MOL0     H 5005  13.108   5.578   4.876  1.4188  1.2292  0.9799
  778MOL0     H 5006  13.261   5.404   4.658  1.6605  1.8003 -1.1567
  778MOL0     H 5007  13.128   5.333   4.756 -1.0354  2.5116  2.5843
  778MOL0     H 5008  13.377   5.481   4.833  1.6929 -1.4124 -2.0578
  778MOL0     H 5009  13.265   5.407   4.963  2.2424 -2.4884  2.3606
  778MOL0     H 5010  13.262   6.210   4.806  0.2455  2.7901 -1.6783
  778MOL0     H 5011  13.169   6.302   5.025  1.0408  0.1524 -2.2722
  778MOL0     H 5012  12.580   6.252   5.297 -1.9115  1.0969  0.7096
  778MOL0     H 5013  12.489   6.404   5.453 -2.1684  1.3972 -0.9819
  778MOL0     H 5014  11.634   8.324   5.512  2.3700  0.3238 -4.7104
  778MOL0     H 5015  11.532   8.493   5.370 -1.0593  0.2844  2.5809
  778MOL0     H 5016  11.292   8.731   5.242 -1.9797  2.3750  2.4516
  778MOL0     H 5017  11.211   8.924   5.136  0.3083 -0.4908 -2.0661
  778MOL0     H 5018  11.076   9.113   5.088  1.4118 -1.2625  2.7024
  778MOL0     H 5019  10.970   9.013   5.181  3.5470  2.0371  1.5611
  778MOL0     H 5020  10.908   9.186   4.937  0.2033  1.5778  0.4424
  778MOL0     H 5021  10.867   9.218   5.095 -0.0453 -1.0426  0.5485
  778MOL0     H 5022  10.705   9.032   5.124  1.1503  0.8491  0.8873
  778MOL0     H 5023  10.727   8.984   4.957  0.6632 -1.1021  0.4178
  778MOL0     H 5024  10.533   9.151   5.016  0.6408 -4.2362 -1.7179
  778MOL0     H 5025  10.660   9.267   5.063  0.1118  0.2652  0.3511
  778MOL0     H 5026  10.626   9.363   4.658  2.1532 -1.2541 -1.9876
  778MOL0     H 5027  10.878   8.711   4.990 -0.4237  1.0256 -0.1735
  778MOL0     H 5028  11.005   8.375   5.094  0.0247  0.7118 -1.1352
  778MOL0     H 5029  10.872   8.442   5.195  1.0983  0.1322  0.6797
  778MOL0     H 5030  10.875   8.457   5.015 -0.6137  0.0758  0.5191
  779MOL0     O 5031  11.468   2.896   3.247  0.6067 -0.4516  0.4138
  779MOL0     C 5032  11.403   2.965   3.324 -0.4080  1.1357  0.3014
  779MOL0     O 5033  11.333   2.918   3.432 -0.1453 -0.5087  0.3414
  779MOL0     C 5034  11.311   2.782   3.435 -0.1729  0.3870  0.1685
  779MOL0     C 5035  11.247   2.712   3.333 -0.2316 -0.3578 -0.4219
  779MOL0     C 5036  11.213   2.582   3.354  0.5118 -0.5070  0.5493
  779MOL0     C 5037  11.253   2.507   3.462 -0.0524  0.6649 -0.0692
  779MOL0     O 5038  11.212   2.375   3.493 -0.0215  0.3496  1.0607
  779MOL0     C 5039  11.087   2.333   3.445 -0.9279 -0.1613 -0.8530
  779MOL0     C 5040  10.972   2.386   3.534 -0.2778 -0.4809 -0.7390
  779MOL0     C 5041  10.840   2.323   3.485 -0.0321 -0.2582  0.8175
  779MOL0     C 5042  10.721   2.389   3.562 -1.0045  0.7781 -0.2615
  779MOL0     C 5043  10.708   2.538   3.517  0.4216  0.2999 -0.0004
  779MOL0     C 5044  10.568   2.567   3.556  1.0910 -0.4746 -0.0617
  779MOL0     C 5045  10.528   2.708   3.514  0.1013 -0.0544  0.2421
  779MOL0     C 5046  10.379   2.741   3.546  0.2853  0.4869  0.5723
  779MOL0     N 5047  10.348   2.746   3.687  0.6018 -0.0945  0.0804
  779MOL0     C 5048  10.223   2.749   3.738 -0.4630  0.6438  0.0805
  779MOL0     C 5049  10.242   2.754   3.879  0.1733  0.1381  0.3531
  779MOL0     C 5050  10.128   2.747   3.979 -0.4705 -0.2079 -0.6346
  779MOL0     C 5051  10.092   2.597   3.981  0.6902 -0.9871  0.4973
  779MOL0     C 5052  10.041   2.549   4.114  0.6041 -0.1195 -0.2988
  779MOL0     C 5053   9.999   2.399   4.107  0.0185 -0.2658 -0.2373
  779MOL0     O 5054  10.108   2.319   4.061  0.3656  0.2903 -0.5233
  779MOL0     C 5055  10.077   2.198   3.997  0.1765  0.3299 -0.6010
  779MOL0     C 5056   9.949   2.134   4.014  0.3057  0.8638 -0.9849
  779MOL0     C 5057   9.932   2.000   3.973 -0.6043  0.7123 -0.3768
  779MOL0     C 5058  10.032   1.937   3.888 -0.6560  0.4818  0.2852
  779MOL0     C 5059  10.018   1.804   3.823  0.6295  0.8054  0.4863
  779MOL0     O 5060   9.893   1.736   3.857  0.6246 -0.8385  0.3908
  779MOL0     C 5061   9.859   1.611   3.819 -0.7998 -0.9309 -0.8932
  779MOL0     C 5062   9.731   1.560   3.871  0.3409 -0.0629  0.3648
  779MOL0     C 5063   9.668   1.446   3.813 -0.4756 -0.5805  0.4669
  779MOL0     C 5064   9.721   1.380   3.696  0.3735 -0.4530  0.2817
  779MOL0     O 5065   9.684   1.265   3.638  0.3584  0.4736  0.3151
  779MOL0     C 5066   9.585   1.190   3.693 -0.8773 -0.5786 -0.0698
  779MOL0     C 5067   9.531   1.106   3.584  0.1848  0.5024 -0.0435
  779MOL0     C 5068   9.450   1.194   3.482 -0.1028  0.6140 -0.3305
  779MOL0     C 5069   9.386   1.103   3.374  0.6200 -0.5216 -0.2642
  779MOL0     C 5070   9.248   1.143   3.334 -0.6105 -0.3915 -0.0646
  779MOL0     C 5071   9.189   1.060   3.223  0.0734 -0.3083  0.1473
  779MOL0     C 5072   9.141   0.923   3.271  0.2353  0.1881 -0.3453
  779MOL0     C 5073   9.047   0.843   3.173  0.8133  0.3954  0.6536
  779MOL0    Cl 5074   8.896   0.937   3.140  0.0160  0.3431 -0.3767
  779MOL0     C 5075   9.856   1.417   3.654  1.2238 -0.0653 -0.1733
  779MOL0     C 5076   9.919   1.533   3.716 -0.3034 -0.6068  1.1564
  779MOL0     O 5077  10.110   1.758   3.755  0.1436  0.1376 -0.1852
  779MOL0     C 5078  10.155   2.000   3.877 -0.8280  0.1440 -0.8929
  779MOL0     C 5079  10.176   2.127   3.936  0.1297  0.2795 -1.4415
  779MOL0     N 5080  10.374   2.755   3.903  0.2975 -0.2089 -0.2067
  779MOL0     N 5081  10.439   2.749   3.788  0.7258  0.3563  0.0418
  779MOL0     C 5082  11.316   2.566   3.571 -0.5348  0.7648 -0.7295
  779MOL0     C 5083  11.345   2.713   3.552 -0.1619 -0.0431 -0.1563
  779MOL0     C 5084  11.376   3.109   3.299 -0.1053 -0.5653 -0.2976
  779MOL0     C 5085  11.487   3.200   3.282  0.0906  1.5905 -0.2955
  779MOL0     C 5086  11.473   3.335   3.275 -0.1647  0.4728 -0.1480
  779MOL0     C 5087  11.347   3.401   3.308  0.3231  0.5158  1.0668
  779MOL0     O 5088  11.331   3.539   3.298  0.6197 -0.0357  0.2016
  779MOL0     C 5089  11.203   3.595   3.301  0.1666  0.6243  0.0928
  779MOL0     C 5090  11.181   3.740   3.269  0.7169  0.3484  0.2322
  779MOL0     C 5091  11.283   3.818   3.353  0.4639  0.0173 -0.0260
  779MOL0     C 5092  11.242   3.967   3.375  0.3040  0.1094  0.5002
  779MOL0     C 5093  11.353   4.049   3.422 -0.3937 -0.0439  0.5189
  779MOL0     C 5094  11.429   4.139   3.456  0.3430 -0.1699 -0.0159
  779MOL0     C 5095  11.232   3.313   3.336 -0.2832 -0.8530  0.2058
  779MOL0     C 5096  11.251   3.176   3.328 -0.7853  0.0012  1.0330
  779MOL0     C 5097  11.125   3.096   3.349 -0.3181  0.3881  0.4836
  779MOL0     H 5098  11.243   2.763   3.238  3.5664  1.6737  0.2959
  779MOL0     H 5099  11.179   2.526   3.268  0.2948  2.4252 -1.4126
  779MOL0     H 5100  11.062   2.370   3.345 -1.2867  0.7451 -0.4453
  779MOL0     H 5101  11.093   2.224   3.441 -1.3152 -0.1638 -1.5774
  779MOL0     H 5102  10.961   2.494   3.517  2.2965 -0.2586 -1.3107
  779MOL0     H 5103  10.991   2.362   3.639 -0.3564  2.6985  0.1135
  779MOL0     H 5104  10.832   2.215   3.505  0.1838 -0.0936  1.8258
  779MOL0     H 5105  10.827   2.346   3.379 -0.5235  2.3878  1.4073
  779MOL0     H 5106  10.633   2.324   3.553 -1.7257  1.7495 -0.4350
  779MOL0     H 5107  10.737   2.388   3.670  0.4079  2.6180 -0.4058
  779MOL0     H 5108  10.777   2.602   3.571  2.5437 -0.2014 -1.9880
  779MOL0     H 5109  10.719   2.563   3.411 -0.6120  4.3810  0.6991
  779MOL0     H 5110  10.496   2.504   3.503  1.4247  1.1874 -2.6535
  779MOL0     H 5111  10.570   2.556   3.665 -0.2554  0.4592  0.0869
  779MOL0     H 5112  10.528   2.713   3.405 -0.4143 -0.2069  0.2330
  779MOL0     H 5113  10.601   2.779   3.554  0.2231 -0.6549  1.1227
  779MOL0     H 5114  10.357   2.840   3.506 -1.4577  0.2223  0.8311
  779MOL0     H 5115  10.309   2.666   3.509  0.4242 -1.2610  3.5048
  779MOL0     H 5116  10.127   2.744   3.688  0.7817  2.3403 -2.6698
  779MOL0     H 5117  10.164   2.779   4.077 -2.8924 -0.4865  0.4222
  779MOL0     H 5118  10.044   2.812   3.950 -0.9314  0.6024  2.2182
  779MOL0     H 5119  10.026   2.568   3.898 -0.4216 -0.1636  1.0689
  779MOL0     H 5120  10.183   2.537   3.977  0.9553 -0.6169  0.8971
  779MOL0     H 5121   9.948   2.598   4.147  0.0678 -1.1739 -0.2105
  779MOL0     H 5122  10.111   2.573   4.194 -0.0908 -1.4341  0.7432
  779MOL0     H 5123   9.907   2.400   4.047  0.0615  4.5024 -0.5737
  779MOL0     H 5124   9.971   2.356   4.203 -1.1928  1.5813  0.2735
  779MOL0     H 5125   9.861   2.184   4.053  0.8288 -1.2117  3.4969
  779MOL0     H 5126   9.834   1.954   3.978 -1.2531  2.2110  2.2032
  779MOL0     H 5127   9.682   1.619   3.948  1.4170  1.1774  0.1350
  779MOL0     H 5128   9.571   1.427   3.858  0.1815 -1.3727  1.5815
  779MOL0     H 5129   9.614   1.122   3.774 -0.3291  0.1176  0.3287
  779MOL0     H 5130   9.504   1.254   3.730 -0.4553  0.6526 -1.2190
  779MOL0     H 5131   9.602   1.043   3.529 -0.6160 -1.4225  0.9973
  779MOL0     H 5132   9.457   1.043   3.636 -2.7042  2.9798 -0.8949
  779MOL0     H 5133   9.383   1.261   3.537 -1.7902 -1.0366 -0.2576
  779MOL0     H 5134   9.529   1.238   3.421  2.5238 -0.5699  1.9853
  779MOL0     H 5135   9.380   0.995   3.393  1.4473 -0.4441  0.4646
  779MOL0     H 5136   9.442   1.106   3.280  2.2652  2.1314  0.7006
  779MOL0     H 5137   9.248   1.250   3.312 -1.0208 -1.0123 -3.6084
  779MOL0     H 5138   9.189   1.128   3.426  1.2924  0.4577  1.3662
  779MOL0     H 5139   9.100   1.112   3.185 -0.3229  0.3369  1.8544
  779MOL0     H 5140   9.262   1.045   3.143 -0.0890  0.5958 -0.1805
  779MOL0     H 5141   9.088   0.937   3.366  0.7747  3.4058 -0.3949
  779MOL0     H 5142   9.213   0.846   3.302 -0.1438 -0.7325 -1.6884
  779MOL0     H 5143   9.089   0.792   3.086  2.4088 -2.4637  2.9442
  779MOL0     H 5144   9.007   0.758   3.229 -2.4233  0.2888 -1.4993
  779MOL0     H 5145   9.906   1.352   3.583  0.0447 -1.0419 -0.1455
  779MOL0     H 5146  10.012   1.569   3.673 -1.1708 -0.9656 -1.1355
  779MOL0     H 5147  10.242   1.969   3.820 -0.1257  1.6970 -0.7372
  779MOL0     H 5148  10.277   2.165   3.943  1.1911 -2.5636  0.6052
  779MOL0     H 5149  11.340   2.512   3.662  4.0695  0.6131 -1.7911
  779MOL0     H 5150  11.379   2.772   3.636 -0.7304 -0.2450  0.2245
  779MOL0     H 5151  11.580   3.149   3.262 -2.5092 -3.1510 -1.7727
  779MOL0     H 5152  11.567   3.388   3.259 -0.7493  1.9527  1.0399
  779MOL0     H 5153  11.177   3.564   3.403  3.1053  1.2364  1.1290
  779MOL0     H 5154  11.138   3.536   3.236  0.1140  0.8093 -0.0234
  779MOL0     H 5155  11.078   3.773   3.288 -0.3683 -1.3575 -2.1267
  779MOL0     H 5156  11.182   3.763   3.162 -0.6379 -1.9754 -0.3417
  779MOL0     H 5157  11.382   3.813   3.305  0.7866 -0.6096  0.6918
  779MOL0     H 5158  11.289   3.780   3.455 -0.4884  0.7723  0.3252
  779MOL0     H 5159  11.203   4.031   3.295  1.0786  1.1766  0.9588
  779MOL0     H 5160  11.165   3.979   3.453  0.3386  0.4464  0.4853
  779MOL0     H 5161  11.498   4.218   3.479 -1.5891  2.3036 -2.1412
  779MOL0     H 5162  11.129   3.347   3.350 -0.5457 -1.0460 -1.1041
  779MOL0     H 5163  11.118   3.012   3.279 -1.3926 -0.6381  1.7840
  779MOL0     H 5164  11.119   3.062   3.453  4.2872 -0.4397  0.6852
  779MOL0     H 5165  11.032   3.152   3.337  0.1143  1.2008  0.8261
  780MOL0     O 5166  10.695   6.399   7.251  0.6955 -0.2444 -0.3629
  780MOL0     C 5167  10.673   6.302   7.328 -0.4653 -0.2252 -0.1160
  780MOL0     O 5168  10.555   6.249   7.355 -0.0015 -0.4711  0.5288
  780MOL0     C 5169  10.441   6.318   7.320 -0.2700 -0.1738  0.1182
  780MOL0     C 5170  10.356   6.249   7.241  0.4877  1.3854 -0.4454
  780MOL0     C 5171  10.230   6.298   7.203 -0.0765  0.2049  1.0215
  780MOL0     C 5172  10.201   6.432   7.228 -0.2404  0.5161  0.5424
  780MOL0     O 5173  10.080   6.487   7.194 -1.1488 -0.0183  0.4543
  780MOL0     C 5174  10.072   6.483   7.047 -0.4465 -0.3141 -0.5061
  780MOL0     C 5175  10.014   6.624   7.012  0.3902  0.5326 -0.1294
  780MOL0     C 5176   9.861   6.635   7.016  0.1405 -0.4628  0.2718
  780MOL0     C 5177   9.777   6.529   6.945 -0.4269  0.3221 -0.8534
  780MOL0     C 5178   9.647   6.600   6.906 -0.6971  0.6919  0.9995
  780MOL0     C 5179   9.542   6.481   6.870 -0.2513 -0.0169  0.0900
  780MOL0     C 5180   9.410   6.549   6.873 -0.2213  0.2096  0.0439
  780MOL0     C 5181   9.302   6.443   6.824 -0.0824 -0.9499  0.1633
  780MOL0     N 5182   9.339   6.402   6.682  0.9587  1.1915  0.3291
  780MOL0     C 5183   9.341   6.490   6.576  0.3638  0.6956 -0.1137
  780MOL0     C 5184   9.401   6.422   6.473 -0.4771 -0.0133  0.5329
  780MOL0     C 5185   9.429   6.493   6.336  0.6976 -0.0978 -0.1265
  780MOL0     C 5186   9.521   6.415   6.245  0.3166  0.9182  0.6570
  780MOL0     C 5187   9.544   6.494   6.115  0.1822  0.3204 -0.1250
  780MOL0     C 5188   9.636   6.397   6.039  0.0746  0.2913 -0.4839
  780MOL0     O 5189   9.550   6.291   5.988  0.6164 -0.6454 -0.1697
  780MOL0     C 5190   9.612   6.203   5.902  0.6029 -0.2840 -0.0980
  780MOL0     C 5191   9.750   6.173   5.908  0.3460 -0.3418 -0.4659
  780MOL0     C 5192   9.815   6.071   5.834  0.1208 -0.1872 -0.3374
  780MOL0     C 5193   9.735   5.985   5.759 -0.7140 -0.4749 -0.3577
  780MOL0     C 5194   9.795   5.866   5.692  0.1878 -0.2134  0.1831
  780MOL0     O 5195   9.930   5.863   5.671 -0.3623  0.3668  0.8049
  780MOL0     C 5196   9.995   5.776   5.587  0.4208  0.2355  0.1313
  780MOL0     C 5197   9.930   5.700   5.489  0.8532 -0.1216  0.3108
  780MOL0     C 5198  10.007   5.625   5.404  0.4975  0.0382 -0.3683
  780MOL0     C 5199  10.147   5.629   5.401 -0.0132  0.0149 -1.1724
  780MOL0     O 5200  10.235   5.561   5.319 -0.2979 -0.2899 -0.0974
  780MOL0     C 5201  10.184   5.453   5.235  0.2477  0.9971 -0.0011
  780MOL0     C 5202  10.167   5.318   5.306  0.0035 -0.1635 -0.0151
  780MOL0     C 5203  10.295   5.240   5.345  0.3140 -0.7957  0.2227
  780MOL0     C 5204  10.280   5.082   5.361  0.3462 -0.3318  0.1544
  780MOL0     C 5205  10.413   5.010   5.390 -0.2637  1.0723 -0.0234
  780MOL0     C 5206  10.526   5.027   5.273  0.2945  1.1340 -0.5732
  780MOL0     C 5207  10.628   4.912   5.267 -0.4937 -0.2599 -0.1304
  780MOL0     C 5208  10.569   4.804   5.183 -0.0292 -0.0680 -0.2389
  780MOL0    Cl 5209  10.645   4.649   5.218  0.3961 -0.3058 -0.3273
  780MOL0     C 5210  10.212   5.710   5.492 -0.5306 -0.3172 -0.0359
  780MOL0     C 5211  10.137   5.797   5.579 -0.7479  0.7070  0.5969
  780MOL0     O 5212   9.710   5.783   5.652 -0.5077 -0.4107 -0.4038
  780MOL0     C 5213   9.595   6.009   5.751  0.2305 -0.6118  0.1273
  780MOL0     C 5214   9.535   6.118   5.818 -0.2232 -0.3602  0.1820
  780MOL0     N 5215   9.412   6.289   6.518 -0.2729  0.4574  0.2501
  780MOL0     N 5216   9.375   6.276   6.641  0.8447  0.4251 -0.2963
  780MOL0     C 5217  10.286   6.507   7.308 -1.4987  0.6559  0.2376
  780MOL0     C 5218  10.413   6.451   7.351 -0.7227 -0.5932 -0.3762
  780MOL0     C 5219  10.790   6.228   7.386  0.8285 -0.4878 -0.3491
  780MOL0     C 5220  10.768   6.132   7.491 -0.0277  0.5842 -0.3897
  780MOL0     C 5221  10.874   6.072   7.569  0.2648 -0.3718  0.3280
  780MOL0     C 5222  11.012   6.096   7.537 -0.6608 -0.2677 -0.3613
  780MOL0     O 5223  11.120   6.040   7.607 -0.3517 -0.7211  0.8606
  780MOL0     C 5224  11.224   5.969   7.529 -1.0092 -0.1541  0.2788
  780MOL0     C 5225  11.148   5.839   7.508  0.3710 -0.5113  0.0254
  780MOL0     C 5226  11.252   5.743   7.435  0.3982 -0.2240 -1.1645
  780MOL0     C 5227  11.244   5.766   7.281  0.8707  0.1268  0.7396
  780MOL0     C 5228  11.370   5.731   7.219  0.0950  0.4969 -0.2628
  780MOL0     C 5229  11.469   5.714   7.147  0.8194  0.1290  0.2501
  780MOL0     C 5230  11.033   6.168   7.410  0.3398  1.0068  0.5013
  780MOL0     C 5231  10.926   6.222   7.340  0.0721  0.1790 -0.3225
  780MOL0     C 5232  10.967   6.286   7.208 -0.0265  0.9111 -0.1634
  780MOL0     H 5233  10.386   6.150   7.208  1.2475  1.7237 -0.7820
  780MOL0     H 5234  10.149   6.244   7.155  0.5712 -1.8412  2.0934
  780MOL0     H 5235  10.170   6.472   7.000  0.2219 -1.7236  1.0969
  780MOL0     H 5236  10.010   6.403   7.007  1.3901 -3.2052  2.0097
  780MOL0     H 5237  10.046   6.658   6.913 -2.4186  2.7055 -0.4182
  780MOL0     H 5238  10.040   6.699   7.088 -2.3172  0.4429  1.0105
  780MOL0     H 5239   9.836   6.733   6.974  0.6588 -0.8639 -1.0188
  780MOL0     H 5240   9.846   6.636   7.125 -1.9893  1.5837  0.0439
  780MOL0     H 5241   9.825   6.500   6.851 -0.8266  0.3552 -1.0682
  780MOL0     H 5242   9.767   6.441   7.010  2.1019  0.6862  0.1270
  780MOL0     H 5243   9.622   6.652   6.999  4.6536 -0.6267  3.5238
  780MOL0     H 5244   9.664   6.665   6.820 -1.3220  0.2914  0.5647
  780MOL0     H 5245   9.569   6.444   6.771  0.3624  1.4543 -0.3206
  780MOL0     H 5246   9.547   6.393   6.934  2.7105 -0.0949 -0.1209
  780MOL0     H 5247   9.413   6.632   6.803 -3.8322  1.2126  0.8750
  780MOL0     H 5248   9.393   6.586   6.974  4.5496 -0.5242  1.3642
  780MOL0     H 5249   9.302   6.354   6.889 -1.9221 -0.3389  1.0680
  780MOL0     H 5250   9.204   6.490   6.840  0.2241 -0.3122  0.1761
  780MOL0     H 5251   9.291   6.586   6.576  0.6253  0.9012  2.2510
  780MOL0     H 5252   9.334   6.490   6.280  1.1874 -1.2201 -0.9326
  780MOL0     H 5253   9.450   6.598   6.360 -0.3984 -0.7089  4.4301
  780MOL0     H 5254   9.616   6.390   6.293  1.1981 -0.1470 -1.4683
  780MOL0     H 5255   9.477   6.318   6.216 -2.5446  2.0595  0.8094
  780MOL0     H 5256   9.592   6.590   6.136 -1.2919  0.7634  1.3458
  780MOL0     H 5257   9.453   6.515   6.058  0.0005 -2.4363 -0.9828
  780MOL0     H 5258   9.712   6.357   6.107  2.5461  1.4631 -2.3811
  780MOL0     H 5259   9.689   6.446   5.957 -1.4340 -1.3653 -2.5543
  780MOL0     H 5260   9.820   6.226   5.972  0.0060 -0.5195  0.0584
  780MOL0     H 5261   9.922   6.059   5.847  0.1680  1.6641  1.6986
  780MOL0     H 5262   9.823   5.682   5.492  1.1333 -1.8249  3.0927
  780MOL0     H 5263   9.951   5.554   5.343 -0.4137 -0.8909  1.4578
  780MOL0     H 5264  10.097   5.496   5.186 -0.0004 -1.8200 -2.3381
  780MOL0     H 5265  10.245   5.426   5.148 -1.3773  0.0436 -0.8856
  780MOL0     H 5266  10.115   5.335   5.401  1.7614  1.6395  0.7254
  780MOL0     H 5267  10.110   5.250   5.244 -2.1736  2.1439 -0.7014
  780MOL0     H 5268  10.362   5.254   5.260  2.4819  1.0394  2.0884
  780MOL0     H 5269  10.345   5.282   5.433 -0.3452 -1.5668  0.9919
  780MOL0     H 5270  10.222   5.049   5.275 -3.2786  5.0031  0.1046
  780MOL0     H 5271  10.222   5.069   5.453  0.8265 -1.0122  0.3722
  780MOL0     H 5272  10.388   4.904   5.397  1.8229  0.5300  0.0233
  780MOL0     H 5273  10.461   5.044   5.483 -0.8141 -1.4753  1.2835
  780MOL0     H 5274  10.481   5.039   5.174 -0.7810  0.0716 -0.2395
  780MOL0     H 5275  10.593   5.108   5.303  0.2447 -0.3176  4.5143
  780MOL0     H 5276  10.655   4.879   5.368 -2.0447 -0.2840  0.3103
  780MOL0     H 5277  10.716   4.952   5.216 -0.5436 -1.9751 -1.6586
  780MOL0     H 5278  10.463   4.785   5.204 -0.0753 -0.0918 -0.4942
  780MOL0     H 5279  10.579   4.823   5.076  2.1486 -3.3039 -0.7505
  780MOL0     H 5280  10.320   5.719   5.495 -0.6131  0.5986  0.4641
  780MOL0     H 5281  10.184   5.873   5.640  1.9666  1.0751 -1.7660
  780MOL0     H 5282   9.519   5.945   5.707 -0.0518 -0.9816  1.1125
  780MOL0     H 5283   9.428   6.124   5.803 -0.5560 -1.8727  1.5385
  780MOL0     H 5284  10.257   6.608   7.334 -0.4312  0.7712  1.0648
  780MOL0     H 5285  10.482   6.525   7.393 -1.8698  0.7623 -0.8055
  780MOL0     H 5286  10.667   6.122   7.532 -0.2740 -2.5265 -1.5330
  780MOL0     H 5287  10.859   6.014   7.660  0.4048  0.0571  0.6239
  780MOL0     H 5288  11.322   5.958   7.576 -1.6704  2.7491  2.6152
  780MOL0     H 5289  11.237   6.018   7.432  1.9977  2.4460  1.8143
  780MOL0     H 5290  11.059   5.847   7.446  0.4162 -2.3873 -0.3380
  780MOL0     H 5291  11.111   5.813   7.608 -0.4852  0.7340  0.0567
  780MOL0     H 5292  11.219   5.645   7.472 -1.9830  1.2080  0.8969
  780MOL0     H 5293  11.355   5.760   7.467 -0.1868  0.1502  0.6370
  780MOL0     H 5294  11.154   5.723   7.236  0.5893  1.8851 -0.4913
  780MOL0     H 5295  11.225   5.872   7.261  0.4320 -0.0517  0.1792
  780MOL0     H 5296  11.537   5.702   7.065 -0.9829  1.6150 -1.5681
  780MOL0     H 5297  11.124   6.166   7.351 -0.4156  0.1539 -0.6961
  780MOL0     H 5298  10.968   6.395   7.216 -4.6651  1.0106  3.4361
  780MOL0     H 5299  11.062   6.252   7.165  0.9163  1.7144  1.1776
  780MOL0     H 5300  10.902   6.258   7.126 -0.3710 -1.5173  0.8400
  781MOL0     O 5301   9.663   0.231   7.519 -0.8338  0.4704  0.0189
  781MOL0     C 5302   9.641   0.348   7.537 -0.3151 -0.4856  0.6776
  781MOL0     O 5303   9.738   0.452   7.544 -0.0784 -0.6249 -0.4700
  781MOL0     C 5304   9.869   0.439   7.508 -0.0954 -0.0939 -0.6498
  781MOL0     C 5305   9.946   0.537   7.563  0.1092  0.7123 -0.0696
  781MOL0     C 5306  10.090   0.540   7.539  1.4335 -0.5464  0.4310
  781MOL0     C 5307  10.133   0.452   7.443  0.2529  0.0719 -1.2504
  781MOL0     O 5308  10.268   0.471   7.422 -0.0073  0.4699  0.0950
  781MOL0     C 5309  10.349   0.357   7.438  0.9565 -0.0995  0.1885
  781MOL0     C 5310  10.465   0.361   7.345 -0.7284 -0.0246  0.4171
  781MOL0     C 5311  10.568   0.468   7.371  0.6285 -0.2650  0.5625
  781MOL0     C 5312  10.638   0.483   7.236 -0.7599  0.9223  0.0367
  781MOL0     C 5313  10.789   0.516   7.256 -0.3216  0.2241  0.1408
  781MOL0     C 5314  10.858   0.533   7.119  0.8784  0.1670 -0.2563
  781MOL0     C 5315  10.985   0.610   7.131 -0.1308  0.1586  0.0785
  781MOL0     C 5316  10.948   0.761   7.152 -1.5372 -0.8273  0.8110
  781MOL0     N 5317  11.070   0.823   7.210 -0.4588  0.5765 -0.9766
  781MOL0     C 5318  11.148   0.903   7.136  0.9088 -0.3367  0.6174
  781MOL0     C 5319  11.216   0.982   7.221 -0.1032  0.5409  0.2319
  781MOL0     C 5320  11.315   1.092   7.182 -0.3474  0.7373  0.0493
  781MOL0     C 5321  11.246   1.212   7.115  0.6166  0.4767 -0.1686
  781MOL0     C 5322  11.241   1.339   7.199  0.0428  0.8097 -0.1185
  781MOL0     C 5323  11.351   1.432   7.202 -0.1401  0.2062 -0.3271
  781MOL0     O 5324  11.332   1.533   7.105  0.8617 -0.2401  0.1016
  781MOL0     C 5325  11.252   1.644   7.138 -0.3958  0.0965 -0.3854
  781MOL0     C 5326  11.220   1.735   7.036  0.8049 -0.8419  0.5005
  781MOL0     C 5327  11.135   1.845   7.062 -0.2341 -0.0292  0.5248
  781MOL0     C 5328  11.077   1.860   7.187  0.3751  0.1979 -0.5643
  781MOL0     C 5329  10.979   1.966   7.209  0.2180  1.2130  0.6187
  781MOL0     O 5330  10.948   2.002   7.330  0.0327 -0.2728  0.1430
  781MOL0     C 5331  10.844   2.091   7.355  0.3252 -0.1298  0.6857
  781MOL0     C 5332  10.712   2.056   7.337 -0.4242 -0.9869  0.0638
  781MOL0     C 5333  10.606   2.149   7.332 -0.1144  0.3271 -0.1343
  781MOL0     C 5334  10.649   2.287   7.324 -0.1222  0.6371 -0.0648
  781MOL0     O 5335  10.545   2.371   7.291 -0.1342 -0.0302 -0.3211
  781MOL0     C 5336  10.479   2.430   7.403  0.5313  0.5413  0.1762
  781MOL0     C 5337  10.343   2.502   7.356  0.1303 -0.1308  0.5004
  781MOL0     C 5338  10.281   2.588   7.459 -0.0559 -1.1566  1.0571
  781MOL0     C 5339  10.151   2.638   7.402  0.0459  0.7153  0.0994
  781MOL0     C 5340  10.076   2.745   7.492  0.1948  0.3153 -0.4119
  781MOL0     C 5341   9.997   2.851   7.427 -0.4227  0.3848 -0.0998
  781MOL0     C 5342   9.868   2.878   7.506  0.2657 -0.1142 -0.1362
  781MOL0     C 5343   9.800   3.019   7.463 -0.2137 -0.4438  0.3114
  781MOL0    Cl 5344   9.640   3.033   7.532 -0.1964  0.3123  0.2642
  781MOL0     C 5345  10.783   2.329   7.348  0.0892 -0.6353 -0.0558
  781MOL0     C 5346  10.879   2.226   7.372  0.2902 -0.4622 -0.2925
  781MOL0     O 5347  10.932   2.011   7.108 -0.2604 -0.2508  0.0345
  781MOL0     C 5348  11.123   1.769   7.293  0.4657 -0.7114  0.1123
  781MOL0     C 5349  11.210   1.667   7.269 -0.0730 -0.8472 -0.8272
  781MOL0     N 5350  11.176   0.949   7.351  0.1211 -0.5112  0.2033
  781MOL0     N 5351  11.101   0.851   7.341 -0.4947  0.8557 -0.1751
  781MOL0     C 5352  10.050   0.367   7.371 -0.5031 -0.9179 -0.0631
  781MOL0     C 5353   9.920   0.350   7.413 -1.0651 -0.5449  0.5152
  781MOL0     C 5354   9.501   0.375   7.568 -0.1216 -0.2128  0.7337
  781MOL0     C 5355   9.475   0.478   7.665  0.0475 -0.6316 -0.2278
  781MOL0     C 5356   9.348   0.506   7.724 -0.3340  0.5607  0.7796
  781MOL0     C 5357   9.237   0.437   7.667 -0.3310 -0.3157 -0.7970
  781MOL0     O 5358   9.106   0.429   7.704 -1.1003  0.5955 -0.7012
  781MOL0     C 5359   9.062   0.536   7.782  0.2794 -0.0745 -0.9751
  781MOL0     C 5360   8.915   0.568   7.750  0.4671  0.0770 -0.2424
  781MOL0     C 5361   8.835   0.639   7.861 -0.2627  0.8016 -0.3009
  781MOL0     C 5362   8.693   0.653   7.805  0.3188 -0.4568  0.6852
  781MOL0     C 5363   8.675   0.730   7.683 -0.0869  0.0175  0.3024
  781MOL0     C 5364   8.653   0.784   7.575  0.0539 -0.5100 -0.1223
  781MOL0     C 5365   9.255   0.339   7.561  0.3212 -0.6634 -0.9286
  781MOL0     C 5366   9.383   0.316   7.512 -0.2523  0.1939  0.4000
  781MOL0     C 5367   9.405   0.241   7.387 -0.0712 -0.6867  0.1350
  781MOL0     H 5368   9.907   0.592   7.648  0.1628 -2.6512  2.3084
  781MOL0     H 5369  10.166   0.604   7.583  3.9736 -2.4221 -0.9494
  781MOL0     H 5370  10.393   0.341   7.537  1.0362 -0.1962  0.1378
  781MOL0     H 5371  10.298   0.261   7.426  2.6170 -0.7764 -2.0485
  781MOL0     H 5372  10.421   0.384   7.247  0.7039  1.9292  0.1599
  781MOL0     H 5373  10.523   0.269   7.350  0.2410  0.6289  1.7086
  781MOL0     H 5374  10.634   0.451   7.457  0.6104  3.0302  1.3801
  781MOL0     H 5375  10.511   0.559   7.393  1.9889  0.7120  0.1737
  781MOL0     H 5376  10.633   0.386   7.186  0.2623  0.2217  1.2270
  781MOL0     H 5377  10.583   0.555   7.175 -0.3991  2.9050  1.9094
  781MOL0     H 5378  10.814   0.603   7.316  2.8150  0.5832 -1.4706
  781MOL0     H 5379  10.832   0.428   7.304 -2.1025 -0.9518 -0.3151
  781MOL0     H 5380  10.869   0.437   7.067 -1.4260  1.5173 -3.6238
  781MOL0     H 5381  10.800   0.594   7.050 -0.4675 -1.4290 -0.5992
  781MOL0     H 5382  11.058   0.587   7.053  1.1347 -0.2930  1.3474
  781MOL0     H 5383  11.048   0.582   7.215 -1.0310 -0.5195  0.5503
  781MOL0     H 5384  10.907   0.818   7.068 -0.7745  0.3036  1.1780
  781MOL0     H 5385  10.869   0.775   7.226 -1.5217  3.2542  0.2735
  781MOL0     H 5386  11.144   0.912   7.028  2.6992 -0.5001  0.5126
  781MOL0     H 5387  11.375   1.097   7.273 -1.4336 -1.2382  0.9499
  781MOL0     H 5388  11.379   1.051   7.104 -0.9220  1.4092 -0.7920
  781MOL0     H 5389  11.299   1.228   7.021 -0.1206 -2.7200 -1.2436
  781MOL0     H 5390  11.142   1.186   7.093  0.9453 -0.8455 -0.2710
  781MOL0     H 5391  11.220   1.303   7.300 -0.5074  0.2553 -0.4199
  781MOL0     H 5392  11.161   1.402   7.160  0.2859  0.4622 -1.2373
  781MOL0     H 5393  11.448   1.382   7.198 -0.2972 -0.0278 -1.4523
  781MOL0     H 5394  11.357   1.476   7.302 -0.0601 -0.8874  0.1592
  781MOL0     H 5395  11.270   1.709   6.943  0.4529 -1.6441  0.5249
  781MOL0     H 5396  11.118   1.918   6.984  0.9999 -0.6103 -0.3196
  781MOL0     H 5397  10.697   1.949   7.331  0.5764 -1.4438  3.4859
  781MOL0     H 5398  10.500   2.125   7.326 -0.0834  0.0835  0.2484
  781MOL0     H 5399  10.449   2.352   7.474 -0.4408  1.0787  0.3754
  781MOL0     H 5400  10.540   2.507   7.452 -0.8237  0.9036  1.3813
  781MOL0     H 5401  10.363   2.563   7.268 -0.8732  1.0201  1.0459
  781MOL0     H 5402  10.278   2.421   7.320  1.0078 -0.9512  0.7153
  781MOL0     H 5403  10.272   2.528   7.550 -0.6199 -1.4876  0.7882
  781MOL0     H 5404  10.350   2.669   7.485  2.2648 -2.9286  0.6993
  781MOL0     H 5405  10.096   2.547   7.377  4.3405 -1.7873 -1.3574
  781MOL0     H 5406  10.166   2.682   7.303 -2.7361  4.8586  1.2716
  781MOL0     H 5407  10.152   2.803   7.545 -1.5718  2.5813 -0.2423
  781MOL0     H 5408  10.023   2.683   7.565  2.3944 -4.1240 -2.1526
  781MOL0     H 5409  10.052   2.946   7.429 -2.8657  1.8638  0.0333
  781MOL0     H 5410   9.966   2.823   7.326 -1.4125 -1.0909  0.5855
  781MOL0     H 5411   9.885   2.898   7.612  1.0789  1.0440 -0.4708
  781MOL0     H 5412   9.795   2.797   7.493 -1.2583  1.7137 -4.6548
  781MOL0     H 5413   9.870   3.102   7.479  1.3737 -1.5876 -0.3865
  781MOL0     H 5414   9.785   3.019   7.355  3.6782 -0.2749 -0.3933
  781MOL0     H 5415  10.806   2.435   7.351 -3.2659  0.2073  2.4537
  781MOL0     H 5416  10.985   2.247   7.378 -0.2366  2.9672 -0.9789
  781MOL0     H 5417  11.065   1.772   7.384 -0.7820 -3.1487 -0.5000
  781MOL0     H 5418  11.237   1.613   7.359 -1.2763  2.9877  2.1123
  781MOL0     H 5419  10.101   0.313   7.292 -1.2778 -3.7264  1.2227
  781MOL0     H 5420   9.861   0.269   7.372 -0.4645 -0.8403  0.2219
  781MOL0     H 5421   9.559   0.523   7.716  0.6227 -1.5622 -0.3357
  781MOL0     H 5422   9.352   0.580   7.803  1.7111  0.6106  0.7023
  781MOL0     H 5423   9.117   0.630   7.775  0.9303  0.0532  3.1354
  781MOL0     H 5424   9.064   0.516   7.890 -1.8898 -1.6379 -1.1470
  781MOL0     H 5425   8.861   0.478   7.722  1.6815 -0.7306 -0.0709
  781MOL0     H 5426   8.920   0.631   7.661 -0.9429 -0.7229 -0.9138
  781MOL0     H 5427   8.892   0.732   7.875  0.2951  0.7574 -2.0195
  781MOL0     H 5428   8.841   0.579   7.952 -0.0726 -0.1528 -0.9257
  781MOL0     H 5429   8.658   0.549   7.803 -0.4406 -0.2194  1.2300
  781MOL0     H 5430   8.639   0.699   7.889 -1.6674 -2.6045  0.6954
  781MOL0     H 5431   8.626   0.813   7.475  0.1327 -3.0993 -0.9537
  781MOL0     H 5432   9.165   0.293   7.520 -0.5661 -0.4309  0.6708
  781MOL0     H 5433   9.432   0.319   7.315  0.8618 -1.1446 -0.0250
  781MOL0     H 5434   9.489   0.172   7.389  0.4678 -0.0439  2.3787
  781MOL0     H 5435   9.320   0.180   7.353  2.2257 -2.6878 -2.5417
  782MOL0     O 5436  11.468   1.470   6.244 -0.3771  0.3432 -0.0282
  782MOL0     C 5437  11.466   1.415   6.135 -0.5530 -0.2284  1.1703
  782MOL0     O 5438  11.574   1.395   6.049  0.0545  0.0323  0.1935
  782MOL0     C 5439  11.692   1.458   6.086  0.0042  0.4360 -0.3810
  782MOL0     C 5440  11.765   1.507   5.978  0.1829 -0.1858  0.4767
  782MOL0     C 5441  11.890   1.563   5.988 -0.3698 -0.1713  0.2489
  782MOL0     C 5442  11.949   1.584   6.117 -0.7899  0.0935  0.3338
  782MOL0     O 5443  12.068   1.652   6.134  0.3385 -0.5412 -0.2890
  782MOL0     C 5444  12.166   1.583   6.212 -0.8975 -0.7223 -0.7010
  782MOL0     C 5445  12.231   1.689   6.299  0.4065 -0.3900  0.8329
  782MOL0     C 5446  12.335   1.628   6.390 -0.2756 -0.9770 -0.5203
  782MOL0     C 5447  12.459   1.714   6.422 -0.1381 -0.1010 -0.5621
  782MOL0     C 5448  12.412   1.826   6.507 -0.8289 -1.1567  0.6469
  782MOL0     C 5449  12.519   1.921   6.575  0.2795  0.6443 -0.8440
  782MOL0     C 5450  12.597   2.003   6.466  0.1237 -0.3672 -0.2584
  782MOL0     C 5451  12.708   2.095   6.512  0.3992  0.1966  0.3992
  782MOL0     N 5452  12.785   2.173   6.407 -0.2543  0.6022  0.1347
  782MOL0     C 5453  12.803   2.309   6.433 -0.4861  0.6619  0.2408
  782MOL0     C 5454  12.892   2.345   6.332  0.6213 -0.1558  0.4362
  782MOL0     C 5455  12.958   2.476   6.315 -0.9413 -0.3122 -0.1054
  782MOL0     C 5456  12.926   2.557   6.188  0.6516  0.1645 -0.6571
  782MOL0     C 5457  12.976   2.498   6.060  0.0926  0.0442 -0.1115
  782MOL0     C 5458  13.124   2.506   6.045  0.3149  0.3932  1.0760
  782MOL0     O 5459  13.155   2.463   5.914 -0.4703 -0.9663 -0.0652
  782MOL0     C 5460  13.286   2.433   5.902 -0.4379  0.6510  0.1298
  782MOL0     C 5461  13.309   2.347   5.790 -0.5479 -0.4463 -0.4483
  782MOL0     C 5462  13.432   2.313   5.755 -0.0057  1.1509  0.9944
  782MOL0     C 5463  13.545   2.372   5.818 -0.7770  0.1878 -0.0433
  782MOL0     C 5464  13.687   2.340   5.779  1.1549  0.1129 -0.2655
  782MOL0     O 5465  13.709   2.214   5.743  0.5169  0.4264 -0.1073
  782MOL0     C 5466  13.834   2.163   5.728 -1.0125  0.5261  0.5496
  782MOL0     C 5467  13.939   2.232   5.662  0.6515  1.0323  0.5740
  782MOL0     C 5468  14.054   2.155   5.638  0.9345 -0.6959 -0.1983
  782MOL0     C 5469  14.076   2.027   5.685  1.5793 -0.1734 -0.8052
  782MOL0     O 5470  14.190   1.965   5.653  0.1477 -0.4589 -0.6623
  782MOL0     C 5471  14.296   2.033   5.717 -0.2841 -1.0146  0.4665
  782MOL0     C 5472  14.433   1.967   5.695  0.4121 -0.5800 -0.2753
  782MOL0     C 5473  14.553   2.045   5.762 -0.5927 -0.9600 -0.6391
  782MOL0     C 5474  14.578   2.173   5.677 -0.4527  0.8923  0.1089
  782MOL0     C 5475  14.704   2.242   5.729 -0.3287 -1.1281  1.2986
  782MOL0     C 5476  14.834   2.169   5.685 -0.8008 -0.1685 -0.2466
  782MOL0     C 5477  14.838   2.129   5.529  1.0096 -0.0045 -0.1730
  782MOL0     C 5478  14.981   2.121   5.473 -0.1752  0.1203 -0.4694
  782MOL0    Cl 5479  15.056   1.972   5.505  0.2123 -0.4326 -0.0213
  782MOL0     C 5480  13.973   1.966   5.759 -0.6018 -0.1336 -0.7509
  782MOL0     C 5481  13.850   2.033   5.772  0.1159  0.2727  0.0172
  782MOL0     O 5482  13.772   2.418   5.802  0.1061  0.4522  0.1738
  782MOL0     C 5483  13.519   2.452   5.934  0.5235  0.0129  0.0698
  782MOL0     C 5484  13.393   2.483   5.967  0.4672  0.1360 -0.1896
  782MOL0     N 5485  12.909   2.240   6.244 -0.4651  0.7536  0.3704
  782MOL0     N 5486  12.829   2.140   6.280 -0.1362  0.5744  0.4522
  782MOL0     C 5487  11.876   1.548   6.231 -0.4891  0.6092  0.0707
  782MOL0     C 5488  11.754   1.478   6.211 -0.2549 -0.4397 -0.0699
  782MOL0     C 5489  11.326   1.364   6.087 -0.0947 -0.2417 -0.0079
  782MOL0     C 5490  11.224   1.361   6.186 -0.4809  0.9270  0.1815
  782MOL0     C 5491  11.092   1.353   6.148 -0.1455  0.9751 -0.5821
  782MOL0     C 5492  11.057   1.345   6.014 -0.9152  0.3860 -0.1751
  782MOL0     O 5493  10.923   1.328   5.993  0.3430  0.2673 -0.2137
  782MOL0     C 5494  10.861   1.371   5.871 -0.6521  0.1272 -0.2304
  782MOL0     C 5495  10.843   1.527   5.882  0.1959 -0.1209 -0.8087
  782MOL0     C 5496  10.797   1.566   5.745 -0.1414 -0.3191 -0.1917
  782MOL0     C 5497  10.757   1.714   5.729 -0.0148 -0.4247  0.5958
  782MOL0     C 5498  10.695   1.775   5.852 -0.0941  0.2578 -0.6737
  782MOL0     C 5499  10.644   1.830   5.952 -0.7693  0.5901  0.0739
  782MOL0     C 5500  11.156   1.331   5.920  0.0099  0.3848  0.3283
  782MOL0     C 5501  11.288   1.350   5.952  0.7630  0.1407 -1.0777
  782MOL0     C 5502  11.377   1.388   5.833  1.2039  1.2056  0.0801
  782MOL0     H 5503  11.735   1.503   5.874  3.1407 -0.0511 -0.4477
  782MOL0     H 5504  11.942   1.602   5.901  1.4028  0.3926  1.4990
  782MOL0     H 5505  12.113   1.513   6.277 -0.6471 -1.8430 -1.6521
  782MOL0     H 5506  12.244   1.538   6.149  0.8694  1.7813 -0.4623
  782MOL0     H 5507  12.149   1.739   6.352 -1.2140 -2.6542  0.5808
  782MOL0     H 5508  12.279   1.762   6.234  0.2544  1.5932  2.8019
  782MOL0     H 5509  12.377   1.532   6.357 -2.1378 -1.1590 -2.6029
  782MOL0     H 5510  12.275   1.613   6.480 -1.9332  0.3230 -1.3636
  782MOL0     H 5511  12.525   1.659   6.489 -0.2548  0.8275  0.3371
  782MOL0     H 5512  12.518   1.729   6.330  1.8760  0.5771  0.7632
  782MOL0     H 5513  12.364   1.898   6.440  5.2778  3.3343  0.2480
  782MOL0     H 5514  12.343   1.801   6.588 -0.4839 -0.6603  1.1047
  782MOL0     H 5515  12.477   1.995   6.644  3.6646  1.0087  1.0191
  782MOL0     H 5516  12.595   1.860   6.626 -0.6218 -2.2393 -2.7133
  782MOL0     H 5517  12.528   2.072   6.415 -0.7007 -0.1390  1.0769
  782MOL0     H 5518  12.629   1.935   6.388 -5.2111 -0.9366 -2.4025
  782MOL0     H 5519  12.651   2.177   6.557 -0.5174 -1.0793  1.5974
  782MOL0     H 5520  12.775   2.041   6.579  1.7324 -1.1773 -1.8885
  782MOL0     H 5521  12.773   2.367   6.519  1.1833  0.2052  1.1648
  782MOL0     H 5522  12.930   2.547   6.393 -3.4561  0.7319 -1.8458
  782MOL0     H 5523  13.067   2.464   6.321 -0.6958  1.8981  1.4246
  782MOL0     H 5524  12.819   2.578   6.182  0.9809  1.6785 -1.6568
  782MOL0     H 5525  12.964   2.659   6.190  1.0813  0.1130 -3.1532
  782MOL0     H 5526  12.938   2.565   5.982  2.2596  2.2888  0.6368
  782MOL0     H 5527  12.940   2.396   6.044  2.6087 -1.6392  3.5966
  782MOL0     H 5528  13.171   2.453   6.129 -0.5158 -2.2854 -0.0438
  782MOL0     H 5529  13.145   2.613   6.055 -0.6416  0.5581  1.4855
  782MOL0     H 5530  13.238   2.284   5.736 -0.6488 -1.9030  1.2787
  782MOL0     H 5531  13.451   2.255   5.665  2.8001 -1.0655  2.8177
  782MOL0     H 5532  13.931   2.331   5.619 -0.4856  0.4767 -0.5402
  782MOL0     H 5533  14.138   2.204   5.589  0.8526 -2.1711 -1.9668
  782MOL0     H 5534  14.304   2.138   5.688 -3.0239 -0.5184  1.2058
  782MOL0     H 5535  14.284   2.040   5.826 -0.6486 -0.9919  0.4259
  782MOL0     H 5536  14.428   1.861   5.721  0.4067 -0.7827 -1.0527
  782MOL0     H 5537  14.441   1.958   5.586 -1.9036  2.1653 -0.8205
  782MOL0     H 5538  14.540   2.075   5.866  1.9547  3.0128 -1.2462
  782MOL0     H 5539  14.643   1.982   5.761  0.9002  0.8590  2.4970
  782MOL0     H 5540  14.500   2.250   5.690 -0.5570  0.6568  0.9785
  782MOL0     H 5541  14.580   2.142   5.572  1.5971 -1.2690  0.6974
  782MOL0     H 5542  14.715   2.253   5.837  0.7815  1.5534  0.9768
  782MOL0     H 5543  14.705   2.344   5.690 -1.5129 -0.5658  2.6418
  782MOL0     H 5544  14.903   2.253   5.694  0.0281 -0.1124 -4.7583
  782MOL0     H 5545  14.858   2.080   5.744 -2.3355  0.9863  2.3037
  782MOL0     H 5546  14.783   2.199   5.466  1.0259 -0.8686 -1.1785
  782MOL0     H 5547  14.789   2.034   5.503  0.4240  0.9284 -2.6960
  782MOL0     H 5548  14.985   2.123   5.363 -1.6733 -2.7713 -0.6754
  782MOL0     H 5549  15.025   2.214   5.510 -2.4400  2.0574 -2.3150
  782MOL0     H 5550  13.994   1.870   5.804 -1.5797  0.8019  1.9391
  782MOL0     H 5551  13.768   1.971   5.807  1.5491 -0.1530  2.9495
  782MOL0     H 5552  13.602   2.498   5.988  1.4280 -0.3288 -1.0051
  782MOL0     H 5553  13.371   2.548   6.051  1.4457 -0.1546  0.3101
  782MOL0     H 5554  11.916   1.543   6.331  1.1685  2.2820 -0.4567
  782MOL0     H 5555  11.708   1.446   6.305  3.0544  2.7273  2.9520
  782MOL0     H 5556  11.250   1.352   6.291 -0.0681  0.8799  0.0753
  782MOL0     H 5557  11.004   1.355   6.212 -2.0434 -0.9698 -2.9030
  782MOL0     H 5558  10.769   1.314   5.855  0.4512 -2.0074  0.6170
  782MOL0     H 5559  10.925   1.354   5.785  0.7396  1.1002  0.5671
  782MOL0     H 5560  10.933   1.575   5.922 -0.1570 -1.3419  1.6518
  782MOL0     H 5561  10.765   1.545   5.957 -0.4272 -0.4841 -1.3628
  782MOL0     H 5562  10.701   1.515   5.732 -0.0409 -0.2031 -1.6013
  782MOL0     H 5563  10.860   1.550   5.656 -1.4211  2.7051 -1.7874
  782MOL0     H 5564  10.836   1.778   5.689 -0.7997  0.1938  0.0193
  782MOL0     H 5565  10.674   1.719   5.658 -0.3115 -4.3298  0.4470
  782MOL0     H 5566  10.591   1.860   6.040 -0.0675  4.0227 -0.5253
  782MOL0     H 5567  11.121   1.309   5.819  0.1328  1.8985 -0.0775
  782MOL0     H 5568  11.440   1.299   5.821  2.1711  1.3911  2.9274
  782MOL0     H 5569  11.333   1.419   5.738 -0.0668  3.3895  1.3154
  782MOL0     H 5570  11.426   1.481   5.866 -1.1078  1.7054  2.4829
  783MOL0     O 5571   7.294   5.067   5.223  0.1792 -0.5139  0.1224
  783MOL0     C 5572   7.315   5.189   5.224 -0.8292  0.1346  0.3096
  783MOL0     O 5573   7.346   5.257   5.111  0.0077  1.2007 -0.2232
  783MOL0     C 5574   7.307   5.209   4.989 -0.5893 -0.7571  1.1142
  783MOL0     C 5575   7.202   5.278   4.914 -0.5588 -0.0127  0.4353
  783MOL0     C 5576   7.164   5.233   4.787  0.3531  1.3625 -0.4619
  783MOL0     C 5577   7.227   5.112   4.739  0.5023  0.2169  0.9182
  783MOL0     O 5578   7.222   5.070   4.606 -0.4880 -0.4183  0.4070
  783MOL0     C 5579   7.107   5.086   4.532  0.1845 -0.6159  1.3322
  783MOL0     C 5580   7.115   5.001   4.407  1.1923 -0.2944  0.5025
  783MOL0     C 5581   7.234   5.036   4.315  0.5256  0.1273 -0.6838
  783MOL0     C 5582   7.217   4.950   4.192 -0.1147  0.7126  0.4383
  783MOL0     C 5583   7.316   5.003   4.077 -0.7534 -0.3166  0.2786
  783MOL0     C 5584   7.269   4.921   3.954  0.1308 -0.0583 -0.5586
  783MOL0     C 5585   7.272   4.762   3.970  0.3926 -0.3549 -0.1668
  783MOL0     C 5586   7.248   4.703   3.830  0.0445  0.4354 -0.0790
  783MOL0     N 5587   7.206   4.560   3.850  0.3093 -0.2464 -0.6749
  783MOL0     C 5588   7.077   4.520   3.839  0.6530 -0.4282 -0.8777
  783MOL0     C 5589   7.082   4.389   3.869  0.6023  0.6905  0.0505
  783MOL0     C 5590   6.956   4.294   3.876 -0.0691  0.3179  0.0301
  783MOL0     C 5591   6.895   4.305   4.013  0.6890  0.2756  0.2389
  783MOL0     C 5592   6.798   4.191   4.043  0.5652 -0.6451  0.7086
  783MOL0     C 5593   6.758   4.196   4.192  0.9935 -0.1318  0.1469
  783MOL0     O 5594   6.873   4.174   4.276  0.1099 -0.0652 -0.6563
  783MOL0     C 5595   6.850   4.186   4.411  0.6975  0.1820  0.2429
  783MOL0     C 5596   6.762   4.275   4.477  0.3390  0.6006  0.9441
  783MOL0     C 5597   6.748   4.281   4.605  0.6588 -0.7594 -0.9985
  783MOL0     C 5598   6.834   4.199   4.683  0.3902  0.3339 -0.4347
  783MOL0     C 5599   6.816   4.212   4.836  0.0942  0.6405 -0.5325
  783MOL0     O 5600   6.889   4.129   4.908  0.1235 -0.1746 -0.2676
  783MOL0     C 5601   6.907   4.162   5.049 -0.9938  0.0183 -0.4197
  783MOL0     C 5602   6.865   4.066   5.142 -0.1945  1.0816  0.3520
  783MOL0     C 5603   6.885   4.079   5.280 -1.0063 -0.2187  0.6572
  783MOL0     C 5604   6.927   4.202   5.333 -0.0409 -0.0698 -0.1825
  783MOL0     O 5605   6.936   4.237   5.464 -0.5257  0.3747 -0.1337
  783MOL0     C 5606   6.904   4.127   5.553  0.2419 -0.2798  0.3234
  783MOL0     C 5607   6.892   4.195   5.693  0.6617  0.1785  0.1893
  783MOL0     C 5608   6.823   4.110   5.791 -1.0642  0.0619 -0.2078
  783MOL0     C 5609   6.829   4.165   5.935  0.7937 -0.1687 -1.1085
  783MOL0     C 5610   6.748   4.094   6.043 -0.3412  1.0012  0.2455
  783MOL0     C 5611   6.720   4.170   6.169 -0.9454  0.7006 -0.6141
  783MOL0     C 5612   6.687   4.056   6.270 -0.2684 -0.0932 -0.6476
  783MOL0     C 5613   6.718   4.086   6.415 -0.4430  0.8313  0.1299
  783MOL0    Cl 5614   6.647   3.956   6.516 -0.2123 -0.0036  0.6900
  783MOL0     C 5615   6.990   4.296   5.245 -0.6611  0.2119  0.5537
  783MOL0     C 5616   6.978   4.273   5.109  0.4725  0.4411  0.1005
  783MOL0     O 5617   6.729   4.285   4.886 -0.1444 -0.3331  0.4379
  783MOL0     C 5618   6.922   4.109   4.623  0.7736 -0.0813  0.0306
  783MOL0     C 5619   6.925   4.099   4.485  0.0303  0.7038  1.1391
  783MOL0     N 5620   7.209   4.351   3.915  0.5761 -0.5458 -0.0024
  783MOL0     N 5621   7.285   4.453   3.882  0.5647  0.1261  0.0232
  783MOL0     C 5622   7.309   5.031   4.821  0.3563  0.2454  0.0608
  783MOL0     C 5623   7.354   5.086   4.938 -0.7574  0.3376 -0.6735
  783MOL0     C 5624   7.349   5.251   5.343  0.6819 -0.0793  0.6719
  783MOL0     C 5625   7.431   5.175   5.424 -0.7126 -0.8452 -0.3156
  783MOL0     C 5626   7.467   5.224   5.551 -0.7208 -0.4496  1.0105
  783MOL0     C 5627   7.440   5.353   5.587  0.2009  0.4274 -0.2424
  783MOL0     O 5628   7.491   5.417   5.688 -0.4267 -0.8271 -0.0362
  783MOL0     C 5629   7.434   5.381   5.815 -0.5238 -0.6282 -0.3304
  783MOL0     C 5630   7.544   5.402   5.930  0.7592 -0.1906 -0.2806
  783MOL0     C 5631   7.666   5.299   5.914  0.7732 -0.1544 -0.1734
  783MOL0     C 5632   7.635   5.149   5.923  0.1853 -0.3043 -0.5787
  783MOL0     C 5633   7.557   5.137   6.047  0.5404 -0.0291 -0.0207
  783MOL0     C 5634   7.480   5.124   6.138  0.6636 -0.2306  1.0841
  783MOL0     C 5635   7.370   5.429   5.498  0.4884  0.7234 -0.3409
  783MOL0     C 5636   7.322   5.384   5.375  0.6367  0.5574 -0.4577
  783MOL0     C 5637   7.225   5.470   5.294 -0.3642 -0.7222  0.2828
  783MOL0     H 5638   7.147   5.358   4.963  0.0614 -0.2862  1.5986
  783MOL0     H 5639   7.090   5.289   4.731 -1.3982  0.9153  1.2790
  783MOL0     H 5640   7.017   5.072   4.593 -2.4401  0.7666 -1.9033
  783MOL0     H 5641   7.104   5.191   4.503 -1.4465 -1.2019 -0.9247
  783MOL0     H 5642   7.021   4.991   4.351  1.5698 -0.9929 -0.0265
  783MOL0     H 5643   7.131   4.903   4.453 -4.3907 -1.4349  0.7156
  783MOL0     H 5644   7.330   5.015   4.362  0.7334  0.9500 -0.7163
  783MOL0     H 5645   7.240   5.143   4.291  0.5104  0.3230  0.1709
  783MOL0     H 5646   7.236   4.848   4.226  1.0158 -0.0682 -2.2071
  783MOL0     H 5647   7.118   4.964   4.148 -0.0196 -0.1811 -0.0882
  783MOL0     H 5648   7.285   5.107   4.062 -1.3160 -0.6821 -1.4232
  783MOL0     H 5649   7.424   4.996   4.089 -0.3328  0.9993 -2.0414
  783MOL0     H 5650   7.162   4.945   3.943 -0.3924 -0.6165  2.4233
  783MOL0     H 5651   7.326   4.962   3.870  1.1696  0.5893  0.4447
  783MOL0     H 5652   7.187   4.732   4.031 -1.0502  1.3368 -1.2370
  783MOL0     H 5653   7.362   4.730   4.024 -0.1927  1.8020  2.2648
  783MOL0     H 5654   7.174   4.758   3.770  2.0092  0.7176 -2.3770
  783MOL0     H 5655   7.340   4.710   3.772  0.4995  0.2066  0.6084
  783MOL0     H 5656   6.993   4.581   3.808 -1.4402 -1.5967  2.0338
  783MOL0     H 5657   6.891   4.338   3.800  3.8292  1.4791 -3.0103
  783MOL0     H 5658   6.975   4.190   3.849  0.9314  0.3595  0.5217
  783MOL0     H 5659   6.982   4.301   4.078  2.5079 -1.0833 -2.1244
  783MOL0     H 5660   6.838   4.399   4.004  1.4650  0.8017  0.7038
  783MOL0     H 5661   6.827   4.093   4.006 -2.7262 -0.1139 -4.1821
  783MOL0     H 5662   6.708   4.210   3.983  1.7657  1.7175 -0.4868
  783MOL0     H 5663   6.695   4.108   4.208  1.1314 -0.2441  0.0663
  783MOL0     H 5664   6.696   4.279   4.226  0.6991 -1.0561  1.9769
  783MOL0     H 5665   6.709   4.355   4.424 -1.8431 -0.5459  1.2965
  783MOL0     H 5666   6.668   4.346   4.639  1.6023  0.1990 -0.5015
  783MOL0     H 5667   6.808   3.978   5.112  0.0990 -0.0013  2.7420
  783MOL0     H 5668   6.846   3.999   5.343 -3.0802 -0.2030 -0.5081
  783MOL0     H 5669   6.807   4.081   5.535  0.8005 -1.2813 -0.2155
  783MOL0     H 5670   6.984   4.052   5.546  2.3983  1.7458  1.6859
  783MOL0     H 5671   6.984   4.238   5.734  2.0792 -0.8467 -1.7363
  783MOL0     H 5672   6.820   4.276   5.676 -2.1316 -2.4192 -1.5041
  783MOL0     H 5673   6.717   4.101   5.764 -1.4475 -0.0607  1.2250
  783MOL0     H 5674   6.880   4.017   5.787  1.5752  1.4534  1.8209
  783MOL0     H 5675   6.797   4.269   5.927  0.8992 -0.0727 -0.3542
  783MOL0     H 5676   6.936   4.162   5.957  1.2596 -1.4558 -3.2705
  783MOL0     H 5677   6.787   3.993   6.054  1.5637  1.7101  0.4658
  783MOL0     H 5678   6.644   4.077   6.014 -0.1922 -1.5068  0.9317
  783MOL0     H 5679   6.806   4.227   6.205  0.3883 -1.2993 -0.4349
  783MOL0     H 5680   6.631   4.234   6.168 -2.0173 -0.6199  1.6786
  783MOL0     H 5681   6.746   3.965   6.259 -1.9823 -1.4631  0.8191
  783MOL0     H 5682   6.583   4.024   6.265 -0.1697 -1.0220  1.9756
  783MOL0     H 5683   6.827   4.088   6.423  0.0724  2.8692 -4.1548
  783MOL0     H 5684   6.663   4.178   6.439  1.1081  2.5972 -2.5411
  783MOL0     H 5685   7.016   4.389   5.295 -0.0415  0.4339 -0.1560
  783MOL0     H 5686   7.022   4.346   5.042  0.1475  0.9929  0.4789
  783MOL0     H 5687   6.993   4.051   4.681  2.0357 -0.3771 -1.7210
  783MOL0     H 5688   6.988   4.023   4.441 -0.3266 -0.3118  2.3440
  783MOL0     H 5689   7.345   4.932   4.794 -0.9828 -0.9194  2.3089
  783MOL0     H 5690   7.423   5.027   4.998  0.9775  3.0312  0.1572
  783MOL0     H 5691   7.459   5.074   5.394  4.2154  0.8348 -2.4823
  783MOL0     H 5692   7.540   5.178   5.617  0.2941  0.3494  0.4745
  783MOL0     H 5693   7.391   5.280   5.824  0.4277 -1.0671 -0.5366
  783MOL0     H 5694   7.351   5.451   5.829 -0.7213 -0.8670 -0.2923
  783MOL0     H 5695   7.500   5.407   6.030  1.2588  0.9733 -0.1028
  783MOL0     H 5696   7.581   5.503   5.913 -0.0773  0.2622  0.5370
  783MOL0     H 5697   7.732   5.334   5.994  0.0071  2.2064 -0.4664
  783MOL0     H 5698   7.727   5.332   5.829  2.8868 -0.2767  1.2266
  783MOL0     H 5699   7.562   5.114   5.849 -0.1191  2.3905 -1.6848
  783MOL0     H 5700   7.725   5.087   5.916  1.1727  1.2126 -2.4339
  783MOL0     H 5701   7.400   5.102   6.207 -0.6865 -0.0542 -0.3599
  783MOL0     H 5702   7.338   5.525   5.538 -0.2526  0.2714  0.1937
  783MOL0     H 5703   7.173   5.407   5.222  3.6698 -4.1251 -0.0159
  783MOL0     H 5704   7.150   5.525   5.352  2.0329  2.1073  0.9577
  783MOL0     H 5705   7.275   5.544   5.231  1.2558 -0.8127  1.3956
  784MOL0     O 5706   6.786   0.571   6.328  0.3019  0.2543  0.4678
  784MOL0     C 5707   6.815   0.678   6.267  0.4990 -0.5041  0.3202
  784MOL0     O 5708   6.768   0.713   6.150 -0.7926 -0.4697 -0.2016
  784MOL0     C 5709   6.691   0.620   6.083 -0.0260 -0.6920 -0.5226
  784MOL0     C 5710   6.573   0.665   6.044 -0.3787 -0.6422 -0.2071
  784MOL0     C 5711   6.481   0.587   5.973  0.1029  0.0905 -0.3891
  784MOL0     C 5712   6.522   0.457   5.929 -0.0483  0.7728  0.1286
  784MOL0     O 5713   6.445   0.366   5.865  0.4521  0.5534 -0.2271
  784MOL0     C 5714   6.337   0.410   5.777 -0.1851 -0.0164 -0.0478
  784MOL0     C 5715   6.362   0.358   5.642 -0.1166  0.3727  0.0477
  784MOL0     C 5716   6.236   0.292   5.580  0.4273 -0.6076  0.6734
  784MOL0     C 5717   6.122   0.397   5.544  0.7952 -0.1696 -0.0229
  784MOL0     C 5718   5.990   0.358   5.599 -1.0242  0.3753 -0.7977
  784MOL0     C 5719   5.863   0.405   5.521  0.5957  0.3697 -0.1212
  784MOL0     C 5720   5.841   0.563   5.526 -0.1819 -0.3800  0.5948
  784MOL0     C 5721   5.692   0.600   5.518  0.2547  0.2168 -0.1517
  784MOL0     N 5722   5.664   0.742   5.506 -0.4078 -0.5673  0.0900
  784MOL0     C 5723   5.675   0.823   5.388 -1.4070  1.2184 -0.9828
  784MOL0     C 5724   5.580   0.921   5.415  0.1954 -0.0365  0.9463
  784MOL0     C 5725   5.541   1.036   5.323  1.4637 -0.0218  0.3621
  784MOL0     C 5726   5.433   0.990   5.232  0.1719 -0.2308 -0.1061
  784MOL0     C 5727   5.401   1.097   5.129  0.0464 -0.7523  0.7019
  784MOL0     C 5728   5.268   1.058   5.065  1.5994 -0.7951  0.3883
  784MOL0     O 5729   5.148   1.075   5.146 -0.3382 -0.6753 -0.1719
  784MOL0     C 5730   5.046   0.983   5.123 -0.1527  0.6626  0.2512
  784MOL0     C 5731   4.939   1.019   5.045 -0.3329  0.7983  0.4096
  784MOL0     C 5732   4.841   0.928   5.017  0.5767 -0.1722 -0.0443
  784MOL0     C 5733   4.843   0.796   5.074 -0.0378  0.6890 -0.2700
  784MOL0     C 5734   4.739   0.685   5.044  0.3742  0.0289 -0.3939
  784MOL0     O 5735   4.682   0.702   4.919  0.0519 -0.1266 -0.6485
  784MOL0     C 5736   4.648   0.585   4.856 -0.0040  0.4862 -0.3737
  784MOL0     C 5737   4.703   0.563   4.742  0.7077 -0.6079 -0.3986
  784MOL0     C 5738   4.679   0.448   4.669  0.0625 -0.3207  0.5508
  784MOL0     C 5739   4.591   0.357   4.720 -0.3029 -0.3294  0.2723
  784MOL0     O 5740   4.570   0.238   4.663  0.5507 -0.8177 -0.3184
  784MOL0     C 5741   4.436   0.186   4.654 -0.5818  0.3320  0.3044
  784MOL0     C 5742   4.436   0.060   4.567 -0.9294  0.6231  0.7958
  784MOL0     C 5743   4.299  -0.002   4.536 -0.7124  0.2577  0.0620
  784MOL0     C 5744   4.311  -0.117   4.438  0.1580  0.7497  0.6161
  784MOL0     C 5745   4.163  -0.164   4.405 -0.1314 -0.1056 -0.6019
  784MOL0     C 5746   4.149  -0.232   4.274 -0.7580 -0.4510 -0.1990
  784MOL0     C 5747   3.998  -0.247   4.225 -0.9734  0.3768  0.0614
  784MOL0     C 5748   3.990  -0.335   4.101 -1.5922 -1.3035 -0.6029
  784MOL0    Cl 5749   4.055  -0.498   4.148  0.2185  0.0916  0.1227
  784MOL0     C 5750   4.528   0.377   4.837  1.2628  0.3770 -0.6751
  784MOL0     C 5751   4.556   0.493   4.911  0.6789 -1.1461  0.4338
  784MOL0     O 5752   4.724   0.590   5.118 -0.0092 -0.7274 -0.1705
  784MOL0     C 5753   4.953   0.762   5.149 -1.0171  0.8405 -0.1224
  784MOL0     C 5754   5.052   0.853   5.175  0.4830  0.3502  0.1033
  784MOL0     N 5755   5.525   0.900   5.538  0.6434 -0.0151 -0.3827
  784MOL0     N 5756   5.576   0.796   5.588 -0.2127  0.3843 -0.3693
  784MOL0     C 5757   6.645   0.410   5.969 -0.5548  0.0083  0.1547
  784MOL0     C 5758   6.725   0.487   6.050  0.3666  0.8114 -0.6776
  784MOL0     C 5759   6.888   0.790   6.328  0.1938 -0.4842 -0.2572
  784MOL0     C 5760   6.843   0.923   6.319  0.2063 -0.1052  0.9565
  784MOL0     C 5761   6.905   1.025   6.402 -0.7785  1.0475  0.7610
  784MOL0     C 5762   7.024   0.988   6.463  0.6192  0.0168  0.0145
  784MOL0     O 5763   7.057   1.079   6.568  0.5097  0.7029 -0.1245
  784MOL0     C 5764   7.186   1.129   6.583 -0.2985 -0.4524 -0.5848
  784MOL0     C 5765   7.176   1.190   6.723  0.2368 -0.0022  0.1774
  784MOL0     C 5766   7.314   1.251   6.755 -0.4925  0.2180 -0.1410
  784MOL0     C 5767   7.319   1.330   6.890  0.6058  0.5346  0.5818
  784MOL0     C 5768   7.236   1.452   6.864 -0.1004  1.0232  0.0504
  784MOL0     C 5769   7.196   1.559   6.822 -0.4330  0.5844 -0.1130
  784MOL0     C 5770   7.088   0.867   6.450  0.1737  0.1572 -0.0913
  784MOL0     C 5771   7.018   0.763   6.393 -0.3281  0.4719 -0.4434
  784MOL0     C 5772   7.075   0.624   6.418 -0.2285  0.0188  0.7642
  784MOL0     H 5773   6.542   0.764   6.078 -0.5800 -0.9692  0.5859
  784MOL0     H 5774   6.381   0.615   5.942  0.0483 -0.3556 -0.6365
  784MOL0     H 5775   6.243   0.364   5.810  1.0231 -1.0702  2.1830
  784MOL0     H 5776   6.328   0.518   5.767 -0.4785 -0.0462 -0.1347
  784MOL0     H 5777   6.428   0.272   5.652 -2.2347 -1.2980  0.5162
  784MOL0     H 5778   6.405   0.438   5.582  0.4622  0.2296  0.2717
  784MOL0     H 5779   6.199   0.222   5.654 -0.1915  1.0569  2.0162
  784MOL0     H 5780   6.265   0.229   5.496  2.7843 -0.9707  1.6903
  784MOL0     H 5781   6.155   0.496   5.574 -2.3308  0.4158  1.9178
  784MOL0     H 5782   6.099   0.396   5.437 -2.5948 -1.2359  0.5714
  784MOL0     H 5783   5.990   0.249   5.604  1.7176  0.3499  0.8619
  784MOL0     H 5784   5.985   0.377   5.707 -0.9733 -3.9854  0.1751
  784MOL0     H 5785   5.875   0.369   5.418 -0.1935 -0.8658  0.1995
  784MOL0     H 5786   5.780   0.367   5.580 -0.2475  0.3228 -1.3041
  784MOL0     H 5787   5.904   0.610   5.449  0.6767 -1.4412  0.6228
  784MOL0     H 5788   5.876   0.606   5.620 -2.2815 -1.0460  1.7410
  784MOL0     H 5789   5.654   0.547   5.431  0.4932 -0.8493  0.3705
  784MOL0     H 5790   5.643   0.561   5.608  1.2318  2.4514  1.4633
  784MOL0     H 5791   5.737   0.807   5.301 -3.7040 -2.3373 -2.1693
  784MOL0     H 5792   5.503   1.120   5.381 -2.3888 -2.7946  2.2727
  784MOL0     H 5793   5.632   1.059   5.266  1.6670 -0.8233  0.3480
  784MOL0     H 5794   5.456   0.898   5.179 -0.7110 -1.5602  1.7179
  784MOL0     H 5795   5.339   0.964   5.281 -0.1164 -2.1882 -1.6016
  784MOL0     H 5796   5.474   1.107   5.049 -0.9771  0.9060 -0.0634
  784MOL0     H 5797   5.392   1.195   5.176  1.1656 -1.4774  2.5564
  784MOL0     H 5798   5.281   0.961   5.016  0.2655  1.2860 -4.7964
  784MOL0     H 5799   5.262   1.136   4.989  0.5207  1.6459  2.8144
  784MOL0     H 5800   4.941   1.118   5.000 -0.8255 -0.2788 -2.1333
  784MOL0     H 5801   4.747   0.948   4.967 -2.6402 -2.4168  4.3710
  784MOL0     H 5802   4.753   0.648   4.696 -2.8151 -0.0435 -3.7400
  784MOL0     H 5803   4.721   0.441   4.569  1.0199  2.8604  0.6111
  784MOL0     H 5804   4.386   0.161   4.748  0.0660 -0.5696  0.4137
  784MOL0     H 5805   4.375   0.265   4.608 -0.9032  0.1038  0.3327
  784MOL0     H 5806   4.503   0.078   4.483 -2.3522  0.1625 -0.4832
  784MOL0     H 5807   4.494  -0.012   4.626 -0.9673 -1.7121 -1.8180
  784MOL0     H 5808   4.263  -0.037   4.633 -1.7457  1.8258  0.2698
  784MOL0     H 5809   4.246   0.081   4.489 -0.2112 -0.0222 -1.0451
  784MOL0     H 5810   4.358  -0.210   4.470 -0.0126 -0.3278 -2.0519
  784MOL0     H 5811   4.365  -0.087   4.348  0.3811  3.9175  1.6838
  784MOL0     H 5812   4.093  -0.081   4.405  1.8409  1.6376 -1.5562
  784MOL0     H 5813   4.118  -0.232   4.479  1.3819  1.3230  1.7846
  784MOL0     H 5814   4.193  -0.174   4.192  0.0613  0.7024  1.0100
  784MOL0     H 5815   4.202  -0.328   4.283 -0.7561 -0.3707  0.7513
  784MOL0     H 5816   3.955  -0.148   4.207 -0.1406  0.6711 -0.3192
  784MOL0     H 5817   3.941  -0.292   4.307  2.0435  0.0493  2.1345
  784MOL0     H 5818   3.896  -0.342   4.046 -0.3353 -1.4425 -2.8390
  784MOL0     H 5819   4.044  -0.297   4.014 -0.3015 -0.0705  0.6707
  784MOL0     H 5820   4.458   0.306   4.880 -0.1539  0.7439 -2.2486
  784MOL0     H 5821   4.504   0.512   5.004  2.0945  0.6506  0.9042
  784MOL0     H 5822   4.961   0.662   5.191 -3.4316 -0.2385 -1.9646
  784MOL0     H 5823   5.143   0.819   5.223  0.0878  0.2741  0.8018
  784MOL0     H 5824   6.672   0.314   5.926 -1.2416  0.0564 -0.4081
  784MOL0     H 5825   6.824   0.454   6.081  0.9538  1.0382 -2.1882
  784MOL0     H 5826   6.763   0.955   6.253  0.1692 -0.9136  0.5940
  784MOL0     H 5827   6.880   1.130   6.413 -1.5997  0.6696  3.1733
  784MOL0     H 5828   7.216   1.199   6.504 -0.6813 -1.0044 -1.2320
  784MOL0     H 5829   7.255   1.044   6.584 -1.0236 -1.1531  2.6193
  784MOL0     H 5830   7.135   1.117   6.793 -4.8761  1.8396 -0.4372
  784MOL0     H 5831   7.101   1.270   6.718  2.2364  1.9043 -1.6994
  784MOL0     H 5832   7.354   1.320   6.680 -0.2424 -0.7885 -0.9604
  784MOL0     H 5833   7.393   1.175   6.764 -1.7386 -0.8947  2.0152
  784MOL0     H 5834   7.270   1.276   6.971  0.6990 -1.1244 -0.4156
  784MOL0     H 5835   7.421   1.358   6.917  1.6359 -2.2344 -0.0030
  784MOL0     H 5836   7.159   1.656   6.794 -0.8763  0.2849 -0.5858
  784MOL0     H 5837   7.186   0.851   6.494  0.2087 -1.1475 -0.5793
  784MOL0     H 5838   7.164   0.635   6.481 -1.4118 -0.3775  2.5624
  784MOL0     H 5839   6.999   0.568   6.473 -1.2809 -0.5629 -1.1668
  784MOL0     H 5840   7.106   0.582   6.321 -1.7251  1.3815 -0.3508
  785MOL0     O 5841   1.904   7.826   7.155  0.5270  0.1625  1.0600
  785MOL0     C 5842   1.965   7.770   7.060 -0.2443 -0.7358  0.4717
  785MOL0     O 5843   2.095   7.816   7.016  0.0199  0.0656 -0.7878
  785MOL0     C 5844   2.150   7.934   7.065  0.1606  0.5241 -0.4539
  785MOL0     C 5845   2.072   8.050   7.070  0.2434 -0.7929  0.2412
  785MOL0     C 5846   2.125   8.168   7.131  0.1494  1.2420  0.1133
  785MOL0     C 5847   2.243   8.159   7.204 -0.5358  0.9947 -0.4312
  785MOL0     O 5848   2.301   8.256   7.284 -0.3380 -0.1078  0.5212
  785MOL0     C 5849   2.236   8.387   7.266  0.1629 -0.4209  0.3133
  785MOL0     C 5850   2.298   8.471   7.375 -0.5596 -0.0725 -0.3510
  785MOL0     C 5851   2.240   8.609   7.394 -0.7753 -0.0790  0.3040
  785MOL0     C 5852   2.087   8.616   7.414 -0.2932  0.4407 -1.1968
  785MOL0     C 5853   2.046   8.740   7.490 -0.7348  0.5134  0.3391
  785MOL0     C 5854   1.902   8.777   7.472 -1.2579 -0.0843  0.7882
  785MOL0     C 5855   1.846   8.879   7.574 -0.6498  0.5344  1.0749
  785MOL0     C 5856   1.796   8.809   7.702 -0.4189 -0.8091 -0.0439
  785MOL0     N 5857   1.701   8.895   7.782 -0.0929  1.1107  0.4023
  785MOL0     C 5858   1.720   9.018   7.837  0.6999  0.4200 -0.1157
  785MOL0     C 5859   1.600   9.062   7.882  0.2886  0.7581  0.3294
  785MOL0     C 5860   1.579   9.183   7.961  1.0858  0.1173 -0.4015
  785MOL0     C 5861   1.568   9.163   8.108  1.2599 -0.3523 -0.4975
  785MOL0     C 5862   1.447   9.076   8.150  0.3344  0.7536  0.1310
  785MOL0     C 5863   1.494   8.931   8.197  0.0494  0.5699 -0.2563
  785MOL0     O 5864   1.568   8.923   8.315  0.1486 -0.8209  0.5101
  785MOL0     C 5865   1.514   8.962   8.433  0.2279 -0.8453 -1.0072
  785MOL0     C 5866   1.605   8.996   8.532 -0.3508  0.1900  0.4075
  785MOL0     C 5867   1.569   9.022   8.665  1.0800  0.1050  0.6805
  785MOL0     C 5868   1.429   9.014   8.701 -0.4269 -0.9482  0.0201
  785MOL0     C 5869   1.383   9.047   8.838 -0.6133 -0.4675  0.2630
  785MOL0     O 5870   1.247   9.022   8.860  0.5304  0.3233  0.4570
  785MOL0     C 5871   1.206   9.041   8.992 -0.1088 -0.9092  0.6768
  785MOL0     C 5872   1.094   9.117   9.012 -0.8537  0.0516 -0.8094
  785MOL0     C 5873   1.036   9.131   9.135 -0.0417  0.2521 -0.2212
  785MOL0     C 5874   1.094   9.067   9.249 -0.1953 -0.2508  0.0890
  785MOL0     O 5875   1.035   9.096   9.369  0.7393  0.8845 -0.6777
  785MOL0     C 5876   1.088   9.044   9.490 -0.3552  1.1143 -0.8772
  785MOL0     C 5877   0.988   9.043   9.607  1.1590  0.9626 -0.1907
  785MOL0     C 5878   0.981   9.167   9.699 -0.8088  0.1597 -0.1443
  785MOL0     C 5879   0.929   9.287   9.625  0.5432 -0.1260 -0.0899
  785MOL0     C 5880   0.776   9.290   9.595 -0.2095  0.5947 -0.0935
  785MOL0     C 5881   0.733   9.386   9.478  0.4399  0.4725  0.1724
  785MOL0     C 5882   0.582   9.406   9.445  0.3501 -0.3466 -0.7006
  785MOL0     C 5883   0.513   9.504   9.538 -0.2835 -0.1029 -0.8458
  785MOL0    Cl 5884   0.577   9.670   9.508 -0.2085  0.0042 -0.4939
  785MOL0     C 5885   1.214   8.993   9.222  0.6313  0.3959 -1.3581
  785MOL0     C 5886   1.269   8.977   9.098 -0.1658  0.3403  0.9302
  785MOL0     O 5887   1.470   9.081   8.921 -0.3204 -0.2779  0.6058
  785MOL0     C 5888   1.334   8.963   8.605 -0.2341 -0.4586 -0.9336
  785MOL0     C 5889   1.378   8.950   8.471 -0.2282  0.2445 -0.1848
  785MOL0     N 5890   1.507   8.964   7.851  0.3018  0.8608 -1.4886
  785MOL0     N 5891   1.570   8.872   7.791  0.8173  0.3204 -0.8175
  785MOL0     C 5892   2.317   8.040   7.191 -0.4892  0.7977  0.2489
  785MOL0     C 5893   2.276   7.935   7.116  0.4285 -0.0691  0.9844
  785MOL0     C 5894   1.899   7.664   6.980  0.1477  1.0486  0.3195
  785MOL0     C 5895   1.980   7.588   6.893 -0.7097 -0.0486  0.9012
  785MOL0     C 5896   1.934   7.479   6.824 -0.1882 -0.2285  0.7194
  785MOL0     C 5897   1.801   7.454   6.819  1.2469 -0.6132 -1.4649
  785MOL0     O 5898   1.746   7.356   6.755  0.1499  0.2443 -0.1342
  785MOL0     C 5899   1.821   7.249   6.704  0.5035  0.0568  0.3053
  785MOL0     C 5900   1.857   7.152   6.807  1.1733  0.3480 -0.3244
  785MOL0     C 5901   1.900   7.019   6.745  0.7329  0.0463 -0.8777
  785MOL0     C 5902   1.990   6.919   6.833 -0.5831  0.7118  0.2805
  785MOL0     C 5903   2.114   6.980   6.876 -1.5316  0.3886  0.5818
  785MOL0     C 5904   2.231   7.022   6.903  0.3986  0.2570  0.6107
  785MOL0     C 5905   1.713   7.520   6.911 -0.5745 -0.0139 -0.0727
  785MOL0     C 5906   1.761   7.626   6.993  0.5639  0.5422 -0.4081
  785MOL0     C 5907   1.653   7.694   7.072 -0.2632 -0.1413 -0.5258
  785MOL0     H 5908   1.982   8.058   7.010  0.0755  0.6482  0.6517
  785MOL0     H 5909   2.069   8.261   7.126 -0.8976  0.8054  2.2596
  785MOL0     H 5910   2.265   8.432   7.171 -4.8088 -1.6833 -2.1536
  785MOL0     H 5911   2.129   8.386   7.287  0.4632  0.0202  1.9551
  785MOL0     H 5912   2.405   8.473   7.352  0.1409  1.0486  2.5328
  785MOL0     H 5913   2.297   8.407   7.464 -0.8994  0.6960  0.2110
  785MOL0     H 5914   2.275   8.670   7.309  1.0629  0.3883  1.3454
  785MOL0     H 5915   2.281   8.657   7.483 -2.9271  2.5221  0.0364
  785MOL0     H 5916   2.043   8.610   7.314  0.1505 -3.1193 -1.3189
  785MOL0     H 5917   2.054   8.534   7.479  1.3858  1.5980  1.2911
  785MOL0     H 5918   2.050   8.734   7.599  0.0806  1.7967  0.4029
  785MOL0     H 5919   2.119   8.816   7.461  1.1823 -1.0215  0.9237
  785MOL0     H 5920   1.885   8.807   7.369  2.0561 -1.6889 -0.3767
  785MOL0     H 5921   1.841   8.687   7.486  0.7294 -1.3022  2.0858
  785MOL0     H 5922   1.749   8.901   7.528  0.6277 -0.6490 -2.5582
  785MOL0     H 5923   1.908   8.969   7.578  0.6408 -0.2989  0.6665
  785MOL0     H 5924   1.730   8.723   7.687  0.8665 -2.0590  1.2318
  785MOL0     H 5925   1.883   8.773   7.758  1.2505 -0.1018 -2.0601
  785MOL0     H 5926   1.810   9.067   7.872  1.0804 -0.3514  0.0181
  785MOL0     H 5927   1.655   9.260   7.949  1.0448  0.3487  0.7204
  785MOL0     H 5928   1.486   9.230   7.928  1.3594 -0.8941 -2.8422
  785MOL0     H 5929   1.658   9.123   8.157  1.2204  0.4105  0.2285
  785MOL0     H 5930   1.541   9.259   8.152 -2.5438 -1.5282  0.1441
  785MOL0     H 5931   1.373   9.078   8.069  0.3607  5.1594 -0.0208
  785MOL0     H 5932   1.409   9.119   8.243  1.8328  3.1025 -0.2684
  785MOL0     H 5933   1.556   8.899   8.113 -1.9720  1.8272 -2.3308
  785MOL0     H 5934   1.413   8.859   8.186  0.2190  0.7709 -4.2332
  785MOL0     H 5935   1.711   9.002   8.510 -0.0439  4.0765  2.1376
  785MOL0     H 5936   1.643   9.032   8.744 -2.3100  3.4754  3.8411
  785MOL0     H 5937   1.060   9.162   8.920  0.1546  1.9217 -0.3109
  785MOL0     H 5938   0.955   9.200   9.156  0.1672  0.0748  1.2504
  785MOL0     H 5939   1.118   8.939   9.478 -1.9050 -0.1705  4.1816
  785MOL0     H 5940   1.172   9.101   9.530 -1.1919  0.8996  1.3112
  785MOL0     H 5941   0.897   9.023   9.550  1.6026 -0.4638 -0.4286
  785MOL0     H 5942   1.001   8.952   9.666 -4.8655  0.8031  1.5404
  785MOL0     H 5943   0.905   9.158   9.777 -1.7213 -0.2979 -1.0768
  785MOL0     H 5944   1.078   9.181   9.747  0.2957  1.1863 -2.4842
  785MOL0     H 5945   0.977   9.279   9.527  1.3141 -1.1835  0.3534
  785MOL0     H 5946   0.952   9.383   9.672  0.4543  0.4939 -1.2743
  785MOL0     H 5947   0.711   9.324   9.676 -0.7876  3.6055 -1.6494
  785MOL0     H 5948   0.741   9.192   9.562  1.1872  0.0836 -0.1410
  785MOL0     H 5949   0.788   9.481   9.476  1.5423 -0.1331  0.5341
  785MOL0     H 5950   0.770   9.339   9.386 -3.2077  1.4395 -1.9627
  785MOL0     H 5951   0.545   9.304   9.456  2.2344 -0.9652  0.2993
  785MOL0     H 5952   0.562   9.440   9.342 -1.9336 -0.1248 -0.2460
  785MOL0     H 5953   0.407   9.517   9.516 -0.0451  1.5626 -1.1635
  785MOL0     H 5954   0.527   9.474   9.642  2.0896  1.5713 -0.6097
  785MOL0     H 5955   1.260   8.949   9.310 -2.2309 -0.6201 -0.2212
  785MOL0     H 5956   1.359   8.918   9.081 -0.6807 -2.5788  6.1126
  785MOL0     H 5957   1.228   8.949   8.623  0.2427 -2.5054  0.6565
  785MOL0     H 5958   1.306   8.921   8.396  0.7958 -0.2127 -1.0033
  785MOL0     H 5959   2.414   8.028   7.237 -0.3054 -2.7345 -0.7071
  785MOL0     H 5960   2.345   7.851   7.109  0.5718  0.1735 -2.5951
  785MOL0     H 5961   2.087   7.608   6.900 -1.1335  2.8815  0.4502
  785MOL0     H 5962   2.011   7.427   6.768  0.4926 -0.5826  1.9312
  785MOL0     H 5963   1.894   7.298   6.639 -1.8858  5.6679  1.2369
  785MOL0     H 5964   1.752   7.181   6.652  2.2635 -2.0697  0.6266
  785MOL0     H 5965   1.775   7.132   6.876  1.4391  2.3412  0.6316
  785MOL0     H 5966   1.933   7.189   6.875 -0.6338  1.9405  0.9133
  785MOL0     H 5967   1.946   7.035   6.647 -1.3916 -1.9679 -2.3151
  785MOL0     H 5968   1.807   6.966   6.724 -0.6091  2.6673 -1.9792
  785MOL0     H 5969   1.928   6.882   6.915 -1.6190  3.3767  0.7970
  785MOL0     H 5970   2.013   6.832   6.769 -1.4137 -0.2018  1.1740
  785MOL0     H 5971   2.332   7.048   6.930  0.0041  2.7348 -0.0233
  785MOL0     H 5972   1.614   7.482   6.934  0.7157 -3.2379  0.6569
  785MOL0     H 5973   1.550   7.687   7.034 -1.0919 -0.7379  1.6747
  785MOL0     H 5974   1.652   7.662   7.177 -0.2075  4.2720  1.0608
  785MOL0     H 5975   1.665   7.803   7.080 -1.8729  0.1504 -1.6598
  786MOL0     O 5976   1.815   3.276   0.725 -0.9951 -1.0618  0.1788
  786MOL0     C 5977   1.842   3.183   0.656  0.5341  0.0477  0.1938
  786MOL0     O 5978   1.934   3.178   0.556  0.3221 -0.4154 -0.3133
  786MOL0     C 5979   2.016   3.280   0.514 -0.0704 -0.3314 -0.2053
  786MOL0     C 5980   1.984   3.416   0.518 -1.0474 -0.4359  0.0953
  786MOL0     C 5981   2.075   3.513   0.472 -0.1927  0.5985 -0.1677
  786MOL0     C 5982   2.200   3.466   0.419 -0.6683 -0.5747  0.2635
  786MOL0     O 5983   2.273   3.572   0.370  0.1057 -0.0023 -0.7269
  786MOL0     C 5984   2.387   3.536   0.297 -1.5979 -0.7007  0.6075
  786MOL0     C 5985   2.510   3.512   0.393  0.0268  0.1878 -0.2826
  786MOL0     C 5986   2.480   3.586   0.529 -0.3690  0.3290  0.8338
  786MOL0     C 5987   2.613   3.619   0.601 -0.0450  0.0100 -0.5059
  786MOL0     C 5988   2.602   3.677   0.747 -0.1399  0.3045 -0.2335
  786MOL0     C 5989   2.747   3.684   0.813  0.2266 -0.3281  0.3622
  786MOL0     C 5990   2.748   3.753   0.954  1.2341  0.0782  0.2655
  786MOL0     C 5991   2.885   3.735   1.022 -0.1341 -0.7043  0.0856
  786MOL0     N 5992   2.992   3.810   0.938 -0.0780  0.1553  0.3377
  786MOL0     C 5993   3.017   3.944   0.954  0.3173  0.4651 -0.9540
  786MOL0     C 5994   3.150   3.968   0.943 -0.2983 -0.4968 -0.0197
  786MOL0     C 5995   3.221   4.096   0.974  0.8198  0.3273 -0.5774
  786MOL0     C 5996   3.277   4.157   0.851 -0.3898 -0.5820  0.3535
  786MOL0     C 5997   3.359   4.284   0.876 -1.2659 -0.3444  0.3249
  786MOL0     C 5998   3.513   4.259   0.902  1.3354  0.6794 -0.1216
  786MOL0     O 5999   3.564   4.391   0.924  0.2954 -0.1532 -0.5931
  786MOL0     C 6000   3.700   4.399   0.951 -0.4643  1.0807 -0.3057
  786MOL0     C 6001   3.792   4.301   0.914 -0.1657  0.2229  0.0007
  786MOL0     C 6002   3.933   4.323   0.924 -0.1916  0.0610 -0.4692
  786MOL0     C 6003   3.978   4.432   0.997  0.6607  0.8425  0.9207
  786MOL0     C 6004   4.124   4.458   1.003  0.0614  0.3131 -0.7152
  786MOL0     O 6005   4.165   4.539   1.101 -0.5403  0.2706 -0.7527
  786MOL0     C 6006   4.294   4.553   1.121  0.7005  0.9683 -0.5655
  786MOL0     C 6007   4.355   4.457   1.215  1.0078 -0.9392  0.9782
  786MOL0     C 6008   4.490   4.462   1.220  0.5905  0.1176  0.8138
  786MOL0     C 6009   4.563   4.557   1.147  0.3476 -0.4190  0.2934
  786MOL0     O 6010   4.687   4.577   1.188 -0.1603  0.4188  0.2329
  786MOL0     C 6011   4.706   4.691   1.275  0.3744  0.5961 -0.9546
  786MOL0     C 6012   4.761   4.661   1.415  0.6879  0.3774  0.9968
  786MOL0     C 6013   4.901   4.613   1.401 -0.3052  0.0013  0.2758
  786MOL0     C 6014   4.953   4.585   1.545  0.4452 -1.2412 -0.5940
  786MOL0     C 6015   5.102   4.569   1.556 -0.6355  0.6963 -0.2990
  786MOL0     C 6016   5.142   4.429   1.528 -0.2386 -0.5319 -0.7962
  786MOL0     C 6017   5.094   4.361   1.404  0.8672 -1.1562 -0.7356
  786MOL0     C 6018   5.172   4.230   1.378 -0.6242 -0.2188 -0.0972
  786MOL0    Cl 6019   5.138   4.121   1.518  0.0193  0.0732  0.1163
  786MOL0     C 6020   4.503   4.644   1.054 -0.4403 -0.8302  0.2203
  786MOL0     C 6021   4.367   4.639   1.040 -0.7767  1.5005 -0.3751
  786MOL0     O 6022   4.201   4.383   0.936  0.2685 -0.0907 -0.0162
  786MOL0     C 6023   3.890   4.531   1.029  0.0811  0.0502 -0.1552
  786MOL0     C 6024   3.756   4.513   1.010 -1.4099 -0.1779 -0.0459
  786MOL0     N 6025   3.211   3.849   0.923  0.1427  0.5610  0.0256
  786MOL0     N 6026   3.111   3.758   0.923  0.1031 -0.5365  0.2537
  786MOL0     C 6027   2.237   3.335   0.421  0.2807  0.3251  0.1772
  786MOL0     C 6028   2.137   3.243   0.454 -1.3575 -0.0309  0.0196
  786MOL0     C 6029   1.757   3.070   0.693  0.0049 -0.1595  0.1350
  786MOL0     C 6030   1.688   3.055   0.815  0.6544 -0.1650 -0.7351
  786MOL0     C 6031   1.585   2.957   0.838 -0.4023 -0.7386  0.3543
  786MOL0     C 6032   1.554   2.865   0.739 -0.2807  0.7902  0.3294
  786MOL0     O 6033   1.445   2.778   0.725  0.0898 -0.0747  0.4201
  786MOL0     C 6034   1.342   2.780   0.819  0.1109 -0.1465 -0.3107
  786MOL0     C 6035   1.364   2.693   0.939 -0.3602  0.2789  0.1386
  786MOL0     C 6036   1.451   2.559   0.928  1.1418 -0.7224 -1.1562
  786MOL0     C 6037   1.372   2.440   0.872 -0.3676 -0.0213  0.3728
  786MOL0     C 6038   1.262   2.402   0.957  0.1569  0.0795  0.6713
  786MOL0     C 6039   1.183   2.356   1.035  0.9611  0.1090 -0.8468
  786MOL0     C 6040   1.642   2.861   0.634 -1.2371  0.4108 -0.0139
  786MOL0     C 6041   1.737   2.955   0.604 -0.6435  0.7263 -0.9009
  786MOL0     C 6042   1.812   2.934   0.471  0.6156 -0.1309  0.5060
  786MOL0     H 6043   1.886   3.448   0.554 -0.4868 -0.8651  2.1055
  786MOL0     H 6044   2.039   3.614   0.458  1.7561  1.4554  0.7107
  786MOL0     H 6045   2.364   3.454   0.228 -1.8093 -0.5157  0.4563
  786MOL0     H 6046   2.410   3.625   0.237  0.1972 -1.4744  0.0847
  786MOL0     H 6047   2.605   3.550   0.355  1.2367 -0.8627  1.5203
  786MOL0     H 6048   2.523   3.404   0.405  2.2901  0.5937  1.7282
  786MOL0     H 6049   2.415   3.525   0.593 -0.1482  1.2023  1.9156
  786MOL0     H 6050   2.430   3.683   0.521  1.4286  1.5097  2.8369
  786MOL0     H 6051   2.671   3.527   0.601 -1.9593 -1.2488 -0.6935
  786MOL0     H 6052   2.670   3.695   0.545  1.5811  2.3590  3.8460
  786MOL0     H 6053   2.568   3.781   0.741  0.5561  0.4925 -1.4104
  786MOL0     H 6054   2.544   3.613   0.813  1.4204  1.0001  1.9402
  786MOL0     H 6055   2.776   3.578   0.814 -1.4546 -0.8791 -1.8419
  786MOL0     H 6056   2.824   3.729   0.750  0.5199 -2.8200 -1.2162
  786MOL0     H 6057   2.658   3.722   1.008  1.0791 -3.6455 -1.7424
  786MOL0     H 6058   2.734   3.860   0.940 -1.3241  0.1084  2.3128
  786MOL0     H 6059   2.891   3.789   1.117  0.8786 -1.2294  0.3372
  786MOL0     H 6060   2.922   3.633   1.036  0.0431 -0.8373 -1.1978
  786MOL0     H 6061   2.941   4.021   0.966  0.2873  0.5736 -1.7585
  786MOL0     H 6062   3.158   4.172   1.022  0.7350  1.0694 -1.8187
  786MOL0     H 6063   3.298   4.082   1.050  0.1657  0.9273  0.2162
  786MOL0     H 6064   3.335   4.084   0.794  1.0610  0.8356 -0.0963
  786MOL0     H 6065   3.197   4.190   0.785 -1.8571 -1.7462  1.4973
  786MOL0     H 6066   3.327   4.333   0.968  0.2929 -0.5832  1.0255
  786MOL0     H 6067   3.349   4.349   0.788  5.0397 -2.0849 -2.2173
  786MOL0     H 6068   3.554   4.207   0.815 -1.2696  0.1070 -1.0837
  786MOL0     H 6069   3.535   4.199   0.991 -3.2386 -2.6637 -0.8844
  786MOL0     H 6070   3.754   4.214   0.861 -2.2417 -0.2556  2.1327
  786MOL0     H 6071   4.009   4.252   0.894  6.6185  4.7486  3.2350
  786MOL0     H 6072   4.299   4.385   1.273 -3.4053 -0.0971 -1.7371
  786MOL0     H 6073   4.546   4.392   1.281  1.1492 -0.0139  0.1626
  786MOL0     H 6074   4.775   4.760   1.227  2.1475 -0.4731 -0.0603
  786MOL0     H 6075   4.613   4.743   1.297  1.4407  2.0718  0.2761
  786MOL0     H 6076   4.752   4.756   1.469  1.0568  0.7717  0.3876
  786MOL0     H 6077   4.697   4.587   1.464  0.2856 -1.2426 -1.7309
  786MOL0     H 6078   4.895   4.515   1.353  1.5343 -0.5239  1.0354
  786MOL0     H 6079   4.969   4.670   1.336  1.5062 -2.1750  0.1642
  786MOL0     H 6080   4.909   4.493   1.586  0.9698  0.0639  3.3257
  786MOL0     H 6081   4.917   4.672   1.601 -1.7040  0.4237 -4.1745
  786MOL0     H 6082   5.141   4.605   1.652 -2.6101  1.6771  0.1979
  786MOL0     H 6083   5.147   4.632   1.479 -1.5502 -0.0585 -1.4771
  786MOL0     H 6084   5.251   4.429   1.521 -0.2823 -0.9201 -1.6527
  786MOL0     H 6085   5.126   4.367   1.617 -2.2622  0.9505 -0.0457
  786MOL0     H 6086   5.109   4.425   1.317 -1.9718 -0.0259 -0.5212
  786MOL0     H 6087   4.988   4.340   1.422  1.5358 -3.2290  1.3784
  786MOL0     H 6088   5.131   4.177   1.291 -2.4935  0.2401  0.4592
  786MOL0     H 6089   5.281   4.228   1.379 -0.5991 -2.0335  1.8092
  786MOL0     H 6090   4.567   4.723   1.018  1.0666 -0.6346  3.0532
  786MOL0     H 6091   4.323   4.707   0.968 -0.2219  0.7111 -1.4969
  786MOL0     H 6092   3.928   4.628   1.057  2.2762 -1.0881  1.0709
  786MOL0     H 6093   3.687   4.595   1.027 -1.0545  0.2491 -0.6237
  786MOL0     H 6094   2.334   3.311   0.381  2.1530  1.7836  3.4379
  786MOL0     H 6095   2.169   3.141   0.438 -1.1563  0.0776 -0.2704
  786MOL0     H 6096   1.689   3.133   0.890 -0.6351  0.7136 -1.5967
  786MOL0     H 6097   1.527   2.945   0.929 -0.6805 -0.8457  0.1648
  786MOL0     H 6098   1.246   2.749   0.777 -0.2997 -1.2746  1.3739
  786MOL0     H 6099   1.327   2.882   0.856 -1.5851  0.6304 -2.8809
  786MOL0     H 6100   1.277   2.660   0.996  1.8796 -2.2679  2.3725
  786MOL0     H 6101   1.416   2.753   1.014  0.1277  0.8664 -0.6456
  786MOL0     H 6102   1.497   2.529   1.022 -0.1403 -4.4104 -1.5485
  786MOL0     H 6103   1.541   2.578   0.868  3.2045  1.4281  2.2796
  786MOL0     H 6104   1.333   2.461   0.772 -2.8910 -3.6292  0.4161
  786MOL0     H 6105   1.442   2.357   0.856 -1.4208 -0.8828  0.1200
  786MOL0     H 6106   1.114   2.320   1.108  2.5086 -0.6831  0.2942
  786MOL0     H 6107   1.630   2.778   0.565  1.0541 -2.7780  3.1184
  786MOL0     H 6108   1.796   3.010   0.394  2.1646 -2.3329 -2.1592
  786MOL0     H 6109   1.920   2.945   0.487  0.7313  4.1799 -1.7619
  786MOL0     H 6110   1.778   2.847   0.414  1.8279 -0.4861  0.2868
  787MOL0     O 6111   2.285   6.012  10.858  0.0034  0.1296 -0.5804
  787MOL0     C 6112   2.169   5.963  10.870 -0.0250  1.4348  0.7623
  787MOL0     O 6113   2.086   5.926  10.762  0.1816 -0.0975  0.7762
  787MOL0     C 6114   2.136   5.936  10.642 -0.9985 -0.9402  0.2593
  787MOL0     C 6115   2.256   5.868  10.595 -0.0603 -0.6432 -0.5072
  787MOL0     C 6116   2.312   5.877  10.473 -0.3954  0.5962 -0.1821
  787MOL0     C 6117   2.242   5.957  10.378  0.2458  0.2292 -0.2629
  787MOL0     O 6118   2.281   5.973  10.247  0.2441  0.3061  0.0531
  787MOL0     C 6119   2.330   5.854  10.188 -0.5294 -0.5037  0.1512
  787MOL0     C 6120   2.352   5.888  10.035  0.2104 -0.1201 -0.3254
  787MOL0     C 6121   2.229   5.949   9.962  0.2204  0.2005 -0.7403
  787MOL0     C 6122   2.268   6.009   9.831  0.6995 -0.8815  0.6223
  787MOL0     C 6123   2.152   6.114   9.795  0.1604 -0.0682  0.1586
  787MOL0     C 6124   2.170   6.178   9.658 -0.4593 -0.6207 -0.4489
  787MOL0     C 6125   2.265   6.301   9.656  1.2297 -0.0308 -0.1593
  787MOL0     C 6126   2.289   6.345   9.508  0.3821  0.3593  0.3060
  787MOL0     N 6127   2.342   6.476   9.486 -0.4344  0.3557  0.6243
  787MOL0     C 6128   2.457   6.526   9.545  1.0823 -0.1890  0.6108
  787MOL0     C 6129   2.439   6.659   9.554 -0.3552  0.8880 -0.8529
  787MOL0     C 6130   2.538   6.757   9.609 -0.3783  0.2092 -0.1614
  787MOL0     C 6131   2.671   6.753   9.538 -0.7154  1.6196 -0.5683
  787MOL0     C 6132   2.788   6.802   9.613 -0.1614  0.1936  0.1834
  787MOL0     C 6133   2.793   6.950   9.642 -0.2083  0.8998 -0.5698
  787MOL0     O 6134   2.913   6.981   9.719  0.6624 -0.5247 -0.7628
  787MOL0     C 6135   2.974   7.096   9.685  0.2172 -0.3654 -0.2891
  787MOL0     C 6136   3.093   7.095   9.618  1.0171  0.5259 -0.1490
  787MOL0     C 6137   3.163   7.210   9.578 -0.6471 -0.3222  0.2833
  787MOL0     C 6138   3.110   7.335   9.599  0.1538  0.8556 -0.2336
  787MOL0     C 6139   3.175   7.454   9.553  0.1086 -0.3989  0.3690
  787MOL0     O 6140   3.115   7.581   9.590 -0.0686 -0.0881  0.4812
  787MOL0     C 6141   3.172   7.694   9.537  1.0625 -0.9072  0.2453
  787MOL0     C 6142   3.125   7.747   9.413 -0.1833 -0.2602  0.1143
  787MOL0     C 6143   3.173   7.871   9.349 -0.4976  0.2264 -1.1003
  787MOL0     C 6144   3.279   7.944   9.418  0.0350  0.4801 -0.2736
  787MOL0     O 6145   3.347   8.045   9.364  1.0833  0.6048 -0.1693
  787MOL0     C 6146   3.302   8.095   9.236 -1.1572  0.8752 -0.0831
  787MOL0     C 6147   3.382   8.219   9.180  0.4442 -0.3852 -0.3234
  787MOL0     C 6148   3.527   8.180   9.153  0.0469  0.4250  0.1379
  787MOL0     C 6149   3.605   8.305   9.101 -0.3188  0.6310  1.4842
  787MOL0     C 6150   3.736   8.253   9.026 -0.1885 -0.4623 -0.6763
  787MOL0     C 6151   3.842   8.376   9.019  0.2416  0.1211  0.6618
  787MOL0     C 6152   3.961   8.338   8.947 -0.4612 -1.1618 -0.1214
  787MOL0     C 6153   4.073   8.447   8.971 -0.8251  0.8422  0.7713
  787MOL0    Cl 6154   4.178   8.410   9.107  0.4815  0.1848 -0.1973
  787MOL0     C 6155   3.324   7.896   9.541 -0.4607 -0.4891  0.0752
  787MOL0     C 6156   3.260   7.782   9.603 -0.0845 -0.5034  1.1116
  787MOL0     O 6157   3.278   7.440   9.489 -0.4842 -0.2276 -0.6072
  787MOL0     C 6158   2.985   7.334   9.659  0.0627 -0.4858 -0.1146
  787MOL0     C 6159   2.916   7.227   9.700  0.7749  0.2923  0.3288
  787MOL0     N 6160   2.320   6.691   9.495 -0.1081  0.8419 -1.1587
  787MOL0     N 6161   2.273   6.584   9.443  0.0511 -0.1405  0.3638
  787MOL0     C 6162   2.117   6.022  10.409  0.1557 -0.4638 -0.2485
  787MOL0     C 6163   2.067   6.009  10.539  0.5223 -1.8090  0.2612
  787MOL0     C 6164   2.105   5.948  11.009 -0.2884  0.9757  1.1248
  787MOL0     C 6165   1.989   6.023  11.032 -0.1029  0.0777  0.3300
  787MOL0     C 6166   1.932   6.026  11.162  0.4471  0.3456  0.1081
  787MOL0     C 6167   1.985   5.943  11.260 -0.1233 -0.9716  1.2218
  787MOL0     O 6168   1.938   5.950  11.380  0.0166  0.5152 -0.2566
  787MOL0     C 6169   1.852   5.838  11.413 -0.0010 -0.6793 -0.4287
  787MOL0     C 6170   1.717   5.848  11.347  0.8318  0.2138  0.3662
  787MOL0     C 6171   1.600   5.782  11.415  0.4441 -0.1525  0.1307
  787MOL0     C 6172   1.571   5.841  11.543 -0.5995 -0.7964 -0.8156
  787MOL0     C 6173   1.438   5.784  11.578 -0.6802 -0.2238 -0.0900
  787MOL0     C 6174   1.334   5.723  11.592  0.1067 -0.6009  0.3414
  787MOL0     C 6175   2.091   5.857  11.230 -1.3823 -0.3602  0.2947
  787MOL0     C 6176   2.158   5.863  11.109 -0.0716 -0.3406  0.9078
  787MOL0     C 6177   2.282   5.779  11.078 -0.9253  0.3558 -0.7353
  787MOL0     H 6178   2.321   5.802  10.652  0.1772 -2.4388 -2.7189
  787MOL0     H 6179   2.402   5.823  10.445 -1.2639 -0.0885 -1.8409
  787MOL0     H 6180   2.429   5.829  10.227 -0.3858 -1.5136 -0.7874
  787MOL0     H 6181   2.250   5.781  10.203 -0.5354 -0.7675 -1.0107
  787MOL0     H 6182   2.385   5.797   9.984  1.1725 -0.9855  1.7304
  787MOL0     H 6183   2.427   5.967  10.024  0.9071 -0.8073 -0.5705
  787MOL0     H 6184   2.179   6.025  10.022  2.1921  2.1915 -1.4523
  787MOL0     H 6185   2.154   5.870   9.956 -1.4342  1.2383  3.1406
  787MOL0     H 6186   2.361   6.066   9.833 -0.8161  1.8089  0.3305
  787MOL0     H 6187   2.267   5.930   9.755 -0.4787 -1.1810  0.9237
  787MOL0     H 6188   2.057   6.062   9.802  0.6202 -0.7531  2.1337
  787MOL0     H 6189   2.152   6.201   9.862 -1.1315  0.0257  0.0543
  787MOL0     H 6190   2.207   6.103   9.588 -0.5929  1.0999 -2.4552
  787MOL0     H 6191   2.074   6.209   9.617 -0.9472 -1.0352  0.3399
  787MOL0     H 6192   2.362   6.272   9.697  1.0511  1.7678  1.7369
  787MOL0     H 6193   2.214   6.381   9.711 -2.2090 -3.2573  1.8717
  787MOL0     H 6194   2.351   6.266   9.463  0.0911  0.0562  0.4332
  787MOL0     H 6195   2.196   6.338   9.451 -1.1794  0.1284  2.7271
  787MOL0     H 6196   2.540   6.460   9.563  0.3298 -1.9231 -1.7765
  787MOL0     H 6197   2.507   6.861   9.601 -0.4463  0.0420 -3.0668
  787MOL0     H 6198   2.527   6.745   9.718 -6.7390  3.5695  0.0658
  787MOL0     H 6199   2.697   6.648   9.521  0.6734  1.7924  0.3186
  787MOL0     H 6200   2.660   6.801   9.440  1.2479  0.6723 -1.2962
  787MOL0     H 6201   2.883   6.775   9.565  1.1875  2.5381  1.3685
  787MOL0     H 6202   2.792   6.758   9.713 -1.0226  5.5947  2.9133
  787MOL0     H 6203   2.716   6.986   9.710  1.1771 -1.4442  2.4940
  787MOL0     H 6204   2.788   7.006   9.548 -1.0643  0.9075 -0.5208
  787MOL0     H 6205   3.131   6.997   9.592  2.2112  1.1340 -0.7523
  787MOL0     H 6206   3.263   7.206   9.535 -0.5387  1.8984  0.1821
  787MOL0     H 6207   3.053   7.685   9.360 -1.4599 -1.3130  2.8624
  787MOL0     H 6208   3.127   7.885   9.252 -1.0568 -0.8673 -1.0110
  787MOL0     H 6209   3.326   8.013   9.168  2.6766 -0.0377  2.0649
  787MOL0     H 6210   3.200   8.129   9.253 -1.4791 -0.1584  0.1189
  787MOL0     H 6211   3.329   8.243   9.087 -0.5543 -0.7063  0.1420
  787MOL0     H 6212   3.382   8.306   9.246  1.0868 -0.7683  0.1996
  787MOL0     H 6213   3.586   8.141   9.236  2.0773 -1.0914 -1.9023
  787MOL0     H 6214   3.518   8.094   9.086  0.8036 -1.7735  2.6593
  787MOL0     H 6215   3.635   8.387   9.166 -0.7114  2.7588 -0.9029
  787MOL0     H 6216   3.543   8.353   9.025  2.4897  1.5458 -0.3687
  787MOL0     H 6217   3.711   8.201   8.933  0.5862 -1.2955 -0.4393
  787MOL0     H 6218   3.781   8.170   9.081 -3.3777 -1.5355  0.5836
  787MOL0     H 6219   3.799   8.470   8.984 -1.0149 -1.1571 -1.4721
  787MOL0     H 6220   3.868   8.397   9.123  3.3490 -2.3967  0.5351
  787MOL0     H 6221   3.947   8.321   8.840 -2.8593 -1.8650  0.2526
  787MOL0     H 6222   3.994   8.240   8.982  0.9918  0.2384  2.8999
  787MOL0     H 6223   4.142   8.457   8.887 -0.7276 -0.4303  0.6721
  787MOL0     H 6224   4.020   8.542   8.982 -3.3169 -0.4257  0.4799
  787MOL0     H 6225   3.403   7.952   9.590 -1.2800  0.6457  0.1584
  787MOL0     H 6226   3.289   7.771   9.707  2.7134  0.6567  0.5273
  787MOL0     H 6227   2.933   7.428   9.646  1.7270  0.4898 -0.0789
  787MOL0     H 6228   2.812   7.236   9.731  0.4582  3.1818 -1.2201
  787MOL0     H 6229   2.060   6.084  10.341  0.7246 -0.8135 -1.0592
  787MOL0     H 6230   1.979   6.071  10.557  0.7492 -1.0901 -1.0125
  787MOL0     H 6231   1.945   6.090  10.960 -1.2902  1.0149  1.8516
  787MOL0     H 6232   1.844   6.086  11.179  1.9674  2.2883  1.5208
  787MOL0     H 6233   1.837   5.838  11.522  4.0838  2.3288  0.3849
  787MOL0     H 6234   1.887   5.739  11.384  0.5368 -0.5415 -0.2630
  787MOL0     H 6235   1.730   5.798  11.250  0.9157 -0.1244  0.5521
  787MOL0     H 6236   1.699   5.953  11.320  4.8824  0.5590 -1.8012
  787MOL0     H 6237   1.606   5.676  11.438 -0.8455  0.3925  3.7587
  787MOL0     H 6238   1.510   5.798  11.355 -2.0990 -3.5737  2.6252
  787MOL0     H 6239   1.644   5.816  11.620 -1.9877 -1.7479  0.2529
  787MOL0     H 6240   1.564   5.947  11.517 -3.3724 -1.0692 -1.5062
  787MOL0     H 6241   1.246   5.663  11.594 -1.7385  1.9256  0.2036
  787MOL0     H 6242   2.121   5.785  11.305 -1.6515  0.9843  1.7539
  787MOL0     H 6243   2.284   5.737  10.977  2.9750  0.2248 -0.7810
  787MOL0     H 6244   2.371   5.844  11.078  0.6429 -1.5278  2.3624
  787MOL0     H 6245   2.299   5.700  11.152  2.8178  1.9592  0.3786
  788MOL0     O 6246   8.637   8.277   5.903 -0.2397  0.7830 -0.6402
  788MOL0     C 6247   8.670   8.318   5.795 -0.5305 -0.6601  0.1916
  788MOL0     O 6248   8.624   8.261   5.686  0.5271  0.1973 -0.5819
  788MOL0     C 6249   8.713   8.238   5.585  0.9484 -1.0438  0.2756
  788MOL0     C 6250   8.694   8.315   5.469  0.1223 -0.3734 -0.2815
  788MOL0     C 6251   8.771   8.276   5.359  0.3128  0.3101 -0.1716
  788MOL0     C 6252   8.874   8.187   5.364  1.7973 -1.0625 -0.5718
  788MOL0     O 6253   8.966   8.166   5.272 -0.0135  0.2221  0.0300
  788MOL0     C 6254   9.025   8.274   5.213 -0.0581 -0.0785  0.4563
  788MOL0     C 6255   9.118   8.229   5.101  0.8408 -0.0592 -0.9420
  788MOL0     C 6256   9.206   8.346   5.046  0.9683 -0.6230  0.2546
  788MOL0     C 6257   9.308   8.291   4.956 -0.8997  0.1674  0.0790
  788MOL0     C 6258   9.428   8.382   4.944  0.2064 -0.4282  0.0681
  788MOL0     C 6259   9.535   8.327   4.845  1.0874 -0.2599  1.3365
  788MOL0     C 6260   9.633   8.443   4.817  0.4132 -0.1399  0.5419
  788MOL0     C 6261   9.586   8.566   4.740 -0.4185  0.5202 -0.2216
  788MOL0     N 6262   9.542   8.543   4.608  0.5670 -0.2503  0.0468
  788MOL0     C 6263   9.619   8.518   4.493 -0.7252  0.5300  0.2377
  788MOL0     C 6264   9.533   8.495   4.392 -0.8126  1.3962 -0.4921
  788MOL0     C 6265   9.571   8.498   4.249 -0.4593  0.2501  0.4428
  788MOL0     C 6266   9.546   8.629   4.177 -0.0434 -1.0382 -0.6927
  788MOL0     C 6267   9.566   8.612   4.028 -0.2243 -0.3959  0.0560
  788MOL0     C 6268   9.524   8.716   3.935  0.8377  0.9802 -0.9516
  788MOL0     O 6269   9.398   8.744   3.984  0.1479 -0.3396  0.2929
  788MOL0     C 6270   9.293   8.737   3.896  0.3137  0.8534  0.8091
  788MOL0     C 6271   9.293   8.694   3.766 -0.5534  0.1073  0.5434
  788MOL0     C 6272   9.177   8.660   3.700 -1.1478 -0.8411 -0.0162
  788MOL0     C 6273   9.047   8.679   3.764  0.3008 -0.0674  0.3481
  788MOL0     C 6274   8.926   8.639   3.693 -0.4497 -0.1647  0.9336
  788MOL0     O 6275   8.931   8.576   3.579 -0.0027  0.6099 -0.7932
  788MOL0     C 6276   8.826   8.556   3.500  0.6038  0.6099 -0.1598
  788MOL0     C 6277   8.731   8.667   3.478 -0.9726 -0.2335  1.0688
  788MOL0     C 6278   8.611   8.646   3.411  0.3940 -0.1315  0.8820
  788MOL0     C 6279   8.575   8.522   3.361  0.4676 -0.7810 -0.3136
  788MOL0     O 6280   8.453   8.493   3.307 -0.0903 -0.1711  0.2816
  788MOL0     C 6281   8.465   8.496   3.164  0.2260  0.3184 -0.6893
  788MOL0     C 6282   8.335   8.474   3.097  0.6158  1.3194 -0.4055
  788MOL0     C 6283   8.246   8.595   3.116 -0.5292 -0.1038  0.6356
  788MOL0     C 6284   8.115   8.559   3.051  0.6544 -0.5959 -0.2717
  788MOL0     C 6285   8.016   8.672   3.043  0.4174 -0.0559  0.8070
  788MOL0     C 6286   8.060   8.812   3.020 -0.6991 -0.2381 -0.6260
  788MOL0     C 6287   7.946   8.903   2.971 -0.6842  0.5755  0.4372
  788MOL0     C 6288   7.902   8.998   3.092  0.9863  0.7798  0.3830
  788MOL0    Cl 6289   7.858   8.919   3.254  0.0093  0.0131  0.0600
  788MOL0     C 6290   8.659   8.416   3.390 -0.7067 -0.2798  0.1741
  788MOL0     C 6291   8.790   8.434   3.445  0.2676 -0.0784  0.0879
  788MOL0     O 6292   8.821   8.667   3.750  0.0873 -0.3579 -0.4328
  788MOL0     C 6293   9.051   8.728   3.891 -0.3020 -1.6853  0.1653
  788MOL0     C 6294   9.171   8.751   3.959 -0.4522 -0.6547 -0.1121
  788MOL0     N 6295   9.409   8.494   4.439  0.5464 -0.0625 -0.2736
  788MOL0     N 6296   9.415   8.531   4.565 -0.1894  0.2428  0.5002
  788MOL0     C 6297   8.889   8.121   5.488 -0.5773  0.1054  0.3937
  788MOL0     C 6298   8.809   8.146   5.599  0.3544 -0.6019 -0.9663
  788MOL0     C 6299   8.779   8.418   5.782  0.1714 -0.5623 -0.2192
  788MOL0     C 6300   8.903   8.391   5.849 -0.0433  0.7608 -0.6286
  788MOL0     C 6301   9.007   8.477   5.831 -0.4897 -0.7426 -0.4166
  788MOL0     C 6302   8.989   8.594   5.753  0.2552  0.0500 -0.3039
  788MOL0     O 6303   9.094   8.683   5.750  0.4946  0.0106 -0.2388
  788MOL0     C 6304   9.109   8.777   5.647  0.4784  0.5001  0.3563
  788MOL0     C 6305   9.247   8.777   5.592 -0.0747 -0.7129  0.5410
  788MOL0     C 6306   9.315   8.636   5.575 -0.3876 -0.9724 -0.1333
  788MOL0     C 6307   9.257   8.565   5.451 -2.0320 -0.2817 -0.3598
  788MOL0     C 6308   9.290   8.639   5.319  0.1915  0.4005  0.2143
  788MOL0     C 6309   9.317   8.684   5.206  0.2600 -0.1139  0.1066
  788MOL0     C 6310   8.866   8.622   5.690 -0.1803  0.3012 -0.5731
  788MOL0     C 6311   8.750   8.543   5.719 -0.1871  0.0457 -0.6215
  788MOL0     C 6312   8.622   8.603   5.665 -0.1283 -0.2219 -1.0971
  788MOL0     H 6313   8.630   8.399   5.445 -0.8845 -1.1299 -0.2922
  788MOL0     H 6314   8.763   8.339   5.271  1.4925  3.6825  1.9633
  788MOL0     H 6315   8.952   8.340   5.167 -0.0783 -0.3487  0.0971
  788MOL0     H 6316   9.085   8.326   5.289  1.5680 -1.3930  0.1491
  788MOL0     H 6317   9.064   8.183   5.018  0.5736  1.1244 -1.4491
  788MOL0     H 6318   9.176   8.152   5.152  0.1444  0.0991  0.1223
  788MOL0     H 6319   9.252   8.397   5.132  0.3480  2.0425 -0.8981
  788MOL0     H 6320   9.139   8.422   5.006  0.8465 -0.3889  0.8867
  788MOL0     H 6321   9.354   8.199   4.992  0.3176 -0.9082 -3.7614
  788MOL0     H 6322   9.274   8.266   4.855  0.6600 -0.3361 -0.3353
  788MOL0     H 6323   9.398   8.487   4.934  1.7882 -0.0366 -0.8804
  788MOL0     H 6324   9.472   8.389   5.044  0.9117 -0.6059 -0.2253
  788MOL0     H 6325   9.580   8.239   4.891 -1.0475 -2.7938 -1.1021
  788MOL0     H 6326   9.490   8.298   4.749  1.6060  0.8519  0.7385
  788MOL0     H 6327   9.706   8.386   4.758 -0.7725 -1.0771 -0.0626
  788MOL0     H 6328   9.663   8.470   4.918 -2.3506 -0.7084  1.5934
  788MOL0     H 6329   9.513   8.621   4.800  0.2294  0.3524  0.7623
  788MOL0     H 6330   9.673   8.632   4.739  1.6627 -1.9187 -3.7170
  788MOL0     H 6331   9.726   8.531   4.490 -0.9879  2.8349 -0.6554
  788MOL0     H 6332   9.677   8.476   4.238 -0.8324 -0.7360 -1.6951
  788MOL0     H 6333   9.519   8.421   4.191  4.3634 -0.5355 -3.5414
  788MOL0     H 6334   9.443   8.660   4.201 -0.1381 -0.6814 -1.5238
  788MOL0     H 6335   9.610   8.708   4.216  0.0207 -1.8715  0.9852
  788MOL0     H 6336   9.506   8.526   4.000 -0.5409 -0.6051  1.3292
  788MOL0     H 6337   9.670   8.588   4.001 -0.2841  0.2006 -0.7264
  788MOL0     H 6338   9.531   8.674   3.834  3.0408  2.4257 -1.4740
  788MOL0     H 6339   9.580   8.810   3.938 -0.9856  2.1695 -1.8887
  788MOL0     H 6340   9.373   8.665   3.699 -0.3514 -1.0919  1.2835
  788MOL0     H 6341   9.174   8.621   3.598 -4.8816 -2.4850  0.5577
  788MOL0     H 6342   8.750   8.766   3.519  1.6824  0.6374 -1.8234
  788MOL0     H 6343   8.547   8.733   3.401 -0.4777 -0.9720 -1.7745
  788MOL0     H 6344   8.499   8.594   3.128 -0.6524  0.9341  0.1193
  788MOL0     H 6345   8.540   8.423   3.130  1.6818  1.1329  0.6371
  788MOL0     H 6346   8.348   8.456   2.990  1.6739  2.2952 -0.4551
  788MOL0     H 6347   8.298   8.385   3.149  3.5418  0.5961  0.6591
  788MOL0     H 6348   8.228   8.618   3.221  1.9981 -0.7172  1.2725
  788MOL0     H 6349   8.279   8.681   3.056 -2.9507  0.2340 -0.3333
  788MOL0     H 6350   8.069   8.484   3.116 -0.8830  0.3191 -0.2485
  788MOL0     H 6351   8.133   8.528   2.948  1.8522 -2.6144  0.5036
  788MOL0     H 6352   7.977   8.671   3.145  1.1621 -0.1618  1.0919
  788MOL0     H 6353   7.946   8.636   2.967 -1.9726  1.8360  1.9548
  788MOL0     H 6354   8.107   8.850   3.111  0.3873 -1.7717 -0.5101
  788MOL0     H 6355   8.136   8.796   2.943  1.8972 -0.7367  1.8961
  788MOL0     H 6356   7.868   8.843   2.923  0.9363 -0.0210 -1.5963
  788MOL0     H 6357   7.978   8.971   2.892  1.0747 -0.8146 -0.1169
  788MOL0     H 6358   7.988   9.061   3.114 -0.2971  2.6618  0.2646
  788MOL0     H 6359   7.823   9.066   3.060  1.2831  0.0815 -2.1003
  788MOL0     H 6360   8.627   8.316   3.360 -2.4236  0.3126 -0.0555
  788MOL0     H 6361   8.856   8.348   3.447 -0.0966 -0.3795 -0.6103
  788MOL0     H 6362   8.956   8.736   3.944 -0.8726  0.4445 -1.0906
  788MOL0     H 6363   9.169   8.787   4.061  2.4868  2.0673 -0.8301
  788MOL0     H 6364   8.961   8.040   5.493  0.9804  1.2981 -1.3194
  788MOL0     H 6365   8.814   8.089   5.692  0.3881 -1.7817 -1.6756
  788MOL0     H 6366   8.913   8.297   5.902 -1.1509  2.0297  2.0306
  788MOL0     H 6367   9.105   8.468   5.877 -0.7524  3.0106  1.3088
  788MOL0     H 6368   9.098   8.877   5.688 -0.0597  0.0043  1.4487
  788MOL0     H 6369   9.033   8.761   5.570  1.4431  1.2537 -0.8046
  788MOL0     H 6370   9.318   8.828   5.658 -1.2729 -1.9439  2.9145
  788MOL0     H 6371   9.233   8.816   5.491  1.4625  0.6051  0.7879
  788MOL0     H 6372   9.308   8.577   5.667 -1.0818 -1.2960 -0.3915
  788MOL0     H 6373   9.419   8.659   5.551 -0.7858  0.3974 -0.6136
  788MOL0     H 6374   9.309   8.470   5.440  0.3488  1.1896 -3.0576
  788MOL0     H 6375   9.149   8.550   5.456 -2.1099  0.6144  2.0669
  788MOL0     H 6376   9.352   8.703   5.107 -2.9930 -1.6317 -1.5021
  788MOL0     H 6377   8.847   8.707   5.625  1.6559 -0.2246 -1.8789
  788MOL0     H 6378   8.644   8.645   5.566  1.7453 -0.1689 -0.6918
  788MOL0     H 6379   8.544   8.528   5.677 -2.6033  2.6373  2.7754
  788MOL0     H 6380   8.609   8.685   5.736  1.8556 -0.3418 -0.5248
  789MOL0     O 6381   3.867   0.521   5.958  0.4871  0.1719  0.2055
  789MOL0     C 6382   3.876   0.648   5.961 -0.6726  0.2673  0.0353
  789MOL0     O 6383   3.975   0.722   6.027  0.4866  0.2853 -0.1999
  789MOL0     C 6384   4.051   0.650   6.114 -0.3282  0.4704 -0.2947
  789MOL0     C 6385   4.129   0.531   6.091 -0.0271 -0.7151  0.4221
  789MOL0     C 6386   4.220   0.489   6.186 -0.1871 -0.0101  0.4348
  789MOL0     C 6387   4.226   0.541   6.312  0.2790  1.0993  0.6285
  789MOL0     O 6388   4.323   0.482   6.395  1.0521 -0.3355 -0.2815
  789MOL0     C 6389   4.356   0.521   6.535  0.2011 -0.3169  0.7051
  789MOL0     C 6390   4.439   0.653   6.541  0.5050 -0.1244 -0.0705
  789MOL0     C 6391   4.542   0.633   6.652  0.1885  1.0919 -0.4964
  789MOL0     C 6392   4.616   0.760   6.689  0.6454 -0.3389  0.4682
  789MOL0     C 6393   4.680   0.751   6.830  0.0731  0.2115 -0.1777
  789MOL0     C 6394   4.752   0.876   6.872 -0.9750 -0.1229 -0.0798
  789MOL0     C 6395   4.814   0.884   7.014  0.6834 -0.0029  0.6106
  789MOL0     C 6396   4.872   0.745   7.049 -0.2992 -0.0000  0.1085
  789MOL0     N 6397   4.958   0.751   7.173  0.6364  0.4396 -0.6307
  789MOL0     C 6398   4.916   0.700   7.295  0.5557 -0.3731  0.6038
  789MOL0     C 6399   5.017   0.720   7.373  0.0199  0.2768 -0.7710
  789MOL0     C 6400   5.015   0.649   7.509  0.9617  0.4308  0.7407
  789MOL0     C 6401   5.012   0.486   7.493  0.3742 -0.2927 -0.1195
  789MOL0     C 6402   5.085   0.415   7.615  0.2440  0.2176  0.0385
  789MOL0     C 6403   5.036   0.270   7.623 -0.1895  0.4255  0.9709
  789MOL0     O 6404   5.049   0.188   7.737 -0.0069  0.2451  1.3348
  789MOL0     C 6405   4.973   0.073   7.733  0.3889  1.4672  0.7782
  789MOL0     C 6406   4.975  -0.018   7.624  0.1785  0.1063 -0.2896
  789MOL0     C 6407   4.892  -0.124   7.626  0.6949  0.2043  0.5303
  789MOL0     C 6408   4.819  -0.172   7.736 -0.6018 -0.2970 -0.3412
  789MOL0     C 6409   4.737  -0.294   7.723 -0.9680 -0.1409  0.7538
  789MOL0     O 6410   4.730  -0.347   7.592  0.7205 -0.6586 -0.5897
  789MOL0     C 6411   4.618  -0.418   7.554 -1.9065 -0.0848 -0.7359
  789MOL0     C 6412   4.579  -0.533   7.624  0.2978  0.2199  0.6874
  789MOL0     C 6413   4.471  -0.612   7.580 -1.2974  0.5720 -0.2799
  789MOL0     C 6414   4.399  -0.575   7.465 -0.0672 -0.0559 -0.7982
  789MOL0     O 6415   4.281  -0.640   7.433 -0.7812 -0.1045  0.9232
  789MOL0     C 6416   4.191  -0.690   7.536 -0.4892  0.8863  0.8003
  789MOL0     C 6417   4.064  -0.750   7.468 -0.0797 -0.2154 -0.8928
  789MOL0     C 6418   4.011  -0.659   7.356  0.9801  0.1432  0.1791
  789MOL0     C 6419   3.921  -0.539   7.414  0.7757  0.0294  0.3255
  789MOL0     C 6420   3.859  -0.457   7.294  0.2551 -0.2446  0.2679
  789MOL0     C 6421   3.775  -0.337   7.346 -0.0957  0.8291  0.3076
  789MOL0     C 6422   3.697  -0.275   7.230  0.3168  0.9067  0.1993
  789MOL0     C 6423   3.762  -0.155   7.163  0.7286  0.2813 -0.4865
  789MOL0    Cl 6424   3.783  -0.014   7.268  0.1343 -0.7503 -0.3885
  789MOL0     C 6425   4.444  -0.456   7.400  0.0896  1.0332  0.3103
  789MOL0     C 6426   4.557  -0.381   7.442  1.2256 -0.5771  0.1810
  789MOL0     O 6427   4.658  -0.318   7.813  0.1661  0.7694  0.0228
  789MOL0     C 6428   4.817  -0.096   7.849 -0.7086 -0.7476 -0.4936
  789MOL0     C 6429   4.892   0.027   7.855 -0.2094  0.1510  0.9078
  789MOL0     N 6430   5.124   0.781   7.307 -0.1116  0.1495  0.1171
  789MOL0     N 6431   5.080   0.813   7.183  0.4455  0.4212 -0.3291
  789MOL0     C 6432   4.143   0.649   6.343  0.8009 -0.5929 -0.2739
  789MOL0     C 6433   4.063   0.703   6.241  0.4802  0.2111 -0.8916
  789MOL0     C 6434   3.774   0.710   5.869 -0.3746 -0.3658 -0.2935
  789MOL0     C 6435   3.772   0.668   5.737 -0.5291 -0.3213  0.2447
  789MOL0     C 6436   3.675   0.717   5.657  0.6132 -0.4303  1.3637
  789MOL0     C 6437   3.585   0.817   5.695 -0.0059 -1.9134  0.1749
  789MOL0     O 6438   3.501   0.879   5.610 -0.5258  0.1900  0.0353
  789MOL0     C 6439   3.442   0.789   5.511  1.0001 -0.3159 -0.1747
  789MOL0     C 6440   3.288   0.825   5.520 -0.3343  0.7197  0.0235
  789MOL0     C 6441   3.266   0.970   5.496 -0.5321  0.6456 -0.7464
  789MOL0     C 6442   3.130   0.995   5.442 -0.2645 -0.4779  0.0543
  789MOL0     C 6443   3.034   0.982   5.547  1.1013 -0.6919  0.3609
  789MOL0     C 6444   2.944   0.952   5.625 -0.3182 -0.1792 -0.0268
  789MOL0     C 6445   3.598   0.870   5.823 -0.4530  0.1510 -0.0585
  789MOL0     C 6446   3.679   0.815   5.914 -0.7003  0.1142 -1.0762
  789MOL0     C 6447   3.694   0.877   6.051  0.3083 -0.5538 -0.4992
  789MOL0     H 6448   4.123   0.496   5.989 -4.7347  1.7297 -0.4513
  789MOL0     H 6449   4.281   0.400   6.174 -2.6897 -1.7515 -0.3854
  789MOL0     H 6450   4.264   0.547   6.589  0.8557  0.2099  1.5804
  789MOL0     H 6451   4.404   0.434   6.580  1.0921 -0.9187 -1.2829
  789MOL0     H 6452   4.371   0.734   6.567 -1.8797 -2.1325  0.3578
  789MOL0     H 6453   4.484   0.662   6.442 -1.5124 -2.0699 -1.2475
  789MOL0     H 6454   4.604   0.545   6.633 -0.2871  0.5633  0.3189
  789MOL0     H 6455   4.485   0.613   6.743  0.0545  1.6257 -0.4595
  789MOL0     H 6456   4.692   0.778   6.612  0.7213 -1.2964  0.3172
  789MOL0     H 6457   4.538   0.837   6.687 -0.9049 -1.8614  0.2603
  789MOL0     H 6458   4.595   0.737   6.897 -0.9744 -3.6712 -2.0181
  789MOL0     H 6459   4.735   0.657   6.830 -0.1755 -0.2176  4.8985
  789MOL0     H 6460   4.833   0.901   6.803 -1.7007 -2.9894 -2.1785
  789MOL0     H 6461   4.685   0.963   6.872  0.3594  1.0137 -2.6921
  789MOL0     H 6462   4.736   0.923   7.081  2.1565 -0.2051  2.5437
  789MOL0     H 6463   4.899   0.953   7.007  0.4887  0.0800 -3.0214
  789MOL0     H 6464   4.789   0.678   7.073  0.8142 -0.7745  2.0038
  789MOL0     H 6465   4.927   0.691   6.972  0.0409  1.8677 -1.0247
  789MOL0     H 6466   4.814   0.667   7.311 -0.6263  0.9264 -3.1315
  789MOL0     H 6467   5.109   0.679   7.557  1.7249  0.6808 -0.8357
  789MOL0     H 6468   4.935   0.691   7.570  1.7631  2.3108  0.5544
  789MOL0     H 6469   4.909   0.448   7.494  0.1937  0.1603  1.3908
  789MOL0     H 6470   5.060   0.455   7.400 -1.2013  0.3458 -1.1903
  789MOL0     H 6471   5.047   0.453   7.711  1.2794 -3.8769  2.3113
  789MOL0     H 6472   5.194   0.422   7.613  0.1642  1.4996 -0.4531
  789MOL0     H 6473   5.083   0.219   7.539 -1.4640 -0.4553  0.7563
  789MOL0     H 6474   4.930   0.264   7.595  0.1794 -0.6243 -0.2770
  789MOL0     H 6475   5.022   0.015   7.532  1.4856 -0.4921  0.1372
  789MOL0     H 6476   4.894  -0.180   7.532  0.7223  1.4304 -0.2147
  789MOL0     H 6477   4.645  -0.552   7.707  2.8373  2.2691 -0.7108
  789MOL0     H 6478   4.474  -0.707   7.632  3.2341 -0.7050 -2.2738
  789MOL0     H 6479   4.247  -0.756   7.603 -1.6079 -1.1007 -0.1304
  789MOL0     H 6480   4.163  -0.612   7.607  0.4096  1.8464  0.1305
  789MOL0     H 6481   4.092  -0.849   7.430  0.0311 -1.4181  2.0679
  789MOL0     H 6482   3.991  -0.759   7.549  0.8752 -2.1056 -0.1919
  789MOL0     H 6483   4.093  -0.622   7.294 -0.8216  3.0181 -0.7319
  789MOL0     H 6484   3.946  -0.717   7.290 -2.0859  2.5509  0.8086
  789MOL0     H 6485   3.975  -0.476   7.486 -0.7430 -0.3071  1.8124
  789MOL0     H 6486   3.836  -0.583   7.468  0.1050 -3.4377 -3.0834
  789MOL0     H 6487   3.788  -0.515   7.234 -2.4096  1.2921  1.7196
  789MOL0     H 6488   3.939  -0.403   7.242  0.0463  1.2295  1.4039
  789MOL0     H 6489   3.708  -0.366   7.427 -0.3766  0.1090 -0.1763
  789MOL0     H 6490   3.839  -0.261   7.392  1.2796  1.3691 -2.2573
  789MOL0     H 6491   3.604  -0.238   7.274 -0.8937  0.8492 -2.1635
  789MOL0     H 6492   3.671  -0.346   7.151  1.6530 -0.3867  0.8734
  789MOL0     H 6493   3.858  -0.185   7.119  0.2229 -0.4352 -1.1316
  789MOL0     H 6494   3.700  -0.121   7.079 -1.1489 -0.2288  0.6330
  789MOL0     H 6495   4.392  -0.429   7.309  2.6642 -1.5979 -2.1376
  789MOL0     H 6496   4.602  -0.309   7.375  0.0797  1.3923  1.4303
  789MOL0     H 6497   4.768  -0.128   7.940 -1.2170 -2.0219 -1.1944
  789MOL0     H 6498   4.910   0.085   7.946  4.5115  2.0885 -0.9543
  789MOL0     H 6499   4.147   0.700   6.438  2.0508  1.0736 -1.1610
  789MOL0     H 6500   4.011   0.798   6.250 -3.0397 -1.6195 -0.4529
  789MOL0     H 6501   3.843   0.593   5.701 -0.0239 -0.3440  1.2623
  789MOL0     H 6502   3.679   0.700   5.550 -1.6277  4.1806  0.2770
  789MOL0     H 6503   3.459   0.682   5.525  0.0156 -0.6856 -1.5911
  789MOL0     H 6504   3.487   0.831   5.421  2.3193 -0.6459  0.3104
  789MOL0     H 6505   3.227   0.785   5.602 -2.9172 -1.7592 -2.8823
  789MOL0     H 6506   3.252   0.762   5.438  2.1579 -0.3787 -0.3123
  789MOL0     H 6507   3.337   1.001   5.419 -0.2556  0.3558 -0.6157
  789MOL0     H 6508   3.280   1.031   5.585 -1.9086 -0.4047  0.2399
  789MOL0     H 6509   3.131   1.098   5.405  0.8520 -1.1519 -1.9729
  789MOL0     H 6510   3.111   0.930   5.356 -0.2337 -0.6960  0.2097
  789MOL0     H 6511   2.868   0.923   5.695  0.4513 -1.3140  0.3709
  789MOL0     H 6512   3.535   0.955   5.847 -0.9085  0.7081 -2.8249
  789MOL0     H 6513   3.749   0.808   6.116  1.9018  0.5148 -0.6775
  789MOL0     H 6514   3.741   0.975   6.048  1.6202 -1.0794  1.1994
  789MOL0     H 6515   3.593   0.883   6.094  0.5085 -5.5340  1.3357
  790MOL0     O 6516   7.048   1.595   1.420  0.4718  0.5913  0.4872
  790MOL0     C 6517   6.994   1.503   1.479  0.4214 -0.7053  0.0950
  790MOL0     O 6518   6.862   1.483   1.499 -0.6161 -0.6850  0.2194
  790MOL0     C 6519   6.791   1.598   1.491  0.3488 -0.4032  0.0472
  790MOL0     C 6520   6.730   1.617   1.374 -0.1606 -0.1096 -0.6125
  790MOL0     C 6521   6.649   1.728   1.358  0.3080 -1.0025  1.2566
  790MOL0     C 6522   6.638   1.833   1.453  0.4179 -0.6710  0.4833
  790MOL0     O 6523   6.568   1.943   1.418 -0.2581  0.8683  0.0496
  790MOL0     C 6524   6.560   2.055   1.504 -0.5664 -0.7510 -0.2019
  790MOL0     C 6525   6.535   2.176   1.410  0.3182 -0.8135  0.0156
  790MOL0     C 6526   6.565   2.319   1.469  0.1344  0.3802  0.1426
  790MOL0     C 6527   6.686   2.378   1.388  1.0200 -0.4980 -0.6305
  790MOL0     C 6528   6.729   2.517   1.440  0.5808  0.3334  0.4346
  790MOL0     C 6529   6.869   2.562   1.389 -0.2219  0.2704 -0.5503
  790MOL0     C 6530   6.865   2.567   1.239 -0.8080  0.5651 -0.0368
  790MOL0     C 6531   6.998   2.627   1.186  0.3300 -1.0993  0.0127
  790MOL0     N 6532   6.994   2.639   1.044  0.0320  0.4838 -0.6281
  790MOL0     C 6533   6.941   2.532   0.962 -0.1120 -0.6338  0.8339
  790MOL0     C 6534   6.989   2.566   0.837 -0.1768  0.0227 -0.4138
  790MOL0     C 6535   6.960   2.498   0.711 -0.2882  0.5389  0.0435
  790MOL0     C 6536   6.812   2.519   0.677  0.4640  0.0769  0.0126
  790MOL0     C 6537   6.767   2.475   0.536 -0.9696 -0.3320 -0.3575
  790MOL0     C 6538   6.617   2.489   0.510  0.2440 -0.3135  1.4683
  790MOL0     O 6539   6.597   2.627   0.530  0.7118 -0.0779 -0.3725
  790MOL0     C 6540   6.635   2.723   0.429  0.3549 -0.3339 -0.2144
  790MOL0     C 6541   6.648   2.702   0.294  0.0497  0.2693 -0.0396
  790MOL0     C 6542   6.684   2.809   0.212  0.6348 -0.1096 -0.0702
  790MOL0     C 6543   6.716   2.938   0.267  0.7684  0.8496 -0.6282
  790MOL0     C 6544   6.757   3.051   0.173  0.0753  0.4305 -0.3996
  790MOL0     O 6545   6.765   3.032   0.044 -0.5683 -0.3473  0.1750
  790MOL0     C 6546   6.815   3.132  -0.050 -0.7684 -0.3409  0.1360
  790MOL0     C 6547   6.807   3.277  -0.033  0.2498 -0.3255  0.4596
  790MOL0     C 6548   6.873   3.357  -0.130 -0.4791  0.0145 -0.4819
  790MOL0     C 6549   6.924   3.297  -0.243 -0.0465  0.5454 -0.8812
  790MOL0     O 6550   6.959   3.385  -0.341 -0.4017 -0.9056  0.0582
  790MOL0     C 6551   6.880   3.374  -0.458  0.1046  0.0160 -0.0085
  790MOL0     C 6552   6.872   3.518  -0.521  0.1517 -0.5572 -0.1235
  790MOL0     C 6553   6.986   3.521  -0.621  0.1266  0.5390 -0.0308
  790MOL0     C 6554   6.939   3.492  -0.765  1.1394 -0.7361 -0.0410
  790MOL0     C 6555   7.066   3.459  -0.842 -0.2926 -0.1830 -0.1104
  790MOL0     C 6556   7.046   3.412  -0.983 -0.0183 -1.0453 -0.9330
  790MOL0     C 6557   7.088   3.268  -0.997  0.4785 -0.1694 -0.7018
  790MOL0     C 6558   7.090   3.220  -1.141 -1.2482 -1.0247 -0.0041
  790MOL0    Cl 6559   7.195   3.329  -1.246  0.2549  0.4067 -0.1638
  790MOL0     C 6560   6.923   3.152  -0.258  0.0314 -0.1998 -0.3876
  790MOL0     C 6561   6.875   3.075  -0.161 -0.0832  0.7649 -0.3549
  790MOL0     O 6562   6.782   3.155   0.233  0.1625 -0.1602  0.1750
  790MOL0     C 6563   6.720   2.946   0.409  0.2715 -0.2086  0.2759
  790MOL0     C 6564   6.663   2.843   0.488 -0.0705 -0.0774 -1.0790
  790MOL0     N 6565   7.061   2.687   0.855  0.9853  0.4884 -0.2697
  790MOL0     N 6566   7.064   2.728   0.982  0.2041 -0.5901  0.1201
  790MOL0     C 6567   6.709   1.819   1.572  0.3031  0.1529  0.1942
  790MOL0     C 6568   6.783   1.700   1.586 -0.4256  0.1016  0.6126
  790MOL0     C 6569   7.082   1.400   1.534 -0.8539  0.7082 -0.0821
  790MOL0     C 6570   7.046   1.358   1.668 -0.0445  0.6074 -0.1355
  790MOL0     C 6571   7.115   1.260   1.735  0.1978 -0.8148  0.1731
  790MOL0     C 6572   7.246   1.216   1.685  0.0981  0.0091 -0.2736
  790MOL0     O 6573   7.333   1.128   1.752  0.5538  0.4092  0.1076
  790MOL0     C 6574   7.313   1.107   1.891 -0.4930 -0.7296 -0.3015
  790MOL0     C 6575   7.446   1.072   1.956  0.4496 -0.0713  0.6811
  790MOL0     C 6576   7.551   1.179   1.920 -0.4201  1.0194 -0.6725
  790MOL0     C 6577   7.679   1.135   1.991  0.0504  0.9830  0.2496
  790MOL0     C 6578   7.773   1.239   1.980 -0.5296 -0.8572 -0.1397
  790MOL0     C 6579   7.867   1.312   1.957  0.0584  0.3388  0.9817
  790MOL0     C 6580   7.284   1.255   1.553  0.5904  1.1622  1.1173
  790MOL0     C 6581   7.201   1.344   1.484  0.1709  0.1850 -0.6765
  790MOL0     C 6582   7.240   1.384   1.347 -0.7344 -0.3539  0.4680
  790MOL0     H 6583   6.746   1.536   1.304 -1.9150  0.9667 -2.3475
  790MOL0     H 6584   6.592   1.730   1.266  1.2845 -4.5371  0.4621
  790MOL0     H 6585   6.487   2.050   1.586 -1.3184 -0.6665 -0.8575
  790MOL0     H 6586   6.661   2.074   1.542 -1.1738  2.7544  0.0043
  790MOL0     H 6587   6.430   2.178   1.381  0.6707 -0.6224 -1.3188
  790MOL0     H 6588   6.592   2.163   1.318 -0.4039 -2.4484 -0.2430
  790MOL0     H 6589   6.579   2.304   1.576  1.7899  0.3933 -0.0471
  790MOL0     H 6590   6.475   2.379   1.456  0.3319  0.6314 -0.0646
  790MOL0     H 6591   6.776   2.317   1.396  1.4501  0.4367  3.6162
  790MOL0     H 6592   6.653   2.393   1.284 -0.1279  2.5168  0.0571
  790MOL0     H 6593   6.660   2.601   1.433 -0.1733 -0.2395  0.8759
  790MOL0     H 6594   6.734   2.495   1.547 -0.6856 -3.4762 -0.1458
  790MOL0     H 6595   6.892   2.658   1.435  1.4750 -0.8646  1.1627
  790MOL0     H 6596   6.952   2.490   1.396 -1.0200 -0.6994 -0.7570
  790MOL0     H 6597   6.779   2.624   1.203 -1.2750  0.3830  0.7630
  790MOL0     H 6598   6.875   2.465   1.201  0.2529  0.0220  1.5754
  790MOL0     H 6599   7.012   2.720   1.242 -2.4503 -0.5705 -0.0013
  790MOL0     H 6600   7.086   2.571   1.219  2.4552  1.3034 -1.1733
  790MOL0     H 6601   6.871   2.451   0.980 -0.7066 -0.0686  1.1047
  790MOL0     H 6602   7.008   2.545   0.625 -3.7026  0.1926 -2.2523
  790MOL0     H 6603   6.988   2.393   0.721 -0.7586  0.3324 -0.7177
  790MOL0     H 6604   6.762   2.457   0.751 -0.2744  0.6921  0.0391
  790MOL0     H 6605   6.775   2.620   0.697 -2.7746 -0.6239 -1.7480
  790MOL0     H 6606   6.783   2.369   0.515  0.8759  0.1768 -1.8013
  790MOL0     H 6607   6.820   2.534   0.461 -0.1169  1.4520  1.5619
  790MOL0     H 6608   6.569   2.433   0.591 -0.9832 -3.8101 -1.3631
  790MOL0     H 6609   6.593   2.466   0.406 -3.3403  3.3416  1.2355
  790MOL0     H 6610   6.623   2.609   0.244 -2.5382  0.7424  0.2139
  790MOL0     H 6611   6.684   2.788   0.105 -3.2115  0.3701 -0.2939
  790MOL0     H 6612   6.752   3.325   0.046  0.9789  1.8628 -0.2949
  790MOL0     H 6613   6.859   3.465  -0.133 -0.3913  0.0519  0.4221
  790MOL0     H 6614   6.909   3.292  -0.524 -2.2522 -0.0677 -1.0249
  790MOL0     H 6615   6.778   3.355  -0.425  0.1402  0.9319  0.6602
  790MOL0     H 6616   6.776   3.543  -0.567  0.1165  0.7215  0.5929
  790MOL0     H 6617   6.873   3.600  -0.449 -0.5369 -0.5127 -0.1661
  790MOL0     H 6618   7.023   3.624  -0.625  1.2876  0.0993 -1.2602
  790MOL0     H 6619   7.078   3.467  -0.594  1.4904  2.2314 -1.1015
  790MOL0     H 6620   6.888   3.576  -0.814  0.6385 -3.8044 -5.6579
  790MOL0     H 6621   6.864   3.413  -0.771  0.0562  0.3054 -0.7052
  790MOL0     H 6622   7.140   3.396  -0.791 -0.5309  0.3905  0.9499
  790MOL0     H 6623   7.117   3.556  -0.843  2.6526 -1.5607  1.7856
  790MOL0     H 6624   6.941   3.425  -1.011 -0.4932 -3.4021 -0.4089
  790MOL0     H 6625   7.106   3.479  -1.045  0.9741  0.2189  1.2847
  790MOL0     H 6626   7.026   3.204  -0.933 -0.2438  0.6694 -0.5385
  790MOL0     H 6627   7.182   3.253  -0.943  0.7012  2.8573 -0.0915
  790MOL0     H 6628   7.121   3.115  -1.137 -0.2930 -0.7543  0.0733
  790MOL0     H 6629   6.991   3.222  -1.187 -0.8207 -2.5917 -1.0777
  790MOL0     H 6630   6.976   3.113  -0.345  1.4735 -1.1842  0.8754
  790MOL0     H 6631   6.875   2.967  -0.172  0.4530  0.3402  2.8814
  790MOL0     H 6632   6.743   3.034   0.468 -1.1017 -0.9998  2.1181
  790MOL0     H 6633   6.644   2.843   0.595 -1.4843  0.8260 -1.3018
  790MOL0     H 6634   6.702   1.887   1.657 -0.7056 -1.2387  1.2569
  790MOL0     H 6635   6.830   1.685   1.683  4.3206 -2.6000 -1.7550
  790MOL0     H 6636   6.962   1.398   1.724  1.5888 -0.4847  3.3618
  790MOL0     H 6637   7.076   1.232   1.832  1.1031 -0.0875  0.7631
  790MOL0     H 6638   7.239   1.028   1.908 -1.1290 -0.3448 -1.1805
  790MOL0     H 6639   7.271   1.198   1.935 -0.2444  0.4470 -2.3572
  790MOL0     H 6640   7.485   0.979   1.914 -2.8356 -1.3266  0.1452
  790MOL0     H 6641   7.428   1.051   2.062  0.7409  1.5169  1.0795
  790MOL0     H 6642   7.528   1.283   1.944  0.0491  1.5156 -2.2328
  790MOL0     H 6643   7.578   1.182   1.814  1.9113 -1.1648 -0.2519
  790MOL0     H 6644   7.664   1.113   2.097 -2.2012  1.7133  0.1386
  790MOL0     H 6645   7.708   1.045   1.936 -3.2947  0.9600 -1.7474
  790MOL0     H 6646   7.941   1.386   1.935 -0.5094  0.4700 -0.6097
  790MOL0     H 6647   7.372   1.217   1.503 -0.5465  0.3981 -0.3864
  790MOL0     H 6648   7.293   1.479   1.361  1.0331 -1.0503 -1.1058
  790MOL0     H 6649   7.308   1.317   1.294  0.9622  2.4227 -1.0855
  790MOL0     H 6650   7.164   1.408   1.271  2.7162  1.1021 -2.8226
  791MOL0     O 6651   8.363   6.335   5.611  0.2369  0.2426  0.3303
  791MOL0     C 6652   8.303   6.247   5.667  0.2610 -0.0221 -0.2788
  791MOL0     O 6653   8.276   6.255   5.794  0.9792 -0.2941 -0.3767
  791MOL0     C 6654   8.314   6.360   5.874 -2.3014 -0.0259  0.0143
  791MOL0     C 6655   8.313   6.490   5.843  0.4122 -0.9798  0.9668
  791MOL0     C 6656   8.346   6.597   5.929 -0.8732  0.1806  0.5554
  791MOL0     C 6657   8.390   6.567   6.054 -0.6912 -0.4920  0.9547
  791MOL0     O 6658   8.414   6.662   6.149  0.0884 -0.6752  0.1344
  791MOL0     C 6659   8.486   6.780   6.123 -0.1384  0.1489 -1.0815
  791MOL0     C 6660   8.625   6.752   6.053 -0.0493 -0.5381  0.1628
  791MOL0     C 6661   8.692   6.882   6.017  0.9648  0.4196 -0.2223
  791MOL0     C 6662   8.737   6.963   6.139 -0.8910 -0.1249  0.2814
  791MOL0     C 6663   8.783   7.103   6.083  0.8410  1.1444 -0.8187
  791MOL0     C 6664   8.895   7.162   6.157 -0.4115  0.0864  0.4318
  791MOL0     C 6665   8.934   7.291   6.091 -0.4136 -1.1105 -0.8310
  791MOL0     C 6666   9.076   7.321   6.126 -0.6646 -0.1004  0.6736
  791MOL0     N 6667   9.071   7.347   6.266  0.1225 -0.4775  0.6576
  791MOL0     C 6668   9.094   7.473   6.308 -0.8349  0.2057 -0.3119
  791MOL0     C 6669   9.131   7.474   6.439 -0.8562 -0.9484  0.2670
  791MOL0     C 6670   9.143   7.597   6.529  0.0717  0.4907 -0.2104
  791MOL0     C 6671   9.072   7.583   6.663 -0.1864  0.1479 -0.1559
  791MOL0     C 6672   9.154   7.506   6.768 -0.1340  0.3168  0.9221
  791MOL0     C 6673   9.085   7.499   6.899 -0.3636 -0.1736 -0.6487
  791MOL0     O 6674   8.958   7.439   6.930  0.0383  1.2255  0.8967
  791MOL0     C 6675   8.961   7.314   6.985  0.2672  0.0149 -0.3053
  791MOL0     C 6676   9.002   7.280   7.116  0.5383 -0.1485 -0.3774
  791MOL0     C 6677   8.977   7.148   7.170 -0.7693 -0.2251  0.1392
  791MOL0     C 6678   8.930   7.045   7.084 -0.0260  0.0628 -0.4459
  791MOL0     C 6679   8.890   6.904   7.132  0.4861  0.8930 -0.4997
  791MOL0     O 6680   8.860   6.811   7.036 -0.6270  0.8805 -0.0635
  791MOL0     C 6681   8.895   6.677   7.033  0.7463 -0.7581 -0.8247
  791MOL0     C 6682   8.982   6.618   7.123  0.0871  0.2980 -0.2397
  791MOL0     C 6683   8.990   6.478   7.117 -0.5751  0.5529 -0.0160
  791MOL0     C 6684   8.921   6.400   7.017 -0.5151  0.2002  0.9921
  791MOL0     O 6685   8.941   6.266   6.997  0.0614  0.1169  0.0751
  791MOL0     C 6686   8.994   6.184   7.105  1.2056 -0.2756  0.0800
  791MOL0     C 6687   9.136   6.139   7.083 -0.4980 -0.0261 -0.7943
  791MOL0     C 6688   9.180   6.032   7.187 -0.2869 -0.6345 -0.6862
  791MOL0     C 6689   9.316   5.970   7.151 -0.5256 -0.8658 -0.1825
  791MOL0     C 6690   9.362   5.881   7.269 -0.2263 -0.3384 -0.1907
  791MOL0     C 6691   9.493   5.811   7.241  0.9772  0.5580  0.7839
  791MOL0     C 6692   9.567   5.745   7.360  0.0725 -1.2733  0.0036
  791MOL0     C 6693   9.707   5.707   7.317 -1.0239  0.6109 -0.0683
  791MOL0    Cl 6694   9.704   5.551   7.233 -0.0210  0.0470  0.5627
  791MOL0     C 6695   8.842   6.466   6.923  0.7038  0.7304  0.5204
  791MOL0     C 6696   8.825   6.604   6.935 -0.0858 -0.6352 -0.3175
  791MOL0     O 6697   8.927   6.877   7.251  0.1350 -0.8286 -0.2303
  791MOL0     C 6698   8.904   7.080   6.948 -0.0341 -0.6344  1.0906
  791MOL0     C 6699   8.915   7.215   6.893  0.0464  0.4520 -0.1437
  791MOL0     N 6700   9.130   7.341   6.475 -0.3972 -0.0688  0.1627
  791MOL0     N 6701   9.099   7.269   6.373  0.2469  0.6836  0.8567
  791MOL0     C 6702   8.382   6.429   6.092 -0.1624 -0.0029  0.1907
  791MOL0     C 6703   8.352   6.327   6.003 -1.1101  0.3649  0.3995
  791MOL0     C 6704   8.243   6.133   5.577  0.0782 -0.4484 -0.3281
  791MOL0     C 6705   8.114   6.080   5.609  0.5515 -1.2020  0.2725
  791MOL0     C 6706   8.058   5.986   5.529  0.3430 -0.0481  0.3728
  791MOL0     C 6707   8.119   5.956   5.410  0.8838 -0.9571 -0.0943
  791MOL0     O 6708   8.050   5.876   5.329 -0.9827  0.1445  1.0279
  791MOL0     C 6709   8.115   5.750   5.296  1.5681 -0.1022  0.8170
  791MOL0     C 6710   8.127   5.762   5.154  0.5213  0.3475 -0.5736
  791MOL0     C 6711   8.198   5.651   5.094 -0.4527 -0.0459  0.0707
  791MOL0     C 6712   8.097   5.537   5.060 -0.1450 -0.3548 -0.2169
  791MOL0     C 6713   7.991   5.568   4.948 -0.7637 -0.4477 -0.2977
  791MOL0     C 6714   7.921   5.604   4.859 -0.3072  0.1542  0.8235
  791MOL0     C 6715   8.234   6.020   5.373 -0.0456  0.9885 -0.4133
  791MOL0     C 6716   8.307   6.105   5.454  0.1033 -0.6041 -0.4781
  791MOL0     C 6717   8.461   6.144   5.421  0.3814 -0.8832 -1.1417
  791MOL0     H 6718   8.265   6.513   5.749  3.5848  1.8858 -0.1529
  791MOL0     H 6719   8.328   6.701   5.906 -2.4222 -0.2688 -0.5030
  791MOL0     H 6720   8.433   6.851   6.060  1.7491 -1.2496 -4.5538
  791MOL0     H 6721   8.521   6.828   6.214 -2.0642  3.2834 -1.8592
  791MOL0     H 6722   8.606   6.704   5.957  2.8811 -3.0706  0.6909
  791MOL0     H 6723   8.681   6.692   6.125 -0.1624  0.6828  1.3054
  791MOL0     H 6724   8.621   6.944   5.961  2.7546  2.3935 -0.4361
  791MOL0     H 6725   8.778   6.862   5.952  2.7571  3.7156  0.8973
  791MOL0     H 6726   8.657   6.980   6.212  0.9948 -1.7976  2.9181
  791MOL0     H 6727   8.826   6.928   6.191 -0.2669  3.0679  1.6596
  791MOL0     H 6728   8.833   7.081   5.988  1.7081 -3.7503  0.4802
  791MOL0     H 6729   8.695   7.164   6.065 -0.3292  0.0307  0.8644
  791MOL0     H 6730   8.895   7.166   6.266  0.6491  0.6105  0.4288
  791MOL0     H 6731   8.976   7.092   6.138  0.6301  1.4501 -0.3165
  791MOL0     H 6732   8.867   7.365   6.136 -3.7180 -3.6529 -1.1648
  791MOL0     H 6733   8.908   7.299   5.986  3.0649  0.9815 -1.6899
  791MOL0     H 6734   9.143   7.236   6.110 -2.7090 -1.4327 -1.4697
  791MOL0     H 6735   9.111   7.411   6.075  1.2893  0.2800  2.5338
  791MOL0     H 6736   9.083   7.566   6.254  2.5106  1.3697  0.7903
  791MOL0     H 6737   9.247   7.630   6.534  0.1715  0.1166  0.3193
  791MOL0     H 6738   9.087   7.679   6.484 -1.6111 -0.4961 -0.0265
  791MOL0     H 6739   9.068   7.689   6.690 -0.9859 -0.2222  1.2722
  791MOL0     H 6740   8.974   7.537   6.643 -0.0480  0.0101 -0.5303
  791MOL0     H 6741   9.254   7.548   6.774 -0.4565  1.6623 -1.5886
  791MOL0     H 6742   9.157   7.402   6.735  2.6738  0.8107 -0.6588
  791MOL0     H 6743   9.072   7.601   6.938 -0.7548 -1.0222  1.6431
  791MOL0     H 6744   9.159   7.452   6.964 -1.2539 -1.8276 -0.7688
  791MOL0     H 6745   9.054   7.353   7.177  2.6928 -0.2442 -1.9806
  791MOL0     H 6746   8.982   7.144   7.278  1.0857 -0.4666  0.0729
  791MOL0     H 6747   9.050   6.663   7.195 -0.9980  3.0190 -0.7825
  791MOL0     H 6748   9.062   6.420   7.173  0.1185  2.0016  0.6445
  791MOL0     H 6749   8.987   6.239   7.199  1.8813 -0.0053 -0.0208
  791MOL0     H 6750   8.939   6.090   7.116  2.4963 -1.0287  0.3332
  791MOL0     H 6751   9.158   6.107   6.981 -0.7626  0.7200 -1.0950
  791MOL0     H 6752   9.201   6.226   7.095 -2.2706  1.1670  0.7466
  791MOL0     H 6753   9.175   6.083   7.283  0.6959 -0.2124 -0.8490
  791MOL0     H 6754   9.112   5.946   7.190 -0.2169 -0.7504 -1.9665
  791MOL0     H 6755   9.392   6.048   7.135  0.8782 -1.8467  1.3618
  791MOL0     H 6756   9.295   5.914   7.060 -0.3467  2.4849 -2.4911
  791MOL0     H 6757   9.281   5.810   7.287  0.6377 -1.6258 -1.2394
  791MOL0     H 6758   9.378   5.942   7.359  1.3171 -1.2859  0.2202
  791MOL0     H 6759   9.468   5.742   7.160  1.8997  0.2169  0.7784
  791MOL0     H 6760   9.562   5.882   7.193  0.5318 -0.4530 -1.4833
  791MOL0     H 6761   9.494   5.668   7.387 -0.3273 -1.1255 -0.6151
  791MOL0     H 6762   9.565   5.802   7.453 -2.9503 -0.2425 -0.5635
  791MOL0     H 6763   9.753   5.783   7.254  4.4541 -1.3130  1.0908
  791MOL0     H 6764   9.769   5.705   7.407 -3.7880  2.3815  2.0644
  791MOL0     H 6765   8.784   6.421   6.843 -2.2498  1.6875  1.9545
  791MOL0     H 6766   8.762   6.657   6.865 -1.8059 -2.4856 -0.2428
  791MOL0     H 6767   8.846   7.008   6.892 -0.4212 -0.6317  1.4799
  791MOL0     H 6768   8.876   7.249   6.798 -2.3684  3.2686  1.6700
  791MOL0     H 6769   8.406   6.405   6.195  1.6708  1.7757  0.2502
  791MOL0     H 6770   8.362   6.225   6.037 -1.9824  0.8326  2.1506
  791MOL0     H 6771   8.052   6.138   5.677 -0.2532  1.5738 -2.5997
  791MOL0     H 6772   7.954   5.957   5.543  0.2086  0.6357  0.9016
  791MOL0     H 6773   8.062   5.662   5.334 -1.4826  2.1943  2.3667
  791MOL0     H 6774   8.214   5.752   5.342  1.8153  2.7695  0.3166
  791MOL0     H 6775   8.176   5.856   5.129  2.8386 -0.4135  0.7678
  791MOL0     H 6776   8.028   5.764   5.109  0.6428 -1.8065 -1.0784
  791MOL0     H 6777   8.275   5.600   5.153  1.2660  0.6877 -1.4051
  791MOL0     H 6778   8.246   5.696   5.006 -1.3471  2.2752  0.6875
  791MOL0     H 6779   8.152   5.449   5.025  0.8259 -1.2885  3.2491
  791MOL0     H 6780   8.037   5.515   5.149 -0.7082  1.2716 -0.1670
  791MOL0     H 6781   7.858   5.646   4.783  0.6635 -0.7042 -0.5174
  791MOL0     H 6782   8.276   6.000   5.275 -3.0707 -0.4952 -1.5472
  791MOL0     H 6783   8.474   6.237   5.365 -5.7968 -0.8692 -3.3806
  791MOL0     H 6784   8.516   6.142   5.516 -2.2561 -3.8341  0.5424
  791MOL0     H 6785   8.495   6.055   5.367 -1.5581 -1.3416 -1.6774
  792MOL0     O 6786  11.253   3.241   4.573 -0.1554 -0.6862 -0.4082
  792MOL0     C 6787  11.327   3.206   4.653  0.1942  0.3393  0.1462
  792MOL0     O 6788  11.298   3.105   4.742  0.6308 -0.4364  0.4607
  792MOL0     C 6789  11.185   3.018   4.750  0.3606 -0.5795 -0.8824
  792MOL0     C 6790  11.065   3.043   4.681 -0.5402  0.1887 -1.3534
  792MOL0     C 6791  10.961   2.951   4.707  0.5746  0.6709 -0.0148
  792MOL0     C 6792  10.975   2.831   4.775 -0.2696  0.7126 -0.4820
  792MOL0     O 6793  10.869   2.741   4.787  0.0346 -1.0385 -0.7543
  792MOL0     C 6794  10.775   2.731   4.688 -0.2629  0.0790 -0.0232
  792MOL0     C 6795  10.691   2.612   4.715 -0.6471  0.5802 -0.0147
  792MOL0     C 6796  10.775   2.494   4.690  0.3677  1.3693  0.8287
  792MOL0     C 6797  10.706   2.376   4.752 -0.3455 -0.9937  0.1531
  792MOL0     C 6798  10.791   2.247   4.734  0.4952  0.6605 -0.3855
  792MOL0     C 6799  10.721   2.116   4.775  0.6444 -0.2207  0.0715
  792MOL0     C 6800  10.791   2.004   4.710  0.5448 -0.4494 -0.3420
  792MOL0     C 6801  10.711   1.881   4.752 -0.1682  0.1640 -0.8425
  792MOL0     N 6802  10.771   1.759   4.699 -0.0499 -0.0567 -0.4682
  792MOL0     C 6803  10.904   1.744   4.662 -0.0514  1.3016 -0.4022
  792MOL0     C 6804  10.905   1.618   4.617 -0.3912  0.0100  0.3684
  792MOL0     C 6805  11.034   1.556   4.563 -1.1864  0.1037  0.4970
  792MOL0     C 6806  11.030   1.410   4.530 -0.5941  0.1035  0.4383
  792MOL0     C 6807  10.953   1.372   4.405  0.7355  0.5769  0.8312
  792MOL0     C 6808  10.944   1.221   4.384 -0.8268 -0.0562 -0.3475
  792MOL0     O 6809  11.065   1.168   4.340  0.1445 -1.1192 -0.0398
  792MOL0     C 6810  11.077   1.034   4.354  0.3287  0.3553  0.0835
  792MOL0     C 6811  10.974   0.941   4.381  0.4678  0.2036 -0.9757
  792MOL0     C 6812  11.010   0.804   4.392 -0.1707  0.2831  1.0131
  792MOL0     C 6813  11.142   0.769   4.377  0.2151  0.4094  0.2809
  792MOL0     C 6814  11.193   0.625   4.389 -0.1946 -0.1721 -0.1003
  792MOL0     O 6815  11.092   0.533   4.433 -0.6527  0.2309 -0.3457
  792MOL0     C 6816  11.130   0.409   4.476  1.0318  0.3081  0.3023
  792MOL0     C 6817  11.225   0.321   4.421 -0.4109  0.1538 -0.0735
  792MOL0     C 6818  11.235   0.192   4.484 -0.0284 -0.2784 -0.5060
  792MOL0     C 6819  11.167   0.159   4.602  0.4306 -0.1410  0.5450
  792MOL0     O 6820  11.178   0.029   4.659  1.2906 -0.3069  0.3611
  792MOL0     C 6821  11.165  -0.089   4.572 -0.7374  0.4742  0.4441
  792MOL0     C 6822  11.099  -0.205   4.647  0.4190  0.7816  0.0605
  792MOL0     C 6823  11.071  -0.336   4.562 -0.3886 -1.2857 -0.9859
  792MOL0     C 6824  11.196  -0.419   4.582  0.4644 -0.4735 -0.6495
  792MOL0     C 6825  11.160  -0.551   4.508 -0.8790  0.7951  0.5433
  792MOL0     C 6826  11.231  -0.672   4.563  0.4924 -0.2691  0.9156
  792MOL0     C 6827  11.287  -0.772   4.461  0.3782  0.0359 -0.9005
  792MOL0     C 6828  11.354  -0.894   4.518 -0.8866 -0.3749 -1.2550
  792MOL0    Cl 6829  11.367  -1.040   4.415 -0.0502  0.1427  0.0060
  792MOL0     C 6830  11.081   0.251   4.649 -0.2054 -0.5248  1.2236
  792MOL0     C 6831  11.053   0.379   4.591 -0.0300 -0.6329  0.2603
  792MOL0     O 6832  11.311   0.605   4.373 -0.2633  0.2039  0.5612
  792MOL0     C 6833  11.237   0.862   4.338 -0.0381 -0.9451 -0.4013
  792MOL0     C 6834  11.207   0.991   4.317  1.0327 -0.2012 -0.9282
  792MOL0     N 6835  10.783   1.554   4.637  0.5013 -0.4333 -0.5262
  792MOL0     N 6836  10.712   1.637   4.700  0.6082  0.0136  0.1963
  792MOL0     C 6837  11.094   2.812   4.841  0.6782 -0.7244  0.4843
  792MOL0     C 6838  11.202   2.906   4.834 -0.2728  0.2296  0.9251
  792MOL0     C 6839  11.461   3.264   4.653  0.1292 -0.0820 -0.5205
  792MOL0     C 6840  11.508   3.315   4.527 -0.6553  0.4378  0.3765
  792MOL0     C 6841  11.611   3.398   4.522 -0.3596  0.0762 -0.2776
  792MOL0     C 6842  11.672   3.439   4.642 -0.1517  0.2214 -0.2838
  792MOL0     O 6843  11.775   3.520   4.618 -0.5262  0.1452 -0.4463
  792MOL0     C 6844  11.834   3.589   4.735  0.3289 -0.0238 -0.1533
  792MOL0     C 6845  11.947   3.674   4.687 -0.0101  0.8880 -0.0540
  792MOL0     C 6846  11.918   3.778   4.573 -0.0675  0.9712 -0.2531
  792MOL0     C 6847  11.784   3.860   4.591 -0.4929 -0.4075  0.4375
  792MOL0     C 6848  11.747   3.938   4.472 -0.5048 -0.0850 -0.5917
  792MOL0     C 6849  11.695   3.991   4.379  0.7654 -0.1013  0.0508
  792MOL0     C 6850  11.634   3.378   4.765 -0.1582  0.0761 -0.0892
  792MOL0     C 6851  11.528   3.299   4.774  0.9078  0.2439 -0.2400
  792MOL0     C 6852  11.498   3.232   4.906 -0.0992  0.2785 -0.2507
  792MOL0     H 6853  11.046   3.129   4.618 -0.9236  1.6853  0.6829
  792MOL0     H 6854  10.866   2.982   4.664  0.7261  0.1292 -0.7724
  792MOL0     H 6855  10.707   2.817   4.688 -0.4657 -0.0433 -1.6975
  792MOL0     H 6856  10.816   2.709   4.589  1.6022 -1.5847  1.0250
  792MOL0     H 6857  10.606   2.610   4.647  0.9142 -0.5854 -2.0572
  792MOL0     H 6858  10.652   2.613   4.817  0.9478  2.8853  0.6598
  792MOL0     H 6859  10.879   2.493   4.725  0.8743  2.6409 -0.5232
  792MOL0     H 6860  10.771   2.472   4.583  3.1036 -1.1216  1.1073
  792MOL0     H 6861  10.691   2.400   4.858  0.6467 -1.1298  0.3307
  792MOL0     H 6862  10.604   2.361   4.714 -1.2271  0.1268  1.9530
  792MOL0     H 6863  10.801   2.238   4.625 -1.4679 -2.1816 -0.4476
  792MOL0     H 6864  10.887   2.252   4.785 -0.6228  0.7448  1.8244
  792MOL0     H 6865  10.717   2.106   4.884  0.1423 -1.8014 -0.0674
  792MOL0     H 6866  10.621   2.125   4.731  0.0160  0.0307  1.4954
  792MOL0     H 6867  10.897   1.995   4.735  0.2620 -1.4567  0.5988
  792MOL0     H 6868  10.779   2.011   4.602 -3.3640 -2.5286 -0.2440
  792MOL0     H 6869  10.703   1.872   4.861 -1.3484  1.6367 -0.7705
  792MOL0     H 6870  10.610   1.898   4.714 -0.5539 -2.0200 -0.9220
  792MOL0     H 6871  10.990   1.810   4.668  0.3303  0.6825  3.3477
  792MOL0     H 6872  11.065   1.605   4.470 -1.0014  2.9716  1.9497
  792MOL0     H 6873  11.119   1.571   4.630 -1.0223 -1.0389  0.5595
  792MOL0     H 6874  11.135   1.386   4.512 -0.1997  1.1233  1.2792
  792MOL0     H 6875  10.998   1.353   4.618 -0.9644  1.1435  0.9932
  792MOL0     H 6876  11.007   1.408   4.317  3.3776  0.1795  2.1823
  792MOL0     H 6877  10.849   1.405   4.416  0.8556  0.7229  1.6549
  792MOL0     H 6878  10.856   1.189   4.328 -2.7033  0.6902  2.0029
  792MOL0     H 6879  10.932   1.181   4.485  1.8100 -2.0681 -0.7140
  792MOL0     H 6880  10.875   0.973   4.411 -0.1832 -0.1073 -2.6389
  792MOL0     H 6881  10.937   0.731   4.426  0.7165 -0.7990  0.6497
  792MOL0     H 6882  11.284   0.343   4.332 -1.5346 -0.1875 -0.9273
  792MOL0     H 6883  11.310   0.122   4.446  0.9303  0.4305  0.0206
  792MOL0     H 6884  11.101  -0.059   4.489  0.6479  2.3724 -0.0085
  792MOL0     H 6885  11.264  -0.123   4.541  0.3707 -0.3928  4.4180
  792MOL0     H 6886  11.168  -0.229   4.729 -0.9349  0.2270  1.0841
  792MOL0     H 6887  11.002  -0.172   4.685  1.3972 -0.6235  4.4155
  792MOL0     H 6888  10.982  -0.390   4.596  0.2309 -0.9007  1.4342
  792MOL0     H 6889  11.048  -0.306   4.460 -0.1450  1.0258 -0.4173
  792MOL0     H 6890  11.218  -0.433   4.688 -1.3365  2.5910  0.2655
  792MOL0     H 6891  11.283  -0.366   4.541 -0.6855  0.5956 -1.8014
  792MOL0     H 6892  11.180  -0.535   4.401 -0.0108  0.8744  0.7141
  792MOL0     H 6893  11.054  -0.581   4.510 -0.0961 -3.7245 -4.1521
  792MOL0     H 6894  11.325  -0.633   4.604  1.9610 -1.3655 -1.1886
  792MOL0     H 6895  11.158  -0.707   4.637 -0.0279  2.2532  1.6655
  792MOL0     H 6896  11.346  -0.707   4.396 -2.1459  1.8430 -1.5111
  792MOL0     H 6897  11.203  -0.797   4.395 -1.1241  2.6808 -0.1048
  792MOL0     H 6898  11.452  -0.859   4.552 -1.1510 -0.5735 -0.2631
  792MOL0     H 6899  11.304  -0.929   4.608  0.1379 -0.0928 -0.5612
  792MOL0     H 6900  11.029   0.209   4.735  2.3542 -3.6786  1.4388
  792MOL0     H 6901  10.975   0.435   4.642 -0.1253  1.3531 -1.8632
  792MOL0     H 6902  11.339   0.838   4.310  0.6808  0.4651  0.8351
  792MOL0     H 6903  11.293   1.052   4.290  1.4895 -0.7035 -0.6248
  792MOL0     H 6904  11.111   2.716   4.889 -0.7985 -1.8863 -1.1919
  792MOL0     H 6905  11.298   2.893   4.883 -0.1005  1.3592  0.9113
  792MOL0     H 6906  11.462   3.288   4.432 -1.3842  3.2495 -0.1548
  792MOL0     H 6907  11.667   3.429   4.434 -0.3435  1.6143  0.2440
  792MOL0     H 6908  11.880   3.510   4.795 -1.5635 -1.0504 -0.0042
  792MOL0     H 6909  11.763   3.645   4.795  2.6958  0.7608  2.1029
  792MOL0     H 6910  12.029   3.605   4.663 -2.0407 -1.8448  0.3967
  792MOL0     H 6911  11.993   3.710   4.780  1.6994 -5.3007  2.0349
  792MOL0     H 6912  11.892   3.719   4.485 -5.4929 -1.1565  2.3170
  792MOL0     H 6913  12.013   3.833   4.566  0.1615  0.6648  0.3691
  792MOL0     H 6914  11.708   3.782   4.597 -0.0853 -1.2658 -3.1558
  792MOL0     H 6915  11.789   3.915   4.686  2.1653  1.7581 -0.7949
  792MOL0     H 6916  11.643   4.031   4.295  1.4921 -1.0439 -0.8751
  792MOL0     H 6917  11.694   3.400   4.853  0.6564  2.2484 -1.1117
  792MOL0     H 6918  11.550   3.291   4.981  1.4716  4.8209 -4.3663
  792MOL0     H 6919  11.395   3.209   4.935  0.5999 -1.8644  0.7274
  792MOL0     H 6920  11.526   3.127   4.888  2.2332  1.0995 -1.9211
  793MOL0     O 6921   1.149   9.350   0.422 -0.8926  0.3850  0.2914
  793MOL0     C 6922   1.270   9.331   0.392  0.8636  0.5472 -0.1155
  793MOL0     O 6923   1.376   9.407   0.426 -0.2560 -0.2036 -0.1753
  793MOL0     C 6924   1.341   9.535   0.451  1.8282 -0.7998 -0.1504
  793MOL0     C 6925   1.291   9.632   0.367 -0.8896 -0.9583 -0.0464
  793MOL0     C 6926   1.263   9.766   0.407 -0.4767 -0.3523  0.1239
  793MOL0     C 6927   1.299   9.801   0.537 -0.3036 -0.5166 -0.9563
  793MOL0     O 6928   1.265   9.933   0.576  0.3982  0.3016  0.4158
  793MOL0     C 6929   1.376  10.024   0.578  0.1613  0.1302  0.4425
  793MOL0     C 6930   1.331  10.140   0.666  0.0086  0.4892  0.1493
  793MOL0     C 6931   1.270  10.101   0.801  0.3228 -0.0087  0.3494
  793MOL0     C 6932   1.247  10.224   0.895  0.5775  0.9080 -0.6264
  793MOL0     C 6933   1.196  10.341   0.830  0.1681 -0.0650  0.0278
  793MOL0     C 6934   1.167  10.438   0.939 -0.0469  0.2848 -0.2157
  793MOL0     C 6935   1.146  10.579   0.902 -0.7310 -0.7806  0.0060
  793MOL0     C 6936   1.034  10.610   0.797  0.1542 -1.0289 -0.3416
  793MOL0     N 6937   0.911  10.650   0.869  0.2906  1.0772  1.3620
  793MOL0     C 6938   0.844  10.581   0.972 -0.0951 -0.5079 -0.2253
  793MOL0     C 6939   0.727  10.652   0.989 -0.8793  0.3094 -0.4415
  793MOL0     C 6940   0.608  10.608   1.076  1.7073  0.7233  0.3584
  793MOL0     C 6941   0.545  10.707   1.176 -0.0278 -1.3227  0.3233
  793MOL0     C 6942   0.427  10.642   1.245  1.0449  0.3041  0.7867
  793MOL0     C 6943   0.458  10.623   1.399  0.0012 -0.0213  0.5529
  793MOL0     O 6944   0.585  10.552   1.406 -0.2043  0.2969  0.3238
  793MOL0     C 6945   0.690  10.601   1.472  0.3042 -0.9646 -1.5142
  793MOL0     C 6946   0.799  10.514   1.507 -0.7029  0.4286  0.6415
  793MOL0     C 6947   0.904  10.555   1.586 -0.6764  0.2988  0.6534
  793MOL0     C 6948   0.913  10.685   1.638 -0.4350  0.0576 -0.0774
  793MOL0     C 6949   1.027  10.734   1.709 -0.0327 -0.2267 -0.3497
  793MOL0     O 6950   1.122  10.639   1.722  0.1608  0.7945 -0.3366
  793MOL0     C 6951   1.249  10.673   1.757 -0.4799  0.3805  0.2091
  793MOL0     C 6952   1.324  10.741   1.658  0.1574 -0.1251 -0.9783
  793MOL0     C 6953   1.450  10.796   1.681  0.3041  0.9485 -0.4584
  793MOL0     C 6954   1.512  10.779   1.809  0.0294 -0.6517  0.5933
  793MOL0     O 6955   1.644  10.823   1.827  0.2783 -0.2860 -0.0303
  793MOL0     C 6956   1.670  10.955   1.781 -0.0325 -0.2997 -0.2719
  793MOL0     C 6957   1.819  10.974   1.823 -0.3327  0.7310  0.0056
  793MOL0     C 6958   1.860  11.115   1.755  0.3954  0.0767 -0.6075
  793MOL0     C 6959   1.997  11.157   1.800  0.4683  0.3355 -0.0898
  793MOL0     C 6960   2.055  11.262   1.712 -0.3385  0.5296  0.7823
  793MOL0     C 6961   2.107  11.206   1.581 -0.3170 -0.2918  0.3062
  793MOL0     C 6962   2.169  11.316   1.494 -0.2694 -0.4845 -0.7522
  793MOL0     C 6963   2.160  11.292   1.342  0.4381 -1.5842 -0.3961
  793MOL0    Cl 6964   2.232  11.421   1.245  0.5811 -0.1595 -0.0265
  793MOL0     C 6965   1.439  10.711   1.908 -0.1001  0.2304 -1.0091
  793MOL0     C 6966   1.309  10.668   1.884 -0.6135  0.1038  1.2309
  793MOL0     O 6967   1.038  10.854   1.733  0.1993 -0.9252 -0.0289
  793MOL0     C 6968   0.804  10.765   1.609  0.5747 -0.0195 -0.5192
  793MOL0     C 6969   0.700  10.731   1.519  0.6697 -0.7013  0.4263
  793MOL0     N 6970   0.720  10.750   0.904 -0.2189 -0.5695 -0.4349
  793MOL0     N 6971   0.825  10.755   0.836  0.4256 -0.5166  0.9084
  793MOL0     C 6972   1.339   9.706   0.624 -0.2948  0.5812 -0.3634
  793MOL0     C 6973   1.353   9.573   0.587 -0.2967 -1.2656  0.6470
  793MOL0     C 6974   1.292   9.206   0.317 -1.3670 -0.0844 -0.3366
  793MOL0     C 6975   1.187   9.161   0.235 -0.0202 -0.4837  0.2909
  793MOL0     C 6976   1.196   9.047   0.149  0.0230 -1.2606 -0.5466
  793MOL0     C 6977   1.312   8.985   0.136 -0.4036  0.4553 -0.2772
  793MOL0     O 6978   1.344   8.884   0.047 -0.5527 -0.1532  0.2042
  793MOL0     C 6979   1.255   8.847  -0.059  0.1413  0.0524  0.0284
  793MOL0     C 6980   1.166   8.737  -0.002  0.1257 -0.2100 -0.5887
  793MOL0     C 6981   1.037   8.706  -0.076  0.7063  0.6858  0.4607
  793MOL0     C 6982   0.960   8.572  -0.034  0.1736 -0.7238  0.0322
  793MOL0     C 6983   0.880   8.538  -0.155  0.3264  0.7262  0.3350
  793MOL0     C 6984   0.820   8.503  -0.256 -0.6192 -0.5980  0.5947
  793MOL0     C 6985   1.410   9.018   0.235  0.2280  0.2848  0.2619
  793MOL0     C 6986   1.408   9.127   0.323 -0.7547 -0.3678  0.6992
  793MOL0     C 6987   1.523   9.149   0.409 -0.1252  0.0599 -0.6607
  793MOL0     H 6988   1.284   9.620   0.259 -2.1930 -0.4643 -0.0422
  793MOL0     H 6989   1.234   9.844   0.338 -0.6986 -0.6165 -0.0878
  793MOL0     H 6990   1.461   9.961   0.607  2.6090  3.5615  1.3761
  793MOL0     H 6991   1.386  10.079   0.484  1.6956  0.8130  0.9738
  793MOL0     H 6992   1.260  10.200   0.608  0.0153  0.3961  0.0444
  793MOL0     H 6993   1.406  10.213   0.697  0.8484 -0.6835  0.9490
  793MOL0     H 6994   1.332  10.023   0.845 -0.2097 -0.4551  0.3153
  793MOL0     H 6995   1.170  10.065   0.777  0.4708 -0.8237  0.9132
  793MOL0     H 6996   1.179  10.191   0.974 -1.7830  0.7387 -2.6210
  793MOL0     H 6997   1.340  10.245   0.949  0.5797  1.6735 -0.9091
  793MOL0     H 6998   1.262  10.380   0.752  0.5053  0.1373  0.4088
  793MOL0     H 6999   1.106  10.309   0.777 -0.4907 -1.3696  1.8649
  793MOL0     H 7000   1.090  10.401   1.007 -1.2480  6.4678  2.3751
  793MOL0     H 7001   1.248  10.448   1.012 -0.1600  3.2738 -0.3895
  793MOL0     H 7002   1.239  10.632   0.877 -1.0890  0.4015  1.0513
  793MOL0     H 7003   1.116  10.624   0.997  1.7239 -0.1420  0.5490
  793MOL0     H 7004   1.082  10.682   0.730 -1.7881  0.8006  0.1145
  793MOL0     H 7005   1.026  10.517   0.741 -0.1741 -1.1425 -0.1098
  793MOL0     H 7006   0.871  10.489   1.023 -3.1153 -2.5517 -2.0166
  793MOL0     H 7007   0.536  10.560   1.010  2.1618  0.4678  0.0428
  793MOL0     H 7008   0.639  10.521   1.136  2.4939  0.7623  0.0241
  793MOL0     H 7009   0.631  10.742   1.233  1.1047  0.6193 -2.3583
  793MOL0     H 7010   0.517  10.797   1.121 -1.5414 -2.5487 -1.0559
  793MOL0     H 7011   0.413  10.543   1.200  2.3886 -0.4228  1.8706
  793MOL0     H 7012   0.342  10.703   1.215  1.9214  0.0528 -2.6076
  793MOL0     H 7013   0.385  10.552   1.439 -0.6700  1.1727  1.5215
  793MOL0     H 7014   0.453  10.716   1.456  2.3741 -2.1470  4.6624
  793MOL0     H 7015   0.807  10.414   1.465 -5.2182 -1.1878  2.8722
  793MOL0     H 7016   0.984  10.482   1.594 -0.1461  1.0118  2.3107
  793MOL0     H 7017   1.264  10.749   1.567 -1.1092  0.4863 -0.1194
  793MOL0     H 7018   1.501  10.847   1.599  1.3896  0.6186 -0.0124
  793MOL0     H 7019   1.666  10.958   1.672 -1.7999  2.0079 -0.2251
  793MOL0     H 7020   1.606  11.034   1.822 -1.5147 -1.6102  0.0087
  793MOL0     H 7021   1.837  10.967   1.930  1.1088 -0.3129 -0.2765
  793MOL0     H 7022   1.874  10.886   1.789  0.7969  0.6937  1.8035
  793MOL0     H 7023   1.852  11.100   1.648  0.2357 -0.9889 -0.4536
  793MOL0     H 7024   1.786  11.195   1.768 -1.1403 -1.1241 -1.6371
  793MOL0     H 7025   2.070  11.076   1.806 -0.3734 -0.3650  1.0682
  793MOL0     H 7026   1.972  11.192   1.900 -0.1567  1.0639 -0.4800
  793MOL0     H 7027   2.141  11.315   1.753  1.2052 -0.2785 -1.2458
  793MOL0     H 7028   1.969  11.328   1.693 -0.9146 -1.0808 -3.2685
  793MOL0     H 7029   2.184  11.131   1.599 -2.0782 -1.8234  1.8523
  793MOL0     H 7030   2.027  11.156   1.527 -1.4034  1.0446  0.6282
  793MOL0     H 7031   2.272  11.344   1.519 -1.4345  1.0747  3.0457
  793MOL0     H 7032   2.116  11.408   1.519  0.0057 -0.8284  1.2066
  793MOL0     H 7033   2.205  11.200   1.302 -0.9316 -1.7682 -1.5900
  793MOL0     H 7034   2.058  11.279   1.306  0.5353 -1.7105 -0.6378
  793MOL0     H 7035   1.496  10.695   1.999 -1.2103 -2.8819 -0.7597
  793MOL0     H 7036   1.255  10.619   1.965 -2.0503 -0.8697 -0.2302
  793MOL0     H 7037   0.810  10.858   1.666  0.9952 -0.3526 -0.0132
  793MOL0     H 7038   0.628  10.809   1.495  3.9859  3.6359  2.9676
  793MOL0     H 7039   1.376   9.732   0.723  0.8134  0.5262 -0.7470
  793MOL0     H 7040   1.388   9.502   0.662 -1.4595 -1.7725  0.7282
  793MOL0     H 7041   1.090   9.208   0.250 -0.2599 -0.8869  0.0098
  793MOL0     H 7042   1.106   9.014   0.097  0.4847 -3.1003 -0.2436
  793MOL0     H 7043   1.302   8.811  -0.151  2.2615  1.7208  0.3617
  793MOL0     H 7044   1.198   8.932  -0.096 -1.0001  0.0246  1.5971
  793MOL0     H 7045   1.144   8.758   0.104 -2.9723  0.6439 -1.2785
  793MOL0     H 7046   1.224   8.645  -0.013 -0.6037 -0.6673 -0.7010
  793MOL0     H 7047   1.060   8.699  -0.183  1.3588 -6.4425  0.5880
  793MOL0     H 7048   0.969   8.790  -0.060 -0.4975 -0.1460 -0.1686
  793MOL0     H 7049   1.017   8.484  -0.004  1.8689  0.9315  2.0561
  793MOL0     H 7050   0.902   8.596   0.056  1.4741  1.2960  0.4002
  793MOL0     H 7051   0.771   8.476  -0.347 -1.6215  0.8228  0.6813
  793MOL0     H 7052   1.493   8.947   0.236 -0.5513 -0.7308 -1.7743
  793MOL0     H 7053   1.561   9.246   0.377 -2.7343  0.6954 -2.1248
  793MOL0     H 7054   1.493   9.147   0.514 -3.0728  1.2555 -1.3733
  793MOL0     H 7055   1.604   9.076   0.397  1.8961  1.5541  2.4876
  794MOL0     O 7056   5.660   8.154   9.978 -0.1494  0.7883  0.0093
  794MOL0     C 7057   5.671   8.096  10.089  0.2049 -0.7410  0.1280
  794MOL0     O 7058   5.625   7.967  10.115 -0.4840 -0.4027  0.0068
  794MOL0     C 7059   5.510   7.932  10.055 -0.4461  0.4995 -0.2429
  794MOL0     C 7060   5.384   7.949  10.122 -1.1030 -0.0617 -0.2261
  794MOL0     C 7061   5.261   7.917  10.060  1.1871 -0.3848 -1.0442
  794MOL0     C 7062   5.255   7.877   9.929 -0.1314 -0.0650 -0.5329
  794MOL0     O 7063   5.137   7.853   9.864  0.9191  0.0065  0.0443
  794MOL0     C 7064   5.007   7.871   9.923 -0.2988 -0.6633  0.8728
  794MOL0     C 7065   4.890   7.847   9.815  0.4344 -0.9541 -0.7433
  794MOL0     C 7066   4.894   7.710   9.752  0.0246 -0.0145  0.0410
  794MOL0     C 7067   4.812   7.702   9.629  0.8796  0.1696  0.0173
  794MOL0     C 7068   4.813   7.564   9.571  0.6474  0.2653 -0.1490
  794MOL0     C 7069   4.941   7.525   9.493  0.1264 -0.0535 -0.3528
  794MOL0     C 7070   4.944   7.386   9.432  0.1611  0.1739  0.5295
  794MOL0     C 7071   4.938   7.277   9.538 -0.0127  0.8697 -0.3828
  794MOL0     N 7072   4.941   7.147   9.475  0.4475  0.0428 -0.6127
  794MOL0     C 7073   5.048   7.075   9.447 -0.5241 -0.5151 -0.1611
  794MOL0     C 7074   5.005   6.964   9.378 -0.2769  0.1581 -0.3620
  794MOL0     C 7075   5.099   6.864   9.329 -0.8833  0.1070  1.6708
  794MOL0     C 7076   5.176   6.921   9.217 -0.5139 -0.1291  0.3773
  794MOL0     C 7077   5.276   6.811   9.174 -0.3737 -0.5225 -0.2630
  794MOL0     C 7078   5.381   6.871   9.086  0.1185  0.4055 -0.1214
  794MOL0     O 7079   5.472   6.955   9.153 -0.8916  1.1388  0.2586
  794MOL0     C 7080   5.594   6.970   9.095 -1.3693  0.4143 -0.3570
  794MOL0     C 7081   5.704   7.003   9.176  0.5227  0.0751 -0.2397
  794MOL0     C 7082   5.833   7.031   9.123  1.0622 -0.2893 -0.3922
  794MOL0     C 7083   5.853   7.032   8.986 -0.9368 -0.0369  0.1014
  794MOL0     C 7084   5.988   7.067   8.932  0.3476 -1.1604  0.0760
  794MOL0     O 7085   6.084   7.119   9.019  0.7665 -0.2143  0.2384
  794MOL0     C 7086   6.212   7.154   8.970 -0.7129  0.1224 -0.1346
  794MOL0     C 7087   6.321   7.096   9.030 -0.5531 -0.2496  0.7127
  794MOL0     C 7088   6.448   7.123   8.985 -0.3085  0.3857  0.2412
  794MOL0     C 7089   6.467   7.213   8.878  0.1154  0.0926 -0.2074
  794MOL0     O 7090   6.599   7.218   8.845 -0.7747  0.7723  0.2526
  794MOL0     C 7091   6.640   7.320   8.746  0.4898  1.2729  0.2695
  794MOL0     C 7092   6.785   7.313   8.716 -1.0728  0.1747  0.9091
  794MOL0     C 7093   6.851   7.443   8.674 -0.2839  0.3603 -0.0825
  794MOL0     C 7094   7.005   7.431   8.644 -0.9184 -0.3587 -0.6998
  794MOL0     C 7095   7.062   7.563   8.596  0.8088  0.5610  0.6234
  794MOL0     C 7096   7.217   7.552   8.580 -0.1108  0.0304  0.1477
  794MOL0     C 7097   7.294   7.574   8.712  0.5286  0.5445  0.8060
  794MOL0     C 7098   7.417   7.492   8.737 -0.0476  1.0136 -0.8651
  794MOL0    Cl 7099   7.363   7.357   8.837 -0.4829  0.1647 -0.1924
  794MOL0     C 7100   6.356   7.272   8.817  0.6146 -0.2390 -0.0777
  794MOL0     C 7101   6.227   7.244   8.863  0.1231 -0.2381  0.4424
  794MOL0     O 7102   6.005   7.041   8.817 -0.0834 -0.3510 -0.2256
  794MOL0     C 7103   5.739   7.001   8.904 -0.6188  1.0666  0.0581
  794MOL0     C 7104   5.613   6.985   8.957  0.2241 -0.0418  0.3220
  794MOL0     N 7105   4.868   6.965   9.367 -0.4440 -0.7649 -0.7021
  794MOL0     N 7106   4.831   7.074   9.431  0.6897  0.2414 -0.0273
  794MOL0     C 7107   5.380   7.862   9.869 -0.6657  1.1148 -0.6946
  794MOL0     C 7108   5.503   7.885   9.926 -0.0908  0.2265  0.6822
  794MOL0     C 7109   5.748   8.166  10.200  1.1362 -0.4738 -0.1266
  794MOL0     C 7110   5.724   8.144  10.334  0.5911  0.3748 -0.3694
  794MOL0     C 7111   5.797   8.212  10.441  0.6032  0.7073  0.5249
  794MOL0     C 7112   5.888   8.310  10.413  0.2655  0.0349 -0.0478
  794MOL0     O 7113   5.956   8.360  10.515  0.5982 -0.5826  0.9105
  794MOL0     C 7114   6.066   8.285  10.572 -0.5417  0.8031  0.5632
  794MOL0     C 7115   6.057   8.280  10.727 -0.0414  0.1108  0.2645
  794MOL0     C 7116   6.004   8.415  10.777 -0.5869 -0.4382  0.0654
  794MOL0     C 7117   6.003   8.438  10.924 -1.0602 -0.0561 -0.7539
  794MOL0     C 7118   6.135   8.485  10.968  1.1251 -0.0015  0.7493
  794MOL0     C 7119   6.248   8.516  10.983 -0.2935  0.1399 -0.4038
  794MOL0     C 7120   5.909   8.336  10.281  0.3753 -0.4517 -0.2674
  794MOL0     C 7121   5.847   8.267  10.171 -0.5532  0.4298  0.1502
  794MOL0     C 7122   5.924   8.278  10.037  0.0014  0.6485 -0.5396
  794MOL0     H 7123   5.389   7.977  10.227 -1.6772 -0.2027 -0.1548
  794MOL0     H 7124   5.174   7.943  10.119  2.3790 -0.3983  0.7906
  794MOL0     H 7125   4.992   7.806  10.010  0.7455 -1.9830  0.0975
  794MOL0     H 7126   4.989   7.972   9.962 -2.7615 -0.9478  0.6611
  794MOL0     H 7127   4.905   7.908   9.726 -0.6541 -2.7243 -2.2263
  794MOL0     H 7128   4.790   7.870   9.855  1.3620  1.2429  0.4683
  794MOL0     H 7129   4.861   7.622   9.808  1.5045 -1.0243 -0.6018
  794MOL0     H 7130   4.998   7.681   9.731  0.4708 -1.0550  3.1416
  794MOL0     H 7131   4.705   7.719   9.645  0.3476 -3.6057  1.6115
  794MOL0     H 7132   4.847   7.773   9.553  0.8870  1.5310  1.2360
  794MOL0     H 7133   4.802   7.496   9.655  0.8601  1.0357  0.5132
  794MOL0     H 7134   4.732   7.565   9.497  2.2758 -2.7171 -2.1838
  794MOL0     H 7135   4.958   7.606   9.421  0.2454  1.3798  1.2185
  794MOL0     H 7136   5.029   7.531   9.557  0.0713 -2.2808  0.0021
  794MOL0     H 7137   5.038   7.382   9.377 -1.5065 -0.5924 -2.5427
  794MOL0     H 7138   4.869   7.355   9.358  1.6784 -1.8969 -0.2495
  794MOL0     H 7139   5.021   7.285   9.607  1.8229 -0.8745 -2.2470
  794MOL0     H 7140   4.848   7.268   9.600  0.1281 -4.3749 -0.5210
  794MOL0     H 7141   5.148   7.115   9.461 -1.5210  1.3747  2.2855
  794MOL0     H 7142   5.180   6.846   9.400  1.6377  1.2012 -0.7483
  794MOL0     H 7143   5.045   6.772   9.304 -0.4081 -0.0229  1.0873
  794MOL0     H 7144   5.103   6.944   9.139 -2.3408  2.1381  2.5719
  794MOL0     H 7145   5.224   7.016   9.240  0.5462 -0.1404 -1.5820
  794MOL0     H 7146   5.211   6.749   9.111  0.0526 -0.7031 -0.5269
  794MOL0     H 7147   5.319   6.753   9.255 -2.5456 -0.4037  1.0635
  794MOL0     H 7148   5.324   6.938   9.020  3.2527  1.6832 -1.7815
  794MOL0     H 7149   5.438   6.799   9.026 -0.9587 -0.5063 -0.0774
  794MOL0     H 7150   5.688   6.997   9.283  1.5663 -1.0604 -0.1308
  794MOL0     H 7151   5.917   7.043   9.190  0.1291 -0.0656  0.7950
  794MOL0     H 7152   6.316   7.022   9.109  0.7033 -0.2948  0.7694
  794MOL0     H 7153   6.527   7.061   9.026  0.3337  0.5279 -0.7368
  794MOL0     H 7154   6.578   7.311   8.656 -1.0812  2.5786  1.1584
  794MOL0     H 7155   6.612   7.411   8.801 -0.5339  0.1789  1.6540
  794MOL0     H 7156   6.837   7.279   8.806  0.5235 -0.4898 -0.2127
  794MOL0     H 7157   6.814   7.234   8.645  0.1719  2.5817 -1.4215
  794MOL0     H 7158   6.802   7.480   8.583  1.7216 -0.3122 -1.4948
  794MOL0     H 7159   6.836   7.512   8.758 -2.5747  0.0426 -0.1449
  794MOL0     H 7160   7.034   7.358   8.567 -1.3180 -1.9746  0.6352
  794MOL0     H 7161   7.053   7.387   8.732 -2.1285 -3.1108 -1.2793
  794MOL0     H 7162   7.037   7.644   8.665  0.2715  1.1805 -0.2779
  794MOL0     H 7163   7.017   7.590   8.500 -1.4286 -0.5074  1.3052
  794MOL0     H 7164   7.240   7.450   8.547  0.5328  0.0888  0.4020
  794MOL0     H 7165   7.266   7.621   8.511  1.4950 -1.2806 -0.1122
  794MOL0     H 7166   7.228   7.568   8.799  0.3733 -1.8189  0.5904
  794MOL0     H 7167   7.321   7.680   8.715 -1.5254  1.3150 -2.2653
  794MOL0     H 7168   7.476   7.460   8.650 -0.7969 -0.6177 -0.8165
  794MOL0     H 7169   7.484   7.549   8.801  0.2330 -0.0730 -0.1568
  794MOL0     H 7170   6.364   7.335   8.729  0.1203 -0.2018 -0.0971
  794MOL0     H 7171   6.135   7.290   8.828  0.6639  0.7314  0.2640
  794MOL0     H 7172   5.743   6.997   8.795  1.0084  2.1991  0.0509
  794MOL0     H 7173   5.541   6.953   8.883 -0.4317 -0.0327  0.9526
  794MOL0     H 7174   5.381   7.816   9.771  1.8253 -2.1285  0.6441
  794MOL0     H 7175   5.592   7.877   9.865 -0.4061  3.7664 -0.4629
  794MOL0     H 7176   5.649   8.070  10.362  2.2906 -0.4198  2.4133
  794MOL0     H 7177   5.775   8.179  10.542  1.6254 -0.5015  0.3774
  794MOL0     H 7178   6.159   8.331  10.536  0.4091 -1.0915  0.4561
  794MOL0     H 7179   6.076   8.184  10.530  1.1877  1.3734 -0.5272
  794MOL0     H 7180   6.152   8.284  10.781 -0.6699  1.8780  1.3239
  794MOL0     H 7181   5.995   8.200  10.768 -1.0348  0.7968  0.1368
  794MOL0     H 7182   5.903   8.438  10.740  0.0594  0.1537 -1.3762
  794MOL0     H 7183   6.070   8.486  10.726 -0.3320 -1.4523 -1.0611
  794MOL0     H 7184   5.932   8.519  10.944 -1.3091 -0.9896  2.6686
  794MOL0     H 7185   5.969   8.347  10.974  3.1015 -1.8904 -0.8885
  794MOL0     H 7186   6.346   8.554  11.003 -0.5440  0.6449 -0.1041
  794MOL0     H 7187   5.996   8.396  10.257 -0.6162  0.7547 -0.9331
  794MOL0     H 7188   5.930   8.177   9.994  1.1721 -0.0871  1.2616
  794MOL0     H 7189   5.870   8.339   9.963 -0.4025 -1.2863 -1.9128
  794MOL0     H 7190   6.029   8.303  10.048  0.5427 -2.3683  5.9068
  795MOL0     O 7191   6.004   4.385   6.466  0.0844 -0.1479 -0.7968
  795MOL0     C 7192   6.095   4.309   6.468 -0.2230 -0.1554  0.8237
  795MOL0     O 7193   6.190   4.308   6.559  0.2969  0.2867 -0.3113
  795MOL0     C 7194   6.180   4.368   6.679 -0.1153 -0.1874  0.9518
  795MOL0     C 7195   6.291   4.425   6.728  0.4739  0.4853 -1.0354
  795MOL0     C 7196   6.289   4.482   6.849  0.7945 -0.4228  0.3817
  795MOL0     C 7197   6.174   4.478   6.935  0.5333 -0.1711  1.1644
  795MOL0     O 7198   6.192   4.535   7.055  0.0793  0.0160  0.0817
  795MOL0     C 7199   6.142   4.469   7.181 -0.5532  0.0309 -0.5645
  795MOL0     C 7200   6.114   4.587   7.271 -0.7796  0.1463 -0.2813
  795MOL0     C 7201   6.072   4.562   7.414 -0.7753  0.4768  0.0248
  795MOL0     C 7202   6.132   4.441   7.475  0.6676  0.4843 -0.0202
  795MOL0     C 7203   6.043   4.379   7.587  0.3631  0.7064 -0.2829
  795MOL0     C 7204   6.013   4.478   7.695  0.5611 -0.5224 -0.2749
  795MOL0     C 7205   6.150   4.532   7.780  0.2778  0.3204  0.2987
  795MOL0     C 7206   6.218   4.419   7.836 -0.5187 -0.0803 -0.4891
  795MOL0     N 7207   6.127   4.342   7.919 -0.1553 -0.3955  0.1283
  795MOL0     C 7208   6.067   4.388   8.032  0.3881 -0.9965  0.5928
  795MOL0     C 7209   5.988   4.285   8.075  0.1310  0.1496  0.3121
  795MOL0     C 7210   5.899   4.292   8.197  1.5844 -0.6982  0.5341
  795MOL0     C 7211   5.809   4.419   8.177  0.1415  0.3672  0.3146
  795MOL0     C 7212   5.732   4.440   8.314  1.0116  0.0870  0.6860
  795MOL0     C 7213   5.609   4.540   8.290 -0.3975  0.4721 -0.0160
  795MOL0     O 7214   5.533   4.532   8.408 -0.0418  0.0388  0.9403
  795MOL0     C 7215   5.569   4.599   8.516 -0.0672 -0.2238 -0.3898
  795MOL0     C 7216   5.617   4.539   8.626  0.4982 -0.5505  0.4961
  795MOL0     C 7217   5.642   4.613   8.738  0.4175 -0.1818 -0.5741
  795MOL0     C 7218   5.654   4.751   8.737  0.2778 -0.0501 -0.9360
  795MOL0     C 7219   5.690   4.823   8.870 -0.1749  0.5005  0.0906
  795MOL0     O 7220   5.735   4.949   8.855  0.2831 -0.2847  0.0007
  795MOL0     C 7221   5.867   4.963   8.814 -0.6064 -0.0021 -1.5916
  795MOL0     C 7222   5.904   5.066   8.716 -0.1124  1.0389 -0.6137
  795MOL0     C 7223   6.034   5.070   8.677 -0.6818  1.4143  0.6478
  795MOL0     C 7224   6.133   4.973   8.717 -0.2220  0.8141  0.2224
  795MOL0     O 7225   6.252   4.980   8.660  0.5232  0.8012 -0.3157
  795MOL0     C 7226   6.366   4.901   8.715 -0.4264  0.6934  0.5948
  795MOL0     C 7227   6.500   4.934   8.641  0.6137  0.4042  1.1349
  795MOL0     C 7228   6.474   4.940   8.487  0.2654  0.1023  0.0732
  795MOL0     C 7229   6.600   4.897   8.403  0.2029 -0.3809  0.4360
  795MOL0     C 7230   6.612   4.960   8.263 -0.6757 -0.0860 -0.0639
  795MOL0     C 7231   6.694   5.091   8.260 -0.3494  0.0626 -0.7514
  795MOL0     C 7232   6.664   5.161   8.126  0.2029  0.1389  0.8667
  795MOL0     C 7233   6.773   5.260   8.095  0.5252  0.2510  0.4536
  795MOL0    Cl 7234   6.718   5.310   7.930 -0.0808 -0.2658  0.3703
  795MOL0     C 7235   6.099   4.882   8.818  0.2230 -0.3683 -0.0190
  795MOL0     C 7236   5.966   4.872   8.862  0.0544  0.3822 -1.2945
  795MOL0     O 7237   5.693   4.760   8.972 -0.3586 -0.2594  0.1234
  795MOL0     C 7238   5.601   4.816   8.627  0.0657  0.4572 -0.4879
  795MOL0     C 7239   5.554   4.744   8.517 -0.9735 -0.0485 -0.1606
  795MOL0     N 7240   5.987   4.181   7.978  0.9180 -0.2290 -0.0374
  795MOL0     N 7241   6.069   4.222   7.884  0.1390 -0.0626  0.4030
  795MOL0     C 7242   6.052   4.436   6.876  0.8652  0.8726 -0.5473
  795MOL0     C 7243   6.057   4.382   6.745 -0.3942 -0.7666  0.2640
  795MOL0     C 7244   6.105   4.212   6.358  0.2187  0.6033 -0.1266
  795MOL0     C 7245   6.004   4.213   6.255  0.3422  1.2860  0.1476
  795MOL0     C 7246   6.015   4.139   6.136 -0.3659  0.0298  0.4531
  795MOL0     C 7247   6.117   4.042   6.125  0.1466 -0.0134 -0.7354
  795MOL0     O 7248   6.129   3.968   6.012 -0.1088 -0.4205  0.4843
  795MOL0     C 7249   6.251   3.918   5.955  0.3774  0.0535  0.1078
  795MOL0     C 7250   6.258   3.764   5.973 -1.1103 -0.2904 -0.8056
  795MOL0     C 7251   6.394   3.710   5.920  0.1595  0.3488  0.4768
  795MOL0     C 7252   6.518   3.736   6.006  0.7826  0.4253 -0.3413
  795MOL0     C 7253   6.636   3.720   5.920 -0.6352  0.1680 -1.3819
  795MOL0     C 7254   6.741   3.730   5.851  0.2478 -0.4222 -0.0695
  795MOL0     C 7255   6.220   4.035   6.217 -0.2626  0.5393  0.4331
  795MOL0     C 7256   6.211   4.111   6.344 -0.4351 -0.4268 -0.1700
  795MOL0     C 7257   6.315   4.087   6.453 -0.8287  0.2476 -0.4573
  795MOL0     H 7258   6.388   4.410   6.681  1.0018 -0.6347  0.3237
  795MOL0     H 7259   6.380   4.534   6.878  2.3935 -1.0527 -3.0482
  795MOL0     H 7260   6.054   4.409   7.159 -3.4029  4.3087 -1.9689
  795MOL0     H 7261   6.234   4.425   7.222  2.1103  2.3527 -3.5218
  795MOL0     H 7262   6.034   4.641   7.221 -1.2079 -0.1806  0.0435
  795MOL0     H 7263   6.199   4.656   7.273 -0.9444  0.3875 -1.1728
  795MOL0     H 7264   5.963   4.550   7.410 -0.8623 -0.9379  3.2880
  795MOL0     H 7265   6.092   4.659   7.460 -0.8821  1.3005 -1.6118
  795MOL0     H 7266   6.146   4.357   7.406 -0.7551  2.0969 -2.4252
  795MOL0     H 7267   6.227   4.472   7.520  2.3958 -1.6639 -1.9926
  795MOL0     H 7268   5.945   4.352   7.545 -2.1091  6.1692  1.0015
  795MOL0     H 7269   6.109   4.299   7.621  1.9657  1.5508 -1.2705
  795MOL0     H 7270   5.968   4.571   7.658  2.4964  0.3568 -0.5876
  795MOL0     H 7271   5.946   4.432   7.768 -0.1023  5.0808  3.2453
  795MOL0     H 7272   6.117   4.598   7.861 -1.6679 -0.5640  0.2910
  795MOL0     H 7273   6.222   4.585   7.717 -1.3796 -1.8447 -3.8269
  795MOL0     H 7274   6.251   4.354   7.755 -2.4120  0.0993 -1.4672
  795MOL0     H 7275   6.301   4.455   7.897 -1.4446 -0.7196  1.2371
  795MOL0     H 7276   6.082   4.483   8.082  2.3124 -0.3902 -0.9981
  795MOL0     H 7277   5.842   4.200   8.214  0.5521 -0.4249 -1.2140
  795MOL0     H 7278   5.962   4.303   8.285  0.1958  2.1452  1.2921
  795MOL0     H 7279   5.867   4.511   8.165 -0.7929  1.0600  1.0443
  795MOL0     H 7280   5.746   4.414   8.088 -1.3244 -0.4596  1.3573
  795MOL0     H 7281   5.809   4.469   8.386  2.6677 -3.3531  0.5015
  795MOL0     H 7282   5.707   4.341   8.354  2.9040 -0.1624  1.3841
  795MOL0     H 7283   5.557   4.500   8.203 -0.4486  2.2154 -0.8294
  795MOL0     H 7284   5.636   4.643   8.267  0.2991  0.4204  0.5035
  795MOL0     H 7285   5.622   4.431   8.619 -3.6362 -0.8006 -2.8771
  795MOL0     H 7286   5.660   4.570   8.836  0.1132 -0.1487 -0.5046
  795MOL0     H 7287   5.821   5.129   8.686  1.0884  3.1372  0.2184
  795MOL0     H 7288   6.060   5.154   8.613 -0.4031  0.0214 -1.1574
  795MOL0     H 7289   6.379   4.933   8.819 -0.4171  0.6982  0.5920
  795MOL0     H 7290   6.344   4.794   8.717  0.1326  0.5703  2.8429
  795MOL0     H 7291   6.526   5.032   8.682  0.1656  1.2824 -0.5577
  795MOL0     H 7292   6.567   4.854   8.672 -1.1180 -1.1029  1.1170
  795MOL0     H 7293   6.395   4.866   8.470  1.5125 -1.1109 -0.6545
  795MOL0     H 7294   6.446   5.041   8.454  3.2777  1.9686  2.7259
  795MOL0     H 7295   6.601   4.789   8.386  1.0468 -0.4566  0.9281
  795MOL0     H 7296   6.687   4.934   8.458  3.3078 -0.9147 -3.6570
  795MOL0     H 7297   6.508   4.972   8.231 -1.1745  1.6407  1.9254
  795MOL0     H 7298   6.660   4.894   8.190 -3.1969 -2.7067  0.4750
  795MOL0     H 7299   6.676   5.153   8.348 -0.6954  1.7695 -1.9651
  795MOL0     H 7300   6.801   5.071   8.247 -0.0106  1.0525  0.3852
  795MOL0     H 7301   6.568   5.211   8.141  2.2165  4.4201  0.7815
  795MOL0     H 7302   6.647   5.102   8.036 -0.5059 -2.9677  2.8598
  795MOL0     H 7303   6.764   5.347   8.161 -2.6505  1.0829 -0.8672
  795MOL0     H 7304   6.870   5.212   8.110  0.5420  1.0079  3.2887
  795MOL0     H 7305   6.175   4.828   8.873  0.2530 -0.5973 -0.2810
  795MOL0     H 7306   5.938   4.804   8.942 -4.0327  1.5006 -1.5650
  795MOL0     H 7307   5.602   4.924   8.617 -0.6304  0.4891 -0.2771
  795MOL0     H 7308   5.518   4.800   8.432 -1.7056 -1.0038 -0.5123
  795MOL0     H 7309   5.949   4.447   6.911  0.9952  0.0440  0.1379
  795MOL0     H 7310   5.964   4.348   6.700 -0.6796  1.4342 -0.9714
  795MOL0     H 7311   5.918   4.277   6.266 -1.3092 -1.0750  2.1374
  795MOL0     H 7312   5.951   4.154   6.050  0.9087 -3.0578 -1.2128
  795MOL0     H 7313   6.347   3.965   5.981  0.0810  1.1678 -0.7310
  795MOL0     H 7314   6.231   3.922   5.847 -1.8926 -3.2620  0.2415
  795MOL0     H 7315   6.174   3.720   5.920 -3.1994  1.3456  0.9544
  795MOL0     H 7316   6.243   3.746   6.080  2.7239 -1.3000 -0.2743
  795MOL0     H 7317   6.414   3.774   5.833 -0.0072 -0.2115  0.0210
  795MOL0     H 7318   6.368   3.607   5.895 -2.9422  0.4868  2.5613
  795MOL0     H 7319   6.511   3.828   6.064 -3.2782  1.4026 -2.0106
  795MOL0     H 7320   6.517   3.659   6.083 -2.2949  0.3074 -0.3775
  795MOL0     H 7321   6.819   3.759   5.783  2.0007 -0.6863  1.7139
  795MOL0     H 7322   6.311   3.980   6.199  0.4744  1.7791  0.2395
  795MOL0     H 7323   6.272   4.067   6.551 -2.2728 -0.5641 -1.2152
  795MOL0     H 7324   6.380   4.003   6.427  1.6320  2.1814 -0.9670
  795MOL0     H 7325   6.379   4.176   6.446 -1.0098  0.3201 -1.4570
  796MOL0     O 7326   8.720   5.855   3.179 -0.2895 -0.1116  0.3996
  796MOL0     C 7327   8.712   5.873   3.299  0.6178  0.0893 -0.3920
  796MOL0     O 7328   8.747   5.992   3.360 -0.2096 -0.1987 -1.0703
  796MOL0     C 7329   8.821   6.072   3.278  0.2892 -0.8179  0.0360
  796MOL0     C 7330   8.752   6.173   3.207  0.5018  0.0078 -0.2466
  796MOL0     C 7331   8.824   6.278   3.149 -0.3549 -0.4307  0.8360
  796MOL0     C 7332   8.957   6.291   3.172 -0.4795 -0.2354  0.2758
  796MOL0     O 7333   9.032   6.393   3.106 -0.2392 -0.2172 -0.2844
  796MOL0     C 7334   9.043   6.362   2.962  0.4981  0.2042 -0.4368
  796MOL0     C 7335   9.066   6.504   2.899  0.5667 -0.5673  0.1778
  796MOL0     C 7336   9.198   6.532   2.829 -0.2028 -0.5269 -0.5544
  796MOL0     C 7337   9.200   6.486   2.680  0.2287 -0.1598 -0.5386
  796MOL0     C 7338   9.343   6.488   2.611  0.2513 -0.5190 -0.4711
  796MOL0     C 7339   9.391   6.634   2.578 -0.3419 -0.1659  0.1181
  796MOL0     C 7340   9.523   6.649   2.492 -0.6383  0.4009 -0.4274
  796MOL0     C 7341   9.638   6.570   2.567 -0.7880  0.3754 -0.7780
  796MOL0     N 7342   9.772   6.575   2.508  0.1030 -0.6646 -1.0211
  796MOL0     C 7343   9.860   6.669   2.544  0.0678 -0.1520  0.3488
  796MOL0     C 7344   9.946   6.683   2.434 -0.9355  0.9691 -0.4559
  796MOL0     C 7345  10.072   6.755   2.408  0.6320  1.1300 -0.4531
  796MOL0     C 7346  10.064   6.902   2.440 -0.7527  0.6152 -0.4482
  796MOL0     C 7347   9.998   6.994   2.334 -0.2020 -0.4815  0.5730
  796MOL0     C 7348   9.972   7.129   2.371 -0.5089  0.6694  0.5150
  796MOL0     O 7349   9.873   7.187   2.286 -0.1138  0.5330  0.4318
  796MOL0     C 7350   9.919   7.296   2.219 -0.2956  0.7098 -0.5229
  796MOL0     C 7351   9.908   7.422   2.261  0.1767  0.2554 -0.6041
  796MOL0     C 7352   9.968   7.530   2.195 -0.7626  0.2136 -0.7293
  796MOL0     C 7353  10.035   7.508   2.073 -0.0891  0.0425 -1.0777
  796MOL0     C 7354  10.093   7.620   1.996  0.3010  0.9546 -0.8293
  796MOL0     O 7355  10.163   7.585   1.889 -0.1228 -1.0056  0.2121
  796MOL0     C 7356  10.220   7.681   1.805  0.3464 -0.1425 -0.2180
  796MOL0     C 7357  10.327   7.770   1.850  0.9770 -0.2537 -0.2492
  796MOL0     C 7358  10.389   7.858   1.757 -0.0929  0.0440 -0.9975
  796MOL0     C 7359  10.342   7.869   1.627  0.0008  0.3299  0.7228
  796MOL0     O 7360  10.399   7.966   1.544 -0.1299  0.3453 -0.2304
  796MOL0     C 7361  10.301   8.037   1.470 -0.5019 -0.7355 -0.7362
  796MOL0     C 7362  10.360   8.146   1.370  0.5265 -0.2994 -0.0193
  796MOL0     C 7363  10.450   8.244   1.439  0.4826 -1.2725 -0.6110
  796MOL0     C 7364  10.465   8.377   1.358 -0.8440 -1.2561  0.2021
  796MOL0     C 7365  10.522   8.489   1.447 -0.5854  0.2864 -0.9237
  796MOL0     C 7366  10.662   8.470   1.512 -1.6893  0.2532 -0.0379
  796MOL0     C 7367  10.728   8.596   1.557  0.5326 -0.3093 -0.2796
  796MOL0     C 7368  10.652   8.680   1.659 -0.0041  0.0826 -0.0988
  796MOL0    Cl 7369  10.761   8.792   1.764  0.4536 -0.4443  0.2366
  796MOL0     C 7370  10.242   7.783   1.584 -0.7719  0.3166  0.1639
  796MOL0     C 7371  10.183   7.690   1.667  0.5901 -0.2629  0.1751
  796MOL0     O 7372  10.080   7.733   2.040 -0.0302  0.0842 -0.2625
  796MOL0     C 7373  10.043   7.383   2.024  0.5773  0.0287  0.5646
  796MOL0     C 7374   9.998   7.279   2.105  0.1259  0.1339 -0.7650
  796MOL0     N 7375   9.897   6.598   2.345  0.4069  0.8870  0.6157
  796MOL0     N 7376   9.806   6.521   2.389  0.7795  0.2467  0.3129
  796MOL0     C 7377   9.019   6.205   3.257 -0.0663  1.3226 -0.2552
  796MOL0     C 7378   8.954   6.100   3.314 -0.1051  0.6062  1.4542
  796MOL0     C 7379   8.678   5.761   3.376  0.8696  0.2224  0.8702
  796MOL0     C 7380   8.557   5.689   3.330  0.2777 -0.7989 -1.2696
  796MOL0     C 7381   8.501   5.593   3.418  0.5347 -0.3607 -0.0084
  796MOL0     C 7382   8.557   5.562   3.540  0.2466 -1.2796 -0.6069
  796MOL0     O 7383   8.496   5.471   3.630  0.6858  0.6643  0.7822
  796MOL0     C 7384   8.433   5.506   3.753  0.5084  0.0305 -0.8782
  796MOL0     C 7385   8.314   5.611   3.735  0.0173  0.5674  0.5421
  796MOL0     C 7386   8.197   5.547   3.656  0.5205  0.2899 -0.4230
  796MOL0     C 7387   8.105   5.653   3.616 -0.1904 -0.1792  0.4510
  796MOL0     C 7388   8.044   5.732   3.722 -0.6246 -0.2064 -0.8237
  796MOL0     C 7389   7.991   5.783   3.821  0.8092 -0.4548  0.5337
  796MOL0     C 7390   8.673   5.628   3.584 -0.2280 -0.0906  0.2942
  796MOL0     C 7391   8.738   5.726   3.504  0.4160  0.4158  0.6450
  796MOL0     C 7392   8.873   5.778   3.544  0.0753 -0.4437  1.2918
  796MOL0     H 7393   8.648   6.181   3.180  0.8334  1.6292 -1.1672
  796MOL0     H 7394   8.773   6.341   3.076  3.8470  0.1408 -1.9334
  796MOL0     H 7395   9.133   6.300   2.952  0.4375  0.0203  0.1392
  796MOL0     H 7396   8.946   6.320   2.934  0.4317  1.9777 -3.2279
  796MOL0     H 7397   9.059   6.580   2.977  0.0594  1.6365 -1.9073
  796MOL0     H 7398   8.975   6.519   2.841  0.3615  0.2308  0.6845
  796MOL0     H 7399   9.280   6.489   2.888 -1.6119 -0.5712  1.4395
  796MOL0     H 7400   9.228   6.637   2.824  1.5458 -1.0147 -0.9959
  796MOL0     H 7401   9.173   6.380   2.679 -0.0740 -0.2278  2.8423
  796MOL0     H 7402   9.123   6.546   2.631 -0.0023 -0.5689 -0.6818
  796MOL0     H 7403   9.416   6.441   2.679  1.0502 -0.3559 -1.2058
  796MOL0     H 7404   9.334   6.425   2.523  0.2878  1.0480 -1.6297
  796MOL0     H 7405   9.314   6.692   2.527 -0.3615  0.2499  0.6165
  796MOL0     H 7406   9.400   6.681   2.676  0.2394 -0.7951  0.3727
  796MOL0     H 7407   9.545   6.754   2.472  1.3410 -0.1677 -1.4880
  796MOL0     H 7408   9.520   6.603   2.392  0.7429  0.9741 -0.7540
  796MOL0     H 7409   9.622   6.604   2.669  0.2179  2.0942 -1.1603
  796MOL0     H 7410   9.607   6.465   2.577 -3.4016  1.3176  5.0173
  796MOL0     H 7411   9.852   6.734   2.631 -4.5889  1.1861 -0.7668
  796MOL0     H 7412  10.152   6.708   2.466 -0.5527  0.8762  1.0499
  796MOL0     H 7413  10.091   6.740   2.301  0.7094  2.5076 -0.6564
  796MOL0     H 7414  10.005   6.907   2.532  0.2204  0.0497  0.2332
  796MOL0     H 7415  10.164   6.935   2.468 -1.4458  3.0086 -0.6016
  796MOL0     H 7416   9.901   6.958   2.298 -0.5943  2.6386 -1.8814
  796MOL0     H 7417  10.066   7.004   2.249 -0.5152 -1.2139  0.2288
  796MOL0     H 7418  10.064   7.186   2.389  0.6319 -1.5299  2.0539
  796MOL0     H 7419   9.930   7.116   2.471 -2.1939  0.9043 -0.1231
  796MOL0     H 7420   9.857   7.448   2.353  2.2044 -0.3712  0.7849
  796MOL0     H 7421   9.952   7.632   2.228  0.7741  0.2977 -0.1642
  796MOL0     H 7422  10.358   7.751   1.952 -1.0732 -3.3662 -0.0559
  796MOL0     H 7423  10.467   7.928   1.785 -3.1643  2.1740  3.6180
  796MOL0     H 7424  10.233   7.980   1.407  0.3020 -1.2509 -1.1489
  796MOL0     H 7425  10.237   8.088   1.542 -0.2994 -1.1686 -0.2440
  796MOL0     H 7426  10.429   8.100   1.299  2.6752 -2.5994  3.2500
  796MOL0     H 7427  10.280   8.204   1.323  1.5564  4.5155  3.3816
  796MOL0     H 7428  10.421   8.262   1.543  3.2678 -2.6421  0.5038
  796MOL0     H 7429  10.547   8.193   1.445  1.3331  0.3938  0.6956
  796MOL0     H 7430  10.369   8.414   1.321  0.7360  0.3368 -2.6469
  796MOL0     H 7431  10.523   8.365   1.266 -1.9573  0.0743 -0.7226
  796MOL0     H 7432  10.451   8.509   1.527 -1.4008  1.1846 -1.8469
  796MOL0     H 7433  10.527   8.582   1.390  3.8335  1.5089  1.0168
  796MOL0     H 7434  10.662   8.406   1.602 -0.0134  1.3983  0.8266
  796MOL0     H 7435  10.727   8.431   1.433 -1.1495  0.7964  0.1285
  796MOL0     H 7436  10.746   8.658   1.469  3.1911 -1.9694 -1.0299
  796MOL0     H 7437  10.829   8.572   1.592  0.0120 -1.3838  0.5419
  796MOL0     H 7438  10.575   8.741   1.612  1.1942  1.6317 -0.1241
  796MOL0     H 7439  10.601   8.612   1.729  0.8943 -0.8569 -0.3303
  796MOL0     H 7440  10.196   7.789   1.486 -5.2158  3.5172  2.1045
  796MOL0     H 7441  10.103   7.628   1.627  0.1578  1.5056 -1.8572
  796MOL0     H 7442  10.096   7.355   1.933 -0.8066 -3.8001  0.7547
  796MOL0     H 7443  10.034   7.183   2.069 -0.7714 -0.5848  0.2046
  796MOL0     H 7444   9.121   6.229   3.287 -0.8307  1.1070  2.7938
  796MOL0     H 7445   8.996   6.034   3.390  4.0013  1.2778 -0.0058
  796MOL0     H 7446   8.501   5.709   3.239 -0.8761 -1.0536 -0.6315
  796MOL0     H 7447   8.412   5.533   3.402 -0.0210 -0.4536  2.8647
  796MOL0     H 7448   8.508   5.544   3.822  0.2591 -2.0927  0.6517
  796MOL0     H 7449   8.398   5.418   3.809  3.1629  0.4168  1.6177
  796MOL0     H 7450   8.344   5.699   3.677  1.2342 -0.6262 -0.7428
  796MOL0     H 7451   8.279   5.633   3.835 -1.6433 -2.4561  0.7332
  796MOL0     H 7452   8.146   5.474   3.720 -0.5877 -1.0397 -2.6706
  796MOL0     H 7453   8.223   5.487   3.568 -0.1328  1.8924 -1.7511
  796MOL0     H 7454   8.157   5.723   3.549 -1.1354  1.0630  0.9827
  796MOL0     H 7455   8.013   5.626   3.564 -0.4294 -2.2184  1.8183
  796MOL0     H 7456   7.933   5.821   3.903  0.1927  3.5019 -1.5099
  796MOL0     H 7457   8.727   5.607   3.676  0.8350  3.0387  0.5409
  796MOL0     H 7458   8.854   5.881   3.577  0.8695 -0.1475  0.8593
  796MOL0     H 7459   8.909   5.716   3.626 -0.0321 -0.4539  1.3307
  796MOL0     H 7460   8.939   5.778   3.456 -0.2507  0.7328  1.0262
  797MOL0     O 7461   0.259  10.926   2.457  0.3403 -0.2906 -0.7812
  797MOL0     C 7462   0.167  11.008   2.471  1.3541 -0.2659  0.5384
  797MOL0     O 7463   0.177  11.142   2.480 -0.5811 -0.0666 -1.0878
  797MOL0     C 7464   0.300  11.194   2.454  0.5485 -0.2043  0.1004
  797MOL0     C 7465   0.337  11.299   2.534  0.3795 -0.0070 -0.4876
  797MOL0     C 7466   0.454  11.361   2.503  0.4477  0.4032  0.2692
  797MOL0     C 7467   0.542  11.319   2.396 -0.1936 -0.7609  0.0472
  797MOL0     O 7468   0.664  11.380   2.368 -0.4590 -0.0838  0.3441
  797MOL0     C 7469   0.637  11.478   2.272  0.1106  0.1277  0.1290
  797MOL0     C 7470   0.764  11.508   2.195  0.0209  0.1359  0.0743
  797MOL0     C 7471   0.835  11.389   2.125  0.0695 -1.2747 -1.0494
  797MOL0     C 7472   0.743  11.339   2.012 -0.4534  0.3799  0.5403
  797MOL0     C 7473   0.793  11.205   1.953  0.8715  0.4714 -0.0548
  797MOL0     C 7474   0.916  11.211   1.867 -1.3196  0.2442  0.4593
  797MOL0     C 7475   0.883  11.274   1.726  0.1121  0.2734 -0.1537
  797MOL0     C 7476   0.972  11.204   1.628 -0.4910  0.1128  0.9609
  797MOL0     N 7477   0.997  11.294   1.515  0.4415  0.0833  0.4531
  797MOL0     C 7478   0.900  11.350   1.434  0.1181 -0.3566  1.2896
  797MOL0     C 7479   0.982  11.430   1.357  0.5262  0.3088  0.0593
  797MOL0     C 7480   0.940  11.515   1.246 -0.0769  0.4647  0.1513
  797MOL0     C 7481   0.822  11.435   1.168 -0.5031 -0.2359 -0.9644
  797MOL0     C 7482   0.759  11.513   1.058  0.3293  0.1444  0.6285
  797MOL0     C 7483   0.829  11.478   0.928 -0.2098 -0.8396 -0.1487
  797MOL0     O 7484   0.796  11.344   0.894 -0.0946  0.2267  0.3545
  797MOL0     C 7485   0.868  11.277   0.803 -0.5562  1.1798  1.2806
  797MOL0     C 7486   0.837  11.143   0.778  0.6321 -0.0898  0.5250
  797MOL0     C 7487   0.917  11.060   0.694  0.5974 -0.3409 -0.0753
  797MOL0     C 7488   1.018  11.120   0.619 -0.7302  0.1788  0.6461
  797MOL0     C 7489   1.115  11.039   0.545 -0.3969 -0.1919  0.2682
  797MOL0     O 7490   1.184  11.105   0.441 -0.8078 -0.8561  0.6965
  797MOL0     C 7491   1.258  11.032   0.356  0.1712 -0.2496 -0.4799
  797MOL0     C 7492   1.191  10.994   0.236  0.1304 -0.0624 -0.3414
  797MOL0     C 7493   1.256  10.898   0.148 -0.5601  0.9582 -0.7048
  797MOL0     C 7494   1.393  10.866   0.176  0.5681 -0.3659 -0.3064
  797MOL0     O 7495   1.467  10.779   0.103 -0.3008 -0.0987  0.2485
  797MOL0     C 7496   1.465  10.814  -0.039 -0.7487 -0.4498 -0.0157
  797MOL0     C 7497   1.442  10.686  -0.115  0.5871  0.9226  0.4499
  797MOL0     C 7498   1.435  10.711  -0.272  0.2330 -0.9134  0.4648
  797MOL0     C 7499   1.443  10.575  -0.367 -0.2728 -0.6053 -0.4848
  797MOL0     C 7500   1.326  10.471  -0.337 -0.0580 -0.1086  0.2751
  797MOL0     C 7501   1.379  10.332  -0.325 -0.1388  0.1204  0.1671
  797MOL0     C 7502   1.355  10.256  -0.448 -0.8482  0.0786 -0.5803
  797MOL0     C 7503   1.407  10.112  -0.443 -0.6373 -0.2508 -0.3246
  797MOL0    Cl 7504   1.289   9.986  -0.367  0.1090  0.3853  0.2617
  797MOL0     C 7505   1.461  10.916   0.287 -0.5762 -0.5173  1.1344
  797MOL0     C 7506   1.393  10.996   0.381  0.3052  0.2609 -0.5369
  797MOL0     O 7507   1.126  10.919   0.572 -0.6387  0.4880  0.0556
  797MOL0     C 7508   1.060  11.257   0.640  0.2747  0.6171 -0.4980
  797MOL0     C 7509   0.980  11.339   0.731 -0.0655  0.4634  0.0385
  797MOL0     N 7510   1.115  11.427   1.391 -0.1938 -1.0443  0.3254
  797MOL0     N 7511   1.122  11.350   1.486 -0.8117  0.1234  0.3925
  797MOL0     C 7512   0.501  11.213   2.320  0.5451  1.1302 -0.4561
  797MOL0     C 7513   0.371  11.160   2.337 -0.7332  0.1273  0.2702
  797MOL0     C 7514   0.031  10.947   2.495 -1.4733  0.3924  0.0450
  797MOL0     C 7515   0.025  10.811   2.494 -0.2288  0.1650 -0.2021
  797MOL0     C 7516  -0.095  10.742   2.499 -1.2657 -0.4817  0.1832
  797MOL0     C 7517  -0.212  10.808   2.503 -0.0867  0.0911  0.2095
  797MOL0     O 7518  -0.328  10.733   2.500 -0.6641  0.2476 -0.8778
  797MOL0     C 7519  -0.452  10.792   2.455  0.4872 -0.3788 -0.0577
  797MOL0     C 7520  -0.526  10.676   2.389  0.2153 -0.0396 -0.3780
  797MOL0     C 7521  -0.568  10.578   2.487 -0.4685 -0.1949  0.3173
  797MOL0     C 7522  -0.679  10.480   2.447  0.2451  0.1740 -0.3873
  797MOL0     C 7523  -0.814  10.541   2.440  0.2894  0.0864  0.3204
  797MOL0     C 7524  -0.925  10.588   2.437  0.1917  0.4729  0.3541
  797MOL0     C 7525  -0.214  10.948   2.500  0.6389  0.1463 -0.5641
  797MOL0     C 7526  -0.094  11.020   2.494  0.3718 -0.3677 -0.2721
  797MOL0     C 7527  -0.109  11.174   2.488 -0.7926  0.5620 -0.2128
  797MOL0     H 7528   0.275  11.335   2.616 -1.6110  1.7167 -2.6317
  797MOL0     H 7529   0.474  11.455   2.554  0.7643  0.4970 -0.0197
  797MOL0     H 7530   0.563  11.448   2.196 -2.3371 -1.2494  2.8455
  797MOL0     H 7531   0.595  11.565   2.324  0.1752  0.1484  0.1472
  797MOL0     H 7532   0.837  11.534   2.272  1.3528 -0.3260 -0.9865
  797MOL0     H 7533   0.754  11.586   2.119 -1.5638 -0.4141 -0.3158
  797MOL0     H 7534   0.845  11.313   2.204 -4.4163  2.3618  3.7708
  797MOL0     H 7535   0.924  11.443   2.093  0.8859 -2.5254 -0.9690
  797MOL0     H 7536   0.641  11.324   2.049  0.2625 -0.7099  2.1406
  797MOL0     H 7537   0.744  11.422   1.941  1.4060  0.9866  1.2174
  797MOL0     H 7538   0.814  11.126   2.025 -0.1292  0.9910  0.8379
  797MOL0     H 7539   0.707  11.165   1.898 -1.2943 -1.1592  4.1106
  797MOL0     H 7540   1.005  11.258   1.909 -1.3158 -1.0500  2.0327
  797MOL0     H 7541   0.948  11.106   1.860 -0.8729  0.1968  2.4676
  797MOL0     H 7542   0.903  11.381   1.730  1.8115 -0.0207 -0.2458
  797MOL0     H 7543   0.775  11.260   1.712  0.1634 -1.7244  1.0463
  797MOL0     H 7544   1.072  11.186   1.670  1.2976  2.3782 -1.9127
  797MOL0     H 7545   0.925  11.112   1.592 -0.7529 -0.3272  2.3841
  797MOL0     H 7546   0.792  11.341   1.431 -0.1408  1.8958  2.0051
  797MOL0     H 7547   0.893  11.601   1.293 -3.0481 -0.9023 -0.0741
  797MOL0     H 7548   1.023  11.539   1.179 -0.0907 -1.6511 -0.7240
  797MOL0     H 7549   0.871  11.344   1.134 -2.0638 -1.9296  1.0587
  797MOL0     H 7550   0.737  11.412   1.232  0.6352  0.6793  0.9678
  797MOL0     H 7551   0.761  11.622   1.068  2.7967  0.2106  0.0116
  797MOL0     H 7552   0.652  11.494   1.043 -0.0375  0.4102  2.6988
  797MOL0     H 7553   0.935  11.506   0.937 -1.0434  2.8809 -0.0562
  797MOL0     H 7554   0.782  11.535   0.847 -1.3826 -1.0905  0.3454
  797MOL0     H 7555   0.754  11.097   0.832  0.3288 -4.7482 -3.2337
  797MOL0     H 7556   0.904  10.952   0.697  1.2966 -0.4630 -0.9360
  797MOL0     H 7557   1.091  11.030   0.213  0.8360  2.2147 -0.0556
  797MOL0     H 7558   1.196  10.841   0.078 -0.4342 -0.2514  0.1454
  797MOL0     H 7559   1.396  10.892  -0.072  1.4787  1.9792  0.7252
  797MOL0     H 7560   1.568  10.845  -0.059  0.2646 -3.0216  0.8082
  797MOL0     H 7561   1.519  10.610  -0.102 -1.6940 -1.4045  1.3037
  797MOL0     H 7562   1.353  10.637  -0.076  0.2120  1.1031 -0.1652
  797MOL0     H 7563   1.339  10.762  -0.287  1.0836  0.6424  0.1430
  797MOL0     H 7564   1.515  10.778  -0.305 -2.1513  1.6398 -0.5584
  797MOL0     H 7565   1.542  10.537  -0.341  1.0976  1.2243 -2.6095
  797MOL0     H 7566   1.440  10.604  -0.473  0.4289 -0.8213 -0.5679
  797MOL0     H 7567   1.251  10.475  -0.416 -1.2240  0.2080  1.3718
  797MOL0     H 7568   1.275  10.492  -0.243 -0.8892 -1.5255  0.1752
  797MOL0     H 7569   1.485  10.340  -0.299  0.0572  2.7400 -1.0779
  797MOL0     H 7570   1.321  10.267  -0.260 -1.5955 -0.7143 -1.8436
  797MOL0     H 7571   1.415  10.310  -0.522  0.1365  2.1867  1.6432
  797MOL0     H 7572   1.249  10.242  -0.473 -1.0473 -2.1346  1.1448
  797MOL0     H 7573   1.436  10.082  -0.544  1.0623 -0.0685  0.0836
  797MOL0     H 7574   1.491  10.112  -0.374 -0.3701  0.2919 -0.6401
  797MOL0     H 7575   1.565  10.894   0.309 -0.2901 -0.0690  0.2461
  797MOL0     H 7576   1.442  11.031   0.472  1.4190 -0.2509 -0.9196
  797MOL0     H 7577   1.149  11.305   0.602  2.0813 -0.1755  2.4304
  797MOL0     H 7578   1.008  11.443   0.726  2.6335 -0.1479  0.8423
  797MOL0     H 7579   0.556  11.167   2.238 -0.8417  1.2473 -1.4933
  797MOL0     H 7580   0.322  11.085   2.276 -2.2724  0.1547  1.4216
  797MOL0     H 7581   0.107  10.740   2.487 -2.9255 -3.0794 -1.2154
  797MOL0     H 7582  -0.096  10.633   2.506  0.2578 -0.6277 -1.2669
  797MOL0     H 7583  -0.446  10.872   2.381 -0.3220  1.0358  1.3581
  797MOL0     H 7584  -0.516  10.826   2.536 -0.9652  0.6976 -1.5775
  797MOL0     H 7585  -0.454  10.636   2.317  2.8064  2.6687  0.4637
  797MOL0     H 7586  -0.616  10.724   2.350  0.9284  3.7723  2.0718
  797MOL0     H 7587  -0.597  10.630   2.579  1.3118 -1.5598  1.7294
  797MOL0     H 7588  -0.480  10.518   2.508 -0.8092 -1.1412 -0.8493
  797MOL0     H 7589  -0.657  10.429   2.353 -1.0802 -0.1114 -0.5653
  797MOL0     H 7590  -0.689  10.403   2.524  1.5563 -0.4037 -0.7800
  797MOL0     H 7591  -1.023  10.631   2.434 -1.5173 -3.0380 -0.8975
  797MOL0     H 7592  -0.308  11.001   2.511  0.8323  0.1043  1.7419
  797MOL0     H 7593  -0.092  11.224   2.392  3.6357 -0.1554  0.0126
  797MOL0     H 7594  -0.209  11.196   2.528 -1.3422  0.8435 -1.6681
  797MOL0     H 7595  -0.043  11.220   2.562  0.4114  0.7737 -1.3797
  798MOL0     O 7596   2.657   4.230   1.958 -0.1685  0.3598  1.0316
  798MOL0     C 7597   2.723   4.300   2.031 -0.4222 -0.8918 -0.6697
  798MOL0     O 7598   2.763   4.263   2.153 -0.0880 -0.0963 -0.0510
  798MOL0     C 7599   2.696   4.169   2.232  0.2021  0.1579 -0.5907
  798MOL0     C 7600   2.587   4.203   2.301  0.1903  0.8685 -0.2702
  798MOL0     C 7601   2.505   4.113   2.374 -0.3514 -0.3497  0.1940
  798MOL0     C 7602   2.539   3.984   2.378 -0.6410  0.4646 -0.1539
  798MOL0     O 7603   2.448   3.906   2.443 -0.3878  0.4244 -0.0049
  798MOL0     C 7604   2.495   3.769   2.470 -1.0383 -0.1817  0.8195
  798MOL0     C 7605   2.385   3.693   2.545  0.7366 -0.3138 -0.0150
  798MOL0     C 7606   2.401   3.535   2.568  1.1744 -0.2006  0.1407
  798MOL0     C 7607   2.535   3.492   2.627 -1.1660 -0.5955  0.1091
  798MOL0     C 7608   2.569   3.358   2.593 -0.0600  1.3001  0.3188
  798MOL0     C 7609   2.478   3.243   2.630  0.0638 -1.0514  0.7332
  798MOL0     C 7610   2.523   3.114   2.574 -0.0825  0.8102  0.0006
  798MOL0     C 7611   2.523   3.099   2.419  0.1499  0.2482  0.4592
  798MOL0     N 7612   2.525   2.954   2.390  0.4298 -0.3785 -0.6175
  798MOL0     C 7613   2.437   2.861   2.428  0.0107  0.1007  1.2947
  798MOL0     C 7614   2.479   2.732   2.387  0.2948 -0.1366 -0.3154
  798MOL0     C 7615   2.407   2.600   2.408 -0.4048  0.3118 -0.3464
  798MOL0     C 7616   2.465   2.507   2.516 -1.1574 -0.5633 -0.2528
  798MOL0     C 7617   2.406   2.513   2.657  1.1639 -1.2327 -0.9538
  798MOL0     C 7618   2.267   2.451   2.672  0.0359  0.0518 -0.6399
  798MOL0     O 7619   2.230   2.475   2.816 -0.4194 -0.5243  0.2478
  798MOL0     C 7620   2.208   2.369   2.903  0.2515  0.5622  0.4912
  798MOL0     C 7621   2.300   2.258   2.909 -0.2421  0.0153  0.3858
  798MOL0     C 7622   2.279   2.156   3.002 -0.2519  0.3808  0.4964
  798MOL0     C 7623   2.171   2.158   3.085 -0.0627  0.1956 -0.0013
  798MOL0     C 7624   2.159   2.061   3.201 -0.8162  0.4210 -0.3179
  798MOL0     O 7625   2.216   1.939   3.192 -0.5984 -0.6209 -0.3246
  798MOL0     C 7626   2.174   1.860   3.089 -0.6420 -0.8638  0.0492
  798MOL0     C 7627   2.035   1.854   3.061  0.4958 -0.2794 -0.4323
  798MOL0     C 7628   1.990   1.774   2.947  0.1815  0.3778 -0.0153
  798MOL0     C 7629   2.083   1.707   2.874 -0.0678  0.5509  0.3607
  798MOL0     O 7630   2.029   1.629   2.770 -1.0205 -1.0068  1.0755
  798MOL0     C 7631   2.079   1.496   2.731  0.1617  0.2682  0.6268
  798MOL0     C 7632   2.091   1.404   2.851 -0.6805  0.3348  0.0421
  798MOL0     C 7633   2.219   1.320   2.855 -0.1293  0.0537  0.2774
  798MOL0     C 7634   2.202   1.186   2.782 -0.0044 -0.2300  0.4310
  798MOL0     C 7635   2.165   1.186   2.630  0.7658  0.0114  0.0462
  798MOL0     C 7636   2.289   1.214   2.554  0.6287  0.0332  0.0379
  798MOL0     C 7637   2.248   1.232   2.410  0.5166 -0.8181 -1.2056
  798MOL0     C 7638   2.376   1.213   2.333  0.1241  0.6918  0.2330
  798MOL0    Cl 7639   2.356   1.241   2.158 -0.1469 -0.2257 -0.0343
  798MOL0     C 7640   2.211   1.711   2.911  0.6386  0.0660  1.1794
  798MOL0     C 7641   2.265   1.795   3.010 -0.0687  0.7182 -0.2029
  798MOL0     O 7642   2.122   2.112   3.302 -0.1838 -0.2647 -0.0694
  798MOL0     C 7643   2.077   2.263   3.080  0.1415 -0.2765 -0.4800
  798MOL0     C 7644   2.103   2.370   3.002 -0.5329  0.1257  0.6396
  798MOL0     N 7645   2.594   2.760   2.323  0.8788 -1.0367 -0.3402
  798MOL0     N 7646   2.626   2.884   2.333  0.1034  0.2302  0.5475
  798MOL0     C 7647   2.657   3.947   2.316  0.1184  0.8722  1.1743
  798MOL0     C 7648   2.734   4.042   2.240  0.8445 -0.0960  0.5286
  798MOL0     C 7649   2.792   4.425   1.985 -0.1183 -0.4417 -0.4995
  798MOL0     C 7650   2.885   4.498   2.062 -0.4496 -0.0790  0.2748
  798MOL0     C 7651   2.962   4.608   2.010  1.9036 -1.1158  0.7856
  798MOL0     C 7652   2.937   4.654   1.877 -0.0236  0.1145  0.3715
  798MOL0     O 7653   3.001   4.760   1.820 -0.6301  0.2068 -0.5314
  798MOL0     C 7654   3.137   4.784   1.870 -0.1542  0.8413  0.4763
  798MOL0     C 7655   3.198   4.896   1.786 -0.9187 -0.0290  1.1848
  798MOL0     C 7656   3.191   4.857   1.634 -0.0957 -0.6227 -0.5963
  798MOL0     C 7657   3.265   4.960   1.535  0.8178 -0.4113 -0.6893
  798MOL0     C 7658   3.192   5.091   1.550  0.2797  0.9490  0.0945
  798MOL0     C 7659   3.156   5.203   1.559  0.2313  0.5569 -0.7518
  798MOL0     C 7660   2.836   4.588   1.808  0.3861 -0.5472 -0.5888
  798MOL0     C 7661   2.759   4.483   1.855  0.2753 -0.1559 -0.3763
  798MOL0     C 7662   2.661   4.425   1.758  1.1335  0.1861  0.2432
  798MOL0     H 7663   2.552   4.304   2.287  2.7620  1.5888 -2.1894
  798MOL0     H 7664   2.413   4.151   2.418  0.2403 -0.6244  1.7019
  798MOL0     H 7665   2.528   3.714   2.382  1.2333 -2.9660  3.2015
  798MOL0     H 7666   2.581   3.767   2.537 -0.9969  0.5519  0.7883
  798MOL0     H 7667   2.293   3.692   2.486  1.0154  0.3385 -0.4707
  798MOL0     H 7668   2.383   3.748   2.640  0.5877  2.7896 -1.7001
  798MOL0     H 7669   2.375   3.481   2.477 -2.6311 -2.8461  2.4874
  798MOL0     H 7670   2.314   3.504   2.627 -0.5894 -3.1579 -3.5557
  798MOL0     H 7671   2.616   3.549   2.580  1.1097 -2.6084  1.3777
  798MOL0     H 7672   2.527   3.503   2.735 -0.3116 -4.2115  0.6573
  798MOL0     H 7673   2.578   3.355   2.484  0.9274  0.7289  0.4000
  798MOL0     H 7674   2.670   3.336   2.628  0.2411  0.5449 -0.9703
  798MOL0     H 7675   2.470   3.241   2.739 -0.6393 -2.1845  0.6698
  798MOL0     H 7676   2.378   3.268   2.593  2.2570  1.4146 -4.7247
  798MOL0     H 7677   2.457   3.038   2.616 -0.2290 -0.6460 -2.6260
  798MOL0     H 7678   2.626   3.085   2.594 -0.2197 -1.4559 -2.1411
  798MOL0     H 7679   2.431   3.140   2.376 -0.4069  0.5212  1.8313
  798MOL0     H 7680   2.610   3.140   2.366 -2.5050  1.7431 -3.1681
  798MOL0     H 7681   2.342   2.863   2.480 -2.2669 -1.8840 -2.3523
  798MOL0     H 7682   2.307   2.635   2.435  0.0410  0.9139  0.5746
  798MOL0     H 7683   2.400   2.542   2.316 -2.0808 -0.6848  0.3654
  798MOL0     H 7684   2.468   2.400   2.496  1.3276 -1.2444  2.9106
  798MOL0     H 7685   2.572   2.526   2.519 -1.1435 -0.6840  1.9161
  798MOL0     H 7686   2.409   2.614   2.700  0.5559 -2.3598  2.0277
  798MOL0     H 7687   2.477   2.465   2.724  0.6846 -0.7689 -0.0848
  798MOL0     H 7688   2.263   2.345   2.645  0.2151 -0.4838  1.3267
  798MOL0     H 7689   2.198   2.495   2.599  2.3577  0.8607 -2.4631
  798MOL0     H 7690   2.390   2.239   2.852  0.7959  1.6749  1.3838
  798MOL0     H 7691   2.354   2.077   2.997  0.2068  0.8209  0.2796
  798MOL0     H 7692   1.982   1.926   3.123  2.0733  1.0153 -0.5152
  798MOL0     H 7693   1.887   1.788   2.916 -1.0219 -2.1054  2.4003
  798MOL0     H 7694   2.011   1.453   2.657 -0.8692  0.3432  1.5130
  798MOL0     H 7695   2.179   1.509   2.688 -0.1333  1.3395  0.2297
  798MOL0     H 7696   2.088   1.458   2.946  1.8507  0.6809 -0.0011
  798MOL0     H 7697   2.010   1.331   2.843  0.1172 -0.4539 -0.9873
  798MOL0     H 7698   2.307   1.374   2.818  2.7825 -3.5852  1.2350
  798MOL0     H 7699   2.256   1.289   2.953 -0.4020 -0.1103  0.3306
  798MOL0     H 7700   2.133   1.129   2.845 -2.2052  1.5235 -0.2972
  798MOL0     H 7701   2.296   1.130   2.796  1.2543  0.9234 -2.6229
  798MOL0     H 7702   2.089   1.258   2.599 -0.6534 -1.0996  0.7853
  798MOL0     H 7703   2.112   1.093   2.607 -0.5887  0.6178  0.6073
  798MOL0     H 7704   2.339   1.305   2.586 -1.3109  1.2776 -0.3172
  798MOL0     H 7705   2.346   1.121   2.563 -1.1307 -1.1732 -0.5806
  798MOL0     H 7706   2.206   1.332   2.401  0.3712 -0.4409  2.2681
  798MOL0     H 7707   2.175   1.159   2.375 -0.9999  0.5414 -0.9717
  798MOL0     H 7708   2.447   1.285   2.375 -0.8879  1.3840  0.7940
  798MOL0     H 7709   2.421   1.114   2.348  2.3802  0.9949 -3.2692
  798MOL0     H 7710   2.272   1.645   2.849  0.7121  0.8681  0.3843
  798MOL0     H 7711   2.371   1.795   3.031  0.0727 -0.7056 -0.7902
  798MOL0     H 7712   1.998   2.264   3.155  0.8724 -1.4667  0.3417
  798MOL0     H 7713   2.033   2.451   3.017  0.6356  1.2548  0.2880
  798MOL0     H 7714   2.683   3.842   2.326  0.0142  0.7274  0.1116
  798MOL0     H 7715   2.820   4.005   2.186  0.6751  2.0024 -1.3086
  798MOL0     H 7716   2.900   4.464   2.164  0.6285  4.5977  1.9295
  798MOL0     H 7717   3.045   4.647   2.069  1.0957 -0.1771  1.3297
  798MOL0     H 7718   3.202   4.697   1.879 -0.6764  0.1031 -2.1841
  798MOL0     H 7719   3.127   4.812   1.975 -0.4071  0.2672  0.6092
  798MOL0     H 7720   3.301   4.903   1.821 -1.3172 -0.0811  2.3975
  798MOL0     H 7721   3.150   4.993   1.799 -0.3372  0.3412  0.6264
  798MOL0     H 7722   3.090   4.864   1.593 -1.2353  2.1693  2.2518
  798MOL0     H 7723   3.241   4.761   1.624  6.7503  2.4849 -2.7398
  798MOL0     H 7724   3.365   4.971   1.577  1.2143 -1.8153 -1.2316
  798MOL0     H 7725   3.276   4.920   1.434  1.6406 -1.1541 -0.3213
  798MOL0     H 7726   3.128   5.306   1.565 -1.7182  0.0264 -0.1804
  798MOL0     H 7727   2.823   4.618   1.704 -0.4803  0.0921 -0.3131
  798MOL0     H 7728   2.697   4.325   1.734 -0.2680 -0.0429 -1.0671
  798MOL0     H 7729   2.557   4.420   1.793  1.0640 -0.4079 -0.0364
  798MOL0     H 7730   2.659   4.479   1.663  0.6356 -2.3461 -1.2738
  799MOL0     O 7731   8.541   0.823   2.069 -0.0570 -0.3901 -0.4450
  799MOL0     C 7732   8.437   0.868   2.019 -0.3570 -0.0817 -0.6359
  799MOL0     O 7733   8.437   0.973   1.921  0.1897  0.2036  0.0065
  799MOL0     C 7734   8.557   1.048   1.887  0.7764  0.2501 -0.1989
  799MOL0     C 7735   8.696   1.021   1.910  0.4182 -0.0966 -0.4792
  799MOL0     C 7736   8.804   1.116   1.886  0.7285  0.8368 -1.0768
  799MOL0     C 7737   8.778   1.232   1.817  1.4005 -0.4111 -0.9030
  799MOL0     O 7738   8.881   1.307   1.782  0.0706  0.3436 -0.2108
  799MOL0     C 7739   8.856   1.440   1.725 -0.4952 -0.6892  0.5117
  799MOL0     C 7740   8.991   1.487   1.677  0.4423 -0.8482 -0.0002
  799MOL0     C 7741   8.970   1.623   1.600  0.0545 -0.1747 -0.2185
  799MOL0     C 7742   9.108   1.675   1.557 -0.2218 -1.1144  0.2842
  799MOL0     C 7743   9.080   1.800   1.480 -0.6502 -0.1645  0.7996
  799MOL0     C 7744   9.200   1.901   1.442 -0.2503  0.0226 -0.7818
  799MOL0     C 7745   9.333   1.850   1.385 -0.6259 -0.1360 -0.0180
  799MOL0     C 7746   9.318   1.808   1.241  0.5726 -0.2920 -0.5964
  799MOL0     N 7747   9.334   1.665   1.217  0.0870  0.0851  0.7329
  799MOL0     C 7748   9.450   1.591   1.209  0.2406  0.3725 -1.5014
  799MOL0     C 7749   9.407   1.480   1.148  0.6819 -0.6904 -0.3291
  799MOL0     C 7750   9.506   1.379   1.085  0.5037 -0.6452 -0.1993
  799MOL0     C 7751   9.580   1.305   1.194 -0.6391  0.0595 -0.4139
  799MOL0     C 7752   9.647   1.169   1.143  0.4122  0.1108  0.2986
  799MOL0     C 7753   9.776   1.189   1.062 -0.7181  0.2920  0.0537
  799MOL0     O 7754   9.771   1.268   0.943 -0.3445  0.0792 -0.7091
  799MOL0     C 7755   9.742   1.197   0.831 -0.8531  0.3665  0.2250
  799MOL0     C 7756   9.848   1.146   0.758 -0.4839 -0.5271 -0.4568
  799MOL0     C 7757   9.830   1.066   0.634  1.2981 -0.6778  0.2980
  799MOL0     C 7758   9.696   1.044   0.585 -1.0546 -0.0004  0.0045
  799MOL0     C 7759   9.671   0.957   0.469  1.1693  0.4823 -0.4146
  799MOL0     O 7760   9.536   0.958   0.438  1.1578 -0.0903  0.2263
  799MOL0     C 7761   9.465   0.850   0.388  0.3407  0.5063 -1.0410
  799MOL0     C 7762   9.337   0.873   0.325  0.2983 -0.3160  0.2554
  799MOL0     C 7763   9.264   0.773   0.254 -0.4786 -0.6121  0.3722
  799MOL0     C 7764   9.313   0.644   0.245 -0.3010 -0.2361  0.3238
  799MOL0     O 7765   9.249   0.541   0.178 -0.2826  0.3372 -0.4012
  799MOL0     C 7766   9.112   0.552   0.133 -1.1115 -0.7751 -0.3074
  799MOL0     C 7767   9.077   0.465   0.007  0.5758 -0.0065 -0.0035
  799MOL0     C 7768   9.086   0.554  -0.120 -0.4606  0.7237  0.1593
  799MOL0     C 7769   9.198   0.499  -0.220  0.2737  0.2426  0.4158
  799MOL0     C 7770   9.200   0.576  -0.351 -0.2665  0.2215  0.0556
  799MOL0     C 7771   9.186   0.485  -0.478 -0.0269  0.2444 -0.2327
  799MOL0     C 7772   9.184   0.574  -0.599 -0.0416  0.0208  0.0671
  799MOL0     C 7773   9.189   0.504  -0.731 -0.1712  0.2877  0.9731
  799MOL0    Cl 7774   9.052   0.395  -0.747 -0.0004 -0.1420 -0.6691
  799MOL0     C 7775   9.429   0.619   0.319 -0.3809 -0.9536 -0.2308
  799MOL0     C 7776   9.501   0.716   0.388  0.2977  0.2079  0.7192
  799MOL0     O 7777   9.750   0.870   0.430 -0.1566 -0.0743 -0.5215
  799MOL0     C 7778   9.595   1.090   0.679 -0.3357  0.5482 -0.4161
  799MOL0     C 7779   9.613   1.173   0.793 -0.7106 -0.6941 -0.5283
  799MOL0     N 7780   9.273   1.487   1.141  0.1797 -0.0153 -0.4621
  799MOL0     N 7781   9.222   1.595   1.182  0.3388 -0.3511 -0.2503
  799MOL0     C 7782   8.640   1.261   1.809 -0.0840 -0.9214 -0.4887
  799MOL0     C 7783   8.535   1.182   1.846 -0.3945  0.1652 -0.4001
  799MOL0     C 7784   8.300   0.833   2.082  0.2477  0.7007  0.8688
  799MOL0     C 7785   8.189   0.898   2.021 -0.0265 -0.2329  0.4798
  799MOL0     C 7786   8.059   0.891   2.072  0.9985 -0.9702  0.4902
  799MOL0     C 7787   8.047   0.835   2.197 -0.8151  0.4512  0.5296
  799MOL0     O 7788   7.933   0.835   2.265  0.3709 -0.2661  0.6069
  799MOL0     C 7789   7.862   0.962   2.276 -0.0656  0.7518  0.1254
  799MOL0     C 7790   7.800   1.010   2.417 -0.8203  0.7237 -0.8137
  799MOL0     C 7791   7.762   0.879   2.499 -0.4365 -0.2530  0.4571
  799MOL0     C 7792   7.726   0.933   2.639 -0.4122 -0.1334 -0.1427
  799MOL0     C 7793   7.663   0.826   2.723  0.2563  0.3533  0.7169
  799MOL0     C 7794   7.627   0.748   2.806 -1.1530 -0.2038 -0.0982
  799MOL0     C 7795   8.160   0.761   2.255  1.0813 -0.1200 -0.3009
  799MOL0     C 7796   8.290   0.765   2.201  0.4074 -0.0168 -0.8055
  799MOL0     C 7797   8.393   0.686   2.271  0.8963 -0.2406  0.0887
  799MOL0     H 7798   8.722   0.926   1.956 -1.1515 -0.0853  0.5276
  799MOL0     H 7799   8.903   1.081   1.917 -0.5700 -0.3526  2.1815
  799MOL0     H 7800   8.785   1.434   1.642  0.8560 -1.2379 -0.6545
  799MOL0     H 7801   8.822   1.506   1.805 -0.5016  0.9951 -0.8326
  799MOL0     H 7802   9.031   1.412   1.609  0.6648 -3.3844  2.7156
  799MOL0     H 7803   9.064   1.499   1.758  0.9590  1.2463 -0.7269
  799MOL0     H 7804   8.919   1.694   1.666 -3.6280 -2.6673 -0.0510
  799MOL0     H 7805   8.896   1.605   1.521  0.4426 -1.0480 -0.3887
  799MOL0     H 7806   9.174   1.696   1.642  2.0283 -0.6320 -1.4651
  799MOL0     H 7807   9.161   1.593   1.506  1.1938 -2.0455  3.0432
  799MOL0     H 7808   9.035   1.762   1.388 -1.5804 -1.9139  1.9113
  799MOL0     H 7809   9.008   1.863   1.532 -0.4272 -0.2927  1.2795
  799MOL0     H 7810   9.176   1.983   1.374  0.5630  0.3523 -0.6883
  799MOL0     H 7811   9.231   1.956   1.532  1.2279  0.6672 -1.6376
  799MOL0     H 7812   9.363   1.762   1.442 -0.6661 -0.0856  0.0807
  799MOL0     H 7813   9.407   1.930   1.395  0.6957 -1.4351  0.9739
  799MOL0     H 7814   9.221   1.841   1.202  0.0230 -2.0103 -0.7756
  799MOL0     H 7815   9.395   1.858   1.182  2.7898 -2.1828  0.5616
  799MOL0     H 7816   9.552   1.601   1.246 -0.9596  1.5907  1.8594
  799MOL0     H 7817   9.438   1.303   1.046  1.2843 -2.9098  2.4831
  799MOL0     H 7818   9.571   1.435   1.017  0.8528 -0.0053  0.6357
  799MOL0     H 7819   9.657   1.371   1.235 -0.3224  1.0819 -2.5571
  799MOL0     H 7820   9.508   1.286   1.274 -0.9244 -0.4328 -0.7854
  799MOL0     H 7821   9.568   1.114   1.093 -1.5440 -0.0446  3.2716
  799MOL0     H 7822   9.674   1.120   1.237  1.4224 -0.4067 -0.2502
  799MOL0     H 7823   9.820   1.092   1.037 -1.2422  0.5948 -2.2256
  799MOL0     H 7824   9.854   1.237   1.122 -1.1129  1.3179 -0.2341
  799MOL0     H 7825   9.948   1.168   0.794 -0.6702 -2.4059  1.3708
  799MOL0     H 7826   9.916   1.036   0.575  1.6742  1.2762 -0.2108
  799MOL0     H 7827   9.294   0.973   0.320  2.7882  0.7495 -3.5490
  799MOL0     H 7828   9.178   0.813   0.202 -0.2410  1.9913  1.7819
  799MOL0     H 7829   9.045   0.534   0.217 -0.9261 -0.3631 -0.0695
  799MOL0     H 7830   9.086   0.657   0.113  0.8766  0.1899  1.7895
  799MOL0     H 7831   9.156   0.389   0.002 -0.9654 -1.6014 -1.1073
  799MOL0     H 7832   8.986   0.407   0.019 -0.7350  1.9161 -0.2180
  799MOL0     H 7833   8.985   0.550  -0.162  0.4300  0.9884 -2.1182
  799MOL0     H 7834   9.115   0.657  -0.100  0.1145  1.3077 -3.2330
  799MOL0     H 7835   9.179   0.395  -0.246 -1.6816  0.8736 -0.9523
  799MOL0     H 7836   9.299   0.502  -0.177  2.0770 -3.5946 -2.8396
  799MOL0     H 7837   9.287   0.643  -0.352  2.2285 -2.7544  2.1294
  799MOL0     H 7838   9.109   0.638  -0.358  0.2948  1.1203  0.5865
  799MOL0     H 7839   9.274   0.421  -0.488 -0.1527  0.4043 -3.2836
  799MOL0     H 7840   9.089   0.436  -0.476 -0.1209  0.4067 -0.7453
  799MOL0     H 7841   9.272   0.636  -0.616  0.7428 -1.3122 -0.8662
  799MOL0     H 7842   9.097   0.640  -0.603  1.4791  2.3290  2.1738
  799MOL0     H 7843   9.182   0.578  -0.811  2.0441  0.5752  1.0064
  799MOL0     H 7844   9.282   0.449  -0.745 -0.2162  0.7038 -1.3781
  799MOL0     H 7845   9.486   0.528   0.298 -1.0701 -1.1312 -1.4436
  799MOL0     H 7846   9.599   0.694   0.429 -0.3950 -0.9838  1.8065
  799MOL0     H 7847   9.492   1.080   0.645  0.0554  1.1571 -1.8567
  799MOL0     H 7848   9.530   1.227   0.838  1.1581  2.7038 -0.7890
  799MOL0     H 7849   8.619   1.360   1.768 -1.9020 -2.4375 -3.6009
  799MOL0     H 7850   8.443   1.232   1.875  1.6505  3.5744  0.7668
  799MOL0     H 7851   8.197   0.947   1.925  1.0709  1.6689  1.4854
  799MOL0     H 7852   7.971   0.941   2.032  1.2180 -1.2298 -0.3275
  799MOL0     H 7853   7.768   0.940   2.224 -0.1212 -2.5274  1.3572
  799MOL0     H 7854   7.911   1.046   2.226 -0.4202  0.4847 -0.6760
  799MOL0     H 7855   7.714   1.074   2.397  0.6884  3.5410  1.0419
  799MOL0     H 7856   7.875   1.065   2.474 -2.6040  0.6850  1.7046
  799MOL0     H 7857   7.834   0.797   2.503  2.1862  1.6784 -2.4582
  799MOL0     H 7858   7.672   0.849   2.443 -0.8470  3.3526 -1.1100
  799MOL0     H 7859   7.814   0.955   2.700  0.6271  1.3814 -2.0768
  799MOL0     H 7860   7.672   1.028   2.640  1.2021  0.9332 -3.0682
  799MOL0     H 7861   7.595   0.675   2.878  0.8771 -1.6844 -0.5973
  799MOL0     H 7862   8.141   0.709   2.349 -4.0635 -0.9608 -1.5248
  799MOL0     H 7863   8.465   0.754   2.317 -1.9335  3.4338 -0.4487
  799MOL0     H 7864   8.352   0.628   2.355  2.0707  2.1019  2.4220
  799MOL0     H 7865   8.437   0.620   2.195 -1.2841 -1.2899 -0.3494
  800MOL0     O 7866   7.732   3.810   9.217  1.0501 -0.6316  0.7826
  800MOL0     C 7867   7.759   3.872   9.315 -0.9674 -1.0288 -0.1925
  800MOL0     O 7868   7.854   3.979   9.316 -0.2336  0.3719 -0.3726
  800MOL0     C 7869   7.903   4.002   9.190  0.1141 -0.7633  0.8666
  800MOL0     C 7870   7.850   4.105   9.106 -0.2957  0.0333 -0.2029
  800MOL0     C 7871   7.905   4.122   8.974  0.2106  0.0237 -0.7804
  800MOL0     C 7872   8.019   4.051   8.940 -0.6710  0.9974  0.1586
  800MOL0     O 7873   8.073   4.046   8.810  0.6261 -0.5473  0.3322
  800MOL0     C 7874   8.128   4.175   8.761  0.3181 -0.4378 -0.4329
  800MOL0     C 7875   8.238   4.246   8.846 -0.0079  0.8488 -0.1649
  800MOL0     C 7876   8.334   4.338   8.775 -1.3108  0.7026 -0.2339
  800MOL0     C 7877   8.277   4.455   8.705  0.1300  0.6628  0.0995
  800MOL0     C 7878   8.376   4.526   8.598  0.3475  0.3262  0.5719
  800MOL0     C 7879   8.314   4.657   8.548 -0.4281 -0.6259  0.2749
  800MOL0     C 7880   8.173   4.646   8.499 -0.4150  0.2218 -0.4425
  800MOL0     C 7881   8.116   4.782   8.446  0.1730 -0.7010  0.9590
  800MOL0     N 7882   7.995   4.762   8.376  0.2203 -0.1627  0.2559
  800MOL0     C 7883   7.868   4.768   8.421  0.6607 -0.4539  0.0528
  800MOL0     C 7884   7.793   4.702   8.321  0.4663 -0.2724 -0.6133
  800MOL0     C 7885   7.649   4.672   8.343  0.1147 -0.2053  0.1469
  800MOL0     C 7886   7.565   4.584   8.239  0.3497  0.3850  0.1923
  800MOL0     C 7887   7.568   4.436   8.261 -0.0410 -0.5239 -0.5489
  800MOL0     C 7888   7.709   4.377   8.242  0.7271  0.2155  0.8504
  800MOL0     O 7889   7.710   4.250   8.314 -0.3073  0.7757 -0.7371
  800MOL0     C 7890   7.677   4.130   8.257 -1.1752 -0.3050  0.8215
  800MOL0     C 7891   7.702   4.016   8.334 -0.3843 -0.3258 -0.1378
  800MOL0     C 7892   7.700   3.896   8.265 -0.1407  0.4053 -0.1093
  800MOL0     C 7893   7.627   3.875   8.147 -0.7177  0.2630 -0.4959
  800MOL0     C 7894   7.630   3.742   8.080  1.3699 -0.2797 -0.0506
  800MOL0     O 7895   7.644   3.634   8.161  0.2407 -0.4779  0.0162
  800MOL0     C 7896   7.642   3.507   8.107  0.8882  0.2017  0.9219
  800MOL0     C 7897   7.580   3.409   8.178 -0.2790 -0.1567 -0.1350
  800MOL0     C 7898   7.568   3.277   8.134  0.9394 -0.5480 -0.1675
  800MOL0     C 7899   7.618   3.246   8.010 -0.0570  0.6496  0.1653
  800MOL0     O 7900   7.607   3.112   7.959  0.5485  0.2942  1.0547
  800MOL0     C 7901   7.688   3.069   7.842  0.0575  0.7044 -0.3278
  800MOL0     C 7902   7.680   2.916   7.841  0.3201  0.0020 -0.4881
  800MOL0     C 7903   7.742   2.843   7.727  0.2454 -0.9356  0.5429
  800MOL0     C 7904   7.732   2.694   7.740 -0.0911 -0.6461 -0.4140
  800MOL0     C 7905   7.596   2.637   7.710 -0.0645  0.3978 -0.1646
  800MOL0     C 7906   7.597   2.486   7.703 -0.4096 -0.2051  1.1625
  800MOL0     C 7907   7.645   2.406   7.820 -0.5413 -0.0104  0.1903
  800MOL0     C 7908   7.565   2.442   7.947  0.7175 -0.3586 -0.1484
  800MOL0    Cl 7909   7.398   2.389   7.972 -0.1732 -0.0989 -0.1140
  800MOL0     C 7910   7.686   3.349   7.938  0.1193 -0.2749  0.5824
  800MOL0     C 7911   7.704   3.475   7.984 -0.1595 -0.3426  1.6960
  800MOL0     O 7912   7.587   3.744   7.963 -0.7973 -0.0886 -1.1094
  800MOL0     C 7913   7.584   3.992   8.089 -1.1144 -0.7513  0.1553
  800MOL0     C 7914   7.622   4.121   8.132 -0.8777  0.7911 -0.5044
  800MOL0     N 7915   7.869   4.694   8.212  0.0578  0.2322 -0.2974
  800MOL0     N 7916   7.986   4.718   8.251 -0.3284  0.1627 -1.8100
  800MOL0     C 7917   8.076   3.962   9.039 -0.1300 -0.2469 -0.5288
  800MOL0     C 7918   8.021   3.940   9.162 -0.6707 -0.0835  0.1237
  800MOL0     C 7919   7.716   3.823   9.454 -1.1956 -0.1035  0.0814
  800MOL0     C 7920   7.772   3.889   9.568  0.0141  0.8854 -0.8501
  800MOL0     C 7921   7.721   3.863   9.701  0.0369 -0.2456  0.4521
  800MOL0     C 7922   7.619   3.765   9.725 -0.5869 -0.2478  0.4123
  800MOL0     O 7923   7.563   3.736   9.846  0.9581 -0.5503 -0.1964
  800MOL0     C 7924   7.632   3.794   9.955  0.0504  0.0656 -0.3081
  800MOL0     C 7925   7.596   3.733  10.084 -0.7602  0.5458 -0.6326
  800MOL0     C 7926   7.447   3.737  10.134  0.1299  0.1052  0.2866
  800MOL0     C 7927   7.449   3.679  10.278  0.4929  0.2108  0.1241
  800MOL0     C 7928   7.314   3.687  10.338 -1.1091 -0.5641  0.1494
  800MOL0     C 7929   7.206   3.707  10.390 -0.1173  0.1990  0.0458
  800MOL0     C 7930   7.575   3.693   9.613  0.0649 -0.2434 -0.3327
  800MOL0     C 7931   7.620   3.725   9.485  0.2955  0.1701 -0.5517
  800MOL0     C 7932   7.574   3.633   9.375 -0.6820  0.4470  0.1096
  800MOL0     H 7933   7.764   4.163   9.139 -1.0631 -0.4898 -1.2363
  800MOL0     H 7934   7.859   4.195   8.908 -2.5061  0.4449  1.3605
  800MOL0     H 7935   8.169   4.144   8.664 -1.9930 -3.8922 -0.4705
  800MOL0     H 7936   8.047   4.248   8.749  2.1927  1.5871 -1.5258
  800MOL0     H 7937   8.297   4.172   8.902  2.4028  3.6525  1.2603
  800MOL0     H 7938   8.192   4.312   8.919 -0.3505  0.2518  0.1616
  800MOL0     H 7939   8.393   4.289   8.697 -2.0473 -1.9047  0.7402
  800MOL0     H 7940   8.419   4.369   8.838  0.1546  2.4528 -2.9109
  800MOL0     H 7941   8.185   4.419   8.658 -0.6388 -0.3328  2.2388
  800MOL0     H 7942   8.247   4.519   8.789 -2.6507  1.3272 -1.2651
  800MOL0     H 7943   8.476   4.541   8.640  1.1804 -1.8315 -0.5303
  800MOL0     H 7944   8.386   4.463   8.509  2.1575 -2.4047  2.5526
  800MOL0     H 7945   8.298   4.728   8.630  1.0204  0.4431 -0.3208
  800MOL0     H 7946   8.372   4.705   8.467  0.4480  2.7470  2.6658
  800MOL0     H 7947   8.112   4.604   8.579 -1.4502 -1.3949 -2.0078
  800MOL0     H 7948   8.181   4.572   8.418  3.8039  1.1853 -1.1724
  800MOL0     H 7949   8.100   4.859   8.522 -0.9069 -0.8173  0.8680
  800MOL0     H 7950   8.187   4.815   8.369  0.1608 -0.7919  0.9094
  800MOL0     H 7951   7.838   4.791   8.523 -0.0830  1.1212 -0.4782
  800MOL0     H 7952   7.642   4.617   8.438  0.2109 -0.7509 -0.1552
  800MOL0     H 7953   7.594   4.766   8.354 -1.5144 -1.2360  1.3334
  800MOL0     H 7954   7.458   4.606   8.245  0.5600  1.3248  0.7351
  800MOL0     H 7955   7.598   4.607   8.137 -3.7287 -0.2565 -1.5060
  800MOL0     H 7956   7.495   4.388   8.195  0.3718  0.8003 -2.0516
  800MOL0     H 7957   7.541   4.418   8.365 -2.1387 -2.2423 -1.3269
  800MOL0     H 7958   7.789   4.439   8.285  1.0217  1.8853 -1.8856
  800MOL0     H 7959   7.732   4.364   8.136  0.9779  1.4002  0.7524
  800MOL0     H 7960   7.734   4.026   8.437 -1.4505  1.0213  0.1011
  800MOL0     H 7961   7.749   3.820   8.325  3.1065  1.7110 -0.9021
  800MOL0     H 7962   7.540   3.425   8.277 -0.3693 -1.6683  0.0914
  800MOL0     H 7963   7.527   3.199   8.197  4.2414 -1.3097  1.2939
  800MOL0     H 7964   7.637   3.107   7.754 -0.1297 -0.3487 -0.6858
  800MOL0     H 7965   7.794   3.096   7.855  0.3758  0.2684 -1.9011
  800MOL0     H 7966   7.723   2.889   7.938 -0.0212 -4.7743 -1.4483
  800MOL0     H 7967   7.580   2.877   7.860  0.3006  1.1775  2.3483
  800MOL0     H 7968   7.691   2.886   7.639 -1.4511  1.0208  2.3707
  800MOL0     H 7969   7.848   2.870   7.723  0.4270 -1.4413  1.7294
  800MOL0     H 7970   7.759   2.667   7.843  1.1447  2.6369  0.2708
  800MOL0     H 7971   7.816   2.652   7.684  2.7487 -1.9388  4.1950
  800MOL0     H 7972   7.572   2.670   7.609 -0.9297  0.3838  0.0298
  800MOL0     H 7973   7.509   2.667   7.770 -1.8674 -2.1417 -1.3635
  800MOL0     H 7974   7.497   2.450   7.676 -0.0520 -1.3617  1.3326
  800MOL0     H 7975   7.675   2.464   7.630 -0.2818  4.3292 -0.3823
  800MOL0     H 7976   7.751   2.423   7.840 -0.1107  0.7382 -2.4148
  800MOL0     H 7977   7.630   2.300   7.799 -0.6512  0.5844 -3.3688
  800MOL0     H 7978   7.622   2.390   8.025  1.0664  0.6037  0.2503
  800MOL0     H 7979   7.570   2.551   7.951 -1.3185 -0.1302 -1.8962
  800MOL0     H 7980   7.738   3.324   7.846 -0.1608 -1.1152  0.6443
  800MOL0     H 7981   7.749   3.547   7.915 -2.0196  0.9507  1.7636
  800MOL0     H 7982   7.529   3.986   7.996  0.8758 -1.5051 -1.0488
  800MOL0     H 7983   7.600   4.205   8.068 -0.6516  1.3267  0.1115
  800MOL0     H 7984   8.166   3.906   9.015 -0.5850 -0.6796 -1.2844
  800MOL0     H 7985   8.070   3.868   9.228 -0.0660  0.7444  0.6030
  800MOL0     H 7986   7.843   3.971   9.566  0.1638  0.7557 -0.9080
  800MOL0     H 7987   7.764   3.920   9.782 -0.0439  3.0825 -1.6344
  800MOL0     H 7988   7.607   3.900   9.958  0.1600  0.1180 -1.1189
  800MOL0     H 7989   7.741   3.795   9.949  0.4482 -1.7708  3.6007
  800MOL0     H 7990   7.649   3.790  10.161  0.8323 -1.1255 -0.4179
  800MOL0     H 7991   7.638   3.632  10.087  2.4208  1.7816  1.3717
  800MOL0     H 7992   7.398   3.660  10.075  0.5016 -0.7099  1.0145
  800MOL0     H 7993   7.391   3.831  10.129  1.3268  1.2900  4.6759
  800MOL0     H 7994   7.493   3.579  10.265  1.0648  0.3579  0.8823
  800MOL0     H 7995   7.515   3.744  10.336 -0.0511  2.5491 -1.7365
  800MOL0     H 7996   7.117   3.709  10.450  0.2858  0.2695  0.6537
  800MOL0     H 7997   7.506   3.613   9.639 -1.4612  1.8410  2.7228
  800MOL0     H 7998   7.512   3.549   9.408 -2.3662  0.1614 -3.3339
  800MOL0     H 7999   7.508   3.681   9.303 -0.8402 -1.7009 -1.2677
  800MOL0     H 8000   7.659   3.592   9.320 -2.5669  0.2452 -2.8559
  801MOL0     O 8001   3.587   1.892   7.718 -0.6963 -0.7717 -0.2039
  801MOL0     C 8002   3.673   1.970   7.762  0.9720 -0.5929 -0.8301
  801MOL0     O 8003   3.710   1.984   7.888  0.8747  0.7082 -0.6454
  801MOL0     C 8004   3.650   1.895   7.973 -0.1581  0.1689 -0.1428
  801MOL0     C 8005   3.722   1.786   8.028  0.4247 -1.0641 -0.3324
  801MOL0     C 8006   3.656   1.697   8.123  0.4870  0.5830  0.6775
  801MOL0     C 8007   3.528   1.725   8.171 -0.4207 -0.0524  0.4024
  801MOL0     O 8008   3.475   1.649   8.271  0.3251  0.2602  0.3001
  801MOL0     C 8009   3.511   1.707   8.402  0.3005  0.5036  0.4301
  801MOL0     C 8010   3.447   1.607   8.503  0.6943 -0.0464 -0.1793
  801MOL0     C 8011   3.542   1.484   8.509  0.3010 -0.2431 -0.1960
  801MOL0     C 8012   3.536   1.407   8.641  0.0169 -0.2515 -0.3601
  801MOL0     C 8013   3.655   1.312   8.652  0.2683 -0.5622 -0.0147
  801MOL0     C 8014   3.655   1.192   8.551  0.4869  0.4862  0.2687
  801MOL0     C 8015   3.777   1.127   8.584 -0.4318  0.2401  0.0650
  801MOL0     C 8016   3.794   1.026   8.475  0.3002 -0.0128 -0.5385
  801MOL0     N 8017   3.913   0.937   8.507  0.3590  0.0729  0.6196
  801MOL0     C 8018   3.944   0.865   8.619  0.2371  0.5802  0.2764
  801MOL0     C 8019   4.070   0.814   8.589  0.8795  0.1000  0.5011
  801MOL0     C 8020   4.152   0.721   8.677  0.0563  0.2485  0.3489
  801MOL0     C 8021   4.113   0.740   8.822  0.0186  0.1574 -0.5236
  801MOL0     C 8022   4.214   0.669   8.900 -0.4499  1.4162  0.0848
  801MOL0     C 8023   4.179   0.668   9.049  0.3107  0.4540 -0.1763
  801MOL0     O 8024   4.237   0.554   9.111 -0.5672  0.5201  0.2353
  801MOL0     C 8025   4.367   0.546   9.128  0.2864 -0.0263  0.0077
  801MOL0     C 8026   4.444   0.664   9.134 -0.2246  0.5008  0.9340
  801MOL0     C 8027   4.590   0.646   9.129  0.8386  0.3448  0.6788
  801MOL0     C 8028   4.657   0.525   9.130  0.2061  0.2047  0.5286
  801MOL0     C 8029   4.797   0.513   9.118 -0.6013  0.5208 -0.0903
  801MOL0     O 8030   4.862   0.629   9.085  0.2076 -0.0525  0.7883
  801MOL0     C 8031   4.994   0.602   9.052  1.0802 -0.1982 -0.3171
  801MOL0     C 8032   5.042   0.578   8.922  0.3255 -0.5114 -1.1650
  801MOL0     C 8033   5.174   0.559   8.897 -0.6569  0.1573 -0.1506
  801MOL0     C 8034   5.270   0.565   8.998  1.0513 -0.1651 -0.5358
  801MOL0     O 8035   5.409   0.540   8.990  0.8338 -0.0221 -0.1124
  801MOL0     C 8036   5.474   0.517   8.865 -0.6534 -0.2805  0.4475
  801MOL0     C 8037   5.615   0.479   8.877 -0.0817 -0.5355 -0.2482
  801MOL0     C 8038   5.703   0.576   8.970  0.8347 -0.6958  0.4165
  801MOL0     C 8039   5.843   0.511   8.983  0.8850  0.0712  0.0138
  801MOL0     C 8040   5.929   0.604   9.071 -0.1867 -0.1018 -0.8318
  801MOL0     C 8041   6.068   0.563   9.108 -0.1047  0.0792 -0.0907
  801MOL0     C 8042   6.149   0.519   8.982  0.5384  0.1745 -0.1697
  801MOL0     C 8043   6.295   0.503   9.028  0.3213 -0.3653  0.8524
  801MOL0    Cl 8044   6.379   0.490   8.873  0.0257  0.1562 -0.0512
  801MOL0     C 8045   5.224   0.587   9.130  0.6127 -0.7774 -0.1496
  801MOL0     C 8046   5.088   0.603   9.155 -0.4022 -0.5037 -0.6719
  801MOL0     O 8047   4.848   0.402   9.108 -0.3405  0.1980 -0.1464
  801MOL0     C 8048   4.571   0.410   9.150 -0.1220 -0.1827  0.4724
  801MOL0     C 8049   4.433   0.424   9.133  0.6903 -0.2863  0.1687
  801MOL0     N 8050   4.104   0.839   8.461  0.0972  0.5972  0.7767
  801MOL0     N 8051   4.009   0.914   8.410  0.2662  0.0270 -0.3174
  801MOL0     C 8052   3.457   1.832   8.111  0.4760 -0.4444 -0.8041
  801MOL0     C 8053   3.514   1.922   8.019  0.0322 -1.5548  0.5513
  801MOL0     C 8054   3.743   2.053   7.666  0.7813 -0.1641 -0.7260
  801MOL0     C 8055   3.883   2.080   7.693 -0.2744  0.1184 -0.5279
  801MOL0     C 8056   3.969   2.139   7.600 -0.7271 -0.7651 -1.1392
  801MOL0     C 8057   3.923   2.162   7.472  0.5189 -0.0212 -0.0377
  801MOL0     O 8058   4.011   2.212   7.383  0.4043 -0.1982 -0.3171
  801MOL0     C 8059   4.044   2.121   7.267 -0.0632  0.3161  0.3567
  801MOL0     C 8060   4.154   2.013   7.290  0.9252 -0.0348 -0.1566
  801MOL0     C 8061   4.140   1.926   7.161  0.3571 -0.6113 -0.3945
  801MOL0     C 8062   4.253   1.819   7.154 -0.2035  0.1521  0.0876
  801MOL0     C 8063   4.242   1.765   7.018  0.4396 -0.0413  0.1258
  801MOL0     C 8064   4.248   1.744   6.895 -0.5759 -0.4595  0.4178
  801MOL0     C 8065   3.784   2.141   7.440 -1.1403 -0.1639  0.3701
  801MOL0     C 8066   3.696   2.090   7.537  0.4203  0.3924 -0.3353
  801MOL0     C 8067   3.541   2.079   7.513 -0.2996 -0.0127  0.0705
  801MOL0     H 8068   3.826   1.763   8.006  1.7366  0.4655  3.4089
  801MOL0     H 8069   3.709   1.610   8.162 -0.6298 -0.9478 -1.0369
  801MOL0     H 8070   3.618   1.709   8.423  0.6368  0.8688 -1.1855
  801MOL0     H 8071   3.466   1.807   8.408 -1.0515  0.1948 -2.5216
  801MOL0     H 8072   3.348   1.583   8.463  0.9069  1.1786 -1.5354
  801MOL0     H 8073   3.442   1.663   8.597 -0.1767 -0.3974 -0.0024
  801MOL0     H 8074   3.642   1.521   8.487 -0.5514 -0.4723 -5.8731
  801MOL0     H 8075   3.503   1.420   8.430  1.5021  2.1823 -2.9505
  801MOL0     H 8076   3.543   1.487   8.715  2.7846  1.9119 -2.7147
  801MOL0     H 8077   3.443   1.351   8.656  0.9355 -1.3745  1.5789
  801MOL0     H 8078   3.753   1.361   8.646  1.4103 -2.4904  1.5627
  801MOL0     H 8079   3.648   1.272   8.754  1.1122 -1.4184 -0.2794
  801MOL0     H 8080   3.572   1.123   8.565  0.8877 -0.3090 -1.0973
  801MOL0     H 8081   3.659   1.226   8.447 -0.9839 -0.1710 -0.0268
  801MOL0     H 8082   3.782   1.070   8.677  0.4640  1.8249  1.0450
  801MOL0     H 8083   3.866   1.189   8.571  0.5998 -1.4804 -1.5744
  801MOL0     H 8084   3.700   0.972   8.459  0.3797  0.1178 -1.5460
  801MOL0     H 8085   3.811   1.091   8.388  2.1254  0.7490  0.3494
  801MOL0     H 8086   3.887   0.861   8.711  0.2051 -0.3325  0.2250
  801MOL0     H 8087   4.138   0.620   8.637 -0.9128  0.7530 -0.6473
  801MOL0     H 8088   4.256   0.754   8.668 -0.1742  0.8156 -0.3023
  801MOL0     H 8089   4.113   0.846   8.851 -0.9194  0.6219 -2.1238
  801MOL0     H 8090   4.014   0.699   8.844 -0.2562  0.5902 -0.9488
  801MOL0     H 8091   4.308   0.715   8.868  0.4996 -0.1983  0.4220
  801MOL0     H 8092   4.224   0.562   8.878  2.9588  1.0092  2.5976
  801MOL0     H 8093   4.071   0.655   9.058  0.1883  0.6099 -1.2273
  801MOL0     H 8094   4.209   0.765   9.088 -0.9712  0.5879  0.5027
  801MOL0     H 8095   4.406   0.765   9.124  1.5286  0.9664 -2.1675
  801MOL0     H 8096   4.645   0.737   9.108  0.4517  0.0444 -1.9875
  801MOL0     H 8097   4.975   0.573   8.837 -1.8382 -1.1683  0.4705
  801MOL0     H 8098   5.200   0.508   8.805 -2.5520  1.5663 -1.5417
  801MOL0     H 8099   5.423   0.432   8.817  1.7807 -1.1266 -0.7869
  801MOL0     H 8100   5.459   0.607   8.805 -2.4802 -1.1235 -0.4695
  801MOL0     H 8101   5.622   0.385   8.932  0.1074 -0.3383  0.0704
  801MOL0     H 8102   5.656   0.460   8.778 -3.9159 -0.0467 -2.1275
  801MOL0     H 8103   5.707   0.682   8.943 -1.4474  0.5688  4.2792
  801MOL0     H 8104   5.660   0.581   9.070 -2.0007 -0.1616 -0.7367
  801MOL0     H 8105   5.882   0.517   8.881 -1.7564  2.0014 -1.0101
  801MOL0     H 8106   5.834   0.406   9.011  0.3438 -0.2559 -1.3575
  801MOL0     H 8107   5.882   0.612   9.169 -0.3101 -0.3398 -0.8729
  801MOL0     H 8108   5.934   0.703   9.023  0.1421 -0.1316 -0.8616
  801MOL0     H 8109   6.117   0.643   9.164 -1.7928  0.8428  0.3711
  801MOL0     H 8110   6.075   0.469   9.164 -0.4682 -0.7620 -1.4192
  801MOL0     H 8111   6.135   0.595   8.904 -1.3971 -1.8546 -1.9354
  801MOL0     H 8112   6.119   0.429   8.927  3.0381  1.6811 -4.5730
  801MOL0     H 8113   6.344   0.594   9.065  1.1829 -0.3683 -0.1902
  801MOL0     H 8114   6.309   0.420   9.097 -0.2268 -2.5419 -1.4861
  801MOL0     H 8115   5.309   0.566   9.194  1.2396 -2.1546 -1.3892
  801MOL0     H 8116   5.058   0.628   9.256  2.5458 -0.6857  0.3496
  801MOL0     H 8117   4.607   0.308   9.150 -1.3932 -0.6463  0.6140
  801MOL0     H 8118   4.380   0.329   9.130 -1.4413  0.6936  2.8211
  801MOL0     H 8119   3.377   1.859   8.179  4.4351 -0.5554  4.5239
  801MOL0     H 8120   3.466   2.019   8.003  0.2693 -1.7856 -1.9835
  801MOL0     H 8121   3.929   2.048   7.786  2.5943 -1.9551 -2.4951
  801MOL0     H 8122   4.070   2.163   7.631 -1.5168 -0.4051  1.2952
  801MOL0     H 8123   4.085   2.187   7.190 -1.4134  0.0336 -0.6320
  801MOL0     H 8124   3.947   2.087   7.231  1.0742  0.6941 -3.5797
  801MOL0     H 8125   4.134   1.944   7.373  0.9149 -0.8544 -0.8251
  801MOL0     H 8126   4.243   2.071   7.316  2.0398 -1.0670 -1.5129
  801MOL0     H 8127   4.150   1.985   7.070 -0.4740 -1.5428 -1.1057
  801MOL0     H 8128   4.039   1.885   7.152 -0.6721  2.1793 -3.3759
  801MOL0     H 8129   4.340   1.885   7.151  0.2919 -0.4249  1.1564
  801MOL0     H 8130   4.264   1.743   7.232  3.5783  1.9239  1.5364
  801MOL0     H 8131   4.252   1.733   6.789 -1.2679  1.7281  0.1221
  801MOL0     H 8132   3.744   2.159   7.341 -1.3570 -1.5132  0.1916
  801MOL0     H 8133   3.518   2.141   7.426 -3.2144 -0.7154  0.2253
  801MOL0     H 8134   3.507   1.977   7.491 -2.4917  1.0171 -1.7230
  801MOL0     H 8135   3.487   2.123   7.597  0.6242  0.3843  0.4692
  802MOL0     O 8136   0.243   2.948   1.074 -0.5917  0.0246 -0.2130
  802MOL0     C 8137   0.360   2.909   1.111 -0.6068 -0.0545  0.2497
  802MOL0     O 8138   0.477   2.945   1.059 -0.6969  0.5131 -0.4545
  802MOL0     C 8139   0.483   3.028   0.948 -0.0319 -0.5796 -0.6154
  802MOL0     C 8140   0.461   2.972   0.824 -0.2885  0.0328  1.3787
  802MOL0     C 8141   0.485   3.054   0.702 -0.3466  0.2085  0.3172
  802MOL0     C 8142   0.503   3.195   0.709 -0.1245 -0.1191 -0.2902
  802MOL0     O 8143   0.514   3.285   0.600 -0.8578  1.0768 -0.0360
  802MOL0     C 8144   0.483   3.242   0.469  0.4074  0.3366 -0.0130
  802MOL0     C 8145   0.332   3.203   0.464  0.7186 -0.0268 -0.0522
  802MOL0     C 8146   0.287   3.162   0.328  0.4482  0.9054 -0.5615
  802MOL0     C 8147   0.139   3.115   0.315  0.6405 -0.1240 -0.7258
  802MOL0     C 8148   0.081   3.104   0.168  0.7898 -0.9035 -0.3792
  802MOL0     C 8149   0.176   3.015   0.088  0.0819 -0.2643  0.2138
  802MOL0     C 8150   0.092   2.951  -0.030  0.4985  0.6549  0.3142
  802MOL0     C 8151   0.187   2.894  -0.129 -0.8875  0.4734  0.6179
  802MOL0     N 8152   0.125   2.805  -0.227 -0.0747  0.6797  0.5347
  802MOL0     C 8153   0.022   2.842  -0.314 -0.7222 -0.1811 -1.2212
  802MOL0     C 8154   0.001   2.734  -0.399 -0.0257  1.0669 -0.4389
  802MOL0     C 8155  -0.097   2.731  -0.513  0.4104 -0.3146  0.8676
  802MOL0     C 8156  -0.168   2.861  -0.538  0.8999  0.5319 -0.1249
  802MOL0     C 8157  -0.271   2.868  -0.663  0.9016 -0.4206 -0.1977
  802MOL0     C 8158  -0.401   2.781  -0.661  0.1809  0.7362 -0.2844
  802MOL0     O 8159  -0.500   2.857  -0.601  0.6042 -0.4482 -0.3764
  802MOL0     C 8160  -0.633   2.844  -0.646 -0.5986  0.5576  1.2567
  802MOL0     C 8161  -0.691   2.749  -0.728  0.0862 -0.2423 -0.0442
  802MOL0     C 8162  -0.827   2.750  -0.769 -0.2208  0.2264 -0.3385
  802MOL0     C 8163  -0.918   2.839  -0.715  0.2497  1.3249  0.3602
  802MOL0     C 8164  -1.060   2.838  -0.748 -0.1801 -0.3008 -0.1248
  802MOL0     O 8165  -1.151   2.863  -0.652 -0.2678  0.1676 -0.2962
  802MOL0     C 8166  -1.285   2.839  -0.678  0.0806  0.3383  0.9633
  802MOL0     C 8167  -1.376   2.934  -0.625  0.2811 -0.1644  0.6006
  802MOL0     C 8168  -1.515   2.918  -0.638 -0.0695 -0.9520  0.4356
  802MOL0     C 8169  -1.566   2.814  -0.723 -0.4622 -1.0804  0.9792
  802MOL0     O 8170  -1.703   2.791  -0.749 -0.3539  0.0051 -0.5879
  802MOL0     C 8171  -1.754   2.708  -0.638 -1.1461  0.4826  0.5646
  802MOL0     C 8172  -1.893   2.665  -0.690 -0.7725 -0.1797  0.2829
  802MOL0     C 8173  -1.952   2.565  -0.577  0.6282 -0.1984  0.6028
  802MOL0     C 8174  -1.904   2.418  -0.549 -0.3759 -0.3051  0.7329
  802MOL0     C 8175  -1.938   2.366  -0.415  0.4061  1.2193  0.9475
  802MOL0     C 8176  -2.078   2.385  -0.356  1.5386  0.0235  0.1268
  802MOL0     C 8177  -2.180   2.309  -0.456  0.8129  0.1589  0.5102
  802MOL0     C 8178  -2.304   2.269  -0.378 -0.2109 -0.6829 -0.2835
  802MOL0    Cl 8179  -2.274   2.117  -0.278  0.4193 -0.0004  0.4264
  802MOL0     C 8180  -1.481   2.725  -0.784  0.0220 -0.8642  0.8253
  802MOL0     C 8181  -1.344   2.737  -0.758  0.7998  0.9439 -1.0855
  802MOL0     O 8182  -1.091   2.792  -0.856  0.8361  0.0424  0.5859
  802MOL0     C 8183  -0.861   2.944  -0.646  0.5216  0.2077 -0.7263
  802MOL0     C 8184  -0.724   2.950  -0.612  0.0469 -0.0443 -0.5342
  802MOL0     N 8185   0.099   2.640  -0.373 -0.1842  0.2378  0.1619
  802MOL0     N 8186   0.173   2.686  -0.277 -0.2293  1.1018  0.2041
  802MOL0     C 8187   0.507   3.248   0.838  0.3890 -0.3304  0.6543
  802MOL0     C 8188   0.494   3.171   0.955 -0.7623 -0.3434 -0.5286
  802MOL0     C 8189   0.363   2.827   1.233 -0.0869 -0.2309  0.9287
  802MOL0     C 8190   0.472   2.731   1.245  0.1530  0.5353  0.0274
  802MOL0     C 8191   0.490   2.657   1.365 -0.1999 -0.3023  0.3617
  802MOL0     C 8192   0.407   2.660   1.474  0.5880 -0.5323  1.3046
  802MOL0     O 8193   0.431   2.571   1.582 -0.1611  0.6357  0.3020
  802MOL0     C 8194   0.367   2.603   1.705 -0.4752 -0.3177 -0.7194
  802MOL0     C 8195   0.421   2.725   1.780 -1.0323 -0.4080 -1.1278
  802MOL0     C 8196   0.572   2.714   1.795 -0.3526  0.1205 -0.3342
  802MOL0     C 8197   0.616   2.837   1.865  0.1571  0.4190 -0.2034
  802MOL0     C 8198   0.761   2.830   1.877 -0.1590 -0.1694 -0.1291
  802MOL0     C 8199   0.884   2.821   1.884 -1.0646  0.5345 -0.2863
  802MOL0     C 8200   0.303   2.757   1.461  0.2868 -0.6339  0.6762
  802MOL0     C 8201   0.283   2.846   1.353 -0.0722 -0.0191  0.1818
  802MOL0     C 8202   0.175   2.949   1.359 -0.0233  0.6872  0.3209
  802MOL0     H 8203   0.447   2.866   0.807  1.3917 -0.1782  1.0577
  802MOL0     H 8204   0.494   3.001   0.608  2.0855  0.1823  0.5185
  802MOL0     H 8205   0.496   3.328   0.402 -0.4055 -1.0767 -2.0601
  802MOL0     H 8206   0.555   3.167   0.437  0.0478 -0.3754  0.7992
  802MOL0     H 8207   0.272   3.288   0.499  0.5001 -0.0720 -0.3210
  802MOL0     H 8208   0.309   3.116   0.527  0.5361  0.9968  1.3371
  802MOL0     H 8209   0.345   3.074   0.297 -0.7134 -1.4311  3.1679
  802MOL0     H 8210   0.307   3.240   0.254 -3.0251  1.0860 -1.4967
  802MOL0     H 8211   0.136   3.023   0.374  0.0970  1.2922  1.6142
  802MOL0     H 8212   0.082   3.191   0.370  1.5124 -1.6825  2.5705
  802MOL0     H 8213  -0.025   3.080   0.172  0.6077 -0.0401  0.2666
  802MOL0     H 8214   0.097   3.204   0.126  1.8392 -1.3085 -0.9961
  802MOL0     H 8215   0.254   3.079   0.047 -1.1531  2.5315  1.9456
  802MOL0     H 8216   0.222   2.939   0.150 -1.9053  1.2597  3.8624
  802MOL0     H 8217   0.024   3.025  -0.074 -0.3576 -1.0673 -1.4586
  802MOL0     H 8218   0.030   2.872   0.015 -1.7317  1.4941 -1.1104
  802MOL0     H 8219   0.239   2.976  -0.180 -1.7639  1.8366  1.8563
  802MOL0     H 8220   0.253   2.820  -0.082 -1.5456 -1.3902 -1.2349
  802MOL0     H 8221  -0.016   2.944  -0.316 -1.2565 -0.1754  2.5895
  802MOL0     H 8222  -0.040   2.710  -0.604 -1.7030  1.3541 -0.9695
  802MOL0     H 8223  -0.174   2.655  -0.498  0.3957 -0.6066 -0.5395
  802MOL0     H 8224  -0.227   2.879  -0.447 -0.9103 -0.9593 -0.9552
  802MOL0     H 8225  -0.086   2.934  -0.546  0.4087  1.0474 -0.5385
  802MOL0     H 8226  -0.222   2.862  -0.760  0.8062  0.3271 -0.2986
  802MOL0     H 8227  -0.310   2.970  -0.658  3.4234  0.7645 -2.4858
  802MOL0     H 8228  -0.394   2.691  -0.599 -0.6846 -0.7342 -2.2089
  802MOL0     H 8229  -0.423   2.739  -0.759 -1.6891  0.5970  0.1552
  802MOL0     H 8230  -0.619   2.676  -0.764  3.5225  0.3051  4.6745
  802MOL0     H 8231  -0.871   2.680  -0.840 -1.9992  1.4417 -0.4893
  802MOL0     H 8232  -1.345   3.022  -0.570  1.0762  1.6067 -2.4384
  802MOL0     H 8233  -1.581   2.986  -0.585 -0.8444  0.8601 -2.6104
  802MOL0     H 8234  -1.687   2.623  -0.623  1.5903  1.8187 -2.5933
  802MOL0     H 8235  -1.767   2.768  -0.548 -1.9087  0.1017  0.7183
  802MOL0     H 8236  -1.959   2.751  -0.703 -0.3708  0.5464  2.5680
  802MOL0     H 8237  -1.871   2.617  -0.785  1.2325 -0.7050  0.9639
  802MOL0     H 8238  -1.936   2.617  -0.482  0.6777 -1.5129  1.3283
  802MOL0     H 8239  -2.060   2.555  -0.588  0.7587 -2.0790  0.6782
  802MOL0     H 8240  -1.798   2.402  -0.570 -0.4020 -0.4092  0.6783
  802MOL0     H 8241  -1.948   2.350  -0.623 -0.1312  0.8574 -0.5238
  802MOL0     H 8242  -1.879   2.419  -0.340 -0.7825  0.8970  2.1771
  802MOL0     H 8243  -1.908   2.261  -0.404 -0.2558  1.2543  4.4486
  802MOL0     H 8244  -2.076   2.335  -0.259 -0.1058  0.2908  0.3208
  802MOL0     H 8245  -2.099   2.491  -0.345 -0.0928 -0.0407 -1.8034
  802MOL0     H 8246  -2.140   2.219  -0.503  2.4127  0.2355  1.6220
  802MOL0     H 8247  -2.212   2.384  -0.529  1.5549  1.5098  1.5106
  802MOL0     H 8248  -2.331   2.354  -0.314 -1.5651 -1.3320  0.0337
  802MOL0     H 8249  -2.390   2.272  -0.444 -0.2583 -0.4152 -0.2139
  802MOL0     H 8250  -1.527   2.635  -0.824  2.3678 -2.6538  1.9418
  802MOL0     H 8251  -1.297   2.645  -0.791  2.2043  1.3407 -0.2914
  802MOL0     H 8252  -0.912   3.032  -0.607 -1.6112 -1.6592  0.9646
  802MOL0     H 8253  -0.684   3.027  -0.547  1.3836 -0.6531 -0.5982
  802MOL0     H 8254   0.517   3.356   0.846  1.8577 -0.2798 -1.1006
  802MOL0     H 8255   0.499   3.227   1.048 -2.1255  1.4949 -1.5017
  802MOL0     H 8256   0.532   2.716   1.156 -0.2000  3.8012 -0.8602
  802MOL0     H 8257   0.569   2.585   1.381  0.7620  0.1905 -1.7642
  802MOL0     H 8258   0.369   2.509   1.760 -0.7180 -0.4844 -0.9915
  802MOL0     H 8259   0.258   2.611   1.698 -0.5893  0.5913  1.4195
  802MOL0     H 8260   0.372   2.718   1.878 -0.1676  1.7711 -0.4885
  802MOL0     H 8261   0.386   2.817   1.732 -0.4226 -0.9894 -2.7471
  802MOL0     H 8262   0.625   2.699   1.701  0.2933  2.3139 -0.3679
  802MOL0     H 8263   0.598   2.623   1.850 -0.0367 -0.1267 -0.8861
  802MOL0     H 8264   0.588   2.938   1.834 -0.3786  0.6298  0.9189
  802MOL0     H 8265   0.584   2.833   1.970  0.0521  1.3390 -0.1891
  802MOL0     H 8266   0.989   2.838   1.890 -1.1848  3.5596 -3.4777
  802MOL0     H 8267   0.230   2.776   1.539 -0.7692 -0.0432 -0.4247
  802MOL0     H 8268   0.142   2.992   1.453  2.2693  0.3365  1.3608
  802MOL0     H 8269   0.211   3.039   1.308  2.1359 -0.1800  0.1872
  802MOL0     H 8270   0.082   2.917   1.311 -0.0077  0.7226  0.2660
  803MOL0     O 8271   9.633   0.906  11.467 -0.1678  0.0991  0.0417
  803MOL0     C 8272   9.534   0.837  11.483 -0.8668 -0.0312  0.5998
  803MOL0     O 8273   9.526   0.703  11.455  0.2563 -0.3013  0.2379
  803MOL0     C 8274   9.649   0.640  11.438 -0.9567  0.4133 -0.3201
  803MOL0     C 8275   9.750   0.634  11.534  0.4989  0.1547  0.3974
  803MOL0     C 8276   9.876   0.579  11.525 -0.0826  0.5528  0.2626
  803MOL0     C 8277   9.899   0.506  11.404 -0.8356  0.1755 -0.0139
  803MOL0     O 8278  10.023   0.441  11.386  0.0844  0.2369 -0.0669
  803MOL0     C 8279  10.120   0.438  11.491 -0.8148  0.0132  0.2561
  803MOL0     C 8280  10.209   0.315  11.459 -0.4284 -0.4710 -0.4435
  803MOL0     C 8281  10.141   0.189  11.513 -1.2469 -0.2714  0.2004
  803MOL0     C 8282  10.015   0.153  11.431 -0.0513 -0.4715 -1.0244
  803MOL0     C 8283   9.937   0.010  11.452 -0.7700  0.4686 -0.7306
  803MOL0     C 8284   9.830  -0.008  11.354  0.3943 -0.5063 -0.6033
  803MOL0     C 8285   9.750  -0.135  11.399 -0.0076 -0.5682 -1.5659
  803MOL0     C 8286   9.635  -0.152  11.297  0.0913 -1.0797  0.8747
  803MOL0     N 8287   9.518  -0.241  11.334  0.7786 -0.0522 -1.1944
  803MOL0     C 8288   9.404  -0.209  11.390 -0.1956 -0.0563  0.0419
  803MOL0     C 8289   9.331  -0.325  11.383  0.2393  0.5568 -0.3582
  803MOL0     C 8290   9.205  -0.349  11.463  0.0536 -0.2240 -0.1693
  803MOL0     C 8291   9.078  -0.316  11.389 -0.3469 -0.0507  0.4516
  803MOL0     C 8292   8.949  -0.350  11.466 -0.0261  0.5903  0.6181
  803MOL0     C 8293   8.881  -0.477  11.416  0.7504  0.2581 -0.1247
  803MOL0     O 8294   8.830  -0.480  11.284  0.5793  0.0871  0.3248
  803MOL0     C 8295   8.728  -0.574  11.265 -0.1049 -0.1007  0.3357
  803MOL0     C 8296   8.766  -0.707  11.280  0.8821  0.0041 -0.7424
  803MOL0     C 8297   8.676  -0.804  11.229  0.1801 -0.4936  0.4325
  803MOL0     C 8298   8.552  -0.774  11.185  1.1093  0.0490  1.1754
  803MOL0     C 8299   8.449  -0.876  11.158 -0.9292 -0.6753 -0.5199
  803MOL0     O 8300   8.505  -1.001  11.132  0.4841  0.0096  0.0538
  803MOL0     C 8301   8.418  -1.097  11.069  0.2877  0.4827  1.5267
  803MOL0     C 8302   8.404  -1.233  11.123 -0.3280 -0.3335  0.2610
  803MOL0     C 8303   8.308  -1.322  11.068 -0.0619  0.9326  0.7831
  803MOL0     C 8304   8.221  -1.291  10.962 -0.5249  0.1218 -0.6851
  803MOL0     O 8305   8.128  -1.384  10.917  0.1603 -0.0249 -0.1265
  803MOL0     C 8306   8.191  -1.467  10.820 -0.3084 -0.7596  0.8455
  803MOL0     C 8307   8.094  -1.557  10.752 -1.4407  0.8811  0.6413
  803MOL0     C 8308   8.043  -1.656  10.850  0.9671 -0.4245 -0.6107
  803MOL0     C 8309   7.907  -1.716  10.807  0.5309  0.0280  0.0074
  803MOL0     C 8310   7.791  -1.609  10.811  0.6460 -0.2971 -0.2330
  803MOL0     C 8311   7.742  -1.568  10.953 -0.6076  0.3796 -0.7073
  803MOL0     C 8312   7.639  -1.448  10.956  0.1086 -0.4464  0.0747
  803MOL0     C 8313   7.620  -1.394  11.103  0.0134 -0.9602 -0.1528
  803MOL0    Cl 8314   7.566  -1.223  11.107  0.0252 -0.1703 -0.3070
  803MOL0     C 8315   8.228  -1.161  10.917  0.8672  0.8219 -0.5449
  803MOL0     C 8316   8.327  -1.073  10.967 -0.6853 -0.3617  0.4419
  803MOL0     O 8317   8.336  -0.833  11.132  1.0235 -0.4163 -0.1034
  803MOL0     C 8318   8.511  -0.643  11.167 -0.5796 -1.1539 -0.9106
  803MOL0     C 8319   8.605  -0.539  11.205 -0.0657 -0.5112  0.0331
  803MOL0     N 8320   9.401  -0.429  11.318  0.4827 -0.0455 -0.6444
  803MOL0     N 8321   9.520  -0.369  11.295  0.0526  0.0018  0.4793
  803MOL0     C 8322   9.801   0.502  11.304  0.5616 -0.0604 -0.4708
  803MOL0     C 8323   9.675   0.558  11.333 -0.5639  0.9135  0.5404
  803MOL0     C 8324   9.419   0.927  11.508 -0.4249  0.1449 -0.0321
  803MOL0     C 8325   9.301   0.886  11.448  0.2445  0.1688  0.4164
  803MOL0     C 8326   9.187   0.949  11.470 -0.7829  0.1612  0.7365
  803MOL0     C 8327   9.181   1.065  11.553 -1.1069  0.7873  0.1946
  803MOL0     O 8328   9.065   1.125  11.589 -0.1083 -0.4078 -0.2316
  803MOL0     C 8329   8.993   1.046  11.681 -0.6844 -1.0971 -0.1464
  803MOL0     C 8330   8.903   1.119  11.772  0.5773 -0.8002 -0.1060
  803MOL0     C 8331   8.975   1.202  11.883  0.8845  0.5046 -0.3947
  803MOL0     C 8332   8.886   1.310  11.945  0.6030  0.6448 -0.3658
  803MOL0     C 8333   8.952   1.430  12.003 -0.3881 -0.5197 -0.1628
  803MOL0     C 8334   9.004   1.530  12.048 -0.0838 -0.6552 -0.0459
  803MOL0     C 8335   9.305   1.109  11.615 -0.8931 -0.2068 -0.3690
  803MOL0     C 8336   9.415   1.034  11.600  0.0366 -0.7686  0.1352
  803MOL0     C 8337   9.539   1.078  11.659  0.2655  0.2373 -0.1604
  803MOL0     H 8338   9.733   0.684  11.629 -0.6161 -0.6124  0.6289
  803MOL0     H 8339   9.947   0.605  11.602 -2.3553  2.3971  1.8614
  803MOL0     H 8340  10.182   0.528  11.482  0.0530 -0.7735 -2.8371
  803MOL0     H 8341  10.078   0.418  11.591 -1.2074 -1.0901 -0.1094
  803MOL0     H 8342  10.299   0.326  11.521 -1.3916 -0.4924  0.9951
  803MOL0     H 8343  10.233   0.302  11.353 -1.1637 -3.6843 -0.3210
  803MOL0     H 8344  10.132   0.200  11.622  1.1756  0.5949  0.3628
  803MOL0     H 8345  10.209   0.103  11.508  1.3648  1.4559  2.7285
  803MOL0     H 8346   9.943   0.236  11.437  1.2770  0.6449  0.1092
  803MOL0     H 8347  10.050   0.125  11.332 -2.0178 -2.4894 -1.2441
  803MOL0     H 8348  10.017  -0.062  11.434  1.4549  3.0091 -1.5752
  803MOL0     H 8349   9.907  -0.011  11.555 -0.7676  5.0236  0.4154
  803MOL0     H 8350   9.763   0.073  11.382  0.2537 -1.3667  1.8438
  803MOL0     H 8351   9.869  -0.006  11.252  0.4403  1.1706 -0.5755
  803MOL0     H 8352   9.702  -0.123  11.496 -0.4742  2.5462 -2.0960
  803MOL0     H 8353   9.814  -0.224  11.408  1.0564  0.2463 -0.8994
  803MOL0     H 8354   9.590  -0.056  11.269 -0.7847 -2.2541 -2.1918
  803MOL0     H 8355   9.675  -0.187  11.202 -0.3150 -2.8099  1.3123
  803MOL0     H 8356   9.405  -0.108  11.431  3.0913 -0.0079  0.0752
  803MOL0     H 8357   9.193  -0.448  11.508 -0.2110  0.0872  0.4765
  803MOL0     H 8358   9.204  -0.289  11.555 -1.1876 -0.9317  0.3166
  803MOL0     H 8359   9.082  -0.211  11.359  0.3176 -1.3558 -4.9105
  803MOL0     H 8360   9.080  -0.355  11.287  0.6848 -0.5279  0.6463
  803MOL0     H 8361   8.881  -0.267  11.445  0.7289  0.6941 -1.6975
  803MOL0     H 8362   8.965  -0.363  11.573  1.7752 -2.1272  0.1297
  803MOL0     H 8363   8.803  -0.489  11.492  1.4255 -2.9581  0.2087
  803MOL0     H 8364   8.952  -0.559  11.416 -1.3235 -1.9152 -4.5156
  803MOL0     H 8365   8.865  -0.731  11.316  0.5284 -0.2081  0.1222
  803MOL0     H 8366   8.719  -0.901  11.248  5.3997  1.8087  2.3438
  803MOL0     H 8367   8.478  -1.268  11.195 -0.3784 -4.1455 -1.2959
  803MOL0     H 8368   8.293  -1.425  11.098 -2.7193  1.1849  0.5164
  803MOL0     H 8369   8.230  -1.400  10.743 -1.6341  0.3884  1.1443
  803MOL0     H 8370   8.265  -1.530  10.871  1.6637  0.5166 -0.3076
  803MOL0     H 8371   8.019  -1.494  10.703 -1.9616  1.4228  2.0911
  803MOL0     H 8372   8.128  -1.609  10.662 -1.4294  0.6630  0.7706
  803MOL0     H 8373   8.117  -1.736  10.849  0.8697 -0.5346  0.4950
  803MOL0     H 8374   8.032  -1.614  10.950 -0.7087  2.2396 -1.7858
  803MOL0     H 8375   7.863  -1.799  10.864 -1.2805  0.0038 -1.3127
  803MOL0     H 8376   7.921  -1.764  10.709 -3.7959 -3.6755  0.8809
  803MOL0     H 8377   7.711  -1.664  10.761 -0.6417  1.5687 -0.3427
  803MOL0     H 8378   7.820  -1.524  10.749 -0.4944 -1.1027 -1.9578
  803MOL0     H 8379   7.703  -1.661  10.997  0.5265  0.0089 -0.4593
  803MOL0     H 8380   7.835  -1.536  11.001 -0.3441 -0.5436 -0.5844
  803MOL0     H 8381   7.547  -1.482  10.909 -0.3705 -0.5903  1.0881
  803MOL0     H 8382   7.688  -1.374  10.893  1.6176 -1.0381  0.5034
  803MOL0     H 8383   7.551  -1.459  11.157 -3.8582  1.4166 -1.7977
  803MOL0     H 8384   7.720  -1.397  11.148  0.1080 -0.7603 -0.3460
  803MOL0     H 8385   8.163  -1.123  10.839  0.0866  0.1438 -0.2284
  803MOL0     H 8386   8.336  -0.975  10.921  4.3090 -0.6003  0.3718
  803MOL0     H 8387   8.412  -0.608  11.143  0.2207 -0.3969 -3.3677
  803MOL0     H 8388   8.576  -0.436  11.187 -0.7867 -0.5164  1.0954
  803MOL0     H 8389   9.830   0.452  11.212  0.6011 -0.8837 -0.0255
  803MOL0     H 8390   9.591   0.540  11.267 -1.7562  1.7038  1.8005
  803MOL0     H 8391   9.302   0.797  11.386  1.1379 -0.4064  1.2132
  803MOL0     H 8392   9.103   0.917  11.409  0.1681  1.9833 -1.7073
  803MOL0     H 8393   9.048   0.979  11.748 -0.6398  0.6159  1.6016
  803MOL0     H 8394   8.934   0.968  11.632 -0.3615 -2.9925  2.2541
  803MOL0     H 8395   8.841   1.043  11.821 -2.3078 -0.6692 -3.1699
  803MOL0     H 8396   8.827   1.178  11.720 -0.5670 -2.0544  0.0986
  803MOL0     H 8397   9.044   1.254  11.816 -0.5636  0.5545 -1.8876
  803MOL0     H 8398   9.036   1.140  11.950  0.1308  0.1079 -0.0645
  803MOL0     H 8399   8.807   1.345  11.877  0.0817  2.2393  0.9923
  803MOL0     H 8400   8.833   1.264  12.029 -2.7407 -3.2482 -4.1234
  803MOL0     H 8401   9.052   1.617  12.089 -1.3816 -1.2598  3.0263
  803MOL0     H 8402   9.303   1.199  11.675 -1.0336 -0.2344 -0.3323
  803MOL0     H 8403   9.516   1.123  11.756 -1.0872 -2.5816  0.9385
  803MOL0     H 8404   9.613   1.004  11.689  0.6096  0.5507 -0.2189
  803MOL0     H 8405   9.591   1.144  11.588  3.2751 -1.0448  0.7261
  804MOL0     O 8406   8.202   8.151  10.303  0.1723 -0.8398  0.7220
  804MOL0     C 8407   8.131   8.248  10.274  0.0421 -0.6717  0.1159
  804MOL0     O 8408   8.045   8.251  10.171 -0.0841 -0.7911 -0.1179
  804MOL0     C 8409   8.018   8.164  10.069  1.2424 -0.7056 -0.2169
  804MOL0     C 8410   8.094   8.048  10.050  1.0418 -0.5755  0.5308
  804MOL0     C 8411   8.071   7.970   9.931  0.7137  0.4560  0.7940
  804MOL0     C 8412   7.970   8.001   9.840  0.1881  0.1280  0.3299
  804MOL0     O 8413   7.942   7.930   9.718  0.2089  0.9024  0.5572
  804MOL0     C 8414   8.056   7.894   9.637 -0.1222  0.3440  0.5158
  804MOL0     C 8415   8.106   7.751   9.632  0.7656 -0.0448 -0.4610
  804MOL0     C 8416   8.061   7.674   9.509 -0.2784 -0.6284  0.1615
  804MOL0     C 8417   7.908   7.672   9.495 -0.4155 -0.0900 -0.4146
  804MOL0     C 8418   7.870   7.593   9.369 -0.7962 -0.4657  0.0094
  804MOL0     C 8419   7.718   7.591   9.357  0.6621  0.0041  0.5037
  804MOL0     C 8420   7.639   7.501   9.248 -0.1707 -1.0258  0.2741
  804MOL0     C 8421   7.499   7.530   9.215  0.9797  0.0155  0.0031
  804MOL0     N 8422   7.491   7.661   9.162 -0.3222  0.5777  0.3681
  804MOL0     C 8423   7.432   7.770   9.223  0.4592  0.4558  0.9909
  804MOL0     C 8424   7.429   7.868   9.123 -0.6787 -0.2831  0.7071
  804MOL0     C 8425   7.426   8.023   9.147  0.1235  0.5554 -0.2484
  804MOL0     C 8426   7.559   8.074   9.197 -0.4925 -0.8014 -0.4162
  804MOL0     C 8427   7.551   8.224   9.246 -0.1472  0.0237  0.3373
  804MOL0     C 8428   7.681   8.276   9.306 -0.3224 -0.1305  0.8520
  804MOL0     O 8429   7.659   8.416   9.338 -0.4637 -0.5349 -0.3278
  804MOL0     C 8430   7.584   8.470   9.445 -0.4708 -0.2193  0.1035
  804MOL0     C 8431   7.505   8.588   9.438 -0.4564 -0.6662  0.3544
  804MOL0     C 8432   7.423   8.621   9.544 -0.0953 -0.6470 -0.2098
  804MOL0     C 8433   7.416   8.542   9.656 -0.8368  0.7943  0.6361
  804MOL0     C 8434   7.324   8.570   9.777  0.1087  1.6177 -0.0309
  804MOL0     O 8435   7.260   8.457   9.822  0.2315  0.0474 -0.8499
  804MOL0     C 8436   7.162   8.459   9.922  0.0907 -0.0145 -0.3539
  804MOL0     C 8437   7.149   8.563  10.023  0.8238  0.8017 -0.2176
  804MOL0     C 8438   7.049   8.560  10.116  0.1262  0.0574 -0.1974
  804MOL0     C 8439   6.958   8.449  10.126 -0.0780 -1.1029  1.4617
  804MOL0     O 8440   6.855   8.460  10.218 -0.4601 -0.0382 -0.3185
  804MOL0     C 8441   6.784   8.339  10.241 -0.2317  0.3480  0.0363
  804MOL0     C 8442   6.709   8.349  10.385  0.3201 -0.2513  0.3224
  804MOL0     C 8443   6.783   8.429  10.491  0.5628  0.7796  0.4364
  804MOL0     C 8444   6.710   8.449  10.629  0.0804 -0.0698 -0.3652
  804MOL0     C 8445   6.768   8.538  10.738 -0.3169  0.1439 -0.3049
  804MOL0     C 8446   6.797   8.678  10.695 -0.5011 -1.3823 -1.1439
  804MOL0     C 8447   6.895   8.736  10.807  0.1307  0.0533 -0.4485
  804MOL0     C 8448   6.963   8.864  10.757  1.0213 -0.2065  0.5907
  804MOL0    Cl 8449   7.069   8.942  10.880 -0.0295  0.0295 -0.0381
  804MOL0     C 8450   6.981   8.347  10.035  0.6589  0.3813  0.8352
  804MOL0     C 8451   7.086   8.347   9.939 -1.1376  0.1699  1.5175
  804MOL0     O 8452   7.315   8.682   9.819 -0.6571  0.5437 -0.4260
  804MOL0     C 8453   7.496   8.425   9.665 -0.5592 -0.3622  0.2565
  804MOL0     C 8454   7.581   8.391   9.557  0.5312  0.9902 -0.0648
  804MOL0     N 8455   7.454   7.809   9.004  1.1050  0.7096  0.7718
  804MOL0     N 8456   7.489   7.683   9.029 -0.9954 -0.2514 -0.0011
  804MOL0     C 8457   7.892   8.116   9.862 -0.4973  0.4266 -0.9329
  804MOL0     C 8458   7.916   8.197   9.971  0.3931 -0.3439 -0.4546
  804MOL0     C 8459   8.117   8.379  10.356 -0.6430  0.0781 -0.0140
  804MOL0     C 8460   8.038   8.486  10.321 -0.2652  1.0441  0.5970
  804MOL0     C 8461   8.023   8.603  10.396 -0.2370  0.3107  0.1625
  804MOL0     C 8462   8.088   8.616  10.518 -0.2952  1.2286 -0.5522
  804MOL0     O 8463   8.076   8.735  10.588 -0.0936  0.3573 -1.3893
  804MOL0     C 8464   8.137   8.745  10.715 -0.1178  0.7957  0.7723
  804MOL0     C 8465   8.082   8.871  10.775 -0.5769 -0.6457 -0.8436
  804MOL0     C 8466   7.948   8.841  10.830  0.8402  0.7602 -0.3217
  804MOL0     C 8467   7.939   8.820  10.980  0.0855  0.1854  0.5849
  804MOL0     C 8468   7.978   8.933  11.060 -0.1449  0.1265  0.1710
  804MOL0     C 8469   8.006   9.030  11.130 -0.3387 -0.1102  0.8517
  804MOL0     C 8470   8.170   8.511  10.561  0.0480  0.8313  0.7248
  804MOL0     C 8471   8.184   8.386  10.486  0.8066 -0.8113 -1.0697
  804MOL0     C 8472   8.252   8.269  10.553 -1.0835 -0.5133  0.5134
  804MOL0     H 8473   8.179   8.011  10.107  2.0831  0.3733 -0.3483
  804MOL0     H 8474   8.133   7.882   9.918 -2.9377 -2.3755  1.0015
  804MOL0     H 8475   8.030   7.922   9.535  1.6800  2.3494  0.5510
  804MOL0     H 8476   8.147   7.949   9.663  0.8986 -0.6176 -0.8083
  804MOL0     H 8477   8.079   7.693   9.722  3.4684  0.9909  1.1126
  804MOL0     H 8478   8.215   7.750   9.638  0.9759 -1.1542 -3.0163
  804MOL0     H 8479   8.096   7.571   9.502 -0.6621 -0.7066 -0.8650
  804MOL0     H 8480   8.105   7.735   9.429  0.9404  0.3458  1.5265
  804MOL0     H 8481   7.863   7.622   9.581  1.0211  0.7505  0.8557
  804MOL0     H 8482   7.865   7.772   9.482  0.3403  0.6117  2.0160
  804MOL0     H 8483   7.907   7.642   9.278 -1.7563  2.3311  1.0259
  804MOL0     H 8484   7.898   7.488   9.364 -2.3664 -0.8737 -1.1849
  804MOL0     H 8485   7.682   7.548   9.451 -1.2877  0.4531  0.0070
  804MOL0     H 8486   7.691   7.697   9.350  3.2778  0.6491 -1.0618
  804MOL0     H 8487   7.643   7.403   9.296  1.8059 -1.6891 -1.1244
  804MOL0     H 8488   7.694   7.511   9.154  0.1909 -1.6560  0.4119
  804MOL0     H 8489   7.450   7.459   9.148 -1.2978  2.0416 -0.6099
  804MOL0     H 8490   7.429   7.534   9.298 -0.0739 -0.6114 -0.8336
  804MOL0     H 8491   7.420   7.796   9.327 -2.3731 -0.6291  1.0206
  804MOL0     H 8492   7.401   8.087   9.062 -0.2802  0.5143 -0.1632
  804MOL0     H 8493   7.350   8.032   9.226 -0.0486  3.7308 -0.6683
  804MOL0     H 8494   7.586   8.009   9.281  0.9209 -0.5811 -0.6712
  804MOL0     H 8495   7.639   8.071   9.122 -0.4090  3.0944 -0.6423
  804MOL0     H 8496   7.473   8.235   9.321 -2.2167  1.5296 -1.9029
  804MOL0     H 8497   7.508   8.281   9.163 -2.2871  1.0879  2.0906
  804MOL0     H 8498   7.761   8.274   9.231  0.2042  1.7906  1.3282
  804MOL0     H 8499   7.705   8.222   9.398 -1.8811 -0.5882  1.0035
  804MOL0     H 8500   7.499   8.656   9.353 -1.7345  2.9640  3.0808
  804MOL0     H 8501   7.348   8.700   9.547  1.3547  1.0280 -3.2685
  804MOL0     H 8502   7.212   8.651  10.030 -1.8803  2.7246  2.9423
  804MOL0     H 8503   7.055   8.632  10.197  2.6605 -0.5594  0.2705
  804MOL0     H 8504   6.723   8.304  10.157  3.9391 -2.6967 -2.0886
  804MOL0     H 8505   6.857   8.258  10.233 -0.0421  0.6971 -2.8822
  804MOL0     H 8506   6.616   8.406  10.378  1.2492  1.2368 -0.3762
  804MOL0     H 8507   6.683   8.248  10.419  1.2115 -0.6649 -0.1911
  804MOL0     H 8508   6.866   8.370  10.531 -1.2921 -2.4225 -0.1205
  804MOL0     H 8509   6.827   8.516  10.441  3.3953 -1.0793 -0.5496
  804MOL0     H 8510   6.687   8.349  10.670  3.2026 -0.3146  1.0690
  804MOL0     H 8511   6.612   8.486  10.597  1.0155  0.5108 -2.7649
  804MOL0     H 8512   6.857   8.483  10.772  0.7595  0.9762 -1.6670
  804MOL0     H 8513   6.692   8.528  10.816 -0.2173  2.2554  0.0989
  804MOL0     H 8514   6.847   8.686  10.598  0.3443 -4.9567 -1.1545
  804MOL0     H 8515   6.704   8.735  10.695 -0.6925 -1.6635 -2.5765
  804MOL0     H 8516   6.984   8.673  10.818  1.0078  1.5152  1.2909
  804MOL0     H 8517   6.849   8.742  10.906  0.7217 -0.0992 -0.1567
  804MOL0     H 8518   7.030   8.831  10.678 -0.7641 -3.2195  0.1981
  804MOL0     H 8519   6.895   8.939  10.715  0.4566 -0.6037  0.7804
  804MOL0     H 8520   6.911   8.265  10.020 -2.3050  2.5958  1.7069
  804MOL0     H 8521   7.087   8.262   9.872 -1.2570  0.9077  0.5585
  804MOL0     H 8522   7.503   8.359   9.750 -0.4363 -4.0330 -2.3805
  804MOL0     H 8523   7.643   8.303   9.573 -1.6037 -0.4885  0.6336
  804MOL0     H 8524   7.818   8.134   9.785 -1.7515 -0.6174 -0.0272
  804MOL0     H 8525   7.896   8.302   9.987  0.3754 -0.5053  0.6998
  804MOL0     H 8526   7.986   8.480  10.226  2.0867  0.1731 -0.7393
  804MOL0     H 8527   7.976   8.695  10.364 -0.2775  0.9793  2.0352
  804MOL0     H 8528   8.246   8.735  10.719 -0.2369 -1.3094 -0.0423
  804MOL0     H 8529   8.100   8.664  10.778 -6.0947  0.6264 -2.2484
  804MOL0     H 8530   8.080   8.948  10.697 -0.3710 -0.7428 -0.9453
  804MOL0     H 8531   8.144   8.899  10.861 -0.8916  0.9579 -1.0906
  804MOL0     H 8532   7.892   8.763  10.779 -1.0337  2.3192 -0.7687
  804MOL0     H 8533   7.885   8.928  10.810 -0.1617  0.6065  1.8896
  804MOL0     H 8534   7.830   8.819  10.993 -0.3665 -0.5762 -2.4766
  804MOL0     H 8535   7.990   8.727  11.010  1.6562  1.3281  1.5975
  804MOL0     H 8536   8.035   9.098  11.207  0.9940  1.1008 -0.6480
  804MOL0     H 8537   8.234   8.522  10.648  0.0256  2.6942  0.5378
  804MOL0     H 8538   8.316   8.317  10.628 -0.7323 -2.1643  1.3101
  804MOL0     H 8539   8.182   8.201  10.602  0.0725 -1.4114  0.9695
  804MOL0     H 8540   8.323   8.214  10.490  1.7583  2.2932  1.0154
  805MOL0     O 8541   6.591   4.363   6.868  0.3109 -0.5681 -0.6118
  805MOL0     C 8542   6.617   4.320   6.978  0.3282  0.0752  0.7230
  805MOL0     O 8543   6.627   4.397   7.088 -0.7369  0.2174 -0.1262
  805MOL0     C 8544   6.580   4.525   7.089  0.0779  0.3832  0.3221
  805MOL0     C 8545   6.513   4.577   7.203  0.2954  0.3120  0.3142
  805MOL0     C 8546   6.473   4.710   7.223  0.6079 -0.0633  0.0394
  805MOL0     C 8547   6.528   4.806   7.139  0.6228  0.3767 -0.2391
  805MOL0     O 8548   6.500   4.937   7.178 -0.5001 -0.0500  0.7322
  805MOL0     C 8549   6.544   5.047   7.094  0.2551 -0.8324  0.4085
  805MOL0     C 8550   6.677   5.098   7.117 -0.0977 -0.7723 -0.3775
  805MOL0     C 8551   6.714   5.149   7.256 -1.5888 -0.2915 -0.8369
  805MOL0     C 8552   6.858   5.137   7.294 -0.0196 -0.6004 -0.5088
  805MOL0     C 8553   6.907   5.215   7.419  0.0319 -0.0429 -0.1394
  805MOL0     C 8554   7.061   5.246   7.434 -0.3677 -1.2510 -0.6173
  805MOL0     C 8555   7.114   5.297   7.567  0.5294 -0.1676  0.1290
  805MOL0     C 8556   7.253   5.246   7.579 -0.9498 -1.2514 -0.3667
  805MOL0     N 8557   7.331   5.322   7.682  0.0183  0.3113 -0.1301
  805MOL0     C 8558   7.377   5.456   7.658 -0.8769  0.0255 -0.5316
  805MOL0     C 8559   7.456   5.485   7.759  0.0088 -1.3579 -0.1487
  805MOL0     C 8560   7.538   5.608   7.771  0.2145 -0.4276 -0.0724
  805MOL0     C 8561   7.656   5.583   7.666 -0.5882  0.5322 -1.4242
  805MOL0     C 8562   7.762   5.696   7.682  0.3061  0.3331 -0.2292
  805MOL0     C 8563   7.721   5.839   7.646 -0.0681 -0.2586 -0.3282
  805MOL0     O 8564   7.651   5.896   7.750 -0.3247  0.0584  0.1849
  805MOL0     C 8565   7.713   5.933   7.874  0.2202  0.5595  0.2341
  805MOL0     C 8566   7.629   5.999   7.966 -1.1358  0.1720 -0.4553
  805MOL0     C 8567   7.676   6.046   8.088 -0.1691 -0.5958 -0.5629
  805MOL0     C 8568   7.796   5.994   8.135 -0.4310  0.3017  0.8310
  805MOL0     C 8569   7.838   6.017   8.274 -0.2211 -0.1491  0.8965
  805MOL0     O 8570   7.935   5.937   8.326  0.2466  0.2228 -0.0253
  805MOL0     C 8571   7.954   5.962   8.458 -0.7133 -0.0289 -0.2174
  805MOL0     C 8572   8.062   6.040   8.501 -0.2167 -0.7775  0.6501
  805MOL0     C 8573   8.085   6.076   8.637  0.2752 -0.4678  0.4319
  805MOL0     C 8574   7.982   6.035   8.730 -0.9591 -0.6075  0.9242
  805MOL0     O 8575   8.020   6.065   8.862 -0.5337  0.1104  0.9778
  805MOL0     C 8576   7.915   6.105   8.949  0.0480  0.2799 -0.3157
  805MOL0     C 8577   7.966   6.103   9.093 -0.3026 -0.8095 -0.0818
  805MOL0     C 8578   8.032   6.236   9.132 -0.0702 -0.0380 -0.2606
  805MOL0     C 8579   8.010   6.279   9.281  0.3543  1.4379  0.6853
  805MOL0     C 8580   8.066   6.410   9.326  0.4818 -0.2764  0.5441
  805MOL0     C 8581   8.210   6.431   9.280 -0.6348 -0.1533 -1.1531
  805MOL0     C 8582   8.288   6.550   9.341 -0.0479  0.0394  0.2360
  805MOL0     C 8583   8.440   6.551   9.303  1.1917  0.3572 -1.2163
  805MOL0    Cl 8584   8.530   6.412   9.372  0.2563 -0.1392  0.0185
  805MOL0     C 8585   7.875   5.957   8.690  0.2412  1.2803  0.1116
  805MOL0     C 8586   7.868   5.913   8.553 -0.1266  0.5572  0.2797
  805MOL0     O 8587   7.775   6.103   8.340  0.4767  0.8459 -0.5152
  805MOL0     C 8588   7.884   5.925   8.044 -0.2417  0.0247  0.0144
  805MOL0     C 8589   7.846   5.915   7.909 -0.0776  0.4295  0.4740
  805MOL0     N 8590   7.461   5.382   7.847  0.8225  0.4752 -0.1931
  805MOL0     N 8591   7.393   5.282   7.798 -0.6205 -0.3088  0.2101
  805MOL0     C 8592   6.612   4.761   7.036 -0.0072  0.1788 -0.7305
  805MOL0     C 8593   6.618   4.625   6.998  0.1202  0.4461  0.2773
  805MOL0     C 8594   6.667   4.176   6.984  0.5348  0.1264 -0.3453
  805MOL0     C 8595   6.766   4.150   7.077 -0.4142  0.3169  0.9722
  805MOL0     C 8596   6.827   4.023   7.085 -0.8409 -0.0403 -0.4014
  805MOL0     C 8597   6.781   3.919   7.007 -0.3613  0.0756  0.1891
  805MOL0     O 8598   6.846   3.792   7.019 -0.5082  0.7431 -0.9394
  805MOL0     C 8599   6.787   3.665   6.974  0.5056  0.0060  0.1540
  805MOL0     C 8600   6.812   3.644   6.829  0.7808  0.5254 -0.6941
  805MOL0     C 8601   6.966   3.597   6.815 -0.7686 -0.4054  0.3845
  805MOL0     C 8602   7.015   3.550   6.673 -0.6469 -0.8467 -0.1287
  805MOL0     C 8603   6.945   3.428   6.643  0.4578  1.0747 -0.3717
  805MOL0     C 8604   6.879   3.318   6.643 -0.3473 -0.5567 -0.0017
  805MOL0     C 8605   6.679   3.947   6.920  0.0529  0.3884  0.0350
  805MOL0     C 8606   6.619   4.075   6.900  0.0328  1.4059 -0.2062
  805MOL0     C 8607   6.530   4.083   6.788  0.7838 -0.7521  0.8165
  805MOL0     H 8608   6.483   4.515   7.286  0.1298  1.0858  0.8417
  805MOL0     H 8609   6.412   4.750   7.304 -0.0768  1.6152 -1.2407
  805MOL0     H 8610   6.540   5.021   6.988 -2.7684 -0.7483  0.3980
  805MOL0     H 8611   6.480   5.135   7.112  0.9277 -0.1904 -0.2862
  805MOL0     H 8612   6.701   5.189   7.062 -0.5840  0.5889  1.5503
  805MOL0     H 8613   6.761   5.034   7.088  1.7931  0.8543  1.1619
  805MOL0     H 8614   6.652   5.088   7.322 -0.8332  0.2053  0.3783
  805MOL0     H 8615   6.691   5.256   7.264  0.1602 -0.0219  3.0338
  805MOL0     H 8616   6.887   5.031   7.298  2.8786  0.1374  1.1532
  805MOL0     H 8617   6.915   5.187   7.216 -1.2032 -0.1402 -1.0985
  805MOL0     H 8618   6.861   5.314   7.427  1.2269  0.5831 -0.6666
  805MOL0     H 8619   6.877   5.162   7.509 -0.4682  1.5741  0.6934
  805MOL0     H 8620   7.118   5.153   7.422  1.8006 -0.1711  0.6800
  805MOL0     H 8621   7.096   5.324   7.366  0.3468 -1.1536 -0.1456
  805MOL0     H 8622   7.054   5.252   7.647  2.0947 -2.5908  0.0638
  805MOL0     H 8623   7.096   5.404   7.572 -2.7624 -0.4246 -2.6184
  805MOL0     H 8624   7.254   5.140   7.606  2.0563 -0.9538  1.1244
  805MOL0     H 8625   7.305   5.244   7.483 -2.0004 -0.3692 -0.9715
  805MOL0     H 8626   7.365   5.519   7.571  1.4544  0.1303 -0.8517
  805MOL0     H 8627   7.467   5.689   7.750 -2.9212 -3.2417 -1.3396
  805MOL0     H 8628   7.577   5.617   7.873 -2.0923  0.6820  0.7833
  805MOL0     H 8629   7.705   5.489   7.693  1.2048  1.1302 -2.4367
  805MOL0     H 8630   7.621   5.582   7.562  0.8422 -0.3985 -1.9308
  805MOL0     H 8631   7.842   5.666   7.613  1.2194 -2.8720  1.9709
  805MOL0     H 8632   7.805   5.685   7.782  5.4457  0.5764 -2.1318
  805MOL0     H 8633   7.654   5.842   7.559 -1.7089  0.8511  0.9006
  805MOL0     H 8634   7.800   5.911   7.626 -1.1401  0.5696 -1.8449
  805MOL0     H 8635   7.527   6.018   7.936 -0.8063 -1.1842 -2.7243
  805MOL0     H 8636   7.619   6.112   8.153  1.8323 -1.3932  2.1896
  805MOL0     H 8637   8.124   6.078   8.421 -2.8445  1.8972 -0.2985
  805MOL0     H 8638   8.174   6.127   8.673  2.5426 -1.0540 -3.7231
  805MOL0     H 8639   7.899   6.204   8.905  0.1826 -0.3893 -1.9358
  805MOL0     H 8640   7.824   6.046   8.938  0.8675 -1.7500  2.6235
  805MOL0     H 8641   7.878   6.083   9.154  0.0835 -3.2946 -0.2539
  805MOL0     H 8642   8.029   6.013   9.101 -1.4008 -1.7096 -1.2548
  805MOL0     H 8643   8.137   6.219   9.108  0.1796  0.1820  0.6335
  805MOL0     H 8644   8.001   6.316   9.064  0.7874 -0.0545 -0.6842
  805MOL0     H 8645   8.061   6.192   9.323  0.9303  0.7211 -1.3719
  805MOL0     H 8646   7.906   6.274   9.315  0.0294  3.5389  0.1205
  805MOL0     H 8647   8.058   6.401   9.435 -0.8383  0.3420  0.5222
  805MOL0     H 8648   7.994   6.475   9.275  0.5749  0.5641  1.4489
  805MOL0     H 8649   8.267   6.341   9.305  0.5962  1.1346  1.0069
  805MOL0     H 8650   8.205   6.436   9.171 -1.4457 -2.6407 -1.2846
  805MOL0     H 8651   8.285   6.554   9.450  3.8475 -1.3711  0.5684
  805MOL0     H 8652   8.252   6.646   9.303  0.7544  0.8170  1.3473
  805MOL0     H 8653   8.446   6.556   9.194 -0.2417  0.1755 -1.3299
  805MOL0     H 8654   8.497   6.640   9.332  1.2348 -0.2552  0.7478
  805MOL0     H 8655   7.818   5.904   8.765 -0.0693  1.2612 -0.1364
  805MOL0     H 8656   7.792   5.844   8.519  1.1007 -0.2999 -0.8078
  805MOL0     H 8657   7.979   5.891   8.083  0.8485  2.2411 -0.6080
  805MOL0     H 8658   7.932   5.895   7.845  0.7473 -0.1856  1.7468
  805MOL0     H 8659   6.685   4.834   7.001  2.3299 -0.4050  2.4499
  805MOL0     H 8660   6.671   4.601   6.905  0.9803  1.4430  0.4934
  805MOL0     H 8661   6.791   4.239   7.134 -0.8405  4.3625 -4.4295
  805MOL0     H 8662   6.903   4.009   7.161 -0.3488  4.9727  0.3996
  805MOL0     H 8663   6.678   3.659   6.984  0.5719  0.0694  0.9580
  805MOL0     H 8664   6.822   3.586   7.042 -2.2365 -1.4976 -0.0284
  805MOL0     H 8665   6.791   3.732   6.769  2.7401  3.2232  2.2528
  805MOL0     H 8666   6.744   3.562   6.805  0.0085  0.2988  1.8776
  805MOL0     H 8667   6.981   3.512   6.882 -2.9895  0.0366  1.5404
  805MOL0     H 8668   7.031   3.681   6.843  2.8049 -2.4889 -0.9571
  805MOL0     H 8669   6.999   3.621   6.591 -0.5947 -1.1808 -0.4270
  805MOL0     H 8670   7.121   3.526   6.668  0.4740  3.2964 -0.2524
  805MOL0     H 8671   6.836   3.221   6.631  0.1037 -0.5466 -1.9783
  805MOL0     H 8672   6.639   3.859   6.871 -1.9719  1.4590 -0.3539
  805MOL0     H 8673   6.431   4.116   6.821  0.2752 -0.9940 -0.4055
  805MOL0     H 8674   6.566   4.150   6.710 -1.1877 -1.4807 -0.8280
  805MOL0     H 8675   6.519   3.981   6.747  2.4458 -1.8248  2.8512
  806MOL0     O 8676   0.902   2.069   5.106  0.5184 -0.2560  0.6403
  806MOL0     C 8677   0.856   2.173   5.154  0.1375 -0.9316  1.1090
  806MOL0     O 8678   0.756   2.245   5.099 -0.4530  0.2272 -0.2759
  806MOL0     C 8679   0.702   2.230   4.973 -0.0705 -0.0154  0.3800
  806MOL0     C 8680   0.763   2.179   4.852 -0.0100  0.4424  0.2525
  806MOL0     C 8681   0.696   2.180   4.729 -1.1938 -0.7787  0.5406
  806MOL0     C 8682   0.577   2.255   4.714 -0.1029 -0.0511 -0.3838
  806MOL0     O 8683   0.530   2.265   4.588 -0.9272  0.6073 -0.3090
  806MOL0     C 8684   0.398   2.312   4.561  0.2132 -0.1140 -0.2368
  806MOL0     C 8685   0.394   2.268   4.411 -0.1662 -0.2699  0.1756
  806MOL0     C 8686   0.278   2.338   4.327 -0.2514 -0.7319 -0.6844
  806MOL0     C 8687   0.144   2.299   4.398  0.8357  0.3202 -0.1577
  806MOL0     C 8688   0.028   2.361   4.305  0.4147 -0.4902  0.0814
  806MOL0     C 8689  -0.107   2.331   4.370 -0.2547  0.0883  0.4962
  806MOL0     C 8690  -0.234   2.399   4.298 -0.1727  0.4946 -0.3274
  806MOL0     C 8691  -0.264   2.300   4.175  0.1719 -1.5716 -0.3589
  806MOL0     N 8692  -0.373   2.349   4.090  0.2271 -0.2581  0.2506
  806MOL0     C 8693  -0.367   2.468   4.018 -0.5517 -0.3240 -0.2915
  806MOL0     C 8694  -0.482   2.456   3.949 -0.5374  0.5520  1.1665
  806MOL0     C 8695  -0.540   2.569   3.867  0.2273  0.0431 -0.5366
  806MOL0     C 8696  -0.663   2.613   3.942  0.0772 -0.4641 -0.0827
  806MOL0     C 8697  -0.764   2.701   3.863 -0.1160 -0.8423 -0.9939
  806MOL0     C 8698  -0.711   2.831   3.820 -0.1021  0.0884  0.0088
  806MOL0     O 8699  -0.609   2.833   3.721  0.4639  0.9546  0.2099
  806MOL0     C 8700  -0.637   2.899   3.604 -0.5556  0.4197 -1.1819
  806MOL0     C 8701  -0.674   3.028   3.612  0.5933  0.4451  0.2817
  806MOL0     C 8702  -0.753   3.080   3.512 -0.4239 -0.8607  0.6310
  806MOL0     C 8703  -0.762   3.018   3.389  0.3240  0.0565  0.5243
  806MOL0     C 8704  -0.859   3.084   3.286 -0.0575 -0.4937 -0.8974
  806MOL0     O 8705  -0.950   3.180   3.332 -0.4298  0.4661 -0.1267
  806MOL0     C 8706  -1.021   3.262   3.249 -0.1010 -0.9183 -1.7248
  806MOL0     C 8707  -1.131   3.331   3.305  0.2650 -0.1457 -0.3551
  806MOL0     C 8708  -1.214   3.419   3.233  0.3174 -0.3089  0.2933
  806MOL0     C 8709  -1.190   3.433   3.098  0.7588 -0.4904 -0.7208
  806MOL0     O 8710  -1.289   3.506   3.023  0.0904  0.2490 -0.7248
  806MOL0     C 8711  -1.400   3.419   2.984 -0.1296 -0.0212 -0.5147
  806MOL0     C 8712  -1.454   3.461   2.842 -0.2259 -0.1774  0.7701
  806MOL0     C 8713  -1.548   3.580   2.862 -0.0279  0.1864 -0.9318
  806MOL0     C 8714  -1.696   3.521   2.875  0.3504  0.0405 -0.3793
  806MOL0     C 8715  -1.782   3.600   2.980 -0.1679 -0.1811 -0.1308
  806MOL0     C 8716  -1.934   3.579   2.963 -0.1332  0.8141 -0.7576
  806MOL0     C 8717  -1.982   3.432   2.946 -0.0890 -0.0558  1.1374
  806MOL0     C 8718  -2.128   3.433   2.902  0.0577 -0.4034  0.3315
  806MOL0    Cl 8719  -2.246   3.547   2.990  0.2681 -0.0878 -0.3366
  806MOL0     C 8720  -1.077   3.370   3.044  0.4322 -0.7671 -0.6150
  806MOL0     C 8721  -0.994   3.283   3.114  0.0722 -0.7226  1.0928
  806MOL0     O 8722  -0.860   3.027   3.179 -0.1917  0.2544  1.0218
  806MOL0     C 8723  -0.713   2.892   3.380 -0.3086  0.0379 -0.1263
  806MOL0     C 8724  -0.652   2.832   3.489 -0.6727 -0.0854  0.7145
  806MOL0     N 8725  -0.539   2.332   3.957 -0.3722 -0.3601 -0.6670
  806MOL0     N 8726  -0.470   2.269   4.044  0.5451  0.1710 -0.0446
  806MOL0     C 8727   0.525   2.311   4.826 -0.4087  0.1995  0.4527
  806MOL0     C 8728   0.584   2.297   4.955  0.8678  0.0198  0.4084
  806MOL0     C 8729   0.907   2.217   5.292 -0.8092 -0.4029 -0.1086
  806MOL0     C 8730   0.868   2.348   5.334 -0.4288  0.4196  0.7895
  806MOL0     C 8731   0.918   2.415   5.448  0.0569  0.5079  0.1425
  806MOL0     C 8732   1.007   2.348   5.533  0.8374  1.0295  0.1116
  806MOL0     O 8733   1.049   2.423   5.639  1.2514  0.7001  0.4975
  806MOL0     C 8734   1.180   2.389   5.705 -0.2968  0.0294  0.1489
  806MOL0     C 8735   1.305   2.394   5.616 -0.2508 -0.0705  0.1379
  806MOL0     C 8736   1.310   2.523   5.533  1.4854  0.8823 -0.0263
  806MOL0     C 8737   1.419   2.537   5.425  0.4974  0.0111 -0.5038
  806MOL0     C 8738   1.543   2.557   5.509  0.0498  0.3239  0.3590
  806MOL0     C 8739   1.639   2.559   5.592 -0.0326  0.9343 -0.9236
  806MOL0     C 8740   1.054   2.227   5.483  1.0104  0.9817 -0.5198
  806MOL0     C 8741   1.012   2.163   5.371 -0.3480  0.2012  0.1949
  806MOL0     C 8742   1.051   2.014   5.358  0.4252 -0.1162  0.3149
  806MOL0     H 8743   0.860   2.131   4.864  0.7205  0.9688 -2.6811
  806MOL0     H 8744   0.740   2.146   4.636 -0.9795  2.7829 -0.7877
  806MOL0     H 8745   0.321   2.267   4.624 -1.5447  2.2142 -0.5796
  806MOL0     H 8746   0.381   2.420   4.560 -1.4228 -0.3226 -2.5557
  806MOL0     H 8747   0.393   2.159   4.397 -0.0372 -0.3030  0.4238
  806MOL0     H 8748   0.490   2.298   4.370  0.6026 -2.2447  0.4035
  806MOL0     H 8749   0.276   2.305   4.222 -0.0367  1.7945 -1.5709
  806MOL0     H 8750   0.280   2.447   4.321 -2.4215 -0.4108  2.4744
  806MOL0     H 8751   0.134   2.190   4.403 -0.8230  0.4437 -0.0746
  806MOL0     H 8752   0.134   2.340   4.499  0.0448  0.4283 -0.2702
  806MOL0     H 8753   0.037   2.468   4.283 -0.3519 -0.8207 -2.0605
  806MOL0     H 8754   0.036   2.312   4.208 -3.3869 -0.2978 -0.4664
  806MOL0     H 8755  -0.118   2.222   4.367 -0.3259  0.0371  2.0293
  806MOL0     H 8756  -0.114   2.362   4.475 -1.5721  5.4772 -0.8807
  806MOL0     H 8757  -0.216   2.503   4.269  1.1827  0.3421 -0.1028
  806MOL0     H 8758  -0.318   2.385   4.367  2.0963 -0.8677  2.3639
  806MOL0     H 8759  -0.168   2.288   4.125  1.0891  1.9382  0.2781
  806MOL0     H 8760  -0.290   2.202   4.214  1.4554 -2.3977 -1.4878
  806MOL0     H 8761  -0.295   2.549   4.022  3.1195 -3.3057 -0.3731
  806MOL0     H 8762  -0.470   2.651   3.847  0.5227 -0.2933 -0.8905
  806MOL0     H 8763  -0.569   2.514   3.778  5.2883 -2.5749 -0.9141
  806MOL0     H 8764  -0.719   2.522   3.966  0.5846 -1.5053 -2.5801
  806MOL0     H 8765  -0.637   2.656   4.040 -0.8912  0.2286 -0.1208
  806MOL0     H 8766  -0.858   2.720   3.915  2.3002  2.9794  2.6088
  806MOL0     H 8767  -0.790   2.646   3.772  0.5481 -0.9101 -1.1515
  806MOL0     H 8768  -0.660   2.879   3.904  0.9844  0.6574 -0.9450
  806MOL0     H 8769  -0.791   2.903   3.802  0.2594  1.9036  4.4448
  806MOL0     H 8770  -0.648   3.089   3.698 -0.7065  0.4043  0.7292
  806MOL0     H 8771  -0.789   3.182   3.518 -0.7740 -0.8154 -1.5910
  806MOL0     H 8772  -1.131   3.310   3.411  0.6341 -0.6006 -0.4433
  806MOL0     H 8773  -1.301   3.465   3.280 -1.0845 -0.8872 -1.5745
  806MOL0     H 8774  -1.376   3.313   2.974 -0.9802 -0.3449  0.6466
  806MOL0     H 8775  -1.483   3.424   3.055  0.3637 -0.1772  0.0823
  806MOL0     H 8776  -1.367   3.486   2.780 -2.9459 -0.9969 -3.7771
  806MOL0     H 8777  -1.502   3.376   2.792  1.0831  0.5454 -1.8621
  806MOL0     H 8778  -1.527   3.649   2.945 -0.7878  1.3191 -1.6397
  806MOL0     H 8779  -1.550   3.651   2.779  1.9291  0.6904 -0.6110
  806MOL0     H 8780  -1.681   3.422   2.918 -1.4399 -0.5528 -1.0003
  806MOL0     H 8781  -1.761   3.515   2.787 -1.8902 -3.8798  1.2823
  806MOL0     H 8782  -1.764   3.707   2.963 -0.8859 -0.2116 -1.1208
  806MOL0     H 8783  -1.754   3.574   3.083  3.2301 -2.7319 -1.5095
  806MOL0     H 8784  -1.978   3.613   3.057  4.3098  0.3091  1.7721
  806MOL0     H 8785  -1.952   3.638   2.873  0.9375 -1.2161 -2.3920
  806MOL0     H 8786  -1.961   3.375   3.038  1.2466 -1.3314  0.0877
  806MOL0     H 8787  -1.922   3.398   2.861  0.9274  1.2112  1.3211
  806MOL0     H 8788  -2.128   3.475   2.801  0.2371  2.2352  1.3603
  806MOL0     H 8789  -2.166   3.331   2.890  0.3845 -0.3797 -1.1961
  806MOL0     H 8790  -1.039   3.397   2.946  0.0835  1.8570 -0.1056
  806MOL0     H 8791  -0.909   3.243   3.060 -1.8323  1.1383 -3.7609
  806MOL0     H 8792  -0.734   2.832   3.292  0.8826 -0.6264  0.0241
  806MOL0     H 8793  -0.611   2.732   3.503  2.0818  0.3971 -2.5732
  806MOL0     H 8794   0.436   2.373   4.820 -0.4616  0.1383  0.6145
  806MOL0     H 8795   0.533   2.338   5.042  2.6278  1.0089  1.0322
  806MOL0     H 8796   0.796   2.401   5.273  1.0405  2.7236  0.9526
  806MOL0     H 8797   0.887   2.515   5.477 -0.8594  0.3263 -0.1778
  806MOL0     H 8798   1.178   2.287   5.746  1.4424 -2.2837 -4.6709
  806MOL0     H 8799   1.193   2.461   5.787  0.2005  2.6772 -2.1124
  806MOL0     H 8800   1.307   2.308   5.548 -2.0781  1.8792 -2.6182
  806MOL0     H 8801   1.394   2.394   5.680 -0.1017  0.7790 -0.0503
  806MOL0     H 8802   1.312   2.611   5.598 -1.5930 -0.1790  1.6918
  806MOL0     H 8803   1.210   2.531   5.491  0.9450  0.5173  1.1567
  806MOL0     H 8804   1.415   2.444   5.367 -1.3556 -0.5558  0.4323
  806MOL0     H 8805   1.399   2.621   5.357  0.2451 -0.6490 -1.2700
  806MOL0     H 8806   1.708   2.561   5.674 -1.3997  2.6606  0.2603
  806MOL0     H 8807   1.118   2.176   5.555 -1.4177  0.6837  1.5767
  806MOL0     H 8808   0.959   1.968   5.320  0.1705 -0.3355  1.1882
  806MOL0     H 8809   1.131   1.988   5.288 -2.5257 -1.4000 -2.8671
  806MOL0     H 8810   1.074   1.962   5.452 -1.3886 -0.1047  0.8038
  807MOL0     O 8811   7.523  10.897   2.923  0.8705  0.2026 -0.1610
  807MOL0     C 8812   7.622  10.979   2.916  0.4400  0.1837  1.1284
  807MOL0     O 8813   7.680  11.037   3.022  0.2277 -0.0054  0.4013
  807MOL0     C 8814   7.586  11.050   3.127  0.1998 -1.1037  0.8907
  807MOL0     C 8815   7.550  10.948   3.208 -0.1300 -0.4071  1.1143
  807MOL0     C 8816   7.447  10.969   3.305  0.0427 -0.9970  0.8623
  807MOL0     C 8817   7.383  11.092   3.316  0.5241 -0.2300  0.1561
  807MOL0     O 8818   7.280  11.106   3.405  0.2368 -0.0361  0.1504
  807MOL0     C 8819   7.211  11.230   3.422  0.3149  0.7430 -0.1946
  807MOL0     C 8820   7.095  11.217   3.522  0.1661  0.0424 -0.4577
  807MOL0     C 8821   7.132  11.169   3.662 -0.6433  0.0713 -1.2439
  807MOL0     C 8822   7.034  11.211   3.768 -0.8208  0.4160 -0.2137
  807MOL0     C 8823   7.099  11.187   3.906 -0.2245 -1.1577  0.1690
  807MOL0     C 8824   6.995  11.170   4.021 -0.3253  0.4775 -0.4238
  807MOL0     C 8825   6.944  11.308   4.070  0.2954 -0.5516  0.4920
  807MOL0     C 8826   7.041  11.378   4.166 -0.3755  1.2410  0.3647
  807MOL0     N 8827   7.057  11.301   4.290  0.1668  0.5436  0.2220
  807MOL0     C 8828   6.957  11.285   4.385  0.6902 -0.2994 -0.4217
  807MOL0     C 8829   7.005  11.214   4.483 -0.8621  0.3111 -0.9672
  807MOL0     C 8830   6.932  11.160   4.606  0.2588 -0.3174 -0.4725
  807MOL0     C 8831   6.929  11.255   4.723  0.2605 -0.5035  0.0238
  807MOL0     C 8832   7.047  11.244   4.824 -0.6933  0.3065 -0.4135
  807MOL0     C 8833   7.034  11.339   4.941 -0.3485  0.6045 -1.2573
  807MOL0     O 8834   6.901  11.345   4.996  0.3597 -0.5119 -0.7567
  807MOL0     C 8835   6.873  11.439   5.094  0.5725  0.0217 -0.0947
  807MOL0     C 8836   6.952  11.547   5.138  0.8166 -0.7886  0.2628
  807MOL0     C 8837   6.916  11.643   5.228  0.3175 -0.7175  0.7737
  807MOL0     C 8838   6.784  11.642   5.273 -0.1770 -0.5233 -0.5356
  807MOL0     C 8839   6.742  11.755   5.366  0.0716 -0.6428 -0.2196
  807MOL0     O 8840   6.842  11.838   5.412  0.6751  0.2291 -0.9971
  807MOL0     C 8841   6.810  11.947   5.490 -0.8056  0.4881  0.3180
  807MOL0     C 8842   6.877  11.949   5.615  0.7282  1.5784  0.7482
  807MOL0     C 8843   6.857  12.059   5.704  0.0042  0.5726  0.8360
  807MOL0     C 8844   6.779  12.166   5.671  0.0833  0.5837  0.2306
  807MOL0     O 8845   6.763  12.250   5.769  0.1279 -0.1273 -0.4379
  807MOL0     C 8846   6.663  12.354   5.758 -0.9311 -0.2294 -0.2646
  807MOL0     C 8847   6.696  12.473   5.859 -0.8636  0.4108 -0.2221
  807MOL0     C 8848   6.615  12.604   5.822  0.5903 -0.3859  0.2207
  807MOL0     C 8849   6.460  12.591   5.806  0.6914 -0.8594 -0.3190
  807MOL0     C 8850   6.392  12.726   5.799 -0.0781  0.2384  0.4507
  807MOL0     C 8851   6.452  12.829   5.696  0.3658  0.4737 -0.5982
  807MOL0     C 8852   6.353  12.933   5.646 -0.1912  0.6899  0.1854
  807MOL0     C 8853   6.278  12.884   5.520  0.2918  0.0347  0.4867
  807MOL0    Cl 8854   6.367  12.884   5.371 -0.2941  0.2526 -0.0658
  807MOL0     C 8855   6.731  12.171   5.535 -0.0084  0.1811 -0.0288
  807MOL0     C 8856   6.737  12.058   5.450 -0.7694  0.1447  0.0142
  807MOL0     O 8857   6.629  11.763   5.397  0.4549  0.3856 -0.4228
  807MOL0     C 8858   6.697  11.542   5.224  0.9573 -0.6905 -0.1876
  807MOL0     C 8859   6.735  11.436   5.139 -0.4754  0.3393  0.1850
  807MOL0     N 8860   7.137  11.199   4.459  0.1541 -0.1507 -0.7094
  807MOL0     N 8861   7.167  11.239   4.343  0.7567  0.1158 -0.2352
  807MOL0     C 8862   7.422  11.190   3.228 -0.8128 -0.3660  0.7963
  807MOL0     C 8863   7.525  11.173   3.133  0.7881  0.9126 -0.1980
  807MOL0     C 8864   7.684  11.004   2.783 -0.4203 -0.4214 -0.1128
  807MOL0     C 8865   7.832  10.999   2.767  0.6097 -1.3933 -0.0019
  807MOL0     C 8866   7.882  11.023   2.640 -0.8605 -0.4846 -0.0925
  807MOL0     C 8867   7.801  11.052   2.528 -1.2652  0.5439 -0.7935
  807MOL0     O 8868   7.863  11.089   2.407 -0.7182  0.1674  1.0674
  807MOL0     C 8869   7.787  11.104   2.284 -1.2328 -0.4879 -0.1570
  807MOL0     C 8870   7.868  11.190   2.193  1.0703 -0.2872  0.6897
  807MOL0     C 8871   7.802  11.215   2.057  0.4081  0.1542 -0.6207
  807MOL0     C 8872   7.862  11.309   1.950 -0.2556  0.5672 -0.5484
  807MOL0     C 8873   7.925  11.433   2.007  0.0924 -0.0097 -0.2788
  807MOL0     C 8874   7.956  11.531   2.063 -0.5958 -0.5815  0.2897
  807MOL0     C 8875   7.660  11.060   2.547 -0.8176 -0.7156  0.4474
  807MOL0     C 8876   7.603  11.036   2.672  0.3821 -0.0026  0.0717
  807MOL0     C 8877   7.452  11.058   2.679 -0.4271  0.8474  0.2950
  807MOL0     H 8878   7.591  10.848   3.199  0.6369  0.0116 -0.3481
  807MOL0     H 8879   7.435  10.896   3.384  2.2390 -0.2071  2.0140
  807MOL0     H 8880   7.273  11.309   3.466  0.8649 -0.3529  1.0479
  807MOL0     H 8881   7.172  11.267   3.327 -0.3473 -4.1182 -2.0588
  807MOL0     H 8882   7.019  11.155   3.475  0.3667  0.2697 -1.1046
  807MOL0     H 8883   7.048  11.313   3.544 -2.2676 -1.1123 -0.3470
  807MOL0     H 8884   7.221  11.231   3.674 -1.9280  2.3052 -2.5269
  807MOL0     H 8885   7.164  11.065   3.671 -0.6492  0.1809  0.2261
  807MOL0     H 8886   6.996  11.313   3.753 -0.2275  0.1391 -5.4136
  807MOL0     H 8887   6.956  11.135   3.763  3.5668 -4.6368 -0.5280
  807MOL0     H 8888   7.164  11.100   3.922  1.8618  0.8591  4.1386
  807MOL0     H 8889   7.169  11.269   3.918 -1.3353  1.1953 -5.8413
  807MOL0     H 8890   6.922  11.097   3.986 -0.6664 -0.1547  1.5023
  807MOL0     H 8891   7.052  11.121   4.100  1.9158  0.5679 -1.8942
  807MOL0     H 8892   6.853  11.292   4.130  1.6076 -3.4345  1.8962
  807MOL0     H 8893   6.933  11.367   3.978  2.2933  0.1850  0.6716
  807MOL0     H 8894   7.143  11.381   4.126 -0.8287  1.5467 -0.7983
  807MOL0     H 8895   7.004  11.480   4.179  0.6808  1.5641  1.0205
  807MOL0     H 8896   6.856  11.323   4.371  0.4027 -0.7800  0.2764
  807MOL0     H 8897   6.830  11.131   4.580  0.2933 -0.2495 -0.6812
  807MOL0     H 8898   6.977  11.068   4.646 -1.7522 -0.5078  1.6008
  807MOL0     H 8899   6.930  11.360   4.694  3.3807 -0.2656  0.7027
  807MOL0     H 8900   6.834  11.233   4.772 -0.1460 -0.4133 -0.7016
  807MOL0     H 8901   7.129  11.282   4.762 -0.9483 -1.2350 -1.7545
  807MOL0     H 8902   7.072  11.140   4.846  2.4128  1.3875  2.0515
  807MOL0     H 8903   7.066  11.437   4.905  0.6354  0.8830  0.2801
  807MOL0     H 8904   7.101  11.299   5.018 -1.1821 -2.8563 -2.1482
  807MOL0     H 8905   7.056  11.564   5.111  1.2097 -1.5765  1.1975
  807MOL0     H 8906   6.992  11.716   5.256 -0.9731  0.8473  0.4026
  807MOL0     H 8907   6.941  11.863   5.632 -1.3086  0.2100  1.8608
  807MOL0     H 8908   6.914  12.049   5.796 -1.3720  1.0253  1.7800
  807MOL0     H 8909   6.653  12.396   5.657 -1.2256  1.7814  0.5624
  807MOL0     H 8910   6.562  12.317   5.776 -2.0751  3.1298  1.0676
  807MOL0     H 8911   6.680  12.436   5.961 -0.8481  0.8057 -0.0745
  807MOL0     H 8912   6.804  12.492   5.857 -0.8157  0.1388 -0.3197
  807MOL0     H 8913   6.640  12.675   5.901  2.4043  0.7440 -1.2987
  807MOL0     H 8914   6.661  12.649   5.733 -1.3001  0.5217 -0.3313
  807MOL0     H 8915   6.412  12.537   5.888 -2.3206 -0.2915 -1.5887
  807MOL0     H 8916   6.441  12.547   5.708 -0.1990  2.1878 -1.6298
  807MOL0     H 8917   6.390  12.779   5.894 -1.4964  0.4734  0.3108
  807MOL0     H 8918   6.287  12.701   5.780  0.7920 -4.8603  0.7422
  807MOL0     H 8919   6.533  12.884   5.744  0.6233  0.8410 -1.4285
  807MOL0     H 8920   6.495  12.772   5.612 -0.1600  1.6456 -1.6913
  807MOL0     H 8921   6.417  13.021   5.628  0.1823  0.2517 -0.6651
  807MOL0     H 8922   6.279  12.956   5.723 -1.3768 -0.4776 -0.5692
  807MOL0     H 8923   6.231  12.786   5.530  1.7314 -0.7383 -0.1103
  807MOL0     H 8924   6.199  12.959   5.507  2.6064  2.3919 -0.9472
  807MOL0     H 8925   6.678  12.250   5.483 -3.5628 -2.2004 -0.3498
  807MOL0     H 8926   6.682  12.066   5.357 -1.8956 -1.1829  0.5271
  807MOL0     H 8927   6.592  11.548   5.252  0.4035 -0.1524 -2.2538
  807MOL0     H 8928   6.672  11.358   5.098  2.4113 -1.1461 -1.7855
  807MOL0     H 8929   7.376  11.288   3.218  2.2248  1.0606 -0.2668
  807MOL0     H 8930   7.556  11.249   3.062 -1.1801  1.0292 -0.9817
  807MOL0     H 8931   7.891  10.973   2.854 -1.3863 -1.5160  1.3962
  807MOL0     H 8932   7.990  11.033   2.630 -1.1731  0.5823 -3.8568
  807MOL0     H 8933   7.684  11.137   2.303 -2.0441 -3.3958  1.1817
  807MOL0     H 8934   7.776  11.013   2.224  2.0605  0.5035 -2.5630
  807MOL0     H 8935   7.967  11.143   2.185  2.1630  1.1759  3.8390
  807MOL0     H 8936   7.884  11.286   2.243  0.1125  0.2181  0.0492
  807MOL0     H 8937   7.708  11.263   2.086  0.0546 -3.0818  5.0865
  807MOL0     H 8938   7.784  11.121   2.005  3.1110 -1.2568  0.7559
  807MOL0     H 8939   7.938  11.263   1.887 -1.2648  2.4068 -3.2765
  807MOL0     H 8940   7.785  11.318   1.873 -1.9642 -3.5213  0.4215
  807MOL0     H 8941   8.008  11.615   2.106  1.9692 -1.2023 -1.3753
  807MOL0     H 8942   7.597  11.094   2.465  1.5560 -0.0734 -1.1966
  807MOL0     H 8943   7.407  11.109   2.592  0.3892 -0.6104 -1.0379
  807MOL0     H 8944   7.426  10.953   2.671  0.1736  0.7488 -0.6128
  807MOL0     H 8945   7.412  11.110   2.766 -0.3734  0.5986  0.4695
  808MOL0     O 8946   0.661   6.034   8.770  0.0593  0.5200 -0.2016
  808MOL0     C 8947   0.660   6.133   8.848 -0.2399  0.6879  1.0566
  808MOL0     O 8948   0.755   6.236   8.862  0.4230  0.1390 -0.3591
  808MOL0     C 8949   0.852   6.248   8.770  0.6093 -0.4610 -0.0744
  808MOL0     C 8950   0.831   6.243   8.633 -0.8953 -0.2054 -0.6040
  808MOL0     C 8951   0.941   6.267   8.545  0.7983  0.5203  0.5666
  808MOL0     C 8952   1.070   6.272   8.589  0.5114  0.5325  0.4378
  808MOL0     O 8953   1.177   6.278   8.497  0.4051  0.3628 -0.2026
  808MOL0     C 8954   1.148   6.233   8.365  0.5842  0.9077 -1.2304
  808MOL0     C 8955   1.270   6.248   8.288  0.8547 -0.1808 -0.7729
  808MOL0     C 8956   1.242   6.260   8.132  0.2357  0.3578 -1.1469
  808MOL0     C 8957   1.372   6.295   8.060 -0.4369 -0.5761  0.3354
  808MOL0     C 8958   1.336   6.340   7.921 -0.0798 -0.1848  0.1761
  808MOL0     C 8959   1.464   6.317   7.831 -0.0074 -0.1111  0.2543
  808MOL0     C 8960   1.436   6.391   7.693  0.6924 -0.6012 -0.7119
  808MOL0     C 8961   1.520   6.334   7.577  0.5268  0.2512  0.2345
  808MOL0     N 8962   1.477   6.392   7.448  0.0245  0.1582  0.0147
  808MOL0     C 8963   1.355   6.380   7.390  1.1179  0.3182 -0.9499
  808MOL0     C 8964   1.340   6.488   7.313 -0.7175  0.6291 -0.9407
  808MOL0     C 8965   1.230   6.533   7.223  0.3709  0.1498 -0.8308
  808MOL0     C 8966   1.175   6.428   7.132 -0.6868  0.3087 -0.7124
  808MOL0     C 8967   1.066   6.488   7.044 -0.7280  0.3289 -0.5505
  808MOL0     C 8968   0.983   6.373   6.978  0.0348  0.4970  0.0014
  808MOL0     O 8969   0.973   6.401   6.833 -0.3056  0.9789  0.0345
  808MOL0     C 8970   0.958   6.290   6.752 -0.4614 -0.7678 -0.7589
  808MOL0     C 8971   0.860   6.194   6.765  0.3310 -0.1243  0.8022
  808MOL0     C 8972   0.839   6.080   6.677 -1.0481 -0.7219  0.2523
  808MOL0     C 8973   0.924   6.061   6.575 -0.6489  0.4932  0.8146
  808MOL0     C 8974   0.910   5.946   6.479 -0.1093 -0.3400  0.0739
  808MOL0     O 8975   1.010   5.933   6.384  0.7750 -1.0115  0.5490
  808MOL0     C 8976   1.007   5.826   6.297 -1.0293 -1.0221 -0.3894
  808MOL0     C 8977   1.084   5.713   6.322 -0.3348  0.3724 -0.2016
  808MOL0     C 8978   1.095   5.610   6.236  0.4760  0.5159 -0.1811
  808MOL0     C 8979   1.014   5.608   6.125  0.0073  0.1930  0.8375
  808MOL0     O 8980   1.022   5.488   6.054  0.0037 -0.6374  0.3120
  808MOL0     C 8981   0.890   5.441   6.009 -0.0554 -0.9607  0.9031
  808MOL0     C 8982   0.911   5.296   5.953 -0.4532  0.3441 -0.3859
  808MOL0     C 8983   0.793   5.246   5.867  0.3804  0.1767  0.8137
  808MOL0     C 8984   0.829   5.104   5.819 -1.2270 -0.6745  0.4646
  808MOL0     C 8985   0.723   5.024   5.743 -0.4929  0.7252 -0.1184
  808MOL0     C 8986   0.705   5.086   5.604 -0.4510  0.2377 -0.0625
  808MOL0     C 8987   0.619   4.999   5.513 -0.7174 -0.5734  0.2076
  808MOL0     C 8988   0.480   5.007   5.554  1.0532 -0.6335  1.3649
  808MOL0    Cl 8989   0.415   5.178   5.559  0.1416  0.8060  0.0907
  808MOL0     C 8990   0.935   5.719   6.092  0.8737  0.0814  0.1666
  808MOL0     C 8991   0.936   5.833   6.175 -0.1965 -0.4379 -0.0464
  808MOL0     O 8992   0.817   5.866   6.494  0.0076  0.2607  0.7827
  808MOL0     C 8993   1.025   6.166   6.553 -0.1419  0.6774 -0.0539
  808MOL0     C 8994   1.039   6.277   6.641  0.0412  0.4418  0.1269
  808MOL0     N 8995   1.447   6.564   7.332 -0.3916  0.6587 -0.0503
  808MOL0     N 8996   1.534   6.503   7.404 -0.8028  0.5428  0.0770
  808MOL0     C 8997   1.090   6.294   8.727 -1.6697 -0.3953 -0.0864
  808MOL0     C 8998   0.981   6.268   8.815 -0.5504 -0.5543 -0.7693
  808MOL0     C 8999   0.537   6.148   8.923 -0.0602  0.0315 -0.2966
  808MOL0     C 9000   0.557   6.225   9.043 -0.5870 -0.3731  0.8406
  808MOL0     C 9001   0.447   6.241   9.128  0.0833  0.6147  0.3559
  808MOL0     C 9002   0.329   6.173   9.113 -0.3752  0.5970  0.4005
  808MOL0     O 9003   0.231   6.195   9.211  0.0071  0.0078  0.4018
  808MOL0     C 9004   0.092   6.188   9.169 -0.4125 -0.2070  0.0912
  808MOL0     C 9005   0.060   6.321   9.093  0.0167  0.1819  0.1133
  808MOL0     C 9006  -0.080   6.345   9.050  0.1169 -0.8336 -0.4906
  808MOL0     C 9007  -0.150   6.437   9.150 -0.1052  0.3569 -0.7441
  808MOL0     C 9008  -0.208   6.385   9.272 -0.1143  0.5339  0.3695
  808MOL0     C 9009  -0.243   6.338   9.376 -0.1794  0.2040 -0.0983
  808MOL0     C 9010   0.310   6.108   8.990 -0.1312  0.3290 -0.7368
  808MOL0     C 9011   0.411   6.090   8.896 -0.6018  1.0816 -0.1398
  808MOL0     C 9012   0.385   6.011   8.767 -0.1724  0.6318 -0.3233
  808MOL0     H 9013   0.729   6.237   8.597 -0.3398  0.4911 -2.3789
  808MOL0     H 9014   0.911   6.257   8.441  1.2717  0.8965  0.3894
  808MOL0     H 9015   1.130   6.125   8.354  4.7990  0.1492 -2.6115
  808MOL0     H 9016   1.062   6.276   8.312 -0.3998 -1.2632 -1.5221
  808MOL0     H 9017   1.342   6.168   8.309  3.7374  2.2898 -0.4334
  808MOL0     H 9018   1.311   6.346   8.315  1.3079 -0.5437 -0.1402
  808MOL0     H 9019   1.171   6.340   8.111  1.0564  1.4781  0.1508
  808MOL0     H 9020   1.208   6.160   8.103  1.8273 -0.6534  0.2657
  808MOL0     H 9021   1.431   6.383   8.090 -3.5988  1.9121 -0.2436
  808MOL0     H 9022   1.433   6.204   8.049 -0.8780 -0.7469 -0.8674
  808MOL0     H 9023   1.254   6.283   7.876 -1.3406  1.1400  0.7033
  808MOL0     H 9024   1.300   6.444   7.920 -0.9521 -0.4388  1.5225
  808MOL0     H 9025   1.536   6.378   7.886 -0.7515  2.7446 -1.7226
  808MOL0     H 9026   1.478   6.209   7.827 -2.8771 -0.6649  1.8336
  808MOL0     H 9027   1.460   6.498   7.701  0.7515 -0.7358  1.3654
  808MOL0     H 9028   1.330   6.394   7.670  0.4010 -0.7721  0.5340
  808MOL0     H 9029   1.625   6.344   7.607  0.4323  0.2924  0.5513
  808MOL0     H 9030   1.500   6.227   7.582 -1.3210  0.5469 -0.1874
  808MOL0     H 9031   1.277   6.308   7.413  2.2998 -0.2632  1.5355
  808MOL0     H 9032   1.149   6.571   7.287 -1.1216  0.2900 -2.7225
  808MOL0     H 9033   1.255   6.618   7.160  1.2172 -1.5358 -2.8774
  808MOL0     H 9034   1.256   6.393   7.069 -1.2732 -0.0507 -1.2842
  808MOL0     H 9035   1.141   6.346   7.196 -1.4988  1.8730  0.9554
  808MOL0     H 9036   1.109   6.552   6.966  0.2804 -0.1361 -0.4015
  808MOL0     H 9037   0.993   6.548   7.099 -1.9777 -3.1816  1.9795
  808MOL0     H 9038   0.885   6.385   7.026  0.4057 -2.1878  1.6027
  808MOL0     H 9039   1.029   6.277   7.005  0.0042  1.1817  2.8273
  808MOL0     H 9040   0.772   6.200   6.828 -0.8408  2.6279 -0.9132
  808MOL0     H 9041   0.753   6.014   6.686 -3.1372  1.6895 -0.8277
  808MOL0     H 9042   1.128   5.701   6.421 -0.3416  1.8166  0.0039
  808MOL0     H 9043   1.137   5.513   6.259 -0.8447 -0.3352 -1.2047
  808MOL0     H 9044   0.820   5.424   6.091  1.4430  1.8551  2.9477
  808MOL0     H 9045   0.857   5.507   5.928  4.0567  1.6035  0.9923
  808MOL0     H 9046   0.994   5.313   5.885  0.0477  1.4897  0.4800
  808MOL0     H 9047   0.937   5.238   6.042  0.0023  1.0527 -0.0501
  808MOL0     H 9048   0.699   5.242   5.923 -1.1448  2.2564 -1.3994
  808MOL0     H 9049   0.798   5.311   5.780  1.7018  0.0292  0.7544
  808MOL0     H 9050   0.850   5.060   5.917  1.3001  1.4380  0.9808
  808MOL0     H 9051   0.917   5.108   5.754 -0.8125  0.5400  1.0657
  808MOL0     H 9052   0.626   5.027   5.794  1.1579  1.1983  3.2599
  808MOL0     H 9053   0.742   4.917   5.733 -3.1587  0.2062 -0.3558
  808MOL0     H 9054   0.663   5.187   5.604 -0.6032  0.3441 -4.2985
  808MOL0     H 9055   0.802   5.096   5.554 -0.4572  1.6980  0.1606
  808MOL0     H 9056   0.656   4.896   5.519 -3.3721 -1.6545 -0.4583
  808MOL0     H 9057   0.625   5.027   5.407  2.0101 -3.4095 -0.5554
  808MOL0     H 9058   0.413   4.952   5.489 -2.2298  4.2308  0.0380
  808MOL0     H 9059   0.467   4.962   5.653 -0.5171  4.2885  3.7233
  808MOL0     H 9060   0.874   5.731   6.003  0.8981 -0.2618  0.1055
  808MOL0     H 9061   0.886   5.918   6.129 -4.5600 -0.6530  3.6894
  808MOL0     H 9062   1.088   6.162   6.465 -0.0052  1.4077  0.0075
  808MOL0     H 9063   1.107   6.361   6.639 -0.6765  1.0166 -0.7426
  808MOL0     H 9064   1.187   6.315   8.772  0.3891 -1.8265 -3.4711
  808MOL0     H 9065   1.000   6.262   8.922  0.1006 -1.6477 -0.9358
  808MOL0     H 9066   0.652   6.263   9.080  0.4974 -2.5157  0.4086
  808MOL0     H 9067   0.454   6.300   9.219  1.4288  1.8165 -0.4764
  808MOL0     H 9068   0.028   6.168   9.256  0.8542 -0.1643  1.0539
  808MOL0     H 9069   0.064   6.104   9.104 -2.3621  0.6506 -0.2592
  808MOL0     H 9070   0.111   6.309   8.997 -0.6922 -1.8882 -0.0557
  808MOL0     H 9071   0.109   6.406   9.142 -1.0112  1.1888 -0.5370
  808MOL0     H 9072  -0.135   6.251   9.063 -1.0240 -0.4440 -2.1607
  808MOL0     H 9073  -0.088   6.388   8.950  0.0940  0.0450 -0.1179
  808MOL0     H 9074  -0.081   6.516   9.180 -0.3509  0.7260 -1.1347
  808MOL0     H 9075  -0.237   6.492   9.111  0.5042  2.8443  1.0800
  808MOL0     H 9076  -0.287   6.284   9.457 -1.7442 -1.9062 -2.2325
  808MOL0     H 9077   0.207   6.079   8.973 -0.7157  1.8005  0.0967
  808MOL0     H 9078   0.279   6.021   8.742 -0.1889  3.0310  0.4345
  808MOL0     H 9079   0.439   6.046   8.679  0.3406 -3.7357 -1.9776
  808MOL0     H 9080   0.410   5.905   8.780  1.1248  1.0355  0.6487
  809MOL0     O 9081   6.871   3.828   9.421  0.0336 -0.1807 -0.6588
  809MOL0     C 9082   6.812   3.860   9.524 -0.6364 -0.1704  0.9972
  809MOL0     O 9083   6.818   3.807   9.644 -0.2208 -0.0468  0.6449
  809MOL0     C 9084   6.921   3.717   9.650 -0.6078  0.9562  0.8126
  809MOL0     C 9085   7.057   3.753   9.673  0.3883  0.9877  0.0367
  809MOL0     C 9086   7.164   3.657   9.696  0.0799 -0.3047  0.1071
  809MOL0     C 9087   7.121   3.515   9.708  0.1002  0.5839  0.0776
  809MOL0     O 9088   7.217   3.417   9.717  0.5838  0.8322 -0.2240
  809MOL0     C 9089   7.268   3.412   9.848  0.1693  0.0037 -0.5134
  809MOL0     C 9090   7.421   3.407   9.845  0.0389 -0.4651 -0.2427
  809MOL0     C 9091   7.483   3.317   9.748  0.1394  0.3232 -0.1802
  809MOL0     C 9092   7.637   3.313   9.769  0.5344 -0.7243 -1.3223
  809MOL0     C 9093   7.698   3.217   9.679  1.0837 -0.3374 -0.5345
  809MOL0     C 9094   7.849   3.206   9.673  0.3299 -0.2357 -0.2716
  809MOL0     C 9095   7.881   3.099   9.568 -1.1674  0.2417  0.9523
  809MOL0     C 9096   7.991   3.005   9.608 -0.1998 -0.7032 -0.7991
  809MOL0     N 9097   8.113   3.085   9.623  0.7148  0.4321  0.2206
  809MOL0     C 9098   8.182   3.106   9.736 -0.8686  0.1613 -0.3353
  809MOL0     C 9099   8.298   3.172   9.706  0.2797  0.2531 -0.1407
  809MOL0     C 9100   8.407   3.196   9.814  0.1918 -0.1289  0.2835
  809MOL0     C 9101   8.529   3.096   9.801  0.1564  0.2769  0.3594
  809MOL0     C 9102   8.507   2.969   9.885  0.1771 -0.3471 -0.0447
  809MOL0     C 9103   8.488   2.985  10.031 -0.4932 -0.3999  0.0503
  809MOL0     O 9104   8.409   2.888  10.101 -0.1487 -0.0165 -0.1648
  809MOL0     C 9105   8.272   2.883  10.090  0.1064 -0.5706  0.4501
  809MOL0     C 9106   8.207   2.758  10.074  0.6384 -0.3610  0.2869
  809MOL0     C 9107   8.066   2.752  10.061 -0.6244 -0.6520  0.4354
  809MOL0     C 9108   7.984   2.867  10.073 -0.1939  0.3905  0.1190
  809MOL0     C 9109   7.834   2.859  10.070  0.4617  0.1830  0.0399
  809MOL0     O 9110   7.764   2.980  10.067  0.3958 -0.3965 -0.0074
  809MOL0     C 9111   7.628   2.986  10.086 -0.5189  0.0995 -0.8410
  809MOL0     C 9112   7.537   2.994   9.978 -0.5755  0.1109 -0.0024
  809MOL0     C 9113   7.391   2.986  10.016  0.3817 -0.7707  0.2422
  809MOL0     C 9114   7.344   2.991  10.141 -0.0231 -0.2861 -0.6411
  809MOL0     O 9115   7.214   2.967  10.174  0.2689 -1.2249  0.0141
  809MOL0     C 9116   7.133   2.873  10.110 -1.2960 -0.6277 -0.7838
  809MOL0     C 9117   6.999   2.947  10.073 -0.6233 -0.3049 -0.5935
  809MOL0     C 9118   7.016   3.069   9.984 -0.2507  0.0218 -0.3639
  809MOL0     C 9119   6.886   3.139   9.944  0.1141  0.8763  0.0052
  809MOL0     C 9120   6.830   3.223  10.058 -0.5181  0.1529  0.1791
  809MOL0     C 9121   6.907   3.351  10.066  0.7132  0.7199  0.5211
  809MOL0     C 9122   6.829   3.447  10.158 -0.7372 -0.5474  0.7114
  809MOL0     C 9123   6.877   3.581  10.117 -0.5252 -0.1263  1.3202
  809MOL0    Cl 9124   6.792   3.637   9.973  0.6871  0.1028 -0.1261
  809MOL0     C 9125   7.435   2.996  10.245  0.2370 -0.7796  0.6703
  809MOL0     C 9126   7.575   2.998  10.213  0.7314  0.4163 -0.3932
  809MOL0     O 9127   7.787   2.750  10.087 -0.1394 -0.4405 -0.6491
  809MOL0     C 9128   8.051   2.993  10.085 -1.1023 -0.5181  0.2881
  809MOL0     C 9129   8.187   2.997  10.092  0.2145  0.6679  0.5838
  809MOL0     N 9130   8.289   3.196   9.567 -0.0088 -0.8100 -0.1679
  809MOL0     N 9131   8.177   3.148   9.518 -0.2919  0.2678 -0.0251
  809MOL0     C 9132   6.985   3.481   9.676  0.1710  0.5131 -0.9193
  809MOL0     C 9133   6.888   3.577   9.640 -0.2849  0.0914 -0.5687
  809MOL0     C 9134   6.719   3.971   9.497  0.6035 -0.4813  0.0734
  809MOL0     C 9135   6.765   4.095   9.447 -0.4827  1.1750  0.4282
  809MOL0     C 9136   6.692   4.209   9.455 -0.1711  0.4797  0.5487
  809MOL0     C 9137   6.558   4.213   9.496 -0.5132  0.3315  0.1290
  809MOL0     O 9138   6.498   4.332   9.478  0.6266 -0.5105  0.1538
  809MOL0     C 9139   6.477   4.400   9.603  0.1636 -0.3447  0.3622
  809MOL0     C 9140   6.345   4.347   9.668 -0.4169  0.2817  0.8672
  809MOL0     C 9141   6.242   4.308   9.559 -0.0123  0.2395 -0.0159
  809MOL0     C 9142   6.107   4.257   9.619 -0.1632 -1.1187  0.0799
  809MOL0     C 9143   6.131   4.124   9.653  0.2640 -0.0512 -0.0613
  809MOL0     C 9144   6.141   4.003   9.671  0.4103  1.2655 -0.4725
  809MOL0     C 9145   6.502   4.092   9.547 -0.0681  0.7392  0.6594
  809MOL0     C 9146   6.581   3.974   9.540  1.0866  0.0433  0.3012
  809MOL0     C 9147   6.514   3.848   9.584  0.1132  0.4129 -0.2420
  809MOL0     H 9148   7.077   3.860   9.681 -3.7882  1.8541  2.0580
  809MOL0     H 9149   7.265   3.692   9.713  0.3363 -1.1516  0.3874
  809MOL0     H 9150   7.236   3.477   9.930  0.0600 -0.1487 -0.4349
  809MOL0     H 9151   7.244   3.313   9.887  1.0107  0.6165  1.7129
  809MOL0     H 9152   7.458   3.386   9.945 -0.7797 -2.0826 -0.2445
  809MOL0     H 9153   7.452   3.508   9.815 -0.3202 -0.7688 -1.7339
  809MOL0     H 9154   7.462   3.343   9.644 -0.1238  0.5083 -0.0834
  809MOL0     H 9155   7.436   3.220   9.765  0.1553  0.1823 -0.9019
  809MOL0     H 9156   7.673   3.409   9.729 -0.1696  0.0748 -0.1147
  809MOL0     H 9157   7.666   3.313   9.874 -2.0814  1.6408 -0.4834
  809MOL0     H 9158   7.657   3.121   9.710 -2.3114 -0.3625 -4.2462
  809MOL0     H 9159   7.650   3.230   9.582 -0.2321  2.6935  0.3857
  809MOL0     H 9160   7.888   3.303   9.642 -0.9303  0.8364  1.3548
  809MOL0     H 9161   7.893   3.181   9.770 -1.6089 -1.5009  0.3381
  809MOL0     H 9162   7.904   3.145   9.471 -2.0903 -0.4421  0.3918
  809MOL0     H 9163   7.797   3.032   9.547 -1.9125  2.1259 -3.1870
  809MOL0     H 9164   7.974   2.959   9.706 -0.7033  2.0206  0.4731
  809MOL0     H 9165   8.009   2.921   9.539 -0.6178  0.2099 -2.0567
  809MOL0     H 9166   8.165   3.050   9.828 -2.2447 -0.3364 -0.8734
  809MOL0     H 9167   8.442   3.297   9.787  1.8180 -1.3892 -2.9533
  809MOL0     H 9168   8.362   3.197   9.913 -0.6176  0.0309 -0.0800
  809MOL0     H 9169   8.543   3.056   9.700 -2.2012 -0.8533  0.4030
  809MOL0     H 9170   8.616   3.155   9.830  0.7938 -0.3769 -0.1975
  809MOL0     H 9171   8.602   2.915   9.875  0.0606 -0.4291 -0.7000
  809MOL0     H 9172   8.423   2.911   9.846 -1.7082  1.3971  1.2523
  809MOL0     H 9173   8.453   3.082  10.068  3.5941  1.0958  0.4375
  809MOL0     H 9174   8.591   2.989  10.066  0.5471 -0.1505 -2.7441
  809MOL0     H 9175   8.264   2.666  10.075  0.5370 -0.4487  2.2481
  809MOL0     H 9176   8.020   2.654  10.066 -0.0832 -0.9802 -0.7117
  809MOL0     H 9177   7.567   2.993   9.874 -2.1839 -3.4368 -0.5833
  809MOL0     H 9178   7.319   2.988   9.935  1.0673 -1.2574 -0.3831
  809MOL0     H 9179   7.183   2.817  10.030  2.3665 -2.8446  2.6640
  809MOL0     H 9180   7.100   2.804  10.188 -0.3926  1.6962  1.8292
  809MOL0     H 9181   6.924   2.876  10.038 -0.2561 -1.6888  1.2659
  809MOL0     H 9182   6.957   2.980  10.168 -1.8556  1.2762 -1.6342
  809MOL0     H 9183   7.082   3.138  10.037  2.0252  0.8067 -3.8810
  809MOL0     H 9184   7.074   3.035   9.898  0.5945 -0.9905  0.5776
  809MOL0     H 9185   6.817   3.061   9.912 -0.5735 -1.0789  5.2007
  809MOL0     H 9186   6.906   3.199   9.855  1.2487 -0.4415 -0.6656
  809MOL0     H 9187   6.814   3.163  10.148  0.5143 -3.5856 -1.9288
  809MOL0     H 9188   6.728   3.247  10.026 -1.0421 -0.0809  1.6269
  809MOL0     H 9189   7.010   3.334  10.101  0.5679 -0.5382  0.3822
  809MOL0     H 9190   6.920   3.385   9.963 -0.0991 -1.7909 -0.4890
  809MOL0     H 9191   6.851   3.422  10.262  0.8180 -1.9122  0.0982
  809MOL0     H 9192   6.720   3.452  10.145 -0.7402 -0.6499  0.6995
  809MOL0     H 9193   6.853   3.655  10.195  0.5119  0.1772  1.3694
  809MOL0     H 9194   6.983   3.574  10.092 -1.0852  0.2469 -1.4275
  809MOL0     H 9195   7.406   2.977  10.348  0.1222 -2.9959  0.2827
  809MOL0     H 9196   7.636   3.000  10.303 -0.6575 -1.8382  0.7015
  809MOL0     H 9197   7.999   3.088  10.084 -2.5422 -1.2673 -1.0971
  809MOL0     H 9198   8.230   3.096  10.103  1.2778  0.3118 -0.2816
  809MOL0     H 9199   6.965   3.374   9.671 -0.6587  0.6241 -0.2221
  809MOL0     H 9200   6.788   3.539   9.623  0.4620 -1.8549 -0.8920
  809MOL0     H 9201   6.870   4.086   9.421 -0.7905  0.3300 -0.5735
  809MOL0     H 9202   6.743   4.303   9.432  0.5863  0.0376  0.3837
  809MOL0     H 9203   6.478   4.509   9.588  1.3238 -0.3685  0.1425
  809MOL0     H 9204   6.557   4.398   9.678 -1.3315  1.4311  2.1482
  809MOL0     H 9205   6.311   4.438   9.718 -1.2886 -0.4759  1.6959
  809MOL0     H 9206   6.364   4.255   9.724  0.4507 -1.0064 -1.4274
  809MOL0     H 9207   6.278   4.233   9.488  0.9264  1.2013 -0.5806
  809MOL0     H 9208   6.231   4.399   9.498 -2.0975 -1.5835 -2.5998
  809MOL0     H 9209   6.083   4.311   9.711  0.4534 -1.0540  0.2117
  809MOL0     H 9210   6.027   4.268   9.546  0.2897 -3.0279 -0.7754
  809MOL0     H 9211   6.163   3.910   9.720  1.0187  1.3295 -0.6159
  809MOL0     H 9212   6.401   4.092   9.587 -0.2733 -1.3435  0.2544
  809MOL0     H 9213   6.473   3.797   9.497  1.8402 -2.2942  0.4024
  809MOL0     H 9214   6.582   3.768   9.617 -1.0617 -0.4695  0.0866
  809MOL0     H 9215   6.446   3.868   9.667  1.7404  0.9375  1.0263
  810MOL0     O 9216  10.054  11.228   8.587 -0.7123  0.0687  0.3797
  810MOL0     C 9217  10.159  11.263   8.642 -0.6739  0.5069 -0.5017
  810MOL0     O 9218  10.286  11.261   8.584  0.4897 -0.3619 -0.6661
  810MOL0     C 9219  10.306  11.226   8.455  0.4264 -0.0195  0.6005
  810MOL0     C 9220  10.217  11.252   8.346  0.1904 -0.2249  0.1495
  810MOL0     C 9221  10.235  11.191   8.225  0.1943 -1.3330 -0.6479
  810MOL0     C 9222  10.345  11.104   8.198  0.5897 -0.0303  0.0514
  810MOL0     O 9223  10.349  11.040   8.079  0.3085 -0.2967  0.0884
  810MOL0     C 9224  10.444  10.937   8.065  0.4064  0.1801 -0.3659
  810MOL0     C 9225  10.419  10.892   7.916  0.4080  0.8375 -0.1283
  810MOL0     C 9226  10.537  10.805   7.877  0.1293 -0.9443  1.0026
  810MOL0     C 9227  10.483  10.713   7.762  0.1215 -0.6711  0.9151
  810MOL0     C 9228  10.614  10.652   7.697 -0.0854 -0.2126 -0.0920
  810MOL0     C 9229  10.585  10.587   7.555  0.8338 -0.2405  0.7081
  810MOL0     C 9230  10.704  10.556   7.457  0.2020 -0.6150  0.5554
  810MOL0     C 9231  10.794  10.445   7.512 -1.1480  0.1700 -0.5332
  810MOL0     N 9232  10.906  10.412   7.424  0.4621 -0.0152 -0.0769
  810MOL0     C 9233  10.930  10.287   7.378  0.5539  0.1406 -0.8475
  810MOL0     C 9234  11.057  10.290   7.343 -0.8290  0.6994 -0.1542
  810MOL0     C 9235  11.140  10.190   7.259  0.1450  0.1983 -0.4511
  810MOL0     C 9236  11.085  10.148   7.130  0.8363 -0.1349  0.2907
  810MOL0     C 9237  11.143  10.013   7.091  0.4802  0.7307  0.2797
  810MOL0     C 9238  11.055   9.947   6.983 -0.2705 -0.4931 -0.0620
  810MOL0     O 9239  11.082   9.804   6.965 -0.3450 -0.6425 -0.2312
  810MOL0     C 9240  11.174   9.764   6.875  0.1584 -0.2102  0.1062
  810MOL0     C 9241  11.166   9.641   6.824  0.3004  0.3822 -0.1429
  810MOL0     C 9242  11.245   9.602   6.720 -0.0166  0.1811  0.0107
  810MOL0     C 9243  11.359   9.685   6.673 -0.1545  0.2548  0.7954
  810MOL0     C 9244  11.453   9.625   6.571  1.2267  1.0402 -0.0415
  810MOL0     O 9245  11.418   9.494   6.535 -0.3153 -0.9690 -0.3744
  810MOL0     C 9246  11.509   9.439   6.456  0.2892  0.5663  0.1679
  810MOL0     C 9247  11.632   9.401   6.499  0.2875  0.3617 -0.2421
  810MOL0     C 9248  11.709   9.312   6.427 -0.3756  0.5742  0.4001
  810MOL0     C 9249  11.666   9.266   6.300  0.4988  0.1301  1.1206
  810MOL0     O 9250  11.739   9.191   6.206  0.0747 -0.2185 -0.1008
  810MOL0     C 9251  11.846   9.116   6.256 -0.6170 -0.9623  0.7835
  810MOL0     C 9252  11.934   9.042   6.148  0.0345 -0.4615  0.3018
  810MOL0     C 9253  11.845   8.956   6.057  0.7347 -0.4246  0.3642
  810MOL0     C 9254  11.931   8.880   5.962  0.4424 -0.1369  0.3119
  810MOL0     C 9255  12.024   8.782   6.044  0.1786 -0.5697  0.0430
  810MOL0     C 9256  12.075   8.660   5.965 -0.0601  0.5256 -1.0852
  810MOL0     C 9257  12.161   8.570   6.049 -0.3124  0.9755  0.0608
  810MOL0     C 9258  12.296   8.636   6.050 -0.8418  0.8950  0.1154
  810MOL0    Cl 9259  12.394   8.538   6.171  0.3420  0.2553  0.1721
  810MOL0     C 9260  11.537   9.309   6.255  1.0631 -0.3520 -0.0016
  810MOL0     C 9261  11.459   9.386   6.335  0.4067 -0.3448 -0.2573
  810MOL0     O 9262  11.553   9.689   6.534  0.4127 -0.2403  0.7674
  810MOL0     C 9263  11.369   9.810   6.734  0.5568 -0.5770  1.0434
  810MOL0     C 9264  11.282   9.850   6.840  0.0879  0.3516  0.2005
  810MOL0     N 9265  11.109  10.421   7.355  0.4238  0.2610 -0.2012
  810MOL0     N 9266  11.016  10.487   7.415  0.1275  0.1470  0.9824
  810MOL0     C 9267  10.439  11.091   8.296  1.4349 -0.6881  0.3392
  810MOL0     C 9268  10.421  11.155   8.418 -0.4846  0.7284  0.8393
  810MOL0     C 9269  10.139  11.292   8.791  0.3285 -0.1223 -0.2784
  810MOL0     C 9270  10.046  11.382   8.835  0.4096 -0.0591 -0.2616
  810MOL0     C 9271  10.030  11.415   8.975 -0.6668 -0.4344 -0.9570
  810MOL0     C 9272  10.096  11.340   9.070 -0.6847 -0.2057 -0.3377
  810MOL0     O 9273  10.068  11.343   9.204  0.2625 -0.3234 -0.4990
  810MOL0     C 9274   9.939  11.391   9.244 -0.7618  0.3945 -0.3776
  810MOL0     C 9275   9.926  11.347   9.390 -0.1588 -0.1206 -0.5578
  810MOL0     C 9276  10.026  11.424   9.480 -0.4480 -0.0057  0.0017
  810MOL0     C 9277  10.038  11.376   9.620 -0.0071  0.5000  0.4794
  810MOL0     C 9278   9.914  11.359   9.700  0.6451  0.2727 -0.0446
  810MOL0     C 9279   9.812  11.359   9.768 -0.2267 -0.4251  0.0066
  810MOL0     C 9280  10.179  11.244   9.025 -0.6045 -0.3729 -0.4602
  810MOL0     C 9281  10.201  11.219   8.889 -0.9018 -0.2981  1.1346
  810MOL0     C 9282  10.269  11.091   8.844  0.3440 -0.0846 -0.2759
  810MOL0     H 9283  10.124  11.303   8.365  0.9334  1.1937  0.1204
  810MOL0     H 9284  10.154  11.214   8.157 -1.1729 -1.0050  1.0028
  810MOL0     H 9285  10.547  10.971   8.063 -0.1610  2.1185  1.0079
  810MOL0     H 9286  10.431  10.853   8.134  3.6791  0.1721  0.4069
  810MOL0     H 9287  10.411  10.978   7.849 -3.8275  1.2512  0.6362
  810MOL0     H 9288  10.329  10.831   7.909  1.7192 -1.0366 -1.8345
  810MOL0     H 9289  10.591  10.753   7.956  1.5930 -0.5159  0.3221
  810MOL0     H 9290  10.612  10.870   7.830 -1.0492 -0.2693 -0.0185
  810MOL0     H 9291  10.418  10.635   7.806  1.4771 -1.3080  1.8669
  810MOL0     H 9292  10.430  10.768   7.684  2.8811  1.0485  0.1343
  810MOL0     H 9293  10.678  10.739   7.678 -0.4025  0.4237  1.5809
  810MOL0     H 9294  10.675  10.578   7.750  1.0860 -0.5393 -1.8357
  810MOL0     H 9295  10.518  10.501   7.566  3.2822 -2.4196 -0.4462
  810MOL0     H 9296  10.528  10.663   7.499  3.6489  2.2718  1.0081
  810MOL0     H 9297  10.750  10.651   7.427 -3.8660  1.1759 -0.7922
  810MOL0     H 9298  10.650  10.525   7.367 -2.7087  2.1044  1.1875
  810MOL0     H 9299  10.846  10.486   7.599  0.1548  2.8676 -2.3983
  810MOL0     H 9300  10.727  10.361   7.531 -3.1396  1.4256 -1.5774
  810MOL0     H 9301  10.878  10.192   7.373  2.4426 -1.1050  1.1608
  810MOL0     H 9302  11.232  10.245   7.239  1.0628  0.0782  2.8578
  810MOL0     H 9303  11.163  10.102   7.319 -0.5434 -1.1399 -2.0801
  810MOL0     H 9304  10.976  10.138   7.132  0.8675 -0.5654  0.0448
  810MOL0     H 9305  11.121  10.216   7.052 -1.3390  1.2544  0.4252
  810MOL0     H 9306  11.153   9.947   7.177 -2.7316  1.0643  1.0100
  810MOL0     H 9307  11.248  10.024   7.062  0.7505  0.1515  1.0078
  810MOL0     H 9308  11.047  10.006   6.891 -3.9142 -0.4065  0.1517
  810MOL0     H 9309  10.953   9.948   7.023  0.4890  0.5218  1.9567
  810MOL0     H 9310  11.072   9.590   6.842  0.2208  0.4673 -0.3139
  810MOL0     H 9311  11.231   9.503   6.679  1.9837  0.8047 -2.4476
  810MOL0     H 9312  11.649   9.404   6.606 -0.6713 -3.3522  0.1603
  810MOL0     H 9313  11.803   9.280   6.471 -0.8147 -2.8719 -0.9244
  810MOL0     H 9314  11.913   9.192   6.297 -0.6661 -0.1452 -0.5704
  810MOL0     H 9315  11.818   9.040   6.330  1.2542 -0.3067  2.2272
  810MOL0     H 9316  11.974   9.125   6.087 -0.5039 -1.2621 -1.1903
  810MOL0     H 9317  12.004   8.985   6.209  1.8642  2.0100  0.6996
  810MOL0     H 9318  11.796   8.894   6.133 -0.9285 -1.3644 -1.4012
  810MOL0     H 9319  11.763   9.011   6.010  1.3876  2.1552  1.9966
  810MOL0     H 9320  11.985   8.948   5.896  0.3704 -2.4258 -2.2682
  810MOL0     H 9321  11.860   8.827   5.898  1.1427  0.1638 -0.7418
  810MOL0     H 9322  11.973   8.757   6.137  1.6737  0.8198  1.2708
  810MOL0     H 9323  12.110   8.837   6.081  1.3832  0.0377 -3.2731
  810MOL0     H 9324  11.991   8.596   5.934 -1.2151 -0.0303  2.7431
  810MOL0     H 9325  12.124   8.695   5.873  2.4025 -0.5761 -0.2623
  810MOL0     H 9326  12.182   8.475   5.999  0.7535  1.8120 -1.1383
  810MOL0     H 9327  12.131   8.574   6.154  0.4917 -2.0266  0.5168
  810MOL0     H 9328  12.344   8.636   5.951  1.0637  1.7798  0.9944
  810MOL0     H 9329  12.292   8.742   6.077 -1.3943  1.1832 -1.0399
  810MOL0     H 9330  11.502   9.289   6.154  4.9927 -3.3757 -0.9981
  810MOL0     H 9331  11.365   9.423   6.297 -0.1811  0.6655  1.9797
  810MOL0     H 9332  11.451   9.876   6.710  2.0574 -2.5385  0.5840
  810MOL0     H 9333  11.296   9.948   6.883 -1.3530 -0.3336  2.4070
  810MOL0     H 9334  10.536  11.048   8.271  0.8776 -2.6723  1.3410
  810MOL0     H 9335  10.482  11.146   8.508 -0.1686  2.8614  0.8963
  810MOL0     H 9336   9.979  11.429   8.764 -0.1995 -0.2741  0.1548
  810MOL0     H 9337   9.960  11.490   9.009  0.4537 -0.5457  1.9256
  810MOL0     H 9338   9.858  11.344   9.189 -0.2930 -0.7842 -0.0771
  810MOL0     H 9339   9.932  11.500   9.236 -0.6590  0.6259  2.0280
  810MOL0     H 9340   9.947  11.242   9.411  2.8739  0.4465 -0.3216
  810MOL0     H 9341   9.825  11.370   9.425 -0.4995 -1.1038 -0.8754
  810MOL0     H 9342  10.003  11.531   9.476  1.7758  0.4808 -0.9517
  810MOL0     H 9343  10.124  11.405   9.436 -0.0714  1.7038  0.0440
  810MOL0     H 9344  10.075  11.274   9.613 -2.6923 -0.6352  1.4680
  810MOL0     H 9345  10.105  11.445   9.673  2.2696 -2.7407  2.1917
  810MOL0     H 9346   9.732  11.386   9.834 -1.1675 -1.0504 -0.8527
  810MOL0     H 9347  10.222  11.181   9.103  2.6203  1.7103 -0.3857
  810MOL0     H 9348  10.279  11.015   8.922  1.9777  4.3751  4.4488
  810MOL0     H 9349  10.210  11.040   8.767 -0.8661 -3.6724  2.7303
  810MOL0     H 9350  10.371  11.114   8.814  0.8629 -0.0183  1.4608
  811MOL0     O 9351   2.289   9.917  11.452 -0.1184 -0.1209 -0.2635
  811MOL0     C 9352   2.358  10.014  11.458 -0.6383 -0.8888  0.2398
  811MOL0     O 9353   2.327  10.131  11.404  0.2435 -0.3767 -0.0087
  811MOL0     C 9354   2.203  10.184  11.425  0.5059  0.5832  0.2758
  811MOL0     C 9355   2.079  10.120  11.387  0.2472  0.2041  0.4139
  811MOL0     C 9356   1.955  10.178  11.434 -0.3945  0.4169  0.3179
  811MOL0     C 9357   1.959  10.311  11.475 -0.1136 -0.0766  0.0926
  811MOL0     O 9358   1.853  10.395  11.467 -0.4098 -0.1601 -0.2018
  811MOL0     C 9359   1.775  10.395  11.339 -0.3307  0.7120 -0.0487
  811MOL0     C 9360   1.862  10.390  11.210  0.3323 -1.2265 -0.1427
  811MOL0     C 9361   1.777  10.396  11.083  0.2044 -0.2029 -0.6897
  811MOL0     C 9362   1.859  10.379  10.952  0.2373  0.2482  0.2486
  811MOL0     C 9363   1.768  10.345  10.833  0.4026 -0.0795  0.8811
  811MOL0     C 9364   1.857  10.362  10.704 -0.2916 -0.5199 -0.4182
  811MOL0     C 9365   1.791  10.308  10.574 -0.4144  0.5820 -0.4075
  811MOL0     C 9366   1.871  10.354  10.460  0.5658  0.8393 -0.2033
  811MOL0     N 9367   2.002  10.305  10.451  0.3217  0.4249  0.6317
  811MOL0     C 9368   2.112  10.387  10.441  1.1614 -0.7792 -0.5899
  811MOL0     C 9369   2.211  10.298  10.421  0.3072 -0.6125 -0.4553
  811MOL0     C 9370   2.356  10.335  10.428 -0.3443  0.0625 -0.7195
  811MOL0     C 9371   2.427  10.380  10.303 -0.7744 -1.2855  0.4264
  811MOL0     C 9372   2.563  10.431  10.352  0.3935  0.2156 -0.0931
  811MOL0     C 9373   2.669  10.434  10.237 -0.0000  0.1102 -0.3839
  811MOL0     O 9374   2.605  10.499  10.126 -0.3519  0.1466 -0.0472
  811MOL0     C 9375   2.670  10.494  10.000 -0.2749  0.8360 -0.4667
  811MOL0     C 9376   2.583  10.519   9.896  0.6962  0.9940  0.3387
  811MOL0     C 9377   2.637  10.513   9.764  0.0531 -1.0304  0.2410
  811MOL0     C 9378   2.764  10.464   9.735  1.0214 -0.5378  0.2489
  811MOL0     C 9379   2.812  10.445   9.599  0.0342 -0.5373  1.1957
  811MOL0     O 9380   2.942  10.393   9.581  0.1989 -0.5041 -1.1499
  811MOL0     C 9381   2.979  10.363   9.450  0.6715  0.4895 -0.8867
  811MOL0     C 9382   2.939  10.259   9.377  0.4650  1.0301  0.6906
  811MOL0     C 9383   2.975  10.251   9.245 -0.1882 -0.4398  0.2202
  811MOL0     C 9384   3.057  10.345   9.189  0.3332 -0.4655  0.2234
  811MOL0     O 9385   3.105  10.335   9.062  0.7897  0.4499 -0.7040
  811MOL0     C 9386   3.025  10.410   8.976  0.8476 -0.3716  0.4954
  811MOL0     C 9387   3.071  10.404   8.836 -0.3784  0.9747  0.7286
  811MOL0     C 9388   3.216  10.440   8.809  0.3638  0.3753 -0.2912
  811MOL0     C 9389   3.257  10.391   8.665  0.2038  0.3074  0.2107
  811MOL0     C 9390   3.412  10.399   8.655  0.3801 -1.0946  1.1590
  811MOL0     C 9391   3.466  10.544   8.659  0.6092 -0.6133  0.5682
  811MOL0     C 9392   3.404  10.642   8.547  0.1353 -0.6483 -0.9321
  811MOL0     C 9393   3.406  10.788   8.602 -0.5962 -0.7853  0.3173
  811MOL0    Cl 9394   3.351  10.912   8.489  0.3069  0.2179  0.3962
  811MOL0     C 9395   3.116  10.446   9.271  0.0052 -0.1470  0.0159
  811MOL0     C 9396   3.073  10.453   9.404 -0.0173 -0.0796  0.8069
  811MOL0     O 9397   2.737  10.475   9.498  0.2571  1.0338 -0.3619
  811MOL0     C 9398   2.851  10.440   9.849  0.5643  1.0606  0.0323
  811MOL0     C 9399   2.807  10.452   9.985 -0.1123  0.5571 -1.0696
  811MOL0     N 9400   2.174  10.169  10.420  0.7678  0.3345 -0.8013
  811MOL0     N 9401   2.046  10.179  10.448  0.0869  0.2417  0.4543
  811MOL0     C 9402   2.081  10.374  11.519  0.1084  0.4960  0.4303
  811MOL0     C 9403   2.204  10.308  11.486 -0.7168 -0.2713 -0.0001
  811MOL0     C 9404   2.494  10.000  11.523 -0.8024 -0.2740 -0.4637
  811MOL0     C 9405   2.586  10.104  11.492 -0.6154 -0.5553  0.6445
  811MOL0     C 9406   2.726  10.097  11.495  0.1672 -0.1530  1.0474
  811MOL0     C 9407   2.776   9.983  11.558  0.4338 -0.4068 -0.2560
  811MOL0     O 9408   2.914   9.967  11.573  0.1840 -0.0324  0.1810
  811MOL0     C 9409   2.992   9.992  11.450  0.0315 -0.6901 -0.1550
  811MOL0     C 9410   3.105   9.887  11.422  0.7378  0.3727  0.2783
  811MOL0     C 9411   3.215   9.910  11.522 -0.1257 -0.0093  0.2212
  811MOL0     C 9412   3.340   9.821  11.507  0.6180 -0.1421  0.2280
  811MOL0     C 9413   3.346   9.720  11.402 -0.8720  0.2872  0.3204
  811MOL0     C 9414   3.357   9.635  11.310  0.3496 -0.3309 -1.1246
  811MOL0     C 9415   2.689   9.882  11.601 -0.7331 -0.3622  0.2492
  811MOL0     C 9416   2.551   9.886  11.596 -0.2783  0.2692 -1.3502
  811MOL0     C 9417   2.471   9.768  11.641 -0.4807 -0.0736 -0.1765
  811MOL0     H 9418   2.075  10.023  11.339 -0.6482  0.8694 -0.9274
  811MOL0     H 9419   1.855  10.141  11.415 -0.5053  1.2268 -0.7501
  811MOL0     H 9420   1.707  10.310  11.354 -1.8628  2.2297  2.1591
  811MOL0     H 9421   1.715  10.486  11.343  1.1984  1.8013 -1.0714
  811MOL0     H 9422   1.914  10.295  11.200  2.1105 -0.4688  1.4959
  811MOL0     H 9423   1.933  10.473  11.216  0.6800 -1.1781 -3.2525
  811MOL0     H 9424   1.729  10.494  11.091  1.0177  0.0641  1.7390
  811MOL0     H 9425   1.703  10.316  11.085 -0.0129 -0.0061  0.8634
  811MOL0     H 9426   1.905  10.477  10.934 -2.1597  1.7651  1.7669
  811MOL0     H 9427   1.936  10.303  10.968 -1.0702 -0.9431  1.1893
  811MOL0     H 9428   1.732  10.245  10.860 -0.2055  0.2912  1.4993
  811MOL0     H 9429   1.681  10.411  10.827  0.4720  0.0417  1.2101
  811MOL0     H 9430   1.860  10.471  10.689 -2.3090 -0.7032 -2.8932
  811MOL0     H 9431   1.959  10.331  10.729  0.1736  0.8563 -0.4892
  811MOL0     H 9432   1.686  10.337  10.568 -1.1393 -1.9604 -1.1794
  811MOL0     H 9433   1.791  10.199  10.563 -5.0437  0.4776 -1.3439
  811MOL0     H 9434   1.812  10.334  10.371 -0.1605  1.7940  0.0593
  811MOL0     H 9435   1.867  10.463  10.466 -1.3219  0.7333  1.5665
  811MOL0     H 9436   2.119  10.495  10.441  1.7527 -0.7334 -3.4637
  811MOL0     H 9437   2.341  10.428  10.485 -1.4416  0.1900 -1.1975
  811MOL0     H 9438   2.419  10.266  10.485  1.6634  3.3190  1.3613
  811MOL0     H 9439   2.441  10.302  10.227  1.4062  0.5002 -1.1447
  811MOL0     H 9440   2.365  10.460  10.260  0.5732 -2.0822 -3.4652
  811MOL0     H 9441   2.602  10.354  10.418 -1.5469 -0.7352 -0.0017
  811MOL0     H 9442   2.553  10.529  10.399  3.1654  1.1736 -1.2421
  811MOL0     H 9443   2.703  10.331  10.221  5.5718  1.5148  0.2334
  811MOL0     H 9444   2.754  10.493  10.271 -0.1015 -0.1288  0.3077
  811MOL0     H 9445   2.479  10.539   9.920 -0.1914 -1.2477 -1.3249
  811MOL0     H 9446   2.558  10.540   9.695  0.6842 -0.6926 -0.3569
  811MOL0     H 9447   2.868  10.183   9.410 -2.3725  2.2322 -2.0924
  811MOL0     H 9448   2.928  10.176   9.183  1.6630 -2.0112  0.6167
  811MOL0     H 9449   2.919  10.388   8.983  0.7552 -0.6494 -1.2245
  811MOL0     H 9450   3.027  10.517   8.998 -1.7170  0.1794 -1.5000
  811MOL0     H 9451   3.050  10.302   8.801 -1.0466  1.5249 -0.5406
  811MOL0     H 9452   3.014  10.480   8.781 -1.6840 -0.2714  0.2980
  811MOL0     H 9453   3.230  10.548   8.801  1.6277  0.1960 -0.7126
  811MOL0     H 9454   3.287  10.411   8.887  0.1841  0.7039 -0.0012
  811MOL0     H 9455   3.199  10.428   8.580 -0.7176 -0.7335  0.3679
  811MOL0     H 9456   3.225  10.287   8.672  0.6572  0.1987  0.7542
  811MOL0     H 9457   3.428  10.356   8.556 -0.8877  1.9206 -0.4703
  811MOL0     H 9458   3.462  10.337   8.730  0.9286 -0.9974  0.8794
  811MOL0     H 9459   3.442  10.592   8.754 -1.6383  1.9066 -1.1310
  811MOL0     H 9460   3.573  10.548   8.637  0.1731 -0.1014 -1.7520
  811MOL0     H 9461   3.297  10.622   8.535 -0.6984  1.4967  1.8850
  811MOL0     H 9462   3.462  10.627   8.455 -0.1574 -0.0070 -1.2235
  811MOL0     H 9463   3.344  10.795   8.692 -2.1394  2.0768 -0.8362
  811MOL0     H 9464   3.508  10.804   8.638 -0.9204  1.5680  0.3122
  811MOL0     H 9465   3.183  10.521   9.231 -0.8487  2.1258  2.5659
  811MOL0     H 9466   3.109  10.525   9.477  1.8558 -1.3058  1.1470
  811MOL0     H 9467   2.947  10.393   9.830 -0.5722 -2.7121  2.5140
  811MOL0     H 9468   2.872  10.433  10.070 -0.3802  0.2504 -0.9329
  811MOL0     H 9469   2.077  10.477  11.552 -2.3106  1.0733 -1.4171
  811MOL0     H 9470   2.294  10.368  11.494 -1.3326  1.0842 -2.2852
  811MOL0     H 9471   2.546  10.195  11.449  0.9532 -0.6431 -1.1014
  811MOL0     H 9472   2.785  10.172  11.445 -1.8470  0.9570  0.2052
  811MOL0     H 9473   3.024  10.096  11.469 -4.5271  0.2005  5.5120
  811MOL0     H 9474   2.930  10.007  11.362  1.1118  2.3729 -0.5433
  811MOL0     H 9475   3.145   9.908  11.322  0.8807 -0.5575  0.1326
  811MOL0     H 9476   3.063   9.786  11.417  0.6330  0.3760  0.9750
  811MOL0     H 9477   3.187   9.883  11.624  1.6613  3.4685  1.8062
  811MOL0     H 9478   3.240  10.016  11.526  3.4632 -0.6682 -1.3086
  811MOL0     H 9479   3.422   9.893  11.495 -0.8696  1.5349 -0.3696
  811MOL0     H 9480   3.359   9.764  11.599  3.7437 -1.4932 -1.0957
  811MOL0     H 9481   3.349   9.563  11.231  2.1888 -1.3879 -0.4248
  811MOL0     H 9482   2.722   9.801  11.665 -1.0419 -0.8390 -0.1838
  811MOL0     H 9483   2.389   9.799  11.706  1.9577  2.9603  1.7862
  811MOL0     H 9484   2.418   9.724  11.557 -2.8214 -0.4502  1.3980
  811MOL0     H 9485   2.533   9.691  11.689  2.0380  1.3455 -0.9551
  812MOL0     O 9486   9.580   4.970   3.978 -1.1898 -0.3212  0.5739
  812MOL0     C 9487   9.657   4.995   3.884  0.7393  0.5211  0.5959
  812MOL0     O 9488   9.781   5.051   3.898 -1.0068  0.6765  0.3830
  812MOL0     C 9489   9.841   5.071   4.026  0.6025  0.2913  0.0568
  812MOL0     C 9490   9.760   5.132   4.130  1.0731  0.6362 -0.5964
  812MOL0     C 9491   9.828   5.167   4.249  0.4148  0.6773 -0.7447
  812MOL0     C 9492   9.969   5.140   4.265  0.2446 -0.8948 -1.3633
  812MOL0     O 9493  10.050   5.184   4.365 -0.2358  0.2087  0.0095
  812MOL0     C 9494   9.978   5.240   4.477 -0.0065  0.6095  0.3671
  812MOL0     C 9495   9.932   5.388   4.447  0.4458  0.7505  0.1504
  812MOL0     C 9496  10.054   5.482   4.456  0.5410 -0.2163  0.1176
  812MOL0     C 9497   9.996   5.622   4.447 -1.0557  1.2362 -0.2085
  812MOL0     C 9498  10.081   5.742   4.484  0.4729 -0.4187  0.1384
  812MOL0     C 9499  10.186   5.778   4.387  0.3737 -0.9537 -0.0295
  812MOL0     C 9500  10.277   5.900   4.417 -0.3120 -0.9387 -0.7745
  812MOL0     C 9501  10.201   6.026   4.459  0.6677 -0.3858 -0.3779
  812MOL0     N 9502  10.267   6.156   4.449 -0.8286  0.3177 -0.1498
  812MOL0     C 9503  10.384   6.190   4.513 -0.5307  1.1523 -0.7085
  812MOL0     C 9504  10.417   6.312   4.466 -0.2969  0.3330  0.1535
  812MOL0     C 9505  10.540   6.399   4.506  0.2800  0.6047 -0.1028
  812MOL0     C 9506  10.586   6.499   4.395 -0.3185 -0.6663  0.6330
  812MOL0     C 9507  10.728   6.563   4.410 -0.0442  1.4476  0.0667
  812MOL0     C 9508  10.852   6.472   4.425  1.8158  1.2888  0.0514
  812MOL0     O 9509  10.855   6.445   4.566  0.3330 -0.3412  0.3688
  812MOL0     C 9510  10.923   6.337   4.597  0.1895 -0.4909  1.5691
  812MOL0     C 9511  11.056   6.342   4.560 -0.7837 -0.1794 -0.2993
  812MOL0     C 9512  11.134   6.224   4.584 -0.4540 -0.1637 -0.4251
  812MOL0     C 9513  11.076   6.110   4.650  0.5247 -0.2305 -0.0299
  812MOL0     C 9514  11.154   5.972   4.665  0.3990 -0.5108 -0.9815
  812MOL0     O 9515  11.093   5.871   4.736  0.4733  0.2026 -0.0229
  812MOL0     C 9516  11.135   5.744   4.738  0.1803  0.1139 -0.8352
  812MOL0     C 9517  11.087   5.658   4.834  1.2257 -0.1660 -1.0658
  812MOL0     C 9518  11.115   5.524   4.852  0.0702  0.2359  0.1114
  812MOL0     C 9519  11.203   5.463   4.763 -0.2069  0.3822 -0.1515
  812MOL0     O 9520  11.219   5.335   4.779 -0.3877  0.5179  0.6933
  812MOL0     C 9521  11.362   5.305   4.782 -0.1459 -0.3641 -0.4214
  812MOL0     C 9522  11.374   5.178   4.867  0.1733 -0.2374 -0.3681
  812MOL0     C 9523  11.366   5.058   4.772 -0.1709 -0.2801 -1.2018
  812MOL0     C 9524  11.360   4.918   4.845  0.6540 -0.9503 -0.2886
  812MOL0     C 9525  11.371   4.796   4.750 -0.1973  0.0543  0.5783
  812MOL0     C 9526  11.245   4.783   4.670 -0.4955  0.9529 -0.0143
  812MOL0     C 9527  11.123   4.748   4.752  0.3966 -0.4396 -0.8930
  812MOL0     C 9528  11.003   4.725   4.664 -0.0418  0.5042  0.4678
  812MOL0    Cl 9529  10.935   4.872   4.590 -0.4647  0.6116 -0.2526
  812MOL0     C 9530  11.271   5.546   4.663  0.3787 -0.3495 -0.0831
  812MOL0     C 9531  11.232   5.685   4.659 -0.5115 -0.4215  0.0656
  812MOL0     O 9532  11.259   5.972   4.602 -0.1738 -0.0228  0.1313
  812MOL0     C 9533  10.937   6.114   4.686 -0.3547 -0.4587 -0.0671
  812MOL0     C 9534  10.865   6.232   4.667  0.4462 -0.2618 -0.2281
  812MOL0     N 9535  10.328   6.343   4.361 -0.9095 -0.2443  0.0626
  812MOL0     N 9536  10.225   6.258   4.362  0.1716 -0.4551 -0.6090
  812MOL0     C 9537  10.040   5.077   4.169 -0.0565  0.3406  0.3545
  812MOL0     C 9538   9.973   5.046   4.048 -0.2117 -0.5191  0.2051
  812MOL0     C 9539   9.619   4.954   3.742 -0.2714  0.1784 -0.0165
  812MOL0     C 9540   9.726   4.925   3.652  0.5393 -0.1780  0.5937
  812MOL0     C 9541   9.693   4.873   3.520 -0.0638 -0.7646 -0.5374
  812MOL0     C 9542   9.563   4.875   3.462  1.1553 -0.0154 -0.2113
  812MOL0     O 9543   9.541   4.842   3.334 -0.4818  0.5778 -0.5218
  812MOL0     C 9544   9.645   4.849   3.236 -0.8083  0.0022 -0.3189
  812MOL0     C 9545   9.602   4.942   3.121  0.1170  0.7312 -0.4941
  812MOL0     C 9546   9.654   5.081   3.132 -0.2474 -0.4692 -0.3083
  812MOL0     C 9547   9.548   5.182   3.176  0.6646  0.2583  0.3954
  812MOL0     C 9548   9.605   5.307   3.202  0.2608  0.0327  0.5611
  812MOL0     C 9549   9.658   5.409   3.195  0.1430 -0.6490  0.1295
  812MOL0     C 9550   9.461   4.903   3.552  0.4129  0.2051 -0.0665
  812MOL0     C 9551   9.487   4.945   3.687 -0.1974  0.8867  0.4026
  812MOL0     C 9552   9.361   4.985   3.772  0.2567 -0.2233  0.1578
  812MOL0     H 9553   9.653   5.154   4.137  0.6785 -1.1651 -0.5880
  812MOL0     H 9554   9.768   5.216   4.325 -1.3023  0.4556 -1.9211
  812MOL0     H 9555   9.892   5.178   4.505  1.0095  0.8589  4.7460
  812MOL0     H 9556  10.048   5.232   4.560  0.9802 -1.2030 -0.5968
  812MOL0     H 9557   9.850   5.414   4.515 -0.2980  2.1994 -1.2128
  812MOL0     H 9558   9.891   5.395   4.345 -0.8890  3.9711  0.7886
  812MOL0     H 9559  10.116   5.457   4.370  0.1921 -1.2093  0.1402
  812MOL0     H 9560  10.098   5.462   4.554 -0.1019 -2.1946  0.0598
  812MOL0     H 9561   9.935   5.640   4.357  1.6371  3.2308 -1.8026
  812MOL0     H 9562   9.924   5.616   4.529 -0.3902 -1.7136  0.2749
  812MOL0     H 9563  10.014   5.827   4.497  2.3146  1.4147 -1.7656
  812MOL0     H 9564  10.139   5.727   4.576  1.1202 -0.3355 -0.2523
  812MOL0     H 9565  10.251   5.691   4.375 -0.4224 -1.7041  0.9009
  812MOL0     H 9566  10.137   5.795   4.291 -0.2212  3.3403  0.8255
  812MOL0     H 9567  10.336   5.906   4.324 -0.8790  0.1521 -1.0836
  812MOL0     H 9568  10.346   5.875   4.498 -0.3510  0.0902 -0.4079
  812MOL0     H 9569  10.112   6.036   4.396 -1.8576 -0.1876  2.9700
  812MOL0     H 9570  10.162   6.005   4.559 -0.6380  0.4884 -0.6783
  812MOL0     H 9571  10.439   6.130   4.585  1.8449  2.9983 -0.8759
  812MOL0     H 9572  10.512   6.449   4.599  0.4468  1.1044 -0.3163
  812MOL0     H 9573  10.615   6.320   4.518 -1.8262 -1.5634 -0.5053
  812MOL0     H 9574  10.588   6.450   4.297 -2.6168  0.8398 -0.2217
  812MOL0     H 9575  10.514   6.580   4.393  1.4799  0.9907 -0.5004
  812MOL0     H 9576  10.722   6.634   4.493 -1.7917  2.5030 -0.8955
  812MOL0     H 9577  10.732   6.615   4.314 -1.3682 -0.1013 -0.8976
  812MOL0     H 9578  10.940   6.536   4.411  1.5087  1.9390  1.0203
  812MOL0     H 9579  10.837   6.397   4.347  2.4168  2.5886 -1.3715
  812MOL0     H 9580  11.105   6.436   4.536  0.4667  0.2111  3.2446
  812MOL0     H 9581  11.239   6.233   4.558  0.4268 -0.0954  2.7247
  812MOL0     H 9582  11.015   5.703   4.901  2.2027 -2.3085  1.5903
  812MOL0     H 9583  11.061   5.472   4.930 -1.7539  1.3055 -0.3834
  812MOL0     H 9584  11.397   5.286   4.680 -2.9471  2.2872 -2.0275
  812MOL0     H 9585  11.414   5.383   4.838 -2.3781  0.6911  0.3025
  812MOL0     H 9586  11.471   5.165   4.915  0.2050 -1.9108 -0.8478
  812MOL0     H 9587  11.291   5.163   4.937  3.3108 -1.8955  3.3631
  812MOL0     H 9588  11.281   5.082   4.707 -1.7318 -1.0776  0.4567
  812MOL0     H 9589  11.454   5.048   4.708  1.5742 -2.3384  1.3505
  812MOL0     H 9590  11.281   4.897   4.917  2.6163 -2.3678  1.6236
  812MOL0     H 9591  11.451   4.925   4.907  1.2831 -1.1145 -1.1729
  812MOL0     H 9592  11.389   4.702   4.803 -1.7427 -1.2912 -1.1630
  812MOL0     H 9593  11.445   4.811   4.671 -2.0362  1.8619 -0.9180
  812MOL0     H 9594  11.224   4.872   4.612 -1.5875 -0.2515 -1.5552
  812MOL0     H 9595  11.265   4.696   4.606 -2.2202  0.4209  0.1196
  812MOL0     H 9596  11.100   4.824   4.827 -1.3777  1.7232 -3.4297
  812MOL0     H 9597  11.143   4.655   4.806 -0.8927  0.4930  1.3443
  812MOL0     H 9598  11.015   4.640   4.596  2.1819 -0.6165  2.0904
  812MOL0     H 9599  10.925   4.678   4.725  0.0120 -1.2085 -0.6956
  812MOL0     H 9600  11.344   5.509   4.591  0.2524 -0.2868 -0.2419
  812MOL0     H 9601  11.263   5.741   4.571 -0.6316  1.6751  1.2834
  812MOL0     H 9602  10.885   6.038   4.744 -0.8292  0.4340  0.7038
  812MOL0     H 9603  10.761   6.239   4.698 -0.4333 -0.2330 -2.9471
  812MOL0     H 9604  10.148   5.067   4.166 -0.0514 -0.2911  1.9392
  812MOL0     H 9605  10.026   5.009   3.961  1.0057  0.3278  0.5565
  812MOL0     H 9606   9.831   4.916   3.678  0.4048 -2.6621  0.5759
  812MOL0     H 9607   9.778   4.834   3.466  1.7836  1.5568  0.5077
  812MOL0     H 9608   9.656   4.744   3.209 -3.4859 -0.4643  0.1617
  812MOL0     H 9609   9.741   4.885   3.275 -1.4239  1.9193 -0.4821
  812MOL0     H 9610   9.493   4.938   3.115 -0.0262 -2.6441  1.3762
  812MOL0     H 9611   9.649   4.897   3.033 -0.9676 -1.5756  0.0306
  812MOL0     H 9612   9.712   5.110   3.044  2.1412 -4.2184 -0.1961
  812MOL0     H 9613   9.733   5.083   3.207  1.0072  3.9331 -1.4493
  812MOL0     H 9614   9.464   5.189   3.106  1.2714 -1.3997 -0.5580
  812MOL0     H 9615   9.500   5.129   3.259  0.5171 -1.7444 -0.9044
  812MOL0     H 9616   9.691   5.508   3.170  1.0832 -0.1825  2.8314
  812MOL0     H 9617   9.357   4.907   3.520  0.4260 -1.0916 -0.3237
  812MOL0     H 9618   9.303   4.897   3.802  0.2378 -0.4355 -0.4964
  812MOL0     H 9619   9.379   5.057   3.853  0.9256  1.7769 -1.6827
  812MOL0     H 9620   9.288   5.030   3.704 -0.6542 -0.6492  0.8284
  813MOL0     O 9621   9.316   3.569   3.779  0.2385 -0.5481 -0.0465
  813MOL0     C 9622   9.269   3.541   3.883  0.1807  1.2585 -1.0568
  813MOL0     O 9623   9.296   3.416   3.944  0.5604 -0.7557  0.3078
  813MOL0     C 9624   9.348   3.310   3.869  0.2541 -0.0438  0.1307
  813MOL0     C 9625   9.480   3.320   3.819  0.2674 -0.2287  0.3774
  813MOL0     C 9626   9.556   3.212   3.764  0.5434 -0.5172  0.7672
  813MOL0     C 9627   9.476   3.094   3.736 -0.7326 -0.4954  0.2023
  813MOL0     O 9628   9.542   3.004   3.659  0.5073  0.4888 -1.2226
  813MOL0     C 9629   9.470   2.907   3.585  0.1674 -0.7399  0.9869
  813MOL0     C 9630   9.543   2.834   3.480 -0.2491  0.2503 -0.4467
  813MOL0     C 9631   9.615   2.707   3.542  0.6791 -0.3841 -0.3446
  813MOL0     C 9632   9.741   2.662   3.457 -0.4714  0.2324  0.5312
  813MOL0     C 9633   9.810   2.548   3.525  0.5378  0.7457 -0.7044
  813MOL0     C 9634   9.934   2.495   3.447 -0.1892 -0.7423  0.3494
  813MOL0     C 9635  10.048   2.435   3.536 -0.6721  0.1754 -0.4718
  813MOL0     C 9636  10.022   2.306   3.612  0.0336 -0.8324 -0.3905
  813MOL0     N 9637   9.992   2.206   3.506  0.7774 -0.3787 -0.0580
  813MOL0     C 9638  10.073   2.116   3.450  0.2203 -0.0962 -0.2002
  813MOL0     C 9639   9.995   2.025   3.401  0.2762  0.7803  0.3961
  813MOL0     C 9640  10.038   1.897   3.325 -0.0713 -0.2253 -1.6143
  813MOL0     C 9641  10.053   1.779   3.423 -0.7819  0.6720 -0.0104
  813MOL0     C 9642   9.993   1.643   3.375 -0.1479 -0.6807 -0.0282
  813MOL0     C 9643   9.839   1.617   3.402  0.2237 -0.5298  0.3290
  813MOL0     O 9644   9.757   1.673   3.293  0.3171  0.3963 -0.7288
  813MOL0     C 9645   9.722   1.583   3.189  0.5483 -0.6321 -0.2676
  813MOL0     C 9646   9.620   1.488   3.222 -0.4297 -0.4222  0.0491
  813MOL0     C 9647   9.573   1.406   3.123  0.7016  0.5367  0.6164
  813MOL0     C 9648   9.640   1.399   2.994  0.7652 -0.4468  0.8146
  813MOL0     C 9649   9.610   1.305   2.888  0.0422 -0.1913 -0.9881
  813MOL0     O 9650   9.662   1.335   2.762  0.4892  0.7772  0.4228
  813MOL0     C 9651   9.655   1.242   2.661 -0.7679  0.1275  0.2916
  813MOL0     C 9652   9.593   1.293   2.546 -0.0844 -1.0232 -0.3413
  813MOL0     C 9653   9.588   1.211   2.431 -0.0332 -0.0198  0.2987
  813MOL0     C 9654   9.644   1.081   2.427  0.0812 -0.6214 -1.0572
  813MOL0     O 9655   9.645   0.999   2.321  0.7970 -0.4145 -0.0016
  813MOL0     C 9656   9.549   0.894   2.294 -0.3547 -0.4745 -1.0864
  813MOL0     C 9657   9.413   0.964   2.255  0.1195  0.3222 -0.5356
  813MOL0     C 9658   9.419   1.053   2.124  0.4977 -0.2932  0.4548
  813MOL0     C 9659   9.309   1.157   2.143 -0.1239  0.2201 -0.2567
  813MOL0     C 9660   9.304   1.274   2.040 -0.5097 -0.2473 -1.0098
  813MOL0     C 9661   9.426   1.378   2.037  0.6606  0.8197  0.9783
  813MOL0     C 9662   9.371   1.501   1.971  0.0444 -0.7419 -0.7417
  813MOL0     C 9663   9.473   1.589   1.901 -0.2149 -0.0008  0.2277
  813MOL0    Cl 9664   9.385   1.740   1.895 -0.0353  0.0950  0.3490
  813MOL0     C 9665   9.699   1.038   2.549 -0.1715  0.0850  0.8600
  813MOL0     C 9666   9.704   1.111   2.670  0.4368  0.7779 -0.2076
  813MOL0     O 9667   9.541   1.209   2.919 -0.0588 -0.0826  0.0591
  813MOL0     C 9668   9.746   1.490   2.972 -0.4640 -0.5594 -0.3400
  813MOL0     C 9669   9.782   1.587   3.068  0.0502  0.1136 -1.0217
  813MOL0     N 9670   9.868   2.056   3.427  0.9087 -0.6331  0.3076
  813MOL0     N 9671   9.865   2.167   3.491 -0.5571 -0.1754  0.4571
  813MOL0     C 9672   9.348   3.084   3.794  0.0803  0.6532 -0.9833
  813MOL0     C 9673   9.287   3.188   3.855  0.1490  0.2481  0.1722
  813MOL0     C 9674   9.220   3.645   3.960  0.8668  0.0081  0.3147
  813MOL0     C 9675   9.250   3.655   4.097 -0.6936  0.2599  0.0964
  813MOL0     C 9676   9.194   3.759   4.178  0.5313 -0.8143  0.4012
  813MOL0     C 9677   9.116   3.859   4.122  0.5393  0.0475  1.0626
  813MOL0     O 9678   9.062   3.951   4.205  0.4646 -0.9446 -0.6910
  813MOL0     C 9679   8.975   4.049   4.141  0.1091  0.0527  0.1525
  813MOL0     C 9680   8.946   4.153   4.246  0.1995 -0.2224  1.2016
  813MOL0     C 9681   8.831   4.249   4.206  0.2850 -0.4253 -0.8495
  813MOL0     C 9682   8.694   4.183   4.180 -0.2743  0.0771  0.1114
  813MOL0     C 9683   8.637   4.109   4.301 -1.5648 -0.3408 -0.0532
  813MOL0     C 9684   8.592   4.040   4.394  0.7781  0.0077  0.7298
  813MOL0     C 9685   9.092   3.854   3.981 -0.2036  0.1471 -0.2344
  813MOL0     C 9686   9.141   3.747   3.913 -0.2411 -0.3977  0.0978
  813MOL0     C 9687   9.082   3.732   3.780  0.7032  0.2342  0.3426
  813MOL0     H 9688   9.548   3.400   3.845 -0.1350 -0.6454  2.9925
  813MOL0     H 9689   9.655   3.234   3.727 -0.3167  1.3673 -0.5830
  813MOL0     H 9690   9.416   2.836   3.649 -0.5349  0.1313  1.3801
  813MOL0     H 9691   9.396   2.968   3.532  0.7751 -0.1611  0.8039
  813MOL0     H 9692   9.613   2.899   3.427 -1.7294  2.9449  0.6978
  813MOL0     H 9693   9.476   2.799   3.401  0.3780  0.2924 -1.0107
  813MOL0     H 9694   9.549   2.622   3.562  0.6372 -0.5794 -1.2601
  813MOL0     H 9695   9.650   2.739   3.640  2.3688 -3.4876  0.1977
  813MOL0     H 9696   9.716   2.636   3.354  4.1804  0.6345 -0.9095
  813MOL0     H 9697   9.802   2.753   3.453 -1.2555  0.7272 -0.4622
  813MOL0     H 9698   9.832   2.576   3.629  3.0746  1.2725 -1.3188
  813MOL0     H 9699   9.740   2.466   3.540 -1.8314  2.8620  0.5304
  813MOL0     H 9700   9.913   2.427   3.364 -1.1644 -0.1961  0.1272
  813MOL0     H 9701   9.983   2.584   3.405  1.5295 -1.0059  1.6680
  813MOL0     H 9702  10.073   2.515   3.606  1.1264 -0.8785  0.1527
  813MOL0     H 9703  10.135   2.422   3.471 -0.5848 -1.6171 -0.0419
  813MOL0     H 9704  10.108   2.300   3.679 -2.0239  0.6854  2.5887
  813MOL0     H 9705   9.928   2.320   3.666  0.8057  3.4648  0.1995
  813MOL0     H 9706  10.179   2.092   3.456 -0.1031 -2.3431 -2.0424
  813MOL0     H 9707   9.964   1.870   3.249 -0.6238 -2.0705 -0.5001
  813MOL0     H 9708  10.135   1.923   3.283  0.6513  1.0820  0.6904
  813MOL0     H 9709  10.157   1.779   3.456 -0.6776  1.3948 -0.3192
  813MOL0     H 9710   9.987   1.809   3.505 -2.2197  1.0702 -1.2705
  813MOL0     H 9711  10.055   1.561   3.413  1.1750  1.0752  1.7919
  813MOL0     H 9712  10.012   1.639   3.267  2.5786 -1.6819  0.3954
  813MOL0     H 9713   9.804   1.653   3.499  0.2256  4.4506 -1.2395
  813MOL0     H 9714   9.827   1.509   3.406 -2.8211 -0.2794  0.8816
  813MOL0     H 9715   9.576   1.495   3.321  2.8244  3.3205  1.5368
  813MOL0     H 9716   9.513   1.317   3.139  0.1830  0.2014 -2.4636
  813MOL0     H 9717   9.547   1.391   2.543 -2.1596 -1.9468 -0.8684
  813MOL0     H 9718   9.533   1.265   2.355 -0.5658  0.7431  1.1971
  813MOL0     H 9719   9.584   0.833   2.210  2.3536 -2.6991  1.4703
  813MOL0     H 9720   9.545   0.830   2.383  1.5982 -1.3450 -1.5653
  813MOL0     H 9721   9.347   0.877   2.253  2.5966 -1.7428  1.1221
  813MOL0     H 9722   9.384   1.029   2.339  2.6229 -0.5697  1.1261
  813MOL0     H 9723   9.518   1.099   2.120  0.5102 -0.0874  2.2418
  813MOL0     H 9724   9.400   0.995   2.033  1.9124  1.8483 -1.3000
  813MOL0     H 9725   9.327   1.204   2.240  0.4471  1.5693 -0.9922
  813MOL0     H 9726   9.216   1.099   2.138  1.4605 -2.8325  2.3009
  813MOL0     H 9727   9.205   1.316   2.059  0.7539  1.7191  2.0056
  813MOL0     H 9728   9.295   1.226   1.942  1.1733 -3.8925  0.4474
  813MOL0     H 9729   9.464   1.405   2.136  0.4254  0.8248  1.0660
  813MOL0     H 9730   9.510   1.331   1.984 -0.1316  1.8700 -1.3441
  813MOL0     H 9731   9.308   1.564   2.034  0.2231  2.9456 -3.8750
  813MOL0     H 9732   9.324   1.462   1.880 -1.8019  1.6495 -0.9163
  813MOL0     H 9733   9.555   1.598   1.973  1.5515  2.1983 -1.8720
  813MOL0     H 9734   9.504   1.550   1.804 -1.2785 -0.5865  0.1026
  813MOL0     H 9735   9.747   0.941   2.546  2.2741  1.2397 -0.7816
  813MOL0     H 9736   9.760   1.070   2.753  2.5688  0.6168 -1.6249
  813MOL0     H 9737   9.807   1.490   2.883  0.0279  0.2012 -0.0110
  813MOL0     H 9738   9.862   1.659   3.055 -1.4687  2.0681 -0.1056
  813MOL0     H 9739   9.292   2.991   3.787 -0.4065  0.5170  2.7072
  813MOL0     H 9740   9.189   3.171   3.898  0.0163 -0.5489 -0.4185
  813MOL0     H 9741   9.322   3.577   4.121  2.1133  1.9006 -2.2222
  813MOL0     H 9742   9.225   3.780   4.280  2.4348  1.1777 -0.5290
  813MOL0     H 9743   8.884   3.999   4.107  2.3784 -2.6135 -2.6195
  813MOL0     H 9744   9.032   4.081   4.052  1.2633 -4.8715 -1.1777
  813MOL0     H 9745   9.032   4.219   4.253  0.0767  0.3015 -1.2177
  813MOL0     H 9746   8.914   4.098   4.335  1.5567 -1.0071  1.2301
  813MOL0     H 9747   8.861   4.307   4.118 -0.1625  0.8246 -0.2061
  813MOL0     H 9748   8.817   4.317   4.290 -2.6916  0.1421 -1.6926
  813MOL0     H 9749   8.626   4.265   4.156  1.8652  2.2417  1.0559
  813MOL0     H 9750   8.696   4.109   4.099 -0.8420  1.0354 -0.8010
  813MOL0     H 9751   8.563   3.980   4.477  1.7268 -2.0605 -0.3381
  813MOL0     H 9752   9.035   3.927   3.924  0.0054  0.6654  0.2050
  813MOL0     H 9753   9.061   3.626   3.762 -0.7317  0.7258 -1.0684
  813MOL0     H 9754   8.994   3.795   3.765  0.4752 -0.6491 -2.6563
  813MOL0     H 9755   9.158   3.776   3.715  1.6260  0.7667  1.7215
  814MOL0     O 9756   9.886   0.120   8.398  0.1572  1.4537  0.3149
  814MOL0     C 9757   9.997   0.117   8.345 -0.1734 -0.0262 -0.0554
  814MOL0     O 9758  10.113   0.123   8.411  0.2830 -0.3499  0.8535
  814MOL0     C 9759  10.128   0.158   8.539 -0.2465 -0.0140 -0.2832
  814MOL0     C 9760  10.035   0.231   8.614 -0.0948 -1.0985  0.3728
  814MOL0     C 9761  10.063   0.253   8.749  0.7872 -0.0814 -0.5431
  814MOL0     C 9762  10.166   0.181   8.815 -0.3884  0.5556  0.4555
  814MOL0     O 9763  10.181   0.184   8.956 -0.2118  0.2998 -0.8218
  814MOL0     C 9764  10.298   0.137   9.020  0.0286 -0.4569  0.3804
  814MOL0     C 9765  10.285   0.125   9.179  0.4002  0.5183 -0.2222
  814MOL0     C 9766  10.274   0.253   9.254 -0.4662 -0.2726 -0.8176
  814MOL0     C 9767  10.295   0.221   9.405 -1.5211 -0.0896  0.7175
  814MOL0     C 9768  10.276   0.348   9.483  0.4745 -0.5344 -0.3672
  814MOL0     C 9769  10.298   0.310   9.630  0.1829 -0.9390  0.0798
  814MOL0     C 9770  10.418   0.227   9.661  0.0923  0.7863 -0.4810
  814MOL0     C 9771  10.444   0.195   9.813 -0.8679 -0.5912  0.6510
  814MOL0     N 9772  10.587   0.174   9.849 -0.1942 -0.5104  0.1618
  814MOL0     C 9773  10.687   0.263   9.816 -0.6471  0.2810 -0.9213
  814MOL0     C 9774  10.790   0.194   9.868 -0.8403  1.0216 -0.2015
  814MOL0     C 9775  10.939   0.248   9.873 -0.3572 -0.3905  0.9052
  814MOL0     C 9776  10.963   0.362   9.978 -0.1698  1.6474 -0.6772
  814MOL0     C 9777  11.084   0.440   9.954  0.2929 -0.4546 -0.5802
  814MOL0     C 9778  11.205   0.349   9.935  0.3335 -0.8372  0.8385
  814MOL0     O 9779  11.317   0.441   9.930 -0.4670 -0.0271  0.8186
  814MOL0     C 9780  11.443   0.386   9.910  0.6970 -0.2593  0.1685
  814MOL0     C 9781  11.546   0.460   9.956 -0.2850  0.4706 -0.6824
  814MOL0     C 9782  11.670   0.433   9.918 -0.4445 -0.3305 -1.0399
  814MOL0     C 9783  11.705   0.324   9.839  1.3713 -0.2693 -0.3902
  814MOL0     C 9784  11.844   0.301   9.786  0.0555  1.8985 -0.6937
  814MOL0     O 9785  11.881   0.167   9.793  0.3975 -0.3110 -0.6341
  814MOL0     C 9786  12.008   0.123   9.767 -0.0940 -0.2286  0.3030
  814MOL0     C 9787  12.082   0.071   9.878 -1.2958 -0.7291  0.3976
  814MOL0     C 9788  12.213   0.015   9.859 -0.0365 -0.9392 -0.2145
  814MOL0     C 9789  12.277   0.028   9.740 -0.0428 -0.5052  0.2802
  814MOL0     O 9790  12.410  -0.005   9.716  0.2876 -0.1144  0.0356
  814MOL0     C 9791  12.491   0.000   9.837  0.0309  0.7842  0.3904
  814MOL0     C 9792  12.644  -0.021   9.811  0.5888 -0.7341  0.1230
  814MOL0     C 9793  12.655  -0.166   9.757  0.3493 -0.6527 -0.6184
  814MOL0     C 9794  12.798  -0.206   9.727  0.6398  0.6813 -0.0834
  814MOL0     C 9795  12.852  -0.145   9.600 -0.4413 -1.0702 -0.6404
  814MOL0     C 9796  12.993  -0.198   9.557 -0.7431 -0.8520  0.4494
  814MOL0     C 9797  13.013  -0.172   9.412 -0.5338 -0.8242  0.1761
  814MOL0     C 9798  13.165  -0.187   9.376  0.5386 -0.4967  0.7831
  814MOL0    Cl 9799  13.269  -0.111   9.502  0.4805 -0.0592  0.3117
  814MOL0     C 9800  12.204   0.090   9.632  0.3933  0.3836 -0.1613
  814MOL0     C 9801  12.073   0.135   9.647 -1.7054 -0.5212  0.3854
  814MOL0     O 9802  11.919   0.392   9.774  0.1650 -0.5174 -0.3150
  814MOL0     C 9803  11.602   0.244   9.802  0.2400  0.4891  0.2380
  814MOL0     C 9804  11.468   0.272   9.837 -0.6066  0.5523  0.6951
  814MOL0     N 9805  10.749   0.080   9.930  0.7310  0.2313 -0.2381
  814MOL0     N 9806  10.623   0.069   9.924  0.6058 -0.6259  0.4155
  814MOL0     C 9807  10.254   0.121   8.731 -0.5131  0.1814 -1.2789
  814MOL0     C 9808  10.234   0.104   8.600  0.6693 -0.8248 -0.2989
  814MOL0     C 9809  10.010   0.115   8.202  0.2960 -0.9003  0.0520
  814MOL0     C 9810  10.125   0.158   8.145  0.5606  1.2016  0.8043
  814MOL0     C 9811  10.139   0.171   8.009 -0.5797 -0.2107  0.5350
  814MOL0     C 9812  10.039   0.137   7.919 -0.8103 -0.1644 -0.6007
  814MOL0     O 9813  10.062   0.137   7.785  0.0382 -0.2426 -0.2835
  814MOL0     C 9814   9.951   0.140   7.697 -0.2649  0.6960  0.2406
  814MOL0     C 9815   9.909  -0.006   7.666  0.7452  0.0944 -0.8058
  814MOL0     C 9816   9.964  -0.056   7.536  0.3031  0.5960 -0.1454
  814MOL0     C 9817   9.944  -0.210   7.537  0.3240 -0.4794  0.3149
  814MOL0     C 9818   9.956  -0.268   7.405  0.6953  0.2020 -0.3002
  814MOL0     C 9819   9.968  -0.334   7.308  0.0473  0.1437  0.4100
  814MOL0     C 9820   9.916   0.090   7.977 -0.2178  0.0866 -0.6973
  814MOL0     C 9821   9.901   0.071   8.122  0.9062 -1.2166  0.1995
  814MOL0     C 9822   9.781  -0.009   8.165  1.0523 -1.2452 -0.4399
  814MOL0     H 9823   9.943   0.276   8.578 -0.8869 -3.3742 -0.6991
  814MOL0     H 9824  10.002   0.324   8.804 -1.4315 -1.4633 -1.0807
  814MOL0     H 9825  10.331   0.038   8.987 -0.4307 -0.5445  0.1821
  814MOL0     H 9826  10.375   0.210   8.997 -2.1812  2.0824  0.6086
  814MOL0     H 9827  10.385   0.088   9.204 -0.4824 -0.6058  1.8664
  814MOL0     H 9828  10.208   0.055   9.210  0.2493  0.9227  0.3378
  814MOL0     H 9829  10.173   0.291   9.242 -1.4020 -2.8629 -1.9693
  814MOL0     H 9830  10.348   0.318   9.205 -1.0160  0.1788 -1.0595
  814MOL0     H 9831  10.231   0.145   9.450 -0.8875  1.1614  4.0222
  814MOL0     H 9832  10.399   0.190   9.395 -0.9340  2.0612 -0.5090
  814MOL0     H 9833  10.327   0.438   9.447 -1.8690  1.2230  0.4575
  814MOL0     H 9834  10.170   0.372   9.478  0.7471  0.5566 -1.3971
  814MOL0     H 9835  10.313   0.399   9.691 -0.2510 -1.6568  1.2693
  814MOL0     H 9836  10.210   0.274   9.684 -1.5552  2.2071 -0.4314
  814MOL0     H 9837  10.509   0.270   9.618  0.7691  0.2067  0.3361
  814MOL0     H 9838  10.414   0.135   9.601 -2.3736  1.6666 -1.7966
  814MOL0     H 9839  10.406   0.285   9.861 -1.6115 -1.6040  2.0264
  814MOL0     H 9840  10.389   0.106   9.845 -0.5790 -0.9367  0.2084
  814MOL0     H 9841  10.687   0.357   9.763 -1.0973  2.8269  3.1481
  814MOL0     H 9842  11.007   0.168   9.904  2.7015  1.3930 -0.7953
  814MOL0     H 9843  10.968   0.280   9.773 -2.3645  2.1221  1.0098
  814MOL0     H 9844  10.882   0.433   9.997 -1.3514 -0.2944  2.2411
  814MOL0     H 9845  10.980   0.316  10.076 -0.8532  1.0325 -0.8368
  814MOL0     H 9846  11.097   0.505  10.040  0.3590 -0.5106 -0.5480
  814MOL0     H 9847  11.055   0.500   9.867 -0.4796  0.4959  0.3094
  814MOL0     H 9848  11.197   0.294   9.841 -2.0017  1.2303 -0.3088
  814MOL0     H 9849  11.231   0.283  10.018  2.5571 -0.8450  0.2030
  814MOL0     H 9850  11.519   0.548  10.014  1.2511 -0.9375  2.3943
  814MOL0     H 9851  11.748   0.508   9.935  0.3000 -1.3324  0.1372
  814MOL0     H 9852  12.042   0.067   9.979  0.2415 -0.7644  1.0259
  814MOL0     H 9853  12.261  -0.002   9.955 -1.3240  0.0503  0.6379
  814MOL0     H 9854  12.465   0.089   9.894 -3.4258  0.9770 -1.1916
  814MOL0     H 9855  12.462  -0.074   9.912 -0.8437 -0.4586 -1.1017
  814MOL0     H 9856  12.695   0.052   9.748  2.1495 -0.6314  1.4504
  814MOL0     H 9857  12.685  -0.019   9.912  1.5496  1.7199 -0.2605
  814MOL0     H 9858  12.625  -0.239   9.833  0.3543  2.8553  3.1185
  814MOL0     H 9859  12.593  -0.182   9.669 -1.2643 -2.6990  0.7845
  814MOL0     H 9860  12.804  -0.315   9.724 -2.4929  0.4581 -1.6575
  814MOL0     H 9861  12.863  -0.179   9.811  1.2105 -4.4246  1.4449
  814MOL0     H 9862  12.861  -0.039   9.623  1.9237 -0.4192 -3.8673
  814MOL0     H 9863  12.776  -0.155   9.522  1.4824 -1.1313 -2.6017
  814MOL0     H 9864  13.071  -0.168   9.628 -0.0981 -1.8119  0.1690
  814MOL0     H 9865  13.000  -0.307   9.562  2.4435 -0.6823  2.1261
  814MOL0     H 9866  12.978  -0.069   9.402 -0.9738 -1.0797 -1.1250
  814MOL0     H 9867  12.953  -0.235   9.346 -2.5047  2.5639 -1.5247
  814MOL0     H 9868  13.180  -0.296   9.381 -0.6868 -0.6479  1.5649
  814MOL0     H 9869  13.192  -0.171   9.271  2.1331 -3.3973  0.6407
  814MOL0     H 9870  12.244   0.107   9.533 -1.9879 -1.3519 -1.5284
  814MOL0     H 9871  12.020   0.182   9.565  1.1222  0.7838 -0.8230
  814MOL0     H 9872  11.626   0.151   9.751 -1.6090 -0.8755  1.6862
  814MOL0     H 9873  11.394   0.194   9.822  0.6087 -0.1146 -2.6206
  814MOL0     H 9874  10.346   0.076   8.766 -0.8626  0.9576  0.7933
  814MOL0     H 9875  10.297   0.025   8.559  1.4619  0.0544 -0.8210
  814MOL0     H 9876  10.205   0.186   8.211  0.7409  2.6177  0.0231
  814MOL0     H 9877  10.233   0.212   7.973 -0.2811  0.0908  1.6317
  814MOL0     H 9878   9.979   0.201   7.610 -3.3024 -2.0598 -2.9725
  814MOL0     H 9879   9.863   0.178   7.749 -0.5037 -0.8340  0.9837
  814MOL0     H 9880   9.800  -0.013   7.659  0.7805  0.3295 -1.7230
  814MOL0     H 9881   9.930  -0.071   7.751  0.8294 -1.4719 -1.9759
  814MOL0     H 9882  10.073  -0.052   7.535  0.4496  1.1726 -4.8724
  814MOL0     H 9883   9.917   0.005   7.458  3.6187  2.4182 -0.9203
  814MOL0     H 9884  10.025  -0.246   7.601  1.4760  1.0149 -0.2462
  814MOL0     H 9885   9.849  -0.239   7.583  1.5638 -4.4633  0.7569
  814MOL0     H 9886   9.981  -0.405   7.230 -0.1791 -3.6560  3.5025
  814MOL0     H 9887   9.829   0.053   7.924  1.2585 -0.8069 -2.5941
  814MOL0     H 9888   9.812  -0.073   8.249  1.4919 -2.8854 -1.8024
  814MOL0     H 9889   9.703   0.062   8.192  0.0310 -2.2919 -0.5856
  814MOL0     H 9890   9.752  -0.074   8.082 -1.4688 -4.0746  2.3989
  815MOL0     O 9891   5.145   7.933  10.363  0.7416  0.0754  0.2680
  815MOL0     C 9892   5.105   7.900  10.480  0.4146 -0.9201 -0.1892
  815MOL0     O 9893   5.128   7.976  10.592  0.0251 -0.6190  0.1128
  815MOL0     C 9894   5.216   8.084  10.593  0.3291  1.6112  0.2438
  815MOL0     C 9895   5.165   8.209  10.570  0.1280 -0.1654  0.5086
  815MOL0     C 9896   5.249   8.320  10.557 -0.0249  0.2002  0.4477
  815MOL0     C 9897   5.384   8.298  10.568 -0.1538  0.7140 -0.3710
  815MOL0     O 9898   5.474   8.410  10.544  1.0247  0.3804  0.5841
  815MOL0     C 9899   5.571   8.453  10.639 -0.1436  0.0080 -0.1565
  815MOL0     C 9900   5.590   8.598  10.623 -0.5380 -0.0808 -0.3717
  815MOL0     C 9901   5.676   8.639  10.504  0.9128  0.5772 -0.5326
  815MOL0     C 9902   5.730   8.781  10.516  1.4094 -0.2221 -0.8351
  815MOL0     C 9903   5.804   8.837  10.401 -0.4148 -0.2875 -0.3380
  815MOL0     C 9904   5.930   8.747  10.376  0.3063 -0.5425  0.1748
  815MOL0     C 9905   6.003   8.823  10.262 -0.9130 -0.0847  0.9913
  815MOL0     C 9906   5.975   8.763  10.121 -0.2055 -0.1657 -0.1443
  815MOL0     N 9907   6.052   8.828  10.015 -0.2218  0.6538 -0.3429
  815MOL0     C 9908   6.050   8.954   9.967  1.2107 -0.2895 -0.1057
  815MOL0     C 9909   6.102   8.950   9.840 -0.7188 -0.4013 -0.4607
  815MOL0     C 9910   6.120   9.067   9.743 -0.0969 -0.0938 -0.1130
  815MOL0     C 9911   6.067   9.052   9.608  0.1413 -0.5933 -0.0980
  815MOL0     C 9912   5.908   9.061   9.594  0.4912  0.3151  0.6345
  815MOL0     C 9913   5.867   9.204   9.550 -0.3277 -0.4175 -0.2554
  815MOL0     O 9914   5.727   9.209   9.564 -0.0846 -0.2852 -0.2640
  815MOL0     C 9915   5.652   9.211   9.451 -0.6643 -0.2870  0.0970
  815MOL0     C 9916   5.692   9.165   9.326 -0.6666  0.6408  1.0047
  815MOL0     C 9917   5.594   9.155   9.222 -0.3507 -0.7252  0.0292
  815MOL0     C 9918   5.458   9.177   9.243  1.2153  0.0382  0.3248
  815MOL0     C 9919   5.361   9.158   9.120 -0.8352 -0.3494  0.2181
  815MOL0     O 9920   5.228   9.194   9.151  0.4631  0.0793 -0.5639
  815MOL0     C 9921   5.133   9.187   9.056 -0.3187  0.2168  0.7683
  815MOL0     C 9922   5.035   9.288   9.066 -0.5185  0.5326  0.6957
  815MOL0     C 9923   4.934   9.291   8.974  1.1198 -0.2048 -0.4461
  815MOL0     C 9924   4.924   9.202   8.866 -0.7016  0.1254 -0.4717
  815MOL0     O 9925   4.813   9.185   8.784 -1.2137  0.3091  0.7113
  815MOL0     C 9926   4.679   9.232   8.819 -0.2659 -0.1492  0.3752
  815MOL0     C 9927   4.591   9.179   8.704 -0.3970  0.3235 -0.5163
  815MOL0     C 9928   4.584   9.028   8.700  0.3192 -0.0781 -0.7406
  815MOL0     C 9929   4.519   8.977   8.577  0.0210  0.0817  1.3376
  815MOL0     C 9930   4.537   8.826   8.549 -0.1338  0.5156  0.6647
  815MOL0     C 9931   4.662   8.772   8.476 -1.1419  1.2240  0.3447
  815MOL0     C 9932   4.796   8.806   8.541 -0.0834 -0.2823  0.3192
  815MOL0     C 9933   4.877   8.937   8.496 -1.0706  0.5744 -0.7947
  815MOL0    Cl 9934   5.046   8.901   8.573  0.6021 -0.0113  0.1402
  815MOL0     C 9935   5.022   9.101   8.853  1.1648 -0.0293 -0.1332
  815MOL0     C 9936   5.124   9.086   8.950 -0.4557 -0.8382  0.2427
  815MOL0     O 9937   5.409   9.100   9.015 -0.9822 -0.5006 -0.3585
  815MOL0     C 9938   5.422   9.242   9.362 -0.2324 -0.1080 -0.4070
  815MOL0     C 9939   5.516   9.248   9.468  0.1912  0.4300  0.4039
  815MOL0     N 9940   6.134   8.818   9.818  0.1535  0.0235  0.5510
  815MOL0     N 9941   6.106   8.745   9.914  0.1136 -0.1150  0.6778
  815MOL0     C 9942   5.434   8.174  10.601  0.2211 -0.0146  0.6297
  815MOL0     C 9943   5.345   8.070  10.625  0.0493 -0.1671  1.3545
  815MOL0     C 9944   5.019   7.781  10.499  0.6237 -0.1660 -0.1568
  815MOL0     C 9945   4.960   7.728  10.386  0.2311 -0.6083  0.4010
  815MOL0     C 9946   4.881   7.610  10.393  0.1565 -1.2085  0.0174
  815MOL0     C 9947   4.871   7.537  10.507  0.2461 -0.4492 -0.2536
  815MOL0     O 9948   4.790   7.427  10.510  0.0983 -0.0641 -0.1950
  815MOL0     C 9949   4.681   7.428  10.599  0.2849 -0.2306 -0.0950
  815MOL0     C 9950   4.571   7.524  10.557 -0.0459 -0.0655  0.5876
  815MOL0     C 9951   4.428   7.476  10.604 -0.0601 -0.0742 -0.1783
  815MOL0     C 9952   4.337   7.598  10.582 -0.1635 -0.1335 -0.5371
  815MOL0     C 9953   4.347   7.703  10.686  0.1576 -1.3352  0.2409
  815MOL0     C 9954   4.352   7.796  10.769 -0.6832 -0.5566  0.4544
  815MOL0     C 9955   4.926   7.592  10.629  0.6361 -0.3982  0.1412
  815MOL0     C 9956   4.997   7.711  10.621 -0.7861  1.2012 -0.1382
  815MOL0     C 9957   5.031   7.773  10.753 -0.4242  0.7364  0.6597
  815MOL0     H 9958   5.060   8.222  10.546  0.1901 -0.3338  0.1260
  815MOL0     H 9959   5.223   8.424  10.538 -0.4953 -0.2760 -1.8126
  815MOL0     H 9960   5.536   8.430  10.740  0.0674 -0.6042 -0.2158
  815MOL0     H 9961   5.670   8.407  10.633 -0.5246 -0.6789 -1.9129
  815MOL0     H 9962   5.643   8.629  10.714 -2.6320  0.3071  0.7800
  815MOL0     H 9963   5.486   8.630  10.619 -0.0473  1.7613 -5.5747
  815MOL0     H 9964   5.613   8.616  10.418  0.2588 -3.5556  0.8070
  815MOL0     H 9965   5.763   8.572  10.497 -2.1581 -3.8498 -0.3734
  815MOL0     H 9966   5.655   8.858  10.531  0.5877 -0.3062 -3.8399
  815MOL0     H 9967   5.796   8.781  10.603 -0.3489  1.7802  0.5921
  815MOL0     H 9968   5.733   8.836  10.318 -2.4101  0.1302  1.2706
  815MOL0     H 9969   5.833   8.940  10.423  0.1985 -0.8658  1.8063
  815MOL0     H 9970   5.997   8.746  10.463  0.9133  2.7280 -0.1457
  815MOL0     H 9971   5.910   8.647  10.335 -3.3067 -0.7201  2.0238
  815MOL0     H 9972   6.111   8.807  10.271 -0.7924 -1.3684 -1.6778
  815MOL0     H 9973   5.987   8.931  10.269 -3.1352  0.0823 -3.1669
  815MOL0     H 9974   5.994   8.655  10.117  2.5341  0.2149  0.6877
  815MOL0     H 9975   5.873   8.790  10.092  0.7587  2.7359 -1.2375
  815MOL0     H 9976   6.016   9.046  10.014 -2.0621 -0.8522 -1.0964
  815MOL0     H 9977   6.070   9.152   9.792 -2.2333 -1.6183  0.5590
  815MOL0     H 9978   6.227   9.089   9.742 -0.8844  4.9881  0.3179
  815MOL0     H 9979   6.115   9.135   9.555  0.3684  0.7725  2.1288
  815MOL0     H 9980   6.105   8.962   9.560  1.0702  0.4076 -1.3071
  815MOL0     H 9981   5.856   9.037   9.687  0.7134 -1.6424  0.2891
  815MOL0     H 9982   5.873   8.994   9.514 -1.1992 -0.0604  1.6437
  815MOL0     H 9983   5.901   9.228   9.449  1.9008  1.6124  0.8819
  815MOL0     H 9984   5.919   9.276   9.613 -2.1674 -0.6991  1.6988
  815MOL0     H 9985   5.786   9.131   9.283  0.0812  1.1299  2.1806
  815MOL0     H 9986   5.625   9.123   9.123  1.4429 -1.9752  0.9463
  815MOL0     H 9987   5.043   9.375   9.131 -0.2554  2.1517 -1.4029
  815MOL0     H 9988   4.848   9.356   8.988  1.5381  0.5330 -1.2049
  815MOL0     H 9989   4.638   9.201   8.916  0.7511  0.2148  0.9368
  815MOL0     H 9990   4.669   9.341   8.811 -0.0832 -0.0029  1.7428
  815MOL0     H 9991   4.492   9.225   8.709  0.1475  1.3985  0.9306
  815MOL0     H 9992   4.626   9.220   8.608 -0.2937  2.3847  0.3361
  815MOL0     H 9993   4.681   8.979   8.714  0.0559  0.0839  2.2972
  815MOL0     H 9994   4.536   8.991   8.791 -0.1789  1.4526 -0.3569
  815MOL0     H 9995   4.570   9.028   8.495  0.0355  0.6610  1.6972
  815MOL0     H 9996   4.418   9.018   8.579  0.1020  0.2958  1.0680
  815MOL0     H 9997   4.451   8.787   8.494  1.2079 -1.1126 -0.3817
  815MOL0     H 9998   4.539   8.783   8.650  1.7006  4.4306  2.5043
  815MOL0     H 9999   4.652   8.663   8.467  0.2405  0.9622  1.6061
  815MOL0     H10000   4.665   8.818   8.377 -1.2900  0.2029 -0.1527
  815MOL0     H10001   4.865   8.723   8.529  2.6744  1.5797  2.1069
  815MOL0     H10002   4.789   8.810   8.650  1.9137  2.3916  0.4576
  815MOL0     H10003   4.881   8.960   8.389 -2.5527 -1.4902 -1.3577
  815MOL0     H10004   4.843   9.029   8.544  1.5796  0.8079  0.8334
  815MOL0     H10005   5.029   9.027   8.773 -1.1637  0.0136 -0.4473
  815MOL0     H10006   5.200   9.011   8.935  1.6604  1.5612 -1.9110
  815MOL0     H10007   5.325   9.287   9.380 -1.2362 -2.6831  1.1572
  815MOL0     H10008   5.482   9.290   9.562 -2.1053  2.5755 -1.2416
  815MOL0     H10009   5.541   8.164  10.611  0.2695 -1.4357 -0.8619
  815MOL0     H10010   5.388   7.974  10.652  0.1084  0.2358  2.7703
  815MOL0     H10011   4.972   7.771  10.287 -0.2363  0.9291  0.9887
  815MOL0     H10012   4.833   7.576  10.302 -2.4919 -0.5068  1.0572
  815MOL0     H10013   4.711   7.446  10.703  1.6607 -0.6164 -0.4075
  815MOL0     H10014   4.626   7.334  10.591  0.8366 -0.8740  2.5619
  815MOL0     H10015   4.565   7.519  10.448 -0.3914 -1.9950  0.6526
  815MOL0     H10016   4.595   7.623  10.596  0.1916  0.5469 -1.0530
  815MOL0     H10017   4.433   7.452  10.711 -3.0299  2.7057  0.7585
  815MOL0     H10018   4.386   7.394  10.545 -1.0769  0.4046 -0.1308
  815MOL0     H10019   4.348   7.635  10.479 -0.6527 -0.5205 -0.7303
  815MOL0     H10020   4.235   7.561  10.594  0.2932 -1.7425 -1.3488
  815MOL0     H10021   4.358   7.861  10.855  0.8456 -1.2878  0.9341
  815MOL0     H10022   4.902   7.535  10.718 -0.7292 -0.7139 -0.4002
  815MOL0     H10023   5.137   7.780  10.779  0.5233 -2.6672 -1.5624
  815MOL0     H10024   4.976   7.867  10.763 -0.5009  0.9334 -1.2353
  815MOL0     H10025   4.983   7.702  10.822  1.0146 -2.1632 -1.1111
  816MOL0     O10026  10.332   2.854   1.185 -1.2300  0.8553  0.5141
  816MOL0     C10027  10.260   2.799   1.097 -0.4994  0.0307 -0.4604
  816MOL0     O10028  10.137   2.856   1.048 -0.1106 -0.6706 -0.9192
  816MOL0     C10029  10.110   2.996   1.053 -0.7689 -0.7789 -0.2401
  816MOL0     C10030  10.212   3.094   1.065 -0.1191 -0.4159  0.0707
  816MOL0     C10031  10.187   3.232   1.053  0.1468 -0.3046 -1.1894
  816MOL0     C10032  10.053   3.279   1.047 -0.5994  0.6179  0.1710
  816MOL0     O10033  10.022   3.414   1.045  0.1054  0.2267  0.5766
  816MOL0     C10034  10.057   3.479   1.163 -0.5143 -1.2716  0.4719
  816MOL0     C10035  10.130   3.619   1.129 -0.2871  0.6619 -0.7744
  816MOL0     C10036  10.158   3.704   1.249 -0.8382 -0.7289  0.4343
  816MOL0     C10037  10.044   3.732   1.342  0.7175  0.7327  0.2585
  816MOL0     C10038  10.077   3.833   1.452 -0.1093  1.3486  0.6758
  816MOL0     C10039  10.154   3.961   1.407  0.0095  0.2950  0.3174
  816MOL0     C10040  10.145   4.063   1.521 -0.1286 -0.3638 -0.5069
  816MOL0     C10041  10.198   4.206   1.477 -0.0833  0.5599 -0.0128
  816MOL0     N10042  10.336   4.214   1.425 -0.1447  0.4993  0.0361
  816MOL0     C10043  10.396   4.306   1.349 -0.1632  0.3115  0.6095
  816MOL0     C10044  10.527   4.274   1.341  0.3061 -1.3493 -0.5297
  816MOL0     C10045  10.631   4.335   1.253  1.2025 -0.3537  1.0740
  816MOL0     C10046  10.665   4.242   1.133 -0.1402 -0.5140 -0.3370
  816MOL0     C10047  10.758   4.302   1.031 -0.4361  0.5175  0.6198
  816MOL0     C10048  10.904   4.258   1.055 -0.6203 -0.2275  0.1292
  816MOL0     O10049  10.914   4.122   1.046  0.6622 -0.0401 -0.5343
  816MOL0     C10050  11.038   4.068   1.028  0.1585 -0.2533  0.5271
  816MOL0     C10051  11.046   3.934   0.986  0.1132 -0.0079  1.3916
  816MOL0     C10052  11.166   3.868   0.970 -0.7748 -0.4207 -0.5014
  816MOL0     C10053  11.282   3.930   1.018 -1.0432  0.6906  1.1268
  816MOL0     C10054  11.407   3.854   1.035  0.4128 -0.2860 -0.2274
  816MOL0     O10055  11.477   3.863   1.157 -0.1172  0.1769 -0.1348
  816MOL0     C10056  11.597   3.794   1.166 -0.0120  0.1128 -0.0601
  816MOL0     C10057  11.593   3.654   1.162  0.4069 -0.2191 -0.0757
  816MOL0     C10058  11.719   3.584   1.157  0.3026  0.5321  0.1922
  816MOL0     C10059  11.837   3.653   1.190  0.2847 -0.4969 -0.4956
  816MOL0     O10060  11.955   3.596   1.229 -0.1553 -0.1787  0.1715
  816MOL0     C10061  11.991   3.490   1.146 -0.6954  0.0727 -0.5262
  816MOL0     C10062  12.134   3.451   1.180 -0.1317  1.1376  0.2791
  816MOL0     C10063  12.141   3.347   1.290 -0.3771  0.5789 -0.0747
  816MOL0     C10064  12.291   3.321   1.324  0.0684  0.1078  0.3316
  816MOL0     C10065  12.280   3.236   1.454 -0.0270  0.1500  0.3196
  816MOL0     C10066  12.264   3.103   1.412  0.9120  0.8224  0.2159
  816MOL0     C10067  12.268   3.004   1.534  0.5909  0.2664  0.5966
  816MOL0     C10068  12.400   2.924   1.525  0.2588  0.1830 -0.4254
  816MOL0    Cl10069  12.426   2.827   1.374 -0.1895  0.1544 -0.5519
  816MOL0     C10070  11.835   3.797   1.196  0.3267  0.9177 -0.2790
  816MOL0     C10071  11.715   3.869   1.182 -0.3071 -0.1137  0.5653
  816MOL0     O10072  11.448   3.780   0.950  0.9581 -0.0650 -0.4043
  816MOL0     C10073  11.277   4.063   1.066 -0.9405  0.2069  1.3787
  816MOL0     C10074  11.156   4.130   1.066 -0.7397 -0.1525  0.7098
  816MOL0     N10075  10.543   4.162   1.415  0.6729  0.0801  0.2110
  816MOL0     N10076  10.435   4.127   1.468  0.8388 -0.8272  0.0720
  816MOL0     C10077   9.952   3.180   1.022  1.1781 -0.3301 -0.1548
  816MOL0     C10078   9.980   3.040   1.032  0.2654  0.1741 -0.5225
  816MOL0     C10079  10.287   2.660   1.057 -0.0770  0.6100  0.1596
  816MOL0     C10080  10.174   2.568   1.046 -0.2847 -0.4246  0.3224
  816MOL0     C10081  10.197   2.435   1.030  0.3618 -0.1456  0.2287
  816MOL0     C10082  10.327   2.387   1.001 -0.0284 -0.0113 -0.6930
  816MOL0     O10083  10.340   2.253   0.980  0.3457 -0.3910 -0.0968
  816MOL0     C10084  10.400   2.224   0.853 -0.5545 -0.4044  0.3939
  816MOL0     C10085  10.325   2.121   0.770  0.6941 -0.2771 -0.0473
  816MOL0     C10086  10.171   2.140   0.741 -0.0470  0.1629 -0.5146
  816MOL0     C10087  10.118   2.061   0.622  0.3379 -0.1950 -0.2794
  816MOL0     C10088   9.972   2.021   0.640 -0.1484  0.4156  0.6179
  816MOL0     C10089   9.860   1.991   0.665  0.1648  1.2271  0.2601
  816MOL0     C10090  10.438   2.474   1.010  0.3440 -0.0600 -0.0536
  816MOL0     C10091  10.423   2.609   1.046  0.3635 -0.0132 -0.2236
  816MOL0     C10092  10.542   2.688   1.051  0.5234  0.8127 -0.2886
  816MOL0     H10093  10.313   3.055   1.078 -1.6935 -6.7916 -2.8889
  816MOL0     H10094  10.266   3.307   1.060  1.4593 -1.7445  0.2561
  816MOL0     H10095   9.973   3.503   1.229  0.6981  1.0400  1.2984
  816MOL0     H10096  10.122   3.420   1.229  2.2158 -0.7479 -1.5725
  816MOL0     H10097  10.079   3.686   1.059  1.1794  1.0286 -1.5256
  816MOL0     H10098  10.222   3.591   1.077  0.8472 -1.0347  1.8791
  816MOL0     H10099  10.202   3.796   1.211 -0.0623 -1.2075  0.1307
  816MOL0     H10100  10.241   3.664   1.307  0.5067  0.6063 -0.5095
  816MOL0     H10101   9.957   3.766   1.285  0.5201  1.8717  1.1942
  816MOL0     H10102  10.028   3.640   1.399  2.1852 -0.5568 -1.2979
  816MOL0     H10103   9.982   3.855   1.503 -0.4510  0.0928  0.6023
  816MOL0     H10104  10.153   3.789   1.517  1.7111 -2.3500 -3.4414
  816MOL0     H10105  10.259   3.947   1.382 -0.0037  3.0382 -1.6644
  816MOL0     H10106  10.099   3.998   1.321  0.0802 -0.8021 -0.2102
  816MOL0     H10107  10.199   4.034   1.611 -0.3773  3.3850  1.0361
  816MOL0     H10108  10.043   4.065   1.562 -0.2882 -1.7236 -0.7813
  816MOL0     H10109  10.133   4.258   1.406 -1.4791  1.6340  1.9442
  816MOL0     H10110  10.187   4.262   1.571 -3.5835  1.8537 -1.0354
  816MOL0     H10111  10.343   4.384   1.296 -1.9151 -0.0945  1.6791
  816MOL0     H10112  10.603   4.434   1.217 -0.3803 -1.2563 -0.3549
  816MOL0     H10113  10.722   4.359   1.309  1.3150 -0.1835  0.8226
  816MOL0     H10114  10.697   4.144   1.171  0.5134 -0.9181 -1.8568
  816MOL0     H10115  10.570   4.229   1.080 -1.4480 -1.4647  2.0776
  816MOL0     H10116  10.750   4.411   1.045  1.2240  0.5400  1.6820
  816MOL0     H10117  10.742   4.283   0.925  3.5175 -1.5594  0.1990
  816MOL0     H10118  10.934   4.294   1.153  2.2721 -2.1773  0.0508
  816MOL0     H10119  10.968   4.305   0.980 -1.2273 -1.1511 -1.0124
  816MOL0     H10120  10.949   3.892   0.959 -0.5007  2.0641  0.0504
  816MOL0     H10121  11.186   3.776   0.917  2.2169  0.0020 -0.2816
  816MOL0     H10122  11.495   3.608   1.150 -0.6880  2.2040 -1.3760
  816MOL0     H10123  11.713   3.476   1.152  1.9293  0.4492 -0.4657
  816MOL0     H10124  11.919   3.409   1.160 -0.3429 -0.5572 -2.1465
  816MOL0     H10125  12.006   3.525   1.043  4.2108 -3.1531 -1.2600
  816MOL0     H10126  12.185   3.408   1.094 -4.3910 -3.8175 -0.2465
  816MOL0     H10127  12.186   3.546   1.197  0.7266  1.2033 -2.3371
  816MOL0     H10128  12.076   3.379   1.373 -2.3238 -1.5206 -0.6803
  816MOL0     H10129  12.107   3.249   1.256  3.5156 -1.2710  0.8079
  816MOL0     H10130  12.357   3.406   1.347  1.8196 -1.1954  0.2789
  816MOL0     H10131  12.352   3.266   1.253  3.0694  1.7916  1.4297
  816MOL0     H10132  12.196   3.274   1.513 -2.8804 -1.1987 -2.5591
  816MOL0     H10133  12.377   3.251   1.501 -0.0046  1.7201 -0.1565
  816MOL0     H10134  12.162   3.079   1.380  1.3899  1.6948 -2.1758
  816MOL0     H10135  12.331   3.073   1.330 -2.2611  0.8612 -2.6028
  816MOL0     H10136  12.180   2.943   1.514  1.1948  0.0329 -1.5338
  816MOL0     H10137  12.249   3.018   1.641  1.4015 -3.4060  1.3734
  816MOL0     H10138  12.487   2.986   1.546 -0.8459  2.1263 -1.3422
  816MOL0     H10139  12.392   2.851   1.607 -2.0873  0.1206 -0.6359
  816MOL0     H10140  11.926   3.856   1.206  0.2835  0.9487 -0.0552
  816MOL0     H10141  11.721   3.977   1.190  0.2806 -0.1323  0.4730
  816MOL0     H10142  11.359   4.120   1.107 -0.3752  1.9773 -1.9001
  816MOL0     H10143  11.148   4.229   1.111  0.1890 -0.7649  2.3327
  816MOL0     H10144   9.850   3.209   0.998  1.5405  1.7849  0.6609
  816MOL0     H10145   9.902   2.967   1.017 -1.8435  2.3324 -0.6876
  816MOL0     H10146  10.072   2.599   1.065  0.7145  1.4665  3.1579
  816MOL0     H10147  10.109   2.372   1.019  0.6854 -0.1178 -3.6390
  816MOL0     H10148  10.498   2.180   0.867 -0.9775 -2.0783 -1.5848
  816MOL0     H10149  10.410   2.312   0.789 -0.1669 -0.2864  0.6166
  816MOL0     H10150  10.344   2.023   0.815  3.8134  0.4184  0.3568
  816MOL0     H10151  10.376   2.106   0.674 -0.4701 -3.9495 -0.2387
  816MOL0     H10152  10.151   2.244   0.715 -1.5240 -0.5722 -2.6068
  816MOL0     H10153  10.124   2.110   0.835 -0.6349  1.9305 -0.2108
  816MOL0     H10154  10.108   2.128   0.536 -2.5792 -1.9315 -1.4351
  816MOL0     H10155  10.174   1.970   0.596  1.0241  0.2476 -0.3701
  816MOL0     H10156   9.761   1.951   0.673  1.2049 -1.7931 -0.6335
  816MOL0     H10157  10.533   2.428   0.985  1.5414  1.8966  0.6699
  816MOL0     H10158  10.631   2.631   1.079  0.7901  2.0289  1.5407
  816MOL0     H10159  10.548   2.735   0.953 -0.0966 -0.8878 -1.1694
  816MOL0     H10160  10.539   2.764   1.130  0.9844  0.6016 -0.0647
  817MOL0     O10161   1.407   7.616   5.886  0.0232  0.3352 -0.8604
  817MOL0     C10162   1.458   7.733   5.882 -0.7290 -0.3348  0.4976
  817MOL0     O10163   1.556   7.769   5.792 -0.1031 -0.1126  0.0081
  817MOL0     C10164   1.562   7.706   5.667  0.4722 -0.8865 -0.8292
  817MOL0     C10165   1.683   7.711   5.604  0.0583  0.3214 -0.0637
  817MOL0     C10166   1.705   7.636   5.493  0.6047  0.1775 -0.4076
  817MOL0     C10167   1.599   7.579   5.423 -0.0041 -0.1167  1.0599
  817MOL0     O10168   1.609   7.499   5.309 -0.0299 -0.3359 -0.0250
  817MOL0     C10169   1.715   7.534   5.213 -0.2213  0.7306 -1.0106
  817MOL0     C10170   1.706   7.678   5.145  1.0633  0.5014  0.5471
  817MOL0     C10171   1.575   7.710   5.069 -0.3245  0.6900  0.8838
  817MOL0     C10172   1.562   7.626   4.943  0.4238 -0.1744 -0.1629
  817MOL0     C10173   1.430   7.636   4.877 -0.0243  0.4659 -0.4634
  817MOL0     C10174   1.415   7.768   4.813  0.6234 -0.3934 -0.4169
  817MOL0     C10175   1.295   7.750   4.718 -0.2010  0.0685 -0.9455
  817MOL0     C10176   1.155   7.716   4.777  0.1052 -0.1615 -0.0005
  817MOL0     N10177   1.078   7.830   4.838 -0.3823 -0.3444 -0.3674
  817MOL0     C10178   0.948   7.840   4.884 -0.1690  0.3629 -0.7866
  817MOL0     C10179   0.933   7.953   4.954 -0.0567  0.0401 -0.3235
  817MOL0     C10180   0.804   7.987   5.030 -0.3838  0.2008 -0.4587
  817MOL0     C10181   0.712   7.877   5.084  0.5239 -0.1161 -0.6213
  817MOL0     C10182   0.580   7.921   5.148 -0.8087 -0.6338  0.4308
  817MOL0     C10183   0.598   8.002   5.276 -0.3249 -0.1038  0.2572
  817MOL0     O10184   0.487   8.086   5.327 -0.0776  0.4171  0.4810
  817MOL0     C10185   0.430   8.180   5.237 -0.3667 -0.1308 -0.1910
  817MOL0     C10186   0.295   8.215   5.244 -0.1711  0.4428  0.0641
  817MOL0     C10187   0.233   8.297   5.149  1.0943  0.0707  0.8352
  817MOL0     C10188   0.309   8.364   5.049  0.3669 -0.0883 -0.5821
  817MOL0     C10189   0.240   8.450   4.948  0.2080 -0.1988  0.2278
  817MOL0     O10190   0.109   8.499   4.982 -0.2172  0.5905  0.0514
  817MOL0     C10191   0.032   8.567   4.892 -0.2355 -0.2860 -0.7545
  817MOL0     C10192   0.074   8.647   4.784 -0.3292  0.0223  0.6192
  817MOL0     C10193  -0.027   8.708   4.701  0.0330 -0.9392  0.6194
  817MOL0     C10194  -0.164   8.703   4.731  0.0301  0.2489  0.3858
  817MOL0     O10195  -0.246   8.789   4.658 -0.0567  0.1071 -0.0417
  817MOL0     C10196  -0.383   8.766   4.662  0.7788 -0.8747  1.1775
  817MOL0     C10197  -0.441   8.847   4.554  0.9885  0.0650 -1.0485
  817MOL0     C10198  -0.595   8.842   4.538 -0.4816  0.0028  0.1742
  817MOL0     C10199  -0.669   8.898   4.660 -0.0143 -0.0237  0.0179
  817MOL0     C10200  -0.827   8.887   4.664 -0.5343  0.1065  0.8878
  817MOL0     C10201  -0.861   8.739   4.648  0.1707  0.4624 -0.0877
  817MOL0     C10202  -1.007   8.726   4.679 -0.0003  0.3061  0.3745
  817MOL0     C10203  -1.053   8.578   4.653 -0.1424  0.4305 -1.3233
  817MOL0    Cl10204  -0.985   8.465   4.773  0.5491 -0.0991 -0.6433
  817MOL0     C10205  -0.201   8.623   4.837  0.0754 -0.1354 -0.1382
  817MOL0     C10206  -0.105   8.564   4.914 -0.1794 -0.2047 -0.6069
  817MOL0     O10207   0.296   8.478   4.848  0.0901 -0.2557  0.2488
  817MOL0     C10208   0.454   8.349   5.060  0.1625  0.0129  0.9305
  817MOL0     C10209   0.512   8.256   5.147  0.3556 -1.0806  0.0255
  817MOL0     N10210   1.049   8.018   4.967 -0.2721 -0.2363  0.6991
  817MOL0     N10211   1.131   7.943   4.890 -0.1340  0.3409  0.4046
  817MOL0     C10212   1.472   7.587   5.482 -0.7436 -0.5157 -0.5183
  817MOL0     C10213   1.449   7.649   5.604  0.4709 -0.7708 -0.3100
  817MOL0     C10214   1.407   7.837   5.980  0.4001  0.3786  0.9262
  817MOL0     C10215   1.296   7.805   6.061  0.5780  0.8372  0.0699
  817MOL0     C10216   1.254   7.894   6.159  0.2619  0.6557 -0.4709
  817MOL0     C10217   1.312   8.017   6.179 -0.6767 -0.0458 -0.5401
  817MOL0     O10218   1.276   8.094   6.284 -0.4290  0.0878  0.1316
  817MOL0     C10219   1.380   8.150   6.364  0.1223 -0.4720 -0.2795
  817MOL0     C10220   1.324   8.168   6.510 -0.3944  0.3334  0.0647
  817MOL0     C10221   1.318   8.026   6.586  0.2304  0.3823 -0.0407
  817MOL0     C10222   1.318   8.038   6.738 -0.0745  0.8626 -0.6959
  817MOL0     C10223   1.359   7.903   6.777 -0.1333  0.3479 -0.5697
  817MOL0     C10224   1.383   7.796   6.826 -0.1031 -0.4453  0.5440
  817MOL0     C10225   1.410   8.050   6.079  0.1082  0.3980  0.0018
  817MOL0     C10226   1.464   7.966   5.984 -0.2297 -0.4401  0.3968
  817MOL0     C10227   1.572   8.026   5.891 -0.4566  0.1694 -0.8708
  817MOL0     H10228   1.756   7.764   5.664  3.8689 -3.5000 -0.8223
  817MOL0     H10229   1.803   7.614   5.452  0.7293 -2.4518  1.0312
  817MOL0     H10230   1.809   7.527   5.268  0.4739  0.8290 -2.1372
  817MOL0     H10231   1.721   7.457   5.135 -0.9129 -0.8588  0.4377
  817MOL0     H10232   1.783   7.674   5.067  1.7098 -1.9485  1.2124
  817MOL0     H10233   1.739   7.755   5.214  2.7338  0.0230  0.3206
  817MOL0     H10234   1.574   7.819   5.059 -3.7120  0.8652  1.7350
  817MOL0     H10235   1.492   7.691   5.139  0.6113 -2.5821  1.2496
  817MOL0     H10236   1.651   7.627   4.881  0.8911 -3.6149  0.2130
  817MOL0     H10237   1.561   7.526   4.988 -2.3632 -0.6465 -1.0946
  817MOL0     H10238   1.428   7.558   4.800  2.2667  0.5224 -0.6385
  817MOL0     H10239   1.349   7.613   4.946  0.0856  0.3151 -0.3837
  817MOL0     H10240   1.396   7.837   4.895 -2.2914 -0.1295 -1.1819
  817MOL0     H10241   1.494   7.806   4.747 -1.3924 -0.7459 -3.2332
  817MOL0     H10242   1.310   7.671   4.644  0.7750 -0.7980  0.1365
  817MOL0     H10243   1.296   7.843   4.661 -0.2722  0.3503 -0.4876
  817MOL0     H10244   1.095   7.677   4.694 -0.6523  1.5946 -0.3304
  817MOL0     H10245   1.145   7.632   4.846  0.0264 -0.1843 -0.0394
  817MOL0     H10246   0.879   7.759   4.863 -0.0582 -0.2166  0.9634
  817MOL0     H10247   0.833   8.040   5.122 -0.7166 -1.6934  0.8126
  817MOL0     H10248   0.751   8.051   4.960  0.5499  1.6134  0.0918
  817MOL0     H10249   0.679   7.808   5.005 -2.0040  0.6791 -0.3279
  817MOL0     H10250   0.774   7.819   5.153 -1.2954 -4.0315 -1.9513
  817MOL0     H10251   0.520   7.832   5.169 -2.9447  0.9808  1.6070
  817MOL0     H10252   0.524   7.987   5.081 -1.5798  1.1798  2.7163
  817MOL0     H10253   0.680   8.072   5.260 -1.7665  1.3319 -1.1676
  817MOL0     H10254   0.620   7.934   5.360 -2.2051 -1.5949 -0.3762
  817MOL0     H10255   0.238   8.167   5.323  2.9374  0.0419  2.2451
  817MOL0     H10256   0.126   8.317   5.148  0.3702 -3.3400  0.8397
  817MOL0     H10257   0.174   8.663   4.746  0.8225  0.0817  3.4676
  817MOL0     H10258   0.010   8.767   4.618 -0.4636 -3.0504 -1.1939
  817MOL0     H10259  -0.408   8.661   4.643  1.4220 -0.7661 -0.4125
  817MOL0     H10260  -0.432   8.805   4.752 -3.7768  0.0070 -1.3803
  817MOL0     H10261  -0.402   8.948   4.565  2.2694 -0.6877  4.0064
  817MOL0     H10262  -0.392   8.799   4.469 -1.3698  1.9489 -3.6721
  817MOL0     H10263  -0.604   8.887   4.439  2.2525 -2.2393 -1.2313
  817MOL0     H10264  -0.615   8.734   4.544  1.2287 -0.2788  1.6933
  817MOL0     H10265  -0.629   9.000   4.663 -0.3465  0.1897 -1.6787
  817MOL0     H10266  -0.641   8.845   4.751 -2.0083  3.1471  2.7266
  817MOL0     H10267  -0.874   8.961   4.599 -0.4014  0.0320  0.7085
  817MOL0     H10268  -0.867   8.909   4.764  0.4359 -3.2786  2.1705
  817MOL0     H10269  -0.846   8.718   4.541  0.5874  1.2565 -0.1930
  817MOL0     H10270  -0.788   8.678   4.703  2.4163  4.0154  1.1911
  817MOL0     H10271  -1.064   8.778   4.602 -0.5654  1.6426  1.6511
  817MOL0     H10272  -1.031   8.750   4.783 -1.7087 -0.8793  0.2915
  817MOL0     H10273  -1.162   8.578   4.652 -0.3096 -1.9075  1.7279
  817MOL0     H10274  -1.015   8.548   4.555 -1.2158  0.5248 -1.7806
  817MOL0     H10275  -0.307   8.614   4.860 -0.0209  1.0635  0.0016
  817MOL0     H10276  -0.138   8.485   4.980 -2.3820  0.2576 -1.0705
  817MOL0     H10277   0.522   8.406   4.998 -2.3806  0.7470 -1.3721
  817MOL0     H10278   0.619   8.236   5.148  0.3269 -1.5161  2.8230
  817MOL0     H10279   1.391   7.541   5.426 -1.5951  1.1649 -0.7438
  817MOL0     H10280   1.347   7.657   5.639 -0.5356 -0.2124 -3.1031
  817MOL0     H10281   1.254   7.705   6.049  2.5564  0.1842 -2.3501
  817MOL0     H10282   1.178   7.865   6.231  1.9750  1.2743  1.6958
  817MOL0     H10283   1.407   8.251   6.331  2.2116 -0.1155  2.2023
  817MOL0     H10284   1.468   8.086   6.373  0.6960  0.3646  0.2123
  817MOL0     H10285   1.224   8.211   6.510 -0.2452  0.6976  1.3335
  817MOL0     H10286   1.403   8.230   6.553 -0.4046  0.2107  0.2603
  817MOL0     H10287   1.414   7.982   6.561 -0.8879 -3.4718  1.7375
  817MOL0     H10288   1.236   7.967   6.544 -0.4115  2.4208 -1.8618
  817MOL0     H10289   1.406   8.097   6.767 -0.2082  1.7127 -1.9488
  817MOL0     H10290   1.222   8.056   6.787 -0.0666 -2.0568  0.6468
  817MOL0     H10291   1.393   7.702   6.877 -3.3172 -0.7612  0.8107
  817MOL0     H10292   1.425   8.158   6.080 -3.8005  1.0782  0.9718
  817MOL0     H10293   1.568   8.015   5.783 -0.0180 -2.6101 -0.6705
  817MOL0     H10294   1.568   8.134   5.908  3.1016  0.2802 -0.0525
  817MOL0     H10295   1.671   7.991   5.921  0.2569 -0.6080 -3.8621
  818MOL0     O10296   9.203   8.094   2.777 -0.0302  0.5840 -0.0686
  818MOL0     C10297   9.249   7.981   2.744  0.7344 -0.7115 -0.3821
  818MOL0     O10298   9.342   7.958   2.641  0.1710 -0.1045  0.1910
  818MOL0     C10299   9.409   8.068   2.588  0.0288 -0.2088 -0.2120
  818MOL0     C10300   9.350   8.150   2.497 -0.3611 -0.1782  0.1958
  818MOL0     C10301   9.422   8.242   2.416  0.2520 -0.2935  0.3514
  818MOL0     C10302   9.554   8.274   2.447 -0.2029  0.0138 -0.6880
  818MOL0     O10303   9.632   8.370   2.394  0.0752  0.3432 -0.2929
  818MOL0     C10304   9.601   8.430   2.267  0.4084  0.0287  1.1656
  818MOL0     C10305   9.698   8.537   2.229 -0.4830  0.0485 -0.9997
  818MOL0     C10306   9.714   8.630   2.348  0.2935 -1.1334 -0.2799
  818MOL0     C10307   9.783   8.760   2.305  0.0635 -0.0707  0.0616
  818MOL0     C10308   9.854   8.844   2.419 -1.6421  0.1023 -0.1149
  818MOL0     C10309   9.745   8.884   2.524  0.0464  1.1034 -0.2264
  818MOL0     C10310   9.813   8.969   2.639  0.5459  0.5220 -0.9364
  818MOL0     C10311   9.724   9.039   2.741 -0.5518 -0.3151  0.9850
  818MOL0     N10312   9.708   9.181   2.712  0.0792 -0.2695 -0.2777
  818MOL0     C10313   9.636   9.238   2.608  0.3343  0.6253  0.1131
  818MOL0     C10314   9.693   9.356   2.588 -0.0369  0.4095  0.1756
  818MOL0     C10315   9.639   9.442   2.475  0.3624 -0.9138  0.0958
  818MOL0     C10316   9.487   9.462   2.482 -0.4679  0.7077 -0.6725
  818MOL0     C10317   9.440   9.580   2.391 -0.3679  0.4722  0.6380
  818MOL0     C10318   9.302   9.530   2.341 -0.7736 -0.9955  0.1308
  818MOL0     O10319   9.244   9.648   2.289 -0.3299  0.2008 -0.2445
  818MOL0     C10320   9.172   9.735   2.372 -1.4664 -1.0004  0.5859
  818MOL0     C10321   9.112   9.844   2.313  0.0224  0.0262 -0.1456
  818MOL0     C10322   9.038   9.937   2.387  1.3167 -0.0627 -0.7567
  818MOL0     C10323   9.023   9.918   2.524  0.3584 -0.3106 -1.4118
  818MOL0     C10324   8.955  10.019   2.604  0.8872 -1.0876  0.0226
  818MOL0     O10325   8.893   9.970   2.727 -0.4967 -0.7866 -0.2164
  818MOL0     C10326   8.830  10.065   2.807 -0.4388  0.0931 -0.5057
  818MOL0     C10327   8.738  10.014   2.898  0.4492 -0.5981 -0.6078
  818MOL0     C10328   8.671  10.094   2.985 -0.1115 -0.4660 -0.7433
  818MOL0     C10329   8.708  10.233   2.989  0.0724 -0.2142 -0.6860
  818MOL0     O10330   8.635  10.319   3.069 -0.6006 -0.7617  0.2380
  818MOL0     C10331   8.490  10.321   3.060  0.5334  0.1212  0.4259
  818MOL0     C10332   8.419  10.352   3.196  0.3313  0.1479  0.9469
  818MOL0     C10333   8.431  10.249   3.312 -0.0092 -0.1793  0.4821
  818MOL0     C10334   8.380  10.108   3.277  0.7329  0.0403  1.0353
  818MOL0     C10335   8.383  10.023   3.406  0.3425 -0.3498 -0.4139
  818MOL0     C10336   8.321   9.889   3.372 -0.7203  0.1472  0.5037
  818MOL0     C10337   8.423   9.768   3.370  0.4863  0.3935 -0.5452
  818MOL0     C10338   8.500   9.771   3.241 -0.4829 -1.1013 -0.1519
  818MOL0    Cl10339   8.404   9.726   3.099 -0.1138 -0.0504 -0.4045
  818MOL0     C10340   8.811  10.285   2.913  0.4973  0.0652 -0.2547
  818MOL0     C10341   8.874  10.207   2.819  0.9773  1.1683 -0.2122
  818MOL0     O10342   8.927  10.130   2.556 -0.1124  0.1047 -0.2143
  818MOL0     C10343   9.089   9.815   2.582 -0.3479 -0.9437  0.4771
  818MOL0     C10344   9.162   9.727   2.508 -0.5464  0.4421  1.2376
  818MOL0     N10345   9.792   9.379   2.679  0.1070  0.0397  0.1688
  818MOL0     N10346   9.796   9.273   2.751 -0.1249  0.1613 -0.3976
  818MOL0     C10347   9.611   8.201   2.553  0.3926 -0.1373  0.0546
  818MOL0     C10348   9.539   8.095   2.624  0.2343  0.3882 -0.2310
  818MOL0     C10349   9.196   7.870   2.819  0.0958  1.0168  0.4012
  818MOL0     C10350   9.163   7.757   2.744  0.6010  0.1729  0.0524
  818MOL0     C10351   9.136   7.632   2.802 -0.5830  0.0361  0.9100
  818MOL0     C10352   9.117   7.619   2.941 -0.3448 -0.9992  1.1214
  818MOL0     O10353   9.061   7.501   2.987  0.7984 -0.0234  0.9393
  818MOL0     C10354   9.077   7.457   3.120 -0.2497 -1.2369 -0.0038
  818MOL0     C10355   9.220   7.405   3.149  0.5302  0.0422  0.8705
  818MOL0     C10356   9.266   7.280   3.072 -0.1393 -0.5969  0.0099
  818MOL0     C10357   9.416   7.250   3.080 -0.2759 -0.0580  0.2758
  818MOL0     C10358   9.499   7.362   3.022  0.3817  0.4508  0.0570
  818MOL0     C10359   9.564   7.458   2.984  0.3243 -0.7975  1.0728
  818MOL0     C10360   9.130   7.745   3.011 -0.0143  0.9511 -0.4897
  818MOL0     C10361   9.178   7.863   2.953  0.1381  0.0322  0.3409
  818MOL0     C10362   9.192   7.976   3.056 -0.0260  0.4969  0.0112
  818MOL0     H10363   9.243   8.137   2.480 -0.8824  0.1176  2.8937
  818MOL0     H10364   9.363   8.280   2.333 -0.4215  0.1061  0.9997
  818MOL0     H10365   9.591   8.359   2.185  0.7801  2.6790 -1.3352
  818MOL0     H10366   9.505   8.478   2.285 -0.1649 -0.9857  0.8822
  818MOL0     H10367   9.671   8.589   2.137 -1.1244 -3.2129 -2.8240
  818MOL0     H10368   9.800   8.498   2.218 -0.5845 -0.5883  0.1263
  818MOL0     H10369   9.768   8.581   2.429  1.6958 -1.8074 -1.5837
  818MOL0     H10370   9.616   8.656   2.388 -0.9607 -1.7921 -2.6931
  818MOL0     H10371   9.852   8.731   2.226 -1.8338 -3.6113 -0.5132
  818MOL0     H10372   9.715   8.825   2.248  0.9885  3.0122  2.1938
  818MOL0     H10373   9.933   8.788   2.469 -0.9073  2.6610  1.8205
  818MOL0     H10374   9.905   8.934   2.383  2.5812 -2.9152 -2.5415
  818MOL0     H10375   9.664   8.938   2.476 -0.6280 -0.3909 -0.8564
  818MOL0     H10376   9.694   8.801   2.574 -1.8120  1.6439 -1.1449
  818MOL0     H10377   9.887   9.036   2.593 -1.5967  0.8939 -4.2055
  818MOL0     H10378   9.877   8.896   2.689 -0.7951 -0.1061 -0.0903
  818MOL0     H10379   9.627   8.990   2.744 -0.6899 -0.0322  2.8453
  818MOL0     H10380   9.776   9.033   2.838 -0.5601 -0.9120  0.9557
  818MOL0     H10381   9.560   9.187   2.550 -1.1726  0.5960  1.9857
  818MOL0     H10382   9.687   9.539   2.484  2.9659 -2.2669  6.9197
  818MOL0     H10383   9.655   9.396   2.377 -0.2071  2.1662 -1.5700
  818MOL0     H10384   9.433   9.370   2.458 -1.1870  1.0097 -0.2565
  818MOL0     H10385   9.451   9.481   2.584 -2.5307  2.5524 -1.6766
  818MOL0     H10386   9.498   9.587   2.299  0.4739  1.9808  1.2547
  818MOL0     H10387   9.446   9.682   2.430 -1.3526  2.0884 -3.0057
  818MOL0     H10388   9.236   9.491   2.418 -0.5073  2.8520  2.5379
  818MOL0     H10389   9.324   9.467   2.254 -2.8240  0.7369 -1.7294
  818MOL0     H10390   9.106   9.840   2.204  3.2698  0.9321 -0.4660
  818MOL0     H10391   9.001  10.029   2.342  0.4026 -0.3393 -0.5905
  818MOL0     H10392   8.704   9.912   2.886 -2.7608 -0.1226  2.5719
  818MOL0     H10393   8.580  10.060   3.034 -0.6283 -2.1338 -2.6793
  818MOL0     H10394   8.463  10.395   2.985  0.2130 -0.1755  0.2452
  818MOL0     H10395   8.443  10.229   3.024  0.6091  0.8354 -1.6211
  818MOL0     H10396   8.466  10.446   3.226  1.4482 -0.1722  0.2541
  818MOL0     H10397   8.314  10.371   3.175  0.2316 -2.1635 -1.2116
  818MOL0     H10398   8.537  10.237   3.337 -0.0826 -0.2678  0.7542
  818MOL0     H10399   8.371  10.287   3.395  1.6297  1.2405  1.0701
  818MOL0     H10400   8.445  10.068   3.199  2.6753  4.1893  0.2681
  818MOL0     H10401   8.278  10.114   3.236  0.8334 -2.4413  0.2452
  818MOL0     H10402   8.336  10.071   3.492  2.3416 -0.6577  0.9099
  818MOL0     H10403   8.485  10.012   3.444 -0.1488 -3.3089  0.3481
  818MOL0     H10404   8.254   9.873   3.457  1.4146  1.8680  2.6447
  818MOL0     H10405   8.249   9.883   3.290 -1.0558 -2.4918  0.9161
  818MOL0     H10406   8.370   9.672   3.371 -1.5003  1.4327  0.0973
  818MOL0     H10407   8.476   9.778   3.465 -1.1098 -0.6464  0.4902
  818MOL0     H10408   8.544   9.871   3.230 -0.6372 -0.7297  2.1345
  818MOL0     H10409   8.592   9.711   3.244  1.5928  1.7414 -1.9301
  818MOL0     H10410   8.848  10.384   2.935  3.2075 -0.8877 -0.1944
  818MOL0     H10411   8.960  10.244   2.765  0.4222  5.0092  1.2106
  818MOL0     H10412   9.079   9.798   2.689 -0.8890 -0.5649  0.4888
  818MOL0     H10413   9.219   9.656   2.566 -1.6258  0.7665  2.7589
  818MOL0     H10414   9.711   8.233   2.581  0.9472  0.4254 -2.3758
  818MOL0     H10415   9.577   8.037   2.708 -0.2720  0.1496 -0.1568
  818MOL0     H10416   9.157   7.761   2.635  0.1026  0.4330  0.0838
  818MOL0     H10417   9.116   7.548   2.735  0.3355  1.6187 -1.4976
  818MOL0     H10418   9.000   7.385   3.149 -2.9338  1.6735  0.6743
  818MOL0     H10419   9.062   7.540   3.189 -0.2310 -1.9420  0.8653
  818MOL0     H10420   9.230   7.377   3.254  1.9797  3.8598  1.9387
  818MOL0     H10421   9.282   7.493   3.131  0.0007  0.3232  0.3745
  818MOL0     H10422   9.233   7.295   2.968  2.5858 -0.7651 -0.9678
  818MOL0     H10423   9.201   7.202   3.113  2.3510 -1.5555  2.3920
  818MOL0     H10424   9.466   7.244   3.177  1.4833 -1.3287 -0.6335
  818MOL0     H10425   9.451   7.155   3.038  0.0042 -1.0302  2.5506
  818MOL0     H10426   9.639   7.532   2.962  0.5095 -0.2828  3.1985
  818MOL0     H10427   9.112   7.748   3.118 -1.1044  1.0203 -0.6635
  818MOL0     H10428   9.265   8.053   3.030 -0.8820  1.2661 -0.1525
  818MOL0     H10429   9.100   8.034   3.062 -0.4302 -0.3015  2.7270
  818MOL0     H10430   9.221   7.946   3.157 -3.3500  3.1040  1.9355
  819MOL0     O10431   5.835   6.878   5.999  0.1947 -0.8998  0.1059
  819MOL0     C10432   5.929   6.897   6.072 -0.4853  0.0973  1.9835
  819MOL0     O10433   6.057   6.905   6.031  0.7110 -0.3544  0.0633
  819MOL0     C10434   6.103   6.872   5.904  0.4627 -0.0933  0.1789
  819MOL0     C10435   6.238   6.889   5.897 -0.7553  0.7508 -0.3283
  819MOL0     C10436   6.297   6.845   5.776  0.4870 -0.1266  0.1436
  819MOL0     C10437   6.221   6.803   5.662 -0.7789  0.0621  0.1567
  819MOL0     O10438   6.265   6.777   5.536  0.8208  0.2095 -0.5933
  819MOL0     C10439   6.306   6.898   5.469  0.1264 -0.9466  0.1822
  819MOL0     C10440   6.378   6.850   5.340  0.9623 -0.8547 -0.0781
  819MOL0     C10441   6.411   6.975   5.248  0.0760  0.8331 -0.1882
  819MOL0     C10442   6.541   7.035   5.299 -0.8634  0.0371  0.7089
  819MOL0     C10443   6.638   7.096   5.187  0.1594 -0.0461 -0.3124
  819MOL0     C10444   6.655   7.039   5.044 -0.0931  1.2128 -0.1048
  819MOL0     C10445   6.793   7.093   5.004 -0.7567  0.4980  0.6650
  819MOL0     C10446   6.836   7.041   4.864  0.6514  0.1556 -0.6336
  819MOL0     N10447   6.763   7.105   4.766  0.3205 -0.5332  0.4880
  819MOL0     C10448   6.792   7.229   4.703  0.2489  0.2292  0.1099
  819MOL0     C10449   6.714   7.221   4.591 -0.1163  0.1908  0.7463
  819MOL0     C10450   6.720   7.318   4.474 -0.7382 -0.5856  0.1981
  819MOL0     C10451   6.855   7.391   4.458 -0.5008  0.3728 -0.6595
  819MOL0     C10452   6.852   7.486   4.337 -1.6292  0.1596  0.6922
  819MOL0     C10453   6.985   7.537   4.293 -0.3906 -1.8939 -0.7450
  819MOL0     O10454   6.970   7.602   4.163 -0.2255 -0.5108 -0.6452
  819MOL0     C10455   7.082   7.637   4.082  0.7795 -0.1782  0.2961
  819MOL0     C10456   7.213   7.630   4.121 -1.1656  0.1257 -0.4075
  819MOL0     C10457   7.320   7.655   4.033 -0.0462 -0.2281 -0.7310
  819MOL0     C10458   7.287   7.715   3.905 -0.5383 -0.0216  0.5607
  819MOL0     C10459   7.383   7.770   3.808 -0.6387  0.2252  0.0089
  819MOL0     O10460   7.512   7.721   3.817 -0.1043  0.1507 -0.2248
  819MOL0     C10461   7.621   7.777   3.769  0.2627 -0.1703 -0.9336
  819MOL0     C10462   7.641   7.912   3.739 -0.4725 -0.7423  0.1784
  819MOL0     C10463   7.768   7.975   3.714 -0.7116 -0.3556 -0.5476
  819MOL0     C10464   7.873   7.887   3.718  0.1704  1.4402  0.1678
  819MOL0     O10465   7.999   7.932   3.695  0.6956  0.0199  0.5047
  819MOL0     C10466   8.013   7.943   3.555 -0.2162  0.7303 -0.2038
  819MOL0     C10467   8.151   8.010   3.537 -1.6099  0.4467  0.5668
  819MOL0     C10468   8.262   7.915   3.575 -0.1511  0.5375 -0.3963
  819MOL0     C10469   8.392   7.977   3.552 -0.2169 -1.0210 -0.9058
  819MOL0     C10470   8.430   8.062   3.672  0.3584 -1.4750  0.4824
  819MOL0     C10471   8.570   8.128   3.652  0.5111 -0.4742  0.0406
  819MOL0     C10472   8.627   8.185   3.788 -0.0631 -0.0755  0.7653
  819MOL0     C10473   8.758   8.267   3.773  0.9701 -0.7283  1.3729
  819MOL0    Cl10474   8.874   8.156   3.695 -0.4820  0.0641  0.4400
  819MOL0     C10475   7.856   7.747   3.731 -0.1402 -0.1153  0.5916
  819MOL0     C10476   7.728   7.695   3.765  0.0627  0.3768 -0.3998
  819MOL0     O10477   7.343   7.858   3.729 -0.3170 -0.3600  0.5860
  819MOL0     C10478   7.149   7.734   3.879 -0.3534 -0.1871  0.8663
  819MOL0     C10479   7.051   7.696   3.960  0.6421 -0.3075  0.1860
  819MOL0     N10480   6.646   7.099   4.586  1.0638 -0.3575  0.4042
  819MOL0     N10481   6.665   7.043   4.693  0.4759  0.2288  0.0147
  819MOL0     C10482   6.084   6.775   5.682  0.0653  0.3116  0.4506
  819MOL0     C10483   6.037   6.796   5.809  0.1042  0.2252  0.3908
  819MOL0     C10484   5.909   6.915   6.217  0.1406  0.0362 -0.4784
  819MOL0     C10485   6.012   6.872   6.303 -0.0991  1.0216 -0.4043
  819MOL0     C10486   5.997   6.883   6.442  0.3681  0.2926  1.1107
  819MOL0     C10487   5.876   6.935   6.493  0.3582  0.4237 -0.9657
  819MOL0     O10488   5.868   6.917   6.636  0.1901  0.2579 -0.4101
  819MOL0     C10489   5.750   6.980   6.691  0.6327  0.3079  0.4669
  819MOL0     C10490   5.745   6.948   6.837  0.2878 -0.6282 -0.1952
  819MOL0     C10491   5.821   7.053   6.914 -0.6787 -0.3668 -0.0991
  819MOL0     C10492   5.729   7.174   6.954  0.6683  0.0774 -0.1173
  819MOL0     C10493   5.647   7.144   7.072  1.3393  0.4839 -1.1229
  819MOL0     C10494   5.568   7.152   7.164  0.1332 -0.0917 -0.3789
  819MOL0     C10495   5.768   6.975   6.415 -0.4279  0.6470  0.3902
  819MOL0     C10496   5.787   6.968   6.272 -0.2495 -0.1820 -0.2809
  819MOL0     C10497   5.672   7.021   6.191 -0.1157  0.7418 -0.0881
  819MOL0     H10498   6.292   6.925   5.984  0.6235 -3.5160  0.7949
  819MOL0     H10499   6.401   6.841   5.746  0.4023 -0.3154 -0.1343
  819MOL0     H10500   6.220   6.961   5.442 -0.7131 -1.6534  1.1425
  819MOL0     H10501   6.374   6.949   5.537 -1.4353  1.4066  0.1115
  819MOL0     H10502   6.319   6.783   5.277  0.6673 -0.7941  0.1296
  819MOL0     H10503   6.471   6.802   5.369  2.8703  2.5694 -0.0429
  819MOL0     H10504   6.346   7.060   5.269  0.3384  1.0890 -0.4016
  819MOL0     H10505   6.425   6.948   5.142  1.3724  1.1027 -0.1015
  819MOL0     H10506   6.517   7.108   5.377  1.0862 -0.4524  1.8583
  819MOL0     H10507   6.604   6.960   5.349 -1.4126 -1.6560 -1.0184
  819MOL0     H10508   6.601   7.193   5.153 -0.1042 -0.6259 -1.8065
  819MOL0     H10509   6.734   7.108   5.238 -1.7634  0.6110  3.5048
  819MOL0     H10510   6.671   6.931   5.042  0.5092  1.1921  2.6240
  819MOL0     H10511   6.574   7.069   4.976  0.5349 -1.5676 -2.2475
  819MOL0     H10512   6.868   7.062   5.078 -0.8140  1.3087  1.0800
  819MOL0     H10513   6.795   7.203   5.007  1.0027  0.4877  1.3474
  819MOL0     H10514   6.940   7.068   4.847  0.8064  0.0557  0.1165
  819MOL0     H10515   6.826   6.933   4.854  0.6209  0.2443 -1.5659
  819MOL0     H10516   6.856   7.311   4.732 -0.9912  0.1351  3.5430
  819MOL0     H10517   6.701   7.267   4.379  0.3080 -1.3699  0.4024
  819MOL0     H10518   6.644   7.396   4.486  0.6885  0.6602  1.6153
  819MOL0     H10519   6.866   7.448   4.551  0.3913 -1.1311  0.1956
  819MOL0     H10520   6.927   7.308   4.453 -0.4348  0.4984 -3.3497
  819MOL0     H10521   6.783   7.571   4.345 -2.1213 -0.3118  1.6202
  819MOL0     H10522   6.809   7.436   4.249  3.3706  0.7271 -2.4597
  819MOL0     H10523   7.068   7.466   4.303  1.6389  0.3388 -0.9688
  819MOL0     H10524   7.010   7.615   4.365 -1.2286 -2.6224  0.3683
  819MOL0     H10525   7.232   7.600   4.224 -2.8959  1.3968  0.3410
  819MOL0     H10526   7.422   7.624   4.056 -0.0721 -0.2850 -0.6934
  819MOL0     H10527   7.558   7.982   3.728  0.1655 -0.2060 -1.5752
  819MOL0     H10528   7.788   8.081   3.702  0.9517 -0.3545  1.6246
  819MOL0     H10529   8.003   7.843   3.514 -0.5025  1.2739 -1.4983
  819MOL0     H10530   7.932   7.999   3.507  0.8942  1.0542 -1.7378
  819MOL0     H10531   8.158   8.049   3.435  0.4839 -0.1154  0.4591
  819MOL0     H10532   8.150   8.090   3.610  2.2497  0.0542  1.2170
  819MOL0     H10533   8.255   7.889   3.681  2.8888 -2.6434 -0.8143
  819MOL0     H10534   8.268   7.822   3.517  0.9664  0.7831 -0.6973
  819MOL0     H10535   8.388   8.046   3.467 -1.0514  0.7583  0.5017
  819MOL0     H10536   8.477   7.910   3.538  0.1486 -0.3129 -2.2201
  819MOL0     H10537   8.438   8.000   3.762 -3.4859 -1.5880  0.9342
  819MOL0     H10538   8.356   8.139   3.697  2.2122  0.1368  1.2115
  819MOL0     H10539   8.635   8.051   3.608  1.4426  0.4648 -0.2520
  819MOL0     H10540   8.563   8.213   3.584  0.6920  0.0691  0.6909
  819MOL0     H10541   8.643   8.103   3.858  0.0415 -0.6244  0.1015
  819MOL0     H10542   8.563   8.258   3.840  1.3030  1.0293  0.9399
  819MOL0     H10543   8.746   8.367   3.732 -1.8546 -0.9933  1.3739
  819MOL0     H10544   8.789   8.293   3.875  3.2021  2.2614  0.0598
  819MOL0     H10545   7.936   7.674   3.730  0.5979  0.6384 -1.6968
  819MOL0     H10546   7.706   7.595   3.799 -2.7369  0.4469 -1.7238
  819MOL0     H10547   7.122   7.779   3.784 -1.5168  0.1938  1.3586
  819MOL0     H10548   6.950   7.722   3.930  0.6498  0.5638  0.8639
  819MOL0     H10549   6.016   6.725   5.615 -0.5872 -0.1362  1.4168
  819MOL0     H10550   5.943   6.747   5.832 -0.3056  0.7068 -0.2442
  819MOL0     H10551   6.103   6.825   6.268 -1.5950 -1.4306 -1.2930
  819MOL0     H10552   6.071   6.845   6.511  0.1062  0.9310  1.7606
  819MOL0     H10553   5.662   6.929   6.648  0.2099  1.6651 -0.3216
  819MOL0     H10554   5.739   7.088   6.678 -0.3131  0.1997  0.2776
  819MOL0     H10555   5.794   6.853   6.858  1.1894  0.5566  3.7274
  819MOL0     H10556   5.641   6.959   6.871  1.0690  0.7107  1.8812
  819MOL0     H10557   5.908   7.089   6.858  1.2716 -0.5997  2.6262
  819MOL0     H10558   5.875   6.996   6.990  0.3216  0.0252 -0.4987
  819MOL0     H10559   5.798   7.257   6.970  1.2981 -0.6082  0.8357
  819MOL0     H10560   5.666   7.215   6.874 -0.0623  1.5626  1.1687
  819MOL0     H10561   5.503   7.161   7.248 -0.4732  2.9465 -1.0836
  819MOL0     H10562   5.681   7.032   6.445 -0.3293  0.4741  1.0150
  819MOL0     H10563   5.703   7.075   6.101  4.5696 -2.0636 -0.4568
  819MOL0     H10564   5.604   6.938   6.167  0.4441  0.3116 -0.2133
  819MOL0     H10565   5.612   7.087   6.255  2.4399  0.9515  2.2760
  820MOL0     O10566   1.069   1.985   8.853 -0.3102  0.3067 -0.5637
  820MOL0     C10567   1.164   2.022   8.916  0.0058 -0.2233  1.4550
  820MOL0     O10568   1.293   1.999   8.872 -0.8034  0.6669 -0.4514
  820MOL0     C10569   1.346   1.872   8.832  0.3473  0.8408 -1.4958
  820MOL0     C10570   1.289   1.748   8.864  0.9347 -1.3731  0.3787
  820MOL0     C10571   1.361   1.632   8.845  0.4527 -1.0305  0.1635
  820MOL0     C10572   1.479   1.639   8.781  0.3616 -0.1647  0.7366
  820MOL0     O10573   1.545   1.520   8.751  0.5140  0.5845  0.0408
  820MOL0     C10574   1.629   1.503   8.642 -0.0449  0.1111  0.0172
  820MOL0     C10575   1.776   1.489   8.684  0.1066 -0.4197  0.1723
  820MOL0     C10576   1.805   1.425   8.816  0.0746 -0.6115 -0.2125
  820MOL0     C10577   1.960   1.419   8.831  1.1199 -0.2400 -0.1894
  820MOL0     C10578   2.012   1.334   8.951  0.6143  0.3238  0.8346
  820MOL0     C10579   2.158   1.313   8.974  0.3334 -0.3437  0.8438
  820MOL0     C10580   2.175   1.222   9.086 -0.4270  0.0402 -0.3098
  820MOL0     C10581   2.316   1.228   9.136 -0.2304  0.9952  0.2474
  820MOL0     N10582   2.353   1.344   9.226 -0.4515 -0.0739 -0.0420
  820MOL0     C10583   2.279   1.366   9.339 -1.3114 -1.0284  0.1202
  820MOL0     C10584   2.348   1.470   9.399  0.8208  0.0640  0.0056
  820MOL0     C10585   2.314   1.492   9.542 -0.6080 -0.4089  0.0457
  820MOL0     C10586   2.396   1.610   9.589  0.7708 -0.9524  0.2797
  820MOL0     C10587   2.317   1.743   9.566  0.0671 -0.0089  0.0209
  820MOL0     C10588   2.209   1.789   9.652 -0.5369 -0.1801 -0.3765
  820MOL0     O10589   2.099   1.709   9.613  0.0863 -0.6663 -0.3686
  820MOL0     C10590   1.973   1.746   9.660  0.2721 -0.9687  0.1973
  820MOL0     C10591   1.865   1.648   9.671 -0.4383  0.9945  1.0619
  820MOL0     C10592   1.751   1.674   9.747 -0.4091 -0.3476 -0.2311
  820MOL0     C10593   1.729   1.803   9.802  0.8465 -0.2164 -0.4814
  820MOL0     C10594   1.612   1.848   9.883  0.9949 -0.1689  0.2712
  820MOL0     O10595   1.588   1.978   9.901 -0.6578  0.1103 -0.4109
  820MOL0     C10596   1.480   2.022   9.970 -0.5664 -0.9254  1.0276
  820MOL0     C10597   1.427   1.964  10.093 -0.0648  0.0804 -0.4640
  820MOL0     C10598   1.314   2.013  10.148  0.6809  0.7864 -0.7567
  820MOL0     C10599   1.254   2.126  10.092 -0.0607  0.3957  0.3388
  820MOL0     O10600   1.148   2.175  10.161  0.7571  0.1240  0.1916
  820MOL0     C10601   1.052   2.268  10.096  0.3367 -0.5553  0.8105
  820MOL0     C10602   0.940   2.303  10.199  0.4035 -0.9006  0.6160
  820MOL0     C10603   0.831   2.391  10.148  0.3949 -0.1847 -0.0855
  820MOL0     C10604   0.859   2.543  10.172 -0.0295  0.1688  0.3843
  820MOL0     C10605   0.757   2.638  10.084  0.0508 -0.3628 -0.9141
  820MOL0     C10606   0.763   2.786  10.138  0.2187  0.9160  0.3409
  820MOL0     C10607   0.687   2.885  10.045  1.1513  1.0916  0.0551
  820MOL0     C10608   0.546   2.832  10.008 -0.6089 -0.3176 -0.5836
  820MOL0    Cl10609   0.440   2.946   9.937 -0.3460  0.1068  0.2899
  820MOL0     C10610   1.295   2.174   9.966 -0.0769 -0.4986 -0.5824
  820MOL0     C10611   1.416   2.137   9.915  0.2356 -0.0079  0.7949
  820MOL0     O10612   1.535   1.757   9.910  0.9182 -0.0552  0.1410
  820MOL0     C10613   1.829   1.905   9.781 -0.2289 -0.2769  0.7168
  820MOL0     C10614   1.947   1.874   9.714  0.9297 -0.7326  1.4065
  820MOL0     N10615   2.446   1.522   9.310 -0.3572  0.3103  0.6872
  820MOL0     N10616   2.446   1.447   9.208 -0.4784  0.7973 -0.1909
  820MOL0     C10617   1.539   1.758   8.739  0.0331 -0.6381  0.3310
  820MOL0     C10618   1.482   1.874   8.785  1.0404 -0.5148  0.4300
  820MOL0     C10619   1.150   2.111   9.025  0.5693 -0.4212 -1.2099
  820MOL0     C10620   1.031   2.105   9.105 -0.4322  0.8907  0.2179
  820MOL0     C10621   0.999   2.195   9.201  0.4611  0.4193  0.5900
  820MOL0     C10622   1.092   2.295   9.244 -0.2856 -1.1130  0.3144
  820MOL0     O10623   1.077   2.389   9.345 -0.3258  0.6189 -0.5806
  820MOL0     C10624   1.088   2.332   9.481  0.0233  0.7795 -0.4968
  820MOL0     C10625   1.176   2.427   9.566  0.5761  0.8047 -0.6677
  820MOL0     C10626   1.121   2.566   9.585 -0.4087 -0.2709 -0.1723
  820MOL0     C10627   1.240   2.671   9.621  0.2081 -0.0735  0.1347
  820MOL0     C10628   1.166   2.805   9.622  0.1692  0.2049  0.8828
  820MOL0     C10629   1.099   2.902   9.633  0.4913 -0.6471  0.3533
  820MOL0     C10630   1.215   2.297   9.173  0.5644  1.0317 -0.5179
  820MOL0     C10631   1.241   2.209   9.065  0.9796  0.3454 -0.0123
  820MOL0     C10632   1.368   2.224   8.994 -0.4982  0.4042 -0.6902
  820MOL0     H10633   1.187   1.739   8.901  0.2754 -0.6411 -1.1719
  820MOL0     H10634   1.322   1.537   8.882 -4.8557  0.8376  0.2016
  820MOL0     H10635   1.598   1.407   8.601 -0.9819 -1.1523  3.3283
  820MOL0     H10636   1.615   1.581   8.567 -4.1127 -1.5127 -1.1440
  820MOL0     H10637   1.817   1.590   8.686 -1.8464  0.4008  1.9080
  820MOL0     H10638   1.825   1.431   8.605 -0.8539  0.2182 -0.9315
  820MOL0     H10639   1.769   1.322   8.805  0.5421 -0.8764  0.6036
  820MOL0     H10640   1.754   1.485   8.892  0.8708 -0.3294  0.1040
  820MOL0     H10641   2.012   1.373   8.746  1.7749 -0.9159  0.5514
  820MOL0     H10642   2.003   1.519   8.839 -0.0790  0.1418  2.8807
  820MOL0     H10643   1.955   1.370   9.037 -1.5630  2.6971 -1.4234
  820MOL0     H10644   1.964   1.237   8.934 -0.0063  1.1023 -2.6496
  820MOL0     H10645   2.209   1.281   8.883  1.4359  1.9267  0.6095
  820MOL0     H10646   2.191   1.416   8.988  0.3130 -0.4666  1.9123
  820MOL0     H10647   2.148   1.120   9.059  2.1016 -0.9133  0.4548
  820MOL0     H10648   2.100   1.237   9.164  0.4458 -2.2487  1.0831
  820MOL0     H10649   2.333   1.137   9.195 -1.9423  0.6305  0.2187
  820MOL0     H10650   2.378   1.216   9.047 -2.5258 -2.7570 -1.1008
  820MOL0     H10651   2.195   1.308   9.377  0.2504 -2.9932  0.7313
  820MOL0     H10652   2.206   1.508   9.552 -0.9725 -1.4894 -1.7302
  820MOL0     H10653   2.346   1.409   9.605 -1.4540 -0.7430  0.0405
  820MOL0     H10654   2.410   1.596   9.697 -3.8403  3.6061  1.8812
  820MOL0     H10655   2.493   1.616   9.539  2.1938 -4.2851  2.2984
  820MOL0     H10656   2.290   1.756   9.461  0.0793  2.3188  0.2578
  820MOL0     H10657   2.390   1.823   9.582  0.9890 -0.4964 -1.5344
  820MOL0     H10658   2.186   1.892   9.624 -0.6568  0.0758  0.6408
  820MOL0     H10659   2.232   1.779   9.758 -1.2381 -4.1954 -0.4426
  820MOL0     H10660   1.897   1.548   9.644  4.2795  2.0291  1.9793
  820MOL0     H10661   1.680   1.593   9.760 -0.5060 -0.3578 -0.8144
  820MOL0     H10662   1.477   1.877  10.136  0.4763  0.0054 -1.2060
  820MOL0     H10663   1.279   1.981  10.245 -0.3429 -0.3645 -1.4755
  820MOL0     H10664   1.088   2.369  10.072 -3.3109  0.4596 -1.2283
  820MOL0     H10665   1.011   2.228  10.003  0.0731 -1.7711  1.4302
  820MOL0     H10666   0.906   2.202  10.224  2.2580 -1.2733  1.9022
  820MOL0     H10667   0.990   2.341  10.289  1.1348  3.2419 -1.3135
  820MOL0     H10668   0.816   2.362  10.044 -1.5056 -1.2234  0.4303
  820MOL0     H10669   0.742   2.364  10.206 -0.4910 -0.5365 -1.5638
  820MOL0     H10670   0.964   2.552  10.141  0.0214  0.7189  0.6995
  820MOL0     H10671   0.859   2.585  10.273  0.8064  3.3232 -0.7969
  820MOL0     H10672   0.655   2.604  10.107  0.0820  1.5033  2.7781
  820MOL0     H10673   0.770   2.625   9.977 -0.9166  1.2119 -1.2645
  820MOL0     H10674   0.727   2.798  10.241  1.8739  1.1856  0.9250
  820MOL0     H10675   0.864   2.825  10.121  1.3185 -2.2568 -1.2584
  820MOL0     H10676   0.754   2.881   9.959  5.0249 -0.8122  2.8757
  820MOL0     H10677   0.688   2.982  10.097 -3.0930 -0.0591  2.8327
  820MOL0     H10678   0.576   2.754   9.938  2.6116 -0.8034  1.1181
  820MOL0     H10679   0.502   2.774  10.090  2.6919 -3.1364 -0.5796
  820MOL0     H10680   1.250   2.251   9.904  2.0639  0.2112 -1.3591
  820MOL0     H10681   1.457   2.188   9.828  1.4131  1.4128  2.1129
  820MOL0     H10682   1.826   1.998   9.836  0.4835 -0.5837  1.2880
  820MOL0     H10683   2.016   1.958   9.709 -1.5295  1.3895  0.3784
  820MOL0     H10684   1.621   1.772   8.670 -0.8130  1.3722 -0.3496
  820MOL0     H10685   1.527   1.967   8.752  1.1245 -0.4254  0.7860
  820MOL0     H10686   0.957   2.030   9.076 -0.4558  1.2116 -0.5820
  820MOL0     H10687   0.904   2.186   9.253  1.7622 -2.0385  2.7914
  820MOL0     H10688   1.122   2.228   9.488 -3.8991 -0.6975 -1.1442
  820MOL0     H10689   0.989   2.333   9.528  0.0606  3.6283 -0.3206
  820MOL0     H10690   1.272   2.432   9.513  0.1795  0.2599 -1.4528
  820MOL0     H10691   1.191   2.372   9.659 -1.0208  1.8820  0.2664
  820MOL0     H10692   1.045   2.557   9.663  1.8806  0.8799  2.3700
  820MOL0     H10693   1.072   2.590   9.489 -1.5697 -3.7469 -0.5785
  820MOL0     H10694   1.289   2.650   9.717  1.4369 -2.0844 -0.8779
  820MOL0     H10695   1.318   2.670   9.545  2.4328  0.0454  2.3056
  820MOL0     H10696   1.033   2.984   9.650  1.4362 -0.3440  3.0907
  820MOL0     H10697   1.285   2.373   9.206  0.0251  1.1603  0.3428
  820MOL0     H10698   1.441   2.145   9.014  0.3361  0.7571 -2.1753
  820MOL0     H10699   1.351   2.240   8.887  0.3987  0.4223 -0.8428
  820MOL0     H10700   1.419   2.314   9.031 -0.2956  0.2736 -0.6489
  821MOL0     O10701   1.474   9.892   6.588 -0.0563  1.5133  0.0147
  821MOL0     C10702   1.528   9.779   6.583  0.0667  0.1529  1.9523
  821MOL0     O10703   1.509   9.678   6.677 -0.8835  0.1571  0.0773
  821MOL0     C10704   1.450   9.707   6.799  0.8496 -0.0997 -0.3185
  821MOL0     C10705   1.484   9.821   6.869  0.6074 -0.9933  0.3134
  821MOL0     C10706   1.415   9.853   6.984 -0.1465 -0.5635 -0.1827
  821MOL0     C10707   1.343   9.759   7.049  0.8270  0.5734 -0.3207
  821MOL0     O10708   1.314   9.764   7.181 -0.4273 -0.2434  0.6168
  821MOL0     C10709   1.280   9.888   7.251 -0.0725  0.3350  0.5009
  821MOL0     C10710   1.236   9.849   7.391 -0.5138 -0.5929  0.2508
  821MOL0     C10711   1.346   9.839   7.490  0.3879 -0.1333  0.1436
  821MOL0     C10712   1.283   9.790   7.621 -0.2006 -0.4568  0.5960
  821MOL0     C10713   1.383   9.755   7.724  0.8260 -0.1802  0.3140
  821MOL0     C10714   1.328   9.663   7.841  0.3181 -1.1439  0.0657
  821MOL0     C10715   1.440   9.581   7.895  1.1134  0.8741 -0.8235
  821MOL0     C10716   1.451   9.596   8.048  1.1372  0.1288  0.4312
  821MOL0     N10717   1.337   9.532   8.117  0.2420 -0.1980  0.3879
  821MOL0     C10718   1.267   9.426   8.069 -0.2998  1.1994 -0.9177
  821MOL0     C10719   1.149   9.417   8.135 -0.1207 -1.1689  0.0801
  821MOL0     C10720   1.040   9.308   8.133 -0.0456  0.9062 -0.3753
  821MOL0     C10721   1.035   9.207   8.249  1.1721 -0.3965  0.2804
  821MOL0     C10722   0.989   9.267   8.380 -0.2241 -0.1380 -2.2483
  821MOL0     C10723   1.049   9.188   8.505  0.1242  0.1435 -0.2984
  821MOL0     O10724   1.044   9.046   8.479 -0.0387 -0.0852  1.3487
  821MOL0     C10725   0.922   8.991   8.488  0.2865  0.1601 -0.1092
  821MOL0     C10726   0.812   9.029   8.569 -0.3692  0.4296 -1.0510
  821MOL0     C10727   0.694   8.959   8.583  0.1644  0.5107  1.2387
  821MOL0     C10728   0.672   8.841   8.503  0.3253  0.2766 -0.4876
  821MOL0     C10729   0.552   8.763   8.521 -0.1202  0.6056  0.1559
  821MOL0     O10730   0.457   8.811   8.607  0.1700 -0.2202 -0.2614
  821MOL0     C10731   0.336   8.747   8.634  0.3923  0.6522  1.1111
  821MOL0     C10732   0.301   8.612   8.639  0.1590  0.9389 -1.1707
  821MOL0     C10733   0.165   8.570   8.647 -0.7030 -0.5707 -0.7458
  821MOL0     C10734   0.069   8.670   8.670  0.4981 -0.7461  1.0671
  821MOL0     O10735  -0.066   8.655   8.708 -0.1795  0.1074  0.1442
  821MOL0     C10736  -0.105   8.529   8.737  0.9295 -0.0225  0.0193
  821MOL0     C10737  -0.204   8.548   8.850 -0.3040 -1.0105  0.0036
  821MOL0     C10738  -0.294   8.426   8.859  0.5792  0.6323 -0.7919
  821MOL0     C10739  -0.371   8.436   8.996  0.2489 -0.5177 -0.4196
  821MOL0     C10740  -0.449   8.307   9.011  0.6120  0.3293 -0.3422
  821MOL0     C10741  -0.354   8.220   9.080 -0.5817  0.9844 -0.3585
  821MOL0     C10742  -0.375   8.062   9.059  0.4911  0.1651  1.0641
  821MOL0     C10743  -0.332   8.007   8.931 -0.5675 -0.2653  0.7449
  821MOL0    Cl10744  -0.351   7.826   8.917 -0.4964 -0.1757  0.0037
  821MOL0     C10745   0.103   8.800   8.657 -0.2506  0.3340 -0.8980
  821MOL0     C10746   0.235   8.841   8.638 -0.2612 -0.2063 -0.6083
  821MOL0     O10747   0.552   8.648   8.465 -0.6096  0.0094 -0.1068
  821MOL0     C10748   0.781   8.799   8.426  0.6259  0.0505  0.0189
  821MOL0     C10749   0.906   8.872   8.422  0.2365 -0.8008 -0.2615
  821MOL0     N10750   1.158   9.512   8.234  0.6384  0.3814 -0.2339
  821MOL0     N10751   1.263   9.591   8.212 -0.1718 -0.3255 -0.4788
  821MOL0     C10752   1.324   9.634   6.985 -0.3505  0.6280  0.8182
  821MOL0     C10753   1.375   9.612   6.855 -0.1582 -0.4133 -0.5805
  821MOL0     C10754   1.624   9.777   6.458 -0.2791 -0.3417 -0.1060
  821MOL0     C10755   1.615   9.875   6.353  0.0935 -0.2637  0.2852
  821MOL0     C10756   1.685   9.860   6.236  0.7929  0.2249  0.3344
  821MOL0     C10757   1.783   9.756   6.227 -0.0077 -0.4409 -1.4827
  821MOL0     O10758   1.865   9.735   6.123 -0.1224  0.3490 -0.5321
  821MOL0     C10759   1.847   9.793   5.991 -0.6770 -0.4091 -0.6448
  821MOL0     C10760   1.748   9.704   5.907 -0.4015  0.4706 -0.7561
  821MOL0     C10761   1.757   9.733   5.757 -0.0844  0.0420 -0.0275
  821MOL0     C10762   1.659   9.667   5.671 -1.3173  0.4592 -0.0315
  821MOL0     C10763   1.536   9.735   5.698  0.3810  0.9547  1.3273
  821MOL0     C10764   1.433   9.801   5.718 -0.2982  0.1073  0.0132
  821MOL0     C10765   1.805   9.672   6.342  0.0822 -0.0073 -0.1774
  821MOL0     C10766   1.725   9.676   6.455  0.5134  0.4550 -0.1680
  821MOL0     C10767   1.747   9.562   6.559 -0.6309 -0.1306 -0.4198
  821MOL0     H10768   1.545   9.894   6.816  0.9990  0.4686  2.6187
  821MOL0     H10769   1.447   9.949   7.023  2.6007  0.3564 -4.2150
  821MOL0     H10770   1.362   9.959   7.254  0.8681 -0.7314  3.6857
  821MOL0     H10771   1.193   9.939   7.208  0.2865 -0.3593 -1.1184
  821MOL0     H10772   1.175   9.759   7.383 -3.2769  1.2555 -0.5745
  821MOL0     H10773   1.172   9.928   7.433  0.5531 -0.1969  1.2166
  821MOL0     H10774   1.400   9.934   7.491 -0.3965  0.3889 -1.7040
  821MOL0     H10775   1.428   9.770   7.467  0.2343 -0.7458  1.3745
  821MOL0     H10776   1.222   9.869   7.666  2.8249  1.1708  2.1129
  821MOL0     H10777   1.208   9.710   7.613 -1.2004  0.2233  2.4857
  821MOL0     H10778   1.476   9.715   7.682 -0.8887 -4.3808 -0.0365
  821MOL0     H10779   1.416   9.852   7.761 -1.5469  0.7942  0.0563
  821MOL0     H10780   1.275   9.718   7.920  0.8177  1.1873 -1.1135
  821MOL0     H10781   1.253   9.591   7.808 -1.8051  0.5796  0.8897
  821MOL0     H10782   1.535   9.625   7.863  1.5680  2.1711  2.0414
  821MOL0     H10783   1.435   9.478   7.859 -4.4395 -0.2390  1.9437
  821MOL0     H10784   1.552   9.568   8.079  0.1305 -2.2975  1.8057
  821MOL0     H10785   1.434   9.702   8.070 -1.1103  0.0492 -0.5985
  821MOL0     H10786   1.311   9.351   8.004 -1.2277  2.5261 -3.1953
  821MOL0     H10787   0.953   9.371   8.109 -0.6334  0.0803 -0.4391
  821MOL0     H10788   1.062   9.246   8.045  1.2902 -2.6558  2.2444
  821MOL0     H10789   0.969   9.125   8.220  0.2584  0.0007  1.1805
  821MOL0     H10790   1.133   9.159   8.256  1.9311  0.9869 -0.4189
  821MOL0     H10791   0.882   9.250   8.387  0.4641 -5.0623  0.9173
  821MOL0     H10792   1.011   9.374   8.383 -2.2824  0.4226 -4.2236
  821MOL0     H10793   1.007   9.217   8.602  0.9369 -0.3792  0.2308
  821MOL0     H10794   1.151   9.227   8.515  0.3471  1.1303 -4.6158
  821MOL0     H10795   0.825   9.106   8.643 -0.9092 -0.9350  0.5195
  821MOL0     H10796   0.626   8.997   8.659 -0.0388  0.1511  1.2405
  821MOL0     H10797   0.369   8.531   8.615 -2.0676 -0.9834 -1.4170
  821MOL0     H10798   0.133   8.467   8.636  3.4258 -2.0342 -1.0768
  821MOL0     H10799  -0.158   8.486   8.651  0.2419  3.8007 -1.6593
  821MOL0     H10800  -0.029   8.463   8.780  0.3474  0.6270  2.1573
  821MOL0     H10801  -0.149   8.563   8.944  1.2971  1.0260 -1.1800
  821MOL0     H10802  -0.264   8.636   8.824  2.8513  0.9157 -1.4233
  821MOL0     H10803  -0.370   8.428   8.781 -2.3465 -1.3967  1.7387
  821MOL0     H10804  -0.230   8.338   8.848  1.8379  1.7555 -2.9567
  821MOL0     H10805  -0.438   8.523   8.995  0.1383 -0.5759  0.7164
  821MOL0     H10806  -0.292   8.466   9.065  0.4710 -0.6925 -0.5944
  821MOL0     H10807  -0.473   8.255   8.918  2.6688 -1.0095 -0.1932
  821MOL0     H10808  -0.540   8.334   9.066  0.0394  0.4989 -1.3499
  821MOL0     H10809  -0.249   8.229   9.049 -0.1883 -4.4518 -1.5178
  821MOL0     H10810  -0.351   8.240   9.188  2.7497  0.6050 -0.2524
  821MOL0     H10811  -0.483   8.041   9.064 -0.4496  3.3085 -1.9032
  821MOL0     H10812  -0.324   8.010   9.140 -1.0109  2.0948  3.3871
  821MOL0     H10813  -0.383   8.069   8.856  3.3886  1.1143 -1.1018
  821MOL0     H10814  -0.226   8.024   8.914 -0.1305 -2.5281  0.9625
  821MOL0     H10815   0.030   8.879   8.670 -0.8331 -0.1568 -1.1510
  821MOL0     H10816   0.254   8.946   8.619  2.3805 -0.8830 -2.3495
  821MOL0     H10817   0.763   8.704   8.375 -2.6081  0.5417  0.0123
  821MOL0     H10818   0.984   8.831   8.359 -0.1509  0.9426 -1.9752
  821MOL0     H10819   1.270   9.549   7.025 -0.9893  1.3081  1.4242
  821MOL0     H10820   1.348   9.524   6.797 -0.7250 -0.2851 -0.5230
  821MOL0     H10821   1.546   9.958   6.346 -0.9882 -1.2451 -1.2892
  821MOL0     H10822   1.672   9.919   6.146  1.3337 -0.9749 -0.5626
  821MOL0     H10823   1.948   9.810   5.952 -0.7526  0.9113 -0.3121
  821MOL0     H10824   1.792   9.886   6.005 -1.8663 -1.2521  0.5025
  821MOL0     H10825   1.648   9.716   5.949  0.3905  1.1920  0.9929
  821MOL0     H10826   1.784   9.603   5.928 -0.4528  0.7696  0.8674
  821MOL0     H10827   1.851   9.685   5.731 -0.8769 -0.7101 -1.6249
  821MOL0     H10828   1.776   9.838   5.731 -0.3684  0.2534  0.5903
  821MOL0     H10829   1.687   9.663   5.565  1.9988  1.0359  0.7172
  821MOL0     H10830   1.657   9.565   5.710  1.5967 -0.1165 -1.1185
  821MOL0     H10831   1.341   9.854   5.738 -0.1528  0.0179  0.9370
  821MOL0     H10832   1.887   9.602   6.333 -0.6191 -1.0942  1.4339
  821MOL0     H10833   1.844   9.517   6.538 -0.0326  0.9721 -0.1013
  821MOL0     H10834   1.749   9.600   6.661 -1.0121  2.8169 -1.4004
  821MOL0     H10835   1.676   9.479   6.556 -1.4623  0.5763 -0.9632
  822MOL0     O10836   4.618   6.715   1.900 -0.0279 -0.0836 -0.5536
  822MOL0     C10837   4.613   6.745   2.020 -0.2057  0.3851 -0.7755
  822MOL0     O10838   4.516   6.828   2.077  0.3329 -0.2833  0.0195
  822MOL0     C10839   4.410   6.871   2.006  0.1980 -0.3861 -0.2456
  822MOL0     C10840   4.411   7.010   1.995 -0.3019 -0.0886  0.2557
  822MOL0     C10841   4.324   7.087   1.936  0.1973  0.9828 -0.2310
  822MOL0     C10842   4.212   7.020   1.887 -0.0163  0.2095  0.2013
  822MOL0     O10843   4.112   7.096   1.832 -0.6755  0.7902  0.7558
  822MOL0     C10844   4.113   7.241   1.815 -0.2095  0.7915 -0.2926
  822MOL0     C10845   4.015   7.284   1.710  0.3798 -1.0310  0.6354
  822MOL0     C10846   4.009   7.435   1.707  0.6508 -1.2465 -0.3959
  822MOL0     C10847   3.908   7.485   1.606  0.7119  1.1544  0.6326
  822MOL0     C10848   3.908   7.632   1.584  0.7561 -0.2842  0.6828
  822MOL0     C10849   3.796   7.698   1.501  0.1545  0.1391  1.7468
  822MOL0     C10850   3.793   7.858   1.524  0.1666  0.9036 -0.9754
  822MOL0     C10851   3.693   7.932   1.427  0.6516 -0.4916 -0.5499
  822MOL0     N10852   3.554   7.926   1.475 -0.6844 -0.6029  0.3005
  822MOL0     C10853   3.463   7.827   1.454  0.8536 -0.2953 -0.5191
  822MOL0     C10854   3.339   7.885   1.477  0.7709 -0.5347  0.1502
  822MOL0     C10855   3.197   7.826   1.457 -0.1446  0.8632 -0.6307
  822MOL0     C10856   3.158   7.846   1.310  0.5473 -0.0894 -0.4910
  822MOL0     C10857   3.142   7.996   1.268 -1.1667 -0.5206  1.1485
  822MOL0     C10858   3.068   8.014   1.131  0.1088 -0.3122 -0.1291
  822MOL0     O10859   3.018   7.898   1.070 -0.3454  0.0784  0.4106
  822MOL0     C10860   3.085   7.832   0.976 -1.0694  0.1477  1.3712
  822MOL0     C10861   3.219   7.866   0.945 -0.4049 -0.6527  0.8034
  822MOL0     C10862   3.279   7.801   0.839  0.2653 -0.0482  0.3032
  822MOL0     C10863   3.224   7.688   0.784 -0.3356 -0.3409  0.5426
  822MOL0     C10864   3.303   7.612   0.679 -0.6194  1.0712  0.0516
  822MOL0     O10865   3.426   7.640   0.668 -0.1792 -0.0393  0.5767
  822MOL0     C10866   3.501   7.547   0.598  0.0897  0.9258  0.3250
  822MOL0     C10867   3.533   7.428   0.662  0.1891 -0.4458 -0.7261
  822MOL0     C10868   3.625   7.338   0.611 -0.0768  0.0575  0.5933
  822MOL0     C10869   3.694   7.358   0.500 -0.4663 -0.8020 -0.3930
  822MOL0     O10870   3.798   7.281   0.455  0.3071  0.4141 -0.1825
  822MOL0     C10871   3.864   7.195   0.542  0.2728 -0.2960 -1.8509
  822MOL0     C10872   3.956   7.118   0.456 -0.7619 -0.3053  0.3196
  822MOL0     C10873   3.959   6.969   0.472  0.3937 -0.1677 -0.2178
  822MOL0     C10874   4.057   6.908   0.385 -0.3318  0.2842 -0.4636
  822MOL0     C10875   4.072   6.756   0.421 -0.9650  0.2051  1.0969
  822MOL0     C10876   4.022   6.665   0.315  0.3905  0.3112  1.0037
  822MOL0     C10877   4.089   6.524   0.336 -0.2776 -0.5478 -0.0411
  822MOL0     C10878   4.088   6.448   0.208 -0.8622  0.6986  0.2263
  822MOL0    Cl10879   4.183   6.281   0.218 -0.0139 -0.1701 -0.4690
  822MOL0     C10880   3.671   7.481   0.434  0.6168 -0.5792  0.9549
  822MOL0     C10881   3.574   7.579   0.480 -0.0118  0.1521 -1.1462
  822MOL0     O10882   3.241   7.535   0.613 -0.0994 -0.0707 -0.2465
  822MOL0     C10883   3.089   7.661   0.811 -1.2984 -0.7067  1.5299
  822MOL0     C10884   3.022   7.722   0.914  0.5049  0.7375 -0.4141
  822MOL0     N10885   3.367   8.012   1.519 -0.5425  0.3146 -0.4281
  822MOL0     N10886   3.491   8.035   1.522  0.2919 -0.0503 -0.4642
  822MOL0     C10887   4.205   6.882   1.879 -0.0920 -0.6164 -0.5471
  822MOL0     C10888   4.301   6.805   1.948 -0.2215 -0.0456  0.2983
  822MOL0     C10889   4.724   6.699   2.106  0.7300  0.0731  0.1056
  822MOL0     C10890   4.775   6.787   2.202 -0.4223  0.8762 -0.4742
  822MOL0     C10891   4.867   6.739   2.290 -1.1888 -0.0454 -0.6313
  822MOL0     C10892   4.911   6.613   2.296  0.9568  0.2786  0.2946
  822MOL0     O10893   5.013   6.566   2.374 -0.3090  0.2129 -0.0289
  822MOL0     C10894   5.121   6.659   2.411  0.2897 -0.0671 -0.1446
  822MOL0     C10895   5.201   6.693   2.285  0.5009  0.0135  0.4639
  822MOL0     C10896   5.318   6.786   2.314 -0.7422  1.1274  0.0661
  822MOL0     C10897   5.417   6.799   2.195  0.3813  0.0497  0.0872
  822MOL0     C10898   5.359   6.883   2.088 -0.8999 -0.2819 -0.3928
  822MOL0     C10899   5.326   6.961   2.000  0.5064 -1.0604 -0.1758
  822MOL0     C10900   4.866   6.528   2.203 -0.1639  0.6529 -0.0121
  822MOL0     C10901   4.773   6.565   2.108  1.0427  0.2317  0.4356
  822MOL0     C10902   4.741   6.465   2.003 -0.0793  0.0405  0.5657
  822MOL0     H10903   4.491   7.068   2.040 -0.9440  1.9471 -1.0817
  822MOL0     H10904   4.325   7.195   1.926  0.8336  0.9419 -0.6214
  822MOL0     H10905   4.084   7.269   1.917  1.1854 -2.0834  1.0011
  822MOL0     H10906   4.210   7.270   1.774 -0.7587  1.1977 -1.3533
  822MOL0     H10907   3.914   7.250   1.734  0.5694 -0.4607  2.3446
  822MOL0     H10908   4.064   7.239   1.623  1.0824  2.2198 -0.7902
  822MOL0     H10909   4.100   7.491   1.688 -0.7496  2.0990  1.7742
  822MOL0     H10910   3.982   7.476   1.805  1.8406  1.7209 -1.2288
  822MOL0     H10911   3.930   7.429   1.515 -3.0554  0.7047 -0.1901
  822MOL0     H10912   3.804   7.469   1.637  0.7790  0.1149  0.3451
  822MOL0     H10913   3.904   7.684   1.680 -1.3143 -0.3945  0.6892
  822MOL0     H10914   4.002   7.657   1.533  0.5839  0.5150  0.7344
  822MOL0     H10915   3.796   7.673   1.395  0.5521  1.4295  1.4265
  822MOL0     H10916   3.710   7.649   1.548 -2.2267 -0.0990 -2.3541
  822MOL0     H10917   3.898   7.890   1.516  0.1953  1.5705  1.3645
  822MOL0     H10918   3.761   7.869   1.628  0.6547 -0.9367 -0.5899
  822MOL0     H10919   3.720   8.038   1.425 -1.7566  0.1856 -0.2882
  822MOL0     H10920   3.713   7.892   1.327  0.4059 -1.4914 -0.2141
  822MOL0     H10921   3.483   7.726   1.420  2.2882  0.3902 -1.8485
  822MOL0     H10922   3.205   7.723   1.494  2.1984  1.3550  0.3878
  822MOL0     H10923   3.127   7.887   1.516 -0.7038  0.0920 -0.4785
  822MOL0     H10924   3.233   7.793   1.250  0.7937 -1.6254  1.0775
  822MOL0     H10925   3.057   7.807   1.297 -0.3321  1.5625  1.0601
  822MOL0     H10926   3.246   8.018   1.241 -0.6183 -2.9150  1.1196
  822MOL0     H10927   3.098   8.067   1.339  1.1997  2.4664 -0.1247
  822MOL0     H10928   3.114   8.087   1.064 -2.1537 -0.1637 -1.6158
  822MOL0     H10929   2.978   8.072   1.152  0.4426 -0.2334  1.2250
  822MOL0     H10930   3.278   7.937   1.001  0.6861 -1.5070  0.7759
  822MOL0     H10931   3.376   7.847   0.820  0.0859  0.3596  0.3462
  822MOL0     H10932   3.499   7.404   0.762 -1.3208  0.3964 -1.0157
  822MOL0     H10933   3.650   7.256   0.678  1.0775  2.5829  3.5389
  822MOL0     H10934   3.902   7.243   0.633 -2.8856  2.2776 -1.7013
  822MOL0     H10935   3.793   7.116   0.565  3.9251 -3.1038  1.0245
  822MOL0     H10936   3.930   7.136   0.351 -3.9429  3.5503  1.5088
  822MOL0     H10937   4.058   7.154   0.475 -0.5116 -0.6264 -0.4036
  822MOL0     H10938   3.979   6.951   0.578  0.5773  0.1634 -0.1939
  822MOL0     H10939   3.863   6.922   0.447 -0.6388  1.5746  0.3648
  822MOL0     H10940   4.152   6.960   0.376  0.1586 -0.8728 -3.2603
  822MOL0     H10941   4.007   6.921   0.288 -2.1900 -1.5319  0.1612
  822MOL0     H10942   4.031   6.723   0.516 -0.3383 -3.3741  0.2625
  822MOL0     H10943   4.180   6.753   0.439 -1.0344  3.1381  2.6074
  822MOL0     H10944   3.914   6.655   0.332  0.9907 -2.0801  4.5126
  822MOL0     H10945   4.034   6.708   0.215  1.9882  2.6242  2.1007
  822MOL0     H10946   4.024   6.465   0.401 -0.6342  1.0445  1.1108
  822MOL0     H10947   4.189   6.522   0.379  0.2014 -1.4413 -1.1427
  822MOL0     H10948   3.983   6.432   0.186 -1.1201  2.2660  0.2378
  822MOL0     H10949   4.127   6.499   0.119 -2.3609 -1.8157 -2.0381
  822MOL0     H10950   3.735   7.521   0.356 -3.0279  1.6478 -1.1782
  822MOL0     H10951   3.565   7.669   0.420 -1.0722  0.2824 -0.8063
  822MOL0     H10952   3.043   7.571   0.769  0.3600 -1.0095  0.2691
  822MOL0     H10953   2.920   7.699   0.943  0.6523  1.8263  1.0927
  822MOL0     H10954   4.112   6.843   1.839 -0.2082 -2.3532  1.2878
  822MOL0     H10955   4.285   6.698   1.961  2.0917 -0.3891  0.8569
  822MOL0     H10956   4.750   6.892   2.193 -2.7214  0.3641 -0.9226
  822MOL0     H10957   4.902   6.807   2.367 -0.0448 -1.2694 -0.0134
  822MOL0     H10958   5.184   6.601   2.478 -1.7665 -3.2836 -0.7979
  822MOL0     H10959   5.092   6.751   2.463 -2.5475 -1.4157  0.8725
  822MOL0     H10960   5.140   6.735   2.205 -2.1948  1.1353  2.9181
  822MOL0     H10961   5.245   6.602   2.243  0.7871  0.8991 -1.2426
  822MOL0     H10962   5.363   6.736   2.400 -2.2148 -0.7144 -0.1660
  822MOL0     H10963   5.285   6.884   2.351  0.2142  2.7578 -3.0940
  822MOL0     H10964   5.512   6.843   2.226 -0.4997  2.1196 -0.0277
  822MOL0     H10965   5.437   6.701   2.151 -1.9268  0.5451 -2.3266
  822MOL0     H10966   5.303   7.015   1.911  0.6314  0.2774  0.5817
  822MOL0     H10967   4.897   6.424   2.204  0.1487  0.7277  1.8350
  822MOL0     H10968   4.792   6.475   1.907 -1.9800 -4.2417 -1.1279
  822MOL0     H10969   4.783   6.370   2.037  1.2531  1.1240  2.1218
  822MOL0     H10970   4.637   6.465   1.970 -0.6459 -2.2149  2.0943
  823MOL0     O10971   3.238   9.105   9.900  0.3872 -0.6849 -0.5561
  823MOL0     C10972   3.181   9.183   9.821  0.2832  0.5048 -0.8793
  823MOL0     O10973   3.077   9.132   9.742 -0.2602  0.1217  0.2947
  823MOL0     C10974   3.019   9.014   9.780 -1.3120 -0.3443 -0.9637
  823MOL0     C10975   2.934   9.008   9.898  0.8951  0.8277 -0.3773
  823MOL0     C10976   2.866   8.885   9.916 -0.3311  0.3485 -0.5465
  823MOL0     C10977   2.869   8.780   9.826 -0.1638  0.9568 -0.0218
  823MOL0     O10978   2.790   8.663   9.848  0.8070 -0.2440  0.2929
  823MOL0     C10979   2.848   8.543   9.883  0.4235  1.3208 -0.4503
  823MOL0     C10980   2.829   8.532  10.036  0.2235  0.5067 -0.0486
  823MOL0     C10981   2.902   8.406  10.090 -0.1742  0.2466  0.4874
  823MOL0     C10982   2.872   8.387  10.237  0.2076 -0.6377  0.3284
  823MOL0     C10983   2.931   8.260  10.297 -0.1753 -0.5841  0.1401
  823MOL0     C10984   2.903   8.236  10.440 -0.1952  0.0281 -0.3406
  823MOL0     C10985   2.988   8.116  10.479 -0.1659  0.0175  0.5869
  823MOL0     C10986   2.978   8.062  10.619  0.3194  0.6149  0.0346
  823MOL0     N10987   3.073   8.116  10.716 -0.2015 -0.1075  0.3124
  823MOL0     C10988   3.068   8.240  10.766  0.5791  0.2348 -0.3296
  823MOL0     C10989   3.187   8.270  10.831 -0.4688  0.1970 -0.6115
  823MOL0     C10990   3.212   8.394  10.902 -0.0527  0.2402  0.4070
  823MOL0     C10991   3.274   8.488  10.804  0.4416  0.3038 -0.0437
  823MOL0     C10992   3.178   8.576  10.727  1.2407  0.7307  0.1068
  823MOL0     C10993   3.106   8.678  10.822 -0.3817  0.7813 -0.5989
  823MOL0     O10994   3.013   8.752  10.739 -1.2240 -0.3815  0.0620
  823MOL0     C10995   2.930   8.833  10.818  0.4566  1.0874 -0.6798
  823MOL0     C10996   2.851   8.912  10.738 -0.2301  0.8707 -0.4280
  823MOL0     C10997   2.794   9.032  10.788  0.0939 -0.2653 -1.0697
  823MOL0     C10998   2.797   9.061  10.933  0.3202  0.0244 -0.2933
  823MOL0     C10999   2.736   9.183  10.993  0.1207  0.6981 -0.0792
  823MOL0     O11000   2.753   9.219  11.122 -0.1171  0.1766 -0.8098
  823MOL0     C11001   2.660   9.291  11.189  0.1979  0.4209 -0.0003
  823MOL0     C11002   2.634   9.430  11.155  0.4674 -0.8510 -0.3610
  823MOL0     C11003   2.513   9.489  11.178 -0.9326  0.2727  0.0233
  823MOL0     C11004   2.412   9.408  11.242 -0.9913  0.0418 -1.0300
  823MOL0     O11005   2.287   9.451  11.252  0.1933 -0.1582 -0.0232
  823MOL0     C11006   2.257   9.589  11.245  0.0553 -0.0992 -0.2735
  823MOL0     C11007   2.116   9.602  11.297  0.0555 -1.2573 -0.1772
  823MOL0     C11008   2.013   9.566  11.200  0.5782 -0.1668 -0.6933
  823MOL0     C11009   1.874   9.599  11.279  1.3372  0.6794 -0.2521
  823MOL0     C11010   1.748   9.586  11.198  0.8799 -0.5374  0.8828
  823MOL0     C11011   1.737   9.683  11.087  0.1281 -0.1883  0.1560
  823MOL0     C11012   1.594   9.681  11.030  0.3713 -0.3389  0.3222
  823MOL0     C11013   1.584   9.759  10.901 -0.5918  0.3516  0.2898
  823MOL0    Cl11014   1.408   9.780  10.879  0.3135 -0.0571 -0.2732
  823MOL0     C11015   2.440   9.267  11.274  0.3051 -0.3266  0.5966
  823MOL0     C11016   2.567   9.218  11.255 -0.5037  0.1295  1.4060
  823MOL0     O11017   2.678   9.251  10.915  0.8249  0.8314 -0.2209
  823MOL0     C11018   2.862   8.961  11.019 -0.1335 -0.4650 -0.5050
  823MOL0     C11019   2.923   8.855  10.960  0.2203  0.0033  0.1786
  823MOL0     N11020   3.259   8.156  10.813 -0.4295 -0.6897 -1.1423
  823MOL0     N11021   3.200   8.058  10.748  0.3321 -1.0489  0.0049
  823MOL0     C11022   2.935   8.804   9.710 -0.7360  1.0806  0.3807
  823MOL0     C11023   3.018   8.907   9.691  1.0803 -0.8432 -1.3031
  823MOL0     C11024   3.223   9.329   9.821 -0.2411  0.3779 -0.7558
  823MOL0     C11025   3.292   9.371   9.934  0.2238  0.3068 -1.1553
  823MOL0     C11026   3.304   9.514   9.965 -1.2369  0.2735  0.2174
  823MOL0     C11027   3.277   9.607   9.868 -0.9537  0.5518  0.3928
  823MOL0     O11028   3.271   9.744   9.871 -0.1139  0.9315  0.3563
  823MOL0     C11029   3.281   9.810   9.999 -0.4278  0.6650 -0.3020
  823MOL0     C11030   3.156   9.794  10.088  0.7045 -0.2682  0.4231
  823MOL0     C11031   3.192   9.839  10.230  0.2657  0.3542  0.2517
  823MOL0     C11032   3.072   9.832  10.325  0.0447  1.2249  0.5906
  823MOL0     C11033   3.050   9.698  10.376 -1.0843 -0.4252 -0.9980
  823MOL0     C11034   3.037   9.581  10.409  0.7251 -0.3774 -0.3193
  823MOL0     C11035   3.215   9.560   9.750 -0.9283 -0.0259 -0.1221
  823MOL0     C11036   3.180   9.422   9.723 -0.3863 -0.2500 -0.2477
  823MOL0     C11037   3.103   9.387   9.600  0.5297  0.2428 -0.0303
  823MOL0     H11038   2.928   9.087   9.972 -1.4960 -0.5873  1.0544
  823MOL0     H11039   2.803   8.870  10.004 -0.2930  3.5633  0.1658
  823MOL0     H11040   2.795   8.457   9.839 -1.4648  1.6632  1.0383
  823MOL0     H11041   2.950   8.516   9.857  0.3802 -0.1635  0.7954
  823MOL0     H11042   2.727   8.546  10.071 -0.8707  0.9612 -3.1157
  823MOL0     H11043   2.888   8.612  10.082  3.5138 -0.8753 -1.4639
  823MOL0     H11044   3.010   8.404  10.075 -0.2878  2.4748 -1.0686
  823MOL0     H11045   2.860   8.324  10.032 -3.5067 -0.2089  3.2232
  823MOL0     H11046   2.900   8.475  10.295  2.0605  0.5976 -2.2197
  823MOL0     H11047   2.762   8.390  10.235  0.2300  0.3732 -0.6981
  823MOL0     H11048   2.904   8.169  10.241  2.4787 -0.3440 -1.7362
  823MOL0     H11049   3.040   8.262  10.289 -0.2026  1.7389 -0.1365
  823MOL0     H11050   2.917   8.318  10.510 -0.5978 -0.8338  0.7931
  823MOL0     H11051   2.798   8.210  10.454 -0.4727  2.3527  3.0086
  823MOL0     H11052   3.094   8.123  10.454  0.1878 -3.3908  0.5921
  823MOL0     H11053   2.958   8.034  10.413  0.2476  0.5666 -0.3026
  823MOL0     H11054   2.877   8.072  10.662 -0.2177  0.3856 -1.1430
  823MOL0     H11055   3.001   7.956  10.618  0.9321  0.7506 -0.5365
  823MOL0     H11056   2.984   8.305  10.745  2.3446  2.9181  0.4061
  823MOL0     H11057   3.139   8.435  10.973  1.9406  0.7901  2.2581
  823MOL0     H11058   3.290   8.361  10.971 -0.5388  0.5874  1.1426
  823MOL0     H11059   3.341   8.556  10.858 -2.0907  3.1584 -0.2587
  823MOL0     H11060   3.341   8.434  10.737 -1.8733  0.9925 -3.1382
  823MOL0     H11061   3.110   8.513  10.669  0.4956  1.3947  0.2463
  823MOL0     H11062   3.225   8.627  10.642  0.6254 -0.1752 -0.8133
  823MOL0     H11063   3.179   8.743  10.873 -0.4082  0.0790  0.3502
  823MOL0     H11064   3.061   8.611  10.896  1.4438 -2.2125 -2.0143
  823MOL0     H11065   2.862   8.894  10.632 -2.2226 -0.7989 -0.4010
  823MOL0     H11066   2.746   9.098  10.717 -0.1190 -0.2424 -0.9034
  823MOL0     H11067   2.706   9.495  11.106 -1.4973 -0.3418 -2.7800
  823MOL0     H11068   2.484   9.588  11.143 -0.9342  0.4494  0.5213
  823MOL0     H11069   2.309   9.639  11.327 -4.1217  0.9280  2.0831
  823MOL0     H11070   2.270   9.636  11.147  0.2690  3.6531  1.3621
  823MOL0     H11071   2.114   9.550  11.393  3.6139  1.5700  1.6890
  823MOL0     H11072   2.089   9.706  11.316 -1.7067 -1.8748  0.9455
  823MOL0     H11073   2.000   9.622  11.107  0.9931 -0.4731 -0.9416
  823MOL0     H11074   2.019   9.460  11.174  2.4096 -0.8310  2.0258
  823MOL0     H11075   1.885   9.699  11.324  1.1443 -0.3286  2.1923
  823MOL0     H11076   1.864   9.535  11.367 -0.3399  1.4456  0.1558
  823MOL0     H11077   1.663   9.605  11.265 -1.1630 -1.9447 -1.1506
  823MOL0     H11078   1.745   9.482  11.164 -1.0654 -0.6427  1.2533
  823MOL0     H11079   1.760   9.781  11.129  1.5330 -0.4297 -0.0163
  823MOL0     H11080   1.801   9.655  11.003 -0.9012 -1.8745 -0.1119
  823MOL0     H11081   1.524   9.714  11.109  0.5892 -3.2791  1.8638
  823MOL0     H11082   1.569   9.578  11.006  0.0523  0.2935 -2.3225
  823MOL0     H11083   1.626   9.860  10.898 -1.0814  0.5415 -2.3916
  823MOL0     H11084   1.640   9.705  10.825 -2.8247 -2.4282  0.4495
  823MOL0     H11085   2.363   9.205  11.320 -0.7222  0.3173 -0.2076
  823MOL0     H11086   2.581   9.110  11.258 -2.7176 -0.8294 -5.4716
  823MOL0     H11087   2.873   8.979  11.125 -2.0205 -0.0755 -0.3416
  823MOL0     H11088   2.968   8.786  11.031  0.4966  0.6065  0.6062
  823MOL0     H11089   2.915   8.738   9.626 -2.1459  1.4683  0.3815
  823MOL0     H11090   3.069   8.919   9.596  0.6664  1.8400 -1.2755
  823MOL0     H11091   3.331   9.293   9.998 -0.1407  0.1200 -1.1616
  823MOL0     H11092   3.323   9.538  10.069 -2.5713  2.1604  0.0749
  823MOL0     H11093   3.302   9.914   9.972  1.9044  0.2753 -0.2097
  823MOL0     H11094   3.371   9.775  10.050 -1.0044 -1.6328 -0.7355
  823MOL0     H11095   3.116   9.693  10.095  1.7723 -0.9220 -1.9740
  823MOL0     H11096   3.081   9.864  10.050  0.1521  0.2307  2.3069
  823MOL0     H11097   3.235   9.939  10.235 -0.8027  0.8071  0.8234
  823MOL0     H11098   3.261   9.765  10.271 -2.1722 -1.4739  1.3467
  823MOL0     H11099   3.087   9.887  10.419  1.2485 -2.5872  2.8806
  823MOL0     H11100   2.982   9.875  10.280 -1.1893  0.9382  2.6537
  823MOL0     H11101   3.021   9.478  10.432 -0.3800 -0.0339  0.5885
  823MOL0     H11102   3.187   9.642   9.685 -0.7716  0.9557  1.0298
  823MOL0     H11103   3.138   9.294   9.554  4.2534 -0.0179  2.8588
  823MOL0     H11104   2.999   9.373   9.629  0.4570  0.5361 -0.1408
  823MOL0     H11105   3.123   9.471   9.533  0.1642  1.0301  0.8131
  824MOL0     O11106   1.213   3.774   2.648 -0.0213  0.5115 -0.6965
  824MOL0     C11107   1.170   3.848   2.558  0.0159 -0.4292 -0.4565
  824MOL0     O11108   1.160   3.985   2.577  0.4665 -0.1406  0.5015
  824MOL0     C11109   1.158   4.037   2.695 -0.1320 -1.5511 -0.1086
  824MOL0     C11110   1.211   4.168   2.708 -0.7006  0.0298  0.1932
  824MOL0     C11111   1.218   4.231   2.829 -0.1883  0.4276  0.3565
  824MOL0     C11112   1.169   4.172   2.948 -0.0391  0.4819  0.5170
  824MOL0     O11113   1.163   4.252   3.056  0.2305  0.2793  0.1805
  824MOL0     C11114   1.079   4.226   3.170  1.2133 -0.5030  0.3387
  824MOL0     C11115   1.141   4.297   3.278 -0.3459  0.2062 -0.6399
  824MOL0     C11116   1.290   4.285   3.303 -0.0874  1.0159 -0.2264
  824MOL0     C11117   1.317   4.371   3.425  0.0347 -1.0632 -0.3000
  824MOL0     C11118   1.455   4.353   3.502  0.0424  0.6201  0.0303
  824MOL0     C11119   1.446   4.216   3.578  0.4562 -0.6369 -0.7584
  824MOL0     C11120   1.582   4.169   3.641  0.5878 -0.4665  0.8721
  824MOL0     C11121   1.683   4.133   3.527 -0.1212 -0.3823 -0.3376
  824MOL0     N11122   1.635   4.032   3.438 -0.1082  0.8465 -0.2068
  824MOL0     C11123   1.575   4.053   3.321  0.1915  0.0918 -0.2910
  824MOL0     C11124   1.571   3.935   3.265  0.2434  0.1542  0.3264
  824MOL0     C11125   1.508   3.892   3.127  0.4813 -0.0386 -0.0333
  824MOL0     C11126   1.373   3.822   3.143  0.1208  0.4149  0.4839
  824MOL0     C11127   1.260   3.891   3.221  0.0646  0.7314  1.6437
  824MOL0     C11128   1.133   3.800   3.236  0.4442 -0.4063  0.5450
  824MOL0     O11129   1.155   3.691   3.319 -0.1271  0.0675 -0.0214
  824MOL0     C11130   1.083   3.583   3.272 -0.6554 -0.5473  0.1709
  824MOL0     C11131   0.972   3.539   3.338  0.3992 -0.4445 -0.4391
  824MOL0     C11132   0.908   3.419   3.313 -0.0581 -0.3014 -0.1542
  824MOL0     C11133   0.952   3.348   3.199 -0.3797  0.7161  0.0091
  824MOL0     C11134   0.875   3.222   3.158  0.8861 -0.9741 -0.7400
  824MOL0     O11135   0.906   3.170   3.036  0.6293  0.1583 -0.4852
  824MOL0     C11136   0.826   3.065   2.989  0.9363 -0.8360  0.1009
  824MOL0     C11137   0.896   2.980   2.900 -0.1288 -0.5054  0.5363
  824MOL0     C11138   0.828   2.865   2.843 -0.0059 -0.7942  0.4361
  824MOL0     C11139   0.688   2.843   2.868  1.5527  0.0014 -0.1873
  824MOL0     O11140   0.612   2.751   2.812 -0.2520  0.3620 -0.4711
  824MOL0     C11141   0.678   2.629   2.771  0.8853  0.7748 -0.4654
  824MOL0     C11142   0.566   2.533   2.790 -0.2358  0.3904 -0.0171
  824MOL0     C11143   0.600   2.386   2.746 -0.4756 -0.5537  0.3808
  824MOL0     C11144   0.486   2.286   2.792 -0.0620  0.1066 -0.6966
  824MOL0     C11145   0.535   2.148   2.745 -0.1724 -0.0361 -0.8761
  824MOL0     C11146   0.441   2.026   2.766 -0.1273 -1.6240  0.4432
  824MOL0     C11147   0.483   1.911   2.680 -0.6377 -0.0922 -0.1196
  824MOL0     C11148   0.621   1.851   2.692 -0.6346  0.3781 -0.3655
  824MOL0    Cl11149   0.619   1.672   2.662  0.1403  0.0142 -0.0372
  824MOL0     C11150   0.623   2.934   2.950 -0.3617  0.0945  0.9481
  824MOL0     C11151   0.686   3.047   3.005 -0.5484 -0.0244 -0.1757
  824MOL0     O11152   0.808   3.175   3.249 -0.8927  0.4236 -0.2759
  824MOL0     C11153   1.060   3.391   3.125  0.5214 -0.2860 -0.0341
  824MOL0     C11154   1.123   3.506   3.158  0.0076 -0.0758 -0.0622
  824MOL0     N11155   1.618   3.843   3.357 -0.9645  0.1873  0.4586
  824MOL0     N11156   1.682   3.908   3.454 -0.2507  0.2742 -0.2772
  824MOL0     C11157   1.108   4.046   2.934  0.0186 -0.2316 -0.2966
  824MOL0     C11158   1.102   3.981   2.808 -0.2391 -0.4806 -0.2499
  824MOL0     C11159   1.147   3.796   2.422 -0.3769 -0.5027 -0.0758
  824MOL0     C11160   1.097   3.888   2.329  0.5626  0.6968 -0.1132
  824MOL0     C11161   1.071   3.850   2.194  0.0522  0.3407  0.8386
  824MOL0     C11162   1.102   3.718   2.151  0.5884 -0.6958  0.5146
  824MOL0     O11163   1.083   3.682   2.020  0.0176  0.2828  0.3217
  824MOL0     C11164   1.043   3.761   1.909  0.1826 -0.0890  0.1251
  824MOL0     C11165   1.066   3.677   1.772  0.0018  0.4063  0.0900
  824MOL0     C11166   1.024   3.524   1.793 -0.2361  0.2507  0.4914
  824MOL0     C11167   1.067   3.434   1.678  0.5354 -0.0082 -0.2618
  824MOL0     C11168   1.044   3.294   1.711 -0.4614  0.2349 -0.2056
  824MOL0     C11169   1.048   3.170   1.737  0.7130  0.5998  0.0773
  824MOL0     C11170   1.147   3.633   2.244 -1.4418 -0.7749 -0.4304
  824MOL0     C11171   1.176   3.667   2.377  0.0435 -0.5875  0.0641
  824MOL0     C11172   1.238   3.553   2.469  0.2262 -0.1594  0.7844
  824MOL0     H11173   1.252   4.221   2.622 -0.0493  1.0502  1.1015
  824MOL0     H11174   1.261   4.331   2.831  0.0842  0.3039  1.7571
  824MOL0     H11175   0.974   4.256   3.165  2.1022  3.0467  0.3518
  824MOL0     H11176   1.090   4.122   3.203 -2.3128 -1.5439 -1.2590
  824MOL0     H11177   1.091   4.260   3.368  1.4089 -0.3532  0.1564
  824MOL0     H11178   1.113   4.398   3.247  1.3191  0.2498 -2.1729
  824MOL0     H11179   1.352   4.305   3.215  0.8527 -0.0652  0.1553
  824MOL0     H11180   1.308   4.180   3.330 -2.9652  1.2259  3.2084
  824MOL0     H11181   1.308   4.474   3.388 -0.2817 -1.9686 -2.9789
  824MOL0     H11182   1.231   4.360   3.492 -1.4624  0.9074 -1.7635
  824MOL0     H11183   1.532   4.351   3.424 -0.8302  2.0120 -0.9226
  824MOL0     H11184   1.480   4.428   3.578  3.4605 -2.0214  1.7654
  824MOL0     H11185   1.377   4.234   3.661  0.6527 -0.2270 -0.6756
  824MOL0     H11186   1.399   4.135   3.522  0.7258 -1.4296  0.1398
  824MOL0     H11187   1.566   4.076   3.696 -0.9613  0.2243  1.6412
  824MOL0     H11188   1.621   4.236   3.718  0.6469 -0.7391  1.0797
  824MOL0     H11189   1.711   4.224   3.472 -2.5961  1.4418  1.2147
  824MOL0     H11190   1.774   4.087   3.566  1.2269 -1.0006 -3.8241
  824MOL0     H11191   1.543   4.151   3.288  0.8402  0.5856  0.5038
  824MOL0     H11192   1.505   3.973   3.053 -0.7779  0.3185  0.3704
  824MOL0     H11193   1.585   3.831   3.080 -0.5959 -0.9439 -0.6692
  824MOL0     H11194   1.337   3.798   3.042 -1.1767 -0.6508  1.1594
  824MOL0     H11195   1.396   3.730   3.197  1.6256  1.0256  0.9215
  824MOL0     H11196   1.228   3.977   3.160 -2.3633  0.8392  2.9302
  824MOL0     H11197   1.294   3.926   3.319  1.8832  2.4009  0.4935
  824MOL0     H11198   1.089   3.770   3.140 -1.7880 -1.3637  1.8052
  824MOL0     H11199   1.058   3.849   3.299 -0.2047 -0.1531 -0.3989
  824MOL0     H11200   0.928   3.601   3.416 -0.4955 -2.1112  0.4377
  824MOL0     H11201   0.826   3.395   3.379  0.5972 -1.8765  0.1132
  824MOL0     H11202   1.002   2.988   2.877  0.0976  1.5258  1.9543
  824MOL0     H11203   0.885   2.792   2.786  1.1716 -1.9682  2.9747
  824MOL0     H11204   0.709   2.642   2.666 -0.0458  2.3019 -0.5716
  824MOL0     H11205   0.768   2.609   2.830  1.9159 -1.6885 -2.6183
  824MOL0     H11206   0.529   2.533   2.893  2.2129  4.9429  1.1202
  824MOL0     H11207   0.475   2.563   2.737 -1.1977 -0.6624  0.9725
  824MOL0     H11208   0.602   2.381   2.636 -1.2824 -0.5463  0.3600
  824MOL0     H11209   0.695   2.352   2.787 -2.3871 -2.0901  3.9813
  824MOL0     H11210   0.388   2.314   2.751 -1.9816 -0.1663  3.2127
  824MOL0     H11211   0.470   2.271   2.899  1.1215 -2.5196 -0.8068
  824MOL0     H11212   0.632   2.128   2.792  1.1860  1.1180 -3.0417
  824MOL0     H11213   0.552   2.160   2.638  0.4839 -1.2856 -0.9255
  824MOL0     H11214   0.426   2.005   2.872 -1.3562  3.8751  1.7069
  824MOL0     H11215   0.346   2.063   2.726  1.7302  1.4529 -1.5381
  824MOL0     H11216   0.471   1.940   2.575 -0.2083  1.7267  0.2827
  824MOL0     H11217   0.408   1.837   2.708 -3.4492  2.2565 -0.8998
  824MOL0     H11218   0.696   1.891   2.624 -0.5974 -1.2254 -1.3342
  824MOL0     H11219   0.649   1.859   2.797 -0.7309 -1.7158 -0.1274
  824MOL0     H11220   0.517   2.910   2.953 -0.6557  1.2399  0.1116
  824MOL0     H11221   0.629   3.121   3.061  2.4388  0.5561  2.4326
  824MOL0     H11222   1.101   3.328   3.047 -2.2142  0.5079 -2.2936
  824MOL0     H11223   1.216   3.522   3.104  0.5100 -0.1853  0.7666
  824MOL0     H11224   1.055   3.996   3.015 -1.6396  0.5558 -0.8522
  824MOL0     H11225   1.041   3.892   2.798 -1.1767  0.3451 -2.5173
  824MOL0     H11226   1.065   3.989   2.350  0.2413  0.2770  1.5411
  824MOL0     H11227   1.040   3.919   2.117 -3.0129 -2.2699 -0.4826
  824MOL0     H11228   1.094   3.857   1.907 -1.7222  0.9820  0.6898
  824MOL0     H11229   0.936   3.775   1.926  0.6040  0.3100  2.7171
  824MOL0     H11230   1.173   3.688   1.751 -0.0890  0.9791 -0.1127
  824MOL0     H11231   1.010   3.723   1.690  0.4583 -0.6187 -0.8244
  824MOL0     H11232   0.915   3.523   1.786 -0.2184  0.4237  0.1643
  824MOL0     H11233   1.052   3.473   1.886 -0.7814  0.1490  0.5999
  824MOL0     H11234   0.998   3.475   1.604 -1.7073  3.8771  3.5008
  824MOL0     H11235   1.172   3.460   1.661  0.8979  0.1535  1.9558
  824MOL0     H11236   1.051   3.064   1.753  1.7544  0.3844 -1.2810
  824MOL0     H11237   1.170   3.537   2.201  1.3245 -1.2723  1.8816
  824MOL0     H11238   1.270   3.469   2.407  0.0681 -1.2007  2.0921
  824MOL0     H11239   1.328   3.581   2.524 -2.1107  3.0919  3.4031
  824MOL0     H11240   1.157   3.511   2.529 -0.5418 -0.3746 -0.3748
  825MOL0     O11241   1.966   9.247   5.740  0.8437  0.7659  0.9171
  825MOL0     C11242   2.012   9.356   5.778  0.3317 -0.2284 -0.3861
  825MOL0     O11243   1.996   9.409   5.904  0.2105 -0.0815 -0.2364
  825MOL0     C11244   1.964   9.317   6.000 -0.5962  0.6914 -0.8579
  825MOL0     C11245   1.836   9.281   6.016  0.4686 -0.2998  0.2099
  825MOL0     C11246   1.793   9.191   6.113  0.3735  0.2265  0.0427
  825MOL0     C11247   1.886   9.129   6.201  0.6216 -0.5368  0.1046
  825MOL0     O11248   1.860   9.055   6.313 -0.8691  0.7153 -0.0018
  825MOL0     C11249   1.738   9.081   6.380  0.1030 -0.3803  0.6447
  825MOL0     C11250   1.724   9.001   6.513  0.1094 -0.0170 -0.2900
  825MOL0     C11251   1.705   8.844   6.514 -0.0184 -0.5189 -0.9970
  825MOL0     C11252   1.658   8.794   6.643  0.3982 -0.8552  0.0500
  825MOL0     C11253   1.520   8.853   6.687 -0.8230  0.3530 -1.2342
  825MOL0     C11254   1.476   8.821   6.828  0.6654 -1.3116  0.3986
  825MOL0     C11255   1.436   8.670   6.846 -0.0377 -0.4772  0.7651
  825MOL0     C11256   1.294   8.641   6.805  0.4859 -0.2511  0.3540
  825MOL0     N11257   1.243   8.516   6.856  0.3573  0.2616 -0.2039
  825MOL0     C11258   1.125   8.462   6.813 -0.7215  0.4904 -0.3096
  825MOL0     C11259   1.077   8.388   6.915 -0.1390 -0.8416 -0.8620
  825MOL0     C11260   0.931   8.331   6.919 -0.0227  1.0482  0.0077
  825MOL0     C11261   0.839   8.386   7.021  1.2216 -0.0133  0.6285
  825MOL0     C11262   0.689   8.365   6.991 -0.5014 -0.5583  0.5347
  825MOL0     C11263   0.633   8.221   6.969 -0.1967 -0.4990 -0.1195
  825MOL0     O11264   0.641   8.142   7.089  0.2992 -0.2368  0.5422
  825MOL0     C11265   0.518   8.097   7.140 -0.5918 -0.5289  0.3066
  825MOL0     C11266   0.497   7.957   7.151 -0.1275 -0.2455  0.1761
  825MOL0     C11267   0.367   7.911   7.189 -0.1730  0.0852 -0.6381
  825MOL0     C11268   0.269   7.994   7.234 -0.1852  0.3164  0.1982
  825MOL0     C11269   0.156   7.949   7.317  0.7557  0.3048 -0.0909
  825MOL0     O11270   0.069   8.043   7.353  0.9234 -0.6321  1.2973
  825MOL0     C11271  -0.059   8.010   7.401 -0.5118 -0.0213 -0.6845
  825MOL0     C11272  -0.144   7.939   7.320  0.1500  0.1507  0.4686
  825MOL0     C11273  -0.262   7.873   7.372 -0.3958 -0.2034 -0.1450
  825MOL0     C11274  -0.302   7.900   7.502 -0.5143 -0.1338 -0.3250
  825MOL0     O11275  -0.410   7.848   7.563 -0.0710  0.2517  0.1057
  825MOL0     C11276  -0.535   7.856   7.498  0.2135 -0.3850 -0.1484
  825MOL0     C11277  -0.636   7.782   7.577  0.4510  1.3132  0.4021
  825MOL0     C11278  -0.657   7.867   7.707  0.3466  0.1385  0.6293
  825MOL0     C11279  -0.770   7.788   7.781  0.4191 -0.0883 -0.3427
  825MOL0     C11280  -0.773   7.817   7.938  0.1060 -1.0934 -0.4801
  825MOL0     C11281  -0.867   7.733   8.028  0.2417  0.1618  0.4513
  825MOL0     C11282  -0.857   7.794   8.172  0.8375  0.2047  0.4259
  825MOL0     C11283  -0.951   7.736   8.279 -0.0086 -0.2777  1.0333
  825MOL0    Cl11284  -1.120   7.749   8.258  0.1302 -0.0377 -0.2860
  825MOL0     C11285  -0.220   7.983   7.578  0.3476 -0.3236  0.1915
  825MOL0     C11286  -0.099   8.036   7.526  0.4332 -0.3326 -1.0562
  825MOL0     O11287   0.151   7.828   7.355  0.0217  0.3737  0.8181
  825MOL0     C11288   0.297   8.134   7.226 -0.7651  0.0345  0.1474
  825MOL0     C11289   0.419   8.185   7.172 -0.0385  0.8830  0.2999
  825MOL0     N11290   1.177   8.381   7.021 -0.3675 -0.6030  0.0732
  825MOL0     N11291   1.267   8.454   6.973 -0.1809  0.7731  1.2002
  825MOL0     C11292   2.021   9.164   6.181  0.0676 -0.3825  0.0219
  825MOL0     C11293   2.060   9.266   6.090 -0.3493  0.3979  0.3713
  825MOL0     C11294   2.082   9.444   5.686  0.0582  0.2474  0.3364
  825MOL0     C11295   2.155   9.547   5.750  0.6417 -0.1461 -0.0069
  825MOL0     C11296   2.201   9.656   5.673  0.0026  0.2265 -0.4036
  825MOL0     C11297   2.210   9.652   5.537 -0.0230 -0.6310  0.5675
  825MOL0     O11298   2.257   9.763   5.475  0.1764  0.2015 -0.6373
  825MOL0     C11299   2.218   9.781   5.331 -0.3427 -0.0943  0.4712
  825MOL0     C11300   2.317   9.716   5.239 -1.2623 -0.3107  0.3538
  825MOL0     C11301   2.417   9.819   5.183  0.4116  0.4766  0.0693
  825MOL0     C11302   2.452   9.938   5.277  0.0637  0.3414  0.0461
  825MOL0     C11303   2.540  10.034   5.203 -0.9224 -0.3667 -0.6144
  825MOL0     C11304   2.606  10.119   5.146 -0.6399  0.2685 -0.3850
  825MOL0     C11305   2.151   9.538   5.472 -0.1392 -0.3027  0.2054
  825MOL0     C11306   2.085   9.438   5.546 -0.2413  0.4654  0.3494
  825MOL0     C11307   2.012   9.332   5.466  0.4406 -0.6888 -1.1401
  825MOL0     H11308   1.756   9.318   5.953  1.7242  1.4697 -0.4388
  825MOL0     H11309   1.686   9.172   6.120  0.6055 -0.6882  1.3784
  825MOL0     H11310   1.723   9.188   6.394 -0.7260 -0.6060  1.6311
  825MOL0     H11311   1.661   9.056   6.307 -0.1218  3.9158 -0.8365
  825MOL0     H11312   1.640   9.048   6.566  0.7420 -1.2617  1.9146
  825MOL0     H11313   1.820   9.010   6.564 -0.1354 -0.3282  0.2344
  825MOL0     H11314   1.801   8.801   6.484  2.9521  4.6638 -0.2104
  825MOL0     H11315   1.635   8.811   6.437  0.0871  0.9250 -1.7412
  825MOL0     H11316   1.649   8.685   6.632  2.4644 -1.1302  0.7626
  825MOL0     H11317   1.736   8.814   6.717  0.6784 -1.9889  0.0928
  825MOL0     H11318   1.520   8.962   6.695  1.0815  0.3771 -1.1914
  825MOL0     H11319   1.437   8.816   6.626 -1.9511 -1.5188  1.2335
  825MOL0     H11320   1.563   8.836   6.892  0.5395  5.3647 -0.3229
  825MOL0     H11321   1.399   8.888   6.868  0.7713 -2.7653  3.3006
  825MOL0     H11322   1.447   8.652   6.953  1.9322 -0.1135  0.6584
  825MOL0     H11323   1.497   8.595   6.795 -1.7317 -0.4044 -1.5736
  825MOL0     H11324   1.218   8.717   6.825 -1.0800 -1.4808 -0.6493
  825MOL0     H11325   1.295   8.632   6.696  0.0279  0.1559  0.3118
  825MOL0     H11326   1.086   8.475   6.712  1.0735 -0.7754 -1.2001
  825MOL0     H11327   0.892   8.366   6.822  1.3753  1.5183 -0.4072
  825MOL0     H11328   0.928   8.222   6.913 -1.0114  1.0716 -0.1762
  825MOL0     H11329   0.855   8.343   7.120 -3.6395 -2.2541  0.7314
  825MOL0     H11330   0.859   8.493   7.027 -0.6925  0.2919  2.8041
  825MOL0     H11331   0.674   8.417   6.896  2.7059 -0.9404 -0.3026
  825MOL0     H11332   0.636   8.415   7.073  0.4008 -1.2238  1.5624
  825MOL0     H11333   0.680   8.179   6.880  2.3488  0.3904  0.7386
  825MOL0     H11334   0.529   8.244   6.943 -0.1551  0.4807  0.5467
  825MOL0     H11335   0.587   7.897   7.139 -0.2031 -0.1341 -1.0422
  825MOL0     H11336   0.349   7.804   7.193 -2.0030  0.3641 -0.5164
  825MOL0     H11337  -0.116   7.907   7.220  2.2311  0.3209  0.9484
  825MOL0     H11338  -0.314   7.796   7.316  0.6262 -0.0447 -1.3640
  825MOL0     H11339  -0.565   7.961   7.493  0.6394  0.0360  3.4126
  825MOL0     H11340  -0.548   7.804   7.403 -3.7969 -1.1196  0.5936
  825MOL0     H11341  -0.737   7.784   7.535  0.5765  0.8871  0.0726
  825MOL0     H11342  -0.619   7.676   7.596 -2.9764  0.5708 -0.0729
  825MOL0     H11343  -0.565   7.883   7.764  0.9764  1.9505 -0.7896
  825MOL0     H11344  -0.701   7.966   7.693 -1.1273 -0.5854 -0.0710
  825MOL0     H11345  -0.735   7.684   7.774  1.6087  0.3276 -0.9363
  825MOL0     H11346  -0.865   7.800   7.729  1.2846 -0.3460 -2.0448
  825MOL0     H11347  -0.786   7.926   7.942  0.7233 -1.0174 -0.4742
  825MOL0     H11348  -0.670   7.802   7.970 -0.2529  1.1234  2.1396
  825MOL0     H11349  -0.971   7.731   7.994  0.5374  2.1986 -0.7416
  825MOL0     H11350  -0.836   7.628   8.026  3.6186  1.0054  1.9260
  825MOL0     H11351  -0.890   7.898   8.179 -0.9495 -0.3567  0.9364
  825MOL0     H11352  -0.751   7.802   8.198  0.9223  3.8733 -0.5272
  825MOL0     H11353  -0.925   7.630   8.289  1.2927 -0.3510 -2.1204
  825MOL0     H11354  -0.935   7.775   8.381 -0.8289 -4.3139  2.8834
  825MOL0     H11355  -0.245   8.003   7.681  1.8779  3.2663  0.0156
  825MOL0     H11356  -0.014   8.078   7.580 -0.4955 -1.0318  1.0797
  825MOL0     H11357   0.229   8.213   7.258  1.9877  2.7909 -0.3477
  825MOL0     H11358   0.434   8.291   7.153 -0.8675  0.9953  0.2331
  825MOL0     H11359   2.102   9.135   6.247  1.6208  1.8353 -0.7901
  825MOL0     H11360   2.160   9.307   6.078 -0.3967 -0.0244 -1.8925
  825MOL0     H11361   2.169   9.546   5.858 -2.3829 -3.2360  0.5553
  825MOL0     H11362   2.259   9.739   5.712 -0.0228 -0.8101  2.0113
  825MOL0     H11363   2.218   9.889   5.317  3.3463  0.0729  0.6747
  825MOL0     H11364   2.116   9.747   5.308 -0.1037 -0.0578 -0.7191
  825MOL0     H11365   2.266   9.656   5.163 -0.1668 -4.1326  2.3340
  825MOL0     H11366   2.380   9.635   5.278 -0.6852 -1.0487 -1.9268
  825MOL0     H11367   2.380   9.855   5.087  3.1881  0.4214 -1.1025
  825MOL0     H11368   2.502   9.751   5.170 -1.1022 -1.8076  1.3911
  825MOL0     H11369   2.368  10.000   5.310 -0.3768  0.1451 -0.7093
  825MOL0     H11370   2.507   9.893   5.360  2.5910  1.9868 -0.5889
  825MOL0     H11371   2.682  10.183   5.105  2.9282 -2.1601  1.8762
  825MOL0     H11372   2.159   9.509   5.367 -3.0936 -2.5328  0.4651
  825MOL0     H11373   2.051   9.240   5.510  2.2516  1.9388  3.5087
  825MOL0     H11374   1.909   9.336   5.503  1.8802 -3.6621  4.4235
  825MOL0     H11375   2.014   9.334   5.357 -0.5309 -1.2811 -1.1886
  826MOL0     O11376   3.831   5.128   0.589 -0.1262  0.1027 -0.1531
  826MOL0     C11377   3.746   5.043   0.558 -0.6235 -0.3426 -0.2739
  826MOL0     O11378   3.637   5.007   0.637  0.6197  0.1329  0.4713
  826MOL0     C11379   3.635   5.037   0.770 -0.0581 -0.4594  0.0464
  826MOL0     C11380   3.640   4.933   0.860 -0.3539 -0.7315 -0.5399
  826MOL0     C11381   3.649   4.956   0.993 -0.1649 -0.6352 -0.6329
  826MOL0     C11382   3.658   5.097   1.043  0.6647  0.7227 -0.6369
  826MOL0     O11383   3.669   5.126   1.179  0.1212 -0.2382 -0.4214
  826MOL0     C11384   3.698   5.018   1.269 -0.3390 -0.2118  0.1355
  826MOL0     C11385   3.840   4.968   1.258 -0.2383 -0.1219 -0.4271
  826MOL0     C11386   3.849   4.834   1.344  0.6275 -0.4552  1.4865
  826MOL0     C11387   3.875   4.884   1.491  0.6120  0.0472 -0.0196
  826MOL0     C11388   3.848   4.767   1.584  0.5298 -0.1003  0.1442
  826MOL0     C11389   3.948   4.650   1.573  0.6205 -0.1244  0.3277
  826MOL0     C11390   4.097   4.676   1.565  0.1445 -0.1809  0.6907
  826MOL0     C11391   4.158   4.736   1.696  0.5227 -0.1023  0.8014
  826MOL0     N11392   4.135   4.636   1.809 -0.5398 -0.2147  0.6232
  826MOL0     C11393   4.236   4.574   1.886  0.2148 -0.0061 -0.5355
  826MOL0     C11394   4.174   4.529   1.999  0.2523 -1.1872 -0.5316
  826MOL0     C11395   4.243   4.476   2.128  0.1732 -0.2754  0.1586
  826MOL0     C11396   4.282   4.333   2.103 -0.1175  1.5283 -0.7792
  826MOL0     C11397   4.234   4.236   2.215  0.3123  0.4011  0.1007
  826MOL0     C11398   4.291   4.093   2.179 -0.5741  0.0068  0.2812
  826MOL0     O11399   4.242   4.046   2.051 -0.5035  0.6800  0.1426
  826MOL0     C11400   4.197   3.917   2.056 -0.5614  0.4088  0.4038
  826MOL0     C11401   4.274   3.819   1.976  1.4318 -0.2551  0.9053
  826MOL0     C11402   4.231   3.683   1.976  0.0713 -0.1184  0.3524
  826MOL0     C11403   4.129   3.634   2.053  0.7722 -0.6310  0.2559
  826MOL0     C11404   4.073   3.498   2.041 -0.0438 -0.3410  0.1236
  826MOL0     O11405   3.943   3.488   2.086  0.5078 -0.0271 -0.2154
  826MOL0     C11406   3.891   3.363   2.057  0.0174 -1.1216 -0.5845
  826MOL0     C11407   3.865   3.276   2.167 -0.0850  0.0533  0.3881
  826MOL0     C11408   3.803   3.149   2.148  0.1174  0.3969  0.0598
  826MOL0     C11409   3.768   3.112   2.019  0.6966  0.7502 -0.8258
  826MOL0     O11410   3.705   2.987   2.008 -0.2168  0.4657  0.9195
  826MOL0     C11411   3.582   2.997   1.937 -0.4401 -0.8863 -0.9014
  826MOL0     C11412   3.526   2.859   1.907 -0.0834  0.8851 -0.9214
  826MOL0     C11413   3.617   2.767   1.818  1.2549 -0.1087 -0.6282
  826MOL0     C11414   3.637   2.811   1.671  0.3058 -0.3399  0.1061
  826MOL0     C11415   3.739   2.724   1.579  0.0970 -0.7256 -0.6712
  826MOL0     C11416   3.719   2.570   1.568  0.2287  0.3066 -0.6701
  826MOL0     C11417   3.831   2.500   1.482  0.1524 -0.1963 -0.1571
  826MOL0     C11418   3.773   2.474   1.352 -0.3250 -0.2490  0.0608
  826MOL0    Cl11419   3.683   2.313   1.359 -0.3646 -0.1053 -0.1796
  826MOL0     C11420   3.809   3.191   1.914 -0.3535 -0.0328 -0.0092
  826MOL0     C11421   3.861   3.317   1.934  0.1621 -0.1141 -0.0009
  826MOL0     O11422   4.149   3.407   2.011 -0.0159  0.1813  0.1110
  826MOL0     C11423   4.053   3.728   2.131 -0.1578 -0.1822 -0.4122
  826MOL0     C11424   4.089   3.865   2.130 -0.2236  0.6813 -0.3383
  826MOL0     N11425   4.040   4.552   1.988 -0.1745  0.0581 -0.5001
  826MOL0     N11426   4.020   4.614   1.876  0.1797 -1.0465  0.1000
  826MOL0     C11427   3.656   5.197   0.954 -0.5453 -0.3071 -0.3872
  826MOL0     C11428   3.651   5.171   0.817 -0.1375 -0.4362  0.6353
  826MOL0     C11429   3.757   4.975   0.426 -0.1371  0.3641 -0.3259
  826MOL0     C11430   3.731   4.835   0.432  1.0590 -0.1108  0.6458
  826MOL0     C11431   3.772   4.752   0.332  0.1931  0.0455 -0.7164
  826MOL0     C11432   3.849   4.802   0.232 -0.6207 -0.0019 -0.1109
  826MOL0     O11433   3.891   4.729   0.131 -0.8163 -0.2224 -0.0035
  826MOL0     C11434   3.798   4.670   0.048 -0.0118 -0.5697  0.1672
  826MOL0     C11435   3.854   4.617  -0.081  0.2605 -0.0368  0.6852
  826MOL0     C11436   3.960   4.512  -0.071 -0.5172  0.4155 -0.6943
  826MOL0     C11437   3.903   4.372  -0.045 -0.0451 -0.1699 -0.6843
  826MOL0     C11438   3.855   4.303  -0.166 -0.1928  1.2624 -0.1491
  826MOL0     C11439   3.836   4.279  -0.284  0.3397 -0.8290 -0.2414
  826MOL0     C11440   3.869   4.938   0.217  0.9045 -0.7662 -0.5196
  826MOL0     C11441   3.827   5.029   0.317 -0.0428 -0.8655 -0.5542
  826MOL0     C11442   3.872   5.175   0.311  0.1995  0.0203  0.1149
  826MOL0     H11443   3.636   4.829   0.830  4.3502 -1.0458 -0.8035
  826MOL0     H11444   3.625   4.867   1.050  1.2543 -1.4016 -1.1681
  826MOL0     H11445   3.677   5.043   1.373  0.7364  1.9144 -0.0996
  826MOL0     H11446   3.626   4.943   1.235  1.0525 -0.7184 -1.9323
  826MOL0     H11447   3.916   5.039   1.293  0.6834 -1.4050  0.2726
  826MOL0     H11448   3.869   4.937   1.157 -0.4502 -2.2751  0.1181
  826MOL0     H11449   3.930   4.770   1.310  1.5389  1.7060 -0.7146
  826MOL0     H11450   3.753   4.781   1.337  1.1404 -1.3607  1.1186
  826MOL0     H11451   3.975   4.922   1.513 -0.0845  1.5248  0.6930
  826MOL0     H11452   3.801   4.963   1.510 -1.3507 -1.4118 -1.1399
  826MOL0     H11453   3.861   4.811   1.683  0.5840  4.1562 -1.5385
  826MOL0     H11454   3.747   4.724   1.580 -0.1076  0.9190  2.8242
  826MOL0     H11455   3.918   4.575   1.647 -0.6178 -2.5208 -2.3917
  826MOL0     H11456   3.917   4.597   1.483 -1.1805  0.0151  0.8241
  826MOL0     H11457   4.123   4.746   1.485  3.1048 -0.7362  1.0598
  826MOL0     H11458   4.128   4.575   1.536 -3.7332 -0.8346 -2.1520
  826MOL0     H11459   4.264   4.762   1.690  0.3797  0.4992  0.8041
  826MOL0     H11460   4.096   4.825   1.705 -0.3697 -0.4350 -1.3787
  826MOL0     H11461   4.343   4.571   1.864 -0.1711 -1.2619 -2.4690
  826MOL0     H11462   4.332   4.534   2.152  1.3569 -1.1027 -1.9797
  826MOL0     H11463   4.170   4.487   2.209  0.4041  2.5226  0.0551
  826MOL0     H11464   4.229   4.302   2.013  0.5556 -0.5811 -0.5001
  826MOL0     H11465   4.388   4.323   2.078 -0.1325 -2.2415  0.0621
  826MOL0     H11466   4.126   4.223   2.215  0.3722 -0.2283 -0.8102
  826MOL0     H11467   4.261   4.265   2.317  2.2075 -1.2825  0.1669
  826MOL0     H11468   4.271   4.019   2.258 -1.9058 -0.1703 -0.1986
  826MOL0     H11469   4.398   4.107   2.164 -1.1551  2.2820 -2.5349
  826MOL0     H11470   4.349   3.859   1.909 -0.7596  1.7838 -0.4890
  826MOL0     H11471   4.277   3.620   1.900  1.2293  0.7977  0.2422
  826MOL0     H11472   3.898   3.309   2.265  1.9388 -1.4567  0.2691
  826MOL0     H11473   3.792   3.090   2.239 -1.2529 -0.1611 -0.4546
  826MOL0     H11474   3.524   3.071   1.992  3.4972  0.4342  1.8705
  826MOL0     H11475   3.612   3.048   1.845  1.8089  2.4167  1.4586
  826MOL0     H11476   3.500   2.799   1.994  1.7794  2.1740  0.6023
  826MOL0     H11477   3.434   2.866   1.848 -1.9565 -5.2516  0.5629
  826MOL0     H11478   3.718   2.751   1.857  1.2244 -0.2529 -0.6034
  826MOL0     H11479   3.577   2.665   1.828 -2.9367  1.4920  1.4582
  826MOL0     H11480   3.668   2.915   1.663  0.6776 -0.5225 -0.9292
  826MOL0     H11481   3.536   2.806   1.630 -0.4312 -1.7187  1.8930
  826MOL0     H11482   3.835   2.750   1.625 -1.8884  1.2817  2.7645
  826MOL0     H11483   3.735   2.768   1.479 -5.9425  1.2195  0.0601
  826MOL0     H11484   3.727   2.520   1.665  1.3789  0.5556 -0.6193
  826MOL0     H11485   3.617   2.545   1.538  0.8954 -2.5955 -0.8387
  826MOL0     H11486   3.873   2.408   1.523  1.4613  0.7680  0.7298
  826MOL0     H11487   3.916   2.569   1.480 -1.1741  1.6793  2.1908
  826MOL0     H11488   3.715   2.558   1.313 -0.7130 -1.6201 -2.4855
  826MOL0     H11489   3.852   2.462   1.278  1.5493  0.1332  1.9051
  826MOL0     H11490   3.795   3.148   1.815 -2.2898 -0.0169  0.2182
  826MOL0     H11491   3.873   3.374   1.842 -1.7619  0.7932  0.2623
  826MOL0     H11492   3.972   3.689   2.193  1.5976 -1.5442  1.1280
  826MOL0     H11493   4.028   3.927   2.195  1.1828 -0.5491  2.3333
  826MOL0     H11494   3.646   5.302   0.983 -0.7214 -0.2440 -0.6645
  826MOL0     H11495   3.651   5.250   0.743  0.5303  0.7131  1.8146
  826MOL0     H11496   3.661   4.794   0.504 -1.0656  0.7139 -0.8767
  826MOL0     H11497   3.739   4.649   0.340  2.3872 -0.6106  0.5844
  826MOL0     H11498   3.724   4.743   0.015 -1.1758 -1.4557  0.7586
  826MOL0     H11499   3.753   4.590   0.107  1.0385  1.2663  3.7144
  826MOL0     H11500   3.888   4.707  -0.134  1.5577  0.0216  1.5809
  826MOL0     H11501   3.768   4.587  -0.141 -0.9585  1.2817  1.6943
  826MOL0     H11502   4.030   4.542   0.007 -0.4342  0.7578 -0.8962
  826MOL0     H11503   4.016   4.520  -0.165 -1.1696  1.2742 -1.0373
  826MOL0     H11504   3.977   4.297  -0.018 -0.5986 -0.8608 -1.0569
  826MOL0     H11505   3.830   4.394   0.033  1.8608  3.8312  0.2457
  826MOL0     H11506   3.827   4.256  -0.389  3.1016  2.2636 -1.3375
  826MOL0     H11507   3.931   4.966   0.133  0.7138 -1.7216 -0.9824
  826MOL0     H11508   3.961   5.193   0.374 -0.9809 -1.1395  2.2333
  826MOL0     H11509   3.896   5.186   0.205 -3.0027  0.2181 -0.6751
  826MOL0     H11510   3.794   5.243   0.345  0.7687  0.0842  1.3764
  827MOL0     O11511   8.868   9.977  10.751  0.1359 -0.2252 -0.0518
  827MOL0     C11512   8.960  10.039  10.803 -0.3767  0.0502 -0.6807
  827MOL0     O11513   8.992  10.165  10.784 -0.6669 -0.3518 -0.2692
  827MOL0     C11514   8.984  10.242  10.671  0.0273  0.6592  0.5063
  827MOL0     C11515   9.009  10.378  10.673 -0.3737 -0.4365 -0.4294
  827MOL0     C11516   8.999  10.466  10.560 -0.5692  0.4509  0.2745
  827MOL0     C11517   8.968  10.414  10.433  0.0679 -0.0459 -0.6255
  827MOL0     O11518   8.961  10.502  10.323 -0.7321  0.2406  0.0817
  827MOL0     C11519   9.083  10.561  10.283 -0.0801  0.2777 -0.1181
  827MOL0     C11520   9.123  10.517  10.142 -0.2978 -0.2440 -0.3199
  827MOL0     C11521   9.006  10.556  10.048 -0.3318  0.3181 -0.1630
  827MOL0     C11522   9.055  10.599   9.912  1.0975  0.0938  0.1094
  827MOL0     C11523   9.123  10.485   9.829 -0.2415  0.3488 -0.6187
  827MOL0     C11524   9.162  10.535   9.693  0.5142 -0.5220 -0.7866
  827MOL0     C11525   9.284  10.635   9.710 -0.1640  0.0544 -0.1860
  827MOL0     C11526   9.359  10.654   9.584 -0.9677 -0.3845 -0.1908
  827MOL0     N11527   9.502  10.707   9.604 -0.4908  0.7511 -0.3043
  827MOL0     C11528   9.535  10.837   9.559 -0.3828 -0.5649  0.1930
  827MOL0     C11529   9.646  10.859   9.637 -1.1207 -0.2310 -0.0622
  827MOL0     C11530   9.706  11.001   9.646 -0.9811 -0.3339 -0.3057
  827MOL0     C11531   9.857  11.003   9.612 -0.2282  0.1147 -0.3472
  827MOL0     C11532   9.887  10.942   9.465 -0.1581  0.5531 -1.3870
  827MOL0     C11533  10.032  10.957   9.412 -0.0100 -0.2993 -0.4466
  827MOL0     O11534  10.047  10.990   9.271  0.0298  0.6114  1.1262
  827MOL0     C11535   9.986  10.910   9.176  1.4818  0.9773 -0.8556
  827MOL0     C11536   9.955  10.967   9.053  0.7193  0.2768  0.5555
  827MOL0     C11537   9.895  10.890   8.950 -0.3146  0.2139  0.1648
  827MOL0     C11538   9.867  10.754   8.969 -0.1205 -0.3788  0.9637
  827MOL0     C11539   9.806  10.674   8.864  0.4482  0.0186 -0.9861
  827MOL0     O11540   9.751  10.558   8.905  0.4657  1.0514 -0.6765
  827MOL0     C11541   9.701  10.478   8.795 -1.1026  0.2344 -0.2966
  827MOL0     C11542   9.585  10.408   8.816  1.0524 -0.2960  0.8584
  827MOL0     C11543   9.530  10.320   8.723  0.1725 -0.1897 -0.0366
  827MOL0     C11544   9.610  10.296   8.605  0.0798 -0.2773 -1.0757
  827MOL0     O11545   9.567  10.200   8.519 -0.1064 -0.5201 -0.0068
  827MOL0     C11546   9.632  10.192   8.392  0.0634  0.3530  0.7169
  827MOL0     C11547   9.560  10.102   8.289  0.0366  0.3890 -0.1250
  827MOL0     C11548   9.607  10.134   8.143  1.6424 -0.0954 -0.5049
  827MOL0     C11549   9.512  10.070   8.037 -0.9995 -0.1833 -0.9825
  827MOL0     C11550   9.544  10.138   7.907  0.4220  0.2025  1.2167
  827MOL0     C11551   9.451  10.107   7.787 -0.0397  0.6201  0.5347
  827MOL0     C11552   9.442  10.205   7.670 -0.1779 -0.4055  0.6875
  827MOL0     C11553   9.306  10.222   7.611  0.1429  0.2218  0.3201
  827MOL0    Cl11554   9.272  10.067   7.539 -0.1502 -0.0066  0.2655
  827MOL0     C11555   9.732  10.368   8.582 -0.1185 -0.1794 -0.4442
  827MOL0     C11556   9.780  10.458   8.679 -0.1338 -0.8891 -0.9959
  827MOL0     O11557   9.800  10.724   8.752 -0.0987 -0.7602 -0.4441
  827MOL0     C11558   9.879  10.700   9.098 -0.2392 -0.5531  0.6162
  827MOL0     C11559   9.964  10.771   9.192  0.1202  1.5762 -0.0879
  827MOL0     N11560   9.685  10.748   9.710 -0.6223  0.5432  0.1380
  827MOL0     N11561   9.598  10.657   9.690  0.0879 -0.4032  0.3948
  827MOL0     C11562   8.949  10.275  10.424  0.4430  0.9372  0.0139
  827MOL0     C11563   8.952  10.192  10.542 -0.3121 -0.2491 -0.3049
  827MOL0     C11564   9.043   9.966  10.900  0.8718 -0.1754 -0.5644
  827MOL0     C11565   9.162  10.030  10.942 -0.2736  0.1119  0.5042
  827MOL0     C11566   9.247   9.969  11.031 -1.0510  0.6072 -0.1642
  827MOL0     C11567   9.231   9.832  11.067 -0.1796  0.6143 -0.6144
  827MOL0     O11568   9.333   9.775  11.146  0.9663  0.2454  0.2597
  827MOL0     C11569   9.323   9.635  11.190 -0.1173  0.3832  1.2103
  827MOL0     C11570   9.454   9.602  11.258 -0.3234 -0.5924  0.4729
  827MOL0     C11571   9.458   9.452  11.308 -0.6067  0.2473  0.3704
  827MOL0     C11572   9.580   9.441  11.403 -0.4393  0.5732 -0.8933
  827MOL0     C11573   9.555   9.500  11.536  0.3277 -0.2866  0.7162
  827MOL0     C11574   9.511   9.535  11.646  1.0141  0.1333  0.2387
  827MOL0     C11575   9.125   9.761  11.020 -0.3188 -0.6854  0.8699
  827MOL0     C11576   9.022   9.832  10.941 -1.0698 -0.7307  0.3428
  827MOL0     C11577   8.896   9.759  10.907 -0.0794 -0.1955 -1.1554
  827MOL0     H11578   9.005  10.423  10.772 -0.0953 -2.2710  0.4577
  827MOL0     H11579   9.017  10.572  10.572 -0.0756  0.4057 -0.0891
  827MOL0     H11580   9.075  10.670  10.273  0.6345  0.5099  1.6051
  827MOL0     H11581   9.152  10.535  10.364 -0.5177 -1.1839 -0.1905
  827MOL0     H11582   9.144  10.410  10.140 -1.1129 -0.5006  1.8517
  827MOL0     H11583   9.222  10.555  10.118  0.5707 -3.6508 -2.9395
  827MOL0     H11584   8.958  10.639  10.100 -0.0679 -1.1145  2.5459
  827MOL0     H11585   8.933  10.475  10.036 -0.7337  0.4693  1.1406
  827MOL0     H11586   8.978  10.641   9.847  0.3592 -0.0183  0.8864
  827MOL0     H11587   9.135  10.672   9.931  1.2615 -0.5819  2.2433
  827MOL0     H11588   9.212  10.440   9.872  1.6438  3.9044 -0.3844
  827MOL0     H11589   9.049  10.407   9.808  0.3259  0.5561 -4.0708
  827MOL0     H11590   9.189  10.453   9.627 -1.5620  0.1699 -2.6358
  827MOL0     H11591   9.081  10.575   9.631  0.9061  0.6328 -0.5800
  827MOL0     H11592   9.352  10.593   9.785  0.1433 -0.5114 -0.7777
  827MOL0     H11593   9.264  10.738   9.742  0.4655 -0.6765  2.8922
  827MOL0     H11594   9.357  10.560   9.527 -2.7268  0.0042 -0.8402
  827MOL0     H11595   9.310  10.726   9.518 -2.2351 -1.9280 -1.0013
  827MOL0     H11596   9.492  10.913   9.494  3.7347  1.7910 -0.1067
  827MOL0     H11597   9.647  11.065   9.580 -1.0543  4.7614  4.0023
  827MOL0     H11598   9.689  11.063   9.735 -0.8971  0.9408 -1.1497
  827MOL0     H11599   9.888  11.108   9.618 -1.0954  0.3063  2.1529
  827MOL0     H11600   9.917  10.950   9.686 -0.4063  1.7643  1.0496
  827MOL0     H11601   9.822  11.003   9.401 -1.6200  3.0573  2.1245
  827MOL0     H11602   9.859  10.837   9.458 -0.8323  0.7921 -2.5664
  827MOL0     H11603  10.087  10.866   9.437 -0.5604 -0.9840 -1.6439
  827MOL0     H11604  10.080  11.040   9.465 -0.0387  0.5870 -1.7422
  827MOL0     H11605   9.959  11.075   9.044 -1.1228  0.7843  3.9746
  827MOL0     H11606   9.892  10.933   8.851  1.7532 -1.9500 -0.9660
  827MOL0     H11607   9.532  10.428   8.909 -1.9997 -3.1461 -0.0656
  827MOL0     H11608   9.440  10.267   8.752  0.9977 -1.2453  0.6698
  827MOL0     H11609   9.660  10.290   8.353 -3.0603  0.4209 -1.7396
  827MOL0     H11610   9.722  10.131   8.403  0.7212  0.8961 -1.2348
  827MOL0     H11611   9.583   9.997   8.306  1.3041  0.6438 -0.1378
  827MOL0     H11612   9.453  10.122   8.299 -0.2989 -1.4916  0.3163
  827MOL0     H11613   9.602  10.241   8.121 -0.1748 -0.1616 -0.5248
  827MOL0     H11614   9.707  10.095   8.126  1.4092 -2.0479  1.9600
  827MOL0     H11615   9.410  10.103   8.057 -0.6094  1.9554 -2.1357
  827MOL0     H11616   9.520   9.961   8.037 -1.8089 -0.2434 -1.3754
  827MOL0     H11617   9.644  10.105   7.879 -0.1983 -4.4224  3.4983
  827MOL0     H11618   9.543  10.246   7.925  1.7554  0.6918 -1.2120
  827MOL0     H11619   9.465  10.001   7.763 -3.5063  0.1078  0.2819
  827MOL0     H11620   9.350  10.100   7.827  0.3924 -1.7679  1.3502
  827MOL0     H11621   9.506  10.165   7.591 -1.4808 -0.1052 -0.5708
  827MOL0     H11622   9.490  10.298   7.701  0.6305 -1.2668  2.1288
  827MOL0     H11623   9.223  10.248   7.677  0.9992  0.0681  1.4755
  827MOL0     H11624   9.313  10.301   7.535 -0.5271  0.2071  0.2363
  827MOL0     H11625   9.793  10.344   8.495 -0.4738  2.7128 -1.5958
  827MOL0     H11626   9.873  10.511   8.662 -1.2525  1.2825 -0.7519
  827MOL0     H11627   9.873  10.592   9.105  1.1276 -0.8292 -1.4285
  827MOL0     H11628   9.999  10.723   9.283 -0.1427 -0.3383 -0.9507
  827MOL0     H11629   8.938  10.249  10.319  0.7002  3.1672 -0.6021
  827MOL0     H11630   8.941  10.084  10.542  0.9215 -0.4072 -1.7029
  827MOL0     H11631   9.186  10.135  10.924 -1.1264  0.8254  3.1143
  827MOL0     H11632   9.331  10.023  11.075  1.1891 -0.5929 -2.6548
  827MOL0     H11633   9.306   9.564  11.108  1.4266  2.4593 -1.0414
  827MOL0     H11634   9.243   9.622  11.263  1.5654 -2.2305  2.7257
  827MOL0     H11635   9.470   9.673  11.339  1.0493 -1.8574  1.3766
  827MOL0     H11636   9.537   9.609  11.186  1.3023  2.2100  2.4531
  827MOL0     H11637   9.480   9.380  11.229 -1.4919 -1.1684  1.3584
  827MOL0     H11638   9.365   9.423  11.358  0.8463 -0.4985  2.8172
  827MOL0     H11639   9.607   9.335  11.416  2.7788  1.4328  0.4541
  827MOL0     H11640   9.670   9.480  11.354 -0.3494  1.6938  0.1303
  827MOL0     H11641   9.478   9.589  11.733  0.4946  0.6811 -0.2938
  827MOL0     H11642   9.118   9.655  11.042 -0.3048 -0.8689  0.0024
  827MOL0     H11643   8.912   9.711  10.810  2.4320  1.4352 -1.6386
  827MOL0     H11644   8.898   9.676  10.977 -0.1071 -1.8819 -3.0625
  827MOL0     H11645   8.798   9.808  10.905  0.3146  0.6931  0.0683
  828MOL0     O11646   8.489   2.870   8.386 -0.2649 -0.5063 -0.0952
  828MOL0     C11647   8.596   2.803   8.361 -0.0930  0.1783 -0.4884
  828MOL0     O11648   8.658   2.791   8.236  0.3012  0.0836 -0.5995
  828MOL0     C11649   8.594   2.848   8.130  0.1312 -1.0307  0.0304
  828MOL0     C11650   8.556   2.975   8.127  0.4766 -0.4773 -0.3491
  828MOL0     C11651   8.491   3.019   8.015 -0.4849 -0.5022  0.6828
  828MOL0     C11652   8.444   2.940   7.914 -0.7019 -0.4559  0.5882
  828MOL0     O11653   8.393   2.998   7.810 -0.1312  0.2149  0.1148
  828MOL0     C11654   8.283   2.949   7.730 -0.4076 -0.3707  0.6462
  828MOL0     C11655   8.149   2.950   7.800 -0.3277  0.2899 -0.6556
  828MOL0     C11656   8.082   3.090   7.812 -0.1141 -0.4787  0.0917
  828MOL0     C11657   8.022   3.154   7.676 -0.2882 -0.2174 -0.6441
  828MOL0     C11658   7.977   3.299   7.692  0.2165  0.6652  0.0344
  828MOL0     C11659   7.888   3.343   7.580 -0.6375 -0.3649  1.0274
  828MOL0     C11660   7.823   3.480   7.580 -0.3460  0.0934  0.3670
  828MOL0     C11661   7.715   3.493   7.477 -1.5963 -0.6559 -0.4951
  828MOL0     N11662   7.698   3.636   7.442 -0.3207 -0.1358 -0.3097
  828MOL0     C11663   7.638   3.732   7.515  0.1055  0.5260 -1.4130
  828MOL0     C11664   7.647   3.845   7.438  0.1817  1.6370 -0.9314
  828MOL0     C11665   7.597   3.974   7.482  0.4915 -1.1048  0.8641
  828MOL0     C11666   7.707   4.051   7.555 -1.4459  0.1384  0.5153
  828MOL0     C11667   7.656   4.179   7.610 -0.4841 -0.5113  0.0600
  828MOL0     C11668   7.749   4.237   7.714 -1.1057 -0.4631  0.6839
  828MOL0     O11669   7.833   4.140   7.770 -0.2733 -0.1053  0.5608
  828MOL0     C11670   7.912   4.170   7.872 -0.8143 -0.2993 -0.8236
  828MOL0     C11671   7.991   4.069   7.924  0.9508  0.0305 -0.5860
  828MOL0     C11672   8.067   4.087   8.039  0.2987  0.7759  0.3184
  828MOL0     C11673   8.085   4.217   8.091 -0.2422  0.7973 -0.0594
  828MOL0     C11674   8.180   4.238   8.195 -0.7503  0.2123 -0.1728
  828MOL0     O11675   8.259   4.134   8.244  0.1223 -0.2850  0.2606
  828MOL0     C11676   8.359   4.152   8.335  0.1646 -0.0043 -0.3656
  828MOL0     C11677   8.462   4.255   8.325 -0.1852 -0.2249 -0.4875
  828MOL0     C11678   8.566   4.267   8.426 -0.1157  0.8624 -0.1794
  828MOL0     C11679   8.565   4.175   8.536 -0.4170 -0.1067  1.1579
  828MOL0     O11680   8.650   4.166   8.644  0.2525  0.3315  0.8298
  828MOL0     C11681   8.749   4.268   8.653  0.5337 -0.5905  0.3660
  828MOL0     C11682   8.849   4.238   8.762  0.4349 -0.1143  0.6422
  828MOL0     C11683   8.805   4.233   8.903 -0.5573 -0.4163  0.6621
  828MOL0     C11684   8.733   4.102   8.951  0.7143 -0.1497  1.2707
  828MOL0     C11685   8.641   4.103   9.078 -0.8492  0.3264  0.7408
  828MOL0     C11686   8.529   3.989   9.077  0.5826 -0.5884 -0.3247
  828MOL0     C11687   8.447   3.965   9.203 -1.2155  0.2722 -0.5287
  828MOL0     C11688   8.398   4.093   9.266  0.1858 -0.2309 -0.5392
  828MOL0    Cl11689   8.289   4.187   9.153  0.8471 -0.3565 -0.1841
  828MOL0     C11690   8.471   4.074   8.540 -0.4213  0.3865 -0.3385
  828MOL0     C11691   8.377   4.057   8.441 -0.5952 -0.2085  0.7561
  828MOL0     O11692   8.185   4.344   8.242  0.0594 -0.5061  0.7384
  828MOL0     C11693   8.021   4.324   8.031 -0.2676 -0.1869 -0.9091
  828MOL0     C11694   7.932   4.292   7.925  0.2382 -0.5146 -0.6257
  828MOL0     N11695   7.704   3.815   7.321  0.5121 -0.3451 -0.7662
  828MOL0     N11696   7.747   3.696   7.327  0.3224 -0.3388  0.2415
  828MOL0     C11697   8.463   2.798   7.931 -0.1455 -0.1006  0.6100
  828MOL0     C11698   8.537   2.755   8.037 -0.4047  0.3261  0.0413
  828MOL0     C11699   8.638   2.707   8.473 -0.4486 -0.5469  0.0164
  828MOL0     C11700   8.743   2.628   8.442 -0.0218  0.0372 -0.4103
  828MOL0     C11701   8.793   2.538   8.534  0.3767  0.3759 -0.9160
  828MOL0     C11702   8.723   2.504   8.653 -0.2427  0.2387 -0.0680
  828MOL0     O11703   8.759   2.415   8.747 -0.0759  0.8517  0.4231
  828MOL0     C11704   8.902   2.372   8.758  0.5205  0.3294  0.3264
  828MOL0     C11705   8.922   2.283   8.873 -0.4282  0.3987  0.0169
  828MOL0     C11706   9.065   2.217   8.873  0.5832  0.5855 -0.3287
  828MOL0     C11707   9.056   2.136   9.007  0.2804 -0.5206 -0.0920
  828MOL0     C11708   9.190   2.094   9.042  0.3877 -0.0590 -1.0922
  828MOL0     C11709   9.296   2.076   9.094 -0.6651 -0.4948  0.7403
  828MOL0     C11710   8.612   2.583   8.692  0.6699  0.4755  0.7037
  828MOL0     C11711   8.565   2.681   8.599  0.5300 -0.1226 -0.0806
  828MOL0     C11712   8.449   2.771   8.658 -0.5107  0.1881  0.7104
  828MOL0     H11713   8.593   3.044   8.203 -0.4922 -0.1354 -0.1730
  828MOL0     H11714   8.467   3.123   7.997  0.3304 -0.7652 -2.5345
  828MOL0     H11715   8.268   3.003   7.636 -0.1511 -2.2080 -0.4966
  828MOL0     H11716   8.306   2.845   7.704  0.3192  0.3082 -1.6523
  828MOL0     H11717   8.156   2.903   7.898 -0.2539 -0.2793 -0.9242
  828MOL0     H11718   8.087   2.898   7.726 -1.0311  2.3548 -1.5905
  828MOL0     H11719   8.156   3.159   7.852 -2.0154  1.0407  1.1101
  828MOL0     H11720   7.999   3.082   7.882 -0.6372  3.1879  0.0607
  828MOL0     H11721   8.097   3.145   7.597  2.9199  0.1238  2.1829
  828MOL0     H11722   7.944   3.078   7.660  2.3063 -3.0548 -0.6626
  828MOL0     H11723   7.938   3.301   7.794 -3.0655  2.8400 -1.0631
  828MOL0     H11724   8.063   3.366   7.694  1.5727 -1.0363  1.3913
  828MOL0     H11725   7.956   3.335   7.495 -1.4158  0.2744  0.3349
  828MOL0     H11726   7.802   3.277   7.565 -1.4222  1.0670 -1.1080
  828MOL0     H11727   7.899   3.557   7.564 -1.1022  1.0975  1.4794
  828MOL0     H11728   7.777   3.483   7.679 -2.6528 -2.8011 -0.4628
  828MOL0     H11729   7.738   3.433   7.388 -2.4487 -0.9975 -0.4998
  828MOL0     H11730   7.621   3.461   7.524 -2.2613  0.1115 -1.2598
  828MOL0     H11731   7.612   3.725   7.620  1.6895 -3.9885 -1.1101
  828MOL0     H11732   7.556   4.031   7.398 -1.3845 -3.9293 -0.3044
  828MOL0     H11733   7.515   3.966   7.554 -1.8731  5.4559 -0.4071
  828MOL0     H11734   7.737   3.980   7.632 -1.0850  1.3786  1.5677
  828MOL0     H11735   7.795   4.068   7.493 -0.2030  0.8073  2.3824
  828MOL0     H11736   7.569   4.145   7.666 -0.4180 -0.2555  0.3145
  828MOL0     H11737   7.626   4.255   7.537  2.3021 -0.7304 -1.4586
  828MOL0     H11738   7.682   4.285   7.786 -1.6202 -3.4821  2.3935
  828MOL0     H11739   7.818   4.312   7.675  0.4416 -1.1089  2.0689
  828MOL0     H11740   7.972   3.971   7.882 -0.8234 -0.1785  0.5934
  828MOL0     H11741   8.112   4.000   8.085  0.3891  1.5900  1.8312
  828MOL0     H11742   8.466   4.329   8.247 -3.5227  1.3418  0.6306
  828MOL0     H11743   8.634   4.351   8.434  0.0738  0.8505 -1.5292
  828MOL0     H11744   8.806   4.281   8.561  1.8212  0.2998  1.2472
  828MOL0     H11745   8.689   4.355   8.683 -0.1618 -0.8739 -0.1880
  828MOL0     H11746   8.904   4.145   8.742  2.0503  0.8317  0.5205
  828MOL0     H11747   8.928   4.311   8.742  0.1791 -0.0386 -0.1027
  828MOL0     H11748   8.898   4.240   8.960  1.4493 -3.8716 -1.7868
  828MOL0     H11749   8.746   4.321   8.929  0.2755  1.0024 -1.8827
  828MOL0     H11750   8.814   4.029   8.964  1.4496  0.4489  0.2217
  828MOL0     H11751   8.672   4.071   8.865  0.6532  0.3419  1.1381
  828MOL0     H11752   8.585   4.197   9.071 -3.3735 -1.1096  0.0853
  828MOL0     H11753   8.694   4.099   9.173 -1.7429 -1.6441  1.2059
  828MOL0     H11754   8.462   4.004   8.992  0.8733  1.8896 -0.1690
  828MOL0     H11755   8.588   3.900   9.052  0.5078 -0.2960 -1.6298
  828MOL0     H11756   8.498   3.900   9.274  0.7172 -1.2474 -3.1243
  828MOL0     H11757   8.357   3.910   9.174 -0.9357 -0.4015 -0.1343
  828MOL0     H11758   8.349   4.074   9.362  2.0846  2.2789  1.0508
  828MOL0     H11759   8.483   4.160   9.283  0.0942 -0.6527  1.9330
  828MOL0     H11760   8.479   3.994   8.612  0.2768  1.0393  0.3229
  828MOL0     H11761   8.305   3.977   8.459 -2.2806  0.8361 -0.8548
  828MOL0     H11762   8.025   4.428   8.064  1.3095  0.3049 -2.4766
  828MOL0     H11763   7.860   4.369   7.899 -0.1302 -0.0263  1.6431
  828MOL0     H11764   8.423   2.730   7.856  2.5124  0.0966 -1.1648
  828MOL0     H11765   8.563   2.649   8.037  0.5435  0.5141 -1.9241
  828MOL0     H11766   8.802   2.631   8.350  0.3497  0.0571 -0.1723
  828MOL0     H11767   8.880   2.478   8.514 -0.3405 -0.0903 -2.7714
  828MOL0     H11768   8.966   2.458   8.773 -0.1724  1.4031 -2.2784
  828MOL0     H11769   8.942   2.312   8.675 -0.4275 -1.8303  1.3444
  828MOL0     H11770   8.847   2.206   8.855  0.0554 -0.6151  2.1140
  828MOL0     H11771   8.904   2.330   8.970 -0.8026  1.5667 -0.6011
  828MOL0     H11772   9.141   2.295   8.880  1.2010  0.0644 -1.0284
  828MOL0     H11773   9.084   2.156   8.784 -1.8508 -2.3896  1.0214
  828MOL0     H11774   9.011   2.191   9.090  0.3466 -1.2399  0.4260
  828MOL0     H11775   9.005   2.041   8.993  1.8574 -1.8582  2.5420
  828MOL0     H11776   9.398   2.065   9.125  0.8785 -1.6064 -3.9326
  828MOL0     H11777   8.558   2.555   8.782  0.0602  0.8506  0.4564
  828MOL0     H11778   8.463   2.873   8.619 -0.2003 -0.5492 -1.2444
  828MOL0     H11779   8.353   2.732   8.622 -0.6454 -0.5862  1.8907
  828MOL0     H11780   8.444   2.762   8.767 -0.7258 -0.4571  0.6523
  829MOL0     O11781   2.274   4.848   0.762 -0.1313  0.2863  0.3838
  829MOL0     C11782   2.339   4.891   0.666 -0.4116  0.0637 -0.9467
  829MOL0     O11783   2.381   5.024   0.662  0.2243  0.2953  0.1952
  829MOL0     C11784   2.414   5.075   0.783 -1.4040  0.3194  0.4998
  829MOL0     C11785   2.485   4.996   0.881 -0.1459  0.2980  0.4596
  829MOL0     C11786   2.513   5.060   0.998 -0.4933  0.9059 -0.5955
  829MOL0     C11787   2.473   5.188   1.030 -0.5956 -0.6291  0.0396
  829MOL0     O11788   2.488   5.219   1.159  0.2522  0.1365  0.3780
  829MOL0     C11789   2.444   5.341   1.223  0.1702  0.1431  0.0867
  829MOL0     C11790   2.378   5.322   1.358 -0.8646  0.3098 -0.2418
  829MOL0     C11791   2.276   5.209   1.366 -0.0729 -0.5946  0.2302
  829MOL0     C11792   2.227   5.191   1.503 -0.4631  0.5438  0.1587
  829MOL0     C11793   2.075   5.145   1.506 -0.6510  0.8101 -0.3324
  829MOL0     C11794   2.041   5.100   1.648  0.8745 -0.0123  0.2760
  829MOL0     C11795   1.903   5.047   1.657 -0.5861  0.7653  0.1113
  829MOL0     C11796   1.784   5.128   1.599 -0.2400 -0.1453 -0.8044
  829MOL0     N11797   1.780   5.263   1.665  0.7389  0.1410  0.1810
  829MOL0     C11798   1.799   5.291   1.803  0.5142  0.5030 -1.1177
  829MOL0     C11799   1.741   5.416   1.812 -0.4770 -0.0871  0.2354
  829MOL0     C11800   1.745   5.499   1.934 -0.0495  1.0692 -0.3323
  829MOL0     C11801   1.612   5.591   1.944  0.0269 -0.6117 -0.0523
  829MOL0     C11802   1.580   5.644   2.089 -0.0871  0.6526 -0.8466
  829MOL0     C11803   1.709   5.721   2.133  0.7880  0.2758  0.6516
  829MOL0     O11804   1.809   5.628   2.170 -0.2418 -0.2953  0.0756
  829MOL0     C11805   1.923   5.671   2.240 -0.6222 -0.1757  0.6089
  829MOL0     C11806   1.904   5.710   2.375 -0.3806  0.5151 -0.0731
  829MOL0     C11807   2.007   5.754   2.455 -0.3982 -0.1422 -0.0031
  829MOL0     C11808   2.136   5.762   2.391 -0.5864 -0.4255  1.0166
  829MOL0     C11809   2.247   5.811   2.469 -0.6867 -0.6092  0.1486
  829MOL0     O11810   2.237   5.813   2.605 -0.0047  0.8923 -1.0089
  829MOL0     C11811   2.333   5.879   2.671 -0.3609 -0.2787 -0.4353
  829MOL0     C11812   2.418   5.812   2.757 -0.6679  0.1462  0.5177
  829MOL0     C11813   2.504   5.886   2.835 -0.3865 -0.3689 -0.1824
  829MOL0     C11814   2.532   6.025   2.814 -0.9928  0.4556  0.7609
  829MOL0     O11815   2.631   6.105   2.870  0.6870 -0.3311 -0.0504
  829MOL0     C11816   2.751   6.041   2.927 -0.7470  0.1164  0.3087
  829MOL0     C11817   2.860   6.151   2.963  0.0624  0.6843  0.3184
  829MOL0     C11818   3.007   6.094   2.948 -0.2689  0.7514  0.4259
  829MOL0     C11819   3.030   5.980   3.055 -0.4293 -0.4251  0.1186
  829MOL0     C11820   3.183   5.953   3.032 -0.5935 -0.0928 -0.0153
  829MOL0     C11821   3.239   5.846   3.120  0.2506  0.5565 -0.6585
  829MOL0     C11822   3.162   5.707   3.087 -0.1436 -0.1067 -0.2436
  829MOL0     C11823   3.204   5.600   3.185 -0.8193 -0.2116  1.5476
  829MOL0    Cl11824   3.081   5.474   3.169 -0.6897  0.0713  0.1735
  829MOL0     C11825   2.464   6.083   2.706  0.9696 -0.4616 -0.3253
  829MOL0     C11826   2.360   6.017   2.646  0.7963 -0.4754 -0.8257
  829MOL0     O11827   2.348   5.849   2.407  0.4429  0.2788  0.0204
  829MOL0     C11828   2.156   5.723   2.262 -0.0286  0.4994  0.4104
  829MOL0     C11829   2.054   5.674   2.188  0.6541  0.1684  0.5624
  829MOL0     N11830   1.683   5.449   1.693 -0.6392  0.0589 -0.8385
  829MOL0     N11831   1.705   5.357   1.605 -0.1359 -0.3296  0.1525
  829MOL0     C11832   2.419   5.277   0.929 -0.3653 -0.1350  0.1273
  829MOL0     C11833   2.396   5.204   0.815 -0.7232 -0.0846  1.4596
  829MOL0     C11834   2.334   4.816   0.545  0.2469  0.0754  0.4235
  829MOL0     C11835   2.305   4.884   0.430  0.6179  0.2403  0.3258
  829MOL0     C11836   2.292   4.827   0.305 -0.7346 -0.3582 -0.0459
  829MOL0     C11837   2.315   4.692   0.293 -0.0835  0.2086  0.3625
  829MOL0     O11838   2.285   4.638   0.167 -0.2480  0.0994 -0.5923
  829MOL0     C11839   2.340   4.512   0.142 -0.8580 -0.6322  0.3075
  829MOL0     C11840   2.316   4.451   0.010  0.4621  0.8528 -0.0677
  829MOL0     C11841   2.375   4.532  -0.108 -0.1724  0.0177  0.4590
  829MOL0     C11842   2.402   4.450  -0.238 -0.2349 -0.1496  0.2060
  829MOL0     C11843   2.295   4.356  -0.270 -0.8859 -0.5144 -0.4601
  829MOL0     C11844   2.205   4.275  -0.298  0.2647  0.1664 -0.6189
  829MOL0     C11845   2.357   4.620   0.410 -0.1452 -0.7680 -0.0446
  829MOL0     C11846   2.351   4.677   0.535 -0.8269 -1.0549  0.2367
  829MOL0     C11847   2.396   4.588   0.649  0.5020 -1.0455 -0.5299
  829MOL0     H11848   2.497   4.892   0.852 -2.1898  0.3490 -0.7534
  829MOL0     H11849   2.550   4.990   1.072 -1.0835  0.8074 -0.3937
  829MOL0     H11850   2.534   5.403   1.232  2.1597 -2.6342  0.4278
  829MOL0     H11851   2.371   5.401   1.168  0.3457 -0.4130 -0.7713
  829MOL0     H11852   2.341   5.421   1.386 -1.8094  0.0942 -0.6621
  829MOL0     H11853   2.456   5.290   1.427 -0.8525 -2.7143 -1.4899
  829MOL0     H11854   2.322   5.113   1.341 -0.3820 -0.9627  1.0258
  829MOL0     H11855   2.197   5.228   1.293  2.1111 -3.9209 -3.3453
  829MOL0     H11856   2.293   5.124   1.558 -0.9906  0.3632  0.5719
  829MOL0     H11857   2.238   5.287   1.554  3.3126 -0.3494  1.3712
  829MOL0     H11858   2.014   5.227   1.468 -0.6805  0.7978 -0.3116
  829MOL0     H11859   2.066   5.057   1.441  0.5333 -0.8842  1.6623
  829MOL0     H11860   2.113   5.018   1.659  0.5541 -0.3628 -0.1772
  829MOL0     H11861   2.064   5.174   1.725 -3.0728  1.2480  0.4184
  829MOL0     H11862   1.881   5.013   1.759  0.8692  0.3998  0.3256
  829MOL0     H11863   1.905   4.951   1.604 -0.0494  1.0027 -0.3182
  829MOL0     H11864   1.791   5.151   1.493  1.7897  0.9000 -0.5124
  829MOL0     H11865   1.697   5.074   1.636  0.3541 -0.2622  0.4856
  829MOL0     H11866   1.858   5.241   1.879  1.7313 -0.4688 -2.6478
  829MOL0     H11867   1.747   5.422   2.012 -1.5084  0.9262 -0.4015
  829MOL0     H11868   1.835   5.560   1.928 -0.5129  1.9749  1.4619
  829MOL0     H11869   1.613   5.669   1.867  3.5010 -0.3521  0.0883
  829MOL0     H11870   1.520   5.534   1.928 -0.3467  0.3282 -1.4285
  829MOL0     H11871   1.555   5.567   2.163 -0.0033  1.4962  0.0847
  829MOL0     H11872   1.493   5.710   2.095  0.5550  1.4925 -0.4513
  829MOL0     H11873   1.696   5.788   2.218 -2.7668  2.7350 -1.5494
  829MOL0     H11874   1.750   5.776   2.048 -0.5060 -0.7510 -0.6830
  829MOL0     H11875   1.800   5.706   2.407 -0.2494  1.0898  0.4551
  829MOL0     H11876   1.991   5.791   2.556 -0.5266  1.6378 -0.6483
  829MOL0     H11877   2.403   5.705   2.766 -3.4713  0.5665  1.6192
  829MOL0     H11878   2.558   5.839   2.917  2.3104  1.4988 -0.7312
  829MOL0     H11879   2.727   5.972   3.009  1.9404 -0.4947  0.6722
  829MOL0     H11880   2.799   5.974   2.855  0.4125 -1.0455  2.0812
  829MOL0     H11881   2.842   6.236   2.897 -0.5020 -0.1014 -0.5601
  829MOL0     H11882   2.844   6.170   3.070  1.6452 -2.7816  1.3169
  829MOL0     H11883   3.010   6.053   2.847  0.3111  1.1240  0.2905
  829MOL0     H11884   3.066   6.186   2.952 -1.0594  1.3030 -0.2004
  829MOL0     H11885   2.962   5.899   3.025 -2.3481  1.2280 -0.1817
  829MOL0     H11886   3.017   6.014   3.158  1.2682  0.7925 -0.0266
  829MOL0     H11887   3.244   6.043   3.035  2.4208 -1.9856 -0.5817
  829MOL0     H11888   3.185   5.921   2.927 -3.1596 -0.4301 -0.0248
  829MOL0     H11889   3.344   5.827   3.095  0.5973 -0.2393  1.2317
  829MOL0     H11890   3.237   5.864   3.227 -0.5060  0.3399 -0.6288
  829MOL0     H11891   3.195   5.678   2.987 -0.4725  0.4401 -0.5153
  829MOL0     H11892   3.056   5.734   3.090  0.3465  1.9314  1.7229
  829MOL0     H11893   3.308   5.575   3.163 -1.0207 -3.2786  3.6179
  829MOL0     H11894   3.196   5.623   3.292  1.5087 -0.6445  1.8829
  829MOL0     H11895   2.477   6.189   2.686 -1.1251 -0.7716 -4.4240
  829MOL0     H11896   2.295   6.068   2.575 -4.2262  0.0436  3.5008
  829MOL0     H11897   2.249   5.741   2.209 -0.5852 -1.6979 -1.4517
  829MOL0     H11898   2.069   5.655   2.082 -0.7850  2.6619 -0.1641
  829MOL0     H11899   2.383   5.380   0.931 -0.6764 -0.1804 -1.8670
  829MOL0     H11900   2.330   5.258   0.747  0.7331  0.9682  0.8263
  829MOL0     H11901   2.286   4.991   0.433 -0.7420  0.0369 -0.2388
  829MOL0     H11902   2.269   4.886   0.217 -0.1218 -3.2018 -2.2675
  829MOL0     H11903   2.313   4.441   0.221  3.0927 -0.9750  1.5626
  829MOL0     H11904   2.448   4.526   0.152 -0.9343  0.6814 -0.4434
  829MOL0     H11905   2.207   4.442  -0.002  0.5964 -1.4958 -0.1074
  829MOL0     H11906   2.352   4.348   0.023 -0.0759  0.5362 -0.9798
  829MOL0     H11907   2.464   4.589  -0.082 -0.3401  0.6859 -0.4139
  829MOL0     H11908   2.292   4.598  -0.134 -1.1907 -0.9678  1.1349
  829MOL0     H11909   2.407   4.521  -0.321 -0.4008 -0.3181  0.0498
  829MOL0     H11910   2.502   4.409  -0.224  0.4470  1.0948 -0.8307
  829MOL0     H11911   2.121   4.209  -0.294  0.3095 -0.0747 -2.8408
  829MOL0     H11912   2.370   4.512   0.404 -1.7343 -1.0711  1.3994
  829MOL0     H11913   2.497   4.622   0.671 -1.1603  2.8955  2.3352
  829MOL0     H11914   2.346   4.606   0.745  0.6486 -0.2399 -0.5937
  829MOL0     H11915   2.388   4.480   0.635 -0.6119 -0.8549 -1.5896
  830MOL0     O11916   1.243   9.030   5.300 -0.9539  0.3694 -0.2346
  830MOL0     C11917   1.211   9.001   5.189 -0.3405  0.6991 -0.2296
  830MOL0     O11918   1.271   8.910   5.111 -0.3786  0.3040  0.3993
  830MOL0     C11919   1.318   8.803   5.175 -1.0369 -0.5548  0.4673
  830MOL0     C11920   1.438   8.822   5.262  0.2347  1.2693  0.6268
  830MOL0     C11921   1.502   8.708   5.317  0.0649 -0.5350 -0.4422
  830MOL0     C11922   1.443   8.580   5.294 -0.0120 -0.1780 -0.0158
  830MOL0     O11923   1.516   8.464   5.321  0.1968  0.2473  1.1524
  830MOL0     C11924   1.659   8.467   5.327 -0.2249 -0.6835  0.3253
  830MOL0     C11925   1.690   8.347   5.422 -0.1153  0.0326  0.4214
  830MOL0     C11926   1.657   8.209   5.361 -1.0744  0.8249 -0.1803
  830MOL0     C11927   1.511   8.158   5.380 -0.1952 -0.1050 -0.1177
  830MOL0     C11928   1.493   8.004   5.359  0.2964  0.4787 -0.6806
  830MOL0     C11929   1.347   7.937   5.386 -0.1156 -0.1564 -0.7910
  830MOL0     C11930   1.256   7.960   5.261 -0.0884 -0.3089 -0.8035
  830MOL0     C11931   1.144   7.847   5.248 -0.0756  0.7904 -0.0780
  830MOL0     N11932   1.039   7.866   5.347 -0.3090  0.4695  0.8713
  830MOL0     C11933   1.029   7.794   5.461  0.2024 -0.0189 -0.6793
  830MOL0     C11934   0.920   7.840   5.529 -1.4486  0.0965 -0.2329
  830MOL0     C11935   0.885   7.824   5.672 -0.6069 -1.0409 -0.9655
  830MOL0     C11936   0.992   7.885   5.775  0.7955  0.4230  0.6165
  830MOL0     C11937   0.934   7.867   5.918 -0.8035  0.4252 -0.0671
  830MOL0     C11938   0.909   7.995   5.999  0.5938  1.1518  0.2507
  830MOL0     O11939   0.807   7.949   6.097 -0.3779  1.0523 -0.2313
  830MOL0     C11940   0.721   8.035   6.154 -0.2355  0.3360  0.9073
  830MOL0     C11941   0.614   7.962   6.204  0.1996  0.0428  0.3162
  830MOL0     C11942   0.515   8.036   6.271  0.4443 -0.5197  0.0496
  830MOL0     C11943   0.523   8.179   6.273 -0.0264 -0.4322  0.7458
  830MOL0     C11944   0.413   8.255   6.350 -0.6023 -0.2373  1.2783
  830MOL0     O11945   0.434   8.390   6.364 -0.4397 -0.3374 -0.3323
  830MOL0     C11946   0.337   8.479   6.400 -0.4638 -0.2728  0.3388
  830MOL0     C11947   0.212   8.463   6.454  0.4796 -0.0916  0.4751
  830MOL0     C11948   0.125   8.566   6.506 -0.5812 -0.9152  0.8527
  830MOL0     C11949   0.177   8.700   6.511 -0.0072 -0.4325  0.0415
  830MOL0     O11950   0.122   8.807   6.582  0.0492  0.1041  0.6146
  830MOL0     C11951  -0.020   8.813   6.604  0.0225 -0.3291  0.5302
  830MOL0     C11952  -0.061   8.958   6.572  0.2728  0.9178 -0.8711
  830MOL0     C11953  -0.208   8.977   6.538 -0.0207  0.8221 -0.1966
  830MOL0     C11954  -0.259   9.118   6.561  1.0691  0.0447  0.1199
  830MOL0     C11955  -0.404   9.124   6.507 -1.1075 -0.8809  0.6925
  830MOL0     C11956  -0.453   9.272   6.518  0.1602  0.0767  0.1292
  830MOL0     C11957  -0.607   9.302   6.482  0.4600  0.1438  0.0745
  830MOL0     C11958  -0.632   9.452   6.445 -0.2073  0.7201 -0.4955
  830MOL0    Cl11959  -0.629   9.545   6.603 -0.1588 -0.0494  0.0715
  830MOL0     C11960   0.311   8.721   6.469 -1.0770  0.9949  0.4337
  830MOL0     C11961   0.386   8.609   6.417 -1.2815  0.3776  0.8957
  830MOL0     O11962   0.318   8.192   6.396  0.7678  0.6720  0.4897
  830MOL0     C11963   0.626   8.247   6.222 -0.3722 -0.2457  0.4613
  830MOL0     C11964   0.735   8.171   6.162 -0.4950  0.2904 -0.3461
  830MOL0     N11965   0.868   7.945   5.451 -0.9345 -0.0797  0.2841
  830MOL0     N11966   0.948   7.967   5.347 -0.2622  0.1120  0.0819
  830MOL0     C11967   1.321   8.567   5.229 -0.3895  0.6915 -0.0843
  830MOL0     C11968   1.258   8.679   5.167  0.5302 -1.0578  0.1577
  830MOL0     C11969   1.093   9.064   5.146 -0.1207  0.0894 -0.6436
  830MOL0     C11970   1.044   9.033   5.014 -0.6411  0.2772 -0.8518
  830MOL0     C11971   0.926   9.089   4.957 -0.0267  0.4661  0.1932
  830MOL0     C11972   0.857   9.178   5.027  0.1803  0.4183 -1.0919
  830MOL0     O11973   0.743   9.226   4.967  0.1529  0.1646 -0.5680
  830MOL0     C11974   0.654   9.322   5.026 -0.2839  0.9100 -0.0239
  830MOL0     C11975   0.598   9.423   4.926 -0.5008 -0.5784  0.3525
  830MOL0     C11976   0.546   9.371   4.798 -0.3646  0.3029 -0.4001
  830MOL0     C11977   0.405   9.303   4.808  0.8512  0.8798 -0.0190
  830MOL0     C11978   0.309   9.412   4.832  0.7082 -0.8614  0.7313
  830MOL0     C11979   0.228   9.502   4.851  0.2589  0.0569 -0.8467
  830MOL0     C11980   0.912   9.222   5.146  0.2467  0.4756 -1.0843
  830MOL0     C11981   1.017   9.169   5.214 -1.0149  0.6177  0.0134
  830MOL0     C11982   1.047   9.227   5.344 -0.4023 -0.4812  0.7383
  830MOL0     H11983   1.489   8.915   5.281 -0.2741  1.6343  0.2403
  830MOL0     H11984   1.589   8.730   5.378  0.4546 -1.4881 -0.6323
  830MOL0     H11985   1.697   8.448   5.226  1.6257 -1.5667  1.1508
  830MOL0     H11986   1.712   8.553   5.369  0.2538 -0.9563  0.2805
  830MOL0     H11987   1.648   8.355   5.523 -0.7922  0.5158  0.1072
  830MOL0     H11988   1.796   8.341   5.449  0.6817 -1.2194 -2.5734
  830MOL0     H11989   1.730   8.138   5.402  0.9325  1.5966 -2.1794
  830MOL0     H11990   1.665   8.207   5.252 -2.2352 -1.7490 -0.3027
  830MOL0     H11991   1.484   8.174   5.484 -0.8609  0.3038 -0.3527
  830MOL0     H11992   1.442   8.221   5.323  0.0507 -0.2256 -0.5590
  830MOL0     H11993   1.521   7.977   5.256  1.7811 -1.5919  0.1984
  830MOL0     H11994   1.566   7.950   5.420 -0.4475 -3.7896 -3.1172
  830MOL0     H11995   1.362   7.829   5.390  0.9152  0.0192  0.6246
  830MOL0     H11996   1.306   7.964   5.484  1.2877  0.4499 -0.3452
  830MOL0     H11997   1.317   7.945   5.171  0.8598 -3.2442  0.1724
  830MOL0     H11998   1.226   8.064   5.251  1.8203  0.1663 -2.4137
  830MOL0     H11999   1.102   7.874   5.151 -3.5875  1.5697  1.5252
  830MOL0     H12000   1.188   7.747   5.260  0.5423  1.1009  0.3066
  830MOL0     H12001   1.096   7.713   5.491  1.9363  1.1953 -1.1060
  830MOL0     H12002   0.783   7.854   5.699  0.8296  0.9846  3.1353
  830MOL0     H12003   0.889   7.716   5.688  1.0181 -0.8028  0.6607
  830MOL0     H12004   1.091   7.840   5.764  0.4473 -0.2018 -0.0462
  830MOL0     H12005   1.001   7.993   5.760  0.3919  1.0083  3.8697
  830MOL0     H12006   1.015   7.810   5.964  1.4023  3.6600  0.3919
  830MOL0     H12007   0.842   7.808   5.908 -0.4065 -0.7706  2.5190
  830MOL0     H12008   0.854   8.064   5.936 -0.4150  1.2100  1.1619
  830MOL0     H12009   0.995   8.031   6.057  1.3850 -0.5684  0.2179
  830MOL0     H12010   0.626   7.854   6.207  3.2562  0.3096  1.1921
  830MOL0     H12011   0.421   7.991   6.303 -1.8287  3.9411  0.4789
  830MOL0     H12012   0.167   8.366   6.472 -0.8283  0.7822  2.2040
  830MOL0     H12013   0.033   8.531   6.551 -1.2297 -0.0025  0.2738
  830MOL0     H12014  -0.077   8.753   6.533  1.5273 -0.3613 -0.6805
  830MOL0     H12015  -0.043   8.781   6.706 -1.6465 -4.0989 -0.8457
  830MOL0     H12016  -0.022   9.019   6.655 -0.7152 -0.1422  0.4237
  830MOL0     H12017  -0.008   8.990   6.482  1.0831 -1.2516 -1.2165
  830MOL0     H12018  -0.221   8.947   6.433 -4.3107  0.5518  0.2392
  830MOL0     H12019  -0.258   8.897   6.593  0.0466 -1.0807 -2.7008
  830MOL0     H12020  -0.194   9.186   6.505 -0.7906  2.0005  0.2103
  830MOL0     H12021  -0.243   9.153   6.664  1.5127  0.4337 -0.0762
  830MOL0     H12022  -0.468   9.054   6.561 -1.1635 -2.5799 -1.4599
  830MOL0     H12023  -0.408   9.089   6.403 -0.0164 -0.5251  0.5121
  830MOL0     H12024  -0.437   9.303   6.621 -2.0304 -1.8640  1.1226
  830MOL0     H12025  -0.388   9.340   6.461  0.6285 -0.3111  0.1940
  830MOL0     H12026  -0.674   9.261   6.559  0.6491  1.7497  1.1383
  830MOL0     H12027  -0.618   9.234   6.397 -0.6981  1.3326 -0.7654
  830MOL0     H12028  -0.544   9.472   6.384  0.8200  0.4813  0.8547
  830MOL0     H12029  -0.728   9.463   6.395  0.0873  0.4049 -1.1471
  830MOL0     H12030   0.351   8.821   6.478  1.4750  0.1009 -0.2520
  830MOL0     H12031   0.494   8.609   6.405 -0.7244 -2.3957  4.2641
  830MOL0     H12032   0.626   8.355   6.217  0.1891 -0.2396  0.4439
  830MOL0     H12033   0.831   8.204   6.123  1.7147 -5.5687 -0.9394
  830MOL0     H12034   1.294   8.463   5.214  0.2420  0.9824 -4.6203
  830MOL0     H12035   1.172   8.667   5.102 -2.3679  2.0545  3.0031
  830MOL0     H12036   1.105   8.963   4.957  1.5093  0.4254  1.0807
  830MOL0     H12037   0.917   9.067   4.851  1.1135 -0.7968  0.3258
  830MOL0     H12038   0.699   9.375   5.111  0.3133 -0.2092  0.3809
  830MOL0     H12039   0.579   9.256   5.070 -0.2230 -1.8742 -3.6796
  830MOL0     H12040   0.680   9.488   4.894  0.7852 -2.1546  0.3131
  830MOL0     H12041   0.525   9.492   4.970 -2.2114 -3.2197  1.9123
  830MOL0     H12042   0.610   9.292   4.759 -1.2038 -1.1642  1.0675
  830MOL0     H12043   0.538   9.458   4.732 -0.6982  1.5952  1.2651
  830MOL0     H12044   0.382   9.245   4.718  0.3767 -0.0063  0.6667
  830MOL0     H12045   0.392   9.227   4.885 -1.0943  0.5784 -0.5926
  830MOL0     H12046   0.162   9.584   4.868  2.0798  1.1913  1.3649
  830MOL0     H12047   0.876   9.313   5.193 -0.7097  0.8155 -2.4237
  830MOL0     H12048   1.151   9.258   5.350 -1.0648  2.4097 -0.8691
  830MOL0     H12049   0.993   9.318   5.371 -2.1104 -0.9791 -0.7515
  830MOL0     H12050   1.030   9.152   5.422  0.3522 -0.2026  1.1803
  831MOL0     O12051   0.823   3.777  11.124  0.6557 -0.0236 -0.6268
  831MOL0     C12052   0.831   3.657  11.104 -1.0461  0.1415  0.5471
  831MOL0     O12053   0.785   3.551  11.179  0.2031 -0.2466  0.1121
  831MOL0     C12054   0.693   3.557  11.276  0.1290 -0.4786 -0.0319
  831MOL0     C12055   0.683   3.441  11.351 -0.2973  0.4368  0.1432
  831MOL0     C12056   0.591   3.430  11.454 -0.0946 -0.1474  0.4452
  831MOL0     C12057   0.501   3.538  11.478 -0.2577  1.1131  0.5172
  831MOL0     O12058   0.420   3.525  11.592  0.2136 -0.4935 -0.1919
  831MOL0     C12059   0.285   3.564  11.593  0.4661  0.3785  0.3782
  831MOL0     C12060   0.197   3.480  11.500  0.2838  0.3228 -0.2312
  831MOL0     C12061   0.043   3.510  11.524 -0.0254 -0.8117 -0.0414
  831MOL0     C12062  -0.026   3.551  11.392  0.0080 -0.5843 -0.5908
  831MOL0     C12063   0.010   3.698  11.359  0.3599  0.3013 -0.1408
  831MOL0     C12064  -0.014   3.719  11.211  0.1947 -0.2352 -0.0621
  831MOL0     C12065   0.111   3.745  11.129 -0.0994 -0.6854 -0.1650
  831MOL0     C12066   0.131   3.902  11.135 -0.4334 -0.0408 -0.2720
  831MOL0     N12067   0.234   3.941  11.037 -0.8161 -0.4875  0.2514
  831MOL0     C12068   0.364   3.936  11.073  0.6491 -0.9399 -0.5846
  831MOL0     C12069   0.431   3.919  10.961 -0.3660 -0.3809  0.9911
  831MOL0     C12070   0.581   3.911  10.936  0.4048  0.2286  0.2479
  831MOL0     C12071   0.645   4.024  10.849  0.4669  0.2455 -0.5321
  831MOL0     C12072   0.796   4.043  10.872  0.4737 -0.2350 -0.2039
  831MOL0     C12073   0.859   4.098  10.746  0.2679  0.0283 -0.1508
  831MOL0     O12074   0.975   4.172  10.771  0.3788 -0.7990  0.2214
  831MOL0     C12075   1.089   4.098  10.785  0.4294 -0.2514  0.4369
  831MOL0     C12076   1.125   4.044  10.908  0.1776 -1.1214 -0.3843
  831MOL0     C12077   1.242   3.972  10.922 -0.0921  0.9678  1.4284
  831MOL0     C12078   1.325   3.940  10.799 -0.4008  0.8238 -0.7469
  831MOL0     C12079   1.454   3.870  10.809 -0.6445 -1.2047 -0.0113
  831MOL0     O12080   1.497   3.829  10.933 -0.0288 -0.2936 -0.5072
  831MOL0     C12081   1.604   3.738  10.956  0.5417  0.0143  0.2651
  831MOL0     C12082   1.590   3.657  11.064 -0.4217  0.2705 -0.1961
  831MOL0     C12083   1.680   3.556  11.100  0.5545  0.1623  0.7152
  831MOL0     C12084   1.791   3.539  11.019  0.0533  0.1651  0.2413
  831MOL0     O12085   1.900   3.448  11.039 -0.6507 -0.0521 -0.4213
  831MOL0     C12086   1.876   3.336  11.116  0.0495  0.4181 -0.2127
  831MOL0     C12087   1.991   3.256  11.096 -0.1420 -0.3294  0.2964
  831MOL0     C12088   2.015   3.208  10.946 -0.8040  1.3404 -0.4611
  831MOL0     C12089   2.070   3.068  10.915  0.3189  0.5231  0.0705
  831MOL0     C12090   2.198   3.041  10.989 -0.1609  0.1264  0.3338
  831MOL0     C12091   2.224   2.894  10.976 -0.4519  0.0808 -0.3698
  831MOL0     C12092   2.249   2.845  10.835 -0.1200  0.2499  0.2830
  831MOL0     C12093   2.328   2.707  10.842 -0.1950 -0.2089  0.0188
  831MOL0    Cl12094   2.340   2.621  10.678 -0.6695 -0.1588  0.0588
  831MOL0     C12095   1.806   3.631  10.908  1.0984 -0.1961  1.0729
  831MOL0     C12096   1.718   3.731  10.875  0.5761  0.6798 -0.7542
  831MOL0     O12097   1.511   3.846  10.705 -0.2328  0.0965 -0.5642
  831MOL0     C12098   1.284   3.991  10.681  0.8290 -0.0455  0.6225
  831MOL0     C12099   1.158   4.057  10.670  0.7383 -0.6623  0.7056
  831MOL0     N12100   0.338   3.935  10.851 -0.1403 -0.5487  0.4356
  831MOL0     N12101   0.219   3.949  10.903  0.6347 -0.2604  0.2210
  831MOL0     C12102   0.502   3.653  11.399 -0.7030  0.3063 -0.3944
  831MOL0     C12103   0.598   3.660  11.295  0.4263  0.4766  0.1638
  831MOL0     C12104   0.930   3.610  11.001 -0.1816  0.4865  0.4289
  831MOL0     C12105   1.052   3.685  10.982  0.2685 -0.0337 -0.5121
  831MOL0     C12106   1.161   3.639  10.908 -0.6075 -0.0856 -0.8988
  831MOL0     C12107   1.153   3.510  10.853 -0.6915 -0.6162  0.2550
  831MOL0     O12108   1.264   3.455  10.788 -0.0411 -0.2679 -0.2209
  831MOL0     C12109   1.376   3.535  10.751 -1.0849  0.1039  0.2883
  831MOL0     C12110   1.487   3.446  10.697  0.7979 -0.4587  0.6981
  831MOL0     C12111   1.477   3.302  10.758  0.2011  1.0057 -0.4440
  831MOL0     C12112   1.484   3.299  10.908 -0.3433 -0.7790 -0.4618
  831MOL0     C12113   1.499   3.163  10.946 -1.2634  1.0064  0.1309
  831MOL0     C12114   1.520   3.056  11.004  0.4282 -1.2565  0.5230
  831MOL0     C12115   1.030   3.444  10.863 -1.3026 -0.5573 -0.2884
  831MOL0     C12116   0.916   3.493  10.922 -1.2233 -0.2513 -0.9420
  831MOL0     C12117   0.802   3.402  10.935 -0.1070 -0.1508  0.4766
  831MOL0     H12118   0.750   3.361  11.321  0.0687  0.6058  0.5116
  831MOL0     H12119   0.603   3.355  11.532  1.6779  2.1727  2.5835
  831MOL0     H12120   0.252   3.560  11.697  0.8036 -1.4257  0.4602
  831MOL0     H12121   0.276   3.668  11.560 -3.0668  0.5505  1.5483
  831MOL0     H12122   0.216   3.373  11.517 -0.2152  0.5109  1.8027
  831MOL0     H12123   0.210   3.504  11.395 -1.5085  1.2893 -0.2735
  831MOL0     H12124   0.025   3.584  11.603  0.3651 -4.7879  4.2458
  831MOL0     H12125   0.003   3.417  11.566  2.5734 -1.6160  0.8546
  831MOL0     H12126   0.016   3.490  11.312 -0.8018  0.3549 -1.7789
  831MOL0     H12127  -0.135   3.540  11.382 -1.1285  6.2847 -0.4571
  831MOL0     H12128  -0.051   3.765  11.421 -0.3378 -0.8795  0.4951
  831MOL0     H12129   0.114   3.720  11.386 -0.1610  1.1445  1.2420
  831MOL0     H12130  -0.061   3.629  11.170  2.5244 -3.2651  3.2272
  831MOL0     H12131  -0.085   3.802  11.210  1.0247  0.4814  0.0506
  831MOL0     H12132   0.111   3.718  11.023  1.1508 -1.0038 -0.1103
  831MOL0     H12133   0.194   3.688  11.173  1.3250  1.1641 -0.3049
  831MOL0     H12134   0.030   3.939  11.113 -1.4472 -1.9211  0.8993
  831MOL0     H12135   0.149   3.935  11.238  2.4201 -1.0018 -0.3785
  831MOL0     H12136   0.406   3.948  11.172 -1.6407 -2.4808  0.6717
  831MOL0     H12137   0.637   3.912  11.030 -0.0853 -0.0701  0.5498
  831MOL0     H12138   0.614   3.816  10.892  5.2514  2.8317 -2.6057
  831MOL0     H12139   0.618   4.002  10.745 -1.5117 -1.5936  0.2851
  831MOL0     H12140   0.588   4.112  10.879  0.2092 -0.8078  2.3851
  831MOL0     H12141   0.844   3.954  10.914  1.0576  0.3646  0.4415
  831MOL0     H12142   0.806   4.129  10.939  0.7137 -1.0888  0.8808
  831MOL0     H12143   0.783   4.153  10.690 -0.4622  0.5760  1.3205
  831MOL0     H12144   0.889   4.015  10.682  1.4695 -0.1954  0.6431
  831MOL0     H12145   1.054   4.059  10.988  0.1934  1.9805 -0.8483
  831MOL0     H12146   1.275   3.922  11.013 -1.1898  0.4753  1.5686
  831MOL0     H12147   1.491   3.663  11.110  0.2578 -0.4674  1.4259
  831MOL0     H12148   1.670   3.482  11.178  1.6042 -1.5168 -0.6547
  831MOL0     H12149   1.867   3.358  11.223 -0.0278  2.5266 -0.6174
  831MOL0     H12150   1.782   3.290  11.085 -1.3205  1.0443  2.6953
  831MOL0     H12151   2.077   3.318  11.122  0.9240 -0.2990 -2.9194
  831MOL0     H12152   1.998   3.169  11.162  0.2637  0.0094  0.7042
  831MOL0     H12153   1.927   3.214  10.882 -0.7632 -2.3252 -1.0642
  831MOL0     H12154   2.106   3.263  10.920  2.2712 -1.5624  3.0554
  831MOL0     H12155   2.095   3.063  10.809 -0.0581 -0.1294  0.0011
  831MOL0     H12156   1.993   2.995  10.943  1.3513 -1.9410 -2.9468
  831MOL0     H12157   2.211   3.070  11.094  1.6050  0.0566  0.1621
  831MOL0     H12158   2.273   3.102  10.939 -1.1838  2.1302  1.1537
  831MOL0     H12159   2.314   2.874  11.035 -1.3014  0.0080  0.9473
  831MOL0     H12160   2.148   2.829  11.021 -0.2882  0.8357  1.0312
  831MOL0     H12161   2.305   2.915  10.772 -1.9448  2.0201  0.5493
  831MOL0     H12162   2.154   2.827  10.784  0.2496 -2.9005  0.4808
  831MOL0     H12163   2.433   2.718  10.872  0.6723 -2.3738 -1.8929
  831MOL0     H12164   2.276   2.647  10.917 -1.4111  1.4999  0.5977
  831MOL0     H12165   1.900   3.619  10.854  0.2646 -5.3609  0.2230
  831MOL0     H12166   1.736   3.797  10.791 -0.4026 -2.4752 -3.6897
  831MOL0     H12167   1.359   3.991  10.602  2.9495  0.9024  2.5309
  831MOL0     H12168   1.124   4.095  10.574  0.4752 -1.9014  0.2957
  831MOL0     H12169   0.429   3.731  11.416 -0.3483  0.6315 -0.3550
  831MOL0     H12170   0.601   3.746  11.229 -0.9697 -0.0965 -0.6965
  831MOL0     H12171   1.074   3.773  11.041  1.8794 -0.8808  0.2115
  831MOL0     H12172   1.244   3.708  10.919 -0.5992 -0.1644 -0.4413
  831MOL0     H12173   1.415   3.590  10.837  0.2525 -2.5532  1.4935
  831MOL0     H12174   1.338   3.602  10.674  0.5602 -0.9870 -1.5698
  831MOL0     H12175   1.584   3.491  10.718  0.8334  0.2281 -0.8079
  831MOL0     H12176   1.492   3.446  10.588 -0.2879  0.9571  0.6200
  831MOL0     H12177   1.569   3.249  10.732  0.8099  1.3413  0.9069
  831MOL0     H12178   1.385   3.250  10.732 -1.6560  1.8634  3.5646
  831MOL0     H12179   1.580   3.343  10.938 -1.0041 -0.8917  2.1132
  831MOL0     H12180   1.398   3.347  10.955 -1.1480  0.4756 -3.0936
  831MOL0     H12181   1.523   2.962  11.055  2.2554 -1.4649  0.0937
  831MOL0     H12182   1.037   3.352  10.807  0.0506  0.0816 -1.2401
  831MOL0     H12183   0.708   3.457  10.926  1.4213  2.4291 -0.7461
  831MOL0     H12184   0.809   3.318  10.864 -0.9020  0.1233  0.0574
  831MOL0     H12185   0.785   3.352  11.030  0.3540 -0.3001  0.4795
  832MOL0     O12186   3.094   2.613   9.005 -0.7167 -1.1794  0.3034
  832MOL0     C12187   3.109   2.741   8.992 -0.5390 -0.1095 -1.4922
  832MOL0     O12188   3.189   2.795   8.902 -0.1355 -0.2261 -1.1121
  832MOL0     C12189   3.295   2.721   8.855  1.4416 -0.7108  0.6382
  832MOL0     C12190   3.378   2.631   8.921  0.1222 -0.3598 -1.0251
  832MOL0     C12191   3.474   2.552   8.859 -1.2282 -0.3033 -0.1575
  832MOL0     C12192   3.498   2.566   8.720  1.3161 -0.2137 -0.1246
  832MOL0     O12193   3.593   2.497   8.655  0.1956 -0.2242 -0.1498
  832MOL0     C12194   3.713   2.443   8.713  0.8617 -0.2194  0.4025
  832MOL0     C12195   3.834   2.447   8.616  0.5915 -0.6922 -0.4075
  832MOL0     C12196   3.811   2.353   8.487  0.4046 -0.0127 -0.6860
  832MOL0     C12197   3.755   2.432   8.361  0.6228  0.6309 -0.5984
  832MOL0     C12198   3.761   2.337   8.245 -0.1319 -0.2600 -0.4652
  832MOL0     C12199   3.692   2.399   8.121  1.0188  0.3118 -0.3701
  832MOL0     C12200   3.719   2.321   8.003 -0.9835 -0.1723  0.9545
  832MOL0     C12201   3.847   2.367   7.921 -0.0173 -0.3312 -0.3847
  832MOL0     N12202   3.821   2.479   7.821  0.7187  0.4183 -0.5281
  832MOL0     C12203   3.752   2.473   7.703 -0.1719  0.6850  0.0688
  832MOL0     C12204   3.768   2.593   7.637  0.3349  0.5861 -0.2803
  832MOL0     C12205   3.713   2.620   7.504  0.4898 -0.5771  0.3256
  832MOL0     C12206   3.589   2.710   7.523  0.0599  0.4856  0.7260
  832MOL0     C12207   3.521   2.718   7.387 -0.2814 -0.4714  0.5674
  832MOL0     C12208   3.393   2.799   7.395 -1.3258  0.2245  1.2633
  832MOL0     O12209   3.295   2.715   7.449  0.5619  0.0348  0.0711
  832MOL0     C12210   3.159   2.752   7.432 -0.0917 -0.6861 -0.9183
  832MOL0     C12211   3.111   2.883   7.446 -0.4046  0.3191  0.2205
  832MOL0     C12212   2.973   2.910   7.425 -0.4861 -0.1811 -1.1672
  832MOL0     C12213   2.881   2.812   7.400 -0.2624 -1.1170 -1.2006
  832MOL0     C12214   2.741   2.846   7.380 -0.1150 -0.3095 -0.5111
  832MOL0     O12215   2.704   2.976   7.373 -0.6375  0.4977  0.2534
  832MOL0     C12216   2.580   3.033   7.360 -0.2987  0.5797  0.5144
  832MOL0     C12217   2.487   2.987   7.255 -0.2196 -0.0049 -0.9118
  832MOL0     C12218   2.370   3.046   7.237  0.4760  0.6828  0.4773
  832MOL0     C12219   2.326   3.151   7.328 -0.4890  0.7528 -0.4963
  832MOL0     O12220   2.218   3.219   7.297  0.4216  0.3851  0.9417
  832MOL0     C12221   2.094   3.195   7.356 -0.0541  0.6545 -0.8673
  832MOL0     C12222   1.998   3.305   7.304  0.0575 -0.0609 -0.9853
  832MOL0     C12223   1.966   3.317   7.157 -0.8109 -0.8447 -0.7430
  832MOL0     C12224   2.010   3.442   7.086 -0.2875  0.3304  0.6460
  832MOL0     C12225   2.158   3.462   7.077  0.8177  0.4153 -0.1030
  832MOL0     C12226   2.180   3.575   6.985 -0.2716  0.2215  0.0653
  832MOL0     C12227   2.120   3.712   7.029 -0.2023  0.3257  0.6528
  832MOL0     C12228   2.151   3.803   6.922  0.4742 -0.0736 -0.0876
  832MOL0    Cl12229   2.053   3.776   6.782 -0.3792  0.7220  0.4018
  832MOL0     C12230   2.409   3.196   7.436 -0.5281 -0.3995 -0.2742
  832MOL0     C12231   2.533   3.131   7.453  0.0217 -0.6132  0.3152
  832MOL0     O12232   2.662   2.750   7.383  0.0426 -0.3012  0.1617
  832MOL0     C12233   2.936   2.682   7.388 -0.4433  0.2880  0.0697
  832MOL0     C12234   3.071   2.657   7.405  0.3115 -0.0539 -0.2322
  832MOL0     N12235   3.830   2.676   7.729 -0.2291 -0.6422 -0.2888
  832MOL0     N12236   3.863   2.606   7.832 -0.9942 -0.1575  0.1635
  832MOL0     C12237   3.418   2.666   8.655 -0.0125  0.0682  0.0939
  832MOL0     C12238   3.316   2.737   8.720 -0.3403  0.1681 -0.1710
  832MOL0     C12239   3.048   2.832   9.093  0.5157 -0.4818 -0.3117
  832MOL0     C12240   3.006   2.959   9.043  0.4501 -0.3628 -0.4252
  832MOL0     C12241   2.928   3.048   9.121  0.1830  0.5568 -0.1262
  832MOL0     C12242   2.900   3.013   9.247 -0.0917 -0.6038  0.3367
  832MOL0     O12243   2.821   3.095   9.325  0.2315 -0.2845 -0.2181
  832MOL0     C12244   2.769   3.230   9.287 -0.6485 -0.2139 -0.3132
  832MOL0     C12245   2.747   3.275   9.437  0.3341 -0.0454 -0.4303
  832MOL0     C12246   2.634   3.208   9.509  0.4453  0.6861 -0.1046
  832MOL0     C12247   2.494   3.220   9.447 -0.0995 -0.4969 -0.0493
  832MOL0     C12248   2.479   3.357   9.394 -0.4501  0.3776 -0.6958
  832MOL0     C12249   2.466   3.462   9.338 -0.5265 -0.0492  0.0232
  832MOL0     C12250   2.930   2.887   9.301  1.0623  0.8125  0.1474
  832MOL0     C12251   3.001   2.796   9.222 -0.3899 -1.1612 -0.0137
  832MOL0     C12252   3.027   2.663   9.281 -0.5798 -0.0169  0.1096
  832MOL0     H12253   3.368   2.633   9.029  2.1072 -2.4171 -0.7331
  832MOL0     H12254   3.532   2.477   8.912 -1.9170 -2.4825 -2.3262
  832MOL0     H12255   3.736   2.489   8.809  1.7669 -1.3250  0.7379
  832MOL0     H12256   3.679   2.345   8.748 -0.4392 -0.4673 -1.3812
  832MOL0     H12257   3.925   2.412   8.664 -0.5340  0.6943  3.0776
  832MOL0     H12258   3.838   2.553   8.588 -1.5331 -0.1224  1.1664
  832MOL0     H12259   3.739   2.274   8.511  0.3548 -0.0349 -0.9042
  832MOL0     H12260   3.901   2.294   8.468  0.3324 -0.1599 -0.5742
  832MOL0     H12261   3.657   2.468   8.391  1.4939  0.9768  2.0739
  832MOL0     H12262   3.818   2.519   8.340 -1.0423  2.3472  1.2059
  832MOL0     H12263   3.866   2.317   8.220 -0.4376 -2.4582 -0.2507
  832MOL0     H12264   3.709   2.243   8.268 -2.1760  1.3103  1.8183
  832MOL0     H12265   3.583   2.395   8.135  1.2179  1.3283  1.9723
  832MOL0     H12266   3.725   2.503   8.112  1.3735  0.4027  1.5984
  832MOL0     H12267   3.633   2.327   7.935  1.5270 -0.1064 -2.4722
  832MOL0     H12268   3.735   2.217   8.034  3.2277  0.0505  0.1797
  832MOL0     H12269   3.936   2.389   7.981  1.6547 -1.9276 -2.1791
  832MOL0     H12270   3.890   2.283   7.866  0.0114 -0.3689 -0.3053
  832MOL0     H12271   3.702   2.385   7.661 -1.5055  1.6946 -0.5314
  832MOL0     H12272   3.791   2.667   7.443  1.4239 -1.9637  0.4134
  832MOL0     H12273   3.685   2.529   7.450 -1.4078  0.8630 -1.2646
  832MOL0     H12274   3.520   2.667   7.595 -3.0196 -0.2758 -2.4254
  832MOL0     H12275   3.604   2.809   7.566 -0.6861 -0.2160  2.7408
  832MOL0     H12276   3.503   2.623   7.337 -0.1575 -0.3929  0.3712
  832MOL0     H12277   3.586   2.779   7.323 -2.2049 -0.4201 -1.4322
  832MOL0     H12278   3.375   2.824   7.290  1.9844 -0.0449  0.5079
  832MOL0     H12279   3.412   2.885   7.460 -1.7119  1.6509 -0.4430
  832MOL0     H12280   3.178   2.964   7.473  0.9855  0.0994 -2.2449
  832MOL0     H12281   2.945   3.014   7.436 -3.2930 -1.0060  0.5297
  832MOL0     H12282   2.523   2.913   7.184 -1.2037 -2.8864  1.3672
  832MOL0     H12283   2.311   3.010   7.154  1.4928 -0.0429  0.0584
  832MOL0     H12284   2.059   3.092   7.342  0.7791 -0.1005  2.0067
  832MOL0     H12285   2.100   3.199   7.465  0.3306  2.5664 -0.9202
  832MOL0     H12286   1.904   3.295   7.359 -2.4147  2.4523 -4.3494
  832MOL0     H12287   2.041   3.402   7.333  1.0606 -0.5368 -0.8340
  832MOL0     H12288   2.006   3.236   7.096 -0.2978  0.3879 -2.1135
  832MOL0     H12289   1.857   3.326   7.150 -0.8162 -0.9462 -0.7893
  832MOL0     H12290   1.978   3.529   7.144 -0.7007  0.0821  0.7943
  832MOL0     H12291   1.967   3.441   6.986 -5.2519  0.5113  2.5154
  832MOL0     H12292   2.203   3.372   7.034 -0.8940  0.5540 -2.4017
  832MOL0     H12293   2.195   3.492   7.175  1.1353 -0.5156  0.0709
  832MOL0     H12294   2.287   3.592   6.969 -0.5303  0.5462 -1.5258
  832MOL0     H12295   2.133   3.548   6.889 -0.5367 -0.1798  0.3051
  832MOL0     H12296   2.166   3.726   7.127 -0.9162 -1.7382  1.3416
  832MOL0     H12297   2.012   3.698   7.036 -0.0274 -0.1247  3.7588
  832MOL0     H12298   2.134   3.907   6.951 -1.3793 -0.3731  0.0289
  832MOL0     H12299   2.256   3.791   6.893 -0.1711 -1.2581 -2.1443
  832MOL0     H12300   2.376   3.284   7.489 -0.0557 -1.4718  1.8916
  832MOL0     H12301   2.599   3.174   7.528  1.7375 -2.0060 -0.3346
  832MOL0     H12302   2.868   2.600   7.366 -2.3006  1.7051  0.2831
  832MOL0     H12303   3.115   2.557   7.401  1.9590  0.4966  2.0368
  832MOL0     H12304   3.454   2.673   8.553  1.1032 -0.0871  0.4566
  832MOL0     H12305   3.251   2.802   8.663  1.4909 -0.7623 -3.6064
  832MOL0     H12306   3.034   2.989   8.942 -1.2115  0.9363 -0.5389
  832MOL0     H12307   2.902   3.141   9.072  0.8632  0.3120 -1.0017
  832MOL0     H12308   2.687   3.235   9.216  0.7202 -1.0749 -2.0288
  832MOL0     H12309   2.846   3.285   9.232 -1.4146 -0.4774 -1.6894
  832MOL0     H12310   2.741   3.383   9.458 -2.0235  0.1447 -1.6896
  832MOL0     H12311   2.836   3.255   9.497 -0.9429  2.3579  2.5481
  832MOL0     H12312   2.625   3.245   9.611  3.4573  3.7010 -0.7765
  832MOL0     H12313   2.668   3.105   9.521  2.5965  1.3588 -0.0434
  832MOL0     H12314   2.477   3.147   9.367  0.4387  1.6587 -2.2642
  832MOL0     H12315   2.424   3.195   9.526 -0.2257 -1.0139 -0.3218
  832MOL0     H12316   2.442   3.558   9.297  0.3429 -0.1983 -0.8613
  832MOL0     H12317   2.885   2.857   9.395 -2.0900 -1.4037 -1.8866
  832MOL0     H12318   2.975   2.578   9.236  0.3568 -2.1217  2.7728
  832MOL0     H12319   3.129   2.627   9.299 -0.3784  0.3211 -0.3231
  832MOL0     H12320   2.997   2.666   9.385  3.3393 -2.6387  1.5717
  833MOL0     O12321   6.195   2.058   2.124  0.0139 -0.7011 -0.3729
  833MOL0     C12322   6.272   1.960   2.151  1.0831  0.8688  0.3764
  833MOL0     O12323   6.343   1.947   2.271 -0.5139  0.3282  0.2594
  833MOL0     C12324   6.310   2.040   2.366  0.1185  0.4562  0.6354
  833MOL0     C12325   6.249   1.990   2.480  0.8444  0.1082 -0.1506
  833MOL0     C12326   6.222   2.075   2.586  1.0767  0.3483  0.3896
  833MOL0     C12327   6.234   2.216   2.568  0.1633  0.9071  0.4302
  833MOL0     O12328   6.205   2.301   2.662  0.4350 -1.0291  0.1761
  833MOL0     C12329   6.166   2.264   2.792 -0.4516 -1.1032 -0.4104
  833MOL0     C12330   6.166   2.390   2.873 -0.2205  1.0189 -1.5558
  833MOL0     C12331   6.309   2.432   2.914 -0.6347  0.3585 -0.0475
  833MOL0     C12332   6.315   2.583   2.914 -0.0997  0.6296  0.2201
  833MOL0     C12333   6.423   2.646   3.005 -0.4443 -0.5692 -0.0790
  833MOL0     C12334   6.571   2.596   2.974 -0.0290 -0.7996  0.7929
  833MOL0     C12335   6.677   2.684   3.028 -0.2202 -0.7399 -0.5155
  833MOL0     C12336   6.710   2.642   3.167 -0.0780  0.4326 -0.3840
  833MOL0     N12337   6.789   2.521   3.162 -0.7398 -0.9486 -0.5952
  833MOL0     C12338   6.746   2.400   3.214 -0.1193 -0.5392 -1.2423
  833MOL0     C12339   6.834   2.309   3.165 -0.0489 -0.6432 -0.1530
  833MOL0     C12340   6.826   2.160   3.172  0.4822  0.5253  0.2608
  833MOL0     C12341   6.956   2.071   3.197  0.2457 -0.1967 -0.2398
  833MOL0     C12342   7.024   2.064   3.062 -1.3632  0.1230 -0.8173
  833MOL0     C12343   7.149   1.967   3.053 -0.5193  1.1676  0.8528
  833MOL0     O12344   7.166   1.900   3.181 -0.6648  0.6965 -0.3369
  833MOL0     C12345   7.274   1.822   3.203 -0.0458  0.0782  0.0269
  833MOL0     C12346   7.338   1.740   3.111 -0.3324 -1.0121 -0.5040
  833MOL0     C12347   7.446   1.667   3.148 -0.5556 -0.1422 -0.8169
  833MOL0     C12348   7.506   1.671   3.283  0.0051  0.6002 -0.0438
  833MOL0     C12349   7.633   1.600   3.313  0.2455 -0.5385 -0.3771
  833MOL0     O12350   7.704   1.541   3.211 -0.3272  0.4081 -0.0017
  833MOL0     C12351   7.807   1.460   3.240  0.4981  0.1616 -0.2614
  833MOL0     C12352   7.883   1.440   3.123 -0.3989 -0.2747 -0.1798
  833MOL0     C12353   7.995   1.354   3.123  0.2312  0.5149  0.3311
  833MOL0     C12354   8.039   1.304   3.240  0.4906 -0.3478 -0.1303
  833MOL0     O12355   8.147   1.220   3.257 -0.3349 -0.3972  0.2011
  833MOL0     C12356   8.261   1.282   3.299 -0.1957  0.3133 -0.0263
  833MOL0     C12357   8.360   1.290   3.186 -0.6394  0.0532  0.0413
  833MOL0     C12358   8.418   1.148   3.165 -0.1912  0.2653  0.4116
  833MOL0     C12359   8.446   1.131   3.014  0.0944  0.1132 -0.5461
  833MOL0     C12360   8.516   1.002   2.982 -0.1411 -0.6954 -0.0402
  833MOL0     C12361   8.442   0.866   3.001 -0.1632  0.2382 -0.2166
  833MOL0     C12362   8.503   0.749   2.922 -0.2621 -0.5177 -0.0791
  833MOL0     C12363   8.390   0.670   2.866 -0.3808  1.1042  0.9302
  833MOL0    Cl12364   8.316   0.756   2.717 -0.4516  0.2021 -0.1058
  833MOL0     C12365   7.960   1.328   3.364 -0.8634  1.1561  0.2143
  833MOL0     C12366   7.842   1.401   3.364 -0.4523 -0.4027 -0.2347
  833MOL0     O12367   7.663   1.601   3.430  0.4969  0.3662  0.6876
  833MOL0     C12368   7.436   1.748   3.373  0.8596  0.1152  0.2515
  833MOL0     C12369   7.317   1.814   3.331  0.7476  1.5759  0.0197
  833MOL0     N12370   6.923   2.379   3.087  0.3955  0.4254  0.2005
  833MOL0     N12371   6.893   2.499   3.072  0.5028 -0.4871  0.5531
  833MOL0     C12372   6.282   2.262   2.447  0.2550  0.8224 -0.0720
  833MOL0     C12373   6.328   2.179   2.348  0.3853 -0.9138  0.0327
  833MOL0     C12374   6.284   1.856   2.032 -0.3427  0.4094 -0.0971
  833MOL0     C12375   6.174   1.846   1.943  0.4392 -0.2091  0.2585
  833MOL0     C12376   6.200   1.789   1.820  0.3717  0.3426  0.4691
  833MOL0     C12377   6.318   1.714   1.802 -0.1442 -0.1039 -0.1603
  833MOL0     O12378   6.326   1.640   1.688  0.0561 -0.8063  0.1434
  833MOL0     C12379   6.238   1.519   1.685 -0.0805  0.1360  0.5952
  833MOL0     C12380   6.327   1.385   1.668  0.3187 -0.1047 -0.9112
  833MOL0     C12381   6.226   1.270   1.656  0.5030 -0.4485  0.9625
  833MOL0     C12382   6.148   1.262   1.517  0.4701  0.2904  0.1505
  833MOL0     C12383   6.227   1.240   1.394 -1.0545  0.7820 -0.3942
  833MOL0     C12384   6.269   1.198   1.285 -1.2465 -0.5624  0.5593
  833MOL0     C12385   6.413   1.702   1.895 -0.6287 -1.1272 -0.5677
  833MOL0     C12386   6.404   1.778   2.016 -0.2949  0.3789  0.0950
  833MOL0     C12387   6.532   1.791   2.096 -0.7386  0.9750 -1.3454
  833MOL0     H12388   6.208   1.890   2.489 -0.3075  0.4662 -1.1884
  833MOL0     H12389   6.176   2.039   2.677  1.0781  1.2696  0.7623
  833MOL0     H12390   6.069   2.214   2.790 -1.9869  1.6635 -0.6150
  833MOL0     H12391   6.245   2.200   2.831 -0.8701 -1.0263  0.5919
  833MOL0     H12392   6.119   2.358   2.966 -2.6796 -0.9079 -3.3022
  833MOL0     H12393   6.112   2.473   2.824  0.2720  4.5667  3.2079
  833MOL0     H12394   6.389   2.405   2.844  2.7276 -0.2072  3.6632
  833MOL0     H12395   6.330   2.406   3.018  0.2243  4.5562  1.0066
  833MOL0     H12396   6.322   2.622   2.812  0.8513  2.5419  0.9711
  833MOL0     H12397   6.219   2.619   2.952  0.4711  2.0033  0.4068
  833MOL0     H12398   6.408   2.753   3.015 -0.3630 -0.3087 -2.1900
  833MOL0     H12399   6.413   2.623   3.111  4.7534  1.5601  1.2078
  833MOL0     H12400   6.577   2.495   3.014  1.5175 -2.1068 -2.3616
  833MOL0     H12401   6.585   2.586   2.866 -0.4202  0.0540  0.6515
  833MOL0     H12402   6.633   2.784   3.030 -1.2656 -1.0194 -3.7233
  833MOL0     H12403   6.764   2.687   2.961  0.2540 -0.2907  0.1106
  833MOL0     H12404   6.776   2.709   3.224 -0.4735 -2.2246  3.6334
  833MOL0     H12405   6.620   2.618   3.225 -1.1226 -1.0090 -2.4879
  833MOL0     H12406   6.663   2.392   3.283 -1.3689  1.5412 -2.4046
  833MOL0     H12407   6.753   2.126   3.247  1.0176 -2.0329 -0.2578
  833MOL0     H12408   6.781   2.141   3.074 -2.2173  2.6481  0.9630
  833MOL0     H12409   7.015   2.114   3.278  0.4640 -1.2901  0.2082
  833MOL0     H12410   6.920   1.970   3.222 -0.4237 -0.4487 -2.0962
  833MOL0     H12411   7.054   2.167   3.046 -2.1861  0.7919  1.4837
  833MOL0     H12412   6.946   2.047   2.987 -3.0637 -1.1099  1.1036
  833MOL0     H12413   7.236   2.030   3.033  0.2614 -0.3925 -0.9909
  833MOL0     H12414   7.131   1.889   2.979 -1.6055  0.5667  1.7324
  833MOL0     H12415   7.302   1.722   3.010 -3.2154 -0.3797  0.3347
  833MOL0     H12416   7.498   1.604   3.076 -1.7857 -3.3673  0.9140
  833MOL0     H12417   7.854   1.484   3.028 -1.7835  1.3457  0.9424
  833MOL0     H12418   8.056   1.352   3.033 -0.5553  3.1011 -0.3740
  833MOL0     H12419   8.234   1.382   3.333  0.6712  0.1353  1.2393
  833MOL0     H12420   8.305   1.225   3.381 -1.6179 -0.8726 -0.0285
  833MOL0     H12421   8.312   1.327   3.095  0.0660  1.0221  0.0466
  833MOL0     H12422   8.438   1.363   3.211  0.9539 -1.3761 -0.5494
  833MOL0     H12423   8.503   1.118   3.226 -0.4678 -1.1649  0.1294
  833MOL0     H12424   8.335   1.084   3.198 -2.1454  2.9396  1.0846
  833MOL0     H12425   8.496   1.219   2.974  2.1432 -1.2951 -1.2519
  833MOL0     H12426   8.347   1.128   2.967 -1.0649 -0.5564  1.8024
  833MOL0     H12427   8.619   0.997   3.018  0.5454 -0.7958 -1.9583
  833MOL0     H12428   8.535   1.003   2.875 -0.5635 -1.2529 -0.1221
  833MOL0     H12429   8.431   0.828   3.103 -0.7437 -0.7161 -0.6265
  833MOL0     H12430   8.339   0.886   2.971 -0.5795 -1.4780 -0.0348
  833MOL0     H12431   8.564   0.699   2.997  0.3933 -1.5543 -1.2620
  833MOL0     H12432   8.578   0.773   2.846 -0.4460 -0.6464 -0.3059
  833MOL0     H12433   8.434   0.578   2.824 -2.7096  1.0348 -1.5975
  833MOL0     H12434   8.317   0.652   2.945 -0.8766 -0.9016  0.0863
  833MOL0     H12435   7.987   1.257   3.441 -3.5440 -2.5398 -1.9105
  833MOL0     H12436   7.783   1.412   3.455  0.2788 -0.4661  0.2600
  833MOL0     H12437   7.481   1.757   3.471 -0.0726  0.0281  0.6974
  833MOL0     H12438   7.261   1.862   3.411 -0.4206  1.5853 -0.7776
  833MOL0     H12439   6.260   2.364   2.417 -1.9047  0.0197 -1.4584
  833MOL0     H12440   6.364   2.232   2.261  1.2895 -0.5012  0.6369
  833MOL0     H12441   6.079   1.895   1.961  0.2705 -0.1890 -0.6205
  833MOL0     H12442   6.124   1.777   1.744 -0.6275  0.4101  1.4269
  833MOL0     H12443   6.165   1.532   1.605 -0.0654  0.6420  0.6608
  833MOL0     H12444   6.181   1.513   1.778  1.6024  1.0568  1.7640
  833MOL0     H12445   6.384   1.364   1.758  3.0507  2.1658 -1.9695
  833MOL0     H12446   6.398   1.388   1.584  1.4926 -5.5564 -0.4715
  833MOL0     H12447   6.159   1.283   1.742 -0.2080 -2.1345  0.7043
  833MOL0     H12448   6.279   1.175   1.672  1.8169 -0.0953 -0.9808
  833MOL0     H12449   6.065   1.192   1.526  0.5178  0.4985  2.8828
  833MOL0     H12450   6.080   1.345   1.496 -1.0309 -1.5199 -2.8452
  833MOL0     H12451   6.283   1.151   1.190 -0.6593 -0.6918  0.7049
  833MOL0     H12452   6.493   1.636   1.863  0.6607  0.6869 -1.2374
  833MOL0     H12453   6.518   1.882   2.155 -0.1226  0.4601 -0.3748
  833MOL0     H12454   6.544   1.712   2.170 -2.0875  2.8080  0.9624
  833MOL0     H12455   6.618   1.808   2.030  0.9614  2.0185  0.9630
  834MOL0     O12456   0.892   0.217   4.836  0.4897  0.4267 -0.0145
  834MOL0     C12457   0.996   0.156   4.871 -0.2470 -0.2452  0.2191
  834MOL0     O12458   1.108   0.145   4.798 -0.7136 -0.2464  0.2387
  834MOL0     C12459   1.130   0.223   4.687  0.5722  0.2844  0.9349
  834MOL0     C12460   1.172   0.156   4.577  0.0939 -0.2695  0.4951
  834MOL0     C12461   1.203   0.246   4.465  0.1416 -0.5069 -0.1204
  834MOL0     C12462   1.190   0.387   4.463 -0.3789  0.7640 -0.0431
  834MOL0     O12463   1.223   0.473   4.367  0.3613  0.3407 -0.4068
  834MOL0     C12464   1.310   0.426   4.264 -0.3211  0.3625  0.3729
  834MOL0     C12465   1.224   0.368   4.135 -0.6860  0.6218  0.6830
  834MOL0     C12466   1.311   0.280   4.047  0.3590  0.0268  0.4168
  834MOL0     C12467   1.226   0.193   3.951  1.1916  0.3195 -0.0394
  834MOL0     C12468   1.292   0.100   3.864  0.6555  0.3763  0.2063
  834MOL0     C12469   1.197   0.048   3.749 -0.5007 -0.3164  0.2560
  834MOL0     C12470   1.076  -0.021   3.789  0.3520  0.0734 -0.3269
  834MOL0     C12471   0.985  -0.063   3.673  0.2578 -0.5041 -0.3234
  834MOL0     N12472   0.872  -0.152   3.712  0.5524  0.3488 -1.1061
  834MOL0     C12473   0.791  -0.131   3.828  0.5559  0.8692 -0.7507
  834MOL0     C12474   0.733  -0.256   3.859 -0.7915 -0.1027  0.1759
  834MOL0     C12475   0.640  -0.291   3.966  0.7522  1.0947  0.7787
  834MOL0     C12476   0.683  -0.397   4.066  0.2712  0.3639  0.2668
  834MOL0     C12477   0.557  -0.475   4.106 -0.0962  0.4203 -0.0412
  834MOL0     C12478   0.578  -0.546   4.238 -0.4769  0.2572  0.0464
  834MOL0     O12479   0.592  -0.460   4.343  0.0805 -0.0256 -0.7486
  834MOL0     C12480   0.603  -0.502   4.472 -0.1831 -0.3899  1.6223
  834MOL0     C12481   0.567  -0.420   4.572 -0.2854 -1.3332  0.1813
  834MOL0     C12482   0.569  -0.470   4.703 -0.5830 -0.0236  0.3455
  834MOL0     C12483   0.602  -0.603   4.739  0.5118  0.7846  0.3929
  834MOL0     C12484   0.620  -0.656   4.886  0.4306  0.0153  1.0745
  834MOL0     O12485   0.636  -0.563   4.978  0.1332  0.6016 -0.2951
  834MOL0     C12486   0.633  -0.586   5.115 -0.1571 -0.7877 -0.2377
  834MOL0     C12487   0.562  -0.694   5.177  1.1599 -0.6354 -0.9535
  834MOL0     C12488   0.566  -0.709   5.321  0.1720 -0.2792  0.4614
  834MOL0     C12489   0.628  -0.616   5.406  0.0464  0.2431 -0.1361
  834MOL0     O12490   0.627  -0.624   5.545  0.2310  0.0347 -0.2006
  834MOL0     C12491   0.645  -0.758   5.605  0.2117 -0.6045 -0.0360
  834MOL0     C12492   0.708  -0.767   5.744  1.1277  0.6001  0.3103
  834MOL0     C12493   0.600  -0.724   5.851  0.1569 -0.8664 -0.1015
  834MOL0     C12494   0.519  -0.851   5.896  1.0067 -0.0915  0.7916
  834MOL0     C12495   0.423  -0.835   6.018  0.5368  0.1957  0.6446
  834MOL0     C12496   0.304  -0.745   5.991  0.3445 -0.5564 -0.5559
  834MOL0     C12497   0.228  -0.750   6.115 -0.3058  0.1217 -0.4036
  834MOL0     C12498   0.114  -0.651   6.119 -0.3754 -0.4258 -0.9706
  834MOL0    Cl12499   0.007  -0.664   6.262  0.0106  0.1944  0.5899
  834MOL0     C12500   0.700  -0.516   5.346  0.1577 -0.8868  0.3955
  834MOL0     C12501   0.706  -0.499   5.206 -0.3396  0.5219  0.5899
  834MOL0     O12502   0.630  -0.775   4.907 -0.2838 -0.1690  0.6611
  834MOL0     C12503   0.645  -0.683   4.633 -0.5211  0.1238 -0.4301
  834MOL0     C12504   0.641  -0.634   4.500 -0.3493 -0.3524 -0.2429
  834MOL0     N12505   0.789  -0.343   3.776 -1.0548  0.4523  0.2931
  834MOL0     N12506   0.867  -0.289   3.692 -0.2326  0.8614  0.4336
  834MOL0     C12507   1.127   0.441   4.573 -0.0354  0.7258  0.2306
  834MOL0     C12508   1.097   0.364   4.683 -0.5504  1.0594  0.3061
  834MOL0     C12509   1.011   0.088   5.001  0.8748  0.1201  0.3917
  834MOL0     C12510   1.125   0.011   5.038  0.6816  0.1380  0.1973
  834MOL0     C12511   1.136  -0.061   5.162 -0.5666 -0.8486 -0.0274
  834MOL0     C12512   1.023  -0.068   5.244  0.0565 -0.3270  1.1190
  834MOL0     O12513   1.015  -0.147   5.354 -0.3652 -0.4789 -0.3630
  834MOL0     C12514   0.973  -0.281   5.331  0.5990 -0.7242 -0.0348
  834MOL0     C12515   1.022  -0.378   5.439  0.1117 -0.1478  0.3475
  834MOL0     C12516   0.972  -0.355   5.585 -1.6158  0.7351 -0.0617
  834MOL0     C12517   1.004  -0.472   5.667 -0.3596  1.0900 -1.0489
  834MOL0     C12518   0.951  -0.450   5.809  0.5929 -0.8673  0.0073
  834MOL0     C12519   0.910  -0.449   5.916 -0.6424  0.3702 -0.0029
  834MOL0     C12520   0.913   0.004   5.210 -0.2607 -0.0035  0.4264
  834MOL0     C12521   0.903   0.091   5.101 -0.8094 -0.0783  0.7752
  834MOL0     C12522   0.789   0.184   5.100  0.6151  0.2089  0.2841
  834MOL0     H12523   1.198   0.051   4.575  1.2181 -0.0157  1.1976
  834MOL0     H12524   1.251   0.216   4.372 -0.2960 -1.1255 -0.1505
  834MOL0     H12525   1.362   0.516   4.229  3.0465 -0.8485  1.8542
  834MOL0     H12526   1.399   0.371   4.293  0.8536  1.8516 -0.2598
  834MOL0     H12527   1.173   0.458   4.097 -0.2583  0.9996  0.9852
  834MOL0     H12528   1.148   0.303   4.179  0.8578 -0.5457  1.7302
  834MOL0     H12529   1.372   0.218   4.114  0.0125  2.1431  2.8316
  834MOL0     H12530   1.374   0.347   3.988  1.5338 -1.2910  0.1223
  834MOL0     H12531   1.164   0.130   4.016 -2.5546  3.4077 -0.2462
  834MOL0     H12532   1.152   0.255   3.899  0.0180  0.7182  1.9901
  834MOL0     H12533   1.377   0.153   3.819  0.9186 -0.0351  0.2054
  834MOL0     H12534   1.317   0.010   3.921  1.4516 -0.1741 -0.9583
  834MOL0     H12535   1.175   0.142   3.697 -1.7396  0.7738  2.5473
  834MOL0     H12536   1.262  -0.018   3.692  2.1378  1.8894  0.4925
  834MOL0     H12537   1.013   0.036   3.858 -1.9162 -2.2239 -0.3451
  834MOL0     H12538   1.101  -0.116   3.837 -0.9674 -1.2211 -2.0422
  834MOL0     H12539   0.940   0.025   3.626  0.2957 -2.0528 -3.5399
  834MOL0     H12540   1.051  -0.106   3.597 -0.2150 -1.0370 -0.4422
  834MOL0     H12541   0.772  -0.035   3.874  1.1534  1.4244 -1.6524
  834MOL0     H12542   0.609  -0.199   4.017 -1.2593 -0.5394  2.7085
  834MOL0     H12543   0.547  -0.313   3.913  1.3529  1.5200 -0.5133
  834MOL0     H12544   0.759  -0.462   4.023 -0.4503  0.0662 -0.5795
  834MOL0     H12545   0.725  -0.343   4.152  1.4535 -0.7650  0.4273
  834MOL0     H12546   0.544  -0.561   4.040  0.6168 -1.9835  2.7453
  834MOL0     H12547   0.463  -0.419   4.104 -1.1093 -1.2332 -1.1130
  834MOL0     H12548   0.668  -0.606   4.218  0.8688  2.9164 -2.8359
  834MOL0     H12549   0.489  -0.608   4.250 -2.0358  2.2721 -0.5667
  834MOL0     H12550   0.521  -0.326   4.544 -2.0805 -2.2441 -0.0544
  834MOL0     H12551   0.549  -0.403   4.786  2.1960  0.7514  0.5063
  834MOL0     H12552   0.507  -0.766   5.117  0.2842 -1.9768  1.3269
  834MOL0     H12553   0.500  -0.779   5.372  0.2443  0.6399  1.8958
  834MOL0     H12554   0.546  -0.804   5.607 -0.6888  1.2731  1.3576
  834MOL0     H12555   0.712  -0.817   5.541  0.8933  1.6451 -1.5109
  834MOL0     H12556   0.738  -0.868   5.772 -1.8556 -0.0816  1.4317
  834MOL0     H12557   0.791  -0.697   5.757 -0.8169  3.2465 -0.5702
  834MOL0     H12558   0.639  -0.669   5.937 -2.5935  1.6721 -0.2993
  834MOL0     H12559   0.532  -0.647   5.813  3.2432  2.5359  0.7852
  834MOL0     H12560   0.593  -0.925   5.927  1.4863 -0.1325 -0.4323
  834MOL0     H12561   0.469  -0.883   5.805  0.9900  2.2389 -0.0897
  834MOL0     H12562   0.478  -0.788   6.100 -0.5414  3.0344 -0.1430
  834MOL0     H12563   0.400  -0.936   6.052  3.1081 -0.8189 -0.3671
  834MOL0     H12564   0.346  -0.647   5.968 -0.7106  0.0420  0.0341
  834MOL0     H12565   0.260  -0.784   5.899  1.9320  0.1597 -1.6667
  834MOL0     H12566   0.289  -0.748   6.206 -0.1649 -3.8900 -0.2180
  834MOL0     H12567   0.191  -0.853   6.125  2.2210 -0.8111  0.2015
  834MOL0     H12568   0.150  -0.548   6.106  0.6937 -0.5783  0.5699
  834MOL0     H12569   0.054  -0.674   6.030  0.9017 -1.6848 -1.5424
  834MOL0     H12570   0.738  -0.432   5.403  0.7587 -1.9564  1.6444
  834MOL0     H12571   0.766  -0.419   5.165  1.4440 -0.3190  1.4446
  834MOL0     H12572   0.675  -0.787   4.639  1.1473  0.6456  1.4490
  834MOL0     H12573   0.671  -0.700   4.420  0.6441 -1.1234  0.7172
  834MOL0     H12574   1.093   0.543   4.582 -2.2305 -0.0027  0.7621
  834MOL0     H12575   1.045   0.410   4.767  0.0178  2.4362 -0.0801
  834MOL0     H12576   1.214   0.013   4.975  0.7752 -2.6781  0.1433
  834MOL0     H12577   1.231  -0.102   5.194 -0.7517 -1.8445 -0.7016
  834MOL0     H12578   0.997  -0.316   5.230 -0.5930  3.7785 -2.1074
  834MOL0     H12579   0.864  -0.276   5.334  0.6665  1.2693  0.6345
  834MOL0     H12580   1.132  -0.376   5.440  0.1158  1.3790 -0.2240
  834MOL0     H12581   0.969  -0.470   5.414 -1.6976  0.2150  2.5150
  834MOL0     H12582   0.863  -0.345   5.576 -1.4543  1.3401 -1.6916
  834MOL0     H12583   1.023  -0.273   5.637 -0.5290 -2.1626  3.8821
  834MOL0     H12584   0.961  -0.558   5.614  0.0423  1.7562 -2.5244
  834MOL0     H12585   1.110  -0.489   5.690 -0.9252 -2.2092 -0.4176
  834MOL0     H12586   0.870  -0.456   6.015 -0.9201 -1.7367 -0.2197
  834MOL0     H12587   0.833   0.001   5.283  0.7347 -0.4709  1.5223
  834MOL0     H12588   0.825   0.286   5.090  1.0781 -0.0035 -0.2329
  834MOL0     H12589   0.716   0.157   5.023  0.6936 -0.4329  0.4228
  834MOL0     H12590   0.740   0.171   5.197  0.0025 -3.2390 -0.3337
  835MOL0     O12591   4.335   4.962   1.525 -0.0654  0.4570 -0.3557
  835MOL0     C12592   4.439   5.009   1.488  0.6295 -0.2420 -0.6323
  835MOL0     O12593   4.479   5.040   1.356  0.4176  0.4476  0.3890
  835MOL0     C12594   4.380   5.051   1.266  1.6239  0.4316  0.1118
  835MOL0     C12595   4.289   4.947   1.233  0.4900  0.5219  0.3762
  835MOL0     C12596   4.184   4.965   1.139 -0.5486 -0.0513 -1.5188
  835MOL0     C12597   4.171   5.083   1.070 -0.7199 -1.2523  0.3581
  835MOL0     O12598   4.078   5.087   0.968  0.4536 -0.0280 -0.1001
  835MOL0     C12599   4.090   5.167   0.864  0.1563  0.4336  0.6092
  835MOL0     C12600   4.213   5.137   0.780  0.1140  0.8949  0.3661
  835MOL0     C12601   4.244   4.989   0.755 -0.5541  0.1135  0.1178
  835MOL0     C12602   4.151   4.917   0.655 -1.1608 -0.4916 -0.5702
  835MOL0     C12603   4.165   4.959   0.506  0.5167 -0.4866 -0.4412
  835MOL0     C12604   4.290   4.898   0.444 -0.1035 -1.3896 -0.0536
  835MOL0     C12605   4.430   4.955   0.468  0.2428 -0.4139  0.4376
  835MOL0     C12606   4.526   4.914   0.361 -0.6379 -0.4475  0.0443
  835MOL0     N12607   4.655   4.984   0.374 -0.3553 -0.7098 -0.4618
  835MOL0     C12608   4.678   5.116   0.403 -0.3375 -0.3312 -0.6426
  835MOL0     C12609   4.815   5.119   0.423  0.8443  0.2362  0.4236
  835MOL0     C12610   4.899   5.241   0.465  0.6127  0.4356 -0.6601
  835MOL0     C12611   4.818   5.365   0.512  0.1763 -0.0547  0.4109
  835MOL0     C12612   4.723   5.343   0.627 -0.8071  1.0198  0.1413
  835MOL0     C12613   4.769   5.240   0.739 -0.4134 -0.7468 -0.8384
  835MOL0     O12614   4.887   5.295   0.804  0.2768  0.1831  0.6153
  835MOL0     C12615   4.919   5.225   0.918 -0.4366  0.3788 -0.1667
  835MOL0     C12616   4.845   5.109   0.961 -0.8975 -0.4382 -0.3753
  835MOL0     C12617   4.875   5.050   1.082 -0.3252 -1.0921 -0.1138
  835MOL0     C12618   4.958   5.117   1.175  0.4431  0.3017  0.9444
  835MOL0     C12619   4.987   5.057   1.308 -0.1458  0.0172 -0.8020
  835MOL0     O12620   5.046   5.133   1.403  0.1853 -0.1740  0.5372
  835MOL0     C12621   5.102   5.091   1.519  1.0768  1.0297 -1.1013
  835MOL0     C12622   5.101   4.959   1.574 -0.2407 -0.3287 -0.6693
  835MOL0     C12623   5.164   4.942   1.700 -0.7528 -0.1114 -0.7264
  835MOL0     C12624   5.225   5.057   1.769  0.4109 -0.6962  0.4221
  835MOL0     O12625   5.275   5.033   1.897 -0.5738  0.8293  0.4509
  835MOL0     C12626   5.405   5.088   1.925  0.2487 -0.0583  1.1745
  835MOL0     C12627   5.507   4.970   1.888 -0.4215  0.8705  0.1663
  835MOL0     C12628   5.464   4.839   1.964  0.7835  0.5380 -0.2893
  835MOL0     C12629   5.573   4.736   1.937  0.5610  0.1589  0.6496
  835MOL0     C12630   5.578   4.625   2.056 -0.2525 -0.9390  0.2937
  835MOL0     C12631   5.631   4.663   2.187 -0.1762  0.1776  0.0819
  835MOL0     C12632   5.758   4.733   2.173 -0.1919 -0.6916 -0.2807
  835MOL0     C12633   5.817   4.756   2.317 -0.6822  0.8096 -1.0216
  835MOL0    Cl12634   5.973   4.830   2.325 -0.3683  0.0189 -0.1685
  835MOL0     C12635   5.216   5.191   1.713 -0.1398  0.5697 -0.9252
  835MOL0     C12636   5.156   5.200   1.590  0.0007  0.7723  0.3992
  835MOL0     O12637   4.958   4.939   1.320  0.6401  0.6416  0.7276
  835MOL0     C12638   5.040   5.229   1.124 -0.2318 -0.0166 -0.5611
  835MOL0     C12639   5.016   5.282   1.002  0.0397 -0.6338 -0.0302
  835MOL0     N12640   4.860   4.986   0.418 -0.4598  0.5607  0.8276
  835MOL0     N12641   4.762   4.911   0.402 -0.1541 -0.4682  0.0230
  835MOL0     C12642   4.257   5.194   1.103 -0.6016  0.4816  0.3253
  835MOL0     C12643   4.362   5.175   1.198 -0.3770  0.0637  0.6125
  835MOL0     C12644   4.551   5.008   1.585 -0.1947  0.0080 -0.4834
  835MOL0     C12645   4.545   4.933   1.706 -0.4651 -0.6896 -0.4020
  835MOL0     C12646   4.627   4.957   1.815  0.2637  0.4604 -1.3210
  835MOL0     C12647   4.741   5.029   1.797  1.0823  0.6294 -0.9501
  835MOL0     O12648   4.828   5.060   1.905 -0.8240  0.0315 -0.1751
  835MOL0     C12649   4.785   5.167   1.987 -0.1467 -0.6733 -0.2820
  835MOL0     C12650   4.867   5.161   2.123  0.6546  0.4424  0.1188
  835MOL0     C12651   4.787   5.081   2.224  0.0291 -1.1027 -0.9872
  835MOL0     C12652   4.748   5.174   2.341 -0.3447 -0.2694 -0.2474
  835MOL0     C12653   4.711   5.093   2.458 -0.3415 -0.7636  0.3247
  835MOL0     C12654   4.642   5.046   2.549 -0.2745 -0.5280  0.1171
  835MOL0     C12655   4.768   5.091   1.674 -0.3823 -0.4923  0.7091
  835MOL0     C12656   4.665   5.092   1.571 -0.3734 -0.7760  0.3712
  835MOL0     C12657   4.702   5.182   1.461 -0.4347  0.3667  0.0200
  835MOL0     H12658   4.289   4.857   1.294  2.0990  0.6366  0.6030
  835MOL0     H12659   4.124   4.879   1.111  1.9318 -1.7291 -2.0467
  835MOL0     H12660   4.002   5.155   0.800  0.7229  1.4851 -0.4130
  835MOL0     H12661   4.092   5.271   0.897 -2.1590  1.0923 -1.0704
  835MOL0     H12662   4.303   5.180   0.826  0.3315  0.4250  0.3884
  835MOL0     H12663   4.192   5.185   0.684  2.4065 -3.7842 -2.9056
  835MOL0     H12664   4.257   4.929   0.846  1.0697  0.0147 -0.1515
  835MOL0     H12665   4.347   4.991   0.718 -0.0194  4.2546  1.4185
  835MOL0     H12666   4.173   4.810   0.654 -0.5075 -0.3670 -2.1961
  835MOL0     H12667   4.049   4.928   0.694 -0.5386 -1.1759  1.3570
  835MOL0     H12668   4.079   4.909   0.459 -0.1248  1.7158 -1.7379
  835MOL0     H12669   4.162   5.062   0.470  4.6362  0.3881  1.2192
  835MOL0     H12670   4.301   4.797   0.484  0.8892 -0.7571  1.3520
  835MOL0     H12671   4.271   4.890   0.336  1.2899 -1.3137 -0.3181
  835MOL0     H12672   4.473   4.930   0.566  0.6170 -1.8051 -0.0595
  835MOL0     H12673   4.417   5.063   0.455  0.3074 -0.6437 -1.8108
  835MOL0     H12674   4.544   4.806   0.357  0.6708 -0.2616  0.4642
  835MOL0     H12675   4.481   4.937   0.264  0.0681  3.1640  0.4206
  835MOL0     H12676   4.612   5.202   0.401 -0.3064 -0.2243  1.3802
  835MOL0     H12677   4.971   5.216   0.543  2.0211  0.0842 -2.0267
  835MOL0     H12678   4.934   5.274   0.367  0.4767  2.0884 -0.1867
  835MOL0     H12679   4.889   5.445   0.534  0.3350  0.6365 -2.2410
  835MOL0     H12680   4.760   5.402   0.426  0.4447  0.0843  0.2878
  835MOL0     H12681   4.630   5.309   0.581 -0.2646 -1.6833  0.8946
  835MOL0     H12682   4.699   5.444   0.661  1.3544  2.4290 -2.1635
  835MOL0     H12683   4.789   5.143   0.693  0.5234 -0.0713 -1.8970
  835MOL0     H12684   4.694   5.237   0.818  0.2007 -3.6883 -0.2403
  835MOL0     H12685   4.769   5.048   0.912 -1.3754  0.1739 -0.4010
  835MOL0     H12686   4.813   4.963   1.103 -3.4217  1.5950  3.2961
  835MOL0     H12687   5.058   4.878   1.516 -0.2168 -0.6073 -0.2944
  835MOL0     H12688   5.168   4.842   1.744  4.9075  0.8375  1.9022
  835MOL0     H12689   5.436   5.189   1.896  0.0295  0.7510  3.5278
  835MOL0     H12690   5.415   5.098   2.033 -0.7153 -0.2269  1.2908
  835MOL0     H12691   5.520   4.950   1.781  0.1668 -2.7109  0.7961
  835MOL0     H12692   5.603   5.002   1.930  1.2144 -2.4912 -0.6966
  835MOL0     H12693   5.432   4.867   2.064 -0.1482  0.0620 -0.4502
  835MOL0     H12694   5.375   4.797   1.918  1.1502  1.2567 -1.7292
  835MOL0     H12695   5.670   4.786   1.932  0.4388  0.3343  0.0179
  835MOL0     H12696   5.548   4.680   1.846  2.0292 -1.8398  1.3784
  835MOL0     H12697   5.649   4.549   2.023  0.2935 -1.0924  1.7577
  835MOL0     H12698   5.479   4.582   2.077  0.4659 -1.2983  3.5389
  835MOL0     H12699   5.566   4.729   2.244 -0.8755 -0.0303 -0.4544
  835MOL0     H12700   5.640   4.565   2.235 -0.5283 -1.1089 -2.3463
  835MOL0     H12701   5.735   4.836   2.145 -3.4173 -0.9192  1.1028
  835MOL0     H12702   5.830   4.682   2.108 -1.0491 -1.0185 -0.9829
  835MOL0     H12703   5.758   4.825   2.377  0.5640  2.1462 -1.2765
  835MOL0     H12704   5.824   4.657   2.365  0.7214  1.4173  0.1188
  835MOL0     H12705   5.255   5.277   1.765  0.2376 -0.1265 -0.0366
  835MOL0     H12706   5.129   5.298   1.552 -1.8252 -0.2757 -1.1610
  835MOL0     H12707   5.124   5.274   1.177  0.5060  0.0068 -1.7210
  835MOL0     H12708   5.057   5.375   0.963 -1.7968  0.3882  0.3590
  835MOL0     H12709   4.257   5.294   1.063  0.1948  1.2769  2.1747
  835MOL0     H12710   4.427   5.261   1.211 -0.1941  0.3524 -1.6491
  835MOL0     H12711   4.464   4.864   1.726 -2.3425  1.5642  0.1742
  835MOL0     H12712   4.600   4.909   1.909 -1.1967  1.1994 -1.3335
  835MOL0     H12713   4.680   5.157   2.014 -0.5854  0.9205 -1.2502
  835MOL0     H12714   4.785   5.265   1.937 -2.9289 -0.1952  0.4893
  835MOL0     H12715   4.871   5.264   2.161  1.9813  0.1253  0.8944
  835MOL0     H12716   4.967   5.117   2.112 -0.5003 -2.0818 -1.3030
  835MOL0     H12717   4.833   4.990   2.263 -2.3242 -1.9603  0.0060
  835MOL0     H12718   4.692   5.053   2.177  0.0336 -1.0316 -1.0383
  835MOL0     H12719   4.838   5.226   2.376 -0.5310  0.9666 -1.5160
  835MOL0     H12720   4.686   5.260   2.312  0.7524  1.7934  2.9843
  835MOL0     H12721   4.581   5.001   2.625 -1.7977  0.1008 -0.6915
  835MOL0     H12722   4.861   5.146   1.671 -0.3922 -0.3867 -3.5567
  835MOL0     H12723   4.789   5.249   1.468 -0.0930  0.2170 -2.1496
  835MOL0     H12724   4.712   5.117   1.374 -0.3078  0.9126 -0.3843
  835MOL0     H12725   4.611   5.243   1.454 -1.3548 -1.0706 -0.9479
  836MOL0     O12726   6.602   2.094   6.795  0.1542  0.2822  0.3785
  836MOL0     C12727   6.707   2.157   6.812  0.2716 -0.1928 -0.7742
  836MOL0     O12728   6.828   2.099   6.819  0.0814 -0.0985  0.2736
  836MOL0     C12729   6.844   1.982   6.765  0.1734  0.1612 -0.4102
  836MOL0     C12730   6.862   1.969   6.626 -0.2906  0.5916 -0.3624
  836MOL0     C12731   6.862   1.849   6.560 -0.4998 -0.1806  0.5420
  836MOL0     C12732   6.840   1.731   6.630 -0.2564  0.0633  0.2210
  836MOL0     O12733   6.844   1.603   6.577  0.7909  0.4888  1.1039
  836MOL0     C12734   6.911   1.580   6.450 -0.0611  0.0347  0.3873
  836MOL0     C12735   6.999   1.464   6.475  0.7840 -0.2218 -0.3351
  836MOL0     C12736   7.107   1.453   6.366  0.2733 -0.6086 -0.4081
  836MOL0     C12737   7.068   1.369   6.243 -0.8705  0.1694  0.3934
  836MOL0     C12738   7.177   1.371   6.130  0.8293 -0.2389 -0.9361
  836MOL0     C12739   7.307   1.305   6.184  0.3681 -0.7372  0.2317
  836MOL0     C12740   7.424   1.342   6.084  0.4851 -0.0649  0.2030
  836MOL0     C12741   7.560   1.306   6.158  0.3325  0.7608  0.5166
  836MOL0     N12742   7.679   1.348   6.084  0.4332 -0.4643  0.1444
  836MOL0     C12743   7.737   1.462   6.114  0.2528 -0.3186  0.8523
  836MOL0     C12744   7.833   1.483   6.021  0.5703  0.3247  0.5068
  836MOL0     C12745   7.923   1.604   6.033 -0.2127  0.8011  0.8485
  836MOL0     C12746   8.076   1.562   6.033 -0.4975  0.5163  0.2235
  836MOL0     C12747   8.124   1.478   6.150  0.2981 -0.4287 -0.9331
  836MOL0     C12748   8.123   1.324   6.118  0.7239 -0.3522 -0.4977
  836MOL0     O12749   8.188   1.233   6.207  0.9154 -0.2161  0.3460
  836MOL0     C12750   8.314   1.270   6.237  0.8322 -0.2557 -1.1133
  836MOL0     C12751   8.419   1.274   6.139  0.9640  0.0213 -0.5307
  836MOL0     C12752   8.538   1.333   6.168  0.3647 -1.0164 -0.7866
  836MOL0     C12753   8.567   1.386   6.296 -0.1723 -0.7197  0.1071
  836MOL0     C12754   8.701   1.440   6.329 -1.1016 -0.5050 -0.0139
  836MOL0     O12755   8.808   1.429   6.241  0.2205  0.7633 -1.0288
  836MOL0     C12756   8.919   1.512   6.257 -0.8478 -0.7414  0.0473
  836MOL0     C12757   8.958   1.579   6.382  0.1457  1.4196 -0.6329
  836MOL0     C12758   9.081   1.647   6.396 -0.2565  0.0671 -0.2128
  836MOL0     C12759   9.169   1.661   6.289 -0.0275  0.1453 -0.2450
  836MOL0     O12760   9.298   1.699   6.303  0.7327  0.4062  1.5242
  836MOL0     C12761   9.349   1.743   6.428  0.4780 -0.0854  0.2341
  836MOL0     C12762   9.493   1.787   6.404 -0.5666  0.3649  0.1507
  836MOL0     C12763   9.565   1.853   6.527  0.1426  0.5586 -0.8411
  836MOL0     C12764   9.710   1.883   6.488 -0.4016 -0.0914 -0.1599
  836MOL0     C12765   9.806   1.777   6.534  1.1755 -0.0190 -0.3485
  836MOL0     C12766   9.957   1.818   6.535  0.5897 -0.1131  0.8197
  836MOL0     C12767  10.060   1.708   6.582  0.4455  0.2060 -0.1120
  836MOL0     C12768  10.067   1.689   6.728 -0.5227  0.1770 -0.5463
  836MOL0    Cl12769  10.095   1.853   6.809 -0.0114 -0.0206  0.1971
  836MOL0     C12770   9.132   1.603   6.168 -0.6923  0.9948 -0.6800
  836MOL0     C12771   9.013   1.532   6.155 -0.3371  0.7744 -0.1519
  836MOL0     O12772   8.707   1.499   6.439 -0.6445 -0.0033 -0.3656
  836MOL0     C12773   8.461   1.390   6.400 -1.1030  0.6693  0.8645
  836MOL0     C12774   8.339   1.329   6.363  0.7611  0.1614 -0.1052
  836MOL0     N12775   7.810   1.403   5.917 -0.2238  0.4845  0.0582
  836MOL0     N12776   7.712   1.326   5.943 -0.0129 -0.1889 -1.1337
  836MOL0     C12777   6.808   1.745   6.768 -1.2300  0.4544 -0.6091
  836MOL0     C12778   6.828   1.865   6.836  0.4038  0.0029  0.0711
  836MOL0     C12779   6.703   2.305   6.797 -0.5588 -1.1060 -0.0133
  836MOL0     C12780   6.820   2.371   6.755 -0.2066  0.0711  0.0037
  836MOL0     C12781   6.818   2.505   6.719  0.1342  0.2957 -0.1917
  836MOL0     C12782   6.707   2.585   6.745  0.3062  0.1079 -0.4501
  836MOL0     O12783   6.722   2.718   6.702 -0.1534  0.9634 -0.3993
  836MOL0     C12784   6.613   2.805   6.726 -0.2070  1.0636  0.2830
  836MOL0     C12785   6.647   2.937   6.641  0.3976  0.4920  0.9032
  836MOL0     C12786   6.535   3.038   6.643 -0.2310 -0.4022  1.0738
  836MOL0     C12787   6.416   2.995   6.542 -0.1248  0.1194 -1.0100
  836MOL0     C12788   6.333   3.113   6.501  0.0217 -0.0164  0.7481
  836MOL0     C12789   6.291   3.225   6.457  0.6938 -0.2015 -0.1453
  836MOL0     C12790   6.600   2.533   6.805  0.3306  0.0481 -0.0931
  836MOL0     C12791   6.594   2.387   6.822  0.2329  0.0483 -0.0698
  836MOL0     C12792   6.454   2.335   6.868  0.7118  0.1095  1.1268
  836MOL0     H12793   6.889   2.059   6.572 -1.7226 -0.4757 -3.0440
  836MOL0     H12794   6.864   1.846   6.451  0.1056  0.8705  0.5069
  836MOL0     H12795   6.837   1.552   6.374  0.5660 -1.4119  0.2829
  836MOL0     H12796   6.961   1.665   6.402 -2.1505 -0.5857 -3.2654
  836MOL0     H12797   6.950   1.367   6.484  2.6185 -1.1817 -0.1894
  836MOL0     H12798   7.043   1.489   6.572  1.2531  1.3336 -0.9148
  836MOL0     H12799   7.191   1.406   6.418  0.3626  2.1551  2.2187
  836MOL0     H12800   7.150   1.548   6.334  1.9872 -1.5730 -1.0862
  836MOL0     H12801   7.053   1.268   6.282  1.6711  1.4727  5.7684
  836MOL0     H12802   6.974   1.408   6.205 -0.8633 -1.1399 -1.0480
  836MOL0     H12803   7.134   1.325   6.040 -0.5693 -2.9506  0.9708
  836MOL0     H12804   7.188   1.476   6.101  1.1738  0.1928  0.6798
  836MOL0     H12805   7.338   1.343   6.282  1.1896  2.1447 -1.0343
  836MOL0     H12806   7.297   1.197   6.198 -3.9937 -0.5853 -0.5837
  836MOL0     H12807   7.415   1.450   6.070 -0.0498 -0.1685 -0.3180
  836MOL0     H12808   7.413   1.289   5.989  3.2588  0.2961 -0.3919
  836MOL0     H12809   7.548   1.365   6.250 -2.3900  2.5799 -0.8760
  836MOL0     H12810   7.570   1.202   6.189  1.1663  1.1750  1.7038
  836MOL0     H12811   7.726   1.512   6.210  0.2410  2.3204 -0.4556
  836MOL0     H12812   7.907   1.669   5.947 -0.5963  0.0477  0.3425
  836MOL0     H12813   7.908   1.659   6.127  3.1568 -1.2901  2.7966
  836MOL0     H12814   8.105   1.522   5.935  3.4238  1.8489  0.6896
  836MOL0     H12815   8.131   1.656   6.029  0.2742  0.0365 -0.9944
  836MOL0     H12816   8.057   1.501   6.234  0.9447  1.9200 -0.9931
  836MOL0     H12817   8.228   1.505   6.168  0.2544  0.1821 -1.5297
  836MOL0     H12818   8.170   1.308   6.020  2.0064 -0.6364  0.1493
  836MOL0     H12819   8.021   1.288   6.108  1.2196 -2.8349  2.1259
  836MOL0     H12820   8.400   1.232   6.040  3.1435  0.0551 -1.0243
  836MOL0     H12821   8.617   1.330   6.094  0.3437 -0.2425 -0.8507
  836MOL0     H12822   8.903   1.581   6.476  2.8141  0.6841  1.0672
  836MOL0     H12823   9.113   1.683   6.493  1.7889 -0.6046 -0.5869
  836MOL0     H12824   9.286   1.819   6.476  1.0413  1.2645 -1.0985
  836MOL0     H12825   9.355   1.651   6.486 -2.5107 -0.5421 -0.0399
  836MOL0     H12826   9.551   1.700   6.372 -2.2585  0.2398 -2.9931
  836MOL0     H12827   9.497   1.861   6.323 -0.5163  0.8954  0.6330
  836MOL0     H12828   9.506   1.941   6.553 -0.3627 -0.0623  0.1921
  836MOL0     H12829   9.556   1.785   6.613 -0.7097 -0.0683 -1.4093
  836MOL0     H12830   9.736   1.983   6.524  0.6459  0.8475 -3.1813
  836MOL0     H12831   9.724   1.877   6.379  3.2282 -3.0759  0.2896
  836MOL0     H12832   9.781   1.679   6.491 -0.4521  0.1395  0.1390
  836MOL0     H12833   9.762   1.761   6.633 -4.2020  2.2132 -1.9971
  836MOL0     H12834   9.986   1.853   6.436  0.3916  1.8512  1.4138
  836MOL0     H12835   9.974   1.910   6.591  0.7017  2.5418 -3.1395
  836MOL0     H12836  10.162   1.741   6.560  1.3712 -1.9301  0.7421
  836MOL0     H12837  10.040   1.613   6.532  2.7571  0.3024 -1.3743
  836MOL0     H12838   9.973   1.657   6.773  0.2796 -1.6238 -0.0765
  836MOL0     H12839  10.139   1.610   6.751 -0.8191  0.0105 -0.1758
  836MOL0     H12840   9.214   1.602   6.096  0.5603 -0.7700  0.6636
  836MOL0     H12841   8.985   1.485   6.061  0.6861  1.4556 -0.8214
  836MOL0     H12842   8.477   1.424   6.501  1.0010 -0.3843  0.9300
  836MOL0     H12843   8.251   1.346   6.425 -0.2426 -1.3472 -1.0482
  836MOL0     H12844   6.777   1.663   6.832  3.2808  1.6431  3.7547
  836MOL0     H12845   6.806   1.860   6.942  1.7750 -1.2749  0.3306
  836MOL0     H12846   6.909   2.311   6.740 -0.9978 -1.6335  1.6393
  836MOL0     H12847   6.908   2.549   6.676  1.0607 -2.3122 -1.1038
  836MOL0     H12848   6.609   2.822   6.834  1.0836 -2.2618  0.9898
  836MOL0     H12849   6.524   2.753   6.690  1.4779 -0.6007 -1.8422
  836MOL0     H12850   6.677   2.893   6.545 -0.3854  0.1822  0.7882
  836MOL0     H12851   6.734   2.990   6.681 -0.2643  3.9746 -1.7694
  836MOL0     H12852   6.568   3.138   6.615 -2.0531  0.0710  0.4473
  836MOL0     H12853   6.499   3.039   6.746  0.8210  0.2252  1.4440
  836MOL0     H12854   6.475   2.944   6.466  3.7528  0.9834  1.1436
  836MOL0     H12855   6.356   2.913   6.583  0.9346 -0.9782 -1.6070
  836MOL0     H12856   6.263   3.328   6.446  1.8398  0.0811 -0.4950
  836MOL0     H12857   6.508   2.588   6.824  0.7387 -0.1929  3.0079
  836MOL0     H12858   6.371   2.406   6.854  0.5280 -0.6750 -2.9623
  836MOL0     H12859   6.422   2.247   6.812  1.6649  0.1910  0.4298
  836MOL0     H12860   6.452   2.315   6.975  1.8861 -1.8551  0.8372
  837MOL0     O12861   0.628   1.085  11.132 -0.2256 -0.4699 -0.1562
  837MOL0     C12862   0.627   1.009  11.028 -0.2401  0.2321 -0.0175
  837MOL0     O12863   0.567   1.040  10.908 -0.0941  0.4884 -0.8065
  837MOL0     C12864   0.491   1.155  10.913 -0.0644 -0.8780  0.0530
  837MOL0     C12865   0.557   1.280  10.911 -0.0310  0.1337  0.1253
  837MOL0     C12866   0.491   1.405  10.920 -0.5076  0.3648  0.3503
  837MOL0     C12867   0.349   1.405  10.932  0.0537  0.3802  0.2135
  837MOL0     O12868   0.265   1.513  10.939 -1.0320  0.3980  0.9007
  837MOL0     C12869   0.338   1.628  10.985 -0.1237  0.0274 -0.1020
  837MOL0     C12870   0.234   1.743  11.002 -0.0275  0.2566 -0.4484
  837MOL0     C12871   0.135   1.713  11.112 -0.1466  0.2669 -0.8166
  837MOL0     C12872   0.074   1.849  11.150  0.4589  0.0716  0.1494
  837MOL0     C12873  -0.054   1.845  11.236 -0.2858 -0.6844 -0.2392
  837MOL0     C12874  -0.162   1.744  11.186  0.6749 -0.1031  0.1627
  837MOL0     C12875  -0.200   1.742  11.037  0.7818 -0.6479 -0.4822
  837MOL0     C12876  -0.247   1.885  11.001  0.5917 -0.5815  0.3958
  837MOL0     N12877  -0.324   1.885  10.876 -0.1533 -0.6984  0.5161
  837MOL0     C12878  -0.447   1.934  10.843 -0.5978  0.4315  0.0239
  837MOL0     C12879  -0.455   1.951  10.708  0.4538  0.2745 -0.1703
  837MOL0     C12880  -0.564   2.000  10.624  0.0403 -0.4229 -0.7215
  837MOL0     C12881  -0.605   1.909  10.506 -0.5450 -0.9919  0.6757
  837MOL0     C12882  -0.749   1.923  10.459  0.0191 -1.0327 -0.2604
  837MOL0     C12883  -0.774   1.855  10.318  0.1232  0.4778 -0.8757
  837MOL0     O12884  -0.765   1.713  10.321 -0.6770 -0.0045 -0.0656
  837MOL0     C12885  -0.862   1.637  10.375 -0.5114  0.2285 -0.0497
  837MOL0     C12886  -0.827   1.501  10.390 -1.1902  0.1651  0.3938
  837MOL0     C12887  -0.920   1.411  10.428 -0.8786 -0.3425  0.4484
  837MOL0     C12888  -1.047   1.442  10.479  0.1110  0.0714  0.7542
  837MOL0     C12889  -1.151   1.342  10.512  0.3536  1.2338 -0.0361
  837MOL0     O12890  -1.125   1.202  10.493  0.5405 -0.8265  0.3984
  837MOL0     C12891  -1.214   1.109  10.531 -0.0498  0.2256  0.2742
  837MOL0     C12892  -1.233   1.004  10.441 -0.2136  0.1473  0.4605
  837MOL0     C12893  -1.319   0.900  10.484 -1.2804  0.3458 -0.1703
  837MOL0     C12894  -1.382   0.901  10.607  0.2796  0.0560 -0.6278
  837MOL0     O12895  -1.491   0.817  10.635  0.1160  0.2830  0.3000
  837MOL0     C12896  -1.478   0.738  10.750 -0.6400  0.3018  0.1657
  837MOL0     C12897  -1.568   0.611  10.763 -0.6482  0.0409  0.1041
  837MOL0     C12898  -1.533   0.523  10.880  0.1567  1.0609  0.4596
  837MOL0     C12899  -1.626   0.402  10.898  1.2032  1.1412  0.7081
  837MOL0     C12900  -1.555   0.285  10.946 -0.0523  0.6006 -0.2733
  837MOL0     C12901  -1.644   0.163  10.977  0.0193 -0.9430 -1.2757
  837MOL0     C12902  -1.703   0.088  10.851 -0.0398  0.4738 -0.5458
  837MOL0     C12903  -1.765  -0.050  10.879  0.4843 -0.0150  0.4144
  837MOL0    Cl12904  -1.901  -0.014  10.995 -0.0658  0.3488  0.1081
  837MOL0     C12905  -1.352   0.996  10.698  0.5045  0.0036 -0.1476
  837MOL0     C12906  -1.278   1.108  10.658  0.1681 -0.9416 -0.5135
  837MOL0     O12907  -1.262   1.385  10.557  0.0794  1.2493  0.9192
  837MOL0     C12908  -1.075   1.578  10.479  0.5915 -0.2410  0.6012
  837MOL0     C12909  -0.985   1.670  10.431  0.3026 -0.5890 -0.4989
  837MOL0     N12910  -0.326   1.907  10.671  0.5770  0.4629  1.2596
  837MOL0     N12911  -0.252   1.872  10.760  0.5091 -1.5313 -0.2119
  837MOL0     C12912   0.288   1.284  10.933  0.5783  0.5014  0.5957
  837MOL0     C12913   0.355   1.159  10.922 -0.3532  0.4173  0.3274
  837MOL0     C12914   0.687   0.872  11.033  0.8334  0.0816  0.9183
  837MOL0     C12915   0.787   0.833  11.130  0.4364 -1.0047 -0.3690
  837MOL0     C12916   0.852   0.709  11.130 -0.4743 -0.5587 -0.2277
  837MOL0     C12917   0.802   0.609  11.055  0.1404 -0.9856  0.1446
  837MOL0     O12918   0.844   0.482  11.075 -0.1825  0.0004 -0.0138
  837MOL0     C12919   0.945   0.434  11.169  0.3910 -0.1997 -0.0773
  837MOL0     C12920   0.903   0.388  11.313  0.1299  0.1334  0.3051
  837MOL0     C12921   0.759   0.322  11.325  0.3734  0.3671  0.5455
  837MOL0     C12922   0.649   0.434  11.343  0.3091  0.4347 -0.3038
  837MOL0     C12923   0.545   0.441  11.228 -0.2233 -0.1495 -0.4481
  837MOL0     C12924   0.465   0.433  11.140 -0.1854  0.4061  0.1330
  837MOL0     C12925   0.708   0.642  10.958  0.3494  0.3040 -0.5718
  837MOL0     C12926   0.631   0.763  10.955 -1.0685  0.0461 -0.5469
  837MOL0     C12927   0.523   0.773  10.851 -1.1972 -0.0109  0.3408
  837MOL0     H12928   0.664   1.276  10.894  0.0239  1.4517  0.0434
  837MOL0     H12929   0.545   1.499  10.911 -1.0988  0.6373 -0.5444
  837MOL0     H12930   0.410   1.621  11.067 -0.2911 -0.6321 -0.0060
  837MOL0     H12931   0.402   1.666  10.905  1.9683 -1.2678  0.8666
  837MOL0     H12932   0.177   1.739  10.909 -0.2109 -0.0381 -0.3268
  837MOL0     H12933   0.286   1.839  11.005  0.5499 -0.0689  0.5626
  837MOL0     H12934   0.180   1.668  11.201  0.7181 -1.1415 -1.9276
  837MOL0     H12935   0.056   1.645  11.078  0.1015 -0.3551 -0.1760
  837MOL0     H12936   0.147   1.916  11.198 -0.5219  1.8103 -0.6654
  837MOL0     H12937   0.048   1.887  11.050 -2.3431 -0.1992  0.7042
  837MOL0     H12938  -0.015   1.819  11.335  1.7477  0.0043 -0.8238
  837MOL0     H12939  -0.096   1.946  11.239  0.4028 -0.3354 -1.6599
  837MOL0     H12940  -0.133   1.642  11.213  1.0172 -0.9353 -2.9951
  837MOL0     H12941  -0.255   1.768  11.239  0.7579  0.6215 -0.0094
  837MOL0     H12942  -0.282   1.673  11.015  0.0282 -0.3213  1.1617
  837MOL0     H12943  -0.117   1.700  10.977 -0.9428 -0.6423 -3.0260
  837MOL0     H12944  -0.310   1.925  11.081  2.5457 -2.3307  2.9566
  837MOL0     H12945  -0.156   1.946  10.994  0.3743 -0.2647  0.3213
  837MOL0     H12946  -0.522   1.954  10.919  0.4630  2.8326  0.5155
  837MOL0     H12947  -0.659   2.022  10.673 -0.3947 -1.7414 -0.9135
  837MOL0     H12948  -0.523   2.097  10.596  0.4303 -0.0812  0.9504
  837MOL0     H12949  -0.541   1.921  10.419 -0.7720 -0.5281  0.5736
  837MOL0     H12950  -0.583   1.805  10.535 -1.0718 -1.4482 -0.4983
  837MOL0     H12951  -0.758   2.032  10.454  1.1898 -0.7857  1.7189
  837MOL0     H12952  -0.822   1.890  10.533  0.3652 -1.2647 -0.0184
  837MOL0     H12953  -0.710   1.897  10.240  1.7419  3.9368  2.0241
  837MOL0     H12954  -0.877   1.880  10.290 -0.7022 -1.3296  0.3314
  837MOL0     H12955  -0.724   1.471  10.372 -1.4593 -0.8357  0.4675
  837MOL0     H12956  -0.879   1.311  10.421  3.6619  1.1681  1.8492
  837MOL0     H12957  -1.164   0.995  10.358 -0.6432 -0.9623  0.2014
  837MOL0     H12958  -1.347   0.819  10.416  1.3150 -0.5433 -0.2680
  837MOL0     H12959  -1.373   0.707  10.749 -1.3725 -2.5463  0.0408
  837MOL0     H12960  -1.495   0.803  10.836  0.0123  1.5721 -0.6448
  837MOL0     H12961  -1.672   0.644  10.754 -1.0154 -1.1752 -0.3317
  837MOL0     H12962  -1.543   0.549  10.677 -3.3508 -0.0658 -0.7145
  837MOL0     H12963  -1.432   0.484  10.861  0.3161  0.8528  1.6448
  837MOL0     H12964  -1.537   0.576  10.976  1.2190  0.7624  0.6829
  837MOL0     H12965  -1.666   0.368  10.802  3.0736  3.0054 -0.8245
  837MOL0     H12966  -1.710   0.434  10.961  1.8236  1.3708  1.4229
  837MOL0     H12967  -1.502   0.322  11.034 -2.4123 -0.2960  1.6336
  837MOL0     H12968  -1.483   0.242  10.876  1.2927 -0.6675  1.7707
  837MOL0     H12969  -1.575   0.106  11.039  1.3713  2.9977  1.2293
  837MOL0     H12970  -1.726   0.184  11.046  0.3652  2.7352 -1.7549
  837MOL0     H12971  -1.624   0.067  10.778 -3.0434  0.3410 -4.0306
  837MOL0     H12972  -1.777   0.147  10.795  1.7478  1.2040 -2.2767
  837MOL0     H12973  -1.810  -0.101  10.794  0.0138 -1.3511  1.4270
  837MOL0     H12974  -1.689  -0.120  10.913 -0.9621 -1.3554  1.0322
  837MOL0     H12975  -1.387   1.007  10.801 -1.2719  0.7017 -0.7780
  837MOL0     H12976  -1.260   1.194  10.722 -1.0665 -1.8941  1.1858
  837MOL0     H12977  -1.174   1.606  10.513  1.2025  0.1475  2.1225
  837MOL0     H12978  -1.008   1.776  10.424  1.8418 -0.3443 -3.3805
  837MOL0     H12979   0.182   1.280  10.952  0.4936 -1.2315 -0.0909
  837MOL0     H12980   0.311   1.065  10.952  1.5674  0.3497  3.3614
  837MOL0     H12981   0.833   0.910  11.192  1.6975 -2.1008  0.1053
  837MOL0     H12982   0.942   0.700  11.190 -0.6531 -0.4172  0.0650
  837MOL0     H12983   1.021   0.512  11.183 -1.7255  2.1315 -0.7839
  837MOL0     H12984   0.990   0.346  11.122  4.6486  2.8584 -2.4795
  837MOL0     H12985   0.908   0.475  11.379  0.8782  0.7771 -0.5769
  837MOL0     H12986   0.974   0.312  11.348  0.6580  0.7718  0.6266
  837MOL0     H12987   0.751   0.247  11.405 -0.6075 -0.9180 -0.7047
  837MOL0     H12988   0.738   0.269  11.231  1.7862  1.7155 -0.5752
  837MOL0     H12989   0.594   0.436  11.438  0.4773  1.4727 -0.2220
  837MOL0     H12990   0.700   0.530  11.343 -1.1321  1.2355  0.0338
  837MOL0     H12991   0.420   0.414  11.045  2.2109 -1.7297 -0.7206
  837MOL0     H12992   0.673   0.556  10.901 -0.6169  0.7980 -0.7356
  837MOL0     H12993   0.556   0.841  10.772 -0.5413 -0.9606 -0.2157
  837MOL0     H12994   0.511   0.677  10.800  2.8002 -0.5696  0.1516
  837MOL0     H12995   0.429   0.799  10.901 -3.8099 -2.6989 -2.7345
  838MOL0     O12996   0.864   8.792   3.873  0.0346  0.2639 -0.6512
  838MOL0     C12997   0.914   8.896   3.913 -0.0244  0.7676 -0.4068
  838MOL0     O12998   0.842   9.007   3.936 -0.7095  1.3807 -0.4536
  838MOL0     C12999   0.708   9.007   3.956  0.2907 -0.8702 -0.2479
  838MOL0     C13000   0.642   8.906   4.026  1.2534 -0.0960 -1.0649
  838MOL0     C13001   0.505   8.900   4.038  0.0458  0.8634  0.4044
  838MOL0     C13002   0.420   9.001   3.988 -1.6507  0.2224  0.7069
  838MOL0     O13003   0.288   9.004   3.994 -0.9118 -0.3131 -0.0629
  838MOL0     C13004   0.212   8.882   3.965  0.7045  0.0454  0.1378
  838MOL0     C13005   0.077   8.907   3.893 -1.0033  1.1352  0.8599
  838MOL0     C13006   0.097   8.976   3.756 -0.1527 -0.4509  0.2967
  838MOL0     C13007   0.203   8.913   3.654 -1.2592  1.1253  0.4009
  838MOL0     C13008   0.136   8.809   3.554  0.1671 -0.1315 -0.4697
  838MOL0     C13009   0.214   8.781   3.424  0.0541  0.5613 -0.8412
  838MOL0     C13010   0.120   8.718   3.319 -0.2420  0.4798  0.3180
  838MOL0     C13011   0.177   8.685   3.168 -0.6649 -0.3067  0.0009
  838MOL0     N13012   0.283   8.582   3.178 -0.1935  1.1991  0.4295
  838MOL0     C13013   0.414   8.593   3.188  0.4658  0.2404 -1.8833
  838MOL0     C13014   0.461   8.464   3.196  0.3866  0.4637 -1.2496
  838MOL0     C13015   0.599   8.424   3.238  1.0013  0.8681  0.3545
  838MOL0     C13016   0.602   8.364   3.374  0.0891 -0.3187 -0.1111
  838MOL0     C13017   0.605   8.213   3.364  0.6875 -0.4753  0.6770
  838MOL0     C13018   0.583   8.149   3.505 -0.4027 -0.2096 -0.0907
  838MOL0     O13019   0.623   8.017   3.505  0.0311  0.4631 -0.7488
  838MOL0     C13020   0.546   7.924   3.433 -0.4473 -0.3317  0.3500
  838MOL0     C13021   0.600   7.794   3.438 -0.3078  0.4448  0.1111
  838MOL0     C13022   0.545   7.687   3.373  0.0107  0.0984 -0.2647
  838MOL0     C13023   0.429   7.708   3.300  0.6489  0.5667  0.0205
  838MOL0     C13024   0.356   7.586   3.246 -1.2203 -0.5575 -0.3150
  838MOL0     O13025   0.387   7.456   3.298  0.1347  0.0805  0.8284
  838MOL0     C13026   0.304   7.362   3.232 -0.3627  0.5694 -0.1964
  838MOL0     C13027   0.203   7.306   3.308  0.4171  0.0127 -0.6642
  838MOL0     C13028   0.133   7.205   3.245  0.5207 -1.1037 -0.7489
  838MOL0     C13029   0.161   7.146   3.125  0.0092 -0.5748 -0.7225
  838MOL0     O13030   0.103   7.025   3.097  0.4013 -0.3531  0.0186
  838MOL0     C13031   0.168   6.941   2.997 -0.1787 -0.0786 -1.0479
  838MOL0     C13032   0.107   6.800   3.017 -0.1927  0.2114  0.3779
  838MOL0     C13033   0.160   6.696   2.923  0.3900  0.0211 -0.4496
  838MOL0     C13034   0.314   6.671   2.926  0.4127  0.1331 -0.0324
  838MOL0     C13035   0.348   6.517   2.893 -0.0058 -0.1761  0.0144
  838MOL0     C13036   0.470   6.462   2.972  1.6252 -0.3793 -0.2638
  838MOL0     C13037   0.498   6.327   2.920 -0.6537  0.6419  1.0564
  838MOL0     C13038   0.611   6.339   2.818 -0.2003  0.2828 -0.8441
  838MOL0    Cl13039   0.617   6.219   2.682 -0.2875 -0.2172  0.2129
  838MOL0     C13040   0.258   7.208   3.042 -0.0324  0.2283  0.1988
  838MOL0     C13041   0.327   7.315   3.098 -0.3720 -0.0367  0.1759
  838MOL0     O13042   0.273   7.618   3.158 -0.4828 -0.2417 -0.3665
  838MOL0     C13043   0.375   7.833   3.291  0.4797  0.2192  0.2325
  838MOL0     C13044   0.433   7.938   3.362 -0.6658 -0.5137  0.2305
  838MOL0     N13045   0.360   8.373   3.175 -0.0741 -1.1132 -0.5702
  838MOL0     N13046   0.258   8.443   3.176 -0.1042 -1.0620 -0.5300
  838MOL0     C13047   0.483   9.105   3.932  0.0994 -0.4634 -0.2560
  838MOL0     C13048   0.627   9.118   3.915  0.7268  0.0065 -1.1671
  838MOL0     C13049   1.057   8.913   3.943 -0.2305 -0.3042  0.3460
  838MOL0     C13050   1.117   9.040   3.953 -0.0784  0.1417 -0.1378
  838MOL0     C13051   1.241   9.057   4.016  0.1953 -0.1977 -0.7533
  838MOL0     C13052   1.311   8.946   4.069  0.1329  0.4056  0.7400
  838MOL0     O13053   1.424   8.955   4.140 -0.7313  0.1018  0.0834
  838MOL0     C13054   1.543   8.936   4.064 -0.5101  0.1642 -0.3690
  838MOL0     C13055   1.612   9.062   4.015 -0.2495 -0.6197  0.0972
  838MOL0     C13056   1.762   9.018   4.005 -0.7352  0.5076  0.3978
  838MOL0     C13057   1.866   9.127   3.954 -0.0756  0.0765  0.1570
  838MOL0     C13058   1.828   9.160   3.818  0.6528  1.3751  1.1454
  838MOL0     C13059   1.793   9.170   3.706  0.3318  1.1585 -0.1154
  838MOL0     C13060   1.259   8.822   4.051  0.0598 -0.1559 -1.5854
  838MOL0     C13061   1.132   8.800   3.991  0.7453 -0.5392 -0.1223
  838MOL0     C13062   1.066   8.664   4.004  0.4250 -0.6069 -0.0529
  838MOL0     H13063   0.696   8.820   4.065 -1.4279 -1.0944  0.7199
  838MOL0     H13064   0.471   8.808   4.085 -0.1185  1.3846  1.3427
  838MOL0     H13065   0.266   8.804   3.911 -1.7831 -1.8200  0.1821
  838MOL0     H13066   0.191   8.847   4.066  0.1840 -0.5793 -0.1805
  838MOL0     H13067   0.011   8.966   3.957 -0.5190  2.2919  0.3177
  838MOL0     H13068   0.030   8.809   3.881 -2.0370  1.2603  3.1890
  838MOL0     H13069   0.135   9.077   3.775  2.2240 -1.2313  0.1061
  838MOL0     H13070   0.007   8.986   3.695  1.8756 -0.2692 -2.8712
  838MOL0     H13071   0.251   8.996   3.601  0.3394 -0.8343 -1.3787
  838MOL0     H13072   0.279   8.865   3.717 -2.3514  2.1439  2.6284
  838MOL0     H13073   0.115   8.720   3.614 -2.5283  1.3053  0.9224
  838MOL0     H13074   0.036   8.842   3.525 -1.1868 -1.2491  2.5086
  838MOL0     H13075   0.259   8.872   3.384 -0.2107  1.5669  1.0461
  838MOL0     H13076   0.301   8.718   3.450 -0.3860  0.2026 -0.1983
  838MOL0     H13077   0.030   8.776   3.297 -2.3637 -1.9316  2.0560
  838MOL0     H13078   0.076   8.629   3.365  1.6254 -1.2358 -1.0398
  838MOL0     H13079   0.100   8.641   3.103  0.1275 -2.3606  0.3874
  838MOL0     H13080   0.209   8.781   3.128 -0.0353 -0.0408  1.1289
  838MOL0     H13081   0.469   8.683   3.213 -1.1330  0.3612  1.7452
  838MOL0     H13082   0.638   8.351   3.166 -1.2045  0.8270 -0.8793
  838MOL0     H13083   0.666   8.510   3.248 -1.6752  3.5686 -2.6989
  838MOL0     H13084   0.687   8.391   3.437 -1.3802  2.8566  0.7290
  838MOL0     H13085   0.517   8.401   3.432  0.4061  3.2813 -1.6510
  838MOL0     H13086   0.695   8.179   3.313  0.4147 -1.5056  0.8641
  838MOL0     H13087   0.523   8.185   3.297  0.6409  0.5005  0.3138
  838MOL0     H13088   0.478   8.158   3.535 -0.8714  0.8147 -1.8875
  838MOL0     H13089   0.636   8.201   3.585 -4.3184  3.1335  0.6464
  838MOL0     H13090   0.682   7.782   3.509  0.9918  0.7188 -1.2771
  838MOL0     H13091   0.576   7.583   3.378  2.1762  0.6585 -0.7828
  838MOL0     H13092   0.164   7.347   3.401  0.6626 -0.0798 -0.5221
  838MOL0     H13093   0.050   7.161   3.300 -3.2789  2.3295 -3.1534
  838MOL0     H13094   0.166   6.985   2.897 -1.1443  2.2404 -0.0756
  838MOL0     H13095   0.272   6.919   3.024  0.5093 -0.0393 -3.4478
  838MOL0     H13096   0.123   6.758   3.117  0.1014 -2.0617 -0.5616
  838MOL0     H13097   0.001   6.822   3.010  0.1942  1.7853 -1.1475
  838MOL0     H13098   0.113   6.602   2.953  3.8550 -2.0064 -0.8184
  838MOL0     H13099   0.131   6.735   2.825  1.0287  0.1575 -0.5913
  838MOL0     H13100   0.343   6.690   3.030  0.0135 -0.3475  0.1756
  838MOL0     H13101   0.370   6.738   2.860  0.9946  0.3000  0.6169
  838MOL0     H13102   0.367   6.514   2.785 -0.1926  1.7605 -0.1097
  838MOL0     H13103   0.270   6.442   2.909 -0.7642  0.8313  1.2144
  838MOL0     H13104   0.559   6.526   2.968  1.2838  0.8010  4.8257
  838MOL0     H13105   0.445   6.450   3.078 -3.5206 -1.5314 -1.3532
  838MOL0     H13106   0.416   6.280   2.865  0.7841 -0.8500  0.0733
  838MOL0     H13107   0.527   6.259   3.001  2.6704  0.9399  0.2531
  838MOL0     H13108   0.601   6.439   2.774 -0.5341  0.0835 -1.2257
  838MOL0     H13109   0.713   6.339   2.857  0.9315  1.2303 -3.5947
  838MOL0     H13110   0.277   7.175   2.940 -3.9626  3.1630 -1.7485
  838MOL0     H13111   0.402   7.357   3.032 -1.5823 -0.5072 -1.5354
  838MOL0     H13112   0.281   7.853   3.240  0.4337  1.8551  0.8914
  838MOL0     H13113   0.390   8.036   3.346 -0.0235 -0.1984  0.4135
  838MOL0     H13114   0.414   9.181   3.898 -0.4717 -0.6056  0.5543
  838MOL0     H13115   0.675   9.207   3.875  0.0423  1.5174  1.1444
  838MOL0     H13116   1.053   9.116   3.909  1.8577  1.2975 -1.1320
  838MOL0     H13117   1.285   9.155   4.032  0.6275 -0.2735 -1.4356
  838MOL0     H13118   1.522   8.864   3.985 -0.5969 -0.3696  0.1372
  838MOL0     H13119   1.608   8.882   4.134 -0.9877 -0.9989 -0.8139
  838MOL0     H13120   1.606   9.138   4.093 -1.3163 -1.4600  0.8784
  838MOL0     H13121   1.581   9.106   3.919 -1.2399 -0.9724  0.2391
  838MOL0     H13122   1.764   8.924   3.949 -3.3267 -1.3402  3.1027
  838MOL0     H13123   1.794   8.987   4.106 -1.5869 -0.7664  0.2991
  838MOL0     H13124   1.865   9.220   4.013  0.4609 -0.8472  1.6833
  838MOL0     H13125   1.972   9.099   3.961  0.1939  1.3894  2.0841
  838MOL0     H13126   1.769   9.191   3.604  1.0967  0.1287 -0.5259
  838MOL0     H13127   1.309   8.734   4.089 -2.4629 -0.8419  0.4215
  838MOL0     H13128   1.042   8.631   3.903 -0.0792 -1.4183  0.3141
  838MOL0     H13129   1.146   8.602   4.047  4.4701  3.5995 -0.6521
  838MOL0     H13130   0.984   8.657   4.077  1.2987 -0.7419  0.9499
  839MOL0     O13131   3.262   2.391   4.964 -0.3347  0.3927 -0.4314
  839MOL0     C13132   3.315   2.289   5.016 -0.0769  0.3316 -0.0469
  839MOL0     O13133   3.281   2.159   4.997 -0.1892 -0.6332 -0.0058
  839MOL0     C13134   3.174   2.115   4.929  0.3364  0.0002  0.3822
  839MOL0     C13135   3.186   1.981   4.908 -0.1004 -0.2294 -0.3220
  839MOL0     C13136   3.097   1.909   4.824  0.0824 -0.1331 -0.3641
  839MOL0     C13137   2.981   1.982   4.786  0.0634 -0.0310 -0.4336
  839MOL0     O13138   2.890   1.908   4.711  0.0281 -0.2245  0.7720
  839MOL0     C13139   2.850   1.961   4.587  0.4857  0.2398  0.0850
  839MOL0     C13140   2.942   1.900   4.483 -0.1654 -0.2073  0.6755
  839MOL0     C13141   2.924   1.951   4.336 -0.1362  0.2509 -0.1307
  839MOL0     C13142   2.801   1.884   4.264 -0.4523  0.6071 -0.0181
  839MOL0     C13143   2.792   1.931   4.130  1.1955  0.1040 -0.5282
  839MOL0     C13144   2.688   1.866   4.034  0.6434  0.1450  0.9091
  839MOL0     C13145   2.692   1.928   3.895 -0.3596  0.3645 -0.1916
  839MOL0     C13146   2.596   1.857   3.803 -0.0208 -0.1262  0.1198
  839MOL0     N13147   2.643   1.716   3.796  0.2027  0.1271  0.2658
  839MOL0     C13148   2.768   1.677   3.749  0.2291 -0.2527  0.1444
  839MOL0     C13149   2.760   1.544   3.726  0.2830  1.0204  1.5787
  839MOL0     C13150   2.875   1.449   3.682 -0.2537 -0.8208 -0.5443
  839MOL0     C13151   2.840   1.352   3.564 -0.2555  0.8378  0.5094
  839MOL0     C13152   2.949   1.269   3.497 -0.8319 -0.7672  0.6254
  839MOL0     C13153   2.986   1.140   3.572  0.3597 -1.1733 -0.4801
  839MOL0     O13154   3.044   1.180   3.698 -0.1062  1.0429  0.5676
  839MOL0     C13155   3.150   1.106   3.731  0.6165 -0.4966 -0.0415
  839MOL0     C13156   3.267   1.094   3.656  0.0558  0.1224 -0.4544
  839MOL0     C13157   3.366   1.002   3.701  0.9505  0.3142  1.1457
  839MOL0     C13158   3.344   0.914   3.805  0.1431 -0.0576 -0.2581
  839MOL0     C13159   3.452   0.828   3.854 -0.3093  1.8061  0.4690
  839MOL0     O13160   3.577   0.868   3.837 -0.5353  0.6723 -0.8851
  839MOL0     C13161   3.678   0.795   3.894  0.5791 -0.0391  0.0794
  839MOL0     C13162   3.709   0.827   4.029 -0.6575 -0.1908  1.1235
  839MOL0     C13163   3.827   0.762   4.078 -0.2569 -0.2964  0.4041
  839MOL0     C13164   3.903   0.675   3.998  0.2833 -0.0937 -0.3524
  839MOL0     O13165   4.012   0.620   4.058 -0.2026 -0.5501 -0.1349
  839MOL0     C13166   4.027   0.473   4.045 -1.1864 -0.0257 -0.1025
  839MOL0     C13167   4.145   0.452   4.136 -1.0795 -0.3951  0.4303
  839MOL0     C13168   4.204   0.304   4.118  0.3074  0.1498  0.3930
  839MOL0     C13169   4.295   0.280   4.245  0.6106  0.2541 -0.6212
  839MOL0     C13170   4.399   0.178   4.199  0.1383 -0.1613 -0.2764
  839MOL0     C13171   4.516   0.256   4.131 -0.1702 -0.2069 -0.9577
  839MOL0     C13172   4.594   0.355   4.213  0.3089 -0.2291 -0.7320
  839MOL0     C13173   4.747   0.350   4.201 -0.2835  0.0363 -0.6247
  839MOL0    Cl13174   4.818   0.455   4.320  0.2053 -0.2998 -0.2160
  839MOL0     C13175   3.853   0.627   3.872  0.9655 -0.0269  0.3608
  839MOL0     C13176   3.742   0.695   3.820  0.3032  0.1264 -0.1758
  839MOL0     O13177   3.415   0.720   3.906 -0.0421  0.4818 -0.0714
  839MOL0     C13178   3.234   0.936   3.882 -0.9791 -0.0089 -0.1147
  839MOL0     C13179   3.138   1.030   3.848 -0.2313 -0.4622  0.3645
  839MOL0     N13180   2.628   1.506   3.772 -0.1867 -0.1071  0.1956
  839MOL0     N13181   2.571   1.609   3.816  0.4052  0.0552 -0.0146
  839MOL0     C13182   2.967   2.123   4.802 -0.4737  0.6077 -0.5067
  839MOL0     C13183   3.063   2.191   4.879 -0.0474  0.4853  0.4222
  839MOL0     C13184   3.423   2.310   5.109  0.5856 -0.1585  0.7705
  839MOL0     C13185   3.391   2.412   5.206 -0.3259 -0.5978 -0.4233
  839MOL0     C13186   3.495   2.449   5.294 -0.4481  0.0653  0.8359
  839MOL0     C13187   3.619   2.382   5.302 -0.0682 -0.7125 -0.4727
  839MOL0     O13188   3.730   2.415   5.372  0.2299 -0.5024 -0.2820
  839MOL0     C13189   3.741   2.550   5.433  0.1980  0.7530  0.2503
  839MOL0     C13190   3.807   2.655   5.328  0.3062  0.7344  0.0899
  839MOL0     C13191   3.963   2.643   5.297 -0.2897 -0.1336 -0.1807
  839MOL0     C13192   4.047   2.658   5.413  0.2217  0.3685 -0.6735
  839MOL0     C13193   4.112   2.534   5.452  0.8288  0.9669 -0.4116
  839MOL0     C13194   4.155   2.423   5.481 -0.3741  0.6125 -1.1139
  839MOL0     C13195   3.628   2.267   5.223 -0.9395 -0.7560  0.2544
  839MOL0     C13196   3.534   2.231   5.128  0.6037 -0.3838  0.6590
  839MOL0     C13197   3.571   2.110   5.044  0.4129 -0.6942  1.0703
  839MOL0     H13198   3.269   1.926   4.951  0.6728  0.8484 -0.4204
  839MOL0     H13199   3.113   1.804   4.803  0.1607 -0.3484  0.7056
  839MOL0     H13200   2.744   1.939   4.572  0.5378 -0.7189  1.0260
  839MOL0     H13201   2.851   2.070   4.592  1.4052  0.3421 -1.5034
  839MOL0     H13202   2.918   1.795   4.470  3.9891 -0.9911 -2.9295
  839MOL0     H13203   3.049   1.913   4.504  0.4723  0.8260 -2.6215
  839MOL0     H13204   3.017   1.925   4.285  0.7542 -0.1950  1.6348
  839MOL0     H13205   2.920   2.060   4.336 -0.5021  0.2756 -1.9988
  839MOL0     H13206   2.801   1.775   4.260 -0.6583  0.6034  0.0776
  839MOL0     H13207   2.717   1.904   4.332  0.9635 -2.5935  2.9719
  839MOL0     H13208   2.755   2.033   4.150  0.6156 -0.2670  0.3809
  839MOL0     H13209   2.891   1.928   4.085  1.6552 -0.7913  0.5127
  839MOL0     H13210   2.696   1.757   4.036 -2.1255 -0.1410  0.4774
  839MOL0     H13211   2.584   1.877   4.065 -0.3179 -2.7611 -0.8779
  839MOL0     H13212   2.791   1.931   3.850 -1.3000  1.7781 -2.3324
  839MOL0     H13213   2.664   2.033   3.900  0.0167  0.5597 -1.6066
  839MOL0     H13214   2.498   1.856   3.853 -0.0284  0.6804  0.1275
  839MOL0     H13215   2.597   1.899   3.702 -2.1525 -2.2629 -0.9066
  839MOL0     H13216   2.855   1.740   3.742  0.7751 -1.1018 -1.0715
  839MOL0     H13217   2.957   1.512   3.647 -1.3042  1.2500  0.5469
  839MOL0     H13218   2.904   1.387   3.768  3.9416  0.4011 -0.8648
  839MOL0     H13219   2.765   1.284   3.604  0.7253  0.0812  1.1141
  839MOL0     H13220   2.797   1.416   3.487 -0.1906  1.0466  0.6468
  839MOL0     H13221   3.040   1.327   3.476 -2.0157  0.2741 -2.1598
  839MOL0     H13222   2.916   1.239   3.397 -1.2751 -1.9428  1.1072
  839MOL0     H13223   3.050   1.074   3.513  3.0021  4.0087 -4.1738
  839MOL0     H13224   2.895   1.082   3.593  0.6958 -0.3020  4.7003
  839MOL0     H13225   3.281   1.149   3.563 -1.6212 -0.1125 -0.8716
  839MOL0     H13226   3.443   0.987   3.626 -0.2829  2.9589 -0.8031
  839MOL0     H13227   3.645   0.887   4.093  2.0474  0.5468  3.3624
  839MOL0     H13228   3.856   0.774   4.181 -0.4529  1.7116  0.2621
  839MOL0     H13229   3.940   0.414   4.076 -1.1401 -1.2890 -2.1276
  839MOL0     H13230   4.046   0.442   3.941 -0.3850  0.0122  0.0246
  839MOL0     H13231   4.228   0.516   4.105 -1.2974 -0.6890 -0.7860
  839MOL0     H13232   4.106   0.478   4.235  0.2271 -0.2804  0.9391
  839MOL0     H13233   4.131   0.223   4.120  2.0190 -1.4819 -0.6141
  839MOL0     H13234   4.261   0.287   4.026 -0.3735 -0.6302  0.1001
  839MOL0     H13235   4.221   0.258   4.322  0.6610 -1.4656 -1.0093
  839MOL0     H13236   4.344   0.368   4.286 -1.9656  2.4243 -1.8476
  839MOL0     H13237   4.362   0.105   4.127  0.6944  0.7550 -1.5278
  839MOL0     H13238   4.419   0.118   4.288 -3.9076 -0.6801  0.4988
  839MOL0     H13239   4.584   0.177   4.098  0.2495 -1.5806  2.7365
  839MOL0     H13240   4.472   0.312   4.048  1.0801  1.2041 -0.7238
  839MOL0     H13241   4.563   0.337   4.317  0.4753  0.8564 -0.4730
  839MOL0     H13242   4.553   0.451   4.180  0.5359 -0.3715 -1.4254
  839MOL0     H13243   4.768   0.247   4.232 -0.6435  0.6563  1.9212
  839MOL0     H13244   4.796   0.384   4.109  0.0947 -0.0702 -0.4657
  839MOL0     H13245   3.903   0.546   3.819  2.4212 -0.1142  1.7833
  839MOL0     H13246   3.720   0.664   3.718  7.0118 -4.0263 -0.9420
  839MOL0     H13247   3.226   0.876   3.971  0.8070  1.0191  0.8089
  839MOL0     H13248   3.062   1.039   3.925 -1.3582  0.1568 -0.7721
  839MOL0     H13249   2.883   2.182   4.769  0.3856  0.8332 -2.4099
  839MOL0     H13250   3.049   2.298   4.888 -0.3857  0.9410 -3.6878
  839MOL0     H13251   3.299   2.469   5.207  0.8299  1.3941 -1.6688
  839MOL0     H13252   3.466   2.524   5.368 -2.5308 -0.7244  0.8813
  839MOL0     H13253   3.805   2.544   5.522  1.2023  1.6210 -0.3920
  839MOL0     H13254   3.640   2.585   5.458  0.1258  0.8019 -0.1025
  839MOL0     H13255   3.786   2.760   5.351 -1.4010  1.9204 -5.4602
  839MOL0     H13256   3.758   2.640   5.232 -1.5399  1.6375  0.8417
  839MOL0     H13257   3.976   2.726   5.227 -0.1467  1.2432  1.4064
  839MOL0     H13258   3.977   2.550   5.241 -0.9176 -0.4310  0.1437
  839MOL0     H13259   4.122   2.737   5.404  2.1831 -1.5594 -2.4457
  839MOL0     H13260   3.982   2.696   5.493 -0.5637 -1.7744 -0.2137
  839MOL0     H13261   4.210   2.342   5.525 -0.3737  1.8484  1.3580
  839MOL0     H13262   3.717   2.205   5.222 -0.0293  0.4781  1.2248
  839MOL0     H13263   3.672   2.075   5.070  0.9609 -0.2049 -0.3026
  839MOL0     H13264   3.504   2.024   5.040  1.8011 -1.7719 -2.0957
  839MOL0     H13265   3.571   2.131   4.937  0.9714  0.8809  1.3577
  840MOL0     O13266   8.902   9.264   5.137 -0.2720  0.4718  0.6178
  840MOL0     C13267   8.876   9.148   5.143  0.2287 -0.4573 -0.2718
  840MOL0     O13268   8.919   9.054   5.048  0.1571  0.4193 -0.0263
  840MOL0     C13269   8.993   9.099   4.949  0.2236  0.1422  0.0854
  840MOL0     C13270   9.121   9.055   4.931  0.3855  0.6250 -0.4084
  840MOL0     C13271   9.204   9.104   4.833 -0.7651  0.3245  0.0948
  840MOL0     C13272   9.176   9.225   4.761  0.5952 -1.2225  0.3321
  840MOL0     O13273   9.272   9.281   4.674 -0.4301  0.7949  0.4428
  840MOL0     C13274   9.235   9.373   4.564  0.2478  0.8938 -1.1635
  840MOL0     C13275   9.356   9.414   4.480 -0.5957  0.1346 -0.0092
  840MOL0     C13276   9.308   9.501   4.368 -0.4896 -0.3455 -0.0200
  840MOL0     C13277   9.247   9.435   4.250 -0.6083 -1.0414 -0.3648
  840MOL0     C13278   9.246   9.529   4.127  0.3061 -0.1837  0.8927
  840MOL0     C13279   9.225   9.441   4.003  0.7686  0.3905  0.1121
  840MOL0     C13280   9.085   9.372   3.998 -0.0939 -0.4286  0.8654
  840MOL0     C13281   9.081   9.217   4.006 -0.2081  0.1286 -0.4154
  840MOL0     N13282   8.943   9.188   4.042 -0.1313  0.7684 -0.0728
  840MOL0     C13283   8.891   9.164   4.168  0.0728 -0.0787  0.6046
  840MOL0     C13284   8.757   9.138   4.150  1.1151 -0.5602  0.2855
  840MOL0     C13285   8.654   9.100   4.257 -0.2394 -0.3260  0.1441
  840MOL0     C13286   8.538   9.204   4.267  0.1437 -0.5627 -0.1875
  840MOL0     C13287   8.584   9.329   4.350 -0.0606  0.4036 -0.1129
  840MOL0     C13288   8.459   9.408   4.389  0.5018  0.0186  0.0767
  840MOL0     O13289   8.360   9.341   4.475  0.1970 -0.5409  0.0644
  840MOL0     C13290   8.366   9.342   4.610  0.6176 -0.5353  1.2509
  840MOL0     C13291   8.271   9.278   4.690  0.7340 -0.0163 -0.2375
  840MOL0     C13292   8.273   9.279   4.829 -0.2716 -0.7960  0.2297
  840MOL0     C13293   8.379   9.335   4.902 -0.0200  0.1302  0.2377
  840MOL0     C13294   8.378   9.345   5.042 -0.1017  0.0861 -0.2248
  840MOL0     O13295   8.453   9.445   5.101  0.5438  0.2911  0.7864
  840MOL0     C13296   8.487   9.432   5.232  0.0759  0.6582  0.2785
  840MOL0     C13297   8.619   9.432   5.257  0.1917 -0.0519 -0.7779
  840MOL0     C13298   8.669   9.424   5.389  1.4824 -0.6047 -0.2557
  840MOL0     C13299   8.583   9.410   5.496  0.0455 -0.5588 -0.7869
  840MOL0     O13300   8.611   9.391   5.632  0.0783 -0.1238 -0.2752
  840MOL0     C13301   8.733   9.327   5.661 -0.5488  0.7789 -0.8960
  840MOL0     C13302   8.737   9.303   5.814 -0.1967 -0.5874 -0.0599
  840MOL0     C13303   8.721   9.148   5.841 -0.8490  0.1841  0.7480
  840MOL0     C13304   8.646   9.123   5.978  0.3556 -1.3321  0.7977
  840MOL0     C13305   8.620   8.981   6.019  0.3123 -0.6198 -0.8978
  840MOL0     C13306   8.539   8.968   6.142  0.9183 -0.0505  0.9363
  840MOL0     C13307   8.527   8.822   6.193  0.3226  0.4144 -0.7022
  840MOL0     C13308   8.406   8.816   6.282 -0.0615 -0.9774 -0.1995
  840MOL0    Cl13309   8.390   8.645   6.336 -0.0036 -0.4036  0.0735
  840MOL0     C13310   8.445   9.410   5.470 -0.7815  0.6843 -0.0986
  840MOL0     C13311   8.399   9.435   5.339 -0.2876  0.6859 -0.5732
  840MOL0     O13312   8.323   9.252   5.105 -0.1758 -0.5383 -0.3037
  840MOL0     C13313   8.475   9.397   4.822  0.0804  1.0782 -0.0802
  840MOL0     C13314   8.470   9.401   4.683 -0.2880  0.3254  1.0348
  840MOL0     N13315   8.725   9.155   4.014 -0.0319 -0.7931  0.0396
  840MOL0     N13316   8.841   9.187   3.957 -0.2882 -0.7130  0.1505
  840MOL0     C13317   9.038   9.261   4.771  0.4023 -0.5900 -0.2281
  840MOL0     C13318   8.948   9.196   4.861  0.0597  0.2325 -0.5922
  840MOL0     C13319   8.775   9.108   5.239  0.3660 -0.0424 -0.2732
  840MOL0     C13320   8.642   9.099   5.199  0.0586 -0.1524 -0.6979
  840MOL0     C13321   8.541   9.052   5.279 -0.1205 -0.0860 -0.3620
  840MOL0     C13322   8.574   9.014   5.417  0.7900 -0.9630 -0.0296
  840MOL0     O13323   8.486   8.983   5.518 -0.4038 -0.1899  0.3818
  840MOL0     C13324   8.344   8.997   5.496 -0.2149 -0.1080 -0.6511
  840MOL0     C13325   8.277   8.989   5.637 -1.0944 -0.2371  0.7778
  840MOL0     C13326   8.137   9.040   5.631 -0.1527 -0.2614 -0.1673
  840MOL0     C13327   8.053   8.970   5.752 -0.2982 -0.4185  0.7191
  840MOL0     C13328   8.106   8.994   5.885  0.7304  0.2285 -0.6709
  840MOL0     C13329   8.141   9.015   6.001 -0.3008 -0.3351 -0.1120
  840MOL0     C13330   8.707   9.014   5.455  0.2560 -0.8158 -0.5580
  840MOL0     C13331   8.807   9.058   5.375  0.4064  0.6791 -0.0603
  840MOL0     C13332   8.944   9.050   5.431  0.2872  0.4323 -0.6700
  840MOL0     H13333   9.156   8.973   4.993 -1.8449 -1.9850 -2.3010
  840MOL0     H13334   9.304   9.062   4.823  1.6479  5.6572 -1.8745
  840MOL0     H13335   9.160   9.315   4.510  2.2110 -0.8587 -2.1435
  840MOL0     H13336   9.190   9.462   4.609  2.0502 -0.4774  4.1499
  840MOL0     H13337   9.415   9.333   4.436 -0.2528  0.7376 -0.6694
  840MOL0     H13338   9.436   9.455   4.543  1.7839  1.8878 -3.7865
  840MOL0     H13339   9.403   9.541   4.330 -1.5930 -1.8276 -5.0182
  840MOL0     H13340   9.240   9.581   4.399  1.1239  1.7172 -1.5063
  840MOL0     H13341   9.307   9.346   4.229  2.2813  1.0339 -1.3814
  840MOL0     H13342   9.147   9.401   4.281  1.1206 -5.0797  1.5300
  840MOL0     H13343   9.153   9.587   4.125 -1.2820 -2.5066  2.1710
  840MOL0     H13344   9.331   9.594   4.104  0.0742  0.3006  1.3909
  840MOL0     H13345   9.243   9.511   3.920  1.2872 -0.8140 -0.8223
  840MOL0     H13346   9.290   9.353   3.998 -0.3123 -0.3818 -2.5227
  840MOL0     H13347   9.047   9.403   3.901 -1.4827  0.5112  1.6635
  840MOL0     H13348   9.014   9.417   4.068  0.8306  0.9939  0.9392
  840MOL0     H13349   9.117   9.164   3.918  1.7005 -2.1545  1.5685
  840MOL0     H13350   9.160   9.186   4.076  2.4215  0.5788 -2.9826
  840MOL0     H13351   8.950   9.162   4.258  4.2490  1.7210 -1.8203
  840MOL0     H13352   8.623   9.001   4.225  0.3460  0.4991 -3.3687
  840MOL0     H13353   8.705   9.103   4.354  1.8775  1.7849 -0.9348
  840MOL0     H13354   8.496   9.228   4.169 -0.1362  1.4075  0.3586
  840MOL0     H13355   8.459   9.152   4.323 -3.0913 -1.1097 -4.6745
  840MOL0     H13356   8.661   9.393   4.308  2.9242 -1.9542  1.3593
  840MOL0     H13357   8.625   9.299   4.447 -2.4845  2.0771  1.5480
  840MOL0     H13358   8.409   9.442   4.298 -1.7138 -0.8923  0.9006
  840MOL0     H13359   8.502   9.497   4.437  3.3169 -0.9175 -0.4688
  840MOL0     H13360   8.191   9.224   4.640  0.7024  0.3227 -0.5556
  840MOL0     H13361   8.185   9.241   4.880 -0.3246 -2.1620 -0.8152
  840MOL0     H13362   8.708   9.453   5.198  1.6454 -0.0297  1.2992
  840MOL0     H13363   8.776   9.424   5.408  1.6881 -1.4325 -1.3478
  840MOL0     H13364   8.739   9.232   5.607 -2.8562  0.8762 -1.4280
  840MOL0     H13365   8.811   9.396   5.629  0.1834 -0.7394 -2.5528
  840MOL0     H13366   8.834   9.343   5.842 -1.4931  2.5942  0.3031
  840MOL0     H13367   8.662   9.368   5.859  0.8561  1.5859 -1.3006
  840MOL0     H13368   8.658   9.118   5.757  0.4743 -0.5017 -0.0348
  840MOL0     H13369   8.820   9.103   5.836 -0.9527  0.0589 -0.6425
  840MOL0     H13370   8.544   9.162   5.984 -0.7715 -3.9323 -0.0802
  840MOL0     H13371   8.706   9.181   6.050 -1.7417  1.9940  0.1086
  840MOL0     H13372   8.721   8.942   6.035  0.8080  1.3075  1.1419
  840MOL0     H13373   8.562   8.927   5.943 -2.4866 -0.3503  0.9207
  840MOL0     H13374   8.576   9.028   6.225  1.5946  1.0676 -0.1474
  840MOL0     H13375   8.436   8.994   6.115  0.6438 -2.3426 -0.5235
  840MOL0     H13376   8.612   8.800   6.258 -0.4513  2.0620  0.9738
  840MOL0     H13377   8.515   8.748   6.114 -2.1032  1.9539 -1.8842
  840MOL0     H13378   8.424   8.885   6.365  1.0656 -0.3351 -0.9525
  840MOL0     H13379   8.311   8.848   6.237 -1.6647 -0.0323  3.4961
  840MOL0     H13380   8.385   9.393   5.558  1.2432 -2.4545  0.8855
  840MOL0     H13381   8.298   9.454   5.305  0.7712  0.5407 -4.2791
  840MOL0     H13382   8.568   9.430   4.868  0.4206 -0.4864  0.4280
  840MOL0     H13383   8.560   9.434   4.633  0.5494  0.2864  2.4656
  840MOL0     H13384   8.989   9.336   4.710 -1.9619  0.4570  2.6805
  840MOL0     H13385   8.850   9.242   4.866 -0.1939 -0.3480 -0.1497
  840MOL0     H13386   8.633   9.142   5.100 -3.0949 -0.3409 -0.5881
  840MOL0     H13387   8.439   9.054   5.242  0.1838  2.2222 -1.2651
  840MOL0     H13388   8.296   8.921   5.434 -3.7880  1.6856 -0.3342
  840MOL0     H13389   8.318   9.088   5.442 -0.2264  0.4999  0.3492
  840MOL0     H13390   8.351   9.042   5.697  0.9962  0.5016 -2.2430
  840MOL0     H13391   8.271   8.884   5.667 -1.1235 -0.1805  0.9689
  840MOL0     H13392   8.083   9.019   5.539 -0.1328  2.0082 -0.7601
  840MOL0     H13393   8.145   9.149   5.639 -0.4224 -0.3442  1.7101
  840MOL0     H13394   7.956   9.022   5.746  0.5021  1.1989  1.2254
  840MOL0     H13395   8.052   8.862   5.737  0.6809 -0.0405 -3.1507
  840MOL0     H13396   8.173   9.017   6.103 -1.3615 -0.2082  0.2254
  840MOL0     H13397   8.743   8.963   5.544  1.5501  1.6799  0.4594
  840MOL0     H13398   9.022   8.998   5.374  0.9989 -1.5257  1.9266
  840MOL0     H13399   8.975   9.151   5.458  2.0329 -0.2813  0.1296
  840MOL0     H13400   8.943   9.003   5.529 -0.7759  0.5142 -0.6350
  841MOL0     O13401   3.796   5.779   2.049  0.3212 -0.3665  0.5929
  841MOL0     C13402   3.863   5.740   1.954  0.1661 -0.7665 -0.4837
  841MOL0     O13403   3.906   5.619   1.938  0.4599  0.2213 -0.2742
  841MOL0     C13404   3.872   5.519   2.031  0.6631 -0.5489 -0.1480
  841MOL0     C13405   3.957   5.492   2.137 -0.6980 -0.6890  0.3054
  841MOL0     C13406   3.917   5.386   2.219 -0.6163 -0.4575  0.0348
  841MOL0     C13407   3.801   5.312   2.203 -0.7660  0.1283  0.8514
  841MOL0     O13408   3.763   5.211   2.274  0.0195 -0.3430  0.1315
  841MOL0     C13409   3.828   5.182   2.399 -0.1785 -0.1247 -0.2215
  841MOL0     C13410   3.758   5.065   2.466 -1.0168  0.4008 -0.0194
  841MOL0     C13411   3.823   5.022   2.596 -0.4806  0.2060 -0.8572
  841MOL0     C13412   3.880   4.883   2.589 -0.4492  0.6909 -0.5944
  841MOL0     C13413   3.973   4.857   2.714  0.2024 -0.3901 -0.2813
  841MOL0     C13414   3.969   4.709   2.738  0.2487 -0.5731 -0.9678
  841MOL0     C13415   4.051   4.675   2.872 -0.6651  0.3110  0.5361
  841MOL0     C13416   4.025   4.537   2.939  0.1619 -0.5457  0.9221
  841MOL0     N13417   4.056   4.428   2.850  0.0961 -0.2688 -0.0543
  841MOL0     C13418   3.991   4.373   2.740  0.4521  0.7096 -0.2826
  841MOL0     C13419   4.043   4.252   2.718  0.5797 -0.3224  0.3897
  841MOL0     C13420   4.011   4.153   2.604  0.4309 -0.3385  0.3476
  841MOL0     C13421   3.959   4.021   2.673  1.1061 -0.0710 -0.1244
  841MOL0     C13422   3.871   3.931   2.577  0.4022 -1.1745  0.5704
  841MOL0     C13423   3.918   3.904   2.437 -0.2356 -0.5592  0.1927
  841MOL0     O13424   3.812   3.867   2.349  0.2963  0.3393 -0.5506
  841MOL0     C13425   3.768   3.736   2.358  0.2823 -0.1764 -1.2575
  841MOL0     C13426   3.642   3.713   2.296 -0.7853 -0.5188  0.1881
  841MOL0     C13427   3.578   3.588   2.290 -0.6125  0.3570 -0.4950
  841MOL0     C13428   3.634   3.481   2.364  0.0287 -0.2619 -1.5559
  841MOL0     C13429   3.563   3.356   2.375  0.2505  0.3381  0.1159
  841MOL0     O13430   3.456   3.340   2.290  0.3407  0.1130 -0.0712
  841MOL0     C13431   3.393   3.221   2.284 -0.2258  0.7305  0.0444
  841MOL0     C13432   3.256   3.221   2.255  0.0954 -0.8502 -0.2567
  841MOL0     C13433   3.173   3.103   2.238  0.3889 -0.2478 -0.5967
  841MOL0     C13434   3.234   2.977   2.262  0.3044  0.3375 -0.3992
  841MOL0     O13435   3.157   2.863   2.245  0.0901  0.6768  0.0274
  841MOL0     C13436   3.036   2.874   2.175 -0.4739  0.0093 -0.6312
  841MOL0     C13437   3.015   2.744   2.095  0.1397  0.7633 -0.5333
  841MOL0     C13438   3.088   2.748   1.958  1.0443 -0.1537  0.1368
  841MOL0     C13439   3.016   2.808   1.834 -0.0232 -0.0411  0.6607
  841MOL0     C13440   2.998   2.956   1.842 -0.4353  0.5994 -0.2315
  841MOL0     C13441   2.949   2.999   1.709  1.1155  0.0779 -0.5750
  841MOL0     C13442   2.939   3.149   1.691  0.0581  0.3098  0.4360
  841MOL0     C13443   2.931   3.193   1.535  0.5107 -0.5276 -0.0080
  841MOL0    Cl13444   2.786   3.136   1.455  0.0915  0.1161 -0.0012
  841MOL0     C13445   3.376   2.976   2.298 -0.2189  0.7000 -0.0486
  841MOL0     C13446   3.449   3.090   2.304 -1.0610  0.3762 -1.5380
  841MOL0     O13447   3.613   3.273   2.450  0.0261 -0.4583 -0.2248
  841MOL0     C13448   3.745   3.509   2.437 -1.1606  0.3898  0.9753
  841MOL0     C13449   3.816   3.628   2.426  0.5985 -1.1502 -0.6499
  841MOL0     N13450   4.130   4.231   2.816  0.4606  0.6001  0.1825
  841MOL0     N13451   4.153   4.341   2.887  0.4843  0.0053  0.8555
  841MOL0     C13452   3.722   5.354   2.107  0.0563 -0.4716 -0.3880
  841MOL0     C13453   3.750   5.456   2.021  0.4272  0.3213 -0.1175
  841MOL0     C13454   3.897   5.833   1.845  0.0706  0.4605  0.0109
  841MOL0     C13455   3.798   5.907   1.784 -0.2674  0.2565 -0.8373
  841MOL0     C13456   3.826   5.981   1.663  0.1878  0.6670  0.6864
  841MOL0     C13457   3.955   5.981   1.613  0.4440  1.0637  1.0133
  841MOL0     O13458   3.983   6.045   1.494 -0.2443 -0.4799 -0.3985
  841MOL0     C13459   4.115   6.103   1.486  0.3976 -0.4084  0.1165
  841MOL0     C13460   4.110   6.195   1.368 -0.8316 -0.8383 -0.4108
  841MOL0     C13461   4.252   6.214   1.301  0.9371  0.1447 -0.3143
  841MOL0     C13462   4.241   6.289   1.166 -0.1527 -0.9287 -0.1804
  841MOL0     C13463   4.341   6.394   1.151  0.4725 -0.9390  0.0244
  841MOL0     C13464   4.419   6.489   1.136 -0.5586  0.4131  0.7541
  841MOL0     C13465   4.055   5.924   1.687  0.4434 -0.2503 -0.0944
  841MOL0     C13466   4.029   5.843   1.809 -0.0772 -0.2242  0.3001
  841MOL0     C13467   4.136   5.772   1.873  0.1471  0.4430  0.9114
  841MOL0     H13468   4.042   5.556   2.155 -0.6885  0.2819 -2.6043
  841MOL0     H13469   3.971   5.373   2.312  0.8081 -1.4415 -0.9022
  841MOL0     H13470   3.934   5.159   2.381 -0.3998 -1.7955  0.4443
  841MOL0     H13471   3.820   5.273   2.459 -1.4899 -0.7176  0.5305
  841MOL0     H13472   3.756   4.983   2.394  0.5229  2.9820 -3.2675
  841MOL0     H13473   3.655   5.091   2.494 -1.0090  1.5745 -0.9741
  841MOL0     H13474   3.765   5.035   2.688  2.2298 -0.9194  1.1525
  841MOL0     H13475   3.918   5.074   2.610 -0.0396 -1.2055  2.2889
  841MOL0     H13476   3.801   4.814   2.557 -0.3390  0.0439  0.4761
  841MOL0     H13477   3.940   4.888   2.498  0.8908  1.7447  0.3163
  841MOL0     H13478   4.073   4.901   2.710 -0.1898  0.8985  1.9541
  841MOL0     H13479   3.930   4.906   2.802  0.9736 -0.0932 -0.0634
  841MOL0     H13480   3.865   4.678   2.745 -0.4695  1.8468  0.1913
  841MOL0     H13481   4.015   4.653   2.656 -1.6360 -2.3090 -0.9230
  841MOL0     H13482   4.031   4.746   2.953  0.0405  1.2078 -0.0585
  841MOL0     H13483   4.156   4.694   2.848 -0.7477 -0.9791 -0.9770
  841MOL0     H13484   4.077   4.516   3.033 -0.5842 -1.4636  1.1494
  841MOL0     H13485   3.916   4.541   2.953 -0.0193 -0.4692 -0.4382
  841MOL0     H13486   3.917   4.432   2.687  3.5288  3.8075 -1.5324
  841MOL0     H13487   3.937   4.214   2.551  1.1541 -1.8314 -2.5784
  841MOL0     H13488   4.097   4.143   2.537  0.9190  1.0746  0.7281
  841MOL0     H13489   4.042   3.969   2.722  0.9847  0.7599  1.0089
  841MOL0     H13490   3.886   4.038   2.752  2.0641 -1.0931  1.0231
  841MOL0     H13491   3.782   3.993   2.560  1.7905  0.5252 -0.9635
  841MOL0     H13492   3.832   3.847   2.635 -0.7709  1.1325  3.4178
  841MOL0     H13493   3.997   3.830   2.427 -0.6540 -0.8454 -1.1342
  841MOL0     H13494   3.958   3.996   2.393 -0.5382 -0.3480  0.3557
  841MOL0     H13495   3.600   3.799   2.243  3.6167  1.5982 -0.3048
  841MOL0     H13496   3.480   3.585   2.243 -1.8614  3.0527  1.6015
  841MOL0     H13497   3.201   3.313   2.238 -1.4227 -1.9518 -1.6192
  841MOL0     H13498   3.067   3.118   2.225  0.2524  0.2672  0.8928
  841MOL0     H13499   2.958   2.884   2.251 -2.0629  2.1751 -2.3905
  841MOL0     H13500   3.033   2.957   2.104  0.7867 -1.0475 -1.9926
  841MOL0     H13501   3.041   2.654   2.151 -1.0716 -0.1668 -1.4161
  841MOL0     H13502   2.908   2.730   2.078 -0.4098  2.4021  1.1437
  841MOL0     H13503   3.175   2.811   1.976 -1.1496  3.5983 -1.1753
  841MOL0     H13504   3.112   2.645   1.932 -0.6575 -0.7284  0.6740
  841MOL0     H13505   2.917   2.766   1.816  1.2658 -3.6419  1.2077
  841MOL0     H13506   3.074   2.776   1.747  0.7769 -0.2350  1.2496
  841MOL0     H13507   3.094   3.006   1.858  0.3943 -1.1517  0.5014
  841MOL0     H13508   2.923   2.973   1.920 -4.5361 -0.0622 -3.6376
  841MOL0     H13509   3.013   2.965   1.627 -0.6112 -2.0974 -1.1300
  841MOL0     H13510   2.848   2.961   1.691  0.4265  1.5099  0.0710
  841MOL0     H13511   3.022   3.198   1.743  1.4058 -0.8193 -0.5766
  841MOL0     H13512   2.843   3.186   1.726 -0.2572 -1.0333  1.0439
  841MOL0     H13513   2.943   3.302   1.535  0.0215 -0.4282 -2.2259
  841MOL0     H13514   3.015   3.154   1.476  0.8459 -0.8325  0.6599
  841MOL0     H13515   3.434   2.885   2.311 -1.7926 -0.4386 -0.6937
  841MOL0     H13516   3.555   3.070   2.315 -1.2800  0.1211  0.5000
  841MOL0     H13517   3.796   3.434   2.497  1.3490  2.0656  1.0926
  841MOL0     H13518   3.903   3.647   2.489 -1.3683 -1.5524  2.4156
  841MOL0     H13519   3.622   5.315   2.094 -0.7525  0.6495  1.9949
  841MOL0     H13520   3.681   5.481   1.940 -1.3734 -2.5805  0.3549
  841MOL0     H13521   3.701   5.909   1.832 -0.3625 -4.0528 -0.3879
  841MOL0     H13522   3.749   6.023   1.599 -1.8302 -2.0579  1.1704
  841MOL0     H13523   4.179   6.016   1.469  2.0912  1.3464 -3.6284
  841MOL0     H13524   4.139   6.159   1.576  0.6353  1.0754 -0.8368
  841MOL0     H13525   4.064   6.290   1.397 -0.4928 -1.0057  0.7143
  841MOL0     H13526   4.042   6.154   1.293 -1.8881  0.0323  0.0482
  841MOL0     H13527   4.297   6.115   1.293 -2.2084 -1.4765  0.5508
  841MOL0     H13528   4.315   6.274   1.369  3.2922  0.4096 -2.5757
  841MOL0     H13529   4.245   6.234   1.072  2.1702  0.0545 -0.7204
  841MOL0     H13530   4.144   6.340   1.169 -0.0518 -0.7289 -0.3453
  841MOL0     H13531   4.488   6.569   1.122  3.5979 -2.7316  1.1725
  841MOL0     H13532   4.158   5.927   1.654  0.2943  0.5379 -0.5238
  841MOL0     H13533   4.211   5.850   1.857 -2.7356  2.9841 -1.4853
  841MOL0     H13534   4.129   5.735   1.976  1.0157 -1.6645  0.2730
  841MOL0     H13535   4.156   5.684   1.811  2.2901  1.2739  0.3169
  842MOL0     O13536   5.162   8.971   5.174  0.4699 -0.1032 -0.2584
  842MOL0     C13537   5.270   9.037   5.192  0.4602  1.2642  0.3357
  842MOL0     O13538   5.277   9.175   5.199 -0.5263  0.3894 -0.2806
  842MOL0     C13539   5.170   9.248   5.152 -0.0207 -0.3172 -0.4269
  842MOL0     C13540   5.097   9.216   5.035  0.8773 -1.3673 -0.0316
  842MOL0     C13541   4.994   9.302   4.998 -0.4787 -0.7817  0.7106
  842MOL0     C13542   4.964   9.423   5.062  0.4957  0.1145  0.4533
  842MOL0     O13543   4.854   9.490   5.027  0.5371 -0.6612  0.2828
  842MOL0     C13544   4.729   9.405   5.029 -0.0099 -0.2667  0.3389
  842MOL0     C13545   4.614   9.468   4.945  0.7114  0.5929  0.3831
  842MOL0     C13546   4.567   9.601   5.009 -0.2915 -0.8799 -0.8133
  842MOL0     C13547   4.467   9.674   4.934  0.5613 -0.0686  0.2547
  842MOL0     C13548   4.431   9.793   5.010  0.0579 -0.0116 -0.5885
  842MOL0     C13549   4.278   9.825   4.994  0.6077  0.6553 -0.7795
  842MOL0     C13550   4.232   9.953   5.060  0.1741  0.3886 -0.3294
  842MOL0     C13551   4.192   9.929   5.208  0.0255  0.9428 -0.7326
  842MOL0     N13552   4.293   9.871   5.297  0.5176  0.7312 -0.5258
  842MOL0     C13553   4.401   9.935   5.333 -0.5949 -0.5123 -1.0725
  842MOL0     C13554   4.473   9.847   5.411  0.3423 -0.5267 -0.1154
  842MOL0     C13555   4.613   9.861   5.480  0.1770 -0.5493  0.1565
  842MOL0     C13556   4.722   9.768   5.431 -0.0256 -0.6956 -0.2850
  842MOL0     C13557   4.715   9.618   5.458 -0.4765  0.5481 -0.4974
  842MOL0     C13558   4.830   9.565   5.536 -0.9978 -0.1901  0.2630
  842MOL0     O13559   4.963   9.613   5.509 -0.4943 -0.9990 -0.1674
  842MOL0     C13560   5.080   9.545   5.528  0.3095  0.9908 -0.1783
  842MOL0     C13561   5.192   9.621   5.526 -0.1446  0.5201 -0.7519
  842MOL0     C13562   5.324   9.572   5.565  1.1673  1.3038 -0.0927
  842MOL0     C13563   5.338   9.433   5.587 -0.5350  0.2328  0.2153
  842MOL0     C13564   5.469   9.374   5.628 -0.4845  0.0836 -0.1467
  842MOL0     O13565   5.483   9.245   5.653  0.5038  0.0129 -0.3409
  842MOL0     C13566   5.606   9.190   5.646 -0.5655  0.0591 -0.1867
  842MOL0     C13567   5.648   9.140   5.765  0.5664  0.1056 -0.9236
  842MOL0     C13568   5.775   9.081   5.782 -0.5794 -0.8564  1.1922
  842MOL0     C13569   5.853   9.071   5.661 -1.2646 -0.3196 -1.0433
  842MOL0     O13570   5.981   9.021   5.653  0.0297 -0.3284 -0.3573
  842MOL0     C13571   6.055   8.989   5.768 -0.1413  0.3906 -0.7872
  842MOL0     C13572   6.204   9.019   5.740 -0.4257  0.7645 -0.3732
  842MOL0     C13573   6.255   8.912   5.638  0.0005 -0.2681  0.1447
  842MOL0     C13574   6.392   8.963   5.577  0.3096 -0.6887  0.2329
  842MOL0     C13575   6.511   8.978   5.666 -0.9879 -0.5948 -0.0907
  842MOL0     C13576   6.631   8.986   5.573 -0.4863 -0.6039  0.3278
  842MOL0     C13577   6.759   9.033   5.656 -0.2432 -0.3552  0.3739
  842MOL0     C13578   6.874   9.044   5.561 -0.4349 -0.6192  0.2064
  842MOL0    Cl13579   7.017   9.107   5.641  0.2112 -0.6127 -0.3725
  842MOL0     C13580   5.810   9.115   5.540  0.0439  0.2333 -0.0501
  842MOL0     C13581   5.683   9.167   5.532  0.3491  0.2413 -0.9567
  842MOL0     O13582   5.560   9.457   5.633  0.0566  0.1685 -0.0702
  842MOL0     C13583   5.220   9.355   5.587  0.3629 -0.8902 -0.0993
  842MOL0     C13584   5.091   9.408   5.569  0.4248  1.0277  1.2467
  842MOL0     N13585   4.401   9.731   5.417 -0.0638 -0.5475 -0.3153
  842MOL0     N13586   4.301   9.743   5.339 -0.0373  0.5415 -0.0469
  842MOL0     C13587   5.034   9.455   5.167 -0.5213  0.0217 -0.4499
  842MOL0     C13588   5.137   9.367   5.218  0.2472  0.4675 -0.2453
  842MOL0     C13589   5.400   8.966   5.217  0.0577  0.1776 -0.1859
  842MOL0     C13590   5.521   9.038   5.231 -0.5418 -0.5104  0.5115
  842MOL0     C13591   5.646   8.977   5.238 -0.5263 -0.5452  0.1304
  842MOL0     C13592   5.656   8.836   5.232 -0.3300  0.7976 -0.9958
  842MOL0     O13593   5.788   8.773   5.241 -0.1581 -0.3473  0.0402
  842MOL0     C13594   5.872   8.805   5.340 -0.7082 -0.3311 -0.2990
  842MOL0     C13595   5.999   8.721   5.356  0.2391  0.7455  0.6207
  842MOL0     C13596   5.995   8.568   5.344  0.1469  0.1887  0.3128
  842MOL0     C13597   5.904   8.500   5.443  1.0044 -0.5434 -1.1534
  842MOL0     C13598   5.759   8.480   5.412  0.4439 -1.0161 -0.1422
  842MOL0     C13599   5.644   8.442   5.420  0.1533 -0.6056  0.0645
  842MOL0     C13600   5.537   8.763   5.207 -0.3646  0.4391  0.0545
  842MOL0     C13601   5.413   8.821   5.216 -0.4485 -0.5841  0.9101
  842MOL0     C13602   5.303   8.721   5.209 -0.2398 -0.4417  0.6786
  842MOL0     H13603   5.104   9.127   4.974  3.9795 -0.7253 -0.8193
  842MOL0     H13604   4.932   9.268   4.915  0.4663 -0.0208 -0.3326
  842MOL0     H13605   4.733   9.299   5.001 -1.0597 -0.1865 -0.1626
  842MOL0     H13606   4.687   9.393   5.129 -0.2378 -2.3739  0.0403
  842MOL0     H13607   4.530   9.397   4.943 -1.0642  2.5867 -1.0808
  842MOL0     H13608   4.655   9.476   4.844  1.5020  1.8952  0.7906
  842MOL0     H13609   4.653   9.660   5.039 -2.1688  1.9735 -0.6345
  842MOL0     H13610   4.525   9.581   5.108  2.5154  0.5070  0.7840
  842MOL0     H13611   4.494   9.710   4.834 -4.6471  0.5443 -1.2369
  842MOL0     H13612   4.387   9.600   4.921  1.0198 -0.6097  0.5125
  842MOL0     H13613   4.444   9.785   5.119  1.6052 -0.5141 -0.7811
  842MOL0     H13614   4.499   9.874   4.978 -0.3136  0.3988 -0.3501
  842MOL0     H13615   4.262   9.848   4.888  0.1766  0.2305 -0.8075
  842MOL0     H13616   4.221   9.740   5.031  1.8577  0.8125  1.6914
  842MOL0     H13617   4.156   9.998   4.996  2.2801  3.0815 -1.1300
  842MOL0     H13618   4.327  10.007   5.067 -0.8237  2.0683  0.7693
  842MOL0     H13619   4.147  10.019   5.252 -0.5603 -0.0568  0.8047
  842MOL0     H13620   4.117   9.851   5.197 -0.5740  1.5039 -0.6745
  842MOL0     H13621   4.424  10.039   5.310  0.2783 -0.0974  1.3137
  842MOL0     H13622   4.653   9.963   5.475  1.5216 -0.9109  2.2599
  842MOL0     H13623   4.604   9.837   5.586  0.7393  1.9869  0.8362
  842MOL0     H13624   4.734   9.772   5.323  2.3380 -1.5204 -0.1251
  842MOL0     H13625   4.814   9.811   5.472  0.2183  0.9470 -2.3663
  842MOL0     H13626   4.713   9.574   5.358 -3.3723  2.2985 -1.3422
  842MOL0     H13627   4.618   9.596   5.502  0.6682  1.1142  2.5632
  842MOL0     H13628   4.835   9.464   5.495  0.6457  0.4847 -1.3612
  842MOL0     H13629   4.820   9.560   5.645  4.3910  2.5889  1.2249
  842MOL0     H13630   5.178   9.728   5.517  3.0528  1.1285  0.2095
  842MOL0     H13631   5.405   9.644   5.551  1.8762  0.5899  0.3058
  842MOL0     H13632   5.576   9.148   5.846 -0.3073 -0.1550 -1.6566
  842MOL0     H13633   5.804   9.031   5.873  2.5083 -1.8886 -0.2324
  842MOL0     H13634   6.021   9.052   5.851 -0.8665 -1.1611  0.1350
  842MOL0     H13635   6.029   8.888   5.800 -2.2142  0.7249 -1.2919
  842MOL0     H13636   6.219   9.118   5.696 -1.0013  1.3143  0.6378
  842MOL0     H13637   6.278   9.003   5.819 -1.5840 -0.4634  0.5025
  842MOL0     H13638   6.274   8.827   5.704  1.8481  1.0579  1.4121
  842MOL0     H13639   6.189   8.884   5.554  0.3442  1.0901 -0.6000
  842MOL0     H13640   6.368   9.063   5.540 -2.6419 -0.9324  1.2436
  842MOL0     H13641   6.423   8.901   5.492  0.8591  1.1951 -1.0179
  842MOL0     H13642   6.528   8.894   5.733  1.1000  0.3219  0.6050
  842MOL0     H13643   6.506   9.066   5.731  1.0706 -0.3202 -0.2555
  842MOL0     H13644   6.654   8.889   5.527 -1.0666 -0.2921 -0.6576
  842MOL0     H13645   6.607   9.053   5.490 -2.5246 -2.2015 -0.4610
  842MOL0     H13646   6.772   8.957   5.733  2.1834  0.6813  1.0602
  842MOL0     H13647   6.755   9.129   5.707  3.8952  0.4331 -0.4752
  842MOL0     H13648   6.896   8.946   5.518  0.8744 -0.6391  0.8696
  842MOL0     H13649   6.849   9.098   5.469  1.4448 -0.4894 -0.2742
  842MOL0     H13650   5.860   9.096   5.445 -0.4202 -2.6031  0.1634
  842MOL0     H13651   5.654   9.213   5.438  0.6348  0.7777 -0.7862
  842MOL0     H13652   5.240   9.252   5.615  3.0706 -0.6252 -0.7760
  842MOL0     H13653   5.000   9.351   5.581  1.4317 -0.9581  0.0444
  842MOL0     H13654   4.996   9.538   5.226 -0.5511 -1.7591  2.2313
  842MOL0     H13655   5.190   9.391   5.309  0.8854 -1.2806 -0.1116
  842MOL0     H13656   5.507   9.145   5.247 -4.6121 -1.1262  2.5527
  842MOL0     H13657   5.738   9.032   5.253  0.0449 -1.0833 -1.2220
  842MOL0     H13658   5.810   8.813   5.430 -0.2292  1.3122 -0.0692
  842MOL0     H13659   5.905   8.904   5.307  0.1925 -1.0591 -1.6684
  842MOL0     H13660   6.050   8.761   5.444  1.8332  0.7565 -0.2770
  842MOL0     H13661   6.061   8.746   5.269  2.0241  1.8577  2.1192
  842MOL0     H13662   6.097   8.536   5.367  0.0487  1.2225  2.3924
  842MOL0     H13663   5.945   8.545   5.249  0.5117 -2.5040  0.6962
  842MOL0     H13664   5.945   8.402   5.469  0.3228 -0.5304  0.0008
  842MOL0     H13665   5.908   8.561   5.534 -1.2478  1.7424 -2.4559
  842MOL0     H13666   5.543   8.428   5.387  0.8676  1.1917 -3.3828
  842MOL0     H13667   5.557   8.658   5.189 -1.5361 -0.0217  1.2523
  842MOL0     H13668   5.218   8.755   5.269 -1.1172 -0.2127 -0.6670
  842MOL0     H13669   5.274   8.706   5.105 -0.2436  0.3463  0.5602
  842MOL0     H13670   5.335   8.621   5.240  2.4476  0.8264  2.3791
  843MOL0     O13671   7.460   3.731   5.758  0.7665  0.2658  0.6434
  843MOL0     C13672   7.366   3.664   5.713 -0.0508  0.3164 -0.0421
  843MOL0     O13673   7.250   3.712   5.649 -0.4646 -0.6810  0.0000
  843MOL0     C13674   7.244   3.849   5.661  0.7334  0.1344  0.0769
  843MOL0     C13675   7.190   3.909   5.771  0.2750 -0.1590 -0.4035
  843MOL0     C13676   7.198   4.050   5.780 -0.6019 -1.0424  0.8170
  843MOL0     C13677   7.247   4.129   5.678  0.2328  1.5400  0.3287
  843MOL0     O13678   7.250   4.261   5.718  0.0331 -0.5396  0.0696
  843MOL0     C13679   7.316   4.360   5.639  0.3884 -0.5006  0.2960
  843MOL0     C13680   7.306   4.484   5.728  0.2909  0.4420  0.4181
  843MOL0     C13681   7.379   4.606   5.669  0.0604 -0.0410 -0.5846
  843MOL0     C13682   7.357   4.724   5.761  0.3654  0.2639  0.4654
  843MOL0     C13683   7.320   4.841   5.678  1.0929 -0.4139 -0.0594
  843MOL0     C13684   7.178   4.830   5.615 -0.9109 -0.0789  0.2336
  843MOL0     C13685   7.128   4.971   5.568  0.0646 -0.1586  0.4237
  843MOL0     C13686   6.979   4.967   5.518 -1.1956 -0.3381 -1.0148
  843MOL0     N13687   6.938   5.077   5.428  0.1756 -0.2229 -1.0327
  843MOL0     C13688   6.956   5.086   5.293 -0.5369 -0.0800  0.0227
  843MOL0     C13689   6.901   5.201   5.250 -0.3192  0.5228 -0.8706
  843MOL0     C13690   6.890   5.240   5.115  1.1956 -0.5446 -0.5591
  843MOL0     C13691   6.747   5.213   5.064 -0.2489  0.2183 -0.0190
  843MOL0     C13692   6.730   5.214   4.918  0.0162  0.1714  0.3314
  843MOL0     C13693   6.592   5.196   4.852  0.8552 -0.7684  0.2713
  843MOL0     O13694   6.590   5.215   4.708  0.2663 -0.1382  0.1569
  843MOL0     C13695   6.484   5.292   4.656 -0.5090  0.2352 -0.1495
  843MOL0     C13696   6.359   5.231   4.636 -1.2571 -0.1481  0.8458
  843MOL0     C13697   6.248   5.302   4.592 -0.0931 -0.6820  0.1379
  843MOL0     C13698   6.265   5.432   4.554 -0.4021  0.4147  0.5573
  843MOL0     C13699   6.151   5.513   4.524 -0.4377 -0.1524  0.7284
  843MOL0     O13700   6.174   5.646   4.533 -1.0021  0.0905  0.1437
  843MOL0     C13701   6.080   5.729   4.507  0.4370 -0.3076  0.1853
  843MOL0     C13702   6.009   5.735   4.383  0.4495  0.7325  0.5299
  843MOL0     C13703   5.911   5.840   4.365  0.0440  0.2750  0.3862
  843MOL0     C13704   5.890   5.938   4.466 -0.0273  1.1020  0.2205
  843MOL0     O13705   5.782   6.028   4.452 -0.4284  0.1095 -0.1789
  843MOL0     C13706   5.700   6.059   4.576 -0.3124  0.5751  0.3323
  843MOL0     C13707   5.562   6.103   4.540  1.1072  0.5015 -0.2299
  843MOL0     C13708   5.468   5.996   4.521 -0.3667 -0.1571  0.6895
  843MOL0     C13709   5.476   5.928   4.383  0.0814  0.9082  0.1043
  843MOL0     C13710   5.341   5.893   4.319 -0.4433  0.2200 -0.0606
  843MOL0     C13711   5.276   5.790   4.397  0.7890  0.3231  0.1460
  843MOL0     C13712   5.146   5.717   4.327 -0.0667 -0.0639 -0.1364
  843MOL0     C13713   5.034   5.826   4.300 -0.7423  0.2113  1.3693
  843MOL0    Cl13714   5.026   5.942   4.442 -0.1900 -0.2828 -0.3266
  843MOL0     C13715   5.970   5.930   4.585  1.0893 -1.4443  0.3144
  843MOL0     C13716   6.062   5.829   4.605  0.0128 -0.3679  0.0187
  843MOL0     O13717   6.045   5.458   4.497 -0.5153 -0.0862 -1.0558
  843MOL0     C13718   6.397   5.493   4.557 -0.6172  0.1559 -0.7206
  843MOL0     C13719   6.509   5.414   4.598  0.3076 -0.0665  0.1288
  843MOL0     N13720   6.842   5.258   5.358  0.5534 -0.8457  0.4370
  843MOL0     N13721   6.866   5.189   5.467  0.0413  1.1207  0.0668
  843MOL0     C13722   7.317   4.065   5.573  0.0192 -0.4833 -0.8482
  843MOL0     C13723   7.314   3.934   5.571  0.2972  0.1109  0.1068
  843MOL0     C13724   7.395   3.522   5.705 -0.1830  0.6282 -0.2657
  843MOL0     C13725   7.412   3.444   5.820 -0.8382 -0.6908 -0.0369
  843MOL0     C13726   7.443   3.309   5.803  0.1113  0.6343  1.1004
  843MOL0     C13727   7.467   3.247   5.685  0.5005 -0.0178  0.1650
  843MOL0     O13728   7.499   3.116   5.683  0.0486  0.5938 -0.0369
  843MOL0     C13729   7.427   3.042   5.585  1.0456 -0.1853 -0.0557
  843MOL0     C13730   7.287   3.000   5.640 -1.0286  0.6359  0.1520
  843MOL0     C13731   7.317   2.879   5.738 -0.3832 -0.0180  0.2782
  843MOL0     C13732   7.195   2.818   5.790 -0.2816  1.1202 -0.4161
  843MOL0     C13733   7.129   2.749   5.686  0.2080  0.6002 -0.0846
  843MOL0     C13734   7.066   2.686   5.606  0.6125 -0.2004  0.7150
  843MOL0     C13735   7.459   3.328   5.570 -0.8335 -0.4842  0.0421
  843MOL0     C13736   7.418   3.463   5.582  0.1851 -0.6949  0.1910
  843MOL0     C13737   7.421   3.557   5.453 -1.1028  0.1243  0.2595
  843MOL0     H13738   7.150   3.848   5.851 -1.1098  1.8051  0.5045
  843MOL0     H13739   7.179   4.080   5.882  3.4657 -0.2977  1.5322
  843MOL0     H13740   7.422   4.332   5.628  0.8119 -0.1777  2.8714
  843MOL0     H13741   7.285   4.375   5.536  4.6796  0.4785 -1.0916
  843MOL0     H13742   7.336   4.450   5.828  1.6833 -2.2007 -0.7889
  843MOL0     H13743   7.203   4.520   5.736 -0.5807 -2.0667  1.6248
  843MOL0     H13744   7.355   4.628   5.565 -0.2500  0.4206 -0.4209
  843MOL0     H13745   7.487   4.590   5.658  0.6475  2.2112  1.1467
  843MOL0     H13746   7.272   4.707   5.827  1.2285 -2.6284  0.9537
  843MOL0     H13747   7.445   4.746   5.822  1.5551  0.0528 -1.1198
  843MOL0     H13748   7.321   4.920   5.753  1.1661 -0.5714  0.1053
  843MOL0     H13749   7.400   4.868   5.609  0.2955  0.6085 -0.6220
  843MOL0     H13750   7.182   4.768   5.526 -1.9383  0.5026 -0.2331
  843MOL0     H13751   7.098   4.785   5.674 -1.6224 -1.7694 -1.9049
  843MOL0     H13752   7.187   5.000   5.481 -2.1457  1.0632 -0.7599
  843MOL0     H13753   7.143   5.043   5.649  0.5460  0.6454 -0.3713
  843MOL0     H13754   6.962   4.874   5.463  0.5317  0.4979 -3.1411
  843MOL0     H13755   6.923   4.968   5.611  0.8509 -0.2102  0.2857
  843MOL0     H13756   7.011   5.015   5.232  1.4478  0.2907  1.2941
  843MOL0     H13757   6.912   5.346   5.103 -1.1034  0.3778  2.2449
  843MOL0     H13758   6.964   5.183   5.057  1.5720  0.8568 -1.5174
  843MOL0     H13759   6.712   5.115   5.100 -2.1581  1.7596  2.7027
  843MOL0     H13760   6.672   5.277   5.111  0.4971  1.0041  0.1297
  843MOL0     H13761   6.809   5.150   4.878  0.1653  0.5600 -0.0015
  843MOL0     H13762   6.741   5.320   4.894 -1.2793  0.3051  0.2660
  843MOL0     H13763   6.522   5.270   4.893 -0.4388 -2.4974  1.2920
  843MOL0     H13764   6.555   5.099   4.887 -1.2665  0.3553  1.3647
  843MOL0     H13765   6.347   5.127   4.665 -0.6677 -0.6085 -0.4970
  843MOL0     H13766   6.154   5.249   4.575 -0.3187  0.5672 -3.2957
  843MOL0     H13767   6.015   5.671   4.295 -1.1982  1.7063 -0.3345
  843MOL0     H13768   5.854   5.835   4.273  2.4784 -1.4954 -1.1635
  843MOL0     H13769   5.697   5.967   4.635 -0.8738  0.1494 -0.3375
  843MOL0     H13770   5.748   6.136   4.636 -0.9278 -0.5907  2.4257
  843MOL0     H13771   5.524   6.174   4.615 -2.7200 -0.0616 -1.3948
  843MOL0     H13772   5.578   6.159   4.448  5.5945  2.6333  1.5195
  843MOL0     H13773   5.475   5.918   4.597 -0.0968 -0.7691  0.0495
  843MOL0     H13774   5.370   6.041   4.538 -0.9339 -1.0367 -0.1674
  843MOL0     H13775   5.545   5.845   4.398  2.4593  3.0384  1.9053
  843MOL0     H13776   5.535   5.999   4.324  1.7715  1.7667  2.6569
  843MOL0     H13777   5.362   5.858   4.217 -1.0467  3.1239 -1.3244
  843MOL0     H13778   5.280   5.984   4.312 -2.4294 -1.0768 -0.7094
  843MOL0     H13779   5.353   5.713   4.411  1.2676  0.7068 -0.3685
  843MOL0     H13780   5.247   5.817   4.499  1.3171 -3.4580  1.4676
  843MOL0     H13781   5.110   5.645   4.401  1.0512 -0.9499 -0.4165
  843MOL0     H13782   5.174   5.663   4.235  0.3264 -0.5404  0.2552
  843MOL0     H13783   5.048   5.882   4.208 -1.6945  2.2845  2.4078
  843MOL0     H13784   4.940   5.771   4.290  0.8480 -2.2048 -2.8265
  843MOL0     H13785   5.945   6.013   4.651 -1.2881 -1.4828 -0.4385
  843MOL0     H13786   6.123   5.821   4.694  0.9441  0.4761 -0.5282
  843MOL0     H13787   6.420   5.599   4.554  1.6584 -0.0789  2.7194
  843MOL0     H13788   6.606   5.458   4.620  0.0842  1.3508 -1.5149
  843MOL0     H13789   7.367   4.134   5.506 -1.6069  0.7422 -0.8441
  843MOL0     H13790   7.354   3.887   5.481  0.8385 -0.3844  0.6018
  843MOL0     H13791   7.411   3.485   5.920 -0.0349 -2.7974  0.8843
  843MOL0     H13792   7.434   3.242   5.888 -5.5979 -1.2714 -0.5126
  843MOL0     H13793   7.495   2.962   5.552  1.6733  0.8324 -1.3281
  843MOL0     H13794   7.408   3.099   5.494 -0.4994  0.4247  0.6331
  843MOL0     H13795   7.233   2.964   5.551  0.0803  2.0958 -1.1758
  843MOL0     H13796   7.253   3.087   5.696  0.8272  0.8809  0.9627
  843MOL0     H13797   7.386   2.913   5.816  2.5232  0.1513 -2.1777
  843MOL0     H13798   7.379   2.805   5.687  1.0324 -0.6444  2.7348
  843MOL0     H13799   7.231   2.750   5.868 -1.7082  1.8112  0.8767
  843MOL0     H13800   7.125   2.888   5.836 -2.9125 -1.3779 -0.2993
  843MOL0     H13801   7.013   2.617   5.543  0.4894  0.6807 -0.1603
  843MOL0     H13802   7.477   3.305   5.466 -0.2345  0.4364 -0.0761
  843MOL0     H13803   7.324   3.595   5.422 -0.6572  0.5105 -0.6867
  843MOL0     H13804   7.488   3.641   5.473 -1.3689 -0.4433  4.3566
  843MOL0     H13805   7.471   3.511   5.367  1.9620  0.6231  1.6124
  844MOL0     O13806   1.381   3.283   1.288  0.3905  0.6973  0.4045
  844MOL0     C13807   1.409   3.189   1.211  0.1834  0.6062 -0.4649
  844MOL0     O13808   1.539   3.173   1.159 -0.2069  0.2168  0.0247
  844MOL0     C13809   1.629   3.271   1.181  0.7183 -0.3153  0.0481
  844MOL0     C13810   1.695   3.288   1.307 -0.1271  0.6961 -0.5274
  844MOL0     C13811   1.770   3.388   1.348  0.2716 -0.2252  0.6400
  844MOL0     C13812   1.816   3.473   1.245  0.1883 -0.3642  0.2524
  844MOL0     O13813   1.915   3.572   1.284  0.6968  0.8047 -0.4896
  844MOL0     C13814   1.980   3.656   1.179  0.4308  0.8906 -0.0597
  844MOL0     C13815   2.080   3.769   1.236 -0.2544  0.0147 -0.2743
  844MOL0     C13816   2.145   3.858   1.121  0.5381  0.0981  0.2638
  844MOL0     C13817   2.295   3.827   1.109  0.0558 -0.2031 -0.1661
  844MOL0     C13818   2.351   3.899   0.989  0.0476 -0.3159  0.2556
  844MOL0     C13819   2.341   4.044   1.013  0.2773  0.1689  0.6203
  844MOL0     C13820   2.410   4.104   0.884 -0.4561 -0.5511 -0.5051
  844MOL0     C13821   2.378   4.260   0.866  0.7881  0.0471  0.3256
  844MOL0     N13822   2.447   4.343   0.958 -0.2970 -0.5355 -0.7905
  844MOL0     C13823   2.396   4.388   1.081  0.1570 -0.3390 -0.4039
  844MOL0     C13824   2.496   4.467   1.126  0.4818  0.4368 -0.0111
  844MOL0     C13825   2.488   4.545   1.258  0.2317 -0.1203  0.2989
  844MOL0     C13826   2.372   4.639   1.258 -0.7550 -0.5053 -0.7627
  844MOL0     C13827   2.371   4.734   1.391 -0.2054 -0.7209  0.7328
  844MOL0     C13828   2.470   4.853   1.359 -1.3758 -0.4819  0.0589
  844MOL0     O13829   2.535   4.850   1.489 -0.0749  0.5519 -0.6385
  844MOL0     C13830   2.619   4.951   1.543 -0.3831  0.2915  0.3629
  844MOL0     C13831   2.645   5.072   1.471  1.2744  0.1594 -0.2513
  844MOL0     C13832   2.730   5.175   1.524  0.0657 -0.1623  0.4151
  844MOL0     C13833   2.791   5.150   1.647 -0.0421  0.3491  0.7468
  844MOL0     C13834   2.854   5.262   1.725 -0.8301 -0.5906 -0.1082
  844MOL0     O13835   2.958   5.222   1.815 -0.5428 -0.3348 -0.1201
  844MOL0     C13836   3.033   5.322   1.873  0.3914 -0.3819 -0.2750
  844MOL0     C13837   2.979   5.436   1.932  0.7193  0.4077 -0.7963
  844MOL0     C13838   3.058   5.533   1.997  0.0228 -0.7186 -0.5406
  844MOL0     C13839   3.199   5.516   2.007  0.1309  0.1223  0.0125
  844MOL0     O13840   3.275   5.609   2.079  0.0997  0.5399  0.1938
  844MOL0     C13841   3.403   5.645   2.025 -0.5246  0.8719 -0.1430
  844MOL0     C13842   3.423   5.793   2.042 -0.2678  0.1693 -1.0243
  844MOL0     C13843   3.314   5.884   1.975  0.8961 -0.0741 -0.0471
  844MOL0     C13844   3.296   6.006   2.065  0.0580 -0.3177 -0.3340
  844MOL0     C13845   3.172   6.077   2.033  0.0228  0.9013  0.3477
  844MOL0     C13846   3.157   6.209   2.104  0.2346  1.1950 -0.0294
  844MOL0     C13847   3.020   6.259   2.086 -0.4511 -1.0109 -1.0815
  844MOL0     C13848   2.984   6.399   2.147 -0.7081  0.2216 -0.5302
  844MOL0    Cl13849   3.091   6.522   2.080  0.4392 -0.5472 -0.2012
  844MOL0     C13850   3.257   5.409   1.938  0.0102 -0.6195  0.3057
  844MOL0     C13851   3.175   5.322   1.876  0.1538  0.3736  0.9484
  844MOL0     O13852   2.812   5.378   1.699 -0.2010 -0.2443  0.1401
  844MOL0     C13853   2.782   5.025   1.706 -0.2631  0.6351  0.2964
  844MOL0     C13854   2.692   4.925   1.651 -1.6537  0.3356 -0.4478
  844MOL0     N13855   2.598   4.460   1.035 -0.2736  0.6172  0.1148
  844MOL0     N13856   2.566   4.393   0.932 -1.6389 -0.9294 -0.1570
  844MOL0     C13857   1.770   3.454   1.106  0.0680 -0.2193 -1.2553
  844MOL0     C13858   1.671   3.358   1.081 -0.3835 -0.7017  0.2519
  844MOL0     C13859   1.330   3.064   1.218 -0.8857  0.1455  0.6068
  844MOL0     C13860   1.397   2.971   1.288  0.0055  0.4746  0.1325
  844MOL0     C13861   1.353   2.839   1.294  0.0564  0.0412 -0.2365
  844MOL0     C13862   1.228   2.806   1.235 -0.5603 -0.3234  0.9770
  844MOL0     O13863   1.172   2.680   1.242  0.3984  0.0541 -0.4761
  844MOL0     C13864   1.243   2.568   1.298 -0.0064  0.3260 -0.1976
  844MOL0     C13865   1.257   2.561   1.453  0.5795 -0.4027  0.2817
  844MOL0     C13866   1.107   2.564   1.508  0.4855 -0.2263  0.4917
  844MOL0     C13867   1.092   2.495   1.643 -0.9349  0.5698 -0.7967
  844MOL0     C13868   0.958   2.499   1.678 -0.0718 -0.9269  0.2568
  844MOL0     C13869   0.849   2.491   1.734 -1.3936 -0.0181 -0.0168
  844MOL0     C13870   1.156   2.903   1.171 -1.3030  0.5257  0.2354
  844MOL0     C13871   1.208   3.039   1.160 -0.4262 -0.0575 -0.2923
  844MOL0     C13872   1.154   3.151   1.060 -0.1517 -0.1926  0.3167
  844MOL0     H13873   1.669   3.218   1.386  1.3114  0.2009 -0.4599
  844MOL0     H13874   1.819   3.383   1.444 -0.2940 -2.1455  0.8630
  844MOL0     H13875   2.042   3.590   1.116  4.1141  1.6639  2.4337
  844MOL0     H13876   1.899   3.709   1.128 -1.7611 -1.7699  0.3882
  844MOL0     H13877   2.164   3.725   1.291  0.4952 -0.9376 -2.0530
  844MOL0     H13878   2.024   3.827   1.309  1.1046 -0.8391  1.5129
  844MOL0     H13879   2.118   3.961   1.147 -0.1440 -0.1254  0.4465
  844MOL0     H13880   2.094   3.832   1.028 -1.1431 -0.3142  1.2593
  844MOL0     H13881   2.351   3.855   1.199  1.4273  3.8649 -2.0666
  844MOL0     H13882   2.311   3.720   1.090  1.9762  0.2707 -1.5190
  844MOL0     H13883   2.451   3.858   0.970 -0.2784 -1.7222  1.3493
  844MOL0     H13884   2.300   3.875   0.895  3.4019  1.6103 -2.2811
  844MOL0     H13885   2.233   4.062   1.011  0.0933 -0.9136  0.1925
  844MOL0     H13886   2.372   4.072   1.115 -2.5578  0.7546  1.4028
  844MOL0     H13887   2.372   4.053   0.795 -0.9432 -1.1566  0.0409
  844MOL0     H13888   2.516   4.075   0.876 -0.8593 -2.1076 -0.5287
  844MOL0     H13889   2.397   4.279   0.760 -1.4191 -3.1563 -0.7787
  844MOL0     H13890   2.271   4.281   0.872  1.2041  2.7268 -0.3777
  844MOL0     H13891   2.299   4.367   1.124 -0.0910 -4.7741 -2.5445
  844MOL0     H13892   2.482   4.477   1.343  1.9569 -2.6028 -1.4156
  844MOL0     H13893   2.582   4.600   1.272 -0.3427  1.7952 -2.4844
  844MOL0     H13894   2.384   4.708   1.174 -0.0897  0.9817  0.4867
  844MOL0     H13895   2.283   4.576   1.248 -0.2921 -1.5710  1.2823
  844MOL0     H13896   2.395   4.677   1.481  1.3133  0.9176  1.4157
  844MOL0     H13897   2.273   4.777   1.411 -0.8595 -2.8303  2.4683
  844MOL0     H13898   2.417   4.948   1.355  0.0163  0.4898  2.2601
  844MOL0     H13899   2.548   4.839   1.283 -0.2339 -1.2928  1.3188
  844MOL0     H13900   2.609   5.090   1.370  0.9525 -0.5631 -0.2735
  844MOL0     H13901   2.733   5.270   1.473 -1.4394 -1.0217 -1.4258
  844MOL0     H13902   2.872   5.454   1.934  0.8866  1.4955 -1.0796
  844MOL0     H13903   3.003   5.620   2.031  2.8737  2.1024 -2.5675
  844MOL0     H13904   3.486   5.586   2.065  0.1521  1.9771  0.1106
  844MOL0     H13905   3.411   5.616   1.920  2.2172  0.6909  0.0602
  844MOL0     H13906   3.413   5.813   2.149 -0.9605  0.9659 -1.2288
  844MOL0     H13907   3.522   5.826   2.008  0.5545 -1.5344 -0.4302
  844MOL0     H13908   3.343   5.913   1.873 -2.2052  1.6106 -0.5777
  844MOL0     H13909   3.221   5.829   1.967 -1.8033  3.7072  2.0286
  844MOL0     H13910   3.387   6.065   2.051 -0.3246 -0.2562 -3.3646
  844MOL0     H13911   3.283   5.988   2.172 -3.6808  2.2975 -0.1462
  844MOL0     H13912   3.091   6.011   2.067  0.3808  0.9855  1.3962
  844MOL0     H13913   3.170   6.095   1.925  0.8420  0.1709  0.1921
  844MOL0     H13914   3.167   6.190   2.211  0.4315  0.6966 -0.1312
  844MOL0     H13915   3.240   6.272   2.069  0.3012  0.2557 -1.6510
  844MOL0     H13916   2.949   6.189   2.131 -0.6869 -0.7810 -1.0890
  844MOL0     H13917   2.997   6.274   1.980 -1.9245  0.3128 -0.6224
  844MOL0     H13918   2.881   6.429   2.122 -1.5142 -0.8892  1.2500
  844MOL0     H13919   3.002   6.385   2.254  1.6089  2.8664 -0.4510
  844MOL0     H13920   3.364   5.390   1.930 -0.1381 -1.1011 -0.8067
  844MOL0     H13921   3.223   5.232   1.839 -1.2231  0.5362 -1.4436
  844MOL0     H13922   2.844   4.990   1.788  0.5035 -0.4814 -0.7210
  844MOL0     H13923   2.676   4.826   1.693 -1.0467 -0.2096 -1.4717
  844MOL0     H13924   1.801   3.515   1.022  1.5669  2.2682  0.9370
  844MOL0     H13925   1.651   3.352   0.975 -0.9995 -2.5452  0.4451
  844MOL0     H13926   1.492   2.990   1.338  0.6215 -0.0939 -0.7809
  844MOL0     H13927   1.420   2.764   1.336  0.8024 -0.4956 -2.2572
  844MOL0     H13928   1.345   2.566   1.259 -0.6120 -0.5834 -1.8458
  844MOL0     H13929   1.188   2.480   1.264 -0.6118  0.3801  0.6349
  844MOL0     H13930   1.310   2.650   1.489 -0.1996  1.7849 -3.4307
  844MOL0     H13931   1.317   2.474   1.482 -2.3483 -1.6896  3.0903
  844MOL0     H13932   1.038   2.526   1.431 -0.7977  1.0515  0.9767
  844MOL0     H13933   1.071   2.666   1.523 -0.4390 -0.4420 -0.1227
  844MOL0     H13934   1.134   2.394   1.642  0.7735  1.2534 -1.1091
  844MOL0     H13935   1.148   2.547   1.721 -1.4935  1.0509 -0.7114
  844MOL0     H13936   0.747   2.477   1.763 -1.0682 -2.1313  0.3029
  844MOL0     H13937   1.074   2.865   1.111 -0.2580 -0.3182 -0.7070
  844MOL0     H13938   1.228   3.228   1.036 -1.6657  0.8505 -1.2506
  844MOL0     H13939   1.125   3.106   0.965  1.5033 -0.8311  0.0718
  844MOL0     H13940   1.062   3.200   1.092  1.1205  3.9480 -1.6704
  845MOL0     O13941   5.563  10.223   1.522 -0.0150 -0.3666  0.6853
  845MOL0     C13942   5.469  10.157   1.471 -0.2509  0.2284  0.6352
  845MOL0     O13943   5.488  10.049   1.392  0.5326  0.9393 -0.2278
  845MOL0     C13944   5.607   9.977   1.384  0.0202  0.1589  0.5461
  845MOL0     C13945   5.700  10.027   1.292 -0.0484  0.2757  0.6411
  845MOL0     C13946   5.815   9.950   1.262  0.1014 -0.1746 -0.9837
  845MOL0     C13947   5.842   9.839   1.328  0.2664 -0.0484 -0.4573
  845MOL0     O13948   5.944   9.757   1.304  0.0769  0.1348  0.2653
  845MOL0     C13949   6.050   9.803   1.226 -0.1085 -0.4661  0.5153
  845MOL0     C13950   6.018   9.753   1.081 -0.5021  0.0952  0.0262
  845MOL0     C13951   6.147   9.800   1.000 -0.4007 -0.6842 -1.1862
  845MOL0     C13952   6.261   9.694   1.015 -0.1070 -0.2328  0.4516
  845MOL0     C13953   6.379   9.741   0.926 -0.8051  0.1024  0.0348
  845MOL0     C13954   6.472   9.615   0.920 -0.8094 -0.5503 -0.0017
  845MOL0     C13955   6.592   9.638   0.825 -0.4109 -0.3715 -0.8025
  845MOL0     C13956   6.662   9.501   0.796  0.6119  0.0747 -1.2407
  845MOL0     N13957   6.759   9.509   0.684 -0.8391  0.5222  0.1870
  845MOL0     C13958   6.850   9.404   0.658  0.7203 -0.4420 -0.2088
  845MOL0     C13959   6.911   9.446   0.545 -0.1955 -0.1984  0.4111
  845MOL0     C13960   7.015   9.355   0.484 -1.3248 -0.4013  0.7323
  845MOL0     C13961   6.948   9.267   0.380  0.3320 -0.7796 -0.2554
  845MOL0     C13962   7.058   9.173   0.321 -0.8803 -0.4211 -0.3841
  845MOL0     C13963   7.001   9.044   0.275 -0.3825 -0.5257 -0.5565
  845MOL0     O13964   7.083   8.996   0.162  0.1852 -0.6993  0.4904
  845MOL0     C13965   7.049   9.045   0.039 -0.8972 -0.2729  0.2475
  845MOL0     C13966   6.909   9.046  -0.000  0.5680 -0.7180  0.1296
  845MOL0     C13967   6.874   9.122  -0.119 -0.3114  0.6161  0.1869
  845MOL0     C13968   6.969   9.167  -0.213 -0.2996  0.0641  0.0393
  845MOL0     C13969   6.930   9.226  -0.341  0.1226  0.1102 -0.9633
  845MOL0     O13970   7.025   9.264  -0.427  0.1752 -0.4655 -0.0510
  845MOL0     C13971   6.980   9.339  -0.533  0.7086  0.6961  0.3133
  845MOL0     C13972   7.065   9.325  -0.643  1.3549  0.1464 -0.1069
  845MOL0     C13973   7.039   9.408  -0.757  0.0633 -0.1483 -0.3278
  845MOL0     C13974   6.923   9.485  -0.768 -0.1244 -0.4900  0.0167
  845MOL0     O13975   6.896   9.548  -0.881  0.7313  0.1731  0.2501
  845MOL0     C13976   6.988   9.575  -0.987  0.5388  0.7590 -0.6247
  845MOL0     C13977   6.922   9.671  -1.090  0.5866 -1.0134  0.3862
  845MOL0     C13978   6.895   9.815  -1.023  0.3352 -0.4166 -0.8309
  845MOL0     C13979   6.755   9.817  -0.961  0.8452 -0.4158 -0.2109
  845MOL0     C13980   6.727   9.949  -0.888  0.5132 -0.7244  0.3039
  845MOL0     C13981   6.819   9.986  -0.768  0.1877 -0.2135  0.7526
  845MOL0     C13982   6.811   9.874  -0.658 -0.3847 -0.6620  0.4760
  845MOL0     C13983   6.902   9.921  -0.540  0.5292  0.5647 -1.0112
  845MOL0    Cl13984   6.905   9.775  -0.435 -0.5157 -0.6019 -0.2055
  845MOL0     C13985   6.835   9.494  -0.652 -0.2131  0.4162  0.3905
  845MOL0     C13986   6.865   9.429  -0.538  0.6036  0.5602 -0.3884
  845MOL0     O13987   6.814   9.255  -0.346  0.4442 -0.3874  0.1129
  845MOL0     C13988   7.109   9.160  -0.175  0.1875  0.0619 -0.3527
  845MOL0     C13989   7.145   9.110  -0.046  0.6334  0.0972 -0.0603
  845MOL0     N13990   6.864   9.566   0.511  0.8309 -0.7761  0.5231
  845MOL0     N13991   6.778   9.609   0.592 -0.4094 -0.0610  0.6404
  845MOL0     C13992   5.748   9.789   1.420 -0.6609  0.0301  0.4095
  845MOL0     C13993   5.634   9.858   1.449  0.0986  0.0201  0.1650
  845MOL0     C13994   5.330  10.212   1.486  0.0086  0.4780 -0.0094
  845MOL0     C13995   5.234  10.121   1.449  0.1625 -0.9236  0.3121
  845MOL0     C13996   5.097  10.136   1.492 -0.8323  0.0732  0.4059
  845MOL0     C13997   5.060  10.245   1.574  0.3771  0.1779  0.7100
  845MOL0     O13998   4.929  10.240   1.622  0.2776 -0.5397  0.7569
  845MOL0     C13999   4.865  10.373   1.653  0.1301  0.2210  0.1609
  845MOL0     C14000   4.731  10.344   1.709  0.0614 -0.9767 -0.2771
  845MOL0     C14001   4.632  10.303   1.600 -0.3085  0.1437 -0.7373
  845MOL0     C14002   4.486  10.349   1.647  0.1545  0.3770  0.4736
  845MOL0     C14003   4.439  10.486   1.596  0.1359  1.9134 -0.7724
  845MOL0     C14004   4.407  10.602   1.582 -0.6335  1.0082  0.9121
  845MOL0     C14005   5.154  10.338   1.596 -0.1547  0.0857  0.2285
  845MOL0     C14006   5.292  10.326   1.561  0.0234 -0.6190  0.6137
  845MOL0     C14007   5.380  10.436   1.634  0.1223  0.9400  1.1286
  845MOL0     H14008   5.686  10.127   1.252  1.5627  1.6427  3.2052
  845MOL0     H14009   5.888   9.980   1.188  1.3909 -0.9509 -0.0686
  845MOL0     H14010   6.062   9.911   1.239  1.7279 -0.4146 -1.0852
  845MOL0     H14011   6.133   9.744   1.266 -2.2816 -3.2239  1.2665
  845MOL0     H14012   5.924   9.794   1.044 -1.2477  0.3584  2.0977
  845MOL0     H14013   5.993   9.646   1.072 -0.2392  0.0697 -0.4172
  845MOL0     H14014   6.188   9.896   1.030  0.9073  0.0991 -4.9641
  845MOL0     H14015   6.112   9.795   0.896 -5.0790 -1.7389  0.2004
  845MOL0     H14016   6.299   9.689   1.118 -0.5988 -1.6216  0.5766
  845MOL0     H14017   6.219   9.598   0.987  0.9515 -0.6416  0.2190
  845MOL0     H14018   6.359   9.774   0.823  3.3641  1.1614 -0.6324
  845MOL0     H14019   6.430   9.824   0.975  0.0666 -0.4610  0.0935
  845MOL0     H14020   6.514   9.595   1.019  2.0216 -0.8840 -1.1622
  845MOL0     H14021   6.417   9.524   0.894 -0.1806 -1.3235  1.2872
  845MOL0     H14022   6.665   9.706   0.869  2.3717 -1.6333 -3.0896
  845MOL0     H14023   6.562   9.693   0.735  0.5815  2.4169  0.4899
  845MOL0     H14024   6.718   9.467   0.883 -1.4429  0.5066  0.3214
  845MOL0     H14025   6.584   9.433   0.761 -0.0327  0.5811 -0.8121
  845MOL0     H14026   6.857   9.305   0.700  1.0844 -1.5808 -2.7528
  845MOL0     H14027   7.096   9.413   0.438 -0.5059 -2.8621 -1.1849
  845MOL0     H14028   7.058   9.289   0.560 -3.0433 -1.2949  0.9890
  845MOL0     H14029   6.873   9.217   0.441 -0.2253  0.3425  0.0029
  845MOL0     H14030   6.906   9.323   0.296 -0.7695 -1.2389 -0.0236
  845MOL0     H14031   7.129   9.150   0.401  0.5707 -3.6618 -2.3884
  845MOL0     H14032   7.109   9.227   0.242  3.5798 -2.0070  1.1212
  845MOL0     H14033   6.893   9.050   0.255 -0.5973 -2.0352 -0.0061
  845MOL0     H14034   6.994   8.962   0.348 -0.9690 -0.3341 -0.3845
  845MOL0     H14035   6.831   9.006   0.064 -1.6776  2.5559 -0.3187
  845MOL0     H14036   6.767   9.134  -0.133 -0.6762  0.9199  2.7812
  845MOL0     H14037   7.145   9.253  -0.631  0.2421 -1.3535 -1.3814
  845MOL0     H14038   7.117   9.427  -0.830 -2.1727  1.8561 -2.4226
  845MOL0     H14039   7.085   9.612  -0.954  1.3120 -1.2879 -0.4589
  845MOL0     H14040   7.016   9.480  -1.033  1.3322  1.0806 -0.8252
  845MOL0     H14041   6.995   9.677  -1.172 -1.8404 -1.0247 -1.9179
  845MOL0     H14042   6.829   9.634  -1.135 -0.0977  5.0191 -4.6245
  845MOL0     H14043   6.974   9.854  -0.959 -1.7302  0.1400  1.5841
  845MOL0     H14044   6.881   9.880  -1.109 -0.4707  0.0704 -0.3440
  845MOL0     H14045   6.737   9.735  -0.892 -1.9844  0.5299  0.3092
  845MOL0     H14046   6.686   9.795  -1.044  2.4114 -1.9361 -1.1616
  845MOL0     H14047   6.626   9.954  -0.847  0.9121 -1.5335  1.4104
  845MOL0     H14048   6.743  10.025  -0.965  1.1762  1.6724  2.6601
  845MOL0     H14049   6.924   9.987  -0.797 -0.2705 -2.9611 -1.4633
  845MOL0     H14050   6.789  10.078  -0.717  3.8172 -0.0860  3.0212
  845MOL0     H14051   6.854   9.784  -0.702  0.0762 -0.8565  1.3022
  845MOL0     H14052   6.708   9.876  -0.623  0.5043  0.8799  3.3549
  845MOL0     H14053   7.000   9.955  -0.575  1.3023 -1.1320 -0.5961
  845MOL0     H14054   6.849   9.999  -0.484 -1.1296 -2.7475  2.4932
  845MOL0     H14055   6.738   9.542  -0.655 -0.4804 -0.1205 -1.9942
  845MOL0     H14056   6.792   9.441  -0.459  2.7408 -1.8284  2.1794
  845MOL0     H14057   7.187   9.202  -0.238  0.6863 -0.5380 -0.1442
  845MOL0     H14058   7.249   9.109  -0.017  0.6686  0.2743 -0.1800
  845MOL0     H14059   5.763   9.694   1.469 -0.9634 -0.6759 -0.8309
  845MOL0     H14060   5.564   9.818   1.522  2.1604  1.6377  3.2290
  845MOL0     H14061   5.268  10.034   1.394 -0.3943  0.9164 -3.2205
  845MOL0     H14062   5.028  10.057   1.465 -0.3386 -0.3820  0.4659
  845MOL0     H14063   4.864  10.435   1.563  1.6870 -1.6302 -1.2100
  845MOL0     H14064   4.924  10.427   1.728  0.3982 -0.4246  0.4203
  845MOL0     H14065   4.687  10.437   1.745 -2.9202 -2.1569 -0.5547
  845MOL0     H14066   4.730  10.267   1.786 -1.7710  0.4978  1.2804
  845MOL0     H14067   4.627  10.195   1.586  1.0845 -0.3271  1.7979
  845MOL0     H14068   4.668  10.330   1.501  2.1205 -2.1871 -0.5926
  845MOL0     H14069   4.419  10.275   1.602  2.8295  0.4907 -4.4372
  845MOL0     H14070   4.469  10.352   1.755  1.3576  3.5560  0.6867
  845MOL0     H14071   4.392  10.707   1.564  0.9089  1.1716  0.3687
  845MOL0     H14072   5.126  10.431   1.644  1.6839  1.7779 -1.7601
  845MOL0     H14073   5.320  10.527   1.638  0.7093  1.3458  0.8907
  845MOL0     H14074   5.410  10.417   1.737 -2.5897  1.7404  2.1353
  845MOL0     H14075   5.471  10.461   1.577 -0.8625  2.6868  0.2232
  846MOL0     O14076   8.100   7.546   7.638 -0.3998  0.3298  0.0070
  846MOL0     C14077   8.021   7.637   7.655 -0.0753 -0.5978  0.8553
  846MOL0     O14078   7.888   7.635   7.611 -0.6065 -0.4421 -0.1303
  846MOL0     C14079   7.863   7.576   7.488 -0.2510 -0.1194  0.0405
  846MOL0     C14080   7.935   7.604   7.375 -0.1506  0.5441  0.9416
  846MOL0     C14081   7.886   7.563   7.242  0.1214 -0.0338  0.5465
  846MOL0     C14082   7.761   7.506   7.237 -0.8120  0.7737 -0.5382
  846MOL0     O14083   7.723   7.450   7.119 -0.4101 -0.1458  0.0811
  846MOL0     C14084   7.592   7.405   7.091  0.6453 -0.8634  1.0116
  846MOL0     C14085   7.588   7.336   6.956  0.2104 -0.0024 -0.3819
  846MOL0     C14086   7.448   7.288   6.917  0.0833  0.6508  0.1702
  846MOL0     C14087   7.341   7.384   6.958 -1.0009 -0.7829 -0.5319
  846MOL0     C14088   7.204   7.360   6.883 -0.0568 -0.7290 -0.3470
  846MOL0     C14089   7.152   7.218   6.901 -0.1711 -0.8522 -0.2994
  846MOL0     C14090   7.083   7.175   6.770 -0.6972 -0.3044 -0.1021
  846MOL0     C14091   6.943   7.127   6.788 -0.4272 -0.9849 -0.8079
  846MOL0     N14092   6.875   7.077   6.668 -0.0703 -0.4946  0.3012
  846MOL0     C14093   6.906   7.120   6.538 -0.6355 -0.2840 -0.4871
  846MOL0     C14094   6.836   7.029   6.466  1.0353 -0.3445 -0.7244
  846MOL0     C14095   6.817   7.037   6.318  0.0713 -0.3248 -0.9393
  846MOL0     C14096   6.669   7.067   6.279  0.3270  0.3469  0.7682
  846MOL0     C14097   6.627   7.027   6.133  0.6921  1.1924  0.2474
  846MOL0     C14098   6.600   6.873   6.125  0.3998 -0.8829 -0.7861
  846MOL0     O14099   6.718   6.801   6.093 -0.0303  0.5918 -0.1095
  846MOL0     C14100   6.740   6.768   5.964 -0.5973  0.4034  0.2167
  846MOL0     C14101   6.778   6.634   5.947  0.4266  0.5301 -0.1850
  846MOL0     C14102   6.807   6.581   5.814  0.2828  0.2087 -0.7041
  846MOL0     C14103   6.784   6.666   5.705 -0.2416 -0.0768  0.6576
  846MOL0     C14104   6.811   6.623   5.567  0.3673  0.0427 -0.3494
  846MOL0     O14105   6.830   6.715   5.465  0.3970  0.6538 -0.6436
  846MOL0     C14106   6.819   6.676   5.333  0.2378  0.0121 -0.1718
  846MOL0     C14107   6.931   6.680   5.253 -0.5509 -0.0865  1.2222
  846MOL0     C14108   6.934   6.610   5.136  0.2676 -0.5690  0.1250
  846MOL0     C14109   6.823   6.542   5.087 -0.0411  0.8759  0.2629
  846MOL0     O14110   6.816   6.478   4.970 -0.1759 -0.4194  0.5629
  846MOL0     C14111   6.878   6.547   4.858 -0.1509  0.0372  0.5837
  846MOL0     C14112   6.913   6.451   4.739  0.4602 -0.0113 -0.5500
  846MOL0     C14113   7.007   6.336   4.782  1.1846 -0.3943 -0.4087
  846MOL0     C14114   7.157   6.372   4.804  1.2026 -0.2320  0.8035
  846MOL0     C14115   7.243   6.261   4.858 -0.8840  0.3602 -1.0140
  846MOL0     C14116   7.275   6.163   4.752  0.4441  0.3442  1.6665
  846MOL0     C14117   7.181   6.043   4.750  0.3218 -0.4524 -0.2363
  846MOL0     C14118   7.238   5.935   4.645 -0.1846  0.4069 -0.5993
  846MOL0    Cl14119   7.203   5.959   4.470 -0.1810 -0.2368 -0.1760
  846MOL0     C14120   6.704   6.563   5.157 -0.8519  1.5645  0.2714
  846MOL0     C14121   6.700   6.623   5.281 -0.0596 -0.0478  0.4953
  846MOL0     O14122   6.801   6.506   5.553  0.2601  0.6348 -0.0907
  846MOL0     C14123   6.737   6.799   5.722 -0.0263 -0.1717  0.3233
  846MOL0     C14124   6.730   6.851   5.851  0.2776 -0.3275  0.0625
  846MOL0     N14125   6.790   6.923   6.542 -0.5091  0.5519 -0.1278
  846MOL0     N14126   6.821   6.955   6.664  0.9844 -0.3783  0.0280
  846MOL0     C14127   7.685   7.486   7.361 -0.7731 -0.7231  0.4996
  846MOL0     C14128   7.739   7.525   7.478 -0.0001 -0.0516 -0.5698
  846MOL0     C14129   8.068   7.765   7.717 -0.8347 -0.7198 -0.2158
  846MOL0     C14130   8.192   7.813   7.688 -0.4830 -0.6315 -0.0468
  846MOL0     C14131   8.235   7.948   7.717  0.6554  0.1005 -0.3782
  846MOL0     C14132   8.155   8.026   7.794  0.1000  0.6788 -0.1672
  846MOL0     O14133   8.181   8.160   7.822  0.0286  0.5771 -0.2942
  846MOL0     C14134   8.313   8.216   7.783 -0.1891  0.2025 -0.3203
  846MOL0     C14135   8.305   8.360   7.846 -0.4539  0.2929 -0.5326
  846MOL0     C14136   8.408   8.453   7.780  0.3377 -0.2251 -0.2590
  846MOL0     C14137   8.527   8.502   7.882  0.5572  1.1931  0.2432
  846MOL0     C14138   8.530   8.650   7.897  0.5730  0.3314 -0.0570
  846MOL0     C14139   8.551   8.762   7.934 -0.4874  0.2787  1.3681
  846MOL0     C14140   8.027   7.973   7.833 -0.3273  0.2365  0.2953
  846MOL0     C14141   7.988   7.840   7.803 -0.7675 -0.0630  0.2259
  846MOL0     C14142   7.856   7.785   7.857 -0.6573  0.0180  0.3125
  846MOL0     H14143   8.036   7.642   7.384 -0.0422  0.9323 -1.2480
  846MOL0     H14144   7.935   7.601   7.153 -1.7280  0.8261 -0.1487
  846MOL0     H14145   7.577   7.329   7.168  0.7788 -0.8851  1.0168
  846MOL0     H14146   7.524   7.490   7.102 -1.9773 -2.5293 -1.1363
  846MOL0     H14147   7.663   7.257   6.952  0.8820  0.5925  0.1527
  846MOL0     H14148   7.610   7.416   6.885 -2.2951  3.3139  2.2379
  846MOL0     H14149   7.433   7.188   6.960 -1.5689  0.4412 -0.8379
  846MOL0     H14150   7.431   7.275   6.810  0.0861  4.9027 -0.5145
  846MOL0     H14151   7.335   7.362   7.065  0.8941 -1.8496 -0.5920
  846MOL0     H14152   7.379   7.484   6.936 -0.7892 -0.6413  0.4702
  846MOL0     H14153   7.126   7.430   6.914  1.8348  0.5302  1.9130
  846MOL0     H14154   7.217   7.386   6.777  0.3272 -2.0928 -0.6489
  846MOL0     H14155   7.233   7.151   6.933  0.5369  0.7979  1.4836
  846MOL0     H14156   7.087   7.228   6.988 -0.1296  0.1823 -0.3757
  846MOL0     H14157   7.147   7.101   6.721  1.9583  0.8723  1.3612
  846MOL0     H14158   7.082   7.258   6.698 -0.0428  0.2717  0.5340
  846MOL0     H14159   6.943   7.054   6.870  0.3135 -2.8824 -2.4060
  846MOL0     H14160   6.888   7.219   6.808 -1.2243 -1.4266 -0.9265
  846MOL0     H14161   6.951   7.217   6.517 -1.3546  0.9129  2.8972
  846MOL0     H14162   6.891   7.104   6.272  1.3099 -0.7866  0.2892
  846MOL0     H14163   6.844   6.939   6.278  1.5594 -1.3351  2.1541
  846MOL0     H14164   6.611   7.025   6.361  1.8159 -2.3346  0.5668
  846MOL0     H14165   6.648   7.174   6.279 -0.6774  0.2019 -1.1947
  846MOL0     H14166   6.703   7.059   6.061  2.6880 -3.2804  0.0403
  846MOL0     H14167   6.533   7.079   6.110 -0.6223 -0.0233  2.5154
  846MOL0     H14168   6.519   6.846   6.057  0.4166 -1.7892 -0.4578
  846MOL0     H14169   6.573   6.837   6.225 -1.2926 -1.2598 -1.3471
  846MOL0     H14170   6.794   6.565   6.029 -4.0354 -0.7218 -0.0774
  846MOL0     H14171   6.845   6.480   5.803  1.4101  0.5088  0.2511
  846MOL0     H14172   7.028   6.722   5.277 -0.4555  0.9432 -0.7819
  846MOL0     H14173   7.028   6.605   5.081 -0.2610  1.8066 -1.1150
  846MOL0     H14174   6.809   6.626   4.825 -0.3271 -0.3297  0.0766
  846MOL0     H14175   6.971   6.601   4.880  0.3126 -0.8675  0.8738
  846MOL0     H14176   6.816   6.411   4.708  0.2455 -1.9564  2.2402
  846MOL0     H14177   6.963   6.510   4.662 -2.6078  1.0145 -1.9311
  846MOL0     H14178   6.967   6.296   4.875  1.1563  1.7205  0.5375
  846MOL0     H14179   6.990   6.259   4.706  2.2896 -1.2741  0.2177
  846MOL0     H14180   7.161   6.456   4.874  1.7025  2.1911 -1.9295
  846MOL0     H14181   7.207   6.407   4.713  0.6369  0.7598  0.8489
  846MOL0     H14182   7.210   6.207   4.946 -2.5886  3.0986  0.1577
  846MOL0     H14183   7.340   6.307   4.876 -0.5547 -0.2308 -1.2314
  846MOL0     H14184   7.284   6.209   4.654  1.1612 -2.1037  0.4903
  846MOL0     H14185   7.372   6.118   4.774  0.1579 -0.5566  1.1539
  846MOL0     H14186   7.082   6.061   4.708  1.1287 -0.2116 -2.1057
  846MOL0     H14187   7.189   6.020   4.857  0.3707  2.1177  0.3872
  846MOL0     H14188   7.346   5.930   4.665 -0.5163  2.7876  2.6028
  846MOL0     H14189   7.193   5.839   4.671 -0.4402  0.1328 -1.9962
  846MOL0     H14190   6.611   6.520   5.121  0.6576 -0.8096 -0.9883
  846MOL0     H14191   6.610   6.638   5.339  0.6973  3.7467  0.9744
  846MOL0     H14192   6.707   6.865   5.641  3.1124  0.2467 -0.6465
  846MOL0     H14193   6.698   6.952   5.876 -0.2938 -0.2162 -1.0738
  846MOL0     H14194   7.588   7.438   7.365 -1.5942  0.9001  0.9698
  846MOL0     H14195   7.685   7.515   7.571  0.2517 -1.5587 -0.5702
  846MOL0     H14196   8.260   7.753   7.629  0.3804 -0.7362  1.0165
  846MOL0     H14197   8.330   7.976   7.673  0.3022  2.1092  0.0701
  846MOL0     H14198   8.332   8.224   7.676  0.6889  0.5161 -0.1444
  846MOL0     H14199   8.386   8.153   7.834  1.1667  0.4974 -1.8107
  846MOL0     H14200   8.315   8.356   7.955  1.3195 -1.0164 -0.7027
  846MOL0     H14201   8.204   8.401   7.832 -1.6071 -1.1991  2.4284
  846MOL0     H14202   8.366   8.546   7.744 -0.0011 -0.2059  0.1733
  846MOL0     H14203   8.461   8.398   7.701 -0.3210  0.2584 -1.0481
  846MOL0     H14204   8.499   8.456   7.977 -1.2213  3.0440  0.6891
  846MOL0     H14205   8.622   8.471   7.837 -1.8740 -2.4765 -3.0526
  846MOL0     H14206   8.577   8.857   7.977  1.3577  0.6004 -0.3271
  846MOL0     H14207   7.965   8.045   7.885 -0.3468 -0.6374  1.5184
  846MOL0     H14208   7.778   7.782   7.780  0.5122 -1.8976 -0.8704
  846MOL0     H14209   7.880   7.682   7.883  0.7165  0.0315 -0.8177
  846MOL0     H14210   7.819   7.836   7.946 -0.4726 -2.2313  1.7431
  847MOL0     O14211   8.223   5.336   6.608 -1.3639 -0.1644 -0.1330
  847MOL0     C14212   8.165   5.233   6.622 -0.5092  0.7227  0.2284
  847MOL0     O14213   8.206   5.116   6.564  0.3894  0.0195 -0.5826
  847MOL0     C14214   8.326   5.116   6.501  0.0074  0.2124  0.3235
  847MOL0     C14215   8.450   5.113   6.574  0.2293  0.1700 -0.6026
  847MOL0     C14216   8.570   5.091   6.516 -0.0716  0.6740  1.1783
  847MOL0     C14217   8.573   5.070   6.378 -0.5705 -0.3501  0.1929
  847MOL0     O14218   8.682   5.024   6.310  0.6974  0.2367 -0.8710
  847MOL0     C14219   8.817   5.041   6.356 -0.4273 -0.5623  0.9481
  847MOL0     C14220   8.921   4.993   6.250 -0.1346  0.2420  0.4022
  847MOL0     C14221   8.922   5.092   6.131  0.4083  0.4018 -0.0410
  847MOL0     C14222   9.047   5.078   6.049  0.3919 -0.3596 -0.7581
  847MOL0     C14223   9.101   5.214   6.012  1.3855  0.8771  0.9061
  847MOL0     C14224   9.218   5.277   6.087 -0.1668  0.4158  0.1454
  847MOL0     C14225   9.212   5.255   6.239  1.1277 -0.8605 -0.1965
  847MOL0     C14226   9.351   5.259   6.293  0.7898  0.0050 -0.7302
  847MOL0     N14227   9.333   5.213   6.433 -0.5958  0.0118 -0.0385
  847MOL0     C14228   9.352   5.079   6.463 -0.0226 -0.7512 -0.1389
  847MOL0     C14229   9.377   5.086   6.597 -0.4380 -0.4740 -0.8398
  847MOL0     C14230   9.425   4.965   6.677  1.0368  0.2299  0.1656
  847MOL0     C14231   9.575   4.950   6.695 -0.6887 -0.4306 -0.6177
  847MOL0     C14232   9.623   4.810   6.718  0.4507  0.1520  0.3336
  847MOL0     C14233   9.599   4.753   6.852 -0.8200  0.4395  0.9621
  847MOL0     O14234   9.460   4.745   6.892  0.0656 -0.1732  0.4198
  847MOL0     C14235   9.440   4.680   7.014 -0.3850 -0.0360  0.5363
  847MOL0     C14236   9.318   4.687   7.074 -0.0570 -0.4221  0.6291
  847MOL0     C14237   9.283   4.627   7.190 -0.4788  0.7565 -0.4200
  847MOL0     C14238   9.391   4.569   7.269  0.4701  0.1425 -0.0549
  847MOL0     C14239   9.365   4.529   7.407  0.2401 -0.1837 -0.4472
  847MOL0     O14240   9.242   4.491   7.440  0.3327 -0.6557 -0.0139
  847MOL0     C14241   9.217   4.437   7.562 -0.1850 -0.1716  1.0945
  847MOL0     C14242   9.249   4.306   7.607 -0.1373  0.3713  0.3039
  847MOL0     C14243   9.220   4.268   7.736  0.0187  0.5503  0.7528
  847MOL0     C14244   9.157   4.352   7.824 -0.7141 -0.3777  0.4177
  847MOL0     O14245   9.126   4.299   7.941 -0.3793  0.7676  0.0806
  847MOL0     C14246   9.166   4.383   8.050  0.4189  0.0397 -0.2988
  847MOL0     C14247   9.171   4.297   8.176  0.2851 -0.5156  0.1620
  847MOL0     C14248   9.304   4.219   8.195  0.7889  0.3930 -0.7379
  847MOL0     C14249   9.291   4.126   8.323  0.3064 -0.1622 -0.0875
  847MOL0     C14250   9.415   4.039   8.326  0.9349  0.5356  0.2837
  847MOL0     C14251   9.375   3.905   8.387 -0.5573  1.2741 -0.5449
  847MOL0     C14252   9.483   3.801   8.421  0.3133  0.5716 -0.2864
  847MOL0     C14253   9.546   3.821   8.566  0.2549  0.4267  1.1125
  847MOL0    Cl14254   9.701   3.732   8.579 -0.2643  0.1256 -0.3220
  847MOL0     C14255   9.106   4.482   7.785 -0.9135 -0.2792  0.2177
  847MOL0     C14256   9.141   4.512   7.647 -0.9499 -0.0234 -0.2424
  847MOL0     O14257   9.461   4.508   7.480 -0.4324  0.4311  0.4931
  847MOL0     C14258   9.517   4.556   7.212 -0.4270  0.8464  0.2257
  847MOL0     C14259   9.539   4.604   7.081 -0.0725 -0.3780 -0.4853
  847MOL0     N14260   9.400   5.216   6.635  0.1134  0.3843 -0.1694
  847MOL0     N14261   9.370   5.288   6.534  0.5980  0.1960 -0.6169
  847MOL0     C14262   8.452   5.070   6.302 -0.4970  1.5134 -0.5341
  847MOL0     C14263   8.331   5.088   6.367  0.3580  0.9455  0.2565
  847MOL0     C14264   8.045   5.214   6.716  0.1740  0.0826  0.4960
  847MOL0     C14265   8.047   5.107   6.805 -0.2043 -1.0149 -0.6177
  847MOL0     C14266   7.934   5.079   6.880 -0.0877 -0.6302 -0.1745
  847MOL0     C14267   7.821   5.157   6.870 -0.4249 -0.0391 -0.4786
  847MOL0     O14268   7.710   5.133   6.943 -0.4817 -0.0584 -0.2738
  847MOL0     C14269   7.676   4.995   6.957  0.2756 -0.4816  0.3505
  847MOL0     C14270   7.698   4.930   7.106 -0.0160  0.3806 -0.3330
  847MOL0     C14271   7.637   5.029   7.209 -0.2865  0.3695  1.1388
  847MOL0     C14272   7.601   4.977   7.341 -0.4592 -0.6037 -0.2093
  847MOL0     C14273   7.598   5.095   7.430  0.4625  0.9048 -0.3100
  847MOL0     C14274   7.613   5.189   7.501  0.7122 -1.1413  0.4452
  847MOL0     C14275   7.824   5.269   6.799 -0.3667  0.7065  0.6287
  847MOL0     C14276   7.936   5.298   6.713  0.0539  1.3137 -0.3241
  847MOL0     C14277   7.916   5.415   6.625  0.5349 -0.5188  0.7199
  847MOL0     H14278   8.444   5.134   6.681  0.4732  1.7023 -0.8582
  847MOL0     H14279   8.670   5.079   6.557  1.8863  0.2853 -3.1553
  847MOL0     H14280   8.827   5.149   6.372  1.8755 -0.2386 -1.9116
  847MOL0     H14281   8.828   4.974   6.442 -0.4086 -0.4965  0.9979
  847MOL0     H14282   8.879   4.894   6.235  0.4214  0.0111  0.3616
  847MOL0     H14283   9.023   4.978   6.286 -0.2815  4.0025  3.0762
  847MOL0     H14284   8.903   5.195   6.162 -1.5567 -0.1782  0.8804
  847MOL0     H14285   8.836   5.072   6.067 -0.4809  2.3053  0.4818
  847MOL0     H14286   9.122   5.027   6.108  2.3541  1.9437 -1.0992
  847MOL0     H14287   9.039   5.025   5.954  4.9741 -2.2889 -0.3124
  847MOL0     H14288   9.132   5.204   5.908 -0.5996 -0.6541  0.3932
  847MOL0     H14289   9.018   5.286   6.010 -0.5014 -1.1784 -1.2290
  847MOL0     H14290   9.307   5.231   6.043 -0.6179 -3.0361  2.4143
  847MOL0     H14291   9.233   5.381   6.055  2.0832 -0.1835 -0.9782
  847MOL0     H14292   9.161   5.161   6.261 -4.2342  1.9027  0.9307
  847MOL0     H14293   9.139   5.326   6.280  1.1568 -0.2117 -1.2092
  847MOL0     H14294   9.418   5.199   6.231 -0.2569 -0.7442 -1.1646
  847MOL0     H14295   9.390   5.361   6.296  1.3777 -0.2451  0.6282
  847MOL0     H14296   9.348   4.992   6.399  1.1592 -1.2649  0.4418
  847MOL0     H14297   9.382   4.981   6.777 -0.1483 -0.3280 -0.2396
  847MOL0     H14298   9.373   4.882   6.628 -3.5854  3.0988 -0.4121
  847MOL0     H14299   9.624   4.976   6.601  0.6230  0.0292  0.1637
  847MOL0     H14300   9.606   5.019   6.773  1.0497 -0.4548 -1.2415
  847MOL0     H14301   9.730   4.817   6.702  0.4321 -0.8764 -0.3018
  847MOL0     H14302   9.572   4.745   6.646 -2.6083  0.7124  1.7939
  847MOL0     H14303   9.659   4.810   6.923  1.6382  1.0820 -1.4688
  847MOL0     H14304   9.642   4.653   6.836 -0.9941  0.6004 -0.6426
  847MOL0     H14305   9.234   4.729   7.020  1.5644 -0.6392 -2.2753
  847MOL0     H14306   9.180   4.617   7.221 -0.5831 -2.4505 -1.4018
  847MOL0     H14307   9.289   4.223   7.550 -1.8639 -0.1358 -0.2469
  847MOL0     H14308   9.252   4.166   7.755 -2.3154 -0.2343  0.7155
  847MOL0     H14309   9.271   4.412   8.034  0.2095  0.8892 -0.1830
  847MOL0     H14310   9.105   4.473   8.055  2.6037  1.5993  0.0264
  847MOL0     H14311   9.152   4.361   8.263 -2.8595 -0.0240 -0.7637
  847MOL0     H14312   9.089   4.224   8.172 -1.0099  0.9294 -1.9288
  847MOL0     H14313   9.328   4.169   8.101  3.2267 -5.0027  2.2914
  847MOL0     H14314   9.387   4.287   8.214  0.9252  0.4944 -1.6246
  847MOL0     H14315   9.205   4.063   8.295  0.1810 -0.0327  0.0059
  847MOL0     H14316   9.262   4.165   8.421 -2.9882 -1.6901 -0.3135
  847MOL0     H14317   9.494   4.077   8.391  1.1978 -0.1233  0.3549
  847MOL0     H14318   9.456   4.037   8.225 -1.6726 -2.9491 -0.8863
  847MOL0     H14319   9.309   3.914   8.474 -1.0879 -1.9923 -0.4854
  847MOL0     H14320   9.300   3.867   8.316 -1.5600  0.5019  0.8865
  847MOL0     H14321   9.566   3.816   8.352  0.7494  0.2321  0.1608
  847MOL0     H14322   9.449   3.699   8.401  0.6918  0.6130 -1.2194
  847MOL0     H14323   9.559   3.926   8.594  1.4705 -0.2961  3.5239
  847MOL0     H14324   9.470   3.780   8.632  0.4861  0.5305  1.4422
  847MOL0     H14325   9.052   4.535   7.863 -3.0485 -2.3111  0.2403
  847MOL0     H14326   9.105   4.605   7.605  0.6228  1.5492  1.7104
  847MOL0     H14327   9.609   4.527   7.262 -0.0671  0.5031 -0.6072
  847MOL0     H14328   9.638   4.607   7.035  0.9367 -0.3208  1.5934
  847MOL0     H14329   8.450   5.040   6.197  0.4586 -2.8097  0.4571
  847MOL0     H14330   8.242   5.076   6.306 -2.7292  2.7149  3.9643
  847MOL0     H14331   8.120   5.027   6.802  1.0981  0.0979 -4.2532
  847MOL0     H14332   7.924   4.987   6.935 -2.3039  0.3779  1.2672
  847MOL0     H14333   7.705   4.923   6.880 -0.2939 -0.8873  0.5017
  847MOL0     H14334   7.570   5.015   6.937  0.1667  3.3174  3.4764
  847MOL0     H14335   7.802   4.906   7.132  0.1495  2.2116  0.8326
  847MOL0     H14336   7.644   4.835   7.111  0.8814 -0.1360 -0.2905
  847MOL0     H14337   7.551   5.081   7.166  0.9772  0.7955 -1.0635
  847MOL0     H14338   7.717   5.103   7.226 -4.1328  4.4391  3.6073
  847MOL0     H14339   7.503   4.930   7.329 -2.0935  2.2576  0.7409
  847MOL0     H14340   7.676   4.905   7.375  1.7230  1.6723  0.1156
  847MOL0     H14341   7.623   5.282   7.554  2.4660  0.1016 -1.8551
  847MOL0     H14342   7.736   5.330   6.813 -2.0399 -2.0001  2.9704
  847MOL0     H14343   7.840   5.406   6.546  2.0482  0.9742 -1.0030
  847MOL0     H14344   7.878   5.503   6.677 -3.4261 -0.6658 -1.5164
  847MOL0     H14345   7.999   5.452   6.564 -1.4691  2.4075 -0.4441
  848MOL0     O14346   6.269   9.527   9.317 -0.0076  0.3393 -0.0343
  848MOL0     C14347   6.289   9.594   9.219 -1.0253  0.0940 -0.3937
  848MOL0     O14348   6.263   9.728   9.206  0.5029  0.4944  0.0890
  848MOL0     C14349   6.212   9.812   9.309 -1.3614  0.7333 -0.4192
  848MOL0     C14350   6.149   9.924   9.274 -0.6452  0.5216  0.2044
  848MOL0     C14351   6.096  10.017   9.360  0.3842  0.0085  0.5199
  848MOL0     C14352   6.132  10.012   9.493 -0.0603 -0.7123  0.2621
  848MOL0     O14353   6.093  10.103   9.593 -0.3806  0.2911  0.3241
  848MOL0     C14354   5.997  10.206   9.551  0.1314  0.4596 -0.3034
  848MOL0     C14355   5.957  10.295   9.663 -0.7633  0.7233  1.0761
  848MOL0     C14356   5.806  10.347   9.638 -0.4957  0.4549  0.4902
  848MOL0     C14357   5.782  10.436   9.757  0.4244 -0.8330  0.0302
  848MOL0     C14358   5.643  10.502   9.746 -0.9238 -1.0874  0.2402
  848MOL0     C14359   5.594  10.571   9.872  0.7561 -0.9914 -0.7072
  848MOL0     C14360   5.445  10.622   9.869 -1.2985 -0.0782 -0.4051
  848MOL0     C14361   5.407  10.692  10.002  0.2549  0.8183  0.2485
  848MOL0     N14362   5.254  10.713  10.014  0.8303 -0.8338 -0.3936
  848MOL0     C14363   5.181  10.665  10.127  0.0666  0.3810  0.4303
  848MOL0     C14364   5.075  10.739  10.133 -0.0916 -1.2227  0.0706
  848MOL0     C14365   4.955  10.720  10.232 -0.4292  0.4092  0.2120
  848MOL0     C14366   4.833  10.649  10.155 -0.4381  0.4779 -0.6665
  848MOL0     C14367   4.719  10.608  10.248 -0.4163 -0.6837  1.0633
  848MOL0     C14368   4.595  10.530  10.193 -0.8288  0.0747  0.5062
  848MOL0     O14369   4.510  10.458  10.285 -0.3979  0.0900  0.3808
  848MOL0     C14370   4.530  10.322  10.270 -0.7501 -0.6796 -0.5837
  848MOL0     C14371   4.602  10.258  10.376  0.0622  0.1352 -0.4042
  848MOL0     C14372   4.595  10.113  10.390 -0.4880 -0.8986 -0.5189
  848MOL0     C14373   4.525  10.042  10.299  1.0103  0.0800  0.3777
  848MOL0     C14374   4.532   9.897  10.286  0.2927  0.1474  0.3155
  848MOL0     O14375   4.444   9.832  10.201 -0.5958 -1.0699  0.3480
  848MOL0     C14376   4.424   9.699  10.201 -0.5721  0.2827 -0.4692
  848MOL0     C14377   4.347   9.637  10.095 -0.7404 -0.5057  1.0693
  848MOL0     C14378   4.311   9.506  10.078 -0.0078 -0.6215  1.1086
  848MOL0     C14379   4.357   9.417  10.167 -0.2432 -0.1756  0.0004
  848MOL0     O14380   4.345   9.279  10.159  0.0828  1.0495  0.5397
  848MOL0     C14381   4.298   9.212  10.040 -0.1339  1.3316  0.2473
  848MOL0     C14382   4.301   9.062  10.065  0.4826  0.7315 -0.2902
  848MOL0     C14383   4.223   8.995   9.951 -0.0657 -0.3729 -0.3165
  848MOL0     C14384   4.229   8.844   9.968 -0.3524  0.2036  0.1688
  848MOL0     C14385   4.194   8.774   9.834  0.4748 -1.0660  0.1024
  848MOL0     C14386   4.198   8.614   9.853 -0.0352  0.7348  0.3085
  848MOL0     C14387   4.347   8.572   9.880 -0.0529  0.3739  0.6347
  848MOL0     C14388   4.378   8.424   9.852  0.3945 -0.2828  0.0100
  848MOL0    Cl14389   4.271   8.320   9.966 -0.0689 -0.3410  0.0883
  848MOL0     C14390   4.413   9.462  10.290  0.1291  0.3085  0.6656
  848MOL0     C14391   4.447   9.602  10.307 -0.3122 -0.8275 -0.1724
  848MOL0     O14392   4.615   9.849  10.360  0.2431 -0.1782  0.0234
  848MOL0     C14393   4.450  10.105  10.195 -0.2202 -0.2841 -1.1501
  848MOL0     C14394   4.449  10.243  10.190 -0.0616  0.3774 -0.1145
  848MOL0     N14395   5.076  10.840  10.036 -0.3833 -1.1295  0.1279
  848MOL0     N14396   5.189  10.832   9.980 -0.0532 -0.5295  0.9654
  848MOL0     C14397   6.223   9.926   9.535  0.2476  0.6625  0.3101
  848MOL0     C14398   6.256   9.820   9.452  0.6700  0.0318  0.1660
  848MOL0     C14399   6.340   9.525   9.094 -0.8048 -0.1479 -0.1612
  848MOL0     C14400   6.335   9.604   8.972  0.1417 -0.0978 -0.5068
  848MOL0     C14401   6.368   9.546   8.851 -0.1638  0.3702  0.1071
  848MOL0     C14402   6.395   9.410   8.840 -0.8433 -1.3518  0.3821
  848MOL0     O14403   6.410   9.364   8.712 -0.8999  0.5784 -0.0510
  848MOL0     C14404   6.350   9.237   8.667 -0.0441 -0.7691  0.6695
  848MOL0     C14405   6.438   9.190   8.560  0.3017  0.2369  0.5152
  848MOL0     C14406   6.555   9.114   8.625  0.4790 -0.1188  0.4264
  848MOL0     C14407   6.663   9.068   8.519 -0.3339  0.5951  0.8350
  848MOL0     C14408   6.733   9.179   8.458 -1.0145 -1.7332  1.5148
  848MOL0     C14409   6.769   9.288   8.407 -0.0991  0.5130  0.1028
  848MOL0     C14410   6.407   9.337   8.961  0.5031  1.3172 -0.6785
  848MOL0     C14411   6.384   9.395   9.086  0.4069 -0.2820  0.3272
  848MOL0     C14412   6.444   9.324   9.200 -0.4468 -0.2499  0.6170
  848MOL0     H14413   6.106   9.939   9.175  0.3150  1.4905 -0.0943
  848MOL0     H14414   6.033  10.097   9.321 -0.8719 -0.9876  0.4756
  848MOL0     H14415   6.041  10.277   9.480 -0.3680 -1.3790 -2.5879
  848MOL0     H14416   5.910  10.154   9.510  0.1725  0.7568 -0.7744
  848MOL0     H14417   6.032  10.372   9.683  0.6665  0.2483 -1.9477
  848MOL0     H14418   5.958  10.228   9.750 -1.3266 -1.4991 -0.5341
  848MOL0     H14419   5.736  10.268   9.613 -1.0872  0.8490  0.8835
  848MOL0     H14420   5.809  10.407   9.546 -0.2901 -3.5472 -2.3526
  848MOL0     H14421   5.771  10.372   9.844 -0.1020 -2.2003 -1.0107
  848MOL0     H14422   5.856  10.515   9.774  1.0824 -0.6695 -2.9501
  848MOL0     H14423   5.655  10.580   9.670 -0.8531 -2.2284 -0.9347
  848MOL0     H14424   5.576  10.428   9.701 -3.3161  2.4242 -2.5757
  848MOL0     H14425   5.600  10.494   9.950 -1.2380 -0.9192 -0.4254
  848MOL0     H14426   5.658  10.657   9.891 -0.9867  1.2753 -4.1413
  848MOL0     H14427   5.381  10.534   9.874  0.0915 -1.0345  2.7216
  848MOL0     H14428   5.433  10.682   9.778  0.2126 -2.5614 -2.3893
  848MOL0     H14429   5.438  10.638  10.092 -1.2746  1.8235  1.4199
  848MOL0     H14430   5.444  10.794   9.996 -1.3509  1.5448  1.7489
  848MOL0     H14431   5.214  10.595  10.204  2.8486  1.2847  0.1740
  848MOL0     H14432   4.979  10.657  10.318 -2.3079 -1.2413 -0.4000
  848MOL0     H14433   4.925  10.819  10.268  0.1491  0.4881  0.4957
  848MOL0     H14434   4.814  10.721  10.074  3.0126 -2.4337 -4.5201
  848MOL0     H14435   4.880  10.562  10.108  1.1768  0.9936 -0.0860
  848MOL0     H14436   4.682  10.707  10.275  4.4045  1.3608  1.1278
  848MOL0     H14437   4.768  10.554  10.329  2.5093 -1.3507 -1.0098
  848MOL0     H14438   4.634  10.473  10.108 -1.1882  2.1626 -1.1300
  848MOL0     H14439   4.523  10.591  10.139  0.3137  0.5614 -0.5104
  848MOL0     H14440   4.650  10.322  10.449 -0.5641  0.3047 -0.1293
  848MOL0     H14441   4.644  10.067  10.475  0.2654  2.2227  0.9127
  848MOL0     H14442   4.326   9.710  10.017 -1.0361 -0.2768  1.3581
  848MOL0     H14443   4.262   9.467   9.989  0.4406  3.3072 -1.0847
  848MOL0     H14444   4.195   9.244  10.022  0.1295  0.2119 -4.8219
  848MOL0     H14445   4.353   9.244   9.951 -0.8130 -0.1011 -0.7313
  848MOL0     H14446   4.405   9.031  10.081  0.0833  0.5917  2.6088
  848MOL0     H14447   4.253   9.039  10.161 -0.9817  1.9457 -0.6966
  848MOL0     H14448   4.117   9.020   9.961 -0.1420 -0.6135 -0.5213
  848MOL0     H14449   4.258   9.031   9.854  2.1128  0.5765  0.7469
  848MOL0     H14450   4.155   8.805  10.039  0.4816 -0.6569  0.5963
  848MOL0     H14451   4.320   8.809  10.017 -0.8870 -4.1040 -1.5384
  848MOL0     H14452   4.262   8.802   9.753  0.4684  0.1698  0.4982
  848MOL0     H14453   4.094   8.803   9.801  0.8717 -0.1246 -0.2925
  848MOL0     H14454   4.141   8.597   9.945  0.2346  0.6073  0.4525
  848MOL0     H14455   4.144   8.563   9.773  2.6210 -0.5454 -0.7847
  848MOL0     H14456   4.396   8.588   9.976  4.8722  0.4383 -1.5825
  848MOL0     H14457   4.408   8.637   9.815  3.6714  1.1316  4.4270
  848MOL0     H14458   4.334   8.411   9.752 -0.5280 -2.5605  0.6435
  848MOL0     H14459   4.487   8.413   9.857  0.7225  2.5187  1.0499
  848MOL0     H14460   4.447   9.379  10.352 -0.6260 -2.8961 -2.7908
  848MOL0     H14461   4.497   9.629  10.400 -0.3798  1.1889 -0.6730
  848MOL0     H14462   4.404  10.048  10.114  1.6475 -1.8878 -1.1391
  848MOL0     H14463   4.389  10.295  10.116 -0.4911 -1.3469 -1.0462
  848MOL0     H14464   6.262   9.918   9.636 -1.3519  0.5536  0.9563
  848MOL0     H14465   6.331   9.747   9.482 -0.7766 -0.4694  2.9023
  848MOL0     H14466   6.331   9.712   8.980 -1.9612 -0.2303  1.1649
  848MOL0     H14467   6.375   9.601   8.757 -1.0002 -1.1473 -0.8960
  848MOL0     H14468   6.251   9.255   8.624  0.4243  0.9888  0.2368
  848MOL0     H14469   6.336   9.161   8.744  0.8577 -1.2851  0.3353
  848MOL0     H14470   6.479   9.280   8.513 -0.2873  0.6647  0.8158
  848MOL0     H14471   6.390   9.128   8.484 -0.7738  3.4363 -1.5709
  848MOL0     H14472   6.506   9.031   8.676  0.4931  0.2243  1.0078
  848MOL0     H14473   6.606   9.183   8.694  0.5220 -0.6975  0.9801
  848MOL0     H14474   6.716   8.988   8.571 -3.1894 -2.3568 -0.4262
  848MOL0     H14475   6.620   9.023   8.429  0.5131 -1.2099  1.2887
  848MOL0     H14476   6.791   9.389   8.377 -0.1041  0.8677  1.2237
  848MOL0     H14477   6.443   9.235   8.950  1.1927  1.7676 -3.1162
  848MOL0     H14478   6.512   9.245   9.167  0.6639  1.4776 -1.4407
  848MOL0     H14479   6.507   9.390   9.260  1.6612  2.1536 -3.7246
  848MOL0     H14480   6.361   9.278   9.254 -2.1976  1.5904 -0.3638
  849MOL0     O14481   1.805   2.862   3.731 -0.0202  0.8941  0.1864
  849MOL0     C14482   1.773   2.852   3.855  0.3105 -0.6075  1.5858
  849MOL0     O14483   1.796   2.948   3.950 -0.1055  0.1270  0.2897
  849MOL0     C14484   1.825   3.079   3.914  0.6066 -0.0318  0.1964
  849MOL0     C14485   1.752   3.154   3.813  0.0766 -0.6421  0.4543
  849MOL0     C14486   1.769   3.296   3.807  0.8995 -0.6723 -0.2131
  849MOL0     C14487   1.856   3.360   3.905 -0.5051 -0.1429 -0.6908
  849MOL0     O14488   1.882   3.496   3.892  0.0805 -0.1553 -0.0713
  849MOL0     C14489   1.961   3.534   3.770  0.4457  0.3664  0.8823
  849MOL0     C14490   1.990   3.675   3.751  0.1465  0.0139  0.6291
  849MOL0     C14491   2.011   3.747   3.883 -0.1418  0.2856 -0.1017
  849MOL0     C14492   2.062   3.890   3.856  0.7698 -0.0930 -0.1727
  849MOL0     C14493   2.049   3.977   3.982  0.2229 -0.6959  0.9834
  849MOL0     C14494   2.151   4.087   3.963 -0.0534  0.0868 -0.3108
  849MOL0     C14495   2.176   4.173   4.086  0.9611 -0.5820  0.1807
  849MOL0     C14496   2.032   4.208   4.163 -0.6075 -0.9000 -0.0247
  849MOL0     N14497   2.063   4.311   4.262 -0.5699  0.0388  0.8780
  849MOL0     C14498   2.119   4.288   4.387  0.2018  0.1128  0.7738
  849MOL0     C14499   2.129   4.414   4.436 -0.3630 -0.3302  0.4283
  849MOL0     C14500   2.203   4.444   4.571 -0.2523  0.3434 -0.7281
  849MOL0     C14501   2.340   4.502   4.550  0.1981  0.0645  0.9626
  849MOL0     C14502   2.428   4.495   4.677  0.2148 -0.8407 -0.3059
  849MOL0     C14503   2.488   4.358   4.693  0.5497  0.4511 -0.1459
  849MOL0     O14504   2.393   4.255   4.730  0.0476  0.0638  0.9843
  849MOL0     C14505   2.411   4.122   4.711 -0.5254 -0.5724  0.3025
  849MOL0     C14506   2.534   4.067   4.665  0.8270 -0.7388  0.5592
  849MOL0     C14507   2.551   3.924   4.690  0.8061  0.1622 -0.0046
  849MOL0     C14508   2.448   3.847   4.730  0.3524  0.6734  1.1322
  849MOL0     C14509   2.462   3.697   4.736 -0.0431  0.2615  0.8126
  849MOL0     O14510   2.585   3.633   4.717  0.4476  0.1283  0.0983
  849MOL0     C14511   2.590   3.501   4.721 -0.5558  0.0538 -0.2420
  849MOL0     C14512   2.530   3.411   4.632 -0.2526  0.6933 -0.1452
  849MOL0     C14513   2.530   3.274   4.662 -1.1176  0.4448  1.0985
  849MOL0     C14514   2.601   3.221   4.765  0.7390 -0.3285  0.1846
  849MOL0     O14515   2.601   3.090   4.795 -0.1402  1.1585  0.1824
  849MOL0     C14516   2.532   2.996   4.701  0.3437 -0.3687 -0.2873
  849MOL0     C14517   2.534   2.854   4.744 -0.4014  0.6110 -0.0774
  849MOL0     C14518   2.501   2.747   4.635 -1.2441 -0.2677 -0.5322
  849MOL0     C14519   2.349   2.740   4.614  0.0743 -0.5552 -0.3153
  849MOL0     C14520   2.293   2.668   4.498  0.1318 -0.6776  0.1870
  849MOL0     C14521   2.137   2.678   4.493 -0.4635  0.0576 -0.0675
  849MOL0     C14522   2.065   2.565   4.415 -0.7566  0.5612 -0.1863
  849MOL0     C14523   1.921   2.594   4.449  0.2910  0.1260  0.1474
  849MOL0    Cl14524   1.823   2.455   4.386  0.3754  0.2271  0.2427
  849MOL0     C14525   2.667   3.311   4.849  0.8218 -1.4090 -0.0631
  849MOL0     C14526   2.666   3.451   4.824  0.5311 -0.2884 -0.9605
  849MOL0     O14527   2.355   3.636   4.751 -0.2637 -0.1093 -0.8575
  849MOL0     C14528   2.317   3.905   4.758  0.0578 -0.3910  0.7840
  849MOL0     C14529   2.299   4.045   4.752  0.7062 -0.5295  0.2682
  849MOL0     N14530   2.103   4.508   4.339  0.4034  0.4965  0.3986
  849MOL0     N14531   2.052   4.441   4.239  0.1418  0.2266 -0.2834
  849MOL0     C14532   1.917   3.291   4.006 -0.9334  0.2529 -0.8014
  849MOL0     C14533   1.905   3.149   4.014  0.2747 -0.2984  0.5091
  849MOL0     C14534   1.721   2.721   3.905 -0.7372 -0.5314 -0.1609
  849MOL0     C14535   1.687   2.712   4.047 -0.3878 -0.2868  0.1281
  849MOL0     C14536   1.635   2.593   4.088 -0.0919  0.2632 -0.4123
  849MOL0     C14537   1.612   2.477   4.013  0.4880  0.6100  0.3949
  849MOL0     O14538   1.565   2.356   4.052  0.4002  0.6102 -0.5737
  849MOL0     C14539   1.613   2.315   4.184  1.0561 -0.2292 -0.4530
  849MOL0     C14540   1.594   2.166   4.203  0.7813  0.4065 -0.1417
  849MOL0     C14541   1.662   2.088   4.094  0.1141  0.6936  1.3927
  849MOL0     C14542   1.684   1.938   4.132  0.5832  0.8074  0.0743
  849MOL0     C14543   1.556   1.865   4.113  0.3440  0.1773  0.3718
  849MOL0     C14544   1.438   1.839   4.093  0.2472 -0.3602  0.4674
  849MOL0     C14545   1.630   2.496   3.871 -0.3742 -1.1733  0.3985
  849MOL0     C14546   1.681   2.612   3.815 -0.5875 -0.3130 -0.0790
  849MOL0     C14547   1.701   2.617   3.664  0.8364  0.4837 -0.1166
  849MOL0     H14548   1.685   3.110   3.741  2.7409 -3.1373 -0.6662
  849MOL0     H14549   1.734   3.359   3.726 -0.0464 -0.0149  0.6884
  849MOL0     H14550   2.049   3.469   3.764 -0.6322 -1.1971  1.3086
  849MOL0     H14551   1.899   3.501   3.685 -0.7100  0.3552  1.7088
  849MOL0     H14552   1.910   3.726   3.698  1.2494  0.6492 -0.4859
  849MOL0     H14553   2.081   3.681   3.690  0.0962  2.0185  0.6615
  849MOL0     H14554   2.085   3.701   3.949 -0.6573  1.4941  1.4068
  849MOL0     H14555   1.921   3.765   3.943 -1.0220  3.8111 -2.1392
  849MOL0     H14556   2.165   3.893   3.817  0.3341  0.1687 -1.3693
  849MOL0     H14557   2.001   3.942   3.781 -1.4909 -1.1387  0.8483
  849MOL0     H14558   1.948   4.018   3.985  1.0737  1.6536  0.1002
  849MOL0     H14559   2.075   3.922   4.073 -1.5343  0.1868  2.0711
  849MOL0     H14560   2.251   4.055   3.931 -0.9372  1.2294 -4.9452
  849MOL0     H14561   2.126   4.150   3.877  1.4101 -0.7470 -1.3961
  849MOL0     H14562   2.218   4.265   4.045 -0.2067  0.9951  2.2852
  849MOL0     H14563   2.246   4.133   4.159  1.6711  0.8174  0.3049
  849MOL0     H14564   1.967   4.244   4.083 -1.2839  0.3388  1.0588
  849MOL0     H14565   1.986   4.118   4.206 -0.7030  0.6168  3.3253
  849MOL0     H14566   2.153   4.199   4.438  0.3642  1.8877  4.0120
  849MOL0     H14567   2.149   4.519   4.628  0.1288  3.4572 -4.1064
  849MOL0     H14568   2.207   4.356   4.637 -0.4353  1.2093  0.4792
  849MOL0     H14569   2.386   4.453   4.463 -0.9298  1.3142 -0.3961
  849MOL0     H14570   2.333   4.609   4.530 -0.4786 -0.3053 -0.9931
  849MOL0     H14571   2.372   4.514   4.769 -0.5238 -0.4290 -0.8302
  849MOL0     H14572   2.511   4.566   4.669  1.2347 -1.8844  0.5650
  849MOL0     H14573   2.566   4.363   4.769  2.5319  1.5948 -2.1566
  849MOL0     H14574   2.542   4.335   4.601  1.4613 -0.3015  0.5530
  849MOL0     H14575   2.620   4.124   4.633  0.2965 -1.1214 -1.7002
  849MOL0     H14576   2.650   3.881   4.696  1.6996  2.0599 -0.4775
  849MOL0     H14577   2.477   3.443   4.543  1.9002 -1.5616 -2.4390
  849MOL0     H14578   2.469   3.217   4.592 -1.4850 -1.0565  2.5637
  849MOL0     H14579   2.433   3.020   4.663 -0.1308 -0.4277  0.8667
  849MOL0     H14580   2.599   2.999   4.614  1.6323  0.3089  0.6815
  849MOL0     H14581   2.635   2.839   4.783 -0.6917  0.2917  0.5571
  849MOL0     H14582   2.463   2.851   4.827 -0.9146  1.6151 -0.4670
  849MOL0     H14583   2.538   2.775   4.536 -1.6029 -1.0131 -0.8757
  849MOL0     H14584   2.548   2.653   4.663  0.6070  0.5276 -0.7500
  849MOL0     H14585   2.319   2.843   4.595 -0.4281 -0.6729 -0.1869
  849MOL0     H14586   2.300   2.713   4.708 -0.8625  1.7474 -0.0878
  849MOL0     H14587   2.324   2.564   4.503  2.5153 -0.0597 -0.4512
  849MOL0     H14588   2.323   2.704   4.399 -0.0807  3.5827  1.4772
  849MOL0     H14589   2.103   2.667   4.596 -1.0852 -1.1906 -0.3861
  849MOL0     H14590   2.096   2.767   4.446 -3.9288 -1.7056 -0.7394
  849MOL0     H14591   2.093   2.465   4.448  1.4079  1.1397 -0.1701
  849MOL0     H14592   2.078   2.575   4.307  0.8728  2.7893  0.1497
  849MOL0     H14593   1.890   2.606   4.554 -0.4908 -0.3807 -0.0211
  849MOL0     H14594   1.871   2.679   4.402 -2.3799 -1.5690 -0.2655
  849MOL0     H14595   2.733   3.274   4.927 -0.2822  0.8387  2.1105
  849MOL0     H14596   2.739   3.515   4.873  2.0273 -2.9637  0.5608
  849MOL0     H14597   2.234   3.841   4.786  1.3391 -1.3526  2.6902
  849MOL0     H14598   2.202   4.081   4.786 -0.1898 -1.8270 -0.8118
  849MOL0     H14599   1.989   3.336   4.074  0.9624 -0.6027 -2.1619
  849MOL0     H14600   1.949   3.102   4.101 -1.7965 -0.8328  1.3196
  849MOL0     H14601   1.722   2.792   4.111  1.3247 -0.7816 -0.1386
  849MOL0     H14602   1.614   2.596   4.194 -1.6459  0.7266 -0.6958
  849MOL0     H14603   1.549   2.369   4.254 -1.1713 -0.4519 -2.1882
  849MOL0     H14604   1.720   2.339   4.184  0.9847  0.4780  2.6280
  849MOL0     H14605   1.486   2.150   4.199  0.9873 -1.6284  1.0325
  849MOL0     H14606   1.630   2.135   4.302 -1.9215  1.9626  1.4634
  849MOL0     H14607   1.758   2.127   4.060  1.4158 -1.2406  2.6346
  849MOL0     H14608   1.596   2.087   4.007 -0.6796  4.3913  1.7894
  849MOL0     H14609   1.764   1.910   4.062  0.4313  2.8601 -0.9962
  849MOL0     H14610   1.719   1.933   4.236  0.7652  1.7458  0.0667
  849MOL0     H14611   1.334   1.824   4.070  0.2984 -2.4694  1.3675
  849MOL0     H14612   1.616   2.415   3.801  1.3647 -0.8891 -0.3176
  849MOL0     H14613   1.803   2.637   3.630  1.0849 -0.6125 -0.0739
  849MOL0     H14614   1.662   2.526   3.617  0.6061 -0.0518  1.0879
  849MOL0     H14615   1.635   2.694   3.622 -2.2138 -1.5545  0.5589
  850MOL0     O14616   7.713   7.346   5.296  0.0751  0.8206 -0.1647
  850MOL0     C14617   7.681   7.444   5.233 -0.7066  0.5966  0.0328
  850MOL0     O14618   7.701   7.453   5.097 -0.7722  0.5391 -0.9476
  850MOL0     C14619   7.714   7.338   5.018 -0.0264 -0.1063  0.5310
  850MOL0     C14620   7.633   7.228   5.031 -0.5504 -0.5422  0.8768
  850MOL0     C14621   7.653   7.126   4.943 -0.0525  0.1078 -0.2631
  850MOL0     C14622   7.732   7.129   4.833 -1.4358 -1.0415  0.3089
  850MOL0     O14623   7.719   7.032   4.732  0.6766 -0.2261 -0.6247
  850MOL0     C14624   7.723   6.894   4.756  0.3925 -0.2449  0.2740
  850MOL0     C14625   7.707   6.816   4.621 -0.4432  0.3656  1.2227
  850MOL0     C14626   7.820   6.835   4.523  0.3026 -0.0403 -0.5204
  850MOL0     C14627   7.775   6.761   4.395 -0.5586  0.0302  0.2127
  850MOL0     C14628   7.896   6.744   4.302  0.8910 -0.6442  0.8125
  850MOL0     C14629   7.868   6.665   4.175  0.1148 -0.3031  0.0605
  850MOL0     C14630   7.774   6.539   4.191 -0.0509 -1.1486  0.4625
  850MOL0     C14631   7.763   6.463   4.059 -0.6725  0.0740  0.6961
  850MOL0     N14632   7.888   6.406   4.018 -0.0238  0.2909  1.1678
  850MOL0     C14633   7.947   6.449   3.907  0.3491 -0.2608  0.5033
  850MOL0     C14634   8.063   6.375   3.903 -0.6656  0.1511  0.0085
  850MOL0     C14635   8.159   6.368   3.791 -0.5046  0.6408 -0.3052
  850MOL0     C14636   8.138   6.264   3.676 -0.0922  1.1535  0.3679
  850MOL0     C14637   8.171   6.122   3.705  0.0166 -0.0262 -0.3219
  850MOL0     C14638   8.163   6.035   3.575  0.9868 -0.4198  0.0797
  850MOL0     O14639   8.278   6.033   3.507 -0.1704 -0.7831  0.2962
  850MOL0     C14640   8.276   6.000   3.373  0.0635 -0.1720  0.8787
  850MOL0     C14641   8.372   6.060   3.277 -1.1921  0.2798 -0.5920
  850MOL0     C14642   8.372   6.029   3.142 -0.4583  0.3579 -0.8113
  850MOL0     C14643   8.268   5.948   3.091  0.2074 -1.1422 -0.2816
  850MOL0     C14644   8.259   5.931   2.938 -0.3625 -0.2303 -0.1093
  850MOL0     O14645   8.193   5.829   2.890  0.1959  0.1667  0.1434
  850MOL0     C14646   8.180   5.802   2.758 -1.1580 -0.5116  1.2580
  850MOL0     C14647   8.053   5.811   2.704  0.7320 -0.9500 -0.1328
  850MOL0     C14648   8.036   5.795   2.558  1.4759 -0.2118 -0.5826
  850MOL0     C14649   8.139   5.794   2.470 -0.2850  1.2101  0.1018
  850MOL0     O14650   8.118   5.791   2.338 -0.0336 -0.0747  0.0962
  850MOL0     C14651   8.200   5.886   2.260  0.1404 -0.0177 -0.8604
  850MOL0     C14652   8.291   5.804   2.170 -0.5636  0.1377 -0.4171
  850MOL0     C14653   8.222   5.729   2.064  0.3658 -0.4171 -0.0460
  850MOL0     C14654   8.295   5.722   1.934  0.9126 -0.1041  0.3710
  850MOL0     C14655   8.210   5.675   1.818  0.4088 -1.2970 -0.4602
  850MOL0     C14656   8.273   5.732   1.689  0.5724  0.1922  0.3837
  850MOL0     C14657   8.191   5.708   1.562  0.1688  0.3981 -0.4606
  850MOL0     C14658   8.241   5.775   1.436 -0.6257 -0.2435  0.8823
  850MOL0    Cl14659   8.418   5.765   1.422 -0.0225  0.4261  0.0228
  850MOL0     C14660   8.266   5.787   2.533  0.5593 -0.0515  0.2669
  850MOL0     C14661   8.291   5.786   2.674  1.1594 -0.4377 -0.0555
  850MOL0     O14662   8.316   6.010   2.871 -0.7263 -0.1914 -0.3686
  850MOL0     C14663   8.177   5.894   3.184  0.6348  0.2735  0.0739
  850MOL0     C14664   8.174   5.920   3.318  0.4973 -0.6065 -0.0117
  850MOL0     N14665   8.072   6.300   4.024  0.0156 -0.1233 -0.1875
  850MOL0     N14666   7.961   6.312   4.086 -0.2233 -0.3786 -0.7547
  850MOL0     C14667   7.806   7.244   4.806  0.4307 -0.2221 -0.3943
  850MOL0     C14668   7.794   7.351   4.904 -0.2230 -0.2821 -0.0059
  850MOL0     C14669   7.655   7.581   5.300  0.7121  0.9431 -1.3588
  850MOL0     C14670   7.723   7.696   5.245 -0.8388  0.0932 -0.9554
  850MOL0     C14671   7.735   7.818   5.322 -0.1976 -0.6426  0.3058
  850MOL0     C14672   7.668   7.820   5.453 -0.6523  0.5248  0.8700
  850MOL0     O14673   7.687   7.925   5.541  0.9947 -0.0823 -0.3988
  850MOL0     C14674   7.775   8.034   5.513 -1.5224 -0.8915 -0.6751
  850MOL0     C14675   7.773   8.128   5.642 -0.0116  0.2123 -0.0139
  850MOL0     C14676   7.774   8.081   5.788  0.4964 -0.9845 -1.1581
  850MOL0     C14677   7.881   7.975   5.815 -0.0068  0.2045 -0.2314
  850MOL0     C14678   7.878   7.947   5.961 -0.2061  0.4424  0.0423
  850MOL0     C14679   7.870   7.905   6.075 -0.2715 -0.1654 -0.2456
  850MOL0     C14680   7.589   7.719   5.490 -0.2139  0.5464  0.4676
  850MOL0     C14681   7.582   7.601   5.417 -1.2590 -0.7528 -0.0610
  850MOL0     C14682   7.492   7.494   5.477  0.0475  0.4445  0.2528
  850MOL0     H14683   7.555   7.220   5.106 -2.6610 -0.3890 -1.1711
  850MOL0     H14684   7.585   7.042   4.936 -2.8597  2.3076 -1.7535
  850MOL0     H14685   7.809   6.854   4.811 -0.2110 -1.5745  0.3056
  850MOL0     H14686   7.637   6.856   4.813  0.1046 -0.3998 -0.2568
  850MOL0     H14687   7.616   6.846   4.567  1.0897  3.4488  0.0848
  850MOL0     H14688   7.699   6.712   4.652 -0.9471 -1.2224 -3.4777
  850MOL0     H14689   7.903   6.786   4.575 -1.4848  0.7292  3.4949
  850MOL0     H14690   7.833   6.943   4.512  0.4330 -0.0531 -0.4835
  850MOL0     H14691   7.746   6.661   4.428  2.3731 -1.1307 -0.3819
  850MOL0     H14692   7.701   6.821   4.342  0.8520  0.3925 -1.4473
  850MOL0     H14693   7.933   6.840   4.266  0.3428 -1.0383 -0.8797
  850MOL0     H14694   7.981   6.704   4.358  1.0532  0.4867  1.4064
  850MOL0     H14695   7.816   6.729   4.103 -0.3159  2.0228  2.3009
  850MOL0     H14696   7.959   6.624   4.130 -2.1185 -1.8862 -3.4218
  850MOL0     H14697   7.679   6.584   4.223  2.1072  2.2326  2.7542
  850MOL0     H14698   7.818   6.466   4.259  1.9746 -0.4353 -0.0209
  850MOL0     H14699   7.688   6.383   4.064  1.2999 -1.8905  0.1592
  850MOL0     H14700   7.725   6.532   3.984 -2.1535 -0.5052  0.8800
  850MOL0     H14701   7.898   6.516   3.837 -1.8519  0.7444  2.8354
  850MOL0     H14702   8.164   6.470   3.754  2.2514  1.0848  1.0352
  850MOL0     H14703   8.256   6.344   3.836  0.0327  0.4658 -1.5317
  850MOL0     H14704   8.031   6.274   3.655 -0.0149  2.8896  0.6841
  850MOL0     H14705   8.185   6.282   3.579 -2.1723 -0.8342 -1.1071
  850MOL0     H14706   8.102   6.090   3.784 -1.0843  0.9269 -0.8623
  850MOL0     H14707   8.274   6.110   3.740  0.2204 -0.3574 -1.0182
  850MOL0     H14708   8.082   6.074   3.512 -0.2907 -0.6134  1.5256
  850MOL0     H14709   8.132   5.933   3.601  0.3300 -0.3630 -0.4265
  850MOL0     H14710   8.455   6.121   3.311  2.0177 -1.9462 -3.7727
  850MOL0     H14711   8.459   6.065   3.088  1.3086 -0.5864  1.2089
  850MOL0     H14712   7.980   5.816   2.783  1.7173  2.2656  0.7152
  850MOL0     H14713   7.938   5.777   2.516  1.7825 -1.6729 -0.7243
  850MOL0     H14714   8.147   5.955   2.193  2.2423 -0.2545 -2.8960
  850MOL0     H14715   8.257   5.952   2.325  0.6137 -1.2139 -0.0221
  850MOL0     H14716   8.364   5.862   2.113 -1.7975  0.2075 -2.0234
  850MOL0     H14717   8.352   5.736   2.230 -0.7700 -1.2594 -1.7082
  850MOL0     H14718   8.198   5.631   2.106 -3.0551  0.2226 -0.1850
  850MOL0     H14719   8.125   5.777   2.046  1.1202 -0.0528 -4.4703
  850MOL0     H14720   8.378   5.651   1.932 -1.1324 -2.5999 -1.7567
  850MOL0     H14721   8.334   5.822   1.915 -0.4073  0.0280 -1.9475
  850MOL0     H14722   8.104   5.700   1.829 -0.1623 -2.4711 -2.6509
  850MOL0     H14723   8.215   5.566   1.818  0.7297 -1.2852 -0.2388
  850MOL0     H14724   8.294   5.839   1.699  0.1557  0.1880  1.3388
  850MOL0     H14725   8.364   5.671   1.685  0.3516 -0.3397  2.5639
  850MOL0     H14726   8.087   5.736   1.577 -0.5787 -2.7320  1.1529
  850MOL0     H14727   8.183   5.600   1.548 -0.0721 -0.0195  2.2716
  850MOL0     H14728   8.213   5.721   1.345  3.3470  2.6281 -2.4259
  850MOL0     H14729   8.208   5.879   1.426  0.0774 -0.1762 -1.3206
  850MOL0     H14730   8.349   5.770   2.465  0.1253 -0.6508 -0.1273
  850MOL0     H14731   8.386   5.789   2.726  0.7760  1.6479  0.6095
  850MOL0     H14732   8.104   5.822   3.147  2.1386 -2.6540  2.3982
  850MOL0     H14733   8.093   5.881   3.378 -1.2728 -0.7559 -2.3485
  850MOL0     H14734   7.868   7.244   4.718  0.8942  1.0477 -0.0878
  850MOL0     H14735   7.831   7.452   4.887 -1.5563  0.6182  1.9971
  850MOL0     H14736   7.779   7.679   5.153  4.5300  1.7871  1.5627
  850MOL0     H14737   7.801   7.895   5.284 -2.4133  2.1061  1.6606
  850MOL0     H14738   7.740   8.097   5.431  1.1422  1.5376 -0.0982
  850MOL0     H14739   7.878   8.001   5.500 -0.7228  0.5666  1.3701
  850MOL0     H14740   7.690   8.198   5.630  0.1823  0.7100  1.3135
  850MOL0     H14741   7.863   8.187   5.621 -0.5340  0.7530 -0.7713
  850MOL0     H14742   7.679   8.036   5.817  0.1440  0.6991  0.4232
  850MOL0     H14743   7.797   8.177   5.835  0.1514 -0.7872 -1.3906
  850MOL0     H14744   7.873   7.885   5.754 -0.8352  2.1982 -3.2521
  850MOL0     H14745   7.981   8.011   5.789 -0.8129  2.2095 -0.7537
  850MOL0     H14746   7.861   7.862   6.173 -1.9211  1.0070  0.1622
  850MOL0     H14747   7.537   7.744   5.582 -0.6705  0.6392  0.1853
  850MOL0     H14748   7.521   7.449   5.573  1.2760 -2.0976 -1.2128
  850MOL0     H14749   7.397   7.541   5.504 -0.1234 -0.4246  1.2403
  850MOL0     H14750   7.468   7.410   5.411 -3.9991  1.4647  0.1668
  851MOL0     O14751   0.664  10.634   7.208 -0.4799 -0.3345 -1.4842
  851MOL0     C14752   0.620  10.527   7.175  0.2814 -0.7612  0.6581
  851MOL0     O14753   0.616  10.486   7.042 -0.1776  0.0040 -1.0746
  851MOL0     C14754   0.709  10.539   6.960  0.5361 -0.0578  0.4493
  851MOL0     C14755   0.686  10.660   6.905  0.3264 -0.5253  0.5340
  851MOL0     C14756   0.772  10.721   6.803 -0.5561  0.3319  0.1983
  851MOL0     C14757   0.883  10.644   6.756 -0.6029 -0.5915  0.3133
  851MOL0     O14758   0.968  10.709   6.658  0.1435  0.3087  0.3357
  851MOL0     C14759   1.080  10.621   6.609  0.2305  0.2717 -1.0739
  851MOL0     C14760   1.146  10.711   6.504  0.0570  0.3171 -0.0472
  851MOL0     C14761   1.293  10.663   6.483 -0.1370 -1.2329 -0.2694
  851MOL0     C14762   1.308  10.513   6.431  0.5412  0.3925 -0.1233
  851MOL0     C14763   1.453  10.470   6.438  0.0251  1.1932  0.1280
  851MOL0     C14764   1.483  10.316   6.414  0.2909  0.2396 -0.7460
  851MOL0     C14765   1.459  10.294   6.260 -0.0686  0.4521 -0.6716
  851MOL0     C14766   1.573  10.353   6.177  0.3198 -0.2566 -0.4450
  851MOL0     N14767   1.586  10.278   6.049  0.3116  0.0325 -0.6581
  851MOL0     C14768   1.557  10.327   5.920 -0.2875  1.0747 -0.3272
  851MOL0     C14769   1.618  10.232   5.842  0.3326 -0.3249  0.0953
  851MOL0     C14770   1.624  10.220   5.690 -0.1705  0.3283  0.6176
  851MOL0     C14771   1.599  10.357   5.623 -0.0677 -0.8521  0.8391
  851MOL0     C14772   1.612  10.327   5.474  0.0613 -0.5068  0.3315
  851MOL0     C14773   1.572  10.451   5.392 -0.3260 -0.0273  0.3430
  851MOL0     O14774   1.615  10.427   5.257 -0.2197  0.3536 -0.1885
  851MOL0     C14775   1.601  10.534   5.169 -0.2258 -0.5832 -0.2053
  851MOL0     C14776   1.498  10.623   5.158  0.0766  0.7598 -0.0554
  851MOL0     C14777   1.499  10.725   5.064 -0.0373 -0.4603 -0.0516
  851MOL0     C14778   1.614  10.744   4.983 -0.0157 -0.0152 -0.3442
  851MOL0     C14779   1.627  10.854   4.892 -0.1574  0.5201 -0.1149
  851MOL0     O14780   1.532  10.948   4.913 -0.3567  0.3447  0.1156
  851MOL0     C14781   1.496  11.058   4.832  0.1459 -0.0439  0.5904
  851MOL0     C14782   1.586  11.128   4.749  1.2228  0.5704  0.4989
  851MOL0     C14783   1.551  11.241   4.686  0.3889 -0.1586  0.1143
  851MOL0     C14784   1.422  11.295   4.688  1.1927  0.4677 -0.1545
  851MOL0     O14785   1.378  11.411   4.636  0.5764  1.1501  0.7852
  851MOL0     C14786   1.464  11.487   4.548  0.3981  0.2719 -0.6375
  851MOL0     C14787   1.533  11.601   4.624 -0.1537  0.1166 -0.5049
  851MOL0     C14788   1.610  11.705   4.530  0.4358  0.7883 -0.0216
  851MOL0     C14789   1.709  11.786   4.605 -0.2284 -0.3368  0.7741
  851MOL0     C14790   1.639  11.882   4.711 -0.5435 -0.0046 -0.3269
  851MOL0     C14791   1.737  11.923   4.827 -0.6602 -0.0140  0.0553
  851MOL0     C14792   1.672  12.036   4.911 -0.4796  0.6267  0.1830
  851MOL0     C14793   1.755  12.048   5.042  0.6938 -0.0467 -0.3850
  851MOL0    Cl14794   1.763  11.892   5.144 -0.2917  0.2539 -0.2269
  851MOL0     C14795   1.330  11.217   4.767  0.0832 -0.3616  0.2769
  851MOL0     C14796   1.361  11.100   4.830  0.6592  0.4880 -0.4024
  851MOL0     O14797   1.697  10.845   4.787  0.3291 -0.4205 -0.5681
  851MOL0     C14798   1.712  10.644   4.988  0.6601 -0.0154  0.3990
  851MOL0     C14799   1.716  10.550   5.083  0.1663 -1.0159 -0.6339
  851MOL0     N14800   1.662  10.123   5.920 -0.3052  0.7248  0.4658
  851MOL0     N14801   1.637  10.154   6.044  0.4896  0.3851  0.1194
  851MOL0     C14802   0.908  10.521   6.816 -0.9447  0.6420  1.0677
  851MOL0     C14803   0.818  10.473   6.911  0.7089  0.4493  0.3409
  851MOL0     C14804   0.559  10.442   7.277 -0.9281 -0.6834  1.0879
  851MOL0     C14805   0.587  10.474   7.416  0.0512  0.0931  0.5266
  851MOL0     C14806   0.523  10.398   7.515 -0.4400 -0.4338 -0.7712
  851MOL0     C14807   0.441  10.289   7.490 -0.8696  0.2748  0.4353
  851MOL0     O14808   0.398  10.197   7.582 -0.7340 -0.0884  0.0983
  851MOL0     C14809   0.322  10.267   7.683  0.5778 -0.6360  0.0296
  851MOL0     C14810   0.227  10.166   7.743 -0.9301  0.2827 -0.7145
  851MOL0     C14811   0.106  10.241   7.800 -0.6049 -0.6262  0.0829
  851MOL0     C14812  -0.007  10.144   7.815  0.2069  0.8338  0.7886
  851MOL0     C14813   0.032  10.026   7.900 -0.0538 -0.6590  0.1130
  851MOL0     C14814   0.050   9.924   7.949 -1.5623  0.0748  0.2849
  851MOL0     C14815   0.414  10.263   7.353 -0.1255  0.2527 -0.5133
  851MOL0     C14816   0.476  10.331   7.248  0.2206 -0.3880  0.1300
  851MOL0     C14817   0.437  10.276   7.112 -0.5609 -0.5665  0.1189
  851MOL0     H14818   0.600  10.717   6.937  0.1006  0.0992 -1.1292
  851MOL0     H14819   0.742  10.811   6.752 -1.0365 -0.8744 -1.7703
  851MOL0     H14820   1.155  10.594   6.684 -0.8200 -2.6119 -0.9408
  851MOL0     H14821   1.039  10.533   6.560  0.0104  1.5842 -3.3975
  851MOL0     H14822   1.132  10.818   6.521 -2.0401 -0.2739  2.8109
  851MOL0     H14823   1.084  10.697   6.415 -1.1252  3.3414  0.1840
  851MOL0     H14824   1.355  10.672   6.573 -0.1417  1.9682 -0.4571
  851MOL0     H14825   1.343  10.737   6.419  3.5881  0.1225  3.7478
  851MOL0     H14826   1.251  10.441   6.490  0.6591 -0.1839 -0.7077
  851MOL0     H14827   1.259  10.503   6.334  1.4990  1.3658 -0.7415
  851MOL0     H14828   1.503  10.538   6.368 -1.6336  3.0396  0.6099
  851MOL0     H14829   1.502  10.489   6.533 -0.3159  1.2378  0.2965
  851MOL0     H14830   1.586  10.296   6.445 -0.0114  3.5080  3.3071
  851MOL0     H14831   1.423  10.251   6.478  0.6344  0.3712 -0.2815
  851MOL0     H14832   1.363  10.327   6.221 -0.1383 -1.3654 -2.1258
  851MOL0     H14833   1.468  10.185   6.253 -1.8877  0.3739 -2.5100
  851MOL0     H14834   1.568  10.460   6.156 -2.8827 -0.0340  0.7636
  851MOL0     H14835   1.657  10.329   6.242 -0.1883  0.0743  0.3574
  851MOL0     H14836   1.508  10.420   5.892  1.0867  2.0702  0.4354
  851MOL0     H14837   1.732  10.208   5.674 -0.2586  1.4520 -1.1312
  851MOL0     H14838   1.564  10.137   5.652 -3.1409  1.1744  3.0299
  851MOL0     H14839   1.496  10.393   5.635 -0.5652 -1.1180 -1.8896
  851MOL0     H14840   1.657  10.443   5.656 -2.5874  2.0075 -1.5804
  851MOL0     H14841   1.544  10.247   5.444 -2.0398  1.5000 -0.6194
  851MOL0     H14842   1.710  10.288   5.444  0.5263  0.5423  0.4563
  851MOL0     H14843   1.613  10.538   5.444  1.1172 -1.8947  2.5235
  851MOL0     H14844   1.463  10.461   5.399 -0.1444  2.8575  0.0645
  851MOL0     H14845   1.404  10.621   5.213  0.4177  0.4042  0.5171
  851MOL0     H14846   1.413  10.789   5.046  1.0156  1.7663  2.1788
  851MOL0     H14847   1.688  11.091   4.758  0.6739 -0.6516  2.3207
  851MOL0     H14848   1.635  11.298   4.646  0.0306  0.6244  0.4647
  851MOL0     H14849   1.539  11.418   4.509  2.1838  0.7204  1.7613
  851MOL0     H14850   1.414  11.524   4.458 -2.2594  0.0919  0.6486
  851MOL0     H14851   1.460  11.664   4.677  0.9744  0.4988  0.6441
  851MOL0     H14852   1.610  11.561   4.690 -0.8858 -0.7607 -0.1721
  851MOL0     H14853   1.671  11.660   4.451 -0.2987  0.7560 -0.5891
  851MOL0     H14854   1.538  11.766   4.474  0.5949  0.6681 -0.3652
  851MOL0     H14855   1.764  11.846   4.532 -0.2641  2.0970  2.5885
  851MOL0     H14856   1.771  11.715   4.660  0.6463 -1.0101 -0.9970
  851MOL0     H14857   1.555  11.832   4.760  2.2870 -2.3679  2.5398
  851MOL0     H14858   1.604  11.972   4.659  1.1144 -0.5065 -2.4407
  851MOL0     H14859   1.753  11.833   4.887 -1.2892 -0.3147 -0.2173
  851MOL0     H14860   1.836  11.945   4.787 -1.0638  0.6272 -0.6446
  851MOL0     H14861   1.565  12.021   4.929 -0.5048  0.6232  0.0337
  851MOL0     H14862   1.666  12.130   4.855 -0.9757  1.2439  1.2524
  851MOL0     H14863   1.853  12.092   5.023  0.4903  1.3578  1.5418
  851MOL0     H14864   1.704  12.122   5.104  0.0682 -1.6605  1.1246
  851MOL0     H14865   1.229  11.255   4.781  0.4211 -0.4292  3.5229
  851MOL0     H14866   1.291  11.053   4.898 -1.7191  1.5232 -2.0269
  851MOL0     H14867   1.791  10.646   4.914 -1.9475  3.6794 -2.6957
  851MOL0     H14868   1.798  10.482   5.100 -1.3469 -2.8887 -0.4572
  851MOL0     H14869   0.994  10.461   6.788 -1.2723 -0.3805  2.1606
  851MOL0     H14870   0.815  10.375   6.957  0.0709  0.1611 -0.2899
  851MOL0     H14871   0.651  10.558   7.440  2.0041 -1.7605  2.2015
  851MOL0     H14872   0.539  10.424   7.619 -0.3410  1.7591 -1.2910
  851MOL0     H14873   0.272  10.351   7.635 -1.9373 -4.2421 -4.5893
  851MOL0     H14874   0.397  10.295   7.757  0.9533 -2.8268  0.5589
  851MOL0     H14875   0.279  10.120   7.827  1.1547  0.0543 -2.0716
  851MOL0     H14876   0.196  10.090   7.671 -0.1724 -2.0510  1.3160
  851MOL0     H14877   0.075  10.321   7.732 -0.5774 -1.3050 -0.7445
  851MOL0     H14878   0.120  10.274   7.903 -3.4849 -0.5402  0.5298
  851MOL0     H14879  -0.082  10.203   7.868  0.2723  1.0334  0.6615
  851MOL0     H14880  -0.065  10.113   7.728  0.2047  4.8609 -0.8577
  851MOL0     H14881   0.066   9.840   8.013 -3.1440  1.6172  2.9373
  851MOL0     H14882   0.343  10.183   7.335  0.2294  0.3457 -2.5951
  851MOL0     H14883   0.412  10.363   7.050  1.9446 -0.5454 -0.9615
  851MOL0     H14884   0.521  10.228   7.061 -0.7224  1.0447 -1.7959
  851MOL0     H14885   0.356  10.202   7.115  1.3335 -2.7946 -0.6723
  852MOL0     O14886   0.760   2.724   5.308 -0.6557  0.0893 -0.2784
  852MOL0     C14887   0.760   2.788   5.202 -0.3679  0.7476 -0.3079
  852MOL0     O14888   0.856   2.867   5.162 -0.0557 -0.0086  0.3111
  852MOL0     C14889   0.952   2.905   5.248 -0.9303 -0.7629 -0.4691
  852MOL0     C14890   1.061   2.824   5.278  0.5911 -0.7150 -0.1541
  852MOL0     C14891   1.165   2.874   5.351 -0.4912 -0.2905 -0.4148
  852MOL0     C14892   1.166   3.006   5.398 -0.1668 -0.0681 -0.0196
  852MOL0     O14893   1.272   3.050   5.475  0.0426  0.5513 -0.0457
  852MOL0     C14894   1.410   3.027   5.434  0.0800 -0.3391  0.0200
  852MOL0     C14895   1.500   3.022   5.559  0.7304 -0.5630  0.2373
  852MOL0     C14896   1.640   2.961   5.530  0.5976 -0.0142 -0.0410
  852MOL0     C14897   1.718   2.960   5.663 -0.3543  0.4333 -0.0242
  852MOL0     C14898   1.837   2.860   5.658  0.0281  0.5219 -0.0731
  852MOL0     C14899   1.858   2.812   5.804  0.0926 -0.6496 -0.2951
  852MOL0     C14900   1.939   2.919   5.891  0.0747  0.1956  0.4782
  852MOL0     C14901   1.983   2.868   6.018 -0.4970  1.4700 -0.9482
  852MOL0     N14902   1.877   2.874   6.120 -0.0780  0.0377  0.6561
  852MOL0     C14903   1.861   2.980   6.213  1.1562 -0.5457  0.1925
  852MOL0     C14904   1.733   2.960   6.259 -0.4045  0.2780  0.5283
  852MOL0     C14905   1.652   3.060   6.346  1.2428  0.3951 -0.2440
  852MOL0     C14906   1.648   3.012   6.495  0.3339 -0.3685  0.3422
  852MOL0     C14907   1.562   3.087   6.592 -0.1235  0.3218 -0.3468
  852MOL0     C14908   1.582   3.054   6.738  0.1505 -0.0507 -0.2765
  852MOL0     O14909   1.698   3.125   6.788 -0.5681  0.9734  0.5732
  852MOL0     C14910   1.779   3.053   6.864 -0.4081  0.7098 -0.9325
  852MOL0     C14911   1.868   2.965   6.816  0.0885  0.1753  0.1878
  852MOL0     C14912   1.952   2.888   6.894  0.3071 -0.9716  0.0905
  852MOL0     C14913   1.944   2.909   7.032  0.2108 -0.9673  0.6090
  852MOL0     C14914   2.032   2.832   7.117 -0.7647 -0.2000 -0.4173
  852MOL0     O14915   2.069   2.713   7.070 -0.0295  0.5898  0.4280
  852MOL0     C14916   2.170   2.633   7.129 -0.5398  0.7777  1.1647
  852MOL0     C14917   2.273   2.674   7.216 -0.4429  0.8664  0.4688
  852MOL0     C14918   2.363   2.580   7.269 -0.2201 -0.6364  1.1936
  852MOL0     C14919   2.355   2.447   7.233 -0.2731 -0.0858 -0.2028
  852MOL0     O14920   2.445   2.345   7.257  0.3026 -0.2179 -0.3159
  852MOL0     C14921   2.478   2.325   7.394  0.1912 -0.1699 -0.0420
  852MOL0     C14922   2.461   2.182   7.434  0.4428  0.7957  0.2123
  852MOL0     C14923   2.563   2.092   7.350  0.0357 -0.0474  0.9980
  852MOL0     C14924   2.529   1.947   7.369 -0.7577  0.4851 -0.7119
  852MOL0     C14925   2.638   1.852   7.302  1.2046 -1.1369  0.2998
  852MOL0     C14926   2.572   1.722   7.296  0.7544  0.0144 -0.6977
  852MOL0     C14927   2.665   1.611   7.262 -0.2637 -0.0953 -0.9570
  852MOL0     C14928   2.691   1.593   7.116  0.1153 -0.3393  0.2675
  852MOL0    Cl14929   2.780   1.449   7.084  0.2235 -0.1457  0.0516
  852MOL0     C14930   2.260   2.411   7.140 -0.0938 -0.3189  0.5892
  852MOL0     C14931   2.166   2.500   7.087 -0.0768 -0.1076 -0.7685
  852MOL0     O14932   2.063   2.877   7.226  0.1069 -1.4114 -0.2843
  852MOL0     C14933   1.856   3.003   7.093  0.4217 -0.6082 -0.3017
  852MOL0     C14934   1.777   3.077   7.006  0.5515  0.7283 -0.4426
  852MOL0     N14935   1.672   2.855   6.202  0.4868 -0.3573  0.3928
  852MOL0     N14936   1.759   2.807   6.121  0.4584  0.7805  0.2788
  852MOL0     C14937   1.057   3.090   5.371 -0.3981 -0.0929  0.2021
  852MOL0     C14938   0.952   3.041   5.291  0.9837  0.5401 -0.2406
  852MOL0     C14939   0.656   2.744   5.102 -1.1051  0.1693  0.4965
  852MOL0     C14940   0.665   2.794   4.968  0.2683  0.4849  0.3404
  852MOL0     C14941   0.584   2.757   4.861  1.0271 -0.0901  0.2863
  852MOL0     C14942   0.471   2.687   4.879 -0.4073  0.0631  0.5360
  852MOL0     O14943   0.393   2.658   4.768 -0.4393 -0.7322 -0.3908
  852MOL0     C14944   0.263   2.608   4.787  0.5144  0.5348  0.0818
  852MOL0     C14945   0.177   2.655   4.672  0.0874 -0.2403  0.5587
  852MOL0     C14946   0.034   2.592   4.666  0.1654  0.3558  0.8978
  852MOL0     C14947  -0.046   2.653   4.788 -1.4795 -0.6620 -0.7723
  852MOL0     C14948  -0.178   2.586   4.774  0.6908  0.0521 -0.3267
  852MOL0     C14949  -0.277   2.520   4.739  0.3108  1.1189  0.0061
  852MOL0     C14950   0.445   2.644   5.002 -0.6718 -0.6160 -0.4978
  852MOL0     C14951   0.534   2.667   5.118 -0.3219 -0.6906 -0.3829
  852MOL0     C14952   0.487   2.606   5.247  0.1548 -0.6196  0.0308
  852MOL0     H14953   1.058   2.720   5.246 -1.4389 -0.5434 -0.6718
  852MOL0     H14954   1.245   2.804   5.373  1.0317  1.2437 -0.8076
  852MOL0     H14955   1.425   2.940   5.370  0.8977 -0.5236  0.4410
  852MOL0     H14956   1.447   3.112   5.376 -1.1452 -0.7668 -1.4420
  852MOL0     H14957   1.449   2.997   5.652 -0.9881  3.7760  0.7065
  852MOL0     H14958   1.511   3.128   5.585  0.3711 -0.2021 -1.0111
  852MOL0     H14959   1.699   3.006   5.450 -2.4097 -1.5729 -3.3966
  852MOL0     H14960   1.626   2.863   5.483 -0.0783  0.5086 -0.9623
  852MOL0     H14961   1.754   3.063   5.673 -2.8564  1.3474  0.1335
  852MOL0     H14962   1.650   2.937   5.746  0.4489 -3.1560 -0.2136
  852MOL0     H14963   1.814   2.771   5.597  6.4828 -1.7353 -0.0179
  852MOL0     H14964   1.931   2.898   5.616  1.3888  0.3896  2.6538
  852MOL0     H14965   1.770   2.785   5.862 -0.0517  2.0819  0.9313
  852MOL0     H14966   1.917   2.720   5.799 -0.2242 -0.8019 -1.3169
  852MOL0     H14967   1.865   3.000   5.900  0.6385  0.8445 -0.5360
  852MOL0     H14968   2.025   2.950   5.832 -0.0021 -0.5033 -0.0125
  852MOL0     H14969   2.022   2.765   6.016 -1.8313  0.7332  2.4479
  852MOL0     H14970   2.067   2.928   6.056  0.8806 -0.4610 -0.7470
  852MOL0     H14971   1.924   3.062   6.245  2.1075 -1.6912  1.3735
  852MOL0     H14972   1.710   3.153   6.353 -2.2143  2.5689  3.4111
  852MOL0     H14973   1.551   3.084   6.312  0.0109  2.2026  3.9813
  852MOL0     H14974   1.609   2.910   6.502  1.1829 -0.6990  0.4046
  852MOL0     H14975   1.749   3.015   6.536 -0.0340 -1.8366  1.4421
  852MOL0     H14976   1.461   3.060   6.559 -0.5706 -1.2292  2.0707
  852MOL0     H14977   1.563   3.196   6.576  3.6713  0.6300  1.0076
  852MOL0     H14978   1.582   2.945   6.735 -2.6227 -0.1498 -3.2252
  852MOL0     H14979   1.498   3.085   6.801 -0.6823  2.0165 -2.2472
  852MOL0     H14980   1.856   2.954   6.709  3.3252  3.2300 -0.7213
  852MOL0     H14981   2.028   2.822   6.853 -0.2698 -1.6727  0.1162
  852MOL0     H14982   2.293   2.778   7.241  0.5163  0.7768  0.1036
  852MOL0     H14983   2.447   2.614   7.328  1.3159  0.7459 -1.5930
  852MOL0     H14984   2.582   2.356   7.402 -0.0263  1.5311 -2.5616
  852MOL0     H14985   2.420   2.388   7.461 -2.0484 -1.9068 -0.1765
  852MOL0     H14986   2.477   2.181   7.542  0.3453 -0.6683  0.2362
  852MOL0     H14987   2.365   2.133   7.415 -0.3052  1.7209  1.4275
  852MOL0     H14988   2.553   2.109   7.242 -0.6560 -1.7920  0.7570
  852MOL0     H14989   2.667   2.112   7.378 -0.1901  0.0670  1.7703
  852MOL0     H14990   2.429   1.926   7.330  0.8374 -4.0545 -3.1396
  852MOL0     H14991   2.534   1.928   7.477 -1.2785  1.2097 -0.5553
  852MOL0     H14992   2.739   1.855   7.346  0.2801  0.2569  2.5184
  852MOL0     H14993   2.657   1.889   7.201 -3.8707  1.2808 -0.0614
  852MOL0     H14994   2.540   1.700   7.398 -0.7636  3.0676 -0.4271
  852MOL0     H14995   2.483   1.732   7.233 -0.8747  0.0888  1.5184
  852MOL0     H14996   2.621   1.517   7.296  0.9878 -0.3521  0.0265
  852MOL0     H14997   2.758   1.616   7.319 -0.0167 -1.3321 -1.2230
  852MOL0     H14998   2.592   1.582   7.070  0.5500  0.3994 -0.8995
  852MOL0     H14999   2.741   1.685   7.085 -0.1212  0.0539  1.0277
  852MOL0     H15000   2.259   2.311   7.098 -0.8707  0.4636 -1.3723
  852MOL0     H15001   2.097   2.449   7.020 -0.0642 -2.2501  0.7263
  852MOL0     H15002   1.855   3.016   7.200 -0.7724 -2.3305 -0.0742
  852MOL0     H15003   1.697   3.141   7.042 -0.9497 -1.5591  0.4899
  852MOL0     H15004   1.063   3.186   5.422  1.8785 -0.4630  0.7651
  852MOL0     H15005   0.879   3.115   5.259  1.8328  2.6139  2.2788
  852MOL0     H15006   0.751   2.859   4.955 -0.0810  1.0881  0.9875
  852MOL0     H15007   0.602   2.787   4.758 -0.5206  0.3221  0.1132
  852MOL0     H15008   0.213   2.628   4.882  0.5296 -4.1597  1.3148
  852MOL0     H15009   0.278   2.500   4.796  2.0316  0.8805  3.2413
  852MOL0     H15010   0.236   2.649   4.580 -1.9252 -2.2978 -0.7005
  852MOL0     H15011   0.172   2.764   4.674 -0.8323 -0.1633 -2.1840
  852MOL0     H15012   0.036   2.484   4.680  1.3531 -0.0811 -1.9855
  852MOL0     H15013  -0.022   2.608   4.574 -0.2463 -2.2608  0.6243
  852MOL0     H15014  -0.009   2.621   4.886 -1.7513 -0.4773 -0.6078
  852MOL0     H15015  -0.066   2.761   4.792  1.4724  0.1125 -3.5822
  852MOL0     H15016  -0.366   2.467   4.711  2.2267 -2.7068  0.4870
  852MOL0     H15017   0.362   2.576   5.018 -0.6978 -0.7343 -1.0878
  852MOL0     H15018   0.381   2.581   5.236  0.0696 -0.2777  0.0722
  852MOL0     H15019   0.546   2.515   5.262 -0.2649 -0.7383  1.0081
  852MOL0     H15020   0.506   2.679   5.326  1.0464 -0.9339  0.1215
  853MOL0     O15021   7.883   8.185   4.070 -0.2187  0.3453  0.2341
  853MOL0     C15022   7.918   8.089   4.137  0.2986 -1.3809 -0.3089
  853MOL0     O15023   7.833   8.006   4.214 -0.2214  0.8289  0.6319
  853MOL0     C15024   7.698   8.039   4.198  0.0990  0.3907 -0.9496
  853MOL0     C15025   7.634   8.101   4.305  0.2936 -0.4337  1.5813
  853MOL0     C15026   7.500   8.137   4.298  0.1558 -0.2356 -0.2898
  853MOL0     C15027   7.425   8.092   4.192  0.5357 -0.7223 -0.3054
  853MOL0     O15028   7.285   8.122   4.196  0.3904 -0.1804  1.1761
  853MOL0     C15029   7.216   8.152   4.072  0.0408  0.0744  0.5678
  853MOL0     C15030   7.079   8.212   4.105 -0.2809 -0.2731  0.1835
  853MOL0     C15031   6.987   8.245   3.986  0.3157 -0.3125 -0.3935
  853MOL0     C15032   7.033   8.364   3.901 -0.5250 -0.5957 -0.4138
  853MOL0     C15033   6.912   8.421   3.826 -0.4903 -0.3151 -0.9276
  853MOL0     C15034   6.949   8.546   3.750 -0.3775 -0.2321 -0.2307
  853MOL0     C15035   6.835   8.586   3.653  0.1428  0.0328 -0.1885
  853MOL0     C15036   6.730   8.679   3.707  0.1205 -1.1675 -0.3923
  853MOL0     N15037   6.683   8.668   3.841  0.5197 -0.1200  0.0948
  853MOL0     C15038   6.585   8.582   3.889 -0.3240 -0.6944 -0.4880
  853MOL0     C15039   6.574   8.618   4.024 -0.9735 -0.4410 -0.5802
  853MOL0     C15040   6.484   8.555   4.126 -0.5363 -1.0267  0.4492
  853MOL0     C15041   6.530   8.416   4.174  0.4186 -0.8312  0.7130
  853MOL0     C15042   6.660   8.428   4.254 -0.9899 -1.0447 -0.1839
  853MOL0     C15043   6.687   8.298   4.321 -0.1230  1.0762 -0.2354
  853MOL0     O15044   6.781   8.336   4.421  0.2188  0.9466  0.5301
  853MOL0     C15045   6.722   8.374   4.543 -1.3185 -0.9791 -0.2272
  853MOL0     C15046   6.806   8.472   4.606  0.0008  0.8965 -0.1152
  853MOL0     C15047   6.779   8.510   4.738  0.3063  0.1010  0.9002
  853MOL0     C15048   6.686   8.440   4.819 -0.0288 -1.3486  0.5932
  853MOL0     C15049   6.681   8.468   4.961  0.1473 -0.3299  0.5230
  853MOL0     O15050   6.747   8.569   5.022  0.5662 -0.1311 -0.2222
  853MOL0     C15051   6.733   8.585   5.160 -0.1287 -0.3556 -0.8123
  853MOL0     C15052   6.833   8.559   5.258  0.1938 -0.0847  0.3847
  853MOL0     C15053   6.812   8.579   5.395 -0.0569  0.9753  0.4253
  853MOL0     C15054   6.689   8.620   5.449  0.2465  0.0381  0.0635
  853MOL0     O15055   6.659   8.624   5.585 -0.5761 -0.6845  0.3593
  853MOL0     C15056   6.768   8.627   5.674 -0.2856  0.0386 -0.0493
  853MOL0     C15057   6.733   8.638   5.824  0.1529 -1.3569 -0.2863
  853MOL0     C15058   6.635   8.532   5.874  0.8889  0.8883 -0.1841
  853MOL0     C15059   6.589   8.540   6.020 -0.0763 -1.1494  0.5527
  853MOL0     C15060   6.485   8.652   6.026 -1.0881  0.2675 -0.5970
  853MOL0     C15061   6.446   8.692   6.169 -0.3583  0.4883 -1.0170
  853MOL0     C15062   6.299   8.654   6.198  0.2565  0.0411 -0.0095
  853MOL0     C15063   6.179   8.715   6.111 -0.3999  0.7796 -0.2906
  853MOL0    Cl15064   6.188   8.888   6.104 -0.4814 -0.0174  0.1536
  853MOL0     C15065   6.589   8.626   5.353  0.4332 -0.4661  0.3441
  853MOL0     C15066   6.605   8.613   5.212  0.2427  1.7132 -1.2387
  853MOL0     O15067   6.626   8.381   5.018  0.0807  0.2614 -0.3766
  853MOL0     C15068   6.599   8.345   4.754 -0.5197  0.3159 -0.3670
  853MOL0     C15069   6.626   8.308   4.616 -0.0307  0.5155 -0.2572
  853MOL0     N15070   6.663   8.722   4.047 -0.0761  0.0186 -0.5015
  853MOL0     N15071   6.739   8.743   3.939  0.4778  0.3277 -0.3079
  853MOL0     C15072   7.482   8.026   4.084 -0.6937  0.0122 -0.3945
  853MOL0     C15073   7.624   7.990   4.089 -0.2457 -0.0977  0.9953
  853MOL0     C15074   8.065   8.068   4.139  0.2313 -0.1738  0.7919
  853MOL0     C15075   8.132   8.109   4.021  0.0043  0.3316 -0.1537
  853MOL0     C15076   8.265   8.101   4.011 -0.1354 -1.3114 -0.6322
  853MOL0     C15077   8.347   8.065   4.124 -0.0478 -0.9397  0.2505
  853MOL0     O15078   8.485   8.070   4.108 -0.5924  0.2816  0.2382
  853MOL0     C15079   8.553   8.097   4.232 -0.0878  0.1172 -0.1020
  853MOL0     C15080   8.703   8.123   4.211  0.4846  0.8651 -0.2149
  853MOL0     C15081   8.795   8.004   4.156 -0.0871 -0.3765 -0.3320
  853MOL0     C15082   8.927   8.063   4.130 -0.3690  0.3152 -0.0899
  853MOL0     C15083   9.017   7.968   4.063 -0.1767 -0.7254 -0.2593
  853MOL0     C15084   9.098   7.890   4.015 -0.3969 -0.3822  0.0460
  853MOL0     C15085   8.281   8.013   4.241 -0.1065  0.1204  0.9837
  853MOL0     C15086   8.143   8.021   4.252  0.0626  0.0494 -0.1325
  853MOL0     C15087   8.082   7.964   4.372  0.2922  0.8312 -0.9515
  853MOL0     H15088   7.679   8.126   4.400 -0.1258  2.7495  1.0548
  853MOL0     H15089   7.441   8.185   4.375 -0.0484  2.1129 -1.8214
  853MOL0     H15090   7.275   8.221   4.012  0.3540 -0.4488  0.2693
  853MOL0     H15091   7.207   8.056   4.021  0.7913 -1.6574  3.4618
  853MOL0     H15092   7.084   8.301   4.168 -2.7708 -0.9347  1.4709
  853MOL0     H15093   7.031   8.136   4.167 -2.0418  0.8638  0.2995
  853MOL0     H15094   6.891   8.269   4.033  0.4668 -1.8260  0.7817
  853MOL0     H15095   6.977   8.164   3.912  3.3982 -1.9022  0.7637
  853MOL0     H15096   7.072   8.445   3.963  1.4380 -1.6498 -0.1983
  853MOL0     H15097   7.115   8.338   3.834  1.2238  0.1241  1.3523
  853MOL0     H15098   6.876   8.348   3.752 -2.5225 -0.3060 -0.0399
  853MOL0     H15099   6.829   8.451   3.891 -1.9678 -0.1501 -2.7795
  853MOL0     H15100   6.982   8.623   3.820  0.7445 -1.1292  0.2668
  853MOL0     H15101   7.034   8.521   3.686  1.2721 -0.2930  1.8909
  853MOL0     H15102   6.793   8.490   3.619  2.1125 -2.0632  2.8176
  853MOL0     H15103   6.880   8.625   3.561  3.2108 -1.9282  0.3066
  853MOL0     H15104   6.764   8.782   3.691  0.9253 -1.7268 -2.8005
  853MOL0     H15105   6.641   8.655   3.647  0.8193 -0.3982 -1.8049
  853MOL0     H15106   6.529   8.507   3.833 -0.0162 -1.2678 -0.0374
  853MOL0     H15107   6.467   8.632   4.202  1.7952  0.6310 -0.5926
  853MOL0     H15108   6.392   8.548   4.067  0.8018 -1.8507 -1.6287
  853MOL0     H15109   6.448   8.369   4.230 -0.6555  0.2184  0.0585
  853MOL0     H15110   6.544   8.351   4.087  0.3307  2.1771 -1.6812
  853MOL0     H15111   6.632   8.506   4.325  0.9732 -1.4838  1.1629
  853MOL0     H15112   6.738   8.461   4.184  1.1563  1.7229  3.1580
  853MOL0     H15113   6.748   8.231   4.261  0.6790  2.5633 -1.1224
  853MOL0     H15114   6.592   8.252   4.349 -0.5164  1.2912 -1.1845
  853MOL0     H15115   6.885   8.527   4.557 -0.4162  0.3812 -1.3986
  853MOL0     H15116   6.844   8.590   4.771 -0.4114  1.4298 -0.7345
  853MOL0     H15117   6.936   8.536   5.234 -0.2203 -0.6935 -0.8868
  853MOL0     H15118   6.906   8.584   5.449  0.5909  1.0735 -0.6820
  853MOL0     H15119   6.829   8.539   5.652  1.8756  1.0168  1.5155
  853MOL0     H15120   6.833   8.708   5.639 -0.0494 -0.1346 -0.0183
  853MOL0     H15121   6.822   8.646   5.887  0.5302  0.2878 -0.9822
  853MOL0     H15122   6.687   8.736   5.838  0.8006 -0.6851 -2.5278
  853MOL0     H15123   6.546   8.528   5.811 -0.9831 -1.0534  2.3489
  853MOL0     H15124   6.688   8.438   5.856  1.5982  0.8918  1.6621
  853MOL0     H15125   6.685   8.564   6.068 -1.3334  2.5351  1.6055
  853MOL0     H15126   6.542   8.448   6.055 -1.5191  0.2318  2.5361
  853MOL0     H15127   6.396   8.615   5.974 -1.6254 -1.7043  1.5439
  853MOL0     H15128   6.536   8.736   5.979  3.4260  0.2555  3.5331
  853MOL0     H15129   6.520   8.660   6.244 -0.7196  0.9123 -0.4691
  853MOL0     H15130   6.463   8.799   6.187  0.2288  0.3489 -0.7170
  853MOL0     H15131   6.276   8.684   6.301  2.9117  0.1443  0.6343
  853MOL0     H15132   6.289   8.547   6.178 -0.0616 -0.0146  0.4182
  853MOL0     H15133   6.193   8.674   6.011  1.8565  1.8197 -0.4604
  853MOL0     H15134   6.084   8.685   6.156  0.2872 -1.2721 -0.0798
  853MOL0     H15135   6.490   8.657   5.385  0.1597  0.0231 -0.9406
  853MOL0     H15136   6.516   8.649   5.161 -0.2780  2.0065 -0.1399
  853MOL0     H15137   6.523   8.292   4.811  0.3129 -0.5326 -0.0124
  853MOL0     H15138   6.559   8.228   4.584  0.2208  0.2256 -0.0571
  853MOL0     H15139   7.419   7.990   4.003 -1.3874  0.5757 -0.1099
  853MOL0     H15140   7.679   7.944   4.008  1.8520  1.4812  1.4356
  853MOL0     H15141   8.079   8.148   3.935  0.0174  0.7773  0.0352
  853MOL0     H15142   8.305   8.144   3.919  0.5569  1.2491  0.7580
  853MOL0     H15143   8.554   8.019   4.308  0.7817  0.4706  0.2619
  853MOL0     H15144   8.516   8.189   4.278  1.8871  0.4764  0.8685
  853MOL0     H15145   8.753   8.148   4.305 -1.6897 -0.9735  1.5490
  853MOL0     H15146   8.704   8.209   4.144  0.7934  0.7906 -0.3060
  853MOL0     H15147   8.759   7.951   4.067 -0.0424  1.8849 -1.7893
  853MOL0     H15148   8.798   7.923   4.229 -0.7681  0.2249  0.3752
  853MOL0     H15149   8.922   8.145   4.058  1.7592 -0.5388 -1.2992
  853MOL0     H15150   8.964   8.106   4.224 -2.6740  0.9398  0.5985
  853MOL0     H15151   9.170   7.819   3.978 -0.5632  0.2708 -1.6387
  853MOL0     H15152   8.329   7.956   4.320 -0.2379 -2.1590 -0.4833
  853MOL0     H15153   8.021   8.043   4.417  0.6467 -0.4172  1.9297
  853MOL0     H15154   8.028   7.870   4.357 -1.1665  0.4611  4.5487
  853MOL0     H15155   8.165   7.955   4.442 -0.0162 -2.2000 -0.8294
  854MOL0     O15156   9.419   4.585  10.857 -1.0181 -0.3517 -0.3022
  854MOL0     C15157   9.468   4.570  10.744  0.1111 -0.8496 -0.5929
  854MOL0     O15158   9.593   4.526  10.716  0.2123 -0.4045 -0.7195
  854MOL0     C15159   9.694   4.556  10.798  0.5983 -0.8961 -0.4430
  854MOL0     C15160   9.703   4.660  10.891 -0.0954  0.5996 -0.4157
  854MOL0     C15161   9.834   4.692  10.939 -0.5411  1.2270  0.2893
  854MOL0     C15162   9.944   4.610  10.919  0.4549  0.7347  1.0124
  854MOL0     O15163  10.071   4.651  10.960  0.2171  0.3814  0.8610
  854MOL0     C15164  10.161   4.542  10.980 -0.0950 -0.4765  0.1714
  854MOL0     C15165  10.273   4.586  11.070 -0.6470 -0.3027 -0.5258
  854MOL0     C15166  10.221   4.621  11.213 -0.1146 -0.2630 -0.4699
  854MOL0     C15167  10.324   4.695  11.292 -0.2417 -0.8782  0.4005
  854MOL0     C15168  10.287   4.717  11.429 -0.1372 -0.5867 -0.5231
  854MOL0     C15169  10.385   4.797  11.516  0.0187 -0.2806  0.0084
  854MOL0     C15170  10.416   4.952  11.485 -0.5645  0.1562 -0.1271
  854MOL0     C15171  10.302   5.043  11.473 -0.3118  1.2161  0.3432
  854MOL0     N15172  10.285   5.127  11.589 -0.6679 -0.0742 -0.6849
  854MOL0     C15173  10.330   5.259  11.614 -0.2305  1.1907  0.3664
  854MOL0     C15174  10.272   5.300  11.724 -0.2394 -0.7929 -0.6946
  854MOL0     C15175  10.316   5.425  11.806  0.6737  0.0307  0.3707
  854MOL0     C15176  10.253   5.546  11.747  0.4494 -0.6940  0.3537
  854MOL0     C15177  10.317   5.674  11.807 -0.5432  0.0307  0.3550
  854MOL0     C15178  10.248   5.790  11.733 -0.1775 -0.4981 -0.0443
  854MOL0     O15179  10.330   5.897  11.750  0.3196 -0.8099  0.7333
  854MOL0     C15180  10.305   6.009  11.673  0.7759  0.7077 -0.1997
  854MOL0     C15181  10.203   6.028  11.577  0.4115 -0.6258 -0.6626
  854MOL0     C15182  10.186   6.150  11.507 -1.0517 -0.6910 -0.1726
  854MOL0     C15183  10.294   6.250  11.520 -0.2604 -0.4131 -0.7273
  854MOL0     C15184  10.278   6.378  11.457 -0.7549  0.5895  0.0235
  854MOL0     O15185  10.394   6.445  11.424 -0.6192 -0.9108 -0.1863
  854MOL0     C15186  10.385   6.574  11.369  0.1271  0.6113 -0.2057
  854MOL0     C15187  10.330   6.590  11.246  0.4434  0.5768  0.4129
  854MOL0     C15188  10.297   6.716  11.194  0.5027  0.3754 -0.1191
  854MOL0     C15189  10.354   6.819  11.263 -0.5298  0.0520  0.0704
  854MOL0     O15190  10.356   6.953  11.220 -0.2789  0.3788  0.0216
  854MOL0     C15191  10.250   6.991  11.124  0.9297 -0.0187  0.1727
  854MOL0     C15192  10.237   7.143  11.120 -0.1870 -0.1260 -1.0114
  854MOL0     C15193  10.105   7.178  11.049  0.4719 -0.8134  0.0696
  854MOL0     C15194  10.094   7.335  11.050  0.0277  0.4462  0.4621
  854MOL0     C15195  10.028   7.403  10.924 -0.3357 -0.2287  0.5670
  854MOL0     C15196  10.010   7.549  10.956 -0.5422 -0.1035 -0.3471
  854MOL0     C15197   9.952   7.623  10.842 -0.4684 -0.0391 -0.8049
  854MOL0     C15198   9.942   7.777  10.858  0.9426  0.3142 -0.0927
  854MOL0    Cl15199  10.109   7.867  10.884  0.2515 -0.5456  0.2718
  854MOL0     C15200  10.427   6.803  11.380 -0.0286  0.0052  0.8438
  854MOL0     C15201  10.439   6.678  11.437 -0.1404  0.0425 -0.3821
  854MOL0     O15202  10.167   6.424  11.447  0.4358  0.3526  0.1188
  854MOL0     C15203  10.399   6.224  11.606  0.3048  0.7430  0.2568
  854MOL0     C15204  10.403   6.109  11.682  0.5810 -0.2217 -0.3421
  854MOL0     N15205  10.183   5.198  11.760 -0.3585 -0.0939  0.7314
  854MOL0     N15206  10.204   5.094  11.695  0.2456  0.9382  1.1311
  854MOL0     C15207   9.921   4.502  10.827 -0.5277  0.8377  0.0046
  854MOL0     C15208   9.801   4.480  10.769 -0.1870 -0.5238  0.6607
  854MOL0     C15209   9.374   4.561  10.638  0.0668  1.0819 -0.2279
  854MOL0     C15210   9.234   4.542  10.661 -0.1016 -1.3848 -0.3239
  854MOL0     C15211   9.145   4.540  10.557  0.4630 -0.2758 -0.1670
  854MOL0     C15212   9.180   4.559  10.428 -0.3370  0.2340 -0.3804
  854MOL0     O15213   9.077   4.554  10.342 -0.2394 -0.3502  0.2247
  854MOL0     C15214   9.082   4.567  10.199  0.3515 -0.5589  0.3050
  854MOL0     C15215   9.107   4.423  10.149 -0.0368  0.1436  0.0045
  854MOL0     C15216   9.076   4.410   9.991  0.2723 -0.2099  0.3153
  854MOL0     C15217   9.204   4.454   9.915  0.9698 -0.4552  0.0538
  854MOL0     C15218   9.190   4.385   9.793 -0.3702  0.2737 -0.7708
  854MOL0     C15219   9.193   4.333   9.683 -0.4545 -0.1518 -1.3463
  854MOL0     C15220   9.317   4.571  10.400  0.4922 -1.1968 -0.8145
  854MOL0     C15221   9.413   4.566  10.502  0.1580 -0.1934  0.1886
  854MOL0     C15222   9.544   4.574  10.448  0.3968  0.0218 -0.0378
  854MOL0     H15223   9.619   4.724  10.916  1.6403  1.9141  2.6646
  854MOL0     H15224   9.852   4.790  10.983 -1.6273  2.2363 -1.4141
  854MOL0     H15225  10.106   4.459  11.025  0.7700  0.6481  3.5720
  854MOL0     H15226  10.207   4.511  10.886 -0.9739 -1.1828 -0.0350
  854MOL0     H15227  10.332   4.670  11.032  0.3090  1.4149  4.0734
  854MOL0     H15228  10.349   4.511  11.093  3.3891  3.5479 -0.0513
  854MOL0     H15229  10.195   4.525  11.258  1.6944 -1.8887 -2.6525
  854MOL0     H15230  10.136   4.689  11.207 -0.5760 -0.8535 -0.6822
  854MOL0     H15231  10.406   4.623  11.280  0.6688  0.3356 -1.0069
  854MOL0     H15232  10.353   4.780  11.230 -0.7077 -0.8772  0.1771
  854MOL0     H15233  10.183   4.748  11.438  0.8915  3.8544 -1.5917
  854MOL0     H15234  10.286   4.619  11.478  0.9145 -0.9371 -1.1701
  854MOL0     H15235  10.349   4.791  11.619 -2.5126  0.6622 -0.7346
  854MOL0     H15236  10.482   4.746  11.511 -1.5397 -3.4584 -1.4490
  854MOL0     H15237  10.468   4.955  11.389 -1.6189 -1.6467 -0.8071
  854MOL0     H15238  10.491   4.980  11.560 -1.0977 -0.7354  0.7620
  854MOL0     H15239  10.314   5.104  11.383  0.5827  1.1463  0.4112
  854MOL0     H15240  10.207   4.988  11.471  0.4206 -0.1340 -2.1220
  854MOL0     H15241  10.391   5.314  11.542  1.3716 -1.3268 -0.3160
  854MOL0     H15242  10.278   5.407  11.906 -1.4855 -1.4613 -0.6381
  854MOL0     H15243  10.424   5.420  11.796  0.8459 -0.8271  2.2802
  854MOL0     H15244  10.261   5.547  11.638 -3.4917  0.6625 -0.0733
  854MOL0     H15245  10.146   5.556  11.767  0.0850  4.5878 -2.3837
  854MOL0     H15246  10.425   5.692  11.801 -0.9788  2.4334 -3.1045
  854MOL0     H15247  10.287   5.688  11.911 -0.5372  0.7009  0.2732
  854MOL0     H15248  10.146   5.812  11.765  0.6292 -0.1613  2.4961
  854MOL0     H15249  10.244   5.767  11.626 -0.6742 -0.4704 -0.0347
  854MOL0     H15250  10.126   5.953  11.557  0.4317 -0.9335  0.3548
  854MOL0     H15251  10.096   6.164  11.447 -0.5878 -0.4499 -0.8285
  854MOL0     H15252  10.278   6.508  11.198  1.2077  0.9914 -1.2006
  854MOL0     H15253  10.236   6.722  11.105 -0.3551  0.6023  0.4634
  854MOL0     H15254  10.275   6.958  11.023  1.2772 -2.0514  0.8892
  854MOL0     H15255  10.155   6.950  11.160  0.6781  0.8724  0.5635
  854MOL0     H15256  10.221   7.173  11.224 -2.7762  3.9896 -2.3446
  854MOL0     H15257  10.333   7.186  11.087  0.3560 -0.4778  0.0462
  854MOL0     H15258  10.109   7.145  10.944  1.5921  1.9564 -0.8460
  854MOL0     H15259  10.005   7.152  11.085  1.3701 -0.6880  2.8451
  854MOL0     H15260  10.197   7.372  11.050 -0.5590  3.1072 -5.1613
  854MOL0     H15261  10.039   7.376  11.136  0.2953  2.4851 -0.2839
  854MOL0     H15262   9.927   7.361  10.912 -1.9165  3.6964 -2.2032
  854MOL0     H15263  10.099   7.404  10.840  1.9209  1.9566  2.3457
  854MOL0     H15264   9.943   7.566  11.041 -0.0995  2.2313 -0.4074
  854MOL0     H15265  10.104   7.597  10.983 -2.2244  3.2171  0.1360
  854MOL0     H15266   9.852   7.582  10.826 -0.6528  0.4434 -0.8927
  854MOL0     H15267  10.011   7.604  10.752  0.6593  1.1868 -0.3557
  854MOL0     H15268   9.907   7.810  10.760 -0.1794 -1.9306 -0.5120
  854MOL0     H15269   9.875   7.801  10.941 -0.6243 -2.0126 -0.6102
  854MOL0     H15270  10.465   6.893  11.426 -4.3554  3.0113 -0.7515
  854MOL0     H15271  10.493   6.656  11.528 -0.5783 -0.4528 -0.2353
  854MOL0     H15272  10.477   6.298  11.619 -0.1035  1.3042 -0.4071
  854MOL0     H15273  10.460   6.109  11.775  1.5071 -0.7586 -0.8995
  854MOL0     H15274  10.009   4.445  10.796  0.2066  1.4848  0.8522
  854MOL0     H15275   9.782   4.409  10.689  0.9636 -2.0769  1.7162
  854MOL0     H15276   9.195   4.517  10.759 -2.3487 -1.7657 -1.2451
  854MOL0     H15277   9.042   4.527  10.590  0.0950  1.6036 -0.4546
  854MOL0     H15278   9.170   4.628  10.179  0.8682 -0.3383  2.8274
  854MOL0     H15279   8.988   4.610  10.162 -0.6800 -0.7377  2.4949
  854MOL0     H15280   9.063   4.336  10.198 -0.9586  0.5949 -0.0049
  854MOL0     H15281   9.216   4.413  10.157  0.0572  1.7934  1.2712
  854MOL0     H15282   8.985   4.464   9.966 -0.1960 -1.1228 -0.0016
  854MOL0     H15283   9.062   4.302   9.977  2.0036 -0.2953 -1.1208
  854MOL0     H15284   9.192   4.562   9.908  0.7696 -0.5469 -1.2665
  854MOL0     H15285   9.303   4.430   9.955  0.5218 -0.3637  1.2874
  854MOL0     H15286   9.214   4.288   9.588  1.2722  0.2889 -1.2026
  854MOL0     H15287   9.352   4.576  10.297  0.9806  0.7120 -0.5946
  854MOL0     H15288   9.604   4.488  10.480  1.8695  1.7941  2.2973
  854MOL0     H15289   9.552   4.574  10.339  6.2305 -0.5660  0.0809
  854MOL0     H15290   9.587   4.667  10.487  1.2214 -0.9766  1.5145
  855MOL0     O15291   4.999  11.168   1.067 -0.3755 -1.0796  0.4510
  855MOL0     C15292   5.020  11.123   0.960 -0.1310  0.2256 -0.1121
  855MOL0     O15293   5.132  11.142   0.879  0.9712  0.1639  0.2863
  855MOL0     C15294   5.250  11.200   0.917  0.1561  0.1954 -0.6803
  855MOL0     C15295   5.280  11.285   1.031  0.4447 -1.4622 -0.1946
  855MOL0     C15296   5.412  11.328   1.047 -0.6073  0.1573  0.3890
  855MOL0     C15297   5.517  11.285   0.971  0.4571 -1.0774 -0.7275
  855MOL0     O15298   5.637  11.326   1.012 -0.2638 -0.4014 -0.4690
  855MOL0     C15299   5.742  11.292   0.928  0.3244 -0.7657  0.1381
  855MOL0     C15300   5.874  11.321   0.982  0.2539 -0.6007 -0.1691
  855MOL0     C15301   5.929  11.226   1.081  0.0694  0.6960 -0.5840
  855MOL0     C15302   5.904  11.290   1.221 -0.1361  0.0360  0.5892
  855MOL0     C15303   5.998  11.244   1.332 -0.1440 -0.4990 -0.1007
  855MOL0     C15304   5.977  11.343   1.451 -0.1854 -0.5475 -0.0344
  855MOL0     C15305   6.017  11.493   1.426  0.6919 -0.2520 -0.2918
  855MOL0     C15306   6.014  11.568   1.558 -0.5751  0.6888  0.2686
  855MOL0     N15307   5.886  11.577   1.626 -0.0066 -0.1194  0.4577
  855MOL0     C15308   5.850  11.505   1.735  0.1722  0.2841 -0.3421
  855MOL0     C15309   5.742  11.567   1.791  0.0492  0.1848  0.5717
  855MOL0     C15310   5.684  11.554   1.930 -0.3069  0.2526 -1.0002
  855MOL0     C15311   5.665  11.414   1.971 -0.1073 -0.0898 -0.7399
  855MOL0     C15312   5.679  11.396   2.116 -0.0147  0.6880  0.8718
  855MOL0     C15313   5.630  11.256   2.163  0.1645  1.0023  0.3063
  855MOL0     O15314   5.651  11.227   2.305 -0.5537 -0.0172  0.4664
  855MOL0     C15315   5.571  11.289   2.402 -0.9649 -0.3932  0.7194
  855MOL0     C15316   5.446  11.338   2.381  1.2649 -0.4476  0.2971
  855MOL0     C15317   5.381  11.404   2.484  0.4718 -0.8986 -0.3260
  855MOL0     C15318   5.432  11.411   2.617 -0.6849 -0.3588  0.2252
  855MOL0     C15319   5.343  11.449   2.733  0.7197 -0.1575  0.6870
  855MOL0     O15320   5.226  11.518   2.709 -0.5743  0.6506  0.2457
  855MOL0     C15321   5.158  11.574   2.814 -0.7714  0.1985  0.0126
  855MOL0     C15322   5.032  11.529   2.853 -0.0226  0.3869  0.2078
  855MOL0     C15323   4.950  11.599   2.944  0.5135 -0.5704  0.2036
  855MOL0     C15324   4.999  11.722   3.001  0.1758  0.7041 -0.2003
  855MOL0     O15325   4.928  11.793   3.096  0.5646 -0.1456  0.3378
  855MOL0     C15326   4.830  11.718   3.174  0.3332 -0.7581 -0.3555
  855MOL0     C15327   4.791  11.793   3.296  0.0126  0.0800  0.1968
  855MOL0     C15328   4.897  11.804   3.410  0.5289 -0.1984 -0.0721
  855MOL0     C15329   4.839  11.895   3.516 -0.6791  0.3168 -1.0196
  855MOL0     C15330   4.940  11.929   3.624  0.1705  0.3682  0.0597
  855MOL0     C15331   4.877  12.008   3.742  0.0572 -0.2968  1.1667
  855MOL0     C15332   4.964  12.028   3.862 -0.3880  0.5824 -1.0453
  855MOL0     C15333   5.095  12.093   3.838 -0.7320 -0.3869  0.6852
  855MOL0    Cl15334   5.074  12.259   3.791 -0.1512 -0.4708 -0.1899
  855MOL0     C15335   5.130  11.761   2.971 -0.0594 -0.6155 -0.7636
  855MOL0     C15336   5.213  11.689   2.881  0.5888  0.2207 -0.7298
  855MOL0     O15337   5.388  11.425   2.847  0.6470 -0.4567 -0.0697
  855MOL0     C15338   5.556  11.352   2.640 -0.6734  0.0937  0.2589
  855MOL0     C15339   5.629  11.296   2.531  0.1678 -0.2290  0.2961
  855MOL0     N15340   5.694  11.668   1.706 -0.1225  0.0127 -0.5592
  855MOL0     N15341   5.781  11.668   1.611 -0.7471  0.0105  0.4681
  855MOL0     C15342   5.488  11.186   0.870  0.1493 -0.7137  0.6275
  855MOL0     C15343   5.359  11.159   0.837 -0.3869  0.0638  0.4018
  855MOL0     C15344   4.916  11.021   0.910 -0.5150  0.5033 -0.4734
  855MOL0     C15345   4.975  10.899   0.865  0.3630 -0.4117  0.3654
  855MOL0     C15346   4.883  10.798   0.838 -0.2704 -0.5513 -0.3626
  855MOL0     C15347   4.745  10.818   0.830  0.4314 -0.4455 -0.0022
  855MOL0     O15348   4.665  10.717   0.801 -0.3476  0.0374 -0.6077
  855MOL0     C15349   4.696  10.658   0.671  0.3306  0.3013 -0.2125
  855MOL0     C15350   4.595  10.539   0.658 -0.0220  0.5417  0.6420
  855MOL0     C15351   4.640  10.415   0.584 -0.6150 -0.6694 -0.4798
  855MOL0     C15352   4.700  10.300   0.663 -0.3045 -0.7553 -0.7120
  855MOL0     C15353   4.841  10.331   0.676 -0.4504 -1.2226 -0.1080
  855MOL0     C15354   4.951  10.361   0.691  0.1280  0.1370 -0.3214
  855MOL0     C15355   4.690  10.947   0.866  0.5067 -0.2316  0.0261
  855MOL0     C15356   4.778  11.046   0.913  0.4300  0.7427 -0.6624
  855MOL0     C15357   4.720  11.184   0.952  0.0888 -0.2963  0.4092
  855MOL0     H15358   5.203  11.336   1.087  0.3489 -2.6893  0.8477
  855MOL0     H15359   5.428  11.408   1.118  2.0257  1.5501 -1.6007
  855MOL0     H15360   5.764  11.187   0.906 -1.6668 -2.4504  4.8552
  855MOL0     H15361   5.745  11.341   0.831  2.4558  1.6277  1.2838
  855MOL0     H15362   5.867  11.424   1.018 -2.3390 -0.7696 -0.0323
  855MOL0     H15363   5.950  11.330   0.903 -0.0405  1.0074 -0.3011
  855MOL0     H15364   6.038  11.216   1.079  0.1438  0.3970  1.7190
  855MOL0     H15365   5.873  11.132   1.079 -0.4578  1.0021 -0.6239
  855MOL0     H15366   5.937  11.393   1.206  1.6043 -0.4458  0.8576
  855MOL0     H15367   5.797  11.295   1.242 -0.0116  3.1793  1.0203
  855MOL0     H15368   5.969  11.141   1.355  0.7597 -0.3288  1.9336
  855MOL0     H15369   6.106  11.250   1.315  0.5847  3.5765  4.1258
  855MOL0     H15370   5.878  11.347   1.497 -0.0143  0.1100  0.3012
  855MOL0     H15371   6.046  11.307   1.528  0.4010  1.1732  0.2916
  855MOL0     H15372   5.945  11.530   1.353 -1.1356 -1.8094  0.6241
  855MOL0     H15373   6.117  11.505   1.382  0.4884  1.5097 -0.3362
  855MOL0     H15374   6.083  11.523   1.631  1.1255  1.9623 -0.4862
  855MOL0     H15375   6.044  11.671   1.539 -2.0358  0.9859 -0.6162
  855MOL0     H15376   5.914  11.432   1.783  1.1381  2.4925  1.9474
  855MOL0     H15377   5.741  11.605   2.009 -0.4910  0.2093 -0.8369
  855MOL0     H15378   5.593  11.615   1.922 -0.0743  0.5601 -1.3218
  855MOL0     H15379   5.562  11.387   1.946 -0.5386 -0.1916  1.0624
  855MOL0     H15380   5.735  11.343   1.925  0.2917  0.7947 -1.5376
  855MOL0     H15381   5.614  11.465   2.170 -2.7159 -0.5829 -0.5684
  855MOL0     H15382   5.788  11.394   2.121  0.2689 -2.5462 -2.4543
  855MOL0     H15383   5.683  11.176   2.110  0.9125  0.8215  1.3106
  855MOL0     H15384   5.523  11.237   2.149 -0.0384  0.5477  2.2236
  855MOL0     H15385   5.395  11.329   2.286  2.4288 -1.0730 -0.2793
  855MOL0     H15386   5.279  11.436   2.462  1.1349 -0.0349 -2.5105
  855MOL0     H15387   4.992  11.443   2.801  1.9673  0.6260 -1.9133
  855MOL0     H15388   4.844  11.576   2.956 -0.0973  1.4057 -0.9136
  855MOL0     H15389   4.746  11.698   3.108  0.9336 -0.7366 -1.1369
  855MOL0     H15390   4.873  11.623   3.208  1.9006 -0.4751 -1.4258
  855MOL0     H15391   4.782  11.896   3.263  0.5248 -0.3838 -1.4821
  855MOL0     H15392   4.695  11.748   3.324 -1.0842  1.1321 -1.7160
  855MOL0     H15393   4.916  11.701   3.444  1.7429 -0.1787 -0.6268
  855MOL0     H15394   4.993  11.852   3.392  0.1427  1.2434  1.4841
  855MOL0     H15395   4.765  11.830   3.564  2.2992 -3.4676 -1.0157
  855MOL0     H15396   4.789  11.985   3.479 -0.1779  0.5741 -1.0780
  855MOL0     H15397   5.029  11.981   3.584  0.3648  0.0962  0.1380
  855MOL0     H15398   4.967  11.834   3.669  1.6731  0.8214  0.1804
  855MOL0     H15399   4.836  12.101   3.701  0.2697  0.1946  2.0456
  855MOL0     H15400   4.784  11.968   3.782 -0.3837 -0.1027  0.3744
  855MOL0     H15401   4.978  11.930   3.908  1.1648  0.2429 -2.1734
  855MOL0     H15402   4.907  12.092   3.930 -0.5802  1.2602 -1.8273
  855MOL0     H15403   5.161  12.087   3.925  1.0608 -1.4327 -0.6585
  855MOL0     H15404   5.145  12.029   3.764 -2.6279  0.0901 -1.0873
  855MOL0     H15405   5.170  11.853   3.012  0.0205  0.3840 -2.9323
  855MOL0     H15406   5.313  11.726   2.863 -0.0964  1.6280 -1.8893
  855MOL0     H15407   5.599  11.335   2.739  0.9956 -3.2829 -0.8900
  855MOL0     H15408   5.728  11.252   2.538  1.1724  1.7122 -0.7934
  855MOL0     H15409   5.567  11.150   0.804  0.5404  2.5863 -0.9207
  855MOL0     H15410   5.357  11.092   0.752 -0.9235 -0.4745  0.8332
  855MOL0     H15411   5.082  10.882   0.853  0.4272 -1.3311  1.9738
  855MOL0     H15412   4.924  10.705   0.801 -2.4733 -1.3708 -0.8901
  855MOL0     H15413   4.802  10.632   0.667  0.6480  0.6483  3.2632
  855MOL0     H15414   4.677  10.719   0.582 -4.8997  0.3925  0.6194
  855MOL0     H15415   4.506  10.582   0.610 -0.2480  2.9423  2.9844
  855MOL0     H15416   4.576  10.503   0.760 -1.5811 -3.5787 -0.8997
  855MOL0     H15417   4.711  10.441   0.504  1.4862  1.2405  1.8383
  855MOL0     H15418   4.552  10.373   0.536 -1.2251 -0.6609  0.5987
  855MOL0     H15419   4.650  10.298   0.760 -1.4446 -5.1184 -1.1878
  855MOL0     H15420   4.666  10.205   0.621  0.0825 -1.9446  1.4753
  855MOL0     H15421   5.053  10.394   0.697  0.6067 -1.3034 -0.2315
  855MOL0     H15422   4.585  10.975   0.868  0.6835  0.5993 -1.2191
  855MOL0     H15423   4.654  11.184   1.039  3.4163  0.2869  3.0956
  855MOL0     H15424   4.791  11.261   0.983 -1.9043  0.4647  3.4496
  855MOL0     H15425   4.666  11.223   0.865 -0.4900  1.0107  1.3231
  856MOL0     O15426  10.551   0.498   9.966  0.4819 -0.7197 -0.0613
  856MOL0     C15427  10.573   0.600  10.032 -0.4842 -0.8326 -0.3615
  856MOL0     O15428  10.500   0.669  10.119 -0.3314  0.4004 -0.2611
  856MOL0     C15429  10.364   0.640  10.123  0.5270 -0.3102  0.3646
  856MOL0     C15430  10.292   0.638  10.241 -0.2640 -0.2468  0.2145
  856MOL0     C15431  10.161   0.613  10.253 -1.0533  0.1114  0.1924
  856MOL0     C15432  10.084   0.597  10.137  0.6859 -0.1282  0.0159
  856MOL0     O15433   9.949   0.570  10.139  0.3330  0.4012  0.0928
  856MOL0     C15434   9.870   0.582  10.256  1.3387 -0.1519  0.1149
  856MOL0     C15435   9.789   0.714  10.266 -0.8294 -0.7873  0.4226
  856MOL0     C15436   9.849   0.817  10.365  0.0142  0.4807 -0.3114
  856MOL0     C15437   9.760   0.938  10.375 -0.8551  0.5360  0.7287
  856MOL0     C15438   9.838   1.031  10.462 -0.3316 -0.0453  0.2692
  856MOL0     C15439   9.754   1.150  10.501 -0.4410 -0.0993  0.2471
  856MOL0     C15440   9.836   1.234  10.599  0.0724 -0.7897  0.4453
  856MOL0     C15441   9.756   1.358  10.630  1.1150 -0.0754 -0.0254
  856MOL0     N15442   9.846   1.432  10.728  0.9174 -0.4239  0.4127
  856MOL0     C15443   9.967   1.474  10.707 -0.3169 -0.8034 -0.3729
  856MOL0     C15444  10.007   1.495  10.836 -0.0680  0.1646 -0.2283
  856MOL0     C15445  10.143   1.552  10.866  0.8265  0.7415  0.2464
  856MOL0     C15446  10.245   1.444  10.918 -0.7510 -0.1836  0.5656
  856MOL0     C15447  10.389   1.502  10.922  0.1260  0.6356  0.6670
  856MOL0     C15448  10.472   1.401  10.989  0.4435  0.9570 -0.4942
  856MOL0     O15449  10.431   1.385  11.126 -0.3554  0.0779 -0.3609
  856MOL0     C15450  10.477   1.462  11.224  0.0604  0.0221 -1.0400
  856MOL0     C15451  10.577   1.556  11.212  0.3663 -0.1539  0.4369
  856MOL0     C15452  10.609   1.641  11.323  0.8472  0.6679  0.1531
  856MOL0     C15453  10.543   1.618  11.449 -0.6585 -0.1866  0.1833
  856MOL0     C15454  10.573   1.711  11.561 -0.3308  0.2428 -0.3254
  856MOL0     O15455  10.534   1.668  11.692  0.7742 -0.3869  0.0183
  856MOL0     C15456  10.558   1.757  11.788 -0.8238 -0.7461 -0.0047
  856MOL0     C15457  10.475   1.876  11.796 -0.0549  1.5120 -0.7409
  856MOL0     C15458  10.489   1.952  11.910  0.4501 -0.0425 -0.6426
  856MOL0     C15459  10.593   1.937  11.994  0.6243 -0.4578 -0.5298
  856MOL0     O15460  10.589   1.993  12.116  0.1903  0.3595  0.4378
  856MOL0     C15461  10.707   2.047  12.177  0.7918 -0.3944 -0.6928
  856MOL0     C15462  10.723   2.201  12.147  0.3974 -0.2331  0.2984
  856MOL0     C15463  10.813   2.265  12.251  0.3528  0.4892  0.0250
  856MOL0     C15464  10.827   2.413  12.221 -0.4148 -1.0177 -0.1299
  856MOL0     C15465  10.861   2.488  12.345 -0.3528 -0.6555 -0.0079
  856MOL0     C15466  10.842   2.638  12.317 -0.3306  0.1188  0.2312
  856MOL0     C15467  10.885   2.724  12.435 -0.1380  0.1406 -0.2008
  856MOL0     C15468  11.026   2.751  12.443  0.2790  0.2860 -0.2292
  856MOL0    Cl15469  11.050   2.895  12.349  0.1018  0.3800  0.2322
  856MOL0     C15470  10.685   1.830  11.977  1.0954 -0.4455  0.3868
  856MOL0     C15471  10.663   1.738  11.873  0.4601  0.0701 -0.3804
  856MOL0     O15472  10.615   1.824  11.539 -0.9006  0.4556 -0.2918
  856MOL0     C15473  10.454   1.517  11.461  0.6604 -0.5051 -0.0923
  856MOL0     C15474  10.422   1.441  11.352 -0.0254  0.2262 -0.3025
  856MOL0     N15475   9.905   1.466  10.929 -0.2392  0.2365  0.5567
  856MOL0     N15476   9.810   1.433  10.856 -0.0844  0.4581  0.4854
  856MOL0     C15477  10.149   0.606  10.020  0.1937 -0.0050 -0.2804
  856MOL0     C15478  10.288   0.628  10.004  0.9365 -0.7238  0.7112
  856MOL0     C15479  10.697   0.691   9.999 -0.2417  0.5586 -0.6811
  856MOL0     C15480  10.703   0.722   9.865 -0.6734  1.2940 -0.1577
  856MOL0     C15481  10.812   0.791   9.825 -0.5168  0.3794 -0.6633
  856MOL0     C15482  10.912   0.840   9.912 -0.3737 -0.8126  1.0894
  856MOL0     O15483  11.014   0.907   9.854  1.0349 -0.6533  0.2380
  856MOL0     C15484  11.127   0.939   9.929  0.3512  0.4142  0.5522
  856MOL0     C15485  11.227   1.014   9.849 -0.4046  0.2330  0.4622
  856MOL0     C15486  11.188   1.159   9.797 -1.1435  0.1728 -0.2507
  856MOL0     C15487  11.127   1.159   9.655  0.5536  1.3941  0.3625
  856MOL0     C15488  11.233   1.113   9.564 -0.5111 -0.4765  0.1434
  856MOL0     C15489  11.325   1.070   9.489  1.3180  0.2487  0.0775
  856MOL0     C15490  10.902   0.797  10.046 -0.2253 -1.1471 -0.5972
  856MOL0     C15491  10.791   0.731  10.093  0.7826  0.0509 -0.6225
  856MOL0     C15492  10.786   0.677  10.231  0.1096  0.2758  0.8174
  856MOL0     H15493  10.351   0.658  10.330  3.0597 -1.5376 -1.5395
  856MOL0     H15494  10.125   0.604  10.355 -3.3718  1.1837 -0.4650
  856MOL0     H15495   9.797   0.503  10.239 -0.8049  1.8742 -0.5086
  856MOL0     H15496   9.920   0.576  10.354  1.1876 -2.6749  0.0983
  856MOL0     H15497   9.682   0.694  10.282 -1.5673 -0.2214 -3.0039
  856MOL0     H15498   9.802   0.770  10.173 -1.5919  1.0253  1.3520
  856MOL0     H15499   9.946   0.848  10.324  1.9755 -2.8765  1.3631
  856MOL0     H15500   9.866   0.772  10.463  0.3170  0.5568 -0.3269
  856MOL0     H15501   9.744   0.977  10.274 -0.4669 -0.5388  0.2369
  856MOL0     H15502   9.666   0.903  10.419 -2.2016  1.6234 -1.1302
  856MOL0     H15503   9.872   0.979  10.552 -0.6369 -0.7184  0.0049
  856MOL0     H15504   9.925   1.063  10.403 -1.6347  0.7980 -1.2557
  856MOL0     H15505   9.725   1.191  10.404  1.3050  2.7414  0.8108
  856MOL0     H15506   9.660   1.126  10.552 -1.1323  1.8240 -0.0192
  856MOL0     H15507   9.935   1.261  10.560 -0.4209 -2.4630 -2.2369
  856MOL0     H15508   9.850   1.188  10.697 -1.3775 -2.0348  0.0942
  856MOL0     H15509   9.723   1.427  10.552 -0.4348  1.3719  1.7942
  856MOL0     H15510   9.664   1.328  10.680  0.1700  0.8010 -1.2045
  856MOL0     H15511  10.022   1.485  10.614 -2.3045 -2.8229 -1.9132
  856MOL0     H15512  10.170   1.600  10.771 -0.1301  3.7744  1.3945
  856MOL0     H15513  10.140   1.640  10.931  3.3056  0.6572  0.5825
  856MOL0     H15514  10.221   1.407  11.018 -0.5479  3.6065  2.1744
  856MOL0     H15515  10.248   1.358  10.850  3.0590  0.5259 -0.4083
  856MOL0     H15516  10.395   1.593  10.982 -1.4601  1.0603  0.2238
  856MOL0     H15517  10.437   1.519  10.825  1.1208 -4.2669  0.0088
  856MOL0     H15518  10.580   1.417  10.984  0.3712  1.2121 -1.5045
  856MOL0     H15519  10.460   1.302  10.942  0.9648  0.6880 -0.0640
  856MOL0     H15520  10.627   1.576  11.118  0.3978  3.4099  1.0604
  856MOL0     H15521  10.675   1.727  11.312  0.7691  0.6340 -0.6381
  856MOL0     H15522  10.401   1.888  11.718 -1.3992  0.4271  0.3192
  856MOL0     H15523  10.425   2.038  11.922 -1.0916 -1.5098  3.2230
  856MOL0     H15524  10.703   2.044  12.286  1.1968  1.8551 -0.5716
  856MOL0     H15525  10.792   1.981  12.156  1.9466  0.8756 -0.1303
  856MOL0     H15526  10.762   2.221  12.047 -1.8623 -1.4894 -0.9372
  856MOL0     H15527  10.621   2.241  12.160  0.5542 -0.3952  2.3059
  856MOL0     H15528  10.794   2.250  12.357  0.1978  0.9636  0.0657
  856MOL0     H15529  10.915   2.226  12.238  0.1676  0.7850 -3.2129
  856MOL0     H15530  10.731   2.458  12.194  0.5951  1.5599  0.3404
  856MOL0     H15531  10.905   2.432  12.146 -0.6129  0.7020  0.0639
  856MOL0     H15532  10.964   2.463  12.373 -0.9357 -0.8856  2.1151
  856MOL0     H15533  10.791   2.465  12.425 -0.6322 -0.8718 -0.3103
  856MOL0     H15534  10.899   2.670  12.229  0.3437  1.3750  1.1019
  856MOL0     H15535  10.735   2.655  12.302  0.0309  1.7346 -0.7546
  856MOL0     H15536  10.854   2.676  12.528  1.0830 -2.7122 -1.1285
  856MOL0     H15537  10.836   2.821  12.431 -1.7905 -0.6799 -1.7797
  856MOL0     H15538  11.054   2.759  12.548  0.6311  0.1822 -0.3133
  856MOL0     H15539  11.078   2.669  12.394 -0.1041 -1.6276  2.3630
  856MOL0     H15540  10.773   1.806  12.036  1.2159  2.1427  1.4241
  856MOL0     H15541  10.720   1.647  11.865 -1.4181 -1.2052  0.1707
  856MOL0     H15542  10.406   1.504  11.558 -1.0731  0.9481 -0.7001
  856MOL0     H15543  10.357   1.355  11.365  1.7817 -1.2543 -0.8175
  856MOL0     H15544  10.083   0.583   9.937  0.4686 -2.3537  0.0736
  856MOL0     H15545  10.334   0.643   9.906  0.9543 -0.9271  0.6872
  856MOL0     H15546  10.630   0.688   9.792  0.7627 -0.8959 -0.6560
  856MOL0     H15547  10.822   0.815   9.719  2.0059  0.5743 -0.4617
  856MOL0     H15548  11.157   0.839   9.963 -1.2105 -0.6311 -0.9461
  856MOL0     H15549  11.092   0.996  10.016 -0.0634 -0.1629  0.7725
  856MOL0     H15550  11.254   0.945   9.768  2.1747  1.5146  0.1240
  856MOL0     H15551  11.320   1.001   9.905 -0.6712 -3.6788  0.3181
  856MOL0     H15552  11.260   1.241   9.792 -3.8796  2.6957 -2.1007
  856MOL0     H15553  11.119   1.206   9.868  0.0147  1.9317 -0.2181
  856MOL0     H15554  11.043   1.089   9.656  1.1212  0.7159  1.1853
  856MOL0     H15555  11.096   1.260   9.627 -2.2649  0.3198 -0.7351
  856MOL0     H15556  11.408   1.034   9.431  1.3737  4.1395 -2.6848
  856MOL0     H15557  10.973   0.825  10.122 -4.0910  4.0897  1.7680
  856MOL0     H15558  10.731   0.750  10.290  0.8575  3.0324 -1.6977
  856MOL0     H15559  10.746   0.577  10.254 -0.5712 -0.1146 -1.7230
  856MOL0     H15560  10.888   0.698  10.266  1.7356  1.4384 -3.8321
  857MOL0     O15561   0.484   3.834   7.990 -0.8260 -0.3362 -0.1158
  857MOL0     C15562   0.604   3.818   7.978 -0.3985 -0.4908  0.1815
  857MOL0     O15563   0.703   3.898   8.052  0.7085 -0.0448 -0.3060
  857MOL0     C15564   0.649   3.982   8.151  0.2659  0.1942 -0.1521
  857MOL0     C15565   0.643   4.114   8.122  0.4422  0.6516 -0.4264
  857MOL0     C15566   0.610   4.196   8.224  0.0422 -0.3355 -0.2326
  857MOL0     C15567   0.576   4.157   8.354 -0.1064  0.5921  0.8609
  857MOL0     O15568   0.550   4.256   8.445  0.2622  0.6537  0.4058
  857MOL0     C15569   0.551   4.218   8.583  0.1904  0.1374  0.0996
  857MOL0     C15570   0.518   4.335   8.675 -0.3382  0.1680 -0.4891
  857MOL0     C15571   0.492   4.306   8.824  0.3124 -0.8269 -0.3996
  857MOL0     C15572   0.453   4.428   8.906 -0.2435 -0.3839 -0.7821
  857MOL0     C15573   0.328   4.501   8.853  0.6331 -0.1932 -0.2885
  857MOL0     C15574   0.297   4.617   8.954 -0.2085 -0.2872  0.5824
  857MOL0     C15575   0.390   4.741   8.910  0.0493  0.0339  0.7590
  857MOL0     C15576   0.447   4.827   9.032  0.5050  0.1262  0.1831
  857MOL0     N15577   0.515   4.950   8.994 -0.5037 -0.2430 -0.1326
  857MOL0     C15578   0.653   4.987   9.025  0.5680 -0.1206 -0.0323
  857MOL0     C15579   0.663   5.107   8.972  0.2695 -0.2653  0.6654
  857MOL0     C15580   0.773   5.204   9.008 -0.6463 -0.4049 -0.3296
  857MOL0     C15581   0.919   5.167   8.968 -0.5542  0.0685 -0.6273
  857MOL0     C15582   0.943   5.180   8.815 -0.0837 -0.8387 -0.6600
  857MOL0     C15583   0.976   5.329   8.779 -0.7923  0.0608 -0.3365
  857MOL0     O15584   1.046   5.338   8.660  0.3471  0.4211  0.0167
  857MOL0     C15585   0.977   5.293   8.555  0.1172  0.7570  0.6087
  857MOL0     C15586   1.007   5.171   8.513 -0.2365  0.2711  0.8674
  857MOL0     C15587   0.941   5.115   8.405  0.1410 -0.7141 -0.1334
  857MOL0     C15588   0.818   5.172   8.347  0.2107  0.0604 -0.6920
  857MOL0     C15589   0.729   5.109   8.246 -1.0215 -0.7226 -0.3255
  857MOL0     O15590   0.636   5.181   8.196 -0.3356 -0.0780  0.1174
  857MOL0     C15591   0.536   5.119   8.123  0.5667 -0.4613 -0.1577
  857MOL0     C15592   0.484   5.209   8.028  0.1414 -0.1869  0.5230
  857MOL0     C15593   0.367   5.177   7.955 -0.7373  0.8292 -0.5265
  857MOL0     C15594   0.295   5.062   7.975 -0.7318  0.2725  0.0103
  857MOL0     O15595   0.189   5.032   7.895  0.9886 -0.3312 -0.4913
  857MOL0     C15596   0.196   4.955   7.779  0.3812  0.3495 -0.0163
  857MOL0     C15597   0.049   4.913   7.755 -0.2909 -1.2661  1.0963
  857MOL0     C15598  -0.010   4.836   7.871  0.3342 -0.8147  0.4294
  857MOL0     C15599   0.040   4.690   7.875  0.3649  0.3918 -1.0390
  857MOL0     C15600  -0.054   4.598   7.950  1.4662  0.0484 -0.2923
  857MOL0     C15601  -0.092   4.642   8.089  0.4414 -0.3099 -0.2160
  857MOL0     C15602   0.022   4.636   8.189  0.0345 -0.9616 -0.6511
  857MOL0     C15603  -0.012   4.701   8.329  0.6243 -0.6754  0.1365
  857MOL0    Cl15604   0.122   4.666   8.444 -0.0825  0.0770  0.1937
  857MOL0     C15605   0.347   4.970   8.066 -0.1750  0.0935  1.0769
  857MOL0     C15606   0.465   4.998   8.144  0.8215  0.0381 -0.7993
  857MOL0     O15607   0.754   4.987   8.218  0.2263  0.0174  0.0227
  857MOL0     C15608   0.791   5.298   8.390  0.2465  0.1280  0.0114
  857MOL0     C15609   0.866   5.358   8.493  0.5381 -0.9117  0.2917
  857MOL0     N15610   0.549   5.137   8.899 -0.4392  0.5892 -1.2443
  857MOL0     N15611   0.461   5.048   8.924 -0.2651  0.7641 -0.8095
  857MOL0     C15612   0.574   4.017   8.374 -0.7280 -0.7510  1.0284
  857MOL0     C15613   0.609   3.930   8.274 -0.7990  0.2245  0.6378
  857MOL0     C15614   0.656   3.713   7.885  0.5091  0.2861 -1.3412
  857MOL0     C15615   0.553   3.653   7.810 -0.1642  1.2230 -0.3944
  857MOL0     C15616   0.582   3.551   7.722 -0.3657  1.0469 -1.1391
  857MOL0     C15617   0.710   3.506   7.709  0.0601  0.2234 -0.3777
  857MOL0     O15618   0.734   3.404   7.626  0.2182 -1.2053  0.9533
  857MOL0     C15619   0.707   3.272   7.675 -0.4206 -0.9259 -0.5289
  857MOL0     C15620   0.677   3.193   7.550  0.2483 -0.7549  0.0639
  857MOL0     C15621   0.804   3.167   7.468 -0.1113  0.0313  0.5723
  857MOL0     C15622   0.775   3.075   7.344  1.3792 -0.5558 -0.2660
  857MOL0     C15623   0.701   3.155   7.248 -0.1702  0.8246  0.7299
  857MOL0     C15624   0.640   3.235   7.180  0.1164 -0.4485 -0.4336
  857MOL0     C15625   0.817   3.569   7.768  0.5056 -0.6136 -1.3780
  857MOL0     C15626   0.796   3.677   7.854  0.4077 -0.0592 -0.1743
  857MOL0     C15627   0.908   3.755   7.921  0.1306 -0.9646  0.3876
  857MOL0     H15628   0.657   4.146   8.019 -1.7195 -2.9510 -2.0765
  857MOL0     H15629   0.630   4.302   8.219  0.6220 -0.4581 -0.5643
  857MOL0     H15630   0.474   4.144   8.603 -1.6527  2.7101  3.4505
  857MOL0     H15631   0.642   4.171   8.622  0.4087  1.1855  0.9073
  857MOL0     H15632   0.424   4.378   8.640 -0.1920  1.5218  0.7005
  857MOL0     H15633   0.598   4.410   8.677  0.0884 -0.2882 -0.1549
  857MOL0     H15634   0.589   4.274   8.863  1.1906  1.0965 -0.8850
  857MOL0     H15635   0.411   4.234   8.835  0.2260 -0.6993 -0.1942
  857MOL0     H15636   0.446   4.411   9.014 -0.5420  1.7845 -0.4231
  857MOL0     H15637   0.537   4.496   8.893 -1.2080  0.8563 -0.7094
  857MOL0     H15638   0.339   4.537   8.750  0.3640  1.2310  0.1511
  857MOL0     H15639   0.240   4.439   8.873 -0.0926  0.3421 -1.6784
  857MOL0     H15640   0.191   4.644   8.959 -0.4887 -0.9668 -1.0082
  857MOL0     H15641   0.323   4.590   9.057  0.4880 -1.8432  0.0251
  857MOL0     H15642   0.337   4.803   8.837  0.8328 -2.4843 -2.1106
  857MOL0     H15643   0.478   4.709   8.855 -0.0081 -2.6356  2.0833
  857MOL0     H15644   0.369   4.852   9.104 -0.9316 -1.0344 -0.9060
  857MOL0     H15645   0.511   4.762   9.093 -0.3188 -0.6701  0.2231
  857MOL0     H15646   0.727   4.938   9.087  0.1156 -1.0589 -0.2058
  857MOL0     H15647   0.749   5.298   8.957  1.8191 -0.9417 -2.7525
  857MOL0     H15648   0.773   5.236   9.112 -0.6586 -0.9504 -0.1628
  857MOL0     H15649   1.000   5.213   9.025 -1.4037  0.3262  0.3976
  857MOL0     H15650   0.929   5.059   8.983 -1.0141  0.1348  0.2179
  857MOL0     H15651   0.851   5.144   8.769 -1.7246 -0.8077  2.3871
  857MOL0     H15652   1.020   5.109   8.782  0.0155 -0.2731 -1.6839
  857MOL0     H15653   1.036   5.376   8.857 -0.3498  1.1296 -1.2970
  857MOL0     H15654   0.879   5.375   8.758 -0.4101  2.7295  2.9545
  857MOL0     H15655   1.079   5.097   8.544 -1.9644 -2.5148 -1.3126
  857MOL0     H15656   0.973   5.020   8.365 -1.9991 -1.7887  0.5810
  857MOL0     H15657   0.540   5.301   8.012  0.8402 -0.4320  1.4627
  857MOL0     H15658   0.356   5.251   7.877  1.4559  1.4454 -0.3312
  857MOL0     H15659   0.232   5.023   7.702  0.6769  0.2301  0.0148
  857MOL0     H15660   0.250   4.860   7.792 -2.6415 -1.4185  0.6052
  857MOL0     H15661  -0.012   4.997   7.718 -1.7844 -1.8763  2.0694
  857MOL0     H15662   0.055   4.857   7.661  2.5543 -2.4957  1.9193
  857MOL0     H15663   0.010   4.888   7.965  3.4853 -1.3080  0.1215
  857MOL0     H15664  -0.117   4.842   7.848  0.8544  0.9967 -1.8054
  857MOL0     H15665   0.145   4.685   7.905  0.4990  4.2193 -0.4099
  857MOL0     H15666   0.022   4.665   7.770  0.8219  1.7692 -1.4572
  857MOL0     H15667  -0.017   4.496   7.938 -1.9130 -1.0045 -3.0904
  857MOL0     H15668  -0.148   4.593   7.896 -0.1398  1.5068  2.1901
  857MOL0     H15669  -0.134   4.742   8.102  1.3482 -0.2035  2.4448
  857MOL0     H15670  -0.164   4.571   8.132 -1.7643  1.3940 -0.8982
  857MOL0     H15671   0.094   4.711   8.154 -0.1242 -1.2799 -1.6730
  857MOL0     H15672   0.053   4.532   8.186 -1.4170 -1.3923 -2.2218
  857MOL0     H15673  -0.033   4.807   8.310 -0.2305 -1.1968 -2.1961
  857MOL0     H15674  -0.112   4.664   8.353  0.9107 -0.0415  2.5902
  857MOL0     H15675   0.291   4.880   8.089 -1.3117  0.9862  1.8961
  857MOL0     H15676   0.474   4.927   8.226  0.6668  1.5178  0.5562
  857MOL0     H15677   0.703   5.353   8.359  0.3047  0.7000  0.8444
  857MOL0     H15678   0.833   5.454   8.532  2.2870  1.2979 -3.1978
  857MOL0     H15679   0.545   3.970   8.467 -2.1793  1.2479  1.6418
  857MOL0     H15680   0.616   3.822   8.277 -0.1781  0.0698 -2.6178
  857MOL0     H15681   0.449   3.683   7.812 -1.4686 -2.7072  0.6406
  857MOL0     H15682   0.509   3.510   7.653  0.9238  0.6394 -2.3069
  857MOL0     H15683   0.621   3.258   7.742  1.5039 -2.1203  1.8086
  857MOL0     H15684   0.800   3.235   7.718  1.7892  2.6046 -1.7943
  857MOL0     H15685   0.608   3.256   7.494  0.9978  1.0933  1.1416
  857MOL0     H15686   0.641   3.095   7.583  2.9593 -1.8437  0.0894
  857MOL0     H15687   0.881   3.108   7.518  0.1461  1.4778  1.9753
  857MOL0     H15688   0.849   3.264   7.446 -4.2077  1.7407 -1.3949
  857MOL0     H15689   0.870   3.049   7.296  1.8836  3.0567 -1.5455
  857MOL0     H15690   0.723   2.984   7.375  0.7776 -0.3150 -0.5339
  857MOL0     H15691   0.609   3.302   7.102  0.7406 -0.7733 -0.9688
  857MOL0     H15692   0.915   3.531   7.744  2.1658  1.3023  1.7470
  857MOL0     H15693   0.894   3.746   8.029 -0.7433 -0.3606  0.3380
  857MOL0     H15694   1.000   3.713   7.880 -1.0397 -3.5442  0.2481
  857MOL0     H15695   0.886   3.859   7.894  0.5241 -1.2216 -0.9850
  858MOL0     O15696   5.102   7.992   4.282  0.3169 -0.6599 -0.8005
  858MOL0     C15697   5.080   7.936   4.168  0.4507 -0.3049 -0.1017
  858MOL0     O15698   5.079   8.003   4.053  0.5123 -0.7274  0.3892
  858MOL0     C15699   5.165   8.112   4.030  0.0935  0.2805 -0.4216
  858MOL0     C15700   5.112   8.219   3.954 -0.0131  1.6481  0.5534
  858MOL0     C15701   5.207   8.307   3.898 -0.9671 -0.3018  0.3225
  858MOL0     C15702   5.342   8.307   3.935  0.0192  0.7726 -0.4866
  858MOL0     O15703   5.418   8.412   3.903 -0.6744  0.0179 -0.2636
  858MOL0     C15704   5.558   8.423   3.935 -0.0832 -0.4540 -0.9010
  858MOL0     C15705   5.600   8.577   3.905 -0.4045  1.0600  0.2320
  858MOL0     C15706   5.529   8.685   4.001 -1.2278  0.7959  0.7680
  858MOL0     C15707   5.443   8.775   3.918  0.8559  0.6800  0.1950
  858MOL0     C15708   5.396   8.899   3.997 -0.2171 -0.0410 -0.3522
  858MOL0     C15709   5.302   8.978   3.904  0.3856 -0.4926  0.2865
  858MOL0     C15710   5.164   8.906   3.909 -0.3953 -0.2185 -0.8464
  858MOL0     C15711   5.062   8.991   3.848  0.8252  0.6661 -0.7981
  858MOL0     N15712   4.916   8.956   3.889 -0.4496  0.6673 -0.1274
  858MOL0     C15713   4.827   8.871   3.827  0.0630 -0.4610  0.3096
  858MOL0     C15714   4.728   8.850   3.919 -0.3388  0.5401  0.1902
  858MOL0     C15715   4.606   8.780   3.885 -0.4082  0.8056  0.6464
  858MOL0     C15716   4.544   8.695   3.996 -0.5230 -0.6255  0.2205
  858MOL0     C15717   4.447   8.588   3.946  0.6983 -0.8034  0.1642
  858MOL0     C15718   4.365   8.536   4.056  0.1049 -0.2769  0.6646
  858MOL0     O15719   4.253   8.624   4.095  0.0729  0.8320 -0.5131
  858MOL0     C15720   4.126   8.594   4.053  0.1890  0.5643 -0.7359
  858MOL0     C15721   4.012   8.638   4.120  0.7892 -0.2288 -0.4099
  858MOL0     C15722   3.885   8.613   4.069 -0.8344  0.1136  1.3665
  858MOL0     C15723   3.866   8.541   3.951  0.2863  0.1225 -0.2102
  858MOL0     C15724   3.742   8.498   3.910  0.4887 -0.5145  0.4779
  858MOL0     O15725   3.703   8.531   3.779 -0.4355 -1.2366  0.2654
  858MOL0     C15726   3.579   8.510   3.726 -0.5079  0.1237  0.6793
  858MOL0     C15727   3.542   8.609   3.632  0.3335  0.3512  0.3154
  858MOL0     C15728   3.417   8.598   3.565 -0.2889 -0.9025 -0.8030
  858MOL0     C15729   3.326   8.497   3.606  0.0806 -0.8361  0.4930
  858MOL0     O15730   3.200   8.504   3.550 -0.6266  0.3500 -0.1886
  858MOL0     C15731   3.094   8.414   3.582 -0.1066 -0.1543 -0.7086
  858MOL0     C15732   2.967   8.442   3.514  0.4809 -0.3069  0.0402
  858MOL0     C15733   3.006   8.410   3.360  1.3634  0.0851 -0.4227
  858MOL0     C15734   2.878   8.410   3.284  1.0283 -1.0669  0.0132
  858MOL0     C15735   2.888   8.355   3.141 -0.1005  0.1458  0.0085
  858MOL0     C15736   2.992   8.426   3.055 -0.8709 -0.9514  0.9086
  858MOL0     C15737   3.010   8.363   2.916 -0.1389  1.0760 -0.4469
  858MOL0     C15738   2.902   8.381   2.816  0.0389  0.1750 -0.3944
  858MOL0    Cl15739   2.951   8.325   2.652  0.1625 -0.1509 -0.0192
  858MOL0     C15740   3.366   8.397   3.693 -0.2939  0.3186  0.0305
  858MOL0     C15741   3.495   8.400   3.748 -0.2613  0.1183 -0.3405
  858MOL0     O15742   3.672   8.431   3.991 -0.5487  0.3018 -0.0197
  858MOL0     C15743   3.983   8.490   3.885 -0.2852 -1.1751 -0.0863
  858MOL0     C15744   4.112   8.518   3.941 -1.1151  0.3757 -0.5489
  858MOL0     N15745   4.756   8.917   4.034 -0.5092  0.1467  0.2589
  858MOL0     N15746   4.865   8.979   4.008  0.3073  0.7525 -0.1830
  858MOL0     C15747   5.398   8.201   4.012  0.5551 -0.5832 -0.3008
  858MOL0     C15748   5.307   8.103   4.059  0.3837 -0.7256 -0.9371
  858MOL0     C15749   5.066   7.788   4.147 -0.5301 -0.4274 -0.7667
  858MOL0     C15750   4.951   7.722   4.098  0.7985  0.2730 -0.8026
  858MOL0     C15751   4.935   7.574   4.114 -0.5246  0.5719 -0.1392
  858MOL0     C15752   5.036   7.497   4.157  0.1071  0.3640 -0.0380
  858MOL0     O15753   5.017   7.358   4.173  0.9158  0.7168 -0.1997
  858MOL0     C15754   5.116   7.261   4.204 -0.2261  0.8468 -0.3674
  858MOL0     C15755   5.175   7.208   4.071  0.0642  0.0260 -0.8149
  858MOL0     C15756   5.084   7.230   3.945  0.0746 -0.7695  0.4442
  858MOL0     C15757   5.127   7.161   3.817  0.5247 -0.0598  0.4455
  858MOL0     C15758   5.270   7.163   3.785  0.4771 -0.8601  0.7730
  858MOL0     C15759   5.377   7.136   3.737  0.2728  0.0126 -0.5714
  858MOL0     C15760   5.157   7.562   4.198 -0.3646 -0.1011  0.3579
  858MOL0     C15761   5.174   7.708   4.191 -0.4233  0.2330  0.4637
  858MOL0     C15762   5.303   7.755   4.248 -0.0200  0.5424  0.3944
  858MOL0     H15763   5.010   8.200   3.923  0.0962  0.2204  1.0065
  858MOL0     H15764   5.166   8.375   3.824 -1.3221 -1.6866 -0.7924
  858MOL0     H15765   5.583   8.394   4.038 -1.0656  1.1633 -0.1650
  858MOL0     H15766   5.614   8.353   3.872  2.4469  0.8560 -0.2612
  858MOL0     H15767   5.578   8.587   3.799 -2.3169 -4.0255 -0.1519
  858MOL0     H15768   5.707   8.571   3.928 -0.2911 -1.1857 -0.5757
  858MOL0     H15769   5.607   8.740   4.055  2.0406 -0.6652 -2.0781
  858MOL0     H15770   5.469   8.625   4.069 -0.7539  0.0138  0.5124
  858MOL0     H15771   5.499   8.797   3.826  0.9535 -2.1996 -0.5389
  858MOL0     H15772   5.365   8.705   3.887 -0.4070  2.8377 -1.8958
  858MOL0     H15773   5.338   8.870   4.085  0.1065 -1.5577 -0.6141
  858MOL0     H15774   5.479   8.970   4.010  0.2475 -0.1215 -2.5262
  858MOL0     H15775   5.302   9.085   3.926 -1.9813  0.0384 -1.7156
  858MOL0     H15776   5.339   8.985   3.801  2.5084  2.3388  1.1432
  858MOL0     H15777   5.132   8.885   4.012  4.3083  0.8182  1.1018
  858MOL0     H15778   5.163   8.811   3.856 -0.0335  1.2388 -3.6638
  858MOL0     H15779   5.082   9.095   3.878 -1.2373  0.5217  1.4033
  858MOL0     H15780   5.084   8.983   3.741  0.3390  0.9221 -0.9239
  858MOL0     H15781   4.847   8.835   3.726  2.2669  0.8691  0.2023
  858MOL0     H15782   4.533   8.850   3.843 -1.2044 -0.3043  0.1081
  858MOL0     H15783   4.638   8.717   3.802 -0.3945  1.3340  0.2456
  858MOL0     H15784   4.622   8.651   4.059 -0.5333 -0.0721  0.6292
  858MOL0     H15785   4.485   8.759   4.062  0.1135  0.0784  0.1159
  858MOL0     H15786   4.501   8.506   3.899  1.0143 -0.7035  0.3543
  858MOL0     H15787   4.375   8.635   3.878  0.4661 -0.0672  0.8941
  858MOL0     H15788   4.436   8.528   4.139 -1.6903 -0.1721  2.2866
  858MOL0     H15789   4.331   8.432   4.058  2.0269 -0.9393  2.3303
  858MOL0     H15790   4.032   8.707   4.201  2.5966 -1.4090  0.1884
  858MOL0     H15791   3.793   8.644   4.118 -1.4882  1.6972 -0.6999
  858MOL0     H15792   3.621   8.678   3.602  3.2685 -2.3022  1.3743
  858MOL0     H15793   3.395   8.671   3.488  1.5260  0.6129  0.0352
  858MOL0     H15794   3.110   8.306   3.574 -2.5331 -0.5325 -1.5490
  858MOL0     H15795   3.071   8.425   3.688  0.4458  0.0699 -0.6105
  858MOL0     H15796   2.886   8.378   3.550 -2.9359  3.7505  0.3714
  858MOL0     H15797   2.925   8.542   3.523 -2.6670 -1.3160 -1.7761
  858MOL0     H15798   3.085   8.481   3.331  2.4060  0.0378  2.0131
  858MOL0     H15799   3.052   8.311   3.352  1.1979  0.0722 -1.2585
  858MOL0     H15800   2.834   8.510   3.287 -1.3147 -1.9908 -0.8215
  858MOL0     H15801   2.808   8.340   3.332  2.5548 -3.1479 -0.6163
  858MOL0     H15802   2.789   8.364   3.093 -1.5725  1.7334  3.0765
  858MOL0     H15803   2.916   8.250   3.152 -0.6639  0.0986  1.0556
  858MOL0     H15804   2.968   8.532   3.049 -1.8971 -1.1907  0.5136
  858MOL0     H15805   3.093   8.425   3.096  0.2841  0.5309 -1.6578
  858MOL0     H15806   3.028   8.255   2.921 -0.9811  0.9548  0.1523
  858MOL0     H15807   3.101   8.413   2.880 -1.0972  2.5350 -0.9541
  858MOL0     H15808   2.813   8.320   2.836 -0.1984  0.2184 -1.2797
  858MOL0     H15809   2.870   8.485   2.820  1.8870  0.8302 -1.2274
  858MOL0     H15810   3.303   8.316   3.729 -0.0486 -0.2686 -0.8492
  858MOL0     H15811   3.521   8.327   3.824  0.7025 -1.8008 -2.3974
  858MOL0     H15812   3.974   8.432   3.794 -0.1234  0.2374 -1.0271
  858MOL0     H15813   4.195   8.482   3.882 -2.1147 -0.1060 -1.7008
  858MOL0     H15814   5.495   8.207   4.061  0.3100  1.7752  0.0379
  858MOL0     H15815   5.352   8.025   4.119  3.8976  2.8426  1.5822
  858MOL0     H15816   4.863   7.772   4.059 -0.1716 -0.1276  0.7903
  858MOL0     H15817   4.838   7.531   4.091  0.6562 -2.7806  0.6169
  858MOL0     H15818   5.062   7.182   4.256 -2.0175  1.6744 -0.8908
  858MOL0     H15819   5.200   7.300   4.261  1.5519 -2.8650 -0.1895
  858MOL0     H15820   5.192   7.100   4.077  1.5040  0.3051  0.9918
  858MOL0     H15821   5.271   7.258   4.055  1.7201 -2.4836  0.5782
  858MOL0     H15822   5.094   7.338   3.928  1.8479 -1.2099 -1.7084
  858MOL0     H15823   4.976   7.220   3.959 -0.3519  2.0313 -0.2236
  858MOL0     H15824   5.080   7.064   3.800  1.9455 -0.3854 -2.2445
  858MOL0     H15825   5.076   7.217   3.737 -2.2153  0.0197  2.1084
  858MOL0     H15826   5.480   7.116   3.716  0.1288 -1.3289 -0.0756
  858MOL0     H15827   5.238   7.506   4.243  0.3565 -0.0449 -0.8349
  858MOL0     H15828   5.371   7.674   4.277  2.0172  2.1961  0.4985
  858MOL0     H15829   5.351   7.818   4.173 -2.5974 -1.9620 -3.7020
  858MOL0     H15830   5.279   7.817   4.335 -0.0446 -1.0703  1.5850
  859MOL0     O15831   1.646   6.411   1.347  0.6173 -0.1686 -0.1540
  859MOL0     C15832   1.748   6.433   1.404  0.3271  0.1962  0.0900
  859MOL0     O15833   1.780   6.400   1.531 -0.7265  0.6105  0.0340
  859MOL0     C15834   1.721   6.312   1.615 -0.1413  0.0981 -0.6419
  859MOL0     C15835   1.619   6.221   1.584  0.0422 -0.2090 -1.1704
  859MOL0     C15836   1.530   6.174   1.677 -0.1586 -0.5209  0.0634
  859MOL0     C15837   1.550   6.190   1.814  0.8912 -0.3278 -0.8056
  859MOL0     O15838   1.454   6.158   1.909  0.0868  0.5827  0.3363
  859MOL0     C15839   1.454   6.014   1.950  0.5801  0.2565 -0.5501
  859MOL0     C15840   1.332   5.992   2.032  0.7040  0.4662 -0.2871
  859MOL0     C15841   1.197   6.029   1.956  0.3510 -0.0997 -0.4331
  859MOL0     C15842   1.061   6.024   2.037 -0.0447  0.4043 -0.5228
  859MOL0     C15843   0.943   6.063   1.942 -0.3754 -0.1854 -0.0086
  859MOL0     C15844   0.932   6.212   1.904 -0.3851  1.0482  0.7564
  859MOL0     C15845   0.853   6.289   2.010 -0.1221  0.2019  0.1737
  859MOL0     C15846   0.826   6.434   1.974 -0.0017 -0.2348 -0.5731
  859MOL0     N15847   0.728   6.446   1.865  0.3945 -0.1860  0.5306
  859MOL0     C15848   0.607   6.385   1.883 -0.0599 -0.0450 -0.0124
  859MOL0     C15849   0.516   6.461   1.829 -0.3077 -1.3147 -0.1668
  859MOL0     C15850   0.364   6.449   1.859 -1.5683 -0.1918 -0.1944
  859MOL0     C15851   0.296   6.580   1.842 -0.1355  0.5577 -0.2904
  859MOL0     C15852   0.148   6.574   1.872  0.0544  0.0221  0.6284
  859MOL0     C15853   0.077   6.702   1.835 -0.2043 -0.2190  0.0839
  859MOL0     O15854  -0.049   6.704   1.892 -0.1520  0.3999 -0.6305
  859MOL0     C15855  -0.123   6.816   1.879 -0.4863 -0.1288 -0.2536
  859MOL0     C15856  -0.233   6.843   1.966  0.1220  0.0030 -0.5920
  859MOL0     C15857  -0.306   6.962   1.965 -0.9254 -0.0174 -0.1894
  859MOL0     C15858  -0.273   7.064   1.878  2.4641  0.2374  0.3056
  859MOL0     C15859  -0.351   7.185   1.870  0.4987  0.2670 -1.0208
  859MOL0     O15860  -0.274   7.281   1.815  0.6120  0.2068  0.1145
  859MOL0     C15861  -0.309   7.412   1.832 -0.5939 -0.2033 -0.9566
  859MOL0     C15862  -0.246   7.488   1.933 -0.0751  0.9907 -0.9381
  859MOL0     C15863  -0.264   7.628   1.932 -0.1640  0.3482 -0.6186
  859MOL0     C15864  -0.342   7.690   1.831  0.8827  0.2593  0.0058
  859MOL0     O15865  -0.361   7.820   1.809 -1.1714  0.2184 -0.9620
  859MOL0     C15866  -0.311   7.914   1.907 -0.1661  0.4338  0.3041
  859MOL0     C15867  -0.329   8.051   1.844 -1.1170 -0.6474  0.3090
  859MOL0     C15868  -0.470   8.098   1.832  0.4266  0.0559  0.4500
  859MOL0     C15869  -0.493   8.216   1.741  0.7392  0.5917 -0.3968
  859MOL0     C15870  -0.408   8.331   1.776  0.2278 -0.6832 -0.1453
  859MOL0     C15871  -0.434   8.440   1.675  0.6364 -1.3480  0.4396
  859MOL0     C15872  -0.375   8.565   1.737  0.0916  0.5420  0.3042
  859MOL0     C15873  -0.376   8.685   1.634  0.2193 -0.0462 -0.5653
  859MOL0    Cl15874  -0.230   8.725   1.520 -0.2380 -0.1561 -0.0575
  859MOL0     C15875  -0.404   7.609   1.740  0.1087 -0.1742 -0.0152
  859MOL0     C15876  -0.388   7.472   1.735  0.2348 -0.0603 -0.0069
  859MOL0     O15877  -0.459   7.202   1.935 -0.5329 -0.8731  0.4163
  859MOL0     C15878  -0.177   7.039   1.781 -0.3128 -0.5260 -0.6283
  859MOL0     C15879  -0.100   6.918   1.786 -0.0929 -0.3752  1.4369
  859MOL0     N15880   0.584   6.567   1.766  0.4929  0.4992  0.1643
  859MOL0     N15881   0.710   6.561   1.796  0.2754 -0.2197  0.9510
  859MOL0     C15882   1.659   6.277   1.850 -0.4809 -0.0220  0.6694
  859MOL0     C15883   1.741   6.338   1.747 -1.6979  0.9755  0.0229
  859MOL0     C15884   1.852   6.526   1.337  0.9039 -0.6189  0.2560
  859MOL0     C15885   1.829   6.572   1.208  0.1369 -0.3110  0.3400
  859MOL0     C15886   1.926   6.654   1.139  0.0319  0.5238  0.6263
  859MOL0     C15887   2.040   6.683   1.205 -0.2854  0.0333  0.3126
  859MOL0     O15888   2.122   6.767   1.138 -0.0331  0.6177  0.5185
  859MOL0     C15889   2.081   6.906   1.129 -0.4408  0.3553 -0.4490
  859MOL0     C15890   2.101   6.988   1.256  0.4896 -0.2266 -0.8880
  859MOL0     C15891   2.250   6.990   1.318  0.0075 -0.4936  0.6369
  859MOL0     C15892   2.280   7.113   1.407 -0.2340  0.2088  0.2784
  859MOL0     C15893   2.422   7.118   1.441 -0.2835  0.3208 -0.1372
  859MOL0     C15894   2.539   7.102   1.477  0.2700 -0.3791 -0.4292
  859MOL0     C15895   2.068   6.630   1.324  0.0238 -0.1239  1.0180
  859MOL0     C15896   1.969   6.571   1.401 -0.2677 -0.3987 -0.2989
  859MOL0     C15897   2.004   6.541   1.547 -0.1613 -0.1118  0.0817
  859MOL0     H15898   1.593   6.190   1.483  0.3637  0.8147 -1.5788
  859MOL0     H15899   1.432   6.137   1.648 -0.5496  1.4606 -1.3290
  859MOL0     H15900   1.454   5.958   1.856 -1.1158  0.6829 -0.8368
  859MOL0     H15901   1.546   5.991   2.005 -0.5346  1.1485  1.8309
  859MOL0     H15902   1.341   6.055   2.121 -0.5039 -1.4557  1.2856
  859MOL0     H15903   1.322   5.888   2.064  0.8978  0.7805  0.8276
  859MOL0     H15904   1.190   5.975   1.861 -3.0523  1.4587 -1.2201
  859MOL0     H15905   1.195   6.131   1.917  0.3128  0.7347  1.6282
  859MOL0     H15906   1.039   5.921   2.067  0.0256  0.0808 -1.5423
  859MOL0     H15907   1.069   6.088   2.125  2.1413  2.2657 -1.9598
  859MOL0     H15908   0.956   6.004   1.851 -0.1188 -0.1757  0.0190
  859MOL0     H15909   0.852   6.022   1.986 -1.1359 -0.2942 -1.6540
  859MOL0     H15910   1.029   6.260   1.889  0.5917 -1.5689 -2.4505
  859MOL0     H15911   0.892   6.225   1.803 -1.0301  1.3517  1.0420
  859MOL0     H15912   0.921   6.290   2.096  0.6983  2.4489 -0.4342
  859MOL0     H15913   0.757   6.241   2.031 -0.8135  0.8508 -1.3795
  859MOL0     H15914   0.774   6.492   2.051  0.9007  2.2042 -1.7000
  859MOL0     H15915   0.921   6.483   1.955 -0.7828  1.6551  0.1648
  859MOL0     H15916   0.584   6.289   1.928  2.5772 -0.5770  0.3529
  859MOL0     H15917   0.319   6.385   1.782 -1.3138  0.1774 -0.6576
  859MOL0     H15918   0.359   6.396   1.954  3.0714 -0.2291  0.2238
  859MOL0     H15919   0.347   6.653   1.905  2.2532 -1.4758  0.2658
  859MOL0     H15920   0.309   6.614   1.739  2.1665  2.7326  0.6370
  859MOL0     H15921   0.130   6.554   1.978  0.5337 -2.3491  0.3200
  859MOL0     H15922   0.097   6.501   1.808  0.0224  0.1872  0.4657
  859MOL0     H15923   0.079   6.705   1.725  1.2899 -1.3078  0.0508
  859MOL0     H15924   0.134   6.785   1.877  0.8768 -0.4854 -0.8178
  859MOL0     H15925  -0.258   6.767   2.039 -0.8637  0.0690 -0.8508
  859MOL0     H15926  -0.393   6.974   2.029 -4.4942 -0.3527 -4.4126
  859MOL0     H15927  -0.178   7.438   2.001  2.3944  0.4361 -3.6118
  859MOL0     H15928  -0.225   7.691   2.012 -2.5906  0.7513  0.3228
  859MOL0     H15929  -0.377   7.902   1.994  0.0097 -2.1910  0.1466
  859MOL0     H15930  -0.205   7.890   1.921 -0.5765 -1.2361  0.7529
  859MOL0     H15931  -0.289   8.128   1.911  0.1774  1.0550 -2.2521
  859MOL0     H15932  -0.267   8.047   1.754 -0.4548  0.5599  0.6977
  859MOL0     H15933  -0.536   8.019   1.793 -1.5691 -0.3205  4.1907
  859MOL0     H15934  -0.506   8.122   1.932  0.5194  2.3544 -0.0152
  859MOL0     H15935  -0.596   8.251   1.740  0.1203 -0.9400  2.2702
  859MOL0     H15936  -0.466   8.178   1.642 -0.1791 -1.6245  0.1538
  859MOL0     H15937  -0.301   8.311   1.772  0.4315  0.2334  0.6253
  859MOL0     H15938  -0.442   8.358   1.876 -3.0459 -1.8054 -0.8342
  859MOL0     H15939  -0.386   8.418   1.580  2.2127 -0.1170  0.9086
  859MOL0     H15940  -0.541   8.447   1.650  1.2273 -1.8212 -2.5285
  859MOL0     H15941  -0.282   8.530   1.785 -1.1366 -6.1418 -1.1989
  859MOL0     H15942  -0.449   8.585   1.815 -1.3415  1.8714 -1.3383
  859MOL0     H15943  -0.473   8.699   1.586 -0.1143 -0.3076  0.0124
  859MOL0     H15944  -0.389   8.772   1.699 -3.4630 -0.1151 -0.9623
  859MOL0     H15945  -0.473   7.663   1.677 -1.8847  0.8106  2.7830
  859MOL0     H15946  -0.424   7.417   1.649 -1.7931  1.5081 -0.2505
  859MOL0     H15947  -0.146   7.113   1.708 -1.7009  1.0148  0.2810
  859MOL0     H15948  -0.020   6.909   1.713 -1.1976  0.3916  0.0729
  859MOL0     H15949   1.688   6.305   1.950  3.9219  0.7177 -0.5868
  859MOL0     H15950   1.824   6.401   1.777 -0.5019 -0.7164  0.4148
  859MOL0     H15951   1.734   6.551   1.159 -0.0081  0.2529  0.3719
  859MOL0     H15952   1.895   6.681   1.039 -0.8568  0.5147  0.8888
  859MOL0     H15953   1.976   6.896   1.101 -0.2600 -0.9849 -0.7113
  859MOL0     H15954   2.137   6.957   1.050  0.6933  1.1016  0.7952
  859MOL0     H15955   2.032   6.942   1.328 -1.2454 -1.4189 -3.1856
  859MOL0     H15956   2.071   7.092   1.237 -0.5933 -1.0941 -4.9349
  859MOL0     H15957   2.314   6.982   1.230 -1.8521 -2.4595 -0.6304
  859MOL0     H15958   2.251   6.907   1.389 -3.0283 -0.5548  0.7770
  859MOL0     H15959   2.261   7.196   1.338  1.8964  0.6645  0.1676
  859MOL0     H15960   2.209   7.124   1.490  0.9488  0.2787  1.3014
  859MOL0     H15961   2.633   7.110   1.527 -0.9091 -0.6413  1.9731
  859MOL0     H15962   2.156   6.675   1.369  1.2655 -0.1931 -1.2258
  859MOL0     H15963   1.921   6.560   1.615  0.6265 -0.8089  1.2866
  859MOL0     H15964   2.021   6.434   1.562 -0.3947  0.0474  1.6431
  859MOL0     H15965   2.089   6.595   1.591 -0.0124 -0.6855  0.5196
  860MOL0     O15966   9.882   2.129  10.843 -0.1341  0.1883 -0.3723
  860MOL0     C15967   9.970   2.046  10.822 -0.6622  0.0166 -0.3803
  860MOL0     O15968   9.972   1.924  10.870  0.5593 -0.7230  0.1636
  860MOL0     C15969   9.875   1.891  10.960 -0.3179 -0.0216  0.6832
  860MOL0     C15970   9.798   1.778  10.933  0.1005 -0.3732  0.4623
  860MOL0     C15971   9.685   1.739  11.005  0.3808 -1.4426  1.0178
  860MOL0     C15972   9.640   1.822  11.110 -0.9707 -0.2641 -0.4848
  860MOL0     O15973   9.543   1.785  11.191 -1.4794  0.6749 -0.1324
  860MOL0     C15974   9.452   1.877  11.249 -0.0374  0.0638  0.4988
  860MOL0     C15975   9.487   1.916  11.396  0.8104 -0.2161  0.9523
  860MOL0     C15976   9.493   1.786  11.468  0.2522 -0.0097 -0.0748
  860MOL0     C15977   9.446   1.819  11.613  0.1552 -0.5959  0.5072
  860MOL0     C15978   9.456   1.700  11.710 -0.1839  0.3725 -0.8136
  860MOL0     C15979   9.356   1.597  11.664  0.0123 -0.5939  0.3174
  860MOL0     C15980   9.303   1.511  11.775  0.3471 -0.0638  0.2907
  860MOL0     C15981   9.410   1.423  11.830 -0.2163  0.4921  0.4233
  860MOL0     N15982   9.355   1.333  11.941  0.0558  0.5580  0.3439
  860MOL0     C15983   9.352   1.375  12.071  0.0692 -0.1025 -0.0202
  860MOL0     C15984   9.282   1.276  12.141 -0.4412 -0.4005  0.5215
  860MOL0     C15985   9.262   1.271  12.289  1.1762 -0.5608  0.5997
  860MOL0     C15986   9.122   1.330  12.324 -0.7832  1.1016  0.3663
  860MOL0     C15987   9.008   1.220  12.302 -0.1735 -0.1003  0.9968
  860MOL0     C15988   8.865   1.281  12.330 -0.0006 -0.2805  0.8750
  860MOL0     O15989   8.759   1.196  12.280 -0.0936 -0.1840 -0.9252
  860MOL0     C15990   8.770   1.067  12.315 -0.1649  0.4470 -0.0490
  860MOL0     C15991   8.726   0.973  12.222 -0.7875 -0.7466 -0.4049
  860MOL0     C15992   8.737   0.839  12.256  0.1284 -0.9006 -0.0643
  860MOL0     C15993   8.790   0.800  12.383 -0.7300 -0.4832  0.4598
  860MOL0     C15994   8.813   0.654  12.418  0.9249  0.6834 -0.4233
  860MOL0     O15995   8.822   0.607  12.547  0.1158  0.1079 -0.0116
  860MOL0     C15996   8.839   0.465  12.569  0.4607 -0.6814  0.4374
  860MOL0     C15997   8.947   0.413  12.645  0.1683 -1.0296 -0.0343
  860MOL0     C15998   8.951   0.280  12.680 -0.2359  0.0955 -0.2366
  860MOL0     C15999   8.852   0.193  12.633  0.4863  0.3412 -0.0915
  860MOL0     O16000   8.861   0.059  12.667 -0.4491  0.7299 -0.5256
  860MOL0     C16001   8.810  -0.051  12.587  0.0590 -0.1048  0.0048
  860MOL0     C16002   8.753  -0.149  12.682  0.2123 -0.8438 -1.0247
  860MOL0     C16003   8.658  -0.241  12.609 -0.3396  0.6444 -0.0991
  860MOL0     C16004   8.596  -0.329  12.714  0.3599  0.0582  0.2440
  860MOL0     C16005   8.688  -0.441  12.754  0.7000  0.3883 -0.3564
  860MOL0     C16006   8.596  -0.552  12.821 -1.3015  0.4478 -0.0740
  860MOL0     C16007   8.622  -0.574  12.968 -0.2776  1.3251 -0.0916
  860MOL0     C16008   8.556  -0.696  13.029  0.5150 -0.2100  0.7355
  860MOL0    Cl16009   8.381  -0.661  13.013  0.0599  0.0895 -0.9086
  860MOL0     C16010   8.746   0.241  12.549 -0.2301 -0.3588 -0.3206
  860MOL0     C16011   8.737   0.383  12.531 -0.7667  0.0014 -0.0166
  860MOL0     O16012   8.829   0.583  12.320 -0.1505  0.7087 -0.7771
  860MOL0     C16013   8.814   0.904  12.481 -0.0597  0.1904  0.3217
  860MOL0     C16014   8.805   1.035  12.449  0.3486 -0.6111  0.5096
  860MOL0     N16015   9.254   1.173  12.052  0.5253 -0.0318 -0.5068
  860MOL0     N16016   9.293   1.213  11.931 -0.5316 -0.0743 -0.2605
  860MOL0     C16017   9.722   1.936  11.142  0.5603 -0.2679 -0.5074
  860MOL0     C16018   9.833   1.965  11.069 -0.3139  0.3291 -0.0325
  860MOL0     C16019  10.084   2.073  10.733 -0.0502  0.0152  0.5040
  860MOL0     C16020  10.141   1.955  10.681 -0.4092  0.3325 -0.8783
  860MOL0     C16021  10.239   1.971  10.585 -0.3651 -0.1007  0.5013
  860MOL0     C16022  10.277   2.095  10.540  0.3012 -0.9964 -0.2932
  860MOL0     O16023  10.352   2.104  10.428  0.2959  0.8310 -0.1285
  860MOL0     C16024  10.302   2.070  10.299  0.1508 -0.0918 -0.4853
  860MOL0     C16025  10.162   2.117  10.272  0.0240  0.2986  0.7105
  860MOL0     C16026  10.127   2.099  10.120  0.1013  0.9239 -0.3466
  860MOL0     C16027   9.989   2.159  10.087 -0.5453  0.3705 -0.1565
  860MOL0     C16028   9.887   2.125  10.181 -0.3933 -0.0631 -0.3769
  860MOL0     C16029   9.796   2.128  10.259 -0.2729 -0.8525  0.9704
  860MOL0     C16030  10.227   2.212  10.600  0.2104 -0.3770  0.9092
  860MOL0     C16031  10.131   2.201  10.692 -0.0708 -0.1711  0.0927
  860MOL0     C16032  10.081   2.336  10.744  0.2572  0.9674 -0.4571
  860MOL0     H16033   9.823   1.723  10.843  3.1061 -0.1779  1.0554
  860MOL0     H16034   9.639   1.644  10.978 -1.6389  0.1082 -1.3955
  860MOL0     H16035   9.452   1.961  11.179 -0.3629 -0.2817  0.0818
  860MOL0     H16036   9.350   1.839  11.243  0.0413 -0.1582  0.5780
  860MOL0     H16037   9.405   1.981  11.426 -1.0371 -0.2625 -3.2551
  860MOL0     H16038   9.581   1.971  11.397  1.8037 -1.6749 -1.4375
  860MOL0     H16039   9.584   1.727  11.454  0.1684  0.1420 -1.3412
  860MOL0     H16040   9.419   1.714  11.432  2.2013 -1.6367 -1.0362
  860MOL0     H16041   9.525   1.889  11.643  0.8123 -1.5974  1.2192
  860MOL0     H16042   9.347   1.863  11.617  1.0531  1.5758  4.7407
  860MOL0     H16043   9.555   1.655  11.716 -0.6144 -0.7100 -1.5742
  860MOL0     H16044   9.424   1.728  11.811 -2.7996 -0.9231 -1.1879
  860MOL0     H16045   9.272   1.644  11.611  0.3298  2.3677  2.2156
  860MOL0     H16046   9.404   1.534  11.588  1.1473  0.0737  0.4632
  860MOL0     H16047   9.230   1.452  11.720  1.5643  0.4615 -2.0331
  860MOL0     H16048   9.260   1.567  11.858  2.4176  2.9240 -0.4908
  860MOL0     H16049   9.446   1.357  11.750 -0.5920  0.0501  0.6150
  860MOL0     H16050   9.497   1.479  11.867  0.9583 -1.1086  0.2086
  860MOL0     H16051   9.405   1.456  12.119 -2.3165  1.2243  0.5273
  860MOL0     H16052   9.251   1.166  12.319  2.1314 -1.0314 -0.6011
  860MOL0     H16053   9.344   1.331  12.329 -1.6897  1.9718  3.0569
  860MOL0     H16054   9.126   1.354  12.431 -0.0546  1.5407  0.2480
  860MOL0     H16055   9.110   1.423  12.269 -0.5294  1.8066  1.4760
  860MOL0     H16056   9.037   1.142  12.373  1.3465  0.5232  1.0974
  860MOL0     H16057   9.021   1.176  12.203  3.0751 -0.7513  1.5940
  860MOL0     H16058   8.868   1.382  12.289  2.2800 -0.9859 -0.9011
  860MOL0     H16059   8.847   1.299  12.437 -0.3989  1.6259  0.5240
  860MOL0     H16060   8.708   1.004  12.120  0.8198  2.2939  0.1022
  860MOL0     H16061   8.723   0.758  12.185  1.2116 -2.9208  1.8900
  860MOL0     H16062   9.023   0.486  12.671 -0.7508 -1.1810  3.7612
  860MOL0     H16063   9.027   0.237  12.745 -2.5059 -4.3012 -0.1188
  860MOL0     H16064   8.730  -0.013  12.523 -2.0226 -0.8763  2.0255
  860MOL0     H16065   8.887  -0.100  12.527  1.6123 -1.1339  2.6797
  860MOL0     H16066   8.833  -0.207  12.729 -0.0804  0.5719  1.3914
  860MOL0     H16067   8.709  -0.106  12.773  0.2942 -1.1803 -0.8234
  860MOL0     H16068   8.574  -0.193  12.559  1.6108  3.3999 -0.9608
  860MOL0     H16069   8.715  -0.296  12.534 -0.3208 -0.0882  0.4314
  860MOL0     H16070   8.502  -0.367  12.672  0.0961  0.1644  0.7201
  860MOL0     H16071   8.557  -0.274  12.801 -1.1087 -0.8667  0.2140
  860MOL0     H16072   8.768  -0.415  12.823 -0.6703 -2.0590  2.3621
  860MOL0     H16073   8.732  -0.498  12.671 -3.7194 -2.0924 -1.3085
  860MOL0     H16074   8.490  -0.524  12.810 -1.8691 -1.1417  1.0802
  860MOL0     H16075   8.610  -0.649  12.773  1.7054  1.5139 -1.5832
  860MOL0     H16076   8.595  -0.481  13.019  1.8772  0.4574  2.9579
  860MOL0     H16077   8.729  -0.586  12.987 -0.3532  3.2501  1.8520
  860MOL0     H16078   8.576  -0.787  12.972  1.7805  0.3152  0.3163
  860MOL0     H16079   8.595  -0.709  13.131 -0.1798 -3.1179  0.7356
  860MOL0     H16080   8.651   0.189  12.542 -0.7648  0.6487 -0.6129
  860MOL0     H16081   8.656   0.443  12.491  2.1619  3.9628 -0.5824
  860MOL0     H16082   8.837   0.883  12.585 -0.3803 -0.4064  0.2821
  860MOL0     H16083   8.825   1.111  12.525 -1.6259 -0.4302  0.8999
  860MOL0     H16084   9.706   2.003  11.226 -1.9602  0.2617 -1.3361
  860MOL0     H16085   9.890   2.051  11.102 -2.4734  0.5438  3.6721
  860MOL0     H16086  10.126   1.852  10.712  1.3129  0.0941 -0.7038
  860MOL0     H16087  10.301   1.889  10.548  2.7526  1.3998  1.9897
  860MOL0     H16088  10.305   1.962  10.279 -1.5222 -0.0824 -0.8921
  860MOL0     H16089  10.365   2.112  10.221 -1.3062  1.6540 -0.7841
  860MOL0     H16090  10.140   2.223  10.289  1.4823  0.9564 -1.2703
  860MOL0     H16091  10.091   2.066  10.339 -1.0125 -0.2818 -0.7823
  860MOL0     H16092  10.134   1.995  10.087 -1.6342  1.0115 -1.1105
  860MOL0     H16093  10.208   2.141  10.061  1.6627 -0.3275  0.8095
  860MOL0     H16094  10.002   2.267  10.096  0.1493  0.4415 -1.5915
  860MOL0     H16095   9.962   2.140   9.982 -1.2258 -0.8341  0.2236
  860MOL0     H16096   9.700   2.119  10.306 -1.8955 -2.4673 -2.2799
  860MOL0     H16097  10.273   2.298  10.553 -3.0131 -1.0725 -4.3071
  860MOL0     H16098  10.041   2.326  10.846  1.6203  1.6732  0.1770
  860MOL0     H16099  10.167   2.403  10.734  1.1974 -0.3907 -1.9227
  860MOL0     H16100  10.000   2.376  10.683 -0.0260 -0.7767 -1.2661
  861MOL0     O16101   1.967   2.529   1.495  0.0382  0.1367  0.4630
  861MOL0     C16102   2.079   2.524   1.537  0.0321  0.6445  0.2349
  861MOL0     O16103   2.160   2.636   1.548  0.4582 -0.1087 -0.7975
  861MOL0     C16104   2.114   2.761   1.573  0.3080 -0.4963 -0.3835
  861MOL0     C16105   1.981   2.805   1.590 -0.1163  0.4237  0.6387
  861MOL0     C16106   1.950   2.940   1.581  0.2006 -0.1642  0.2619
  861MOL0     C16107   2.048   3.038   1.576 -0.4280  0.3604 -0.3711
  861MOL0     O16108   2.006   3.165   1.604 -0.0102  0.0938  0.0715
  861MOL0     C16109   2.099   3.266   1.637  0.2788  0.3789  0.2707
  861MOL0     C16110   2.161   3.251   1.778 -0.1666 -0.2866 -0.2391
  861MOL0     C16111   2.309   3.210   1.768  1.1460 -0.2309 -0.2039
  861MOL0     C16112   2.404   3.240   1.887 -0.1665  0.9070 -0.4897
  861MOL0     C16113   2.544   3.190   1.846  0.8717 -0.0329  0.6834
  861MOL0     C16114   2.642   3.165   1.970  0.1215  0.5596 -0.0044
  861MOL0     C16115   2.682   3.295   2.045 -0.1500 -0.2427  0.7390
  861MOL0     C16116   2.795   3.264   2.154  0.1358 -0.0100  0.0245
  861MOL0     N16117   2.920   3.338   2.121 -0.3154  0.8564 -0.4360
  861MOL0     C16118   2.952   3.450   2.190 -0.4886  0.1404 -0.4195
  861MOL0     C16119   3.060   3.494   2.134  0.1231  0.5158 -0.1146
  861MOL0     C16120   3.160   3.600   2.190  1.1209 -0.0518 -0.4938
  861MOL0     C16121   3.177   3.724   2.106 -0.5674 -0.7267 -0.1981
  861MOL0     C16122   3.145   3.847   2.205  0.6533  0.3734  0.6435
  861MOL0     C16123   3.139   3.973   2.125 -0.8998 -0.5781  0.2545
  861MOL0     O16124   3.257   4.001   2.047  0.2482 -0.0838 -0.2959
  861MOL0     C16125   3.237   4.098   1.953 -0.1347  0.4037  0.1335
  861MOL0     C16126   3.313   4.094   1.834  0.6034 -1.4857 -0.1416
  861MOL0     C16127   3.292   4.183   1.731 -0.3396  0.7117 -0.2452
  861MOL0     C16128   3.209   4.292   1.750 -0.2513 -0.9908  0.1668
  861MOL0     C16129   3.211   4.403   1.651  0.0219 -0.3036  0.4918
  861MOL0     O16130   3.291   4.384   1.547 -0.4878  0.3938  0.2773
  861MOL0     C16131   3.306   4.481   1.460  1.0553  0.4758  0.5636
  861MOL0     C16132   3.226   4.481   1.343 -0.9020  0.4942 -0.0577
  861MOL0     C16133   3.254   4.566   1.234 -0.3201  0.3417  0.8382
  861MOL0     C16134   3.350   4.666   1.253  1.1353  0.4299  0.2487
  861MOL0     O16135   3.365   4.763   1.165  0.1556  0.5648 -0.0080
  861MOL0     C16136   3.283   4.774   1.044  1.1268  0.5602 -0.1877
  861MOL0     C16137   3.324   4.690   0.917 -0.8773  0.7387 -0.5098
  861MOL0     C16138   3.227   4.722   0.805  0.1802  0.0623  0.0028
  861MOL0     C16139   3.187   4.589   0.732 -0.5613 -0.9088 -0.0944
  861MOL0     C16140   3.060   4.604   0.642 -1.3328 -1.1153 -0.9894
  861MOL0     C16141   3.039   4.474   0.566  0.1476 -0.1990 -0.7139
  861MOL0     C16142   2.910   4.390   0.609 -0.4033 -0.1205  0.4678
  861MOL0     C16143   2.900   4.364   0.755 -0.6730  0.0544  0.1167
  861MOL0    Cl16144   2.791   4.213   0.768  0.3277  0.1338  0.4065
  861MOL0     C16145   3.434   4.665   1.363  0.2968  0.7478 -0.7912
  861MOL0     C16146   3.416   4.565   1.457 -0.2706  0.0384  0.2876
  861MOL0     O16147   3.139   4.499   1.661  0.5207  0.3192  0.5923
  861MOL0     C16148   3.130   4.299   1.865 -1.0736 -0.1433 -0.8077
  861MOL0     C16149   3.137   4.204   1.969 -1.0396  0.6372 -0.2171
  861MOL0     N16150   3.096   3.413   2.021 -0.3146  0.2129 -0.8382
  861MOL0     N16151   2.999   3.321   2.014 -0.5202 -0.5360 -0.4271
  861MOL0     C16152   2.177   2.997   1.559 -0.3275 -0.5985  0.2399
  861MOL0     C16153   2.214   2.860   1.557 -0.2966  0.8513 -0.2154
  861MOL0     C16154   2.147   2.393   1.566  0.1034 -0.5919 -0.1099
  861MOL0     C16155   2.289   2.389   1.570 -0.1933 -0.0862 -0.3325
  861MOL0     C16156   2.362   2.267   1.589  0.5328 -0.1948 -0.2470
  861MOL0     C16157   2.296   2.154   1.628  0.9953 -0.9691  0.7603
  861MOL0     O16158   2.360   2.038   1.643  0.5065  0.3242  0.5301
  861MOL0     C16159   2.307   1.945   1.734  0.6589  0.4434  0.6134
  861MOL0     C16160   2.388   1.820   1.748 -0.0135  0.0424  0.4162
  861MOL0     C16161   2.326   1.710   1.831  0.2027 -0.1164  0.1942
  861MOL0     C16162   2.315   1.729   1.983  0.5317  0.3047 -0.0685
  861MOL0     C16163   2.394   1.835   2.045 -0.2889 -0.2972  0.0177
  861MOL0     C16164   2.451   1.915   2.110  0.3994  0.1847  0.3865
  861MOL0     C16165   2.152   2.156   1.621  0.3305 -0.0214 -0.1948
  861MOL0     C16166   2.081   2.276   1.593  0.3286  0.1221  0.7975
  861MOL0     C16167   1.928   2.261   1.564  0.2897 -0.6650 -0.3626
  861MOL0     H16168   1.905   2.732   1.614  1.3400 -0.7363  1.9043
  861MOL0     H16169   1.847   2.971   1.590  0.7677  1.1292  3.9431
  861MOL0     H16170   2.181   3.268   1.564 -0.7738  0.2154 -0.9557
  861MOL0     H16171   2.047   3.360   1.614  1.1042  0.3202 -2.1040
  861MOL0     H16172   2.118   3.169   1.838 -1.8847 -0.1639 -1.2428
  861MOL0     H16173   2.153   3.349   1.826  1.7747 -0.7458  1.1365
  861MOL0     H16174   2.348   3.271   1.686 -0.4448  2.2516  0.7842
  861MOL0     H16175   2.328   3.104   1.745  2.9119 -0.0730  0.3709
  861MOL0     H16176   2.398   3.346   1.916 -3.1521  0.2777  1.6374
  861MOL0     H16177   2.361   3.178   1.966 -0.6099 -1.8032 -2.7094
  861MOL0     H16178   2.524   3.097   1.793  1.2860  1.1642 -1.6996
  861MOL0     H16179   2.591   3.259   1.775  1.8073 -0.6617  0.6733
  861MOL0     H16180   2.592   3.100   2.043 -0.5655  2.0627  0.8983
  861MOL0     H16181   2.732   3.120   1.927 -0.8558 -0.2081 -1.3044
  861MOL0     H16182   2.592   3.319   2.101 -1.4628 -0.6327 -1.1174
  861MOL0     H16183   2.703   3.384   1.984  3.4826 -2.0046 -0.9114
  861MOL0     H16184   2.762   3.294   2.254 -2.6190  1.3515 -1.1795
  861MOL0     H16185   2.806   3.155   2.155 -2.8384 -0.4019 -1.1517
  861MOL0     H16186   2.901   3.478   2.281  0.3937  3.0659 -0.7356
  861MOL0     H16187   3.118   3.621   2.289 -1.1167  2.2791 -1.8016
  861MOL0     H16188   3.258   3.554   2.204  1.3513 -0.6973 -3.6128
  861MOL0     H16189   3.282   3.738   2.077 -0.8527 -0.6970 -1.2630
  861MOL0     H16190   3.094   3.740   2.036 -3.2119 -2.4104  2.3137
  861MOL0     H16191   3.216   3.847   2.288  1.5423  0.4808 -0.1008
  861MOL0     H16192   3.046   3.838   2.252 -0.0652 -2.8268 -1.2041
  861MOL0     H16193   3.120   4.051   2.200  3.2817 -1.4461  2.5424
  861MOL0     H16194   3.050   3.975   2.061 -0.0719  0.5594 -0.8937
  861MOL0     H16195   3.384   4.013   1.825 -1.8562 -3.8338  0.5389
  861MOL0     H16196   3.338   4.163   1.635 -4.5561 -1.4506 -2.0522
  861MOL0     H16197   3.170   4.388   1.343  0.9018 -0.7515 -3.4385
  861MOL0     H16198   3.193   4.572   1.144  3.2189 -1.9920 -1.9610
  861MOL0     H16199   3.181   4.765   1.080  1.4144  0.5806  0.6458
  861MOL0     H16200   3.297   4.879   1.015  2.1062  0.5600  0.2464
  861MOL0     H16201   3.427   4.708   0.888 -0.2750 -0.7441  0.5312
  861MOL0     H16202   3.307   4.589   0.957  1.1277  0.9382  0.9849
  861MOL0     H16203   3.134   4.749   0.856 -0.9761 -3.7020  0.1623
  861MOL0     H16204   3.253   4.816   0.755  3.9888 -0.6138  0.4710
  861MOL0     H16205   3.165   4.520   0.814 -1.9585 -1.0794 -0.5909
  861MOL0     H16206   3.281   4.555   0.688 -0.7743 -3.5114  1.2901
  861MOL0     H16207   3.083   4.690   0.580  1.8652  0.4122  1.9681
  861MOL0     H16208   2.968   4.636   0.692 -0.2008 -2.4271  2.1972
  861MOL0     H16209   3.047   4.494   0.459  2.9873 -0.9676 -0.7299
  861MOL0     H16210   3.116   4.398   0.584  0.6862  0.5037  0.0319
  861MOL0     H16211   2.901   4.297   0.551 -4.2728  0.3498  0.0010
  861MOL0     H16212   2.824   4.451   0.580 -0.9199  0.1430  2.3989
  861MOL0     H16213   3.001   4.343   0.792 -1.2747  0.4001  2.1076
  861MOL0     H16214   2.847   4.443   0.808  0.6034  0.9518  0.0911
  861MOL0     H16215   3.521   4.729   1.360  1.0485 -0.2387 -0.4105
  861MOL0     H16216   3.484   4.563   1.542 -0.0428 -0.6254  0.0951
  861MOL0     H16217   3.063   4.377   1.899 -2.1819 -1.4452  0.0642
  861MOL0     H16218   3.082   4.225   2.061 -3.0272 -0.2083 -1.1575
  861MOL0     H16219   2.255   3.069   1.536 -0.6105 -0.6325 -0.9073
  861MOL0     H16220   2.320   2.844   1.538  0.4203  1.7074  2.6296
  861MOL0     H16221   2.344   2.480   1.548 -0.4075 -0.0074 -0.5498
  861MOL0     H16222   2.470   2.254   1.580  0.6099  0.2053  0.0445
  861MOL0     H16223   2.202   1.930   1.710  0.8368  2.0638 -1.5336
  861MOL0     H16224   2.319   1.986   1.835 -1.3613 -2.0341  1.9565
  861MOL0     H16225   2.488   1.846   1.782 -1.4560  5.6376  1.3861
  861MOL0     H16226   2.393   1.775   1.648  0.4593  1.3990 -0.1839
  861MOL0     H16227   2.376   1.615   1.812 -0.7205 -0.8457  1.2791
  861MOL0     H16228   2.225   1.701   1.792  0.3117 -1.5271  0.1938
  861MOL0     H16229   2.208   1.749   1.993  0.1401  0.2310 -3.1286
  861MOL0     H16230   2.336   1.632   2.028  0.3107 -0.0320 -0.6766
  861MOL0     H16231   2.490   2.000   2.163  1.6772  0.2467 -0.5857
  861MOL0     H16232   2.085   2.071   1.632  0.5608 -0.0225  1.3170
  861MOL0     H16233   1.920   2.253   1.455  1.6837  1.6063 -0.6992
  861MOL0     H16234   1.883   2.170   1.606 -2.0841 -0.0292 -1.3614
  861MOL0     H16235   1.869   2.348   1.594  0.1771 -0.9774  0.3379
  862MOL0     O16236   5.509   7.459   8.488  0.1358  0.3382 -0.3989
  862MOL0     C16237   5.550   7.352   8.445  0.0352  0.3591 -1.0065
  862MOL0     O16238   5.684   7.310   8.452 -0.5990 -0.0621  0.9262
  862MOL0     C16239   5.783   7.364   8.532 -0.1488  0.2586  0.4808
  862MOL0     C16240   5.765   7.470   8.624 -0.5918 -0.5595  0.5793
  862MOL0     C16241   5.881   7.531   8.674  0.2607  0.6931 -0.4152
  862MOL0     C16242   6.010   7.476   8.669  1.3608  0.1438 -0.4863
  862MOL0     O16243   6.122   7.532   8.711  0.4369 -0.7108 -0.2684
  862MOL0     C16244   6.117   7.652   8.790  0.2156 -0.8824 -0.8706
  862MOL0     C16245   6.261   7.650   8.849 -0.2401 -0.8509  0.0664
  862MOL0     C16246   6.348   7.738   8.755  0.5214  0.2685  0.6562
  862MOL0     C16247   6.501   7.724   8.777 -0.0770 -0.0922 -0.1668
  862MOL0     C16248   6.597   7.778   8.664  0.4743 -0.2877  0.1021
  862MOL0     C16249   6.745   7.810   8.708  0.1312  0.7363  0.2459
  862MOL0     C16250   6.818   7.893   8.596  0.3867 -0.1264 -0.2247
  862MOL0     C16251   6.946   7.961   8.654 -0.0107 -0.6744  0.2389
  862MOL0     N16252   6.968   8.088   8.583 -0.8652  0.0641  0.0997
  862MOL0     C16253   6.938   8.207   8.635  0.4566 -0.1002 -0.3063
  862MOL0     C16254   6.973   8.298   8.544  0.7587 -1.4399 -0.1820
  862MOL0     C16255   6.967   8.448   8.577  0.2372 -0.6768 -0.0759
  862MOL0     C16256   7.066   8.521   8.486 -0.3275 -0.7627 -0.9499
  862MOL0     C16257   7.065   8.672   8.514  0.5642 -0.6504  0.2756
  862MOL0     C16258   7.173   8.709   8.610 -0.9142 -0.8132 -0.6662
  862MOL0     O16259   7.153   8.845   8.647 -0.1746 -0.8294 -0.3611
  862MOL0     C16260   7.066   8.887   8.747  0.4339  1.0783  0.3858
  862MOL0     C16261   6.977   8.993   8.715  0.2640  0.0777 -0.5807
  862MOL0     C16262   6.885   9.033   8.810  0.0337  0.6037 -0.7062
  862MOL0     C16263   6.885   8.978   8.942  0.8412 -0.1556  0.3724
  862MOL0     C16264   6.791   9.037   9.036  1.0251  0.6186 -0.5281
  862MOL0     O16265   6.797   8.982   9.160  0.7282  0.1753  0.6991
  862MOL0     C16266   6.737   9.035   9.267  0.1675 -0.9299  1.3108
  862MOL0     C16267   6.643   8.960   9.339 -0.4678  0.0804 -0.2028
  862MOL0     C16268   6.576   9.009   9.451  0.6880  2.0197  0.6929
  862MOL0     C16269   6.615   9.122   9.513 -0.2440 -0.3835 -0.2471
  862MOL0     O16270   6.558   9.147   9.635  0.2689  0.1400  0.1569
  862MOL0     C16271   6.560   9.277   9.691  0.0864 -0.1480 -0.4500
  862MOL0     C16272   6.451   9.283   9.801 -0.1484 -0.4914  0.9125
  862MOL0     C16273   6.476   9.198   9.929 -0.1423 -0.0452 -0.2145
  862MOL0     C16274   6.358   9.165  10.026  0.3278  0.8242  0.3402
  862MOL0     C16275   6.306   9.306  10.071 -0.4426  0.6404  0.1411
  862MOL0     C16276   6.203   9.294  10.172  0.6561 -0.1852 -0.5841
  862MOL0     C16277   6.161   9.444  10.220  0.5804 -0.0460 -0.3054
  862MOL0     C16278   6.274   9.529  10.291 -0.6556  0.0780  0.0530
  862MOL0    Cl16279   6.342   9.431  10.429 -0.0793 -0.0974  0.1423
  862MOL0     C16280   6.719   9.198   9.444  0.4993  0.5111 -0.5972
  862MOL0     C16281   6.775   9.160   9.319  0.2231 -0.3430 -0.2221
  862MOL0     O16282   6.709   9.117   9.002 -0.2553  0.6122  0.7092
  862MOL0     C16283   6.985   8.884   8.970 -1.2977 -0.3967  0.1595
  862MOL0     C16284   7.071   8.835   8.876  0.2484  0.8976  0.0036
  862MOL0     N16285   7.021   8.240   8.431  0.5801  0.0818 -1.0693
  862MOL0     N16286   7.018   8.107   8.461  0.4219 -0.5506  0.5259
  862MOL0     C16287   6.025   7.374   8.583  0.7155  0.3091  1.1398
  862MOL0     C16288   5.912   7.315   8.515 -0.1150  1.0055  0.4872
  862MOL0     C16289   5.456   7.273   8.370  0.2404  0.4634  0.0794
  862MOL0     C16290   5.492   7.222   8.242  0.1379 -0.9728 -0.1152
  862MOL0     C16291   5.398   7.159   8.152  0.5492  0.2064 -0.7390
  862MOL0     C16292   5.270   7.141   8.207 -0.7453  0.6545 -0.4203
  862MOL0     O16293   5.185   7.074   8.118 -0.9235  0.1034 -0.7848
  862MOL0     C16294   5.052   7.041   8.174  0.8041 -0.0095 -0.3296
  862MOL0     C16295   4.962   6.954   8.081 -0.0115 -0.5926 -0.5630
  862MOL0     C16296   5.048   6.859   7.985  0.8029 -0.7962  0.0572
  862MOL0     C16297   4.969   6.760   7.889 -1.1317  0.1322  0.1988
  862MOL0     C16298   5.054   6.648   7.843  0.4186  0.1326  0.3127
  862MOL0     C16299   5.106   6.547   7.818  0.2105  0.6838  0.3948
  862MOL0     C16300   5.240   7.181   8.344 -0.4650 -0.1626  0.1325
  862MOL0     C16301   5.327   7.248   8.425  0.2496  0.7195 -1.3050
  862MOL0     C16302   5.300   7.293   8.568  0.2256  0.6846 -0.7389
  862MOL0     H16303   5.673   7.511   8.665  0.6232  0.9286  1.9594
  862MOL0     H16304   5.862   7.621   8.732  2.8771 -0.7482  3.0958
  862MOL0     H16305   6.092   7.736   8.725 -0.6711 -0.2223  0.3049
  862MOL0     H16306   6.046   7.647   8.872  0.2803 -2.1248 -0.8609
  862MOL0     H16307   6.304   7.549   8.850  0.8225 -0.4058 -0.1416
  862MOL0     H16308   6.261   7.693   8.950  2.8206 -0.7445  0.1165
  862MOL0     H16309   6.303   7.830   8.793 -3.3258 -0.5426 -1.4087
  862MOL0     H16310   6.322   7.723   8.650 -0.7754 -1.0529  1.1430
  862MOL0     H16311   6.534   7.774   8.868  1.2938  3.3397 -2.3574
  862MOL0     H16312   6.518   7.616   8.789  0.8637 -0.1168 -1.4633
  862MOL0     H16313   6.598   7.711   8.578 -1.0647  1.9186 -1.7789
  862MOL0     H16314   6.563   7.871   8.616 -1.9911 -1.7339 -1.1177
  862MOL0     H16315   6.736   7.875   8.796  3.5612  1.1007  0.4709
  862MOL0     H16316   6.801   7.725   8.748  0.4915  1.0741  0.4626
  862MOL0     H16317   6.744   7.966   8.563  0.8677 -0.4673 -2.1826
  862MOL0     H16318   6.843   7.819   8.519  1.4185 -0.4738  0.4212
  862MOL0     H16319   6.916   7.988   8.756  1.4875  1.7899  0.1072
  862MOL0     H16320   7.035   7.901   8.631 -0.8927 -1.7149 -0.5549
  862MOL0     H16321   6.907   8.223   8.737  3.6104 -4.0102  1.5826
  862MOL0     H16322   6.868   8.491   8.561 -0.3046  0.4868  4.7994
  862MOL0     H16323   6.993   8.475   8.680 -0.1645  2.5779 -0.7113
  862MOL0     H16324   7.168   8.481   8.497 -0.5707 -0.7281  2.7467
  862MOL0     H16325   7.023   8.513   8.386 -3.3243 -0.7397  0.2478
  862MOL0     H16326   6.967   8.704   8.551  1.0122  0.7115  0.3415
  862MOL0     H16327   7.081   8.729   8.423  0.2836 -1.5333 -0.3418
  862MOL0     H16328   7.271   8.700   8.562 -1.1201 -2.0907 -0.8895
  862MOL0     H16329   7.162   8.651   8.701 -1.4494  0.2871 -0.0083
  862MOL0     H16330   6.979   9.047   8.621  2.5532  0.4111 -0.3995
  862MOL0     H16331   6.803   9.098   8.780 -0.7599 -0.7063 -1.4918
  862MOL0     H16332   6.615   8.857   9.320  1.7014 -0.2710 -1.9473
  862MOL0     H16333   6.495   8.951   9.494 -0.4673  3.6650  0.8475
  862MOL0     H16334   6.659   9.293   9.736 -0.2479  2.2060 -0.4259
  862MOL0     H16335   6.537   9.352   9.614  1.3281  0.4236 -0.2959
  862MOL0     H16336   6.446   9.387   9.834  2.4170 -0.6052  1.9321
  862MOL0     H16337   6.351   9.262   9.762  0.2359 -1.2625  0.3165
  862MOL0     H16338   6.516   9.099   9.905  2.3511  0.0486  2.7891
  862MOL0     H16339   6.557   9.233   9.994 -0.2347 -1.8208  0.9173
  862MOL0     H16340   6.382   9.090  10.102 -1.8886 -0.9469 -0.5876
  862MOL0     H16341   6.283   9.104   9.975 -1.1588  0.2072  3.0992
  862MOL0     H16342   6.263   9.366   9.991 -2.4678 -1.3203 -0.3257
  862MOL0     H16343   6.392   9.356  10.118 -1.5140  3.5628 -0.8210
  862MOL0     H16344   6.113   9.241  10.139  0.5863 -0.0872 -0.5530
  862MOL0     H16345   6.249   9.236  10.253 -1.2227 -1.3353 -0.2836
  862MOL0     H16346   6.073   9.435  10.284 -0.3296  1.8496 -1.1828
  862MOL0     H16347   6.116   9.504  10.140  1.4346  2.5953  1.0782
  862MOL0     H16348   6.360   9.543  10.225 -0.7061 -0.8956 -0.2393
  862MOL0     H16349   6.237   9.628  10.319  1.1917  0.6723  0.5510
  862MOL0     H16350   6.754   9.289   9.492 -1.0352  0.3684  0.8918
  862MOL0     H16351   6.849   9.227   9.276 -0.4033  0.5679  0.0690
  862MOL0     H16352   7.004   8.848   9.071  1.9871  1.4831  0.3669
  862MOL0     H16353   7.142   8.758   8.903  1.5413  2.7613  2.4007
  862MOL0     H16354   6.126   7.345   8.555  1.5090  2.5568  1.4875
  862MOL0     H16355   5.923   7.239   8.437  1.1335  0.3775  1.2376
  862MOL0     H16356   5.588   7.254   8.203 -1.2510  3.6709 -0.3174
  862MOL0     H16357   5.434   7.132   8.054 -1.4418  0.5991 -1.6347
  862MOL0     H16358   5.002   7.136   8.197 -0.4393 -0.1271 -2.3052
  862MOL0     H16359   5.061   6.981   8.265 -1.4396  0.8981  0.5474
  862MOL0     H16360   4.900   7.015   8.014  3.0298  0.7210 -2.3946
  862MOL0     H16361   4.900   6.890   8.144 -1.0438 -2.5296 -3.3130
  862MOL0     H16362   5.118   6.806   8.051  1.1487  0.5424  0.7859
  862MOL0     H16363   5.106   6.913   7.910 -1.4655  0.7637 -0.6662
  862MOL0     H16364   4.889   6.707   7.941 -0.4585 -2.9784 -1.6450
  862MOL0     H16365   4.919   6.808   7.804 -1.3670 -2.3082 -1.1244
  862MOL0     H16366   5.168   6.460   7.803 -1.9107 -0.3536 -3.5788
  862MOL0     H16367   5.139   7.187   8.382 -1.6544 -0.1961 -2.7661
  862MOL0     H16368   5.218   7.236   8.613  4.3998 -3.1531  3.0805
  862MOL0     H16369   5.389   7.285   8.631 -0.1077 -2.2103 -0.4808
  862MOL0     H16370   5.270   7.397   8.577 -2.1995  0.0497 -0.5942
  863MOL0     O16371   6.358   9.058   2.938 -0.3111  0.4592 -0.5333
  863MOL0     C16372   6.279   8.973   2.984 -0.0167  0.0357 -0.8909
  863MOL0     O16373   6.313   8.867   3.063 -0.2072  0.3015 -0.4133
  863MOL0     C16374   6.436   8.850   3.124  0.1929  0.7411  0.3509
  863MOL0     C16375   6.450   8.742   3.214  1.1515 -0.1190  0.6584
  863MOL0     C16376   6.556   8.716   3.302 -0.1310 -0.5266 -0.8091
  863MOL0     C16377   6.662   8.807   3.298  0.4139 -0.3267  0.5567
  863MOL0     O16378   6.774   8.787   3.377  0.1471  0.0897  0.4090
  863MOL0     C16379   6.861   8.904   3.385 -0.4208  0.5665 -0.3681
  863MOL0     C16380   6.974   8.882   3.499 -0.3542 -0.0746 -0.0627
  863MOL0     C16381   7.075   8.983   3.492 -0.9068  0.6662  0.3787
  863MOL0     C16382   7.201   8.972   3.582  0.3061  0.7151 -0.5647
  863MOL0     C16383   7.175   8.970   3.735 -0.1856  0.1603  0.0847
  863MOL0     C16384   7.107   9.093   3.784 -0.4674 -0.2745  0.1523
  863MOL0     C16385   7.134   9.110   3.932  0.0150  0.4994 -0.0922
  863MOL0     C16386   7.027   9.209   3.992  0.0129 -1.3095 -0.5483
  863MOL0     N16387   6.886   9.199   3.950  0.5625 -0.1949  0.8550
  863MOL0     C16388   6.800   9.098   3.978 -0.0910  1.4041 -0.2409
  863MOL0     C16389   6.683   9.146   3.932 -0.0755  0.1207 -0.4368
  863MOL0     C16390   6.548   9.075   3.927  0.6385 -0.0048  0.2088
  863MOL0     C16391   6.519   9.037   4.075  0.6513  0.7889  0.2962
  863MOL0     C16392   6.495   9.164   4.155  0.4830 -0.0797 -0.7891
  863MOL0     C16393   6.422   9.136   4.286  0.0589 -0.1438  1.5319
  863MOL0     O16394   6.288   9.087   4.263 -0.1992  0.1156  0.6969
  863MOL0     C16395   6.266   8.981   4.345 -0.4018  0.7244 -1.0934
  863MOL0     C16396   6.288   8.843   4.298 -0.3119  0.5700  0.2941
  863MOL0     C16397   6.267   8.727   4.376  0.3237  0.6435  0.3832
  863MOL0     C16398   6.226   8.752   4.509 -0.2181  0.1839 -0.0049
  863MOL0     C16399   6.202   8.632   4.599 -0.6199 -0.7288 -0.6127
  863MOL0     O16400   6.258   8.656   4.725  0.5578 -0.1408 -0.0163
  863MOL0     C16401   6.249   8.564   4.825 -0.1167 -0.1623  0.2162
  863MOL0     C16402   6.252   8.615   4.952  0.8078  0.3274  0.6999
  863MOL0     C16403   6.241   8.528   5.064 -0.2146  0.0307 -0.2870
  863MOL0     C16404   6.250   8.390   5.050  0.4027 -1.1913  0.0736
  863MOL0     O16405   6.243   8.322   5.169 -0.0080  0.0440  0.2810
  863MOL0     C16406   6.194   8.190   5.162  0.1631 -0.1908  0.4761
  863MOL0     C16407   6.187   8.148   5.311 -0.2672  0.2043  0.6025
  863MOL0     C16408   6.098   8.028   5.332  0.6938 -0.9574  0.2290
  863MOL0     C16409   6.096   7.991   5.488 -0.2805 -0.1667  0.8823
  863MOL0     C16410   5.980   7.913   5.528  0.5174  0.1425 -0.4831
  863MOL0     C16411   5.839   7.977   5.502  1.0287 -0.0780  0.0570
  863MOL0     C16412   5.724   7.897   5.577 -0.2312  0.5981 -0.5954
  863MOL0     C16413   5.605   7.928   5.494  0.5872 -0.6177  0.0924
  863MOL0    Cl16414   5.468   7.865   5.572 -0.0512 -0.0133  0.3838
  863MOL0     C16415   6.245   8.335   4.917 -0.3047  0.1222 -0.3955
  863MOL0     C16416   6.238   8.427   4.804 -0.0599 -0.3182  0.2140
  863MOL0     O16417   6.144   8.537   4.553  0.3795  0.9780 -0.0724
  863MOL0     C16418   6.203   8.882   4.559 -0.2561 -0.6796  0.4281
  863MOL0     C16419   6.216   8.994   4.478 -0.3043 -0.4995 -0.6181
  863MOL0     N16420   6.707   9.273   3.871  0.6324  0.7918 -0.1900
  863MOL0     N16421   6.829   9.302   3.877 -0.1324  0.6714  0.4033
  863MOL0     C16422   6.654   8.907   3.206 -0.0851 -0.3514  0.3453
  863MOL0     C16423   6.551   8.927   3.119  0.1328 -0.3558  0.7871
  863MOL0     C16424   6.143   8.975   2.938  0.8791 -0.0487  0.4030
  863MOL0     C16425   6.116   9.010   2.807 -1.1598 -0.2440  0.2994
  863MOL0     C16426   5.988   9.023   2.760 -0.1599  0.4777  0.1709
  863MOL0     C16427   5.872   8.991   2.844 -0.3884  0.2951  0.4535
  863MOL0     O16428   5.739   8.986   2.813 -0.3694  0.2015 -0.4378
  863MOL0     C16429   5.697   9.079   2.709  0.3002  0.0536  0.1771
  863MOL0     C16430   5.550   9.069   2.685  0.4605  0.0373 -0.3291
  863MOL0     C16431   5.480   9.116   2.804  0.6935  0.0622 -0.1559
  863MOL0     C16432   5.328   9.116   2.783  0.4739  0.7442  0.0209
  863MOL0     C16433   5.244   9.200   2.867 -0.8662  0.5081 -0.9894
  863MOL0     C16434   5.177   9.269   2.951 -0.0662  0.0665  0.3032
  863MOL0     C16435   5.900   8.953   2.972 -0.6909  0.2195  0.3363
  863MOL0     C16436   6.030   8.946   3.028 -0.6231  0.2179 -0.1213
  863MOL0     C16437   6.052   8.916   3.175  0.6096  0.5762 -0.6692
  863MOL0     H16438   6.355   8.689   3.218 -2.4038  5.2186 -1.4981
  863MOL0     H16439   6.563   8.629   3.367  1.0007 -1.6696 -2.3918
  863MOL0     H16440   6.913   8.921   3.290  2.1309 -1.7193  0.4975
  863MOL0     H16441   6.810   8.997   3.413 -0.2550  0.2994  0.9036
  863MOL0     H16442   7.026   8.787   3.487 -0.0210 -0.3764  2.9738
  863MOL0     H16443   6.923   8.880   3.596 -2.1204 -1.7683 -0.9611
  863MOL0     H16444   7.040   9.083   3.518  2.1835  1.7397  0.8372
  863MOL0     H16445   7.113   8.984   3.390 -1.9119  1.7796 -0.0112
  863MOL0     H16446   7.242   8.872   3.563 -2.5103 -2.3948  6.2071
  863MOL0     H16447   7.279   9.042   3.551  1.8785 -0.3385  0.8089
  863MOL0     H16448   7.108   8.893   3.774 -0.8232  2.1165  3.2150
  863MOL0     H16449   7.270   8.949   3.786 -0.3264  0.7955  0.6253
  863MOL0     H16450   7.151   9.179   3.733 -0.1855 -1.0763 -1.0014
  863MOL0     H16451   6.999   9.093   3.767 -0.3926  0.0595 -0.3690
  863MOL0     H16452   7.237   9.142   3.947  1.0460 -1.5284 -2.0980
  863MOL0     H16453   7.127   9.014   3.985 -4.2158  0.1817 -0.8402
  863MOL0     H16454   7.032   9.198   4.100  1.5971  1.0323 -0.3230
  863MOL0     H16455   7.061   9.308   3.960  1.6295 -2.3983 -2.5232
  863MOL0     H16456   6.816   9.007   4.035 -0.8676  1.6124  0.3336
  863MOL0     H16457   6.464   9.133   3.888  0.0138 -1.3249 -0.4890
  863MOL0     H16458   6.557   8.992   3.856  3.9474 -0.7829  1.3169
  863MOL0     H16459   6.427   8.976   4.073  0.8715  0.4555  0.2225
  863MOL0     H16460   6.594   8.975   4.124  0.8134  1.2332  0.6095
  863MOL0     H16461   6.446   9.240   4.095 -0.7589  0.8860  1.3419
  863MOL0     H16462   6.594   9.207   4.172 -0.4263  1.2314  1.7500
  863MOL0     H16463   6.415   9.236   4.330  0.9112  1.7839 -2.2987
  863MOL0     H16464   6.483   9.059   4.334  1.2201 -0.2868 -0.0972
  863MOL0     H16465   6.319   8.823   4.195  2.7625 -0.5147  1.3150
  863MOL0     H16466   6.264   8.622   4.347  0.2963  1.6539 -3.9086
  863MOL0     H16467   6.258   8.723   4.961 -0.8242  0.6000 -0.9000
  863MOL0     H16468   6.247   8.583   5.157 -0.4967  0.1307 -0.3283
  863MOL0     H16469   6.094   8.185   5.118 -0.6266 -4.6962  2.2306
  863MOL0     H16470   6.265   8.130   5.104  2.0510 -1.4780  3.8159
  863MOL0     H16471   6.288   8.130   5.349 -0.4267 -2.1019  0.0659
  863MOL0     H16472   6.147   8.232   5.369  4.1559  3.4981 -0.5475
  863MOL0     H16473   6.000   8.065   5.302  0.2169  1.1461  3.7435
  863MOL0     H16474   6.135   7.944   5.273 -0.2764 -0.9659 -0.3954
  863MOL0     H16475   6.089   8.079   5.552  2.2101  0.6486  0.1379
  863MOL0     H16476   6.185   7.928   5.498 -1.9045 -3.1528 -1.6337
  863MOL0     H16477   5.994   7.895   5.634 -1.7781  1.1130  0.0430
  863MOL0     H16478   5.995   7.814   5.485 -0.4420 -0.3021  0.1888
  863MOL0     H16479   5.832   8.081   5.534 -0.9168 -0.1672  0.0354
  863MOL0     H16480   5.824   7.979   5.394  0.8202 -1.2180  0.0488
  863MOL0     H16481   5.702   7.939   5.675  1.0716  2.4178 -1.0327
  863MOL0     H16482   5.742   7.789   5.588 -1.2524  0.0862 -3.2253
  863MOL0     H16483   5.601   8.038   5.489  2.2068  0.0739  6.0820
  863MOL0     H16484   5.612   7.897   5.390 -2.7722  0.0734 -0.4534
  863MOL0     H16485   6.222   8.231   4.899 -2.0398  0.8705 -3.3802
  863MOL0     H16486   6.238   8.378   4.707  1.4805 -0.1760  0.1105
  863MOL0     H16487   6.188   8.890   4.666  1.0436 -2.0671  0.7501
  863MOL0     H16488   6.200   9.096   4.512  1.2797 -0.3565 -0.1941
  863MOL0     H16489   6.731   8.984   3.209  1.5892 -1.9637  1.5812
  863MOL0     H16490   6.568   9.012   3.053 -0.4173  0.3395  1.5117
  863MOL0     H16491   6.204   9.046   2.754 -1.0316 -1.6231 -0.4671
  863MOL0     H16492   5.976   9.073   2.665  1.4066  1.0081  0.2272
  863MOL0     H16493   5.740   9.043   2.616 -1.6472  1.2166 -1.2328
  863MOL0     H16494   5.724   9.184   2.726  1.8635 -0.3947  0.6307
  863MOL0     H16495   5.542   8.960   2.676 -0.4758  0.1921 -1.7249
  863MOL0     H16496   5.513   9.122   2.596 -0.7623 -0.5308 -0.1748
  863MOL0     H16497   5.508   9.220   2.819 -1.8371  0.6886  0.6620
  863MOL0     H16498   5.514   9.059   2.892 -0.4037  1.0209  0.9270
  863MOL0     H16499   5.307   9.148   2.681 -0.9299 -3.2490 -1.1154
  863MOL0     H16500   5.292   9.013   2.791 -0.9160  0.9334 -2.8178
  863MOL0     H16501   5.113   9.312   3.025 -1.0424 -1.1121  0.1805
  863MOL0     H16502   5.815   8.931   3.035 -0.7516  3.4930  1.5491
  863MOL0     H16503   5.969   8.938   3.244  4.0159  2.1146  3.3858
  863MOL0     H16504   6.070   8.809   3.183 -1.5880  0.1438 -0.7283
  863MOL0     H16505   6.131   8.977   3.219  2.3578 -2.8655  1.3358
  864MOL0     O16506   8.186   1.322   9.381 -0.3411  0.2769  0.9821
  864MOL0     C16507   8.234   1.210   9.372 -1.4708 -0.6092  0.4279
  864MOL0     O16508   8.371   1.190   9.369  0.1249 -0.6861  0.0226
  864MOL0     C16509   8.467   1.290   9.395 -1.0826  0.2418  0.0134
  864MOL0     C16510   8.458   1.369   9.510 -0.0888 -0.5177 -0.2498
  864MOL0     C16511   8.555   1.476   9.527 -0.2587  0.8124  1.1654
  864MOL0     C16512   8.658   1.494   9.434 -0.1043  0.3534  0.4188
  864MOL0     O16513   8.750   1.594   9.450 -0.5740 -0.5730  0.6672
  864MOL0     C16514   8.887   1.584   9.408 -0.9293  0.0567  0.0295
  864MOL0     C16515   8.954   1.729   9.425  0.8240  0.2199 -0.1620
  864MOL0     C16516   9.101   1.714   9.449 -0.0871 -0.5154 -0.7288
  864MOL0     C16517   9.185   1.844   9.437  0.1906 -0.2778 -0.5478
  864MOL0     C16518   9.177   1.950   9.542  0.0311  0.1850  0.1604
  864MOL0     C16519   9.252   2.079   9.502 -0.0175  0.8603  0.1321
  864MOL0     C16520   9.160   2.166   9.408  0.1210  0.2419  0.6714
  864MOL0     C16521   9.231   2.291   9.355  0.0113 -0.9029  0.0311
  864MOL0     N16522   9.252   2.390   9.456  0.3175  0.8378 -0.6132
  864MOL0     C16523   9.173   2.486   9.496 -1.0113  0.1098 -0.4572
  864MOL0     C16524   9.256   2.551   9.593  0.1156 -0.5544 -0.0119
  864MOL0     C16525   9.201   2.651   9.686  0.2260 -0.3563  0.3547
  864MOL0     C16526   9.268   2.787   9.691 -1.0622  0.1515  1.1043
  864MOL0     C16527   9.238   2.884   9.576  0.9198 -0.7171 -0.5426
  864MOL0     C16528   9.091   2.938   9.581  0.2746 -0.8845 -0.1099
  864MOL0     O16529   9.059   3.042   9.492 -0.4787 -0.2103  0.6103
  864MOL0     C16530   9.093   3.010   9.363 -0.0080  0.3509  0.7496
  864MOL0     C16531   9.182   3.102   9.312 -0.0846  0.9147 -0.1660
  864MOL0     C16532   9.209   3.104   9.180  0.7714 -0.0565 -0.3597
  864MOL0     C16533   9.150   3.009   9.097 -0.1088 -0.4478  0.1070
  864MOL0     C16534   9.192   3.013   8.951  0.4062 -0.8613 -0.9859
  864MOL0     O16535   9.229   3.129   8.898  0.0840  0.2012 -0.0978
  864MOL0     C16536   9.263   3.140   8.768  0.3952  0.0143 -0.9845
  864MOL0     C16537   9.194   3.085   8.660  0.7592 -0.9424  0.2474
  864MOL0     C16538   9.227   3.127   8.532 -0.6956  0.9107 -0.2699
  864MOL0     C16539   9.323   3.224   8.510  0.0146 -1.2382  0.6698
  864MOL0     O16540   9.375   3.243   8.383 -0.7716  0.2868 -0.2529
  864MOL0     C16541   9.403   3.379   8.335  0.9174  0.1488  0.1097
  864MOL0     C16542   9.490   3.369   8.212 -0.5676  0.5441  0.1465
  864MOL0     C16543   9.644   3.382   8.245  0.5547 -0.5356 -0.1666
  864MOL0     C16544   9.742   3.383   8.128 -0.2522 -0.1685 -0.1541
  864MOL0     C16545   9.788   3.235   8.105  0.7301 -0.5085 -0.1285
  864MOL0     C16546   9.863   3.220   7.971  0.1217 -0.5858  0.2057
  864MOL0     C16547   9.966   3.101   7.962  0.0050  0.1084  0.6466
  864MOL0     C16548  10.017   3.075   7.816 -0.5049 -0.3523 -0.4215
  864MOL0    Cl16549  10.126   3.201   7.736  0.1411 -0.6304  0.0045
  864MOL0     C16550   9.390   3.277   8.620 -0.5979  0.1666 -0.3057
  864MOL0     C16551   9.351   3.244   8.749  0.4482 -1.1220  0.5548
  864MOL0     O16552   9.186   2.902   8.893  0.0899  0.0154 -0.9319
  864MOL0     C16553   9.062   2.916   9.149 -1.0417 -1.2020  0.2735
  864MOL0     C16554   9.038   2.912   9.280 -0.6199  0.1477  0.5041
  864MOL0     N16555   9.378   2.479   9.600  0.7044  0.3573 -0.3836
  864MOL0     N16556   9.375   2.385   9.517 -0.2407  0.2643  0.2019
  864MOL0     C16557   8.676   1.405   9.327  0.1585 -1.2833  0.4727
  864MOL0     C16558   8.585   1.301   9.319 -0.4285 -0.1950  0.4688
  864MOL0     C16559   8.151   1.095   9.356  0.7887 -0.0197  0.1009
  864MOL0     C16560   8.212   0.966   9.381  0.8271 -1.1802  1.2860
  864MOL0     C16561   8.141   0.846   9.356 -0.3695 -0.1043  0.0931
  864MOL0     C16562   8.017   0.851   9.290 -0.2441  0.1559 -0.1463
  864MOL0     O16563   7.946   0.741   9.254 -0.4437  0.2852 -0.1204
  864MOL0     C16564   7.975   0.620   9.327  0.2176 -0.5165  1.4864
  864MOL0     C16565   7.871   0.515   9.280 -0.8225 -0.4437  0.6906
  864MOL0     C16566   7.890   0.487   9.126  0.4742  0.7936 -0.6556
  864MOL0     C16567   8.027   0.423   9.098  0.8128 -0.3132 -0.9340
  864MOL0     C16568   8.055   0.306   9.181  0.1302 -0.5359  0.5781
  864MOL0     C16569   8.057   0.222   9.262 -0.9408  0.0885  0.3256
  864MOL0     C16570   7.957   0.972   9.261 -0.0403 -0.3682  0.0569
  864MOL0     C16571   8.021   1.093   9.295  0.6349 -0.2121  0.0932
  864MOL0     C16572   7.950   1.214   9.251  0.3301 -0.3861 -0.3606
  864MOL0     H16573   8.378   1.348   9.581 -3.0511 -1.0034 -3.4133
  864MOL0     H16574   8.527   1.535   9.613 -1.0748 -2.8808  3.6861
  864MOL0     H16575   8.945   1.501   9.450 -0.3012 -0.1814 -1.2708
  864MOL0     H16576   8.908   1.557   9.304  2.3868  1.2932  0.2606
  864MOL0     H16577   8.916   1.784   9.512 -3.3837 -0.4990 -1.3285
  864MOL0     H16578   8.937   1.794   9.338  2.5019  1.6344  0.5149
  864MOL0     H16579   9.150   1.637   9.389  0.6504 -2.6649  2.3617
  864MOL0     H16580   9.118   1.685   9.553  0.4175  1.4529 -0.2245
  864MOL0     H16581   9.287   1.806   9.443  0.5707  0.8314  3.7422
  864MOL0     H16582   9.172   1.883   9.336 -0.9900  0.1643 -0.2497
  864MOL0     H16583   9.077   1.981   9.574  0.6543  3.6265 -0.8172
  864MOL0     H16584   9.218   1.916   9.637 -3.1334  0.3339  1.7292
  864MOL0     H16585   9.276   2.139   9.590 -0.4995  2.8568 -1.0370
  864MOL0     H16586   9.341   2.060   9.441 -1.5014  0.1812 -1.9301
  864MOL0     H16587   9.070   2.186   9.468  1.2045  0.9594  2.1480
  864MOL0     H16588   9.133   2.105   9.322 -3.4085 -2.3767  3.3245
  864MOL0     H16589   9.333   2.266   9.324 -1.2110 -3.3685 -2.3710
  864MOL0     H16590   9.170   2.332   9.274 -0.7961 -2.8320 -0.3944
  864MOL0     H16591   9.068   2.500   9.472 -1.3386 -1.9124 -0.3661
  864MOL0     H16592   9.097   2.672   9.660  1.4679  1.5424 -3.8391
  864MOL0     H16593   9.205   2.602   9.784  3.1969 -0.5929  0.2130
  864MOL0     H16594   9.236   2.840   9.782 -1.1687  2.0827  0.0117
  864MOL0     H16595   9.377   2.775   9.683 -1.3659 -4.0305  1.4050
  864MOL0     H16596   9.249   2.839   9.477  0.4030 -0.0286 -0.9230
  864MOL0     H16597   9.303   2.972   9.581 -0.7200  0.6828 -2.4054
  864MOL0     H16598   9.065   2.961   9.684 -1.4136 -5.6223  0.7711
  864MOL0     H16599   9.020   2.856   9.565 -2.4893  1.3497 -0.0702
  864MOL0     H16600   9.215   3.186   9.372 -1.4085  0.2580  1.5772
  864MOL0     H16601   9.261   3.191   9.141  1.1332 -0.9007 -1.8706
  864MOL0     H16602   9.113   3.014   8.666 -0.7724  0.0016 -4.3590
  864MOL0     H16603   9.173   3.070   8.457 -1.5290 -0.7898  1.5240
  864MOL0     H16604   9.304   3.420   8.313 -0.7733 -3.7269 -0.3081
  864MOL0     H16605   9.449   3.447   8.407  0.5717  0.1681  0.3138
  864MOL0     H16606   9.463   3.268   8.180  0.9318 -0.4533  1.8050
  864MOL0     H16607   9.456   3.446   8.142 -4.7733  1.1536  2.5066
  864MOL0     H16608   9.642   3.479   8.296 -1.4344  0.6799 -2.3416
  864MOL0     H16609   9.671   3.302   8.315  0.3603 -0.5316 -0.0865
  864MOL0     H16610   9.825   3.450   8.154 -1.3292  0.0447  3.0960
  864MOL0     H16611   9.710   3.428   8.034 -3.3400  0.1941  0.9747
  864MOL0     H16612   9.706   3.164   8.116  0.2719  0.0950  0.4577
  864MOL0     H16613   9.852   3.212   8.191  2.0597 -4.3244 -1.8953
  864MOL0     H16614   9.783   3.205   7.897 -1.7023  1.6788  1.6234
  864MOL0     H16615   9.926   3.307   7.955  1.8007 -2.0308 -1.6672
  864MOL0     H16616   9.908   3.013   7.989 -0.0253 -0.7159 -1.8616
  864MOL0     H16617  10.051   3.116   8.030 -0.5258 -0.9511  1.5731
  864MOL0     H16618  10.055   2.973   7.818 -3.6377 -1.6736 -1.7945
  864MOL0     H16619   9.933   3.049   7.751 -1.1993 -2.0687  1.0862
  864MOL0     H16620   9.472   3.346   8.603  0.9148 -1.4385  0.1847
  864MOL0     H16621   9.386   3.295   8.839 -0.9937  0.9208  0.0086
  864MOL0     H16622   9.027   2.837   9.083 -1.6944 -0.9399  0.3011
  864MOL0     H16623   8.969   2.831   9.304 -2.7733  0.4081 -3.9007
  864MOL0     H16624   8.753   1.421   9.253  3.2886 -4.6070  2.6744
  864MOL0     H16625   8.602   1.226   9.243 -0.3814 -0.5040  0.7807
  864MOL0     H16626   8.312   0.960   9.421  1.2372  2.1862  1.0631
  864MOL0     H16627   8.201   0.757   9.371  2.3663  1.5046 -0.4829
  864MOL0     H16628   7.964   0.638   9.435  0.6119  1.1087  1.2871
  864MOL0     H16629   8.071   0.576   9.297 -0.3580 -1.6397  1.2659
  864MOL0     H16630   7.772   0.561   9.289  0.6442  3.6767 -1.6547
  864MOL0     H16631   7.884   0.427   9.344 -0.8805  0.1787  1.5777
  864MOL0     H16632   7.879   0.578   9.065  0.2217 -0.9630 -3.3820
  864MOL0     H16633   7.810   0.416   9.108  2.7375 -2.2944  0.6145
  864MOL0     H16634   8.022   0.395   8.992  0.2253 -2.4886 -0.3866
  864MOL0     H16635   8.111   0.492   9.109 -1.0962  1.9483  0.2510
  864MOL0     H16636   8.061   0.141   9.332  2.3026  1.9825  2.6020
  864MOL0     H16637   7.859   0.969   9.214 -0.4630  3.0662  0.4317
  864MOL0     H16638   7.844   1.197   9.229  0.3992  1.6554 -2.5638
  864MOL0     H16639   7.963   1.294   9.325  0.3892 -1.0082  0.3102
  864MOL0     H16640   8.001   1.240   9.158 -2.5160 -0.2587 -2.0188
  865MOL0     O16641   6.911   6.489   7.751 -0.0973  0.5359  0.4696
  865MOL0     C16642   6.939   6.445   7.860 -0.5617  0.6693 -0.1450
  865MOL0     O16643   7.001   6.518   7.952  0.0171  0.8097 -0.4196
  865MOL0     C16644   7.056   6.636   7.922 -0.2494  0.2853 -0.1896
  865MOL0     C16645   7.000   6.746   7.985  0.0308 -0.8683 -0.2193
  865MOL0     C16646   7.069   6.874   7.963  0.4112 -0.2240 -0.2549
  865MOL0     C16647   7.178   6.892   7.885 -1.0596  0.1264 -0.2928
  865MOL0     O16648   7.228   7.022   7.869 -0.2800 -0.5966 -0.8091
  865MOL0     C16649   7.336   7.040   7.772 -0.8358 -1.0530 -0.3450
  865MOL0     C16650   7.351   7.192   7.735 -0.5582  0.2003 -0.8743
  865MOL0     C16651   7.232   7.247   7.646  0.3372 -0.3456 -0.2133
  865MOL0     C16652   7.265   7.247   7.494 -0.3102 -0.1632 -0.7171
  865MOL0     C16653   7.136   7.274   7.415  0.8912  0.6200 -0.1807
  865MOL0     C16654   7.051   7.143   7.432 -0.8713  0.6274 -0.6733
  865MOL0     C16655   6.970   7.127   7.300  0.5470  0.7619  0.5367
  865MOL0     C16656   6.873   7.238   7.293 -0.2745 -0.2202  0.2090
  865MOL0     N16657   6.777   7.207   7.185  0.3831  0.0638 -0.3157
  865MOL0     C16658   6.732   7.081   7.170  0.7684 -0.0442 -0.4677
  865MOL0     C16659   6.667   7.079   7.048 -0.5584 -0.0630 -0.3286
  865MOL0     C16660   6.601   6.951   6.995 -0.5696 -0.5420 -0.7091
  865MOL0     C16661   6.477   6.915   7.067  0.1270 -0.0810  0.1912
  865MOL0     C16662   6.364   7.025   7.090  0.4151  0.4034 -0.6358
  865MOL0     C16663   6.233   6.975   7.161  0.9866  0.3366  0.3200
  865MOL0     O16664   6.126   7.062   7.138  0.1621 -0.1786  0.2651
  865MOL0     C16665   6.114   7.180   7.211 -0.0991  0.1800  0.2459
  865MOL0     C16666   5.983   7.224   7.220  0.1774 -0.3778  0.1115
  865MOL0     C16667   5.951   7.337   7.287  1.0037  0.5724 -0.1314
  865MOL0     C16668   6.051   7.408   7.352  0.2208 -0.7706  0.7393
  865MOL0     C16669   6.020   7.524   7.436  0.2932  0.7524 -0.3347
  865MOL0     O16670   5.883   7.539   7.464 -1.0245  0.1645 -0.2648
  865MOL0     C16671   5.854   7.632   7.559  0.7337  0.0252 -0.3073
  865MOL0     C16672   5.756   7.729   7.527 -0.1564  0.0533  0.4668
  865MOL0     C16673   5.720   7.828   7.613  0.1450 -0.2289 -1.3177
  865MOL0     C16674   5.787   7.836   7.738 -0.7585 -0.5404 -0.0511
  865MOL0     O16675   5.757   7.935   7.828  0.3185 -0.0131  0.1086
  865MOL0     C16676   5.664   7.894   7.928 -0.0263 -1.0554  1.1872
  865MOL0     C16677   5.719   7.930   8.065  0.4643  0.1469 -0.3240
  865MOL0     C16678   5.793   8.066   8.087  0.2477  0.4128  0.0697
  865MOL0     C16679   5.692   8.182   8.093  0.2215 -0.7871 -0.3694
  865MOL0     C16680   5.612   8.180   8.220  0.1681  0.5063  0.7282
  865MOL0     C16681   5.702   8.222   8.339  0.1467  0.4636 -0.5142
  865MOL0     C16682   5.634   8.192   8.468 -0.7643  0.3982 -0.7338
  865MOL0     C16683   5.700   8.250   8.589 -0.4925 -0.0604 -0.3795
  865MOL0    Cl16684   5.614   8.198   8.736 -0.1927 -0.0843 -0.5380
  865MOL0     C16685   5.873   7.740   7.777  0.0428 -0.6625 -0.1506
  865MOL0     C16686   5.898   7.627   7.694  0.2673 -0.1601  0.6404
  865MOL0     O16687   6.112   7.598   7.478  0.3881  0.9484 -0.1009
  865MOL0     C16688   6.184   7.370   7.343 -0.1221 -0.4713  0.8307
  865MOL0     C16689   6.218   7.251   7.274  0.0699 -0.4291  0.7415
  865MOL0     N16690   6.683   7.205   6.991 -0.5531 -0.7451 -0.4241
  865MOL0     N16691   6.737   7.284   7.075 -0.3210  0.3171  0.7459
  865MOL0     C16692   7.235   6.773   7.831  0.3361 -0.0163  0.2873
  865MOL0     C16693   7.178   6.644   7.847  0.8597  0.7098  0.5032
  865MOL0     C16694   6.874   6.319   7.912 -0.0465 -1.2886  1.0285
  865MOL0     C16695   6.859   6.289   8.049 -0.7626 -0.1085 -1.0247
  865MOL0     C16696   6.801   6.159   8.092  0.2706 -0.4518 -0.9243
  865MOL0     C16697   6.763   6.065   8.003 -0.8524 -0.5137  0.4010
  865MOL0     O16698   6.686   5.958   8.035  0.0774 -0.3901 -0.7206
  865MOL0     C16699   6.623   5.951   8.166 -0.1923  1.0144  0.1518
  865MOL0     C16700   6.539   5.821   8.183 -0.1027 -1.2092 -0.1902
  865MOL0     C16701   6.600   5.697   8.124  0.9743 -0.6612 -0.2105
  865MOL0     C16702   6.592   5.586   8.239  1.1056 -0.2563 -0.0417
  865MOL0     C16703   6.447   5.562   8.271 -0.3488 -0.7781 -0.0857
  865MOL0     C16704   6.328   5.553   8.300  0.3032 -0.1759 -0.2177
  865MOL0     C16705   6.800   6.084   7.865  0.0118 -0.4661 -0.1904
  865MOL0     C16706   6.843   6.215   7.820  0.3066  0.3220  0.2958
  865MOL0     C16707   6.878   6.216   7.670  0.4450 -0.3120 -0.1669
  865MOL0     H16708   6.910   6.745   8.046  0.5540  0.0718  0.6068
  865MOL0     H16709   7.032   6.966   8.008 -2.0489 -1.9675  1.5992
  865MOL0     H16710   7.426   7.001   7.821 -2.5012 -3.1500  1.2277
  865MOL0     H16711   7.312   6.980   7.684 -5.6353 -0.4839  0.3006
  865MOL0     H16712   7.440   7.216   7.677 -1.8562  2.4934 -2.0338
  865MOL0     H16713   7.365   7.256   7.823  3.5015  3.0095 -3.2185
  865MOL0     H16714   7.196   7.340   7.691 -0.2835 -1.5754  2.0321
  865MOL0     H16715   7.146   7.183   7.668 -0.9999  1.6357  0.5782
  865MOL0     H16716   7.332   7.327   7.461  0.8765  0.6139  3.0906
  865MOL0     H16717   7.297   7.147   7.465 -0.4322  0.1196 -1.9181
  865MOL0     H16718   7.071   7.355   7.449 -1.0706 -1.2613  0.7743
  865MOL0     H16719   7.156   7.285   7.308  1.3600  2.0270  0.0311
  865MOL0     H16720   7.107   7.049   7.432 -0.7772  0.6547  0.7918
  865MOL0     H16721   7.004   7.137   7.531 -1.6616 -1.2677 -1.1184
  865MOL0     H16722   6.925   7.028   7.315  0.9128 -0.5554 -5.0197
  865MOL0     H16723   7.028   7.132   7.208 -1.3630 -0.2152 -0.7910
  865MOL0     H16724   6.822   7.246   7.389  2.2520 -1.2313  1.7299
  865MOL0     H16725   6.925   7.331   7.273 -0.4635 -0.3500 -0.9703
  865MOL0     H16726   6.738   6.990   7.229 -0.5380 -1.9351 -3.0446
  865MOL0     H16727   6.580   6.959   6.888 -0.7898 -0.7910 -0.6828
  865MOL0     H16728   6.666   6.863   6.999  0.5307  0.2829  0.5420
  865MOL0     H16729   6.435   6.834   7.006  1.8561  0.8830 -2.4311
  865MOL0     H16730   6.509   6.866   7.160  0.8957 -2.7277 -1.3458
  865MOL0     H16731   6.338   7.064   6.991  2.4952  2.1757 -0.5590
  865MOL0     H16732   6.410   7.106   7.147  2.9223  0.8338 -3.0419
  865MOL0     H16733   6.236   6.953   7.268 -2.9219 -0.1970  0.4782
  865MOL0     H16734   6.213   6.887   7.099 -2.1934  1.1073  0.0475
  865MOL0     H16735   5.895   7.182   7.174 -2.2257  4.0745  0.0411
  865MOL0     H16736   5.851   7.381   7.290  1.4564  1.6625 -0.3771
  865MOL0     H16737   5.720   7.729   7.425  1.9233 -1.6891 -0.3446
  865MOL0     H16738   5.647   7.904   7.590 -1.5334 -0.4509  2.4979
  865MOL0     H16739   5.565   7.939   7.916 -0.2147 -2.0294 -1.7145
  865MOL0     H16740   5.655   7.785   7.918 -2.0779 -0.8695  0.4967
  865MOL0     H16741   5.652   7.904   8.148 -3.1276  3.6902 -1.8241
  865MOL0     H16742   5.803   7.860   8.070  0.4819  0.1690 -0.3022
  865MOL0     H16743   5.854   8.077   8.177 -1.8029  3.4753  1.2300
  865MOL0     H16744   5.864   8.077   8.005 -0.3514  1.3107 -0.3422
  865MOL0     H16745   5.619   8.170   8.012 -0.7599 -0.4688  0.4462
  865MOL0     H16746   5.739   8.278   8.073  0.4925 -0.1431  2.8600
  865MOL0     H16747   5.559   8.087   8.245  2.6814 -1.7484 -1.5983
  865MOL0     H16748   5.521   8.239   8.205 -0.3810 -0.6332 -0.7385
  865MOL0     H16749   5.785   8.151   8.346 -0.8587 -0.7213 -0.3122
  865MOL0     H16750   5.744   8.321   8.321  0.6750  0.2104 -0.6782
  865MOL0     H16751   5.639   8.083   8.478  1.1078  0.5806  0.8162
  865MOL0     H16752   5.527   8.214   8.462 -1.7806 -3.1318  1.2526
  865MOL0     H16753   5.807   8.232   8.604  0.1767  2.9333 -0.7909
  865MOL0     H16754   5.673   8.356   8.583 -3.3449 -0.6416  0.5172
  865MOL0     H16755   5.925   7.753   7.872  2.1062 -3.4108 -0.7674
  865MOL0     H16756   5.963   7.547   7.728 -0.2966 -0.9724 -0.1341
  865MOL0     H16757   6.263   7.430   7.388  1.3476 -1.1795 -0.6703
  865MOL0     H16758   6.324   7.225   7.279  0.7066  0.6972 -3.1415
  865MOL0     H16759   7.317   6.787   7.763  0.8909  2.9448  1.4091
  865MOL0     H16760   7.225   6.548   7.827  1.8652  1.2807  0.0657
  865MOL0     H16761   6.890   6.353   8.130 -1.1384 -0.4140 -0.6379
  865MOL0     H16762   6.787   6.146   8.199  1.5057  2.1970 -0.3699
  865MOL0     H16763   6.565   6.043   8.177  1.5015  2.4230 -1.8545
  865MOL0     H16764   6.693   5.937   8.249 -0.3377  1.7266  0.3972
  865MOL0     H16765   6.449   5.824   8.122  1.0019 -2.1840 -1.9731
  865MOL0     H16766   6.517   5.819   8.290  0.2314  2.5908  0.0999
  865MOL0     H16767   6.701   5.718   8.087 -0.0239  0.7646 -2.3601
  865MOL0     H16768   6.548   5.652   8.039 -3.8116 -1.9688  3.0177
  865MOL0     H16769   6.631   5.494   8.195  0.9531 -0.1671 -0.3746
  865MOL0     H16770   6.645   5.615   8.330  5.3030  0.7907 -2.5047
  865MOL0     H16771   6.226   5.535   8.329  0.8167 -0.1098  1.7763
  865MOL0     H16772   6.786   6.009   7.787 -0.5467  0.1716 -0.7092
  865MOL0     H16773   6.985   6.234   7.655  0.4824  0.3991  0.8181
  865MOL0     H16774   6.872   6.117   7.624  0.1854  0.5684 -2.1082
  865MOL0     H16775   6.821   6.298   7.625 -0.5293  0.3710  2.1708
  866MOL0     O16776  10.642  10.146   7.642 -0.3098  0.3308 -0.1160
  866MOL0     C16777  10.530  10.190   7.661  0.0479  0.9726  0.0871
  866MOL0     O16778  10.424  10.184   7.561 -0.5171 -0.2180 -0.4293
  866MOL0     C16779  10.447  10.077   7.486  0.6341  0.4802  0.0697
  866MOL0     C16780  10.401   9.954   7.524 -0.4019 -1.1470  0.3088
  866MOL0     C16781  10.438   9.839   7.460 -0.0324  0.2902 -0.0222
  866MOL0     C16782  10.531   9.843   7.351  0.8619 -0.4467  0.0748
  866MOL0     O16783  10.575   9.722   7.299 -0.0217  0.1548 -0.3707
  866MOL0     C16784  10.683   9.726   7.193  0.2036 -0.4628 -0.8218
  866MOL0     C16785  10.722   9.586   7.179  0.0099 -0.1723  0.1239
  866MOL0     C16786  10.827   9.551   7.068 -0.4569  0.1941 -0.7391
  866MOL0     C16787  10.806   9.583   6.924  0.5638  0.6162 -0.1398
  866MOL0     C16788  10.672   9.542   6.865 -0.3233  1.2355  0.3811
  866MOL0     C16789  10.660   9.392   6.829 -0.1564  0.2604  0.3380
  866MOL0     C16790  10.518   9.375   6.754  0.6343  0.0260  0.2136
  866MOL0     C16791  10.550   9.407   6.607 -0.1071 -0.1764 -0.8240
  866MOL0     N16792  10.446   9.359   6.527  0.3709 -0.0292 -0.6306
  866MOL0     C16793  10.315   9.343   6.562 -0.4626 -0.3873 -0.7963
  866MOL0     C16794  10.252   9.292   6.459  0.3217 -0.0267 -0.1571
  866MOL0     C16795  10.106   9.286   6.449  0.9131  0.3834  0.7685
  866MOL0     C16796  10.058   9.177   6.344  0.9351 -0.7376  0.5816
  866MOL0     C16797  10.083   9.036   6.396 -0.9960  0.9884 -0.1899
  866MOL0     C16798  10.023   8.938   6.279 -1.1321 -0.0973  0.2104
  866MOL0     O16799   9.879   8.947   6.272 -0.1358  0.2905  0.2600
  866MOL0     C16800   9.811   8.840   6.320  0.0541  0.2122  0.7975
  866MOL0     C16801   9.826   8.713   6.257  0.2555 -0.3667 -1.2768
  866MOL0     C16802   9.738   8.610   6.291 -0.1919  0.7648  0.5293
  866MOL0     C16803   9.640   8.623   6.396 -0.1657 -0.6065  0.3707
  866MOL0     C16804   9.546   8.513   6.415 -0.0187 -0.6729  0.2520
  866MOL0     O16805   9.463   8.513   6.521  0.0267 -0.7982  0.0775
  866MOL0     C16806   9.428   8.386   6.556 -0.1089  0.3899  0.5018
  866MOL0     C16807   9.299   8.346   6.559  0.3935  0.3367 -0.6761
  866MOL0     C16808   9.265   8.213   6.588  0.2532 -0.1000 -0.0645
  866MOL0     C16809   9.363   8.120   6.609 -0.9032 -0.1257 -0.0450
  866MOL0     O16810   9.313   8.004   6.644 -0.0831  0.5481  0.3501
  866MOL0     C16811   9.401   7.886   6.638 -0.1244  1.1303 -0.4384
  866MOL0     C16812   9.454   7.866   6.779  0.1896  0.6630 -0.1676
  866MOL0     C16813   9.350   7.824   6.886 -0.5145  1.0474  0.5913
  866MOL0     C16814   9.415   7.777   7.017 -0.7172  1.1454 -0.6392
  866MOL0     C16815   9.419   7.896   7.110 -0.1642  0.3679 -0.0105
  866MOL0     C16816   9.491   7.886   7.247 -0.7596  0.4109 -0.1489
  866MOL0     C16817   9.458   7.759   7.314 -0.1994 -0.2693 -0.1567
  866MOL0     C16818   9.508   7.753   7.463 -0.6587 -0.7570  1.1520
  866MOL0    Cl16819   9.477   7.604   7.552 -0.0595  0.1910  0.3654
  866MOL0     C16820   9.501   8.156   6.596  0.0751 -1.1941 -0.5215
  866MOL0     C16821   9.528   8.285   6.566 -0.6203  0.6212 -0.3215
  866MOL0     O16822   9.546   8.430   6.329  0.4857 -0.0811 -0.2240
  866MOL0     C16823   9.635   8.755   6.464 -0.2246 -0.2321 -0.3233
  866MOL0     C16824   9.720   8.859   6.423  0.2198  0.5014 -0.5907
  866MOL0     N16825  10.348   9.275   6.357  0.9409 -0.8229 -0.1353
  866MOL0     N16826  10.461   9.303   6.401  0.3223  0.8189 -0.2279
  866MOL0     C16827  10.558   9.971   7.299 -0.4286  0.6459 -0.4886
  866MOL0     C16828  10.512  10.086   7.367 -0.4878 -0.4960 -0.1328
  866MOL0     C16829  10.504  10.246   7.795  0.1725  0.1689 -0.7578
  866MOL0     C16830  10.607  10.241   7.896 -0.2715 -0.2346  0.2321
  866MOL0     C16831  10.598  10.304   8.015  0.6266  0.5105  0.4914
  866MOL0     C16832  10.477  10.365   8.047  0.5574  0.5140  0.0402
  866MOL0     O16833  10.463  10.414   8.172 -0.2413 -0.6958 -0.0193
  866MOL0     C16834  10.569  10.504   8.218 -0.3249  0.2621 -0.2052
  866MOL0     C16835  10.544  10.547   8.357  0.2387  0.2652 -0.7440
  866MOL0     C16836  10.572  10.699   8.379  0.0541  0.3993  0.1493
  866MOL0     C16837  10.720  10.738   8.373  0.6679  0.2678 -0.3806
  866MOL0     C16838  10.756  10.785   8.234 -0.4887  0.1729 -0.5356
  866MOL0     C16839  10.801  10.822   8.129 -0.3752 -0.5119  0.4881
  866MOL0     C16840  10.368  10.363   7.958 -0.2617 -0.0003 -0.4481
  866MOL0     C16841  10.388  10.320   7.828 -0.0567  0.6902  0.2824
  866MOL0     C16842  10.271  10.324   7.739  0.6257  0.1142  0.0806
  866MOL0     H16843  10.347   9.940   7.618 -0.0260 -2.4585  0.3505
  866MOL0     H16844  10.400   9.742   7.489 -0.3806 -0.1992 -1.9947
  866MOL0     H16845  10.633   9.766   7.104  0.9261 -3.2343 -2.6031
  866MOL0     H16846  10.767   9.786   7.228 -1.6263  2.5192 -1.2190
  866MOL0     H16847  10.635   9.523   7.161 -1.9106  2.4505 -0.3401
  866MOL0     H16848  10.768   9.557   7.274 -2.3542 -0.0380  1.3720
  866MOL0     H16849  10.852   9.445   7.078  0.6350  0.4583 -0.5325
  866MOL0     H16850  10.916   9.609   7.091 -1.7141  2.0924 -0.4428
  866MOL0     H16851  10.828   9.689   6.910 -0.4492  0.5569 -2.6255
  866MOL0     H16852  10.882   9.524   6.873  2.0918  1.6223  0.8935
  866MOL0     H16853  10.587   9.574   6.927 -2.3867 -2.3216 -0.3139
  866MOL0     H16854  10.663   9.594   6.769  0.7296  1.7071  0.5255
  866MOL0     H16855  10.745   9.366   6.765  1.1050  0.6589  1.7651
  866MOL0     H16856  10.664   9.344   6.928 -1.8777  0.1891  0.4028
  866MOL0     H16857  10.435   9.435   6.792 -0.4945 -0.4041 -1.4141
  866MOL0     H16858  10.497   9.268   6.767  3.9545 -1.1500 -2.4045
  866MOL0     H16859  10.572   9.512   6.582 -0.2106 -0.3345 -1.6310
  866MOL0     H16860  10.643   9.356   6.582  1.1737  2.1580 -1.1496
  866MOL0     H16861  10.279   9.382   6.657  5.0494 -0.4927  1.7100
  866MOL0     H16862  10.053   9.269   6.544 -3.6044  0.3014 -1.5023
  866MOL0     H16863  10.073   9.387   6.422 -2.5044 -0.5925  0.7979
  866MOL0     H16864   9.951   9.192   6.326  1.3298  2.6052  0.2726
  866MOL0     H16865  10.106   9.178   6.245  1.8200  2.1858  0.9463
  866MOL0     H16866  10.033   9.015   6.491 -0.5312 -5.1506 -0.8948
  866MOL0     H16867  10.191   9.017   6.402 -1.0999  0.6658  0.8603
  866MOL0     H16868  10.055   8.837   6.309 -2.1823 -0.9012 -1.2568
  866MOL0     H16869  10.071   8.964   6.184  0.5995  0.1753  1.1218
  866MOL0     H16870   9.891   8.705   6.170  0.8564  0.3307 -0.9046
  866MOL0     H16871   9.744   8.517   6.236 -0.7559 -0.1153  1.9067
  866MOL0     H16872   9.219   8.414   6.531  1.2831  1.1102 -1.4532
  866MOL0     H16873   9.161   8.184   6.590 -1.7426  5.7721 -1.2569
  866MOL0     H16874   9.341   7.801   6.604 -0.8334  1.2014  0.5979
  866MOL0     H16875   9.483   7.891   6.566 -0.6404 -0.9379 -1.2551
  866MOL0     H16876   9.530   7.788   6.783 -0.4944 -0.1748 -2.1866
  866MOL0     H16877   9.494   7.959   6.821 -2.2108  0.9060  1.7994
  866MOL0     H16878   9.278   7.904   6.906 -0.9357  0.0641  3.3823
  866MOL0     H16879   9.281   7.747   6.851  0.9672 -0.3273  0.5839
  866MOL0     H16880   9.508   7.727   6.991 -2.0968 -3.1453  1.7245
  866MOL0     H16881   9.355   7.694   7.056  1.4703 -0.2211 -0.0328
  866MOL0     H16882   9.311   7.900   7.126 -0.2594  1.3019 -0.8052
  866MOL0     H16883   9.459   7.982   7.055  1.1588 -0.0612  0.2398
  866MOL0     H16884   9.599   7.879   7.231 -0.4670  3.7477 -0.3893
  866MOL0     H16885   9.464   7.979   7.297  1.8906  0.8409  0.6221
  866MOL0     H16886   9.522   7.682   7.270  0.8545  0.9525 -0.8101
  866MOL0     H16887   9.355   7.723   7.313 -0.4222 -0.0723  3.1765
  866MOL0     H16888   9.614   7.770   7.443 -1.1430  1.1261 -0.0630
  866MOL0     H16889   9.479   7.844   7.515  2.1172 -0.3359  2.0792
  866MOL0     H16890   9.566   8.075   6.625 -1.7269 -2.2792  0.7049
  866MOL0     H16891   9.631   8.318   6.561 -0.2494 -0.5389 -0.5792
  866MOL0     H16892   9.554   8.765   6.535  0.5096 -0.1474  0.5113
  866MOL0     H16893   9.697   8.954   6.470 -0.7526  0.0805 -0.1891
  866MOL0     H16894  10.612   9.993   7.208  0.1979 -1.2449 -0.6178
  866MOL0     H16895  10.539  10.186   7.336 -0.6892  0.3030  2.0924
  866MOL0     H16896  10.697  10.183   7.880  0.5122  1.2790 -1.2219
  866MOL0     H16897  10.684  10.309   8.081 -1.4471 -2.0798  3.7264
  866MOL0     H16898  10.568  10.588   8.148 -0.4074  1.4680  1.1740
  866MOL0     H16899  10.667  10.455   8.212 -0.1130  0.4375  1.3555
  866MOL0     H16900  10.622  10.500   8.417  1.5215  2.7087 -0.3612
  866MOL0     H16901  10.441  10.522   8.384  0.9911 -2.0739  0.1465
  866MOL0     H16902  10.545  10.735   8.478  2.7394 -1.3390  1.6152
  866MOL0     H16903  10.513  10.758   8.307  1.1374 -0.7344 -1.7583
  866MOL0     H16904  10.735  10.816   8.448 -2.8391  1.0546 -0.3425
  866MOL0     H16905  10.782  10.651   8.395  0.7432  0.6741  1.0873
  866MOL0     H16906  10.855  10.859   8.043 -1.2758 -2.9726 -1.2571
  866MOL0     H16907  10.277  10.412   7.993 -0.1067  0.7281 -1.0391
  866MOL0     H16908  10.243  10.234   7.683 -1.6384  1.3779 -0.9272
  866MOL0     H16909  10.182  10.336   7.802  0.4450 -3.3150  0.7114
  866MOL0     H16910  10.272  10.399   7.660 -1.4893 -0.9019 -0.9853
  867MOL0     O16911   7.708   5.360   1.060 -0.2998 -0.5107 -0.3094
  867MOL0     C16912   7.644   5.446   1.005  0.5116  0.0796  1.1598
  867MOL0     O16913   7.514   5.418   0.940  0.5037  0.1529  0.2335
  867MOL0     C16914   7.460   5.295   0.933  1.3809 -0.5116  0.3543
  867MOL0     C16915   7.341   5.262   0.999 -0.4068  0.7069 -0.1948
  867MOL0     C16916   7.270   5.147   0.962  1.6039  0.1988  0.8115
  867MOL0     C16917   7.323   5.064   0.861 -0.6516  0.3268  0.0494
  867MOL0     O16918   7.254   4.948   0.835  0.3534  1.0013  0.5247
  867MOL0     C16919   7.204   4.934   0.700  1.0171 -0.6936  0.0638
  867MOL0     C16920   7.203   4.782   0.654  0.9776 -0.9114 -1.0198
  867MOL0     C16921   7.070   4.720   0.653 -0.0504 -0.1081  1.4051
  867MOL0     C16922   7.106   4.561   0.624  0.2741  0.3295 -0.4760
  867MOL0     C16923   7.000   4.481   0.555 -0.1029 -0.6990  0.1580
  867MOL0     C16924   6.869   4.485   0.627  0.6031  0.6915 -0.1837
  867MOL0     C16925   6.761   4.397   0.551  0.2775  0.2980  0.0561
  867MOL0     C16926   6.622   4.442   0.604  0.1384  1.3300 -0.5155
  867MOL0     N16927   6.615   4.411   0.746  0.3061 -0.2915  0.4490
  867MOL0     C16928   6.576   4.284   0.780  0.0335 -0.8471  1.2404
  867MOL0     C16929   6.620   4.279   0.903 -0.2080  0.8089 -0.8118
  867MOL0     C16930   6.616   4.148   0.989  0.9086 -0.5509  0.2115
  867MOL0     C16931   6.730   4.133   1.101 -0.3644  0.1184  0.5078
  867MOL0     C16932   6.689   4.218   1.219  1.1555  0.4817  0.1643
  867MOL0     C16933   6.775   4.201   1.344  0.3317 -0.1383 -0.8234
  867MOL0     O16934   6.713   4.257   1.471  0.6246 -0.4063 -0.3800
  867MOL0     C16935   6.706   4.390   1.478  0.8148  0.1058 -0.4676
  867MOL0     C16936   6.593   4.464   1.439 -0.0426  1.0100 -1.0498
  867MOL0     C16937   6.609   4.599   1.411  0.1400 -0.0379  0.3047
  867MOL0     C16938   6.731   4.670   1.425 -0.1126 -0.8785  0.2943
  867MOL0     C16939   6.742   4.804   1.386 -0.1903 -0.0645 -0.6144
  867MOL0     O16940   6.838   4.879   1.449 -0.0181  0.0853 -0.2899
  867MOL0     C16941   6.855   5.010   1.405 -0.8863  0.5589 -0.2979
  867MOL0     C16942   6.778   5.116   1.448  0.6100 -0.8023 -0.8486
  867MOL0     C16943   6.798   5.243   1.393  0.3835  0.2339  0.3343
  867MOL0     C16944   6.905   5.275   1.311 -0.6814  0.6726  0.5043
  867MOL0     O16945   6.935   5.393   1.251  0.3476 -0.4215 -0.3298
  867MOL0     C16946   6.814   5.479   1.234  0.2124 -1.3577  0.1243
  867MOL0     C16947   6.819   5.602   1.142 -0.0246  0.5376  0.0221
  867MOL0     C16948   6.843   5.570   0.996  0.7298 -0.2997  0.2508
  867MOL0     C16949   6.965   5.485   0.967 -1.2479  0.2908  1.1882
  867MOL0     C16950   6.980   5.470   0.817  0.7185 -0.0720  0.2195
  867MOL0     C16951   7.136   5.473   0.779  0.4753 -0.3103 -0.1769
  867MOL0     C16952   7.165   5.392   0.665  0.4611  0.0343  0.2660
  867MOL0     C16953   7.300   5.426   0.608 -0.4015 -0.1245  0.1304
  867MOL0    Cl16954   7.300   5.592   0.544 -0.7060 -0.1442 -0.2569
  867MOL0     C16955   6.994   5.172   1.289 -0.3732  0.8384 -0.1661
  867MOL0     C16956   6.978   5.042   1.342 -0.0118  0.6949 -0.1086
  867MOL0     O16957   6.668   4.844   1.295  0.7729  0.0813  0.2639
  867MOL0     C16958   6.840   4.597   1.478  0.7088  0.2319 -0.4466
  867MOL0     C16959   6.826   4.459   1.498  0.0838 -0.5870 -0.4357
  867MOL0     N16960   6.670   4.403   0.950 -0.1263  1.3719  0.8103
  867MOL0     N16961   6.675   4.483   0.852  0.2702 -0.3112 -0.0541
  867MOL0     C16962   7.444   5.093   0.806 -0.1277 -0.1907  0.3781
  867MOL0     C16963   7.509   5.205   0.840  0.2609  0.0317 -0.5550
  867MOL0     C16964   7.700   5.590   0.991  0.1262  0.9150 -0.8308
  867MOL0     C16965   7.805   5.626   1.083  0.1672  0.5306 -0.1667
  867MOL0     C16966   7.853   5.761   1.092 -0.1991  1.2286  0.2436
  867MOL0     C16967   7.828   5.849   0.986  0.5775  0.0800 -0.0983
  867MOL0     O16968   7.891   5.973   0.979 -0.1947 -1.0496 -0.4467
  867MOL0     C16969   7.994   6.018   1.067 -0.4730  0.1903  0.0169
  867MOL0     C16970   8.111   6.062   0.978 -0.1030 -0.0052 -0.1623
  867MOL0     C16971   8.072   6.159   0.865 -1.1119  0.4126 -0.0734
  867MOL0     C16972   8.187   6.218   0.790 -0.1770  0.6394 -0.5109
  867MOL0     C16973   8.150   6.304   0.679 -0.5498 -0.4589  0.3780
  867MOL0     C16974   8.083   6.377   0.606 -0.4048 -0.4304 -0.8805
  867MOL0     C16975   7.738   5.821   0.885 -0.1282  0.5980  0.3525
  867MOL0     C16976   7.672   5.696   0.897  0.1449  0.3344  0.8879
  867MOL0     C16977   7.555   5.670   0.806 -0.3272 -0.0648 -0.2650
  867MOL0     H16978   7.304   5.345   1.059 -0.3329  2.7099 -2.7402
  867MOL0     H16979   7.170   5.129   1.001  1.2576  0.6940  0.1755
  867MOL0     H16980   7.103   4.975   0.706  0.6976 -1.6172  3.3447
  867MOL0     H16981   7.267   4.993   0.633  0.7635  1.2767  1.4548
  867MOL0     H16982   7.273   4.725   0.717  2.3100  1.2281 -0.4533
  867MOL0     H16983   7.238   4.780   0.550 -0.2268 -0.5626 -1.4504
  867MOL0     H16984   7.012   4.771   0.576  1.3196 -0.3500  0.1834
  867MOL0     H16985   7.028   4.731   0.754  0.0956  0.8748  1.3638
  867MOL0     H16986   7.194   4.565   0.559 -0.2063  2.2966 -1.0692
  867MOL0     H16987   7.132   4.508   0.717  0.4676  1.4487  0.1320
  867MOL0     H16988   6.992   4.525   0.455  1.9607  0.8451  0.6112
  867MOL0     H16989   7.029   4.376   0.554  2.8147  0.0100 -1.4903
  867MOL0     H16990   6.885   4.442   0.726 -0.2160  1.1364  0.1508
  867MOL0     H16991   6.837   4.587   0.650  1.0910  0.5625  1.1077
  867MOL0     H16992   6.765   4.289   0.569 -2.8497 -0.2351 -1.8262
  867MOL0     H16993   6.753   4.415   0.444 -2.6792  0.8910  0.2919
  867MOL0     H16994   6.616   4.550   0.590  1.9426  1.3305 -1.5218
  867MOL0     H16995   6.542   4.382   0.560  1.0232 -1.2805  1.1638
  867MOL0     H16996   6.518   4.209   0.727 -0.1721 -1.2964  2.0832
  867MOL0     H16997   6.521   4.132   1.041 -0.2140  3.0466 -0.4527
  867MOL0     H16998   6.640   4.073   0.913 -0.1872  2.2468 -3.1081
  867MOL0     H16999   6.737   4.031   1.140 -0.7034 -1.3430 -2.9582
  867MOL0     H17000   6.829   4.154   1.058 -1.6703 -1.7589 -3.9264
  867MOL0     H17001   6.585   4.192   1.240  0.9851 -0.1508 -1.3115
  867MOL0     H17002   6.692   4.323   1.188 -0.6937  0.6422  0.3896
  867MOL0     H17003   6.866   4.255   1.320  0.9769  1.2585  3.8253
  867MOL0     H17004   6.787   4.092   1.344 -0.0302 -0.2698 -3.6391
  867MOL0     H17005   6.496   4.420   1.420  0.6427  0.2816 -3.0717
  867MOL0     H17006   6.521   4.649   1.372 -0.0392  1.0246  1.9643
  867MOL0     H17007   6.691   5.097   1.509  1.2572 -0.0909  0.3317
  867MOL0     H17008   6.721   5.316   1.418  0.4036  0.3387  0.0960
  867MOL0     H17009   6.723   5.424   1.208  1.0513 -2.1699 -1.1772
  867MOL0     H17010   6.800   5.529   1.330  0.2558  1.0722 -1.0476
  867MOL0     H17011   6.726   5.655   1.163  1.6750  2.2273  4.8870
  867MOL0     H17012   6.902   5.666   1.177  1.0131 -0.6493 -0.2076
  867MOL0     H17013   6.749   5.534   0.953  0.8545 -2.3504  1.5738
  867MOL0     H17014   6.854   5.668   0.948  0.2791  0.0032  0.7523
  867MOL0     H17015   6.952   5.383   1.004  1.6325  0.1612  2.0222
  867MOL0     H17016   7.047   5.534   1.020 -2.4383  2.8878  0.7972
  867MOL0     H17017   6.931   5.548   0.758  1.1348 -0.8006 -1.1360
  867MOL0     H17018   6.934   5.376   0.787  0.6540 -1.2959  3.6891
  867MOL0     H17019   7.158   5.580   0.767  0.8090 -0.3572  0.0269
  867MOL0     H17020   7.180   5.431   0.870 -2.4387  2.4410  2.7742
  867MOL0     H17021   7.093   5.405   0.584  3.2851  0.4172 -2.3803
  867MOL0     H17022   7.163   5.287   0.696  0.1494 -0.6417 -1.8821
  867MOL0     H17023   7.383   5.420   0.678 -1.6050 -0.0035  1.6095
  867MOL0     H17024   7.323   5.357   0.525 -2.9406  1.0340 -1.6525
  867MOL0     H17025   7.078   5.199   1.226  1.7410 -0.3645  2.0007
  867MOL0     H17026   7.046   4.959   1.322  1.7054  2.2636 -1.0905
  867MOL0     H17027   6.932   4.639   1.518 -0.1394  1.6330  0.1243
  867MOL0     H17028   6.921   4.406   1.508  0.1093 -0.3004  1.0269
  867MOL0     H17029   7.486   5.017   0.741 -1.2076 -1.1209  0.7366
  867MOL0     H17030   7.607   5.237   0.805 -1.1245  2.8149 -2.3216
  867MOL0     H17031   7.843   5.564   1.164  2.4563 -0.2653 -1.7288
  867MOL0     H17032   7.929   5.774   1.169  0.7104  4.2008 -0.9707
  867MOL0     H17033   8.027   5.941   1.138 -3.5253  1.5051  3.1683
  867MOL0     H17034   7.951   6.102   1.123  1.8261  1.9363 -0.6724
  867MOL0     H17035   8.144   5.969   0.930  0.5419  1.0211 -1.8185
  867MOL0     H17036   8.191   6.106   1.037 -0.1078 -1.1066  0.6981
  867MOL0     H17037   8.006   6.232   0.914 -0.4629  0.0345  1.4105
  867MOL0     H17038   8.015   6.104   0.790  1.6153 -2.1987 -0.4050
  867MOL0     H17039   8.241   6.282   0.861  0.5328 -0.5213  0.0280
  867MOL0     H17040   8.254   6.142   0.749  0.0958 -0.2594  1.4683
  867MOL0     H17041   8.024   6.438   0.541 -0.2777  0.4502 -0.1878
  867MOL0     H17042   7.717   5.896   0.810  0.2810 -0.4790 -0.8686
  867MOL0     H17043   7.457   5.668   0.855 -0.3260  0.6875 -0.2338
  867MOL0     H17044   7.555   5.751   0.732 -1.4967 -0.7938 -1.1091
  867MOL0     H17045   7.568   5.575   0.753 -1.2009 -1.1696  1.4187
  868MOL0     O17046  11.141   0.700   6.784 -0.6763  0.3791  0.1288
  868MOL0     C17047  11.244   0.766   6.784 -0.5545 -0.3360 -0.4254
  868MOL0     O17048  11.360   0.731   6.840  0.0812  0.1060  0.6175
  868MOL0     C17049  11.379   0.600   6.882  0.1632 -0.1262 -0.1624
  868MOL0     C17050  11.415   0.504   6.789  0.5610  0.4768 -0.6611
  868MOL0     C17051  11.415   0.371   6.823 -0.2242  0.9863 -0.8782
  868MOL0     C17052  11.412   0.332   6.957  0.0377 -0.6154 -0.3055
  868MOL0     O17053  11.405   0.201   6.986  0.4815 -0.4998  0.3066
  868MOL0     C17054  11.513   0.152   7.061 -0.1394  0.9840  0.4683
  868MOL0     C17055  11.519  -0.008   7.048  0.8372  0.4436  0.0073
  868MOL0     C17056  11.426  -0.052   7.157  0.0896  0.4277 -1.0994
  868MOL0     C17057  11.376  -0.195   7.120  0.8093 -0.3499  0.5136
  868MOL0     C17058  11.274  -0.206   7.003 -0.6295 -0.2772 -0.7159
  868MOL0     C17059  11.195  -0.353   7.007  0.0969 -1.1600  0.5058
  868MOL0     C17060  11.129  -0.374   6.866 -0.1083  0.4726 -0.3864
  868MOL0     C17061  11.001  -0.291   6.844  0.0895 -0.0865 -0.4229
  868MOL0     N17062  10.936  -0.316   6.716 -0.5395  1.2695  0.1577
  868MOL0     C17063  10.925  -0.435   6.643 -1.8373 -1.1382 -0.4320
  868MOL0     C17064  10.842  -0.404   6.544  0.9568 -0.3084 -0.1773
  868MOL0     C17065  10.784  -0.505   6.453  0.2242  0.5062 -0.1603
  868MOL0     C17066  10.875  -0.589   6.364 -0.3381  0.2881  0.6528
  868MOL0     C17067  10.969  -0.684   6.443 -0.2782 -0.7235 -0.7720
  868MOL0     C17068  11.053  -0.768   6.351  0.0153 -0.2514 -0.8229
  868MOL0     O17069  11.140  -0.829   6.448  0.3135  0.2595  0.1885
  868MOL0     C17070  11.255  -0.885   6.387 -0.3129 -0.0480  0.9476
  868MOL0     C17071  11.346  -0.947   6.475  0.7062 -0.3103  0.1098
  868MOL0     C17072  11.447  -1.021   6.417 -0.6919  0.0669 -0.3055
  868MOL0     C17073  11.490  -1.025   6.287 -0.6802  0.3024 -0.9059
  868MOL0     C17074  11.612  -1.106   6.240 -0.2400 -0.5143  0.0478
  868MOL0     O17075  11.649  -1.090   6.117  0.4713 -0.5174 -0.4859
  868MOL0     C17076  11.758  -1.163   6.063  0.8867  0.1015  0.8974
  868MOL0     C17077  11.764  -1.177   5.919  0.5914 -0.4817 -0.9950
  868MOL0     C17078  11.877  -1.212   5.854  0.0026 -0.3838  0.3665
  868MOL0     C17079  11.988  -1.258   5.929 -0.3418 -0.9228  1.0853
  868MOL0     O17080  12.103  -1.308   5.878 -0.2657  0.5881  0.1583
  868MOL0     C17081  12.124  -1.282   5.733 -0.4155 -0.1148  0.1510
  868MOL0     C17082  12.267  -1.319   5.691  0.2736 -0.6030 -0.2036
  868MOL0     C17083  12.275  -1.314   5.539 -0.0813  0.2091  1.0248
  868MOL0     C17084  12.414  -1.355   5.492  0.3448 -0.6578 -0.2301
  868MOL0     C17085  12.436  -1.348   5.343  0.0898 -0.2871  0.3312
  868MOL0     C17086  12.584  -1.368   5.309  0.1174  0.1814 -0.2102
  868MOL0     C17087  12.611  -1.518   5.289  0.6128  0.0946  0.6190
  868MOL0     C17088  12.759  -1.557   5.256  0.2895 -0.1598  0.0070
  868MOL0    Cl17089  12.832  -1.581   5.421  0.3729 -0.3787 -0.0513
  868MOL0     C17090  11.974  -1.267   6.062  0.0655 -0.0791  0.0171
  868MOL0     C17091  11.868  -1.210   6.131  0.0769 -0.7787 -1.0957
  868MOL0     O17092  11.647  -1.196   6.313  0.0703 -0.9313  0.1539
  868MOL0     C17093  11.409  -0.942   6.200  0.5637 -0.1794 -0.7973
  868MOL0     C17094  11.295  -0.879   6.245 -0.8187  0.4759  0.5990
  868MOL0     N17095  10.811  -0.266   6.553  0.2956 -0.4075  0.5112
  868MOL0     N17096  10.869  -0.217   6.657  0.2418 -0.3977  0.1456
  868MOL0     C17097  11.409   0.430   7.050 -0.1949  0.2620  0.5213
  868MOL0     C17098  11.390   0.568   7.014 -0.0411  0.1289 -0.0498
  868MOL0     C17099  11.238   0.899   6.707  0.5795 -0.2438 -0.1085
  868MOL0     C17100  11.366   0.956   6.685  0.3289  0.4973 -0.0367
  868MOL0     C17101  11.380   1.079   6.629  0.2035 -0.8566  0.6319
  868MOL0     C17102  11.271   1.149   6.589  0.9253 -0.3684 -0.4891
  868MOL0     O17103  11.282   1.274   6.536 -0.2264  0.2227 -0.3681
  868MOL0     C17104  11.404   1.354   6.552 -0.1652  0.1763  0.7855
  868MOL0     C17105  11.446   1.399   6.688 -0.6032  0.1454  0.6321
  868MOL0     C17106  11.533   1.528   6.696  0.2743  0.4741 -0.6218
  868MOL0     C17107  11.650   1.538   6.598  0.0211 -0.3526 -0.1400
  868MOL0     C17108  11.733   1.653   6.645  0.1060 -0.1937  0.5543
  868MOL0     C17109  11.791   1.754   6.696  0.2590 -0.2584  0.3487
  868MOL0     C17110  11.142   1.098   6.606  0.5638  0.3742 -1.0996
  868MOL0     C17111  11.121   0.972   6.662 -0.2202 -0.1953 -0.2153
  868MOL0     C17112  10.985   0.912   6.684 -0.2745  0.4916  0.2314
  868MOL0     H17113  11.416   0.533   6.684 -2.3850  0.0367 -0.9040
  868MOL0     H17114  11.394   0.293   6.750 -1.0805  0.7393 -0.3861
  868MOL0     H17115  11.612   0.196   7.041  0.5726 -0.9936 -0.5689
  868MOL0     H17116  11.501   0.185   7.165 -2.0544  1.7637  0.0391
  868MOL0     H17117  11.618  -0.044   7.078 -0.6688 -2.9533  1.4667
  868MOL0     H17118  11.484  -0.030   6.947 -1.0103  0.1909  0.6497
  868MOL0     H17119  11.340   0.012   7.178 -0.9682 -1.6785  1.6563
  868MOL0     H17120  11.481  -0.070   7.249 -3.1359 -0.2716  0.8593
  868MOL0     H17121  11.465  -0.256   7.104  2.1122  1.5936  0.1288
  868MOL0     H17122  11.328  -0.238   7.209  1.5556  0.3500  1.2706
  868MOL0     H17123  11.203  -0.123   7.011  0.9931  1.0196  0.6130
  868MOL0     H17124  11.332  -0.193   6.912  1.4960 -1.5004  0.4042
  868MOL0     H17125  11.274  -0.426   7.028  1.8200  0.8735  1.4340
  868MOL0     H17126  11.111  -0.361   7.075 -0.6559 -1.5093 -0.4431
  868MOL0     H17127  11.107  -0.480   6.860  1.1950  0.0071  1.9114
  868MOL0     H17128  11.202  -0.345   6.789  2.7307 -1.5858  1.3263
  868MOL0     H17129  10.924  -0.291   6.921 -0.9198  2.4794 -1.3052
  868MOL0     H17130  11.028  -0.186   6.833  0.4290 -0.2312 -0.9899
  868MOL0     H17131  10.974  -0.528   6.673  2.2178  1.4929  2.2775
  868MOL0     H17132  10.713  -0.563   6.513  0.2913 -1.3086 -1.7577
  868MOL0     H17133  10.714  -0.455   6.386  0.3424  0.1087 -0.5790
  868MOL0     H17134  10.809  -0.649   6.300  1.1417 -1.8668  1.0492
  868MOL0     H17135  10.942  -0.520   6.313  1.0174  0.4930  2.6125
  868MOL0     H17136  10.914  -0.759   6.500 -0.4351 -1.4848 -1.9156
  868MOL0     H17137  11.037  -0.633   6.512 -1.7052 -0.9607  0.8757
  868MOL0     H17138  11.118  -0.703   6.291  0.5436  3.4965  3.2621
  868MOL0     H17139  10.991  -0.836   6.293 -0.1948 -1.4480  0.7535
  868MOL0     H17140  11.318  -0.956   6.579  4.0333 -1.9959  1.0095
  868MOL0     H17141  11.503  -1.069   6.497  0.8969  0.6499 -1.0312
  868MOL0     H17142  11.678  -1.149   5.859 -0.0863 -3.3035 -1.4800
  868MOL0     H17143  11.860  -1.203   5.747 -4.2428  0.2039  0.9335
  868MOL0     H17144  12.051  -1.344   5.679 -0.3335 -2.3653  2.4502
  868MOL0     H17145  12.110  -1.176   5.712 -0.6837 -0.2875 -0.5812
  868MOL0     H17146  12.340  -1.256   5.742 -0.0556  1.4795 -2.1048
  868MOL0     H17147  12.287  -1.425   5.711 -0.5737 -0.8760 -0.7051
  868MOL0     H17148  12.209  -1.384   5.487  2.8613  1.1576 -4.9826
  868MOL0     H17149  12.253  -1.209   5.515  0.1055  0.4647  1.9448
  868MOL0     H17150  12.430  -1.459   5.524 -0.9589 -0.2840  1.8728
  868MOL0     H17151  12.488  -1.289   5.537  0.3728  1.0479 -2.6009
  868MOL0     H17152  12.412  -1.245   5.315 -0.7474 -0.4907  0.2624
  868MOL0     H17153  12.363  -1.412   5.290 -0.8147  2.7318 -2.4177
  868MOL0     H17154  12.600  -1.317   5.213  1.3757 -1.3293 -0.8404
  868MOL0     H17155  12.666  -1.331   5.371  1.1697 -1.3985 -0.6049
  868MOL0     H17156  12.558  -1.553   5.200  2.1009  0.9112 -0.6381
  868MOL0     H17157  12.565  -1.581   5.366  2.9704 -0.5255  1.6151
  868MOL0     H17158  12.772  -1.645   5.193  3.5293 -0.4048  0.8093
  868MOL0     H17159  12.808  -1.468   5.214 -1.0377  0.7561  0.3407
  868MOL0     H17160  12.039  -1.333   6.119 -0.2874 -0.4326  0.0142
  868MOL0     H17161  11.869  -1.213   6.239 -0.5705 -4.8917 -1.0194
  868MOL0     H17162  11.431  -0.936   6.094 -0.9364  3.6528 -1.0454
  868MOL0     H17163  11.237  -0.830   6.167 -1.2576 -2.4343 -1.0648
  868MOL0     H17164  11.411   0.389   7.151  5.1927 -2.6718 -0.3809
  868MOL0     H17165  11.387   0.644   7.092  2.4039 -0.6499  0.9231
  868MOL0     H17166  11.455   0.895   6.696 -1.2616 -1.8554  0.4277
  868MOL0     H17167  11.480   1.120   6.615  1.4267 -2.5447  3.4304
  868MOL0     H17168  11.393   1.436   6.480 -1.7209 -2.8686 -2.7906
  868MOL0     H17169  11.487   1.297   6.510 -0.0303 -2.2508  3.9284
  868MOL0     H17170  11.506   1.320   6.732 -0.4906  0.3841  0.9063
  868MOL0     H17171  11.358   1.427   6.747  0.4239 -0.2820  2.4116
  868MOL0     H17172  11.567   1.521   6.800  0.3503 -1.2923 -0.7355
  868MOL0     H17173  11.469   1.615   6.680  0.8189  1.1111  0.5409
  868MOL0     H17174  11.704   1.443   6.596 -0.8166 -0.8339 -0.9046
  868MOL0     H17175  11.626   1.562   6.494  1.2195 -1.2226 -0.6395
  868MOL0     H17176  11.857   1.824   6.743  0.4789  0.5523 -1.1005
  868MOL0     H17177  11.067   1.163   6.564 -0.4730  1.1250  1.7268
  868MOL0     H17178  10.917   0.965   6.617 -3.2043 -1.3751  1.5538
  868MOL0     H17179  10.973   0.806   6.660 -1.8919  1.2593 -2.9500
  868MOL0     H17180  10.961   0.930   6.789  1.6702 -1.9013  1.1844
  869MOL0     O17181   6.805   7.028   8.165 -0.8996 -0.3359  0.3384
  869MOL0     C17182   6.825   7.046   8.288  0.4630  0.0612 -0.5090
  869MOL0     O17183   6.894   7.157   8.339 -1.1949  0.3559  0.0954
  869MOL0     C17184   6.936   7.238   8.236 -0.2312 -0.1048  0.7193
  869MOL0     C17185   6.864   7.355   8.204 -0.2580  0.1491 -0.0147
  869MOL0     C17186   6.902   7.434   8.100 -0.6901 -1.1413  0.0270
  869MOL0     C17187   7.033   7.404   8.033  0.3655  0.0525 -0.5723
  869MOL0     O17188   7.096   7.496   7.953 -0.6358 -0.1672  0.3547
  869MOL0     C17189   7.085   7.638   7.972  0.5622 -0.2210  0.2519
  869MOL0     C17190   7.159   7.700   8.091 -0.0966  0.2107 -0.2785
  869MOL0     C17191   7.115   7.841   8.141  0.8721  0.1862 -0.3158
  869MOL0     C17192   7.225   7.941   8.166  0.2694  0.3966  0.5697
  869MOL0     C17193   7.341   7.878   8.249 -0.2095 -0.2829  0.6481
  869MOL0     C17194   7.439   7.972   8.308 -0.5642 -0.7329  0.7771
  869MOL0     C17195   7.549   7.911   8.393  0.0875 -0.4976  0.4254
  869MOL0     C17196   7.497   7.870   8.539  0.1999  0.3275 -0.2157
  869MOL0     N17197   7.607   7.815   8.621  0.2817  0.6128  0.6278
  869MOL0     C17198   7.662   7.695   8.605 -0.2705  0.2649 -0.7482
  869MOL0     C17199   7.757   7.698   8.706 -0.3414  0.8922 -0.0900
  869MOL0     C17200   7.852   7.588   8.726 -1.6948 -0.1622 -0.1648
  869MOL0     C17201   7.795   7.494   8.827  0.3776 -0.2054 -0.2931
  869MOL0     C17202   7.816   7.342   8.789  0.2466 -0.2178 -0.2292
  869MOL0     C17203   7.748   7.254   8.895  0.8065  0.4704 -0.7603
  869MOL0     O17204   7.735   7.125   8.837  0.5147 -0.6510  0.2348
  869MOL0     C17205   7.629   7.046   8.877  0.4924  0.6588  0.5841
  869MOL0     C17206   7.575   6.963   8.787  0.1109  0.0272 -0.2508
  869MOL0     C17207   7.464   6.885   8.823  0.4071  0.8386  0.0726
  869MOL0     C17208   7.409   6.885   8.958  0.2864 -1.6163 -0.1267
  869MOL0     C17209   7.295   6.801   8.998 -0.6155 -0.0166 -0.9830
  869MOL0     O17210   7.282   6.775   9.127 -0.4320  1.0079 -1.2098
  869MOL0     C17211   7.196   6.674   9.150  0.1544 -0.7887 -0.3627
  869MOL0     C17212   7.064   6.702   9.165  0.7043 -0.0178 -0.2207
  869MOL0     C17213   6.966   6.599   9.166 -0.1830 -0.3269  0.8919
  869MOL0     C17214   7.004   6.467   9.172  0.2352 -0.6279 -0.2528
  869MOL0     O17215   6.923   6.360   9.189 -0.1793  0.3794  0.5434
  869MOL0     C17216   6.781   6.363   9.146 -0.3341 -0.5704 -0.5607
  869MOL0     C17217   6.697   6.343   9.277 -0.0429  0.3716  0.6143
  869MOL0     C17218   6.731   6.213   9.342 -1.0290 -0.6853 -0.2492
  869MOL0     C17219   6.642   6.190   9.470  0.0066  0.3824  0.1811
  869MOL0     C17220   6.666   6.264   9.589  0.9625  0.0803 -0.0479
  869MOL0     C17221   6.595   6.212   9.717 -0.2258  0.3178  0.4487
  869MOL0     C17222   6.601   6.319   9.820  0.8853  0.3546  0.5599
  869MOL0     C17223   6.522   6.275   9.947 -0.0343 -0.6795 -1.2078
  869MOL0    Cl17224   6.553   6.393  10.071 -0.1700  0.0664 -0.1936
  869MOL0     C17225   7.142   6.442   9.166  0.4775 -0.2334  0.5223
  869MOL0     C17226   7.233   6.546   9.143  0.4274  0.5220 -0.8200
  869MOL0     O17227   7.226   6.754   8.910 -0.1186 -0.4762  0.5825
  869MOL0     C17228   7.467   6.978   9.046  0.5178  0.6720  0.7647
  869MOL0     C17229   7.575   7.055   9.009  0.2740  1.0594 -0.4011
  869MOL0     N17230   7.755   7.822   8.763 -0.4541 -0.2300 -0.1524
  869MOL0     N17231   7.671   7.890   8.705  0.0370 -0.7433  0.2861
  869MOL0     C17232   7.108   7.296   8.073  0.8136  0.5753  0.8636
  869MOL0     C17233   7.059   7.211   8.175  0.3938 -0.2969  0.1177
  869MOL0     C17234   6.754   6.961   8.380 -0.7332 -0.7396  0.2092
  869MOL0     C17235   6.707   7.032   8.490  1.4785  0.2807 -0.2037
  869MOL0     C17236   6.630   6.968   8.589  0.1732  0.5980  0.0381
  869MOL0     C17237   6.581   6.836   8.565  0.1026  0.1024  0.5057
  869MOL0     O17238   6.478   6.772   8.636 -0.1926 -0.1941  0.0943
  869MOL0     C17239   6.421   6.836   8.743 -0.2830  0.0522  0.1230
  869MOL0     C17240   6.288   6.768   8.787  0.6926  0.5693  0.0725
  869MOL0     C17241   6.282   6.617   8.780 -0.4241  0.0685  0.2117
  869MOL0     C17242   6.155   6.548   8.830  0.3925 -0.0566 -0.0260
  869MOL0     C17243   6.034   6.580   8.754  0.9045  0.1669 -0.0681
  869MOL0     C17244   5.931   6.598   8.697 -0.1493  0.0008 -0.3294
  869MOL0     C17245   6.635   6.769   8.456  0.4591  0.7041 -0.3329
  869MOL0     C17246   6.724   6.826   8.364 -0.0195 -0.3148  0.3104
  869MOL0     C17247   6.782   6.735   8.263  0.1041 -0.0777  0.1019
  869MOL0     H17248   6.777   7.372   8.267 -0.0814  0.5402  0.1285
  869MOL0     H17249   6.850   7.525   8.072  1.5891  0.7919  1.6931
  869MOL0     H17250   7.122   7.687   7.881  1.1595  0.8618  1.0645
  869MOL0     H17251   6.981   7.669   7.983  0.2102 -0.5700 -1.6291
  869MOL0     H17252   7.263   7.688   8.059 -0.4527 -0.0370 -1.3871
  869MOL0     H17253   7.143   7.631   8.174 -3.8445 -1.8504 -2.4318
  869MOL0     H17254   7.059   7.821   8.233 -1.5153 -1.7427 -2.0603
  869MOL0     H17255   7.038   7.893   8.083  1.1373 -1.3511 -2.1140
  869MOL0     H17256   7.257   7.963   8.063  0.4007  1.7213  0.8782
  869MOL0     H17257   7.183   8.036   8.200 -1.2147  0.1496 -0.4612
  869MOL0     H17258   7.314   7.815   8.335  0.6332  1.7889  2.5168
  869MOL0     H17259   7.393   7.803   8.188  2.4861  0.3107  2.0663
  869MOL0     H17260   7.491   8.017   8.222  1.1915 -1.0165  1.6409
  869MOL0     H17261   7.398   8.054   8.368 -1.5080 -0.6884  0.0940
  869MOL0     H17262   7.632   7.982   8.402 -0.7505  0.9406 -2.1020
  869MOL0     H17263   7.594   7.823   8.347 -1.2296 -1.2880  0.5814
  869MOL0     H17264   7.470   7.965   8.586  1.3808 -0.0608  1.3427
  869MOL0     H17265   7.411   7.803   8.546  0.4148  0.2297  1.9754
  869MOL0     H17266   7.653   7.611   8.537 -0.0614 -0.4746  0.1217
  869MOL0     H17267   7.880   7.529   8.638  3.9139  0.0763  1.0904
  869MOL0     H17268   7.946   7.633   8.759 -1.6055 -1.3209  1.2484
  869MOL0     H17269   7.860   7.506   8.914  0.2982  1.9658 -0.4777
  869MOL0     H17270   7.692   7.518   8.852  0.5631  0.4561 -0.1430
  869MOL0     H17271   7.921   7.318   8.771  0.3656  0.1630 -0.0647
  869MOL0     H17272   7.776   7.316   8.690  1.1024 -1.2509 -0.3171
  869MOL0     H17273   7.644   7.287   8.906  0.1332 -1.9173  0.7533
  869MOL0     H17274   7.793   7.253   8.995  0.7831  3.0385 -0.6573
  869MOL0     H17275   7.623   6.966   8.690  0.1703 -2.0611 -0.3124
  869MOL0     H17276   7.421   6.827   8.742 -0.1473  1.5610 -0.1548
  869MOL0     H17277   7.037   6.807   9.170 -2.0236 -0.6648  0.2244
  869MOL0     H17278   6.864   6.633   9.177 -1.3962 -1.8055 -3.4958
  869MOL0     H17279   6.747   6.461   9.111 -1.7538 -0.6808  0.4212
  869MOL0     H17280   6.753   6.299   9.062  0.3175  0.0013 -1.2272
  869MOL0     H17281   6.723   6.417   9.352 -0.6258 -0.2534  1.4517
  869MOL0     H17282   6.589   6.347   9.256 -0.0180 -1.8663 -0.2126
  869MOL0     H17283   6.718   6.133   9.268  1.0227 -2.1897  0.9320
  869MOL0     H17284   6.830   6.205   9.386 -2.2065 -0.3788  2.6317
  869MOL0     H17285   6.655   6.086   9.501  0.4525  0.6125  0.7595
  869MOL0     H17286   6.536   6.201   9.445 -0.5327 -2.4091  0.9118
  869MOL0     H17287   6.633   6.365   9.563 -0.1499 -0.5494 -1.1516
  869MOL0     H17288   6.775   6.263   9.605  0.9461  2.1218  0.4522
  869MOL0     H17289   6.491   6.186   9.694 -1.2465 -3.2514  6.8962
  869MOL0     H17290   6.638   6.122   9.761  3.0982  0.5121 -2.0035
  869MOL0     H17291   6.552   6.410   9.786 -2.0894 -0.7605  1.5358
  869MOL0     H17292   6.703   6.339   9.853  1.5107  0.6202 -1.3972
  869MOL0     H17293   6.417   6.285   9.918 -0.6398  5.6312  1.4947
  869MOL0     H17294   6.559   6.174   9.968 -0.5537 -0.4998  0.7456
  869MOL0     H17295   7.188   6.344   9.176  0.2113 -0.5916 -1.3229
  869MOL0     H17296   7.341   6.534   9.141  0.4850  0.8738 -0.0661
  869MOL0     H17297   7.421   6.992   9.143  0.1199  2.9542  0.3099
  869MOL0     H17298   7.610   7.125   9.085  2.4595  0.3933 -0.7348
  869MOL0     H17299   7.204   7.288   8.025  0.3116 -1.1147  0.0995
  869MOL0     H17300   7.118   7.127   8.207 -0.8496 -0.9673  0.7102
  869MOL0     H17301   6.733   7.135   8.511 -1.7048  0.9202  1.1011
  869MOL0     H17302   6.586   7.040   8.658 -1.8332  0.1312 -0.6897
  869MOL0     H17303   6.398   6.941   8.718 -0.8873  0.1719  1.1356
  869MOL0     H17304   6.488   6.840   8.829  0.6054 -2.1098 -0.4073
  869MOL0     H17305   6.206   6.800   8.722 -1.1274  0.2821  2.1045
  869MOL0     H17306   6.249   6.804   8.883  1.1534  4.2028 -0.9661
  869MOL0     H17307   6.371   6.569   8.822  0.4609 -0.1040 -1.7270
  869MOL0     H17308   6.284   6.605   8.671 -0.6940 -0.9816  0.3183
  869MOL0     H17309   6.170   6.439   8.827 -2.0404 -0.4757  0.8050
  869MOL0     H17310   6.146   6.589   8.931  2.0687  0.8819 -0.2273
  869MOL0     H17311   5.836   6.610   8.649  0.0830  1.2379 -0.5170
  869MOL0     H17312   6.603   6.666   8.454 -0.5182  1.0067 -1.4938
  869MOL0     H17313   6.788   6.629   8.289 -2.2214 -0.0186  1.1271
  869MOL0     H17314   6.737   6.757   8.166 -1.1995  0.0195  0.7092
  869MOL0     H17315   6.889   6.756   8.250  0.6333 -1.3663  1.9428
  870MOL0     O17316   9.561   0.265  11.296 -0.1565 -0.2201 -0.0394
  870MOL0     C17317   9.441   0.232  11.306 -0.8667  0.7399 -0.1466
  870MOL0     O17318   9.370   0.221  11.428 -0.1837  0.0980 -1.2527
  870MOL0     C17319   9.446   0.213  11.544  0.2079  0.2156 -0.7734
  870MOL0     C17320   9.528   0.314  11.592 -0.6188 -0.5351 -0.2186
  870MOL0     C17321   9.593   0.309  11.710  0.0321  0.1888 -0.9057
  870MOL0     C17322   9.581   0.192  11.788 -0.1555 -0.5408  0.4818
  870MOL0     O17323   9.628   0.184  11.914  0.7130 -1.0872  0.2630
  870MOL0     C17324   9.567   0.265  12.017 -0.3968 -0.6642  0.2678
  870MOL0     C17325   9.670   0.365  12.065 -0.3424 -0.6022 -0.1241
  870MOL0     C17326   9.613   0.460  12.164 -0.0741 -0.1767 -0.1053
  870MOL0     C17327   9.720   0.550  12.224 -1.0605 -0.2354 -0.4233
  870MOL0     C17328   9.665   0.659  12.315 -0.1997 -0.2252 -0.1267
  870MOL0     C17329   9.757   0.765  12.370  0.7098  0.3827 -0.1768
  870MOL0     C17330   9.828   0.711  12.501  0.4787 -1.5447 -0.5555
  870MOL0     C17331   9.747   0.728  12.631  0.5371 -0.1239  0.3896
  870MOL0     N17332   9.824   0.786  12.737  0.1268  0.4627 -0.4859
  870MOL0     C17333   9.827   0.733  12.862 -0.3164  0.1807  0.5672
  870MOL0     C17334   9.887   0.819  12.940  0.2244  0.2442 -0.1604
  870MOL0     C17335   9.941   0.796  13.082 -0.0123 -0.0307  0.2763
  870MOL0     C17336   9.934   0.923  13.170  0.1148  0.4181  0.2484
  870MOL0     C17337   9.963   0.905  13.322 -0.2850  0.7274 -0.1407
  870MOL0     C17338   9.950   1.035  13.416  0.0864  0.0057  0.1151
  870MOL0     O17339  10.017   1.145  13.353 -0.0334 -1.0732 -0.4161
  870MOL0     C17340   9.990   1.273  13.376 -0.3573 -0.3165  0.3944
  870MOL0     C17341   9.905   1.319  13.480  0.1343  1.0440 -0.8475
  870MOL0     C17342   9.865   1.451  13.495 -0.1150  0.4396 -0.7022
  870MOL0     C17343   9.930   1.543  13.413  0.0819  0.4337  0.3028
  870MOL0     C17344   9.909   1.693  13.407  0.0903 -0.0445  0.2778
  870MOL0     O17345   9.995   1.776  13.342  0.2906 -0.2622 -0.0755
  870MOL0     C17346   9.999   1.909  13.382  1.0233  0.3150  0.9364
  870MOL0     C17347   9.976   1.963  13.506  1.0220  0.4387  0.1444
  870MOL0     C17348   9.979   2.097  13.536  0.0652  0.0776  0.3263
  870MOL0     C17349   9.992   2.181  13.424  1.2303 -0.3940  0.2973
  870MOL0     O17350   9.986   2.318  13.424 -0.3066  0.6795 -0.5157
  870MOL0     C17351  10.004   2.383  13.550 -0.1388 -0.6848 -0.1972
  870MOL0     C17352  10.144   2.382  13.604  0.0468  0.9338  0.9842
  870MOL0     C17353  10.166   2.453  13.741 -0.4270 -0.5229 -0.3601
  870MOL0     C17354  10.148   2.601  13.735  0.5019 -0.3564 -0.3906
  870MOL0     C17355  10.171   2.699  13.859  0.7899 -0.6858  0.0420
  870MOL0     C17356  10.100   2.646  13.983  1.4735 -0.0034 -0.4779
  870MOL0     C17357  10.127   2.743  14.102  0.5584  0.4326  0.4130
  870MOL0     C17358  10.281   2.752  14.132  0.7609 -0.5756 -1.1184
  870MOL0    Cl17359  10.355   2.888  14.040 -0.1005 -0.2941 -0.1615
  870MOL0     C17360  10.008   2.132  13.294 -0.2074  0.6679  0.9526
  870MOL0     C17361  10.007   1.994  13.277 -0.1048 -0.6046 -0.0456
  870MOL0     O17362   9.817   1.727  13.472  0.5216 -0.3146 -0.2712
  870MOL0     C17363  10.025   1.498  13.317  1.2079  0.5684 -0.8103
  870MOL0     C17364  10.054   1.361  13.296 -0.3546  0.1910 -0.9511
  870MOL0     N17365   9.921   0.934  12.867 -0.5380 -1.1325 -0.4627
  870MOL0     N17366   9.873   0.912  12.747 -1.0173  0.6438  0.2351
  870MOL0     C17367   9.494   0.092  11.747 -1.1132 -0.6688  0.6283
  870MOL0     C17368   9.429   0.097  11.623 -0.9145 -0.3351 -0.4101
  870MOL0     C17369   9.379   0.175  11.192  0.8250 -0.2090  0.3314
  870MOL0     C17370   9.290   0.065  11.208  1.0363  0.9332  0.5651
  870MOL0     C17371   9.234  -0.012  11.103 -0.3053 -0.2816  0.1072
  870MOL0     C17372   9.263   0.034  10.968  0.5479  0.2595 -0.2126
  870MOL0     O17373   9.202  -0.048  10.877  0.3621  0.3386 -1.2883
  870MOL0     C17374   9.210  -0.034  10.738  0.2132 -0.7130 -0.8122
  870MOL0     C17375   9.249  -0.162  10.662 -0.4531  0.2413 -0.4172
  870MOL0     C17376   9.405  -0.164  10.647  0.6328 -0.2115  0.5738
  870MOL0     C17377   9.449  -0.316  10.633 -0.7605  0.2158  0.5711
  870MOL0     C17378   9.450  -0.364  10.771  0.1560  0.1801  0.4559
  870MOL0     C17379   9.462  -0.372  10.892 -1.5984 -0.2593  0.1725
  870MOL0     C17380   9.347   0.141  10.948 -0.1247 -0.2402  0.6238
  870MOL0     C17381   9.411   0.213  11.055  0.6311 -0.3866  0.3625
  870MOL0     C17382   9.502   0.331  11.019 -0.1850 -0.1929 -0.5589
  870MOL0     H17383   9.523   0.407  11.535  0.2663  0.5656  1.4242
  870MOL0     H17384   9.662   0.387  11.742 -2.6548  3.1771 -1.8245
  870MOL0     H17385   9.494   0.330  11.968  2.4741  1.3279 -1.6690
  870MOL0     H17386   9.520   0.206  12.097  0.3967 -0.9585  0.5291
  870MOL0     H17387   9.714   0.419  11.980  0.5919 -1.2305 -0.0625
  870MOL0     H17388   9.751   0.303  12.106 -0.5245  0.1895  1.5018
  870MOL0     H17389   9.569   0.400  12.245  0.2271 -1.9178 -1.1741
  870MOL0     H17390   9.543   0.518  12.105  1.6729  1.1891 -0.9133
  870MOL0     H17391   9.795   0.488  12.275 -0.2294 -1.9292 -3.4767
  870MOL0     H17392   9.768   0.598  12.139 -2.0460  1.9459  0.1786
  870MOL0     H17393   9.592   0.714  12.255  0.4007  0.6577 -0.0662
  870MOL0     H17394   9.605   0.611  12.393 -2.9943  1.0524 -1.3296
  870MOL0     H17395   9.845   0.766  12.304  4.2237 -0.0478  4.0311
  870MOL0     H17396   9.696   0.856  12.367 -5.5191 -3.1496 -4.6035
  870MOL0     H17397   9.930   0.746  12.517  0.1174 -1.5858  2.3446
  870MOL0     H17398   9.833   0.601  12.497  3.0397 -1.4765 -0.9562
  870MOL0     H17399   9.661   0.789  12.603  1.0822  0.3555 -0.2506
  870MOL0     H17400   9.721   0.625  12.659 -3.1835  1.3075  3.0724
  870MOL0     H17401   9.775   0.640  12.883 -1.0726  0.8489  1.7405
  870MOL0     H17402   9.892   0.712  13.132  3.1733 -2.3574 -0.1737
  870MOL0     H17403  10.043   0.758  13.066 -0.0913 -0.1700  0.0996
  870MOL0     H17404  10.001   0.998  13.128 -2.4975  1.7907 -1.7383
  870MOL0     H17405   9.832   0.956  13.147  0.2869 -0.5670 -2.2118
  870MOL0     H17406  10.070   0.883  13.316 -0.4599 -0.1648 -0.2207
  870MOL0     H17407   9.904   0.821  13.359  0.5106 -0.6452 -1.8205
  870MOL0     H17408   9.992   1.004  13.511  1.9279 -3.5326 -1.6699
  870MOL0     H17409   9.842   1.050  13.427  0.2986  0.2183  2.1974
  870MOL0     H17410   9.869   1.249  13.555  0.9506  3.2075  1.7452
  870MOL0     H17411   9.820   1.490  13.585 -0.6058 -1.3530 -0.1361
  870MOL0     H17412   9.968   1.891  13.586 -1.0786 -0.3867 -0.7324
  870MOL0     H17413   9.977   2.122  13.642  0.3896  0.3982  0.2635
  870MOL0     H17414   9.981   2.488  13.532 -2.5024 -1.5412 -2.8257
  870MOL0     H17415   9.927   2.342  13.617 -0.9138  0.6603 -0.2244
  870MOL0     H17416  10.184   2.280  13.612  0.2766  0.9516  0.1102
  870MOL0     H17417  10.203   2.434  13.528 -0.9081  2.0506  0.9820
  870MOL0     H17418  10.109   2.410  13.823  1.7413 -0.7913  1.1012
  870MOL0     H17419  10.269   2.424  13.764  1.0152  1.5990 -3.5040
  870MOL0     H17420  10.045   2.614  13.700 -1.0743 -2.7952  2.7743
  870MOL0     H17421  10.219   2.634  13.659 -1.7139 -2.1645 -3.4900
  870MOL0     H17422  10.124   2.795  13.837  1.6220 -0.3044 -0.0818
  870MOL0     H17423  10.279   2.712  13.864  0.6370  0.3030  1.2921
  870MOL0     H17424   9.992   2.626  13.974  1.0064 -1.2004  4.5712
  870MOL0     H17425  10.143   2.553  14.023 -1.4182  0.5369  4.8457
  870MOL0     H17426  10.068   2.693  14.179  1.5027 -3.1038 -0.9329
  870MOL0     H17427  10.080   2.840  14.084  1.0025  0.7130  0.7736
  870MOL0     H17428  10.286   2.768  14.240  0.2822  1.4509 -1.3634
  870MOL0     H17429  10.325   2.653  14.113  2.5368 -0.7047  2.7010
  870MOL0     H17430  10.024   2.197  13.209 -0.1722  0.7905  1.0533
  870MOL0     H17431  10.010   1.957  13.175  0.4611  1.9641 -1.0345
  870MOL0     H17432  10.079   1.572  13.259  3.6550 -0.6874 -0.2440
  870MOL0     H17433  10.126   1.328  13.221  0.3141  1.8434 -1.0862
  870MOL0     H17434   9.485  -0.002  11.801  4.0285 -1.4966  0.5015
  870MOL0     H17435   9.373   0.009  11.595  0.0394 -1.5153  1.2112
  870MOL0     H17436   9.281   0.037  11.313  0.8568  4.0754  1.4866
  870MOL0     H17437   9.176  -0.102  11.120  0.4089 -1.5923 -3.4283
  870MOL0     H17438   9.276   0.047  10.705 -2.6537  1.6753 -1.1409
  870MOL0     H17439   9.110  -0.004  10.705 -0.7258 -1.4689  1.2284
  870MOL0     H17440   9.211  -0.157  10.560  1.0143  0.4860 -0.9694
  870MOL0     H17441   9.216  -0.248  10.720  0.4886  2.5768  4.0554
  870MOL0     H17442   9.471  -0.114  10.718 -0.4592  2.7315 -0.3535
  870MOL0     H17443   9.430  -0.122  10.549 -4.3059  0.0588 -0.8338
  870MOL0     H17444   9.387  -0.370  10.561  0.0511 -2.4987  1.7868
  870MOL0     H17445   9.550  -0.332  10.596 -0.9337 -1.6413  0.8002
  870MOL0     H17446   9.482  -0.356  10.995 -2.3025  1.5931  0.0476
  870MOL0     H17447   9.376   0.163  10.846  0.1494 -5.4853 -0.7233
  870MOL0     H17448   9.608   0.311  11.040  0.2080  1.1448 -1.1925
  870MOL0     H17449   9.487   0.336  10.911 -3.4027  1.1793 -0.1450
  870MOL0     H17450   9.479   0.431  11.058  2.2785  0.5705 -0.8888
  871MOL0     O17451   0.243   2.997   5.734 -0.3086 -0.5020  0.5884
  871MOL0     C17452   0.255   2.880   5.680  0.2415 -0.5419  0.0611
  871MOL0     O17453   0.374   2.809   5.666 -0.0052 -0.8173 -0.0453
  871MOL0     C17454   0.499   2.832   5.705  0.0847 -0.0394  0.7737
  871MOL0     C17455   0.589   2.755   5.636  0.8713  0.3686  0.1440
  871MOL0     C17456   0.724   2.768   5.659  0.2777 -0.5305  0.1419
  871MOL0     C17457   0.775   2.860   5.752 -0.2186 -0.4118  0.0399
  871MOL0     O17458   0.909   2.883   5.782  0.0958 -0.8596  0.9781
  871MOL0     C17459   1.008   2.779   5.756 -0.2923  0.1872  0.2373
  871MOL0     C17460   1.146   2.834   5.786 -0.0144 -0.2058  0.1009
  871MOL0     C17461   1.173   2.813   5.929  0.0060  1.1075  0.3894
  871MOL0     C17462   1.315   2.873   5.952  0.7583  0.6523  0.3640
  871MOL0     C17463   1.307   3.022   5.963 -0.7015  0.3682 -0.1420
  871MOL0     C17464   1.433   3.090   6.008 -0.7288 -0.1045  0.0175
  871MOL0     C17465   1.411   3.242   6.036  0.1652  0.1524  0.3566
  871MOL0     C17466   1.377   3.261   6.184 -0.4282  0.1733  0.2643
  871MOL0     N17467   1.250   3.333   6.203 -0.6097  0.5156  0.3677
  871MOL0     C17468   1.240   3.471   6.198 -0.5126 -0.0515  0.4477
  871MOL0     C17469   1.110   3.491   6.200  0.8090 -0.2806  0.0831
  871MOL0     C17470   1.064   3.637   6.204  1.2310  0.3558 -0.2351
  871MOL0     C17471   0.986   3.674   6.341 -1.1302 -0.9450  0.2988
  871MOL0     C17472   0.944   3.816   6.335 -0.6592 -0.0708 -0.4224
  871MOL0     C17473   0.815   3.826   6.246 -0.5242 -0.2311 -0.4801
  871MOL0     O17474   0.725   3.903   6.320  0.1515  0.1099  0.3885
  871MOL0     C17475   0.626   3.971   6.259 -0.2202  0.0088  0.0392
  871MOL0     C17476   0.542   4.053   6.338  0.1106 -0.5658  0.0118
  871MOL0     C17477   0.448   4.128   6.282  0.0893 -0.2421  0.1630
  871MOL0     C17478   0.428   4.136   6.145  0.3211 -0.4076  0.0147
  871MOL0     C17479   0.316   4.216   6.082  0.3177  0.3576 -0.2810
  871MOL0     O17480   0.280   4.322   6.155  0.1364  0.5382  0.2434
  871MOL0     C17481   0.158   4.390   6.137 -0.7377 -0.5921  0.2323
  871MOL0     C17482   0.047   4.348   6.061 -0.0349  0.0948 -0.4210
  871MOL0     C17483  -0.052   4.442   6.033  0.1165 -0.5477 -0.2612
  871MOL0     C17484  -0.063   4.566   6.085 -0.5698 -0.4141 -0.1995
  871MOL0     O17485  -0.163   4.661   6.056 -0.5015 -0.3976  0.4817
  871MOL0     C17486  -0.277   4.616   5.974 -0.1020 -0.7873  1.3859
  871MOL0     C17487  -0.381   4.722   5.962  1.5153  0.8254  0.4813
  871MOL0     C17488  -0.359   4.842   5.871 -1.0584 -0.2354 -0.6977
  871MOL0     C17489  -0.245   4.928   5.917  0.7451 -1.0460 -0.4488
  871MOL0     C17490  -0.221   5.058   5.826 -0.1189  0.0765  0.0895
  871MOL0     C17491  -0.168   5.174   5.907 -0.3910  0.1356 -0.2658
  871MOL0     C17492  -0.114   5.276   5.818  0.3604 -0.7222  1.2086
  871MOL0     C17493  -0.044   5.394   5.886  0.2590  0.2415  0.4907
  871MOL0    Cl17494  -0.013   5.517   5.771 -0.2305 -0.2078 -0.0962
  871MOL0     C17495   0.052   4.609   6.142  0.8264 -0.3910 -0.2039
  871MOL0     C17496   0.162   4.519   6.184 -0.4321 -0.3604  0.6852
  871MOL0     O17497   0.280   4.186   5.969  0.9174  0.3707  0.5152
  871MOL0     C17498   0.521   4.068   6.063  0.0596  0.1073  0.2782
  871MOL0     C17499   0.613   3.989   6.123 -0.7590  0.2094 -1.2352
  871MOL0     N17500   1.047   3.367   6.204  0.8677 -0.0194 -0.1720
  871MOL0     N17501   1.135   3.271   6.221 -0.2832 -0.0195  0.2625
  871MOL0     C17502   0.684   2.935   5.826  0.7106  0.5604 -0.3131
  871MOL0     C17503   0.550   2.927   5.791 -0.9089  0.6759  0.3325
  871MOL0     C17504   0.129   2.820   5.624 -0.4046 -0.2300 -0.5098
  871MOL0     C17505   0.155   2.758   5.506 -0.7444  0.1820  0.0183
  871MOL0     C17506   0.067   2.685   5.437 -1.0421 -0.2096 -0.4042
  871MOL0     C17507  -0.073   2.696   5.476 -0.4941 -0.3980  0.4193
  871MOL0     O17508  -0.177   2.627   5.413  0.9400 -0.3631 -0.7160
  871MOL0     C17509  -0.168   2.590   5.277 -0.1363 -0.1902  0.1166
  871MOL0     C17510  -0.093   2.462   5.242  0.0843 -0.4102  0.2160
  871MOL0     C17511  -0.044   2.458   5.095 -0.4768  0.6834  0.2020
  871MOL0     C17512   0.029   2.317   5.070 -0.3453  0.5152  0.6714
  871MOL0     C17513   0.057   2.295   4.934 -0.7780 -0.5741 -0.0200
  871MOL0     C17514   0.063   2.269   4.811  0.1841  0.4536 -0.1352
  871MOL0     C17515  -0.098   2.750   5.609  0.4956 -0.2586  0.0770
  871MOL0     C17516   0.004   2.813   5.679  0.7152 -0.0971 -0.7336
  871MOL0     C17517  -0.028   2.859   5.821 -0.2526 -0.0437  0.1636
  871MOL0     H17518   0.545   2.689   5.561  0.4770  2.7444 -1.8544
  871MOL0     H17519   0.804   2.709   5.614  0.3169 -0.3775  0.0080
  871MOL0     H17520   0.985   2.685   5.808 -0.5294  0.7679  1.2033
  871MOL0     H17521   1.023   2.755   5.650  0.6344 -0.0308  0.4040
  871MOL0     H17522   1.143   2.942   5.766  0.7733  0.9532  4.8867
  871MOL0     H17523   1.220   2.792   5.718 -1.0522 -1.6959 -0.1563
  871MOL0     H17524   1.187   2.706   5.947 -3.0353  0.1149 -2.1279
  871MOL0     H17525   1.096   2.847   5.999  0.4345  1.3549  0.7444
  871MOL0     H17526   1.370   2.831   6.037  0.0669  0.7491  0.8737
  871MOL0     H17527   1.379   2.861   5.865  2.6992 -1.1947  1.9332
  871MOL0     H17528   1.273   3.054   5.864  0.7506 -1.4733 -1.3082
  871MOL0     H17529   1.230   3.054   6.035 -1.0372  1.8566 -1.1304
  871MOL0     H17530   1.487   3.040   6.089 -0.3562  3.0140  1.8642
  871MOL0     H17531   1.505   3.082   5.926  1.1411 -0.4510  1.6115
  871MOL0     H17532   1.319   3.260   5.979 -1.3902  0.4038  2.7934
  871MOL0     H17533   1.505   3.296   6.021 -0.1996  1.8316  3.3908
  871MOL0     H17534   1.359   3.172   6.246 -3.5440  0.7591  0.3780
  871MOL0     H17535   1.464   3.319   6.216 -0.6750  0.9300 -0.4115
  871MOL0     H17536   1.322   3.542   6.194 -1.0611  0.5319 -1.2883
  871MOL0     H17537   1.148   3.705   6.190 -0.3591  1.9617 -2.7070
  871MOL0     H17538   0.999   3.665   6.121  1.0333  2.5267  0.5851
  871MOL0     H17539   0.899   3.610   6.359 -2.9208  0.4881 -2.4921
  871MOL0     H17540   1.062   3.655   6.417 -0.2539  1.6386  0.1560
  871MOL0     H17541   1.026   3.875   6.294 -0.1768 -0.4704 -0.0431
  871MOL0     H17542   0.921   3.855   6.435 -1.0650  1.2189 -0.9935
  871MOL0     H17543   0.762   3.733   6.220 -0.9074  0.1178 -0.9787
  871MOL0     H17544   0.845   3.862   6.147 -1.3219  0.5787 -0.4430
  871MOL0     H17545   0.553   4.061   6.446  1.2302  0.3443 -0.1480
  871MOL0     H17546   0.390   4.188   6.351 -1.2747 -1.3090 -0.0210
  871MOL0     H17547   0.034   4.254   6.010  3.4743  0.3523 -2.1428
  871MOL0     H17548  -0.130   4.417   5.962 -1.4356  0.2684  1.0768
  871MOL0     H17549  -0.243   4.600   5.871  1.9216 -2.8509  2.2958
  871MOL0     H17550  -0.317   4.526   6.021  1.6245 -1.3027  1.9138
  871MOL0     H17551  -0.476   4.682   5.926 -0.8388  4.3640  2.1420
  871MOL0     H17552  -0.402   4.765   6.060  3.0327  0.1985  1.1135
  871MOL0     H17553  -0.328   4.785   5.783 -2.8507 -1.8113 -0.3884
  871MOL0     H17554  -0.441   4.909   5.844  0.0918  1.5993  0.1577
  871MOL0     H17555  -0.157   4.863   5.927  0.2377 -2.0395 -2.0188
  871MOL0     H17556  -0.271   4.971   6.014 -2.9531 -2.7438 -0.5283
  871MOL0     H17557  -0.310   5.084   5.768  0.7725 -1.8466 -2.2936
  871MOL0     H17558  -0.143   5.040   5.752  0.7327  1.5879  0.5914
  871MOL0     H17559  -0.253   5.221   5.956  0.6134  3.6074 -1.5488
  871MOL0     H17560  -0.091   5.132   5.973 -0.9638 -0.7941 -0.1659
  871MOL0     H17561  -0.180   5.310   5.738  1.3280  3.4634  1.9591
  871MOL0     H17562  -0.029   5.233   5.764  1.3934 -0.4238  2.5655
  871MOL0     H17563  -0.123   5.443   5.942 -0.9427  1.7170 -2.2814
  871MOL0     H17564   0.052   5.375   5.936 -0.3462 -1.0141  1.2198
  871MOL0     H17565   0.062   4.709   6.182  2.1942 -1.4933  2.4802
  871MOL0     H17566   0.246   4.569   6.231 -1.1683  0.2922  1.3618
  871MOL0     H17567   0.523   4.077   5.954  2.4709  0.3915  0.2843
  871MOL0     H17568   0.684   3.942   6.055  1.0377  0.2168  0.5332
  871MOL0     H17569   0.714   3.008   5.900  0.8212 -1.0895  1.3399
  871MOL0     H17570   0.471   2.988   5.835 -1.6967  1.3726 -1.8816
  871MOL0     H17571   0.252   2.738   5.460 -0.5419 -0.6926  0.7949
  871MOL0     H17572   0.105   2.647   5.343  4.2224  2.3182  0.3386
  871MOL0     H17573  -0.109   2.670   5.232 -1.6922  1.0843  0.2822
  871MOL0     H17574  -0.268   2.574   5.235  0.8177  0.0046 -2.3988
  871MOL0     H17575  -0.149   2.378   5.282  2.3381 -2.6102 -0.9661
  871MOL0     H17576   0.003   2.461   5.294 -0.8820  2.6717  2.3270
  871MOL0     H17577   0.034   2.530   5.070 -3.3198  2.9882 -3.0061
  871MOL0     H17578  -0.131   2.492   5.038 -1.0993  3.6334  2.6492
  871MOL0     H17579   0.123   2.341   5.121 -2.5138  4.2963  3.3988
  871MOL0     H17580  -0.018   2.228   5.111  0.4735 -0.6155 -0.7591
  871MOL0     H17581   0.081   2.248   4.708  3.2710  0.6289  0.2601
  871MOL0     H17582  -0.195   2.745   5.657  0.8237 -1.1846  0.6901
  871MOL0     H17583   0.058   2.828   5.882 -1.5193  1.9051  3.1574
  871MOL0     H17584  -0.031   2.967   5.831 -4.2516  0.0156 -0.2878
  871MOL0     H17585  -0.117   2.810   5.863  2.1153 -6.4643 -1.1173
  872MOL0     O17586   5.831   7.586   6.819  0.2849 -0.7231 -0.4942
  872MOL0     C17587   5.858   7.493   6.744  0.7715  0.4154 -0.2569
  872MOL0     O17588   5.966   7.418   6.753 -0.0779  0.2272  0.0284
  872MOL0     C17589   6.060   7.477   6.827 -1.0942 -0.3179  0.4956
  872MOL0     C17590   6.122   7.398   6.924  0.1985 -0.2258 -0.1808
  872MOL0     C17591   6.233   7.441   6.989 -0.1999  0.7520  0.0681
  872MOL0     C17592   6.294   7.560   6.963  1.2684  0.5957  0.4893
  872MOL0     O17593   6.402   7.601   7.030  0.0201 -0.2576 -0.0004
  872MOL0     C17594   6.429   7.563   7.163  0.1988  0.5550  0.1519
  872MOL0     C17595   6.524   7.673   7.208 -0.4643  0.6314 -0.0282
  872MOL0     C17596   6.656   7.658   7.146  0.3062  0.4165  1.5387
  872MOL0     C17597   6.757   7.771   7.186  0.0465 -0.6627 -0.0304
  872MOL0     C17598   6.876   7.755   7.100 -0.3355  0.3488  0.6237
  872MOL0     C17599   6.997   7.821   7.147 -0.3055 -0.4356 -0.2083
  872MOL0     C17600   7.121   7.818   7.051  0.1555 -0.0012 -0.1452
  872MOL0     C17601   7.258   7.821   7.125 -0.6971  0.5840 -0.1657
  872MOL0     N17602   7.365   7.821   7.018  0.5101 -0.4780  0.3225
  872MOL0     C17603   7.498   7.830   7.048 -0.2346  0.9367 -0.4271
  872MOL0     C17604   7.570   7.797   6.942  0.4576 -1.0261 -0.3888
  872MOL0     C17605   7.723   7.807   6.930  0.6065  0.0525 -0.4397
  872MOL0     C17606   7.759   7.897   6.812 -0.2925 -0.3568  0.3365
  872MOL0     C17607   7.807   7.824   6.684  0.0271 -0.0219  0.3103
  872MOL0     C17608   7.684   7.799   6.591  0.0501 -0.5125 -0.6420
  872MOL0     O17609   7.620   7.665   6.624 -0.4073  0.0777 -0.2733
  872MOL0     C17610   7.506   7.609   6.556 -0.0151 -0.5008 -0.2474
  872MOL0     C17611   7.432   7.498   6.604  0.2439 -0.0273  0.8133
  872MOL0     C17612   7.325   7.440   6.536 -0.3388 -0.2187  0.7362
  872MOL0     C17613   7.264   7.502   6.420 -0.1172 -1.3054 -0.7368
  872MOL0     C17614   7.145   7.443   6.356 -0.1014 -0.1680  0.4088
  872MOL0     O17615   7.072   7.509   6.263  0.0929  0.2001 -0.1124
  872MOL0     C17616   6.982   7.440   6.181 -0.1613 -0.6609  0.0171
  872MOL0     C17617   6.997   7.305   6.133  0.6806  0.5270  0.7691
  872MOL0     C17618   6.917   7.261   6.032  0.7663  0.0795  0.7220
  872MOL0     C17619   6.821   7.342   5.973  0.5345  0.4285  0.3526
  872MOL0     O17620   6.735   7.305   5.874 -0.4807 -0.0130  0.2358
  872MOL0     C17621   6.790   7.300   5.734  0.6264 -0.9294 -0.2923
  872MOL0     C17622   6.684   7.290   5.639  0.7127 -0.2053  0.5529
  872MOL0     C17623   6.577   7.408   5.631 -0.1631  0.3802  0.1530
  872MOL0     C17624   6.469   7.376   5.534  0.2453  0.0699 -0.1526
  872MOL0     C17625   6.381   7.489   5.527 -0.7507 -0.4061 -0.1576
  872MOL0     C17626   6.332   7.499   5.382  0.2913  0.1308  0.6193
  872MOL0     C17627   6.418   7.585   5.284 -0.7122  0.0847  0.1206
  872MOL0     C17628   6.334   7.623   5.163  0.2957  0.1317 -0.4241
  872MOL0    Cl17629   6.279   7.468   5.089  0.0872 -0.1687  0.0142
  872MOL0     C17630   6.794   7.460   6.036 -0.0105  0.1787 -0.8064
  872MOL0     C17631   6.874   7.510   6.138 -0.5310  0.3730 -0.3392
  872MOL0     O17632   7.121   7.327   6.393  0.2851  0.2727  1.0357
  872MOL0     C17633   7.322   7.626   6.385  0.2871 -0.1891 -0.5376
  872MOL0     C17634   7.443   7.675   6.448  0.5767  0.8501 -0.2194
  872MOL0     N17635   7.477   7.770   6.842  0.7323  0.0928 -0.2212
  872MOL0     N17636   7.359   7.768   6.892 -0.1025 -0.7818  0.7519
  872MOL0     C17637   6.243   7.644   6.862 -0.3823 -0.4173  0.2453
  872MOL0     C17638   6.134   7.597   6.786 -0.0186  0.3227  0.1315
  872MOL0     C17639   5.764   7.468   6.631 -0.4384 -0.2647 -0.2577
  872MOL0     C17640   5.628   7.485   6.664  0.3471  0.6589 -0.3157
  872MOL0     C17641   5.533   7.469   6.563  0.7777  0.5529  0.6942
  872MOL0     C17642   5.572   7.448   6.427 -0.6047  0.4749 -0.4005
  872MOL0     O17643   5.479   7.436   6.334 -0.5114  0.2558  0.6172
  872MOL0     C17644   5.500   7.341   6.224 -0.7986  0.4653 -0.3764
  872MOL0     C17645   5.388   7.365   6.119  0.0799  0.3019 -0.5157
  872MOL0     C17646   5.331   7.236   6.052 -0.3982 -0.2248  0.6554
  872MOL0     C17647   5.217   7.172   6.130 -0.1013 -0.7674 -0.1608
  872MOL0     C17648   5.261   7.131   6.262 -0.3723 -1.1628 -0.0933
  872MOL0     C17649   5.285   7.081   6.372 -0.4909 -0.9985 -0.2012
  872MOL0     C17650   5.711   7.439   6.405 -0.3819  0.2978 -0.0784
  872MOL0     C17651   5.809   7.440   6.505  0.3208 -0.3821 -0.6862
  872MOL0     C17652   5.958   7.438   6.462 -1.7186  0.2372  0.3542
  872MOL0     H17653   6.086   7.299   6.951 -0.4362 -0.1220 -0.6295
  872MOL0     H17654   6.277   7.366   7.054  3.4252  1.2832 -1.5088
  872MOL0     H17655   6.344   7.575   7.231 -1.1085  1.3650 -1.5549
  872MOL0     H17656   6.477   7.465   7.173  1.2982  1.2362  2.0146
  872MOL0     H17657   6.530   7.675   7.317  1.8814  4.2539 -0.0550
  872MOL0     H17658   6.491   7.772   7.178  4.4137  3.2927  2.2420
  872MOL0     H17659   6.634   7.649   7.040 -0.0117 -0.2033  1.6543
  872MOL0     H17660   6.701   7.566   7.186  2.0395  0.2309 -0.6190
  872MOL0     H17661   6.719   7.872   7.164  2.0963  0.2330  0.3693
  872MOL0     H17662   6.787   7.755   7.289  0.9131 -2.2170 -0.4995
  872MOL0     H17663   6.902   7.649   7.095 -0.6810  0.2712 -3.2495
  872MOL0     H17664   6.853   7.793   6.999 -3.4810 -0.4840  0.9275
  872MOL0     H17665   6.974   7.927   7.157  1.8727  0.1939 -1.3199
  872MOL0     H17666   7.029   7.790   7.247  2.7601 -0.5425 -1.1323
  872MOL0     H17667   7.116   7.905   6.984 -0.1385 -0.3195 -0.5429
  872MOL0     H17668   7.105   7.731   6.987 -1.6854  1.4834 -1.8592
  872MOL0     H17669   7.259   7.916   7.178  1.6338  0.8560 -0.5940
  872MOL0     H17670   7.241   7.733   7.188 -3.4024  0.0262 -1.5197
  872MOL0     H17671   7.546   7.857   7.141  0.5377  1.1212 -0.8697
  872MOL0     H17672   7.760   7.840   7.027  0.4893 -1.5504  0.1804
  872MOL0     H17673   7.769   7.708   6.925  1.2305  0.1959  1.6739
  872MOL0     H17674   7.689   7.979   6.793  1.1919  0.3996 -2.2517
  872MOL0     H17675   7.846   7.951   6.850  1.1756 -2.1383 -0.3101
  872MOL0     H17676   7.846   7.726   6.715  0.2683  0.5830  2.0423
  872MOL0     H17677   7.879   7.886   6.630  0.4865 -1.3794 -0.7220
  872MOL0     H17678   7.724   7.801   6.490  1.2179 -1.9463 -0.2401
  872MOL0     H17679   7.617   7.885   6.600  2.6051  1.7670 -1.8907
  872MOL0     H17680   7.465   7.452   6.696 -1.1307 -3.9525 -0.4287
  872MOL0     H17681   7.269   7.357   6.577 -1.1321 -0.4123 -0.6594
  872MOL0     H17682   7.082   7.245   6.163  2.3106  2.5616  0.5169
  872MOL0     H17683   6.924   7.162   5.988  1.0372  0.0122  0.9126
  872MOL0     H17684   6.838   7.394   5.704  2.5530 -2.3917 -2.1056
  872MOL0     H17685   6.865   7.224   5.709  1.1689  0.3289 -2.8097
  872MOL0     H17686   6.741   7.290   5.545 -0.6984  2.9636 -0.4539
  872MOL0     H17687   6.633   7.193   5.647  1.3881 -0.3741  4.1682
  872MOL0     H17688   6.546   7.431   5.733 -3.0722 -1.9615 -0.0723
  872MOL0     H17689   6.632   7.497   5.598 -1.6504  1.2241 -0.1575
  872MOL0     H17690   6.415   7.294   5.582  2.2020 -0.7752  0.7152
  872MOL0     H17691   6.500   7.354   5.431  0.6251  2.1430 -0.5381
  872MOL0     H17692   6.428   7.585   5.553 -1.3481 -0.3795  0.8678
  872MOL0     H17693   6.297   7.480   5.596 -1.5436 -1.1359 -1.1849
  872MOL0     H17694   6.315   7.399   5.340  2.7584  0.3339 -1.1255
  872MOL0     H17695   6.233   7.541   5.396 -0.2869 -0.8891 -0.2355
  872MOL0     H17696   6.508   7.526   5.264 -1.1415 -0.1658 -1.2180
  872MOL0     H17697   6.461   7.674   5.331  2.7945 -2.0382  1.2725
  872MOL0     H17698   6.244   7.674   5.199 -0.0366 -1.1202  0.5756
  872MOL0     H17699   6.392   7.683   5.092  0.4012 -0.8838 -1.2220
  872MOL0     H17700   6.705   7.511   6.001  0.0325 -0.7835 -2.4321
  872MOL0     H17701   6.853   7.606   6.184  1.2884  2.5906 -3.7070
  872MOL0     H17702   7.286   7.692   6.308  1.0200 -2.1472 -2.6723
  872MOL0     H17703   7.472   7.774   6.413  0.1738  1.0902  0.1108
  872MOL0     H17704   6.287   7.741   6.845 -0.4414 -0.5174 -0.5025
  872MOL0     H17705   6.100   7.654   6.700 -0.1312 -0.0855 -0.0982
  872MOL0     H17706   5.588   7.523   6.758  0.6035 -1.0379  0.5124
  872MOL0     H17707   5.427   7.483   6.583  1.2114  2.2717  2.0159
  872MOL0     H17708   5.504   7.245   6.275 -1.5526  0.7497  0.2575
  872MOL0     H17709   5.596   7.349   6.173  0.4055 -5.1777  0.3899
  872MOL0     H17710   5.426   7.434   6.043  2.0929 -0.8269 -0.6033
  872MOL0     H17711   5.301   7.407   6.172 -0.9367 -1.5960 -0.6062
  872MOL0     H17712   5.398   7.150   6.046 -2.0030 -1.5325  0.8849
  872MOL0     H17713   5.295   7.278   5.957 -0.6653  1.6041  1.5291
  872MOL0     H17714   5.127   7.235   6.129  1.3811  1.4770  0.8674
  872MOL0     H17715   5.195   7.085   6.068 -2.3033  1.3552 -2.5714
  872MOL0     H17716   5.312   7.031   6.463  0.7665  1.8908  1.1168
  872MOL0     H17717   5.756   7.441   6.306 -1.2371  0.1686 -0.4838
  872MOL0     H17718   6.019   7.524   6.491  0.0344 -0.3952 -1.2589
  872MOL0     H17719   6.000   7.340   6.487  0.2657  0.9089 -0.1764
  872MOL0     H17720   5.961   7.438   6.353 -2.9515  0.2090  0.3102
  873MOL0     O17721   3.965  10.766   0.897 -0.3451  0.3734 -0.2875
  873MOL0     C17722   3.994  10.866   0.960  0.9573  0.8542  0.2355
  873MOL0     O17723   3.917  10.898   1.076 -0.1676  0.7029  0.1831
  873MOL0     C17724   3.834  10.809   1.139  0.0463 -0.0891 -0.0048
  873MOL0     C17725   3.735  10.864   1.225  0.1363  0.7199  0.2800
  873MOL0     C17726   3.660  10.777   1.306  0.5315 -0.7832  0.9783
  873MOL0     C17727   3.673  10.642   1.304  0.5182  0.0269 -0.5546
  873MOL0     O17728   3.589  10.552   1.375  0.5236 -0.2585 -0.6863
  873MOL0     C17729   3.456  10.593   1.413  0.8594 -0.1608  0.5156
  873MOL0     C17730   3.383  10.459   1.462  0.0233 -0.9747 -0.0581
  873MOL0     C17731   3.397  10.443   1.608 -0.2670  0.7125  0.5644
  873MOL0     C17732   3.544  10.407   1.662 -0.3027  0.4457  0.2108
  873MOL0     C17733   3.551  10.380   1.809  0.5954 -0.1946  0.2478
  873MOL0     C17734   3.494  10.247   1.847  0.3984  0.9256 -0.5915
  873MOL0     C17735   3.490  10.240   2.005  0.6989  0.5100  0.7677
  873MOL0     C17736   3.414  10.111   2.051  0.7795  1.4920  1.0544
  873MOL0     N17737   3.266  10.130   2.053 -0.0000 -0.0069 -0.4469
  873MOL0     C17738   3.202  10.251   2.038  0.3365  0.4560 -0.6048
  873MOL0     C17739   3.075  10.217   2.052  0.9302  0.0892  1.3468
  873MOL0     C17740   2.963  10.320   2.050  0.0707 -0.0400  0.5664
  873MOL0     C17741   2.943  10.364   1.910  0.0299 -0.5012 -0.0642
  873MOL0     C17742   2.866  10.497   1.918 -0.3566 -0.4198 -0.6603
  873MOL0     C17743   2.838  10.562   1.786 -0.1113 -0.6096 -0.7379
  873MOL0     O17744   2.783  10.484   1.688  0.4554  1.1017 -0.4062
  873MOL0     C17745   2.647  10.481   1.655  0.0039 -0.5831 -0.6206
  873MOL0     C17746   2.609  10.395   1.551 -0.1853 -0.6238 -0.4064
  873MOL0     C17747   2.478  10.382   1.507 -0.7953  0.0790 -0.7959
  873MOL0     C17748   2.377  10.447   1.569  0.6152  0.5182 -0.4171
  873MOL0     C17749   2.229  10.422   1.546 -0.3132 -0.1165  0.0917
  873MOL0     O17750   2.138  10.470   1.639  0.2837 -0.7475  0.4475
  873MOL0     C17751   2.005  10.429   1.620  0.3960  0.4846 -0.7732
  873MOL0     C17752   1.959  10.295   1.600 -0.4909 -0.1107 -0.2511
  873MOL0     C17753   1.826  10.264   1.616  0.7049 -0.3913 -0.3428
  873MOL0     C17754   1.726  10.365   1.627 -0.0845 -0.6153  0.0646
  873MOL0     O17755   1.595  10.328   1.622  0.3055 -0.0837  0.1257
  873MOL0     C17756   1.498  10.425   1.671 -0.4166 -0.2645  0.5193
  873MOL0     C17757   1.371  10.340   1.673  1.0922 -0.6856  0.0457
  873MOL0     C17758   1.364  10.213   1.763 -0.1104  0.1295 -0.6415
  873MOL0     C17759   1.217  10.171   1.799 -0.1363 -0.3668  0.4369
  873MOL0     C17760   1.221  10.024   1.847 -0.9071 -0.3710  0.9839
  873MOL0     C17761   1.080   9.987   1.887  0.6098  0.3925 -0.3450
  873MOL0     C17762   1.060   9.840   1.914 -0.4627  0.6739 -0.5076
  873MOL0     C17763   0.912   9.816   1.970 -0.1155 -0.1626 -0.2848
  873MOL0    Cl17764   0.777   9.910   1.890  0.5764 -0.0433  0.0073
  873MOL0     C17765   1.771  10.500   1.639  0.2527  0.4194  0.3272
  873MOL0     C17766   1.906  10.525   1.640 -0.0208 -0.2372 -0.3722
  873MOL0     O17767   2.208  10.357   1.444 -0.0958  0.8058 -0.4872
  873MOL0     C17768   2.413  10.533   1.676 -0.9569 -0.0371  0.1242
  873MOL0     C17769   2.546  10.548   1.724 -0.6091  0.0911 -0.7393
  873MOL0     N17770   3.064  10.079   2.055  0.0553 -0.0447 -0.6020
  873MOL0     N17771   3.178  10.031   2.077  0.5707 -0.0377  0.9311
  873MOL0     C17772   3.770  10.585   1.225 -0.0867  0.0852 -0.3354
  873MOL0     C17773   3.837  10.667   1.135 -0.2557  0.4092 -0.3418
  873MOL0     C17774   4.097  10.957   0.908 -0.0065  0.1354 -0.9041
  873MOL0     C17775   4.124  11.079   0.976  1.1251 -0.1268  0.6566
  873MOL0     C17776   4.220  11.175   0.939  0.4038 -0.9396  0.1034
  873MOL0     C17777   4.294  11.156   0.822 -0.0044 -1.0197 -0.5121
  873MOL0     O17778   4.380  11.260   0.789 -0.2146  0.9321 -0.5232
  873MOL0     C17779   4.453  11.263   0.661  0.3928 -0.6864 -0.2004
  873MOL0     C17780   4.529  11.398   0.658 -0.7281  0.7847 -0.4027
  873MOL0     C17781   4.526  11.463   0.520  0.4780 -0.9871 -0.1004
  873MOL0     C17782   4.610  11.393   0.412  0.5624  0.1824 -0.7507
  873MOL0     C17783   4.758  11.398   0.446  0.2499  0.6079 -0.5777
  873MOL0     C17784   4.877  11.382   0.470  0.2006 -0.5170  0.3344
  873MOL0     C17785   4.268  11.040   0.751 -0.2628  0.2896 -0.1157
  873MOL0     C17786   4.169  10.947   0.794 -0.1156 -0.2967  1.3164
  873MOL0     C17787   4.151  10.830   0.696 -0.1862  0.1814  0.5558
  873MOL0     H17788   3.722  10.971   1.232 -1.2329  0.4900  2.3059
  873MOL0     H17789   3.581  10.829   1.360  1.3534 -0.2411  1.6799
  873MOL0     H17790   3.470  10.667   1.493 -1.7179 -1.3106  2.1519
  873MOL0     H17791   3.397  10.634   1.331  1.1766  0.3472  0.5328
  873MOL0     H17792   3.420  10.378   1.399 -2.7579 -1.1713 -1.6177
  873MOL0     H17793   3.278  10.485   1.442  1.4445  5.1390 -1.5826
  873MOL0     H17794   3.329  10.357   1.617 -2.0871  1.8504 -1.3039
  873MOL0     H17795   3.354  10.527   1.663 -1.7780 -0.3458  1.0600
  873MOL0     H17796   3.578  10.319   1.607 -1.5394 -0.3006  0.6187
  873MOL0     H17797   3.616  10.487   1.641  0.9676  0.1297  2.9797
  873MOL0     H17798   3.656  10.401   1.831  0.7037  0.4034 -0.7734
  873MOL0     H17799   3.499  10.457   1.867  0.1322 -0.3551  0.0504
  873MOL0     H17800   3.392  10.233   1.809 -0.6347  0.8570  2.0413
  873MOL0     H17801   3.565  10.170   1.816 -0.0834  0.1664  0.1638
  873MOL0     H17802   3.446  10.328   2.054  1.3401  0.4326  1.5002
  873MOL0     H17803   3.593  10.224   2.037  0.5244 -0.2949  0.9447
  873MOL0     H17804   3.441  10.027   1.987  1.6538  1.2331  1.7399
  873MOL0     H17805   3.437  10.085   2.155 -0.2782 -3.6111  0.2703
  873MOL0     H17806   3.250  10.345   2.011  1.0218  0.0572 -0.7907
  873MOL0     H17807   2.869  10.273   2.082 -1.1352  1.7059 -0.2525
  873MOL0     H17808   2.982  10.405   2.116 -0.3619  0.1540  0.4469
  873MOL0     H17809   3.036  10.366   1.853  1.0450 -1.3649  1.4729
  873MOL0     H17810   2.869  10.300   1.861 -0.6425  0.2733 -0.0784
  873MOL0     H17811   2.944  10.560   1.962 -1.3197  1.0954 -1.0298
  873MOL0     H17812   2.770  10.499   1.972 -0.6123  4.3562 -0.8481
  873MOL0     H17813   2.930  10.598   1.739 -0.0544  1.5989  0.9356
  873MOL0     H17814   2.793  10.658   1.813  0.9966 -0.4519  0.6499
  873MOL0     H17815   2.693  10.342   1.506  0.0173  0.2011 -1.0311
  873MOL0     H17816   2.456  10.325   1.416  0.3840 -0.0048 -1.0436
  873MOL0     H17817   2.033  10.219   1.577 -0.5210 -0.8030  1.7323
  873MOL0     H17818   1.804  10.157   1.618  0.3577 -0.3473  2.7846
  873MOL0     H17819   1.536  10.464   1.766 -0.0207  0.0189  0.2507
  873MOL0     H17820   1.489  10.515   1.608  3.5380 -1.6944 -2.5648
  873MOL0     H17821   1.289  10.403   1.709  2.1460  1.0464 -0.4035
  873MOL0     H17822   1.345  10.309   1.571  0.0887  0.9712 -0.2431
  873MOL0     H17823   1.414  10.129   1.713 -0.3878 -1.9111  2.2632
  873MOL0     H17824   1.430  10.233   1.848 -0.6159  1.2950 -0.5076
  873MOL0     H17825   1.163  10.163   1.705  0.8373 -1.0453 -0.0822
  873MOL0     H17826   1.166  10.241   1.866  1.6175  0.4090  1.0182
  873MOL0     H17827   1.291  10.022   1.931  0.3942 -2.9850 -0.0477
  873MOL0     H17828   1.267   9.960   1.771 -0.4995  0.3570  0.5924
  873MOL0     H17829   1.044  10.037   1.977 -2.2585  0.2950 -1.3471
  873MOL0     H17830   1.005  10.025   1.816  1.0633 -0.3586 -1.2582
  873MOL0     H17831   1.137   9.813   1.987  0.6513  3.1517 -0.6680
  873MOL0     H17832   1.075   9.794   1.816  2.2452 -0.2826  0.2854
  873MOL0     H17833   0.885   9.711   1.967  0.1948 -0.4183  2.5824
  873MOL0     H17834   0.913   9.837   2.078  1.3660  0.4173 -0.3893
  873MOL0     H17835   1.704  10.585   1.645 -2.2037 -1.1765 -2.1359
  873MOL0     H17836   1.931  10.630   1.654 -1.1651  0.1674 -1.1871
  873MOL0     H17837   2.332  10.588   1.724 -1.7216 -1.2848  0.3206
  873MOL0     H17838   2.548  10.627   1.799 -2.8325 -0.4215 -0.0648
  873MOL0     H17839   3.791  10.478   1.222 -0.5541 -0.0162 -0.1420
  873MOL0     H17840   3.918  10.619   1.082 -0.0648  1.0699 -0.6543
  873MOL0     H17841   4.061  11.099   1.062 -2.1337 -1.8968 -1.0997
  873MOL0     H17842   4.227  11.264   1.001 -3.8625 -0.2774 -0.0452
  873MOL0     H17843   4.383  11.253   0.577 -0.5916 -0.5905  0.5961
  873MOL0     H17844   4.525  11.181   0.648  0.3546 -0.9884  1.3262
  873MOL0     H17845   4.632  11.387   0.693 -0.7990 -2.6654 -0.9412
  873MOL0     H17846   4.472  11.464   0.725 -0.8883  0.7127 -0.4690
  873MOL0     H17847   4.558  11.564   0.546 -1.5821 -1.4739  5.9655
  873MOL0     H17848   4.423  11.456   0.484  0.1027 -5.1084  1.2827
  873MOL0     H17849   4.572  11.291   0.403  0.6915 -0.3107  2.7351
  873MOL0     H17850   4.591  11.445   0.318  0.8398  0.4362 -0.6691
  873MOL0     H17851   4.977  11.376   0.507  0.4224  1.5176  0.2116
  873MOL0     H17852   4.328  11.027   0.661 -1.4214 -0.2003 -0.8306
  873MOL0     H17853   4.193  10.741   0.744 -0.8359 -0.8537 -0.7378
  873MOL0     H17854   4.050  10.795   0.671 -0.3111  0.7487  0.2384
  873MOL0     H17855   4.205  10.832   0.601 -1.2500  0.4949 -0.0616
  874MOL0     O17856   2.497   9.229   9.598 -0.7324 -0.6098  0.5585
  874MOL0     C17857   2.548   9.118   9.617 -0.8097  0.2851 -0.1508
  874MOL0     O17858   2.612   9.044   9.519 -0.8058 -0.2447  0.5353
  874MOL0     C17859   2.620   9.101   9.390  0.6347  0.7238  0.5932
  874MOL0     C17860   2.505   9.110   9.300  0.1655  1.2309 -0.0846
  874MOL0     C17861   2.521   9.162   9.167 -0.6602 -0.4084 -0.3235
  874MOL0     C17862   2.647   9.211   9.123  0.8906  0.6209 -1.0497
  874MOL0     O17863   2.661   9.231   8.985 -0.6461  0.3753  0.1101
  874MOL0     C17864   2.746   9.330   8.926  0.4660  0.3199 -0.3076
  874MOL0     C17865   2.691   9.363   8.792 -0.3770 -0.5020  0.0691
  874MOL0     C17866   2.752   9.488   8.721  0.2555  1.0479 -0.2063
  874MOL0     C17867   2.904   9.475   8.697  0.4791 -0.3866  0.3397
  874MOL0     C17868   2.966   9.586   8.606 -0.3032 -0.4859 -0.0209
  874MOL0     C17869   2.889   9.599   8.476 -0.1871 -0.6812  0.6763
  874MOL0     C17870   2.964   9.686   8.377 -0.2194  0.2790 -0.6117
  874MOL0     C17871   2.876   9.688   8.247 -0.8372 -0.3051  0.7770
  874MOL0     N17872   2.923   9.750   8.131  0.2578  0.3276  1.9404
  874MOL0     C17873   2.941   9.880   8.112  0.5593  0.5202 -0.1003
  874MOL0     C17874   2.960   9.900   7.977 -0.6601  0.3217  0.2467
  874MOL0     C17875   2.964  10.026   7.907 -0.0955 -0.1793 -0.2113
  874MOL0     C17876   2.818  10.062   7.872 -0.5448  0.8984  0.0237
  874MOL0     C17877   2.814  10.207   7.848 -0.4630  0.4425 -0.2448
  874MOL0     C17878   2.669  10.233   7.798 -0.4306 -0.8115 -0.1019
  874MOL0     O17879   2.665  10.368   7.769  0.3214 -0.9495  0.6959
  874MOL0     C17880   2.550  10.426   7.723 -0.0604  0.1560 -0.2322
  874MOL0     C17881   2.551  10.570   7.739 -0.3834  1.1234  1.1777
  874MOL0     C17882   2.446  10.646   7.675  0.0023  1.0451  0.6518
  874MOL0     C17883   2.337  10.587   7.608 -0.0924  0.6649 -0.6632
  874MOL0     C17884   2.218  10.653   7.546 -0.6323 -0.5242 -0.0604
  874MOL0     O17885   2.224  10.791   7.550  0.8813 -0.1260  0.3992
  874MOL0     C17886   2.124  10.871   7.489 -0.0702  0.0686  0.0085
  874MOL0     C17887   2.163  10.974   7.402  0.2919  0.9218 -0.1717
  874MOL0     C17888   2.073  11.073   7.359  0.0371  0.1333  0.8940
  874MOL0     C17889   1.933  11.060   7.395  0.0396  0.2091 -0.4004
  874MOL0     O17890   1.845  11.150   7.341 -0.1093 -0.2312  1.4809
  874MOL0     C17891   1.711  11.123   7.372  0.6032 -0.0158  0.9474
  874MOL0     C17892   1.620  11.219   7.289 -0.4878  0.4132 -0.5507
  874MOL0     C17893   1.499  11.149   7.246  0.1708  0.7671  0.2988
  874MOL0     C17894   1.497  11.102   7.101 -0.4377 -0.0731 -0.4464
  874MOL0     C17895   1.356  11.041   7.064 -0.4723  0.9357 -0.9323
  874MOL0     C17896   1.338  10.997   6.910  1.3429  0.1536 -1.9995
  874MOL0     C17897   1.454  10.918   6.862 -1.3097 -1.0379  0.5912
  874MOL0     C17898   1.454  10.905   6.710  0.3582 -1.0217  0.1802
  874MOL0    Cl17899   1.512  11.054   6.626 -0.2461  0.1235 -0.0289
  874MOL0     C17900   1.900  10.964   7.504 -0.9207 -0.8796  0.7805
  874MOL0     C17901   1.996  10.866   7.541  0.7933 -0.4386 -0.1979
  874MOL0     O17902   2.134  10.586   7.495  0.8695  0.1980 -0.0694
  874MOL0     C17903   2.343  10.443   7.597 -0.5749  0.1675 -0.0638
  874MOL0     C17904   2.443  10.366   7.655  0.8952  0.1714 -0.5659
  874MOL0     N17905   2.967   9.780   7.917  0.2445  0.4928 -0.0524
  874MOL0     N17906   2.949   9.688   8.012 -0.6873  0.1244  0.2476
  874MOL0     C17907   2.745   9.221   9.216 -0.3726 -0.9681 -0.2802
  874MOL0     C17908   2.735   9.166   9.349  0.3389 -0.5683 -0.6498
  874MOL0     C17909   2.511   9.058   9.750  0.7830  0.5490 -0.4173
  874MOL0     C17910   2.530   8.921   9.757  0.9060  0.8215 -0.0005
  874MOL0     C17911   2.489   8.844   9.875  0.1773 -0.0838 -0.5114
  874MOL0     C17912   2.441   8.910   9.991  0.6488 -0.2658  0.3184
  874MOL0     O17913   2.396   8.834  10.098  0.4451 -0.6757  0.7574
  874MOL0     C17914   2.392   8.900  10.223 -0.1267 -0.0900 -0.6831
  874MOL0     C17915   2.345   8.785  10.334  0.0163 -0.1112  0.0548
  874MOL0     C17916   2.461   8.683  10.360 -0.9763  0.0833  0.7193
  874MOL0     C17917   2.534   8.712  10.492  0.2457 -0.1528  0.3060
  874MOL0     C17918   2.645   8.618  10.508 -0.5225  0.5442 -0.3280
  874MOL0     C17919   2.727   8.541  10.548 -1.0104 -0.6101  0.5184
  874MOL0     C17920   2.434   9.046   9.980 -0.7110 -0.6703 -0.7524
  874MOL0     C17921   2.463   9.128   9.864 -0.0846  0.0544 -0.3438
  874MOL0     C17922   2.423   9.273   9.862  0.0373 -0.0974  0.4532
  874MOL0     H17923   2.403   9.100   9.333  0.2827  0.2061 -0.0008
  874MOL0     H17924   2.434   9.153   9.104 -1.6105  1.7129  0.5730
  874MOL0     H17925   2.755   9.419   8.989  2.2471 -0.2935  0.3696
  874MOL0     H17926   2.846   9.286   8.915 -0.5066 -2.4092  0.9595
  874MOL0     H17927   2.588   9.394   8.810 -1.1198 -1.4540 -2.1794
  874MOL0     H17928   2.686   9.277   8.724  1.7853  0.2213 -1.1214
  874MOL0     H17929   2.720   9.578   8.775 -3.2089  0.1035 -0.4249
  874MOL0     H17930   2.707   9.490   8.621  0.5514 -1.4801 -0.4633
  874MOL0     H17931   2.955   9.481   8.794 -0.5901  0.7211  0.8479
  874MOL0     H17932   2.924   9.376   8.653 -1.5893 -1.0880  0.8661
  874MOL0     H17933   2.983   9.677   8.665 -0.4388 -1.2110  1.1691
  874MOL0     H17934   3.063   9.546   8.573 -0.3896  0.8823 -2.1580
  874MOL0     H17935   2.884   9.499   8.431 -0.1964  0.2346 -1.4390
  874MOL0     H17936   2.790   9.640   8.500 -0.6539 -2.1073  1.3158
  874MOL0     H17937   3.059   9.643   8.344  1.7242  4.2199 -0.6501
  874MOL0     H17938   2.974   9.787   8.417  0.6564 -0.2951  0.7280
  874MOL0     H17939   2.870   9.584   8.214  1.7683 -0.6313  1.1294
  874MOL0     H17940   2.783   9.738   8.275  0.4837  2.9057 -0.1008
  874MOL0     H17941   2.935   9.961   8.184  1.7798  1.0806 -0.6045
  874MOL0     H17942   2.984  10.102   7.983 -2.0401  0.6230 -0.4386
  874MOL0     H17943   3.035  10.035   7.825  0.6207  2.2738  0.5824
  874MOL0     H17944   2.773  10.003   7.792 -0.9249 -0.3316  1.1191
  874MOL0     H17945   2.746  10.039   7.951 -2.1138  0.4055 -1.5149
  874MOL0     H17946   2.886  10.242   7.775 -2.8179 -0.2872 -3.1024
  874MOL0     H17947   2.830  10.256   7.945  2.0806 -1.8366  0.6074
  874MOL0     H17948   2.590  10.199   7.866 -0.9799 -0.6672 -0.6546
  874MOL0     H17949   2.661  10.183   7.701 -0.1447 -0.0829 -0.5039
  874MOL0     H17950   2.635  10.619   7.787  0.3009  0.3686  0.7804
  874MOL0     H17951   2.437  10.755   7.679 -0.6554  1.0533 -0.5137
  874MOL0     H17952   2.261  10.972   7.356  0.3873  0.1645  0.0568
  874MOL0     H17953   2.109  11.147   7.288 -2.0065 -0.7197 -1.1764
  874MOL0     H17954   1.684  11.018   7.358  2.4241 -0.8141  2.9085
  874MOL0     H17955   1.682  11.146   7.475 -0.4590  2.2900  0.2081
  874MOL0     H17956   1.593  11.306   7.349  1.6003 -0.0654  1.1997
  874MOL0     H17957   1.672  11.243   7.196 -1.1646  0.7048 -0.8651
  874MOL0     H17958   1.481  11.065   7.314  0.2535  2.2427  2.2342
  874MOL0     H17959   1.416  11.217   7.266  0.4850  1.2036  0.1410
  874MOL0     H17960   1.574  11.024   7.100 -0.7467 -0.3755 -0.5564
  874MOL0     H17961   1.514  11.196   7.048  0.6953  0.0342  0.0672
  874MOL0     H17962   1.269  11.099   7.096 -3.0016 -2.3912 -1.1933
  874MOL0     H17963   1.351  10.955   7.132  1.2658  2.6436  1.5328
  874MOL0     H17964   1.246  10.937   6.902  1.8158 -0.9493  0.1406
  874MOL0     H17965   1.313  11.092   6.862  1.2586  0.5630 -1.1713
  874MOL0     H17966   1.449  10.823   6.916  1.2369 -0.7941  1.4348
  874MOL0     H17967   1.547  10.972   6.885 -1.8585  1.2928 -2.1670
  874MOL0     H17968   1.516  10.823   6.671  1.0214 -0.2880 -0.3352
  874MOL0     H17969   1.354  10.877   6.676  0.3282 -0.6830 -0.0142
  874MOL0     H17970   1.797  10.953   7.537 -1.5475  0.7685 -0.4979
  874MOL0     H17971   1.963  10.786   7.607 -3.0616  0.2662 -1.0702
  874MOL0     H17972   2.273  10.379   7.544  1.0268 -2.1365  0.4868
  874MOL0     H17973   2.432  10.259   7.644  1.2825  0.0819 -0.1121
  874MOL0     H17974   2.833   9.278   9.187  0.8099  0.6916  5.2308
  874MOL0     H17975   2.817   9.181   9.420 -0.6778  2.3790  0.0569
  874MOL0     H17976   2.579   8.864   9.679 -2.2942  0.5620 -2.0021
  874MOL0     H17977   2.508   8.737   9.880  0.9446 -0.0200 -1.7571
  874MOL0     H17978   2.306   8.967  10.219 -1.8196 -2.1670 -1.6646
  874MOL0     H17979   2.486   8.945  10.253 -2.2125  1.9982  3.5776
  874MOL0     H17980   2.263   8.734  10.282 -1.1948  1.4672  0.3615
  874MOL0     H17981   2.305   8.834  10.423  2.4718  1.1496  0.5496
  874MOL0     H17982   2.535   8.688  10.280 -0.8333  0.7651  0.8941
  874MOL0     H17983   2.422   8.580  10.359 -0.6302 -0.0645 -0.6548
  874MOL0     H17984   2.577   8.812  10.490  1.1389 -0.4765 -2.8863
  874MOL0     H17985   2.476   8.717  10.584  1.4750 -0.0565  1.1032
  874MOL0     H17986   2.797   8.463  10.567 -0.8830 -0.2910  1.3810
  874MOL0     H17987   2.394   9.106  10.061 -1.8359  1.3453 -2.7250
  874MOL0     H17988   2.368   9.314   9.946  0.7319  3.6390 -0.7381
  874MOL0     H17989   2.504   9.341   9.832  0.3816 -0.3933  0.7010
  874MOL0     H17990   2.349   9.269   9.782 -0.3919  0.7921  0.7985
  875MOL0     O17991  10.973   6.101   8.056  0.2595  0.1379  0.3605
  875MOL0     C17992  10.936   6.178   7.969  0.1546 -0.5647 -0.0051
  875MOL0     O17993  11.016   6.254   7.881  0.0075  0.3635 -0.5298
  875MOL0     C17994  11.148   6.274   7.923  0.7893  1.2423  0.1437
  875MOL0     C17995  11.176   6.405   7.956  0.4754 -0.3168 -0.3095
  875MOL0     C17996  11.296   6.444   8.012 -0.7209 -0.0516  0.4401
  875MOL0     C17997  11.401   6.351   8.015  0.0069  0.0416  1.0499
  875MOL0     O17998  11.518   6.360   8.087  0.2428  0.7484  1.2700
  875MOL0     C17999  11.581   6.494   8.095  0.5471  0.0677  0.5906
  875MOL0     C18000  11.685   6.467   8.202  0.7120  1.1110  0.0148
  875MOL0     C18001  11.635   6.445   8.345 -0.0258  0.0367 -0.0432
  875MOL0     C18002  11.757   6.407   8.438  0.9309 -0.1500 -0.5937
  875MOL0     C18003  11.715   6.431   8.592  0.0073 -0.3893  0.0458
  875MOL0     C18004  11.822   6.398   8.687  0.4414  0.3060 -0.5447
  875MOL0     C18005  11.927   6.513   8.673 -0.4308  0.1332 -0.3510
  875MOL0     C18006  12.038   6.477   8.769 -1.0120 -0.1701 -1.0932
  875MOL0     N18007  12.140   6.581   8.773 -0.6815  0.3347 -0.5169
  875MOL0     C18008  12.262   6.568   8.714  0.6700 -0.3582  0.1679
  875MOL0     C18009  12.325   6.678   8.745 -0.1416  0.2496 -0.6324
  875MOL0     C18010  12.467   6.723   8.703 -0.6781  0.1883 -0.1649
  875MOL0     C18011  12.587   6.688   8.786 -0.8383 -0.8075 -0.3586
  875MOL0     C18012  12.718   6.723   8.719  0.3261  0.3176 -0.0122
  875MOL0     C18013  12.738   6.865   8.683 -0.2015 -0.4343 -0.9093
  875MOL0     O18014  12.863   6.901   8.633 -0.1775 -0.6034  0.0356
  875MOL0     C18015  12.969   6.925   8.719  0.1778 -0.0399 -0.0387
  875MOL0     C18016  13.079   6.985   8.658 -0.6833 -0.2823 -0.1031
  875MOL0     C18017  13.194   7.022   8.733 -0.8018 -0.9487 -0.0010
  875MOL0     C18018  13.205   6.990   8.867 -1.1423 -0.2344  0.2182
  875MOL0     C18019  13.332   7.010   8.951 -0.0176 -0.1892 -0.6815
  875MOL0     O18020  13.436   7.066   8.891 -0.3941  0.0978 -0.2217
  875MOL0     C18021  13.570   7.058   8.946 -0.2076 -0.1980  1.0696
  875MOL0     C18022  13.607   6.952   9.028 -0.2158  0.5066  0.2706
  875MOL0     C18023  13.728   6.954   9.103 -0.7035  1.2751 -0.7737
  875MOL0     C18024  13.819   7.059   9.080  0.6101 -0.3468  0.5446
  875MOL0     O18025  13.932   7.091   9.150  0.3045  0.5705 -0.3013
  875MOL0     C18026  13.949   7.023   9.281  0.4906 -0.2657 -0.7858
  875MOL0     C18027  14.063   7.065   9.367  0.1007 -0.4138  0.7129
  875MOL0     C18028  14.055   7.211   9.399 -0.6946 -0.7332  0.9518
  875MOL0     C18029  14.146   7.258   9.515  0.1547  0.1845 -0.5928
  875MOL0     C18030  14.090   7.387   9.598  0.1495  0.1335  0.1186
  875MOL0     C18031  14.095   7.507   9.505  0.4037 -0.2774  0.2745
  875MOL0     C18032  14.102   7.628   9.586 -1.4831  0.8521 -0.6811
  875MOL0     C18033  14.152   7.749   9.509  0.1174  0.3990  0.5270
  875MOL0    Cl18034  14.319   7.726   9.485  0.1027 -0.0470 -0.0044
  875MOL0     C18035  13.789   7.154   8.986 -0.3122  0.0808  0.1741
  875MOL0     C18036  13.665   7.164   8.917 -0.5149  0.6013 -0.2431
  875MOL0     O18037  13.332   6.962   9.069 -0.5274 -0.5864 -0.1140
  875MOL0     C18038  13.103   6.918   8.920 -0.7527  0.4376 -0.1422
  875MOL0     C18039  12.981   6.887   8.853  0.0708  0.4310 -0.7254
  875MOL0     N18040  12.243   6.760   8.826  0.3612 -0.6089  0.0018
  875MOL0     N18041  12.128   6.699   8.844 -0.5874 -0.3545 -0.1064
  875MOL0     C18042  11.382   6.219   7.959  0.6102  0.1767  0.0513
  875MOL0     C18043  11.254   6.179   7.914  0.2982 -0.0031 -1.0310
  875MOL0     C18044  10.795   6.161   7.929  0.0996 -0.9203  0.8228
  875MOL0     C18045  10.738   6.039   7.920 -0.3237  0.5071  0.0440
  875MOL0     C18046  10.600   6.032   7.894  0.0909 -0.2444 -0.2786
  875MOL0     C18047  10.527   6.150   7.870  0.2001  0.9888  0.4832
  875MOL0     O18048  10.384   6.144   7.861  0.5898 -0.0884 -0.3914
  875MOL0     C18049  10.324   6.035   7.798 -0.1245  0.9868  0.2160
  875MOL0     C18050  10.379   5.983   7.657  0.4611 -0.1034  0.4841
  875MOL0     C18051  10.264   5.935   7.563 -0.4589  0.6125 -0.3042
  875MOL0     C18052  10.329   5.908   7.422  0.7506  0.3765 -0.4336
  875MOL0     C18053  10.370   5.766   7.408  0.4462 -1.1389  0.8303
  875MOL0     C18054  10.400   5.652   7.413  0.5712  0.6637  0.2780
  875MOL0     C18055  10.583   6.273   7.870 -0.1785 -0.6711  1.3257
  875MOL0     C18056  10.715   6.283   7.903  0.3156  0.8198  0.0453
  875MOL0     C18057  10.772   6.416   7.897  0.3114 -1.1017  0.1967
  875MOL0     H18058  11.099   6.481   7.943  0.2804  0.1373  2.8578
  875MOL0     H18059  11.310   6.541   8.057 -5.1723 -0.7135  3.9623
  875MOL0     H18060  11.615   6.529   7.998 -0.1104  2.8443  1.2857
  875MOL0     H18061  11.513   6.570   8.134 -0.6679  0.0073 -1.2935
  875MOL0     H18062  11.752   6.551   8.220  0.8835  0.7734  1.0159
  875MOL0     H18063  11.741   6.376   8.179 -1.4162 -0.7530  1.7096
  875MOL0     H18064  11.559   6.369   8.367  0.2419  0.0020  0.7833
  875MOL0     H18065  11.587   6.540   8.368  0.1094  1.3933 -4.5044
  875MOL0     H18066  11.769   6.299   8.435  0.3124 -0.3550  1.9616
  875MOL0     H18067  11.853   6.453   8.414  0.6418  0.4128 -0.6833
  875MOL0     H18068  11.685   6.535   8.608  0.4136 -0.1249 -0.8465
  875MOL0     H18069  11.623   6.381   8.622  0.4479 -0.3450  1.5437
  875MOL0     H18070  11.779   6.403   8.788 -0.1574 -1.5743 -0.6736
  875MOL0     H18071  11.866   6.299   8.671 -1.5813 -0.9459  1.0588
  875MOL0     H18072  11.878   6.610   8.689  0.1217  0.0156  2.6746
  875MOL0     H18073  11.967   6.514   8.571 -1.2832  0.9687 -0.6931
  875MOL0     H18074  12.004   6.463   8.872 -1.8464 -1.6252 -1.5450
  875MOL0     H18075  12.082   6.379   8.752 -0.0108 -0.5294  2.6803
  875MOL0     H18076  12.312   6.488   8.660  2.5469  0.3209  0.8442
  875MOL0     H18077  12.485   6.670   8.609 -0.1242 -0.9250  0.5393
  875MOL0     H18078  12.473   6.829   8.676  1.0158  0.2799  0.4251
  875MOL0     H18079  12.577   6.734   8.885 -2.6991  1.8871 -1.6726
  875MOL0     H18080  12.580   6.581   8.808  1.9119 -1.3897 -1.9481
  875MOL0     H18081  12.742   6.664   8.630 -0.3257 -0.5962  0.4017
  875MOL0     H18082  12.801   6.697   8.785 -1.4647 -1.4772  1.6771
  875MOL0     H18083  12.731   6.926   8.774  0.4729 -1.6825 -0.0010
  875MOL0     H18084  12.663   6.898   8.610 -1.1544  0.2365  0.3127
  875MOL0     H18085  13.060   7.018   8.557 -1.5245  5.0648  1.4879
  875MOL0     H18086  13.276   7.074   8.684  1.9014 -1.0377  3.9739
  875MOL0     H18087  13.541   6.866   9.032  3.5565 -2.6948  0.5960
  875MOL0     H18088  13.745   6.869   9.168 -0.8916  0.3504 -1.8972
  875MOL0     H18089  13.856   7.030   9.337 -0.0150  1.5317 -1.7821
  875MOL0     H18090  13.960   6.915   9.270 -0.4010 -0.6056  1.3204
  875MOL0     H18091  14.054   7.003   9.456  2.2073 -0.2939  1.0648
  875MOL0     H18092  14.161   7.040   9.325 -1.1721  0.5589 -3.2787
  875MOL0     H18093  14.112   7.253   9.316  1.5391 -2.6676  1.3670
  875MOL0     H18094  13.957   7.258   9.409 -1.0766 -0.8385 -1.6079
  875MOL0     H18095  14.251   7.273   9.489  0.4238  0.7985  0.7836
  875MOL0     H18096  14.136   7.179   9.590  0.5691  3.0250  2.6740
  875MOL0     H18097  14.165   7.385   9.678  0.6642 -0.4139 -0.3667
  875MOL0     H18098  13.987   7.366   9.628  0.2017  0.0976  0.2712
  875MOL0     H18099  14.176   7.495   9.433  0.3222 -2.9302  0.5366
  875MOL0     H18100  13.999   7.507   9.453 -0.7388  1.7294  2.2234
  875MOL0     H18101  14.158   7.610   9.678 -1.5253 -0.6041 -0.9031
  875MOL0     H18102  13.999   7.645   9.618 -1.4292  0.0485 -0.0424
  875MOL0     H18103  14.115   7.757   9.406  0.7220 -4.2529 -0.2639
  875MOL0     H18104  14.124   7.828   9.580  1.7499  2.0119 -0.5417
  875MOL0     H18105  13.874   7.215   8.959 -0.0666 -1.3208 -2.6498
  875MOL0     H18106  13.658   7.257   8.861  3.9360 -0.5128 -3.2164
  875MOL0     H18107  13.120   6.867   9.014  0.2457 -3.1897 -2.0571
  875MOL0     H18108  12.895   6.837   8.896  0.6990 -1.3484 -1.4031
  875MOL0     H18109  11.458   6.142   7.948  0.8981  0.4133  0.3394
  875MOL0     H18110  11.234   6.080   7.874 -0.8812 -0.4074  0.4900
  875MOL0     H18111  10.806   5.958   7.946  0.4063  1.4992  1.3570
  875MOL0     H18112  10.549   5.936   7.901 -0.1929 -0.0884 -0.2007
  875MOL0     H18113  10.216   6.040   7.782 -0.2916 -0.1631  0.8790
  875MOL0     H18114  10.343   5.949   7.862  0.3959  0.6102 -0.4329
  875MOL0     H18115  10.451   5.904   7.678 -0.7790 -1.6361 -0.7270
  875MOL0     H18116  10.431   6.069   7.615  1.0288  0.0036  1.3941
  875MOL0     H18117  10.190   6.016   7.562 -0.5933  0.6946  3.2380
  875MOL0     H18118  10.222   5.852   7.621  0.7959  1.5540  2.0789
  875MOL0     H18119  10.263   5.939   7.342  2.3062 -2.4443 -3.0413
  875MOL0     H18120  10.421   5.966   7.408  4.2432 -4.7558 -2.0960
  875MOL0     H18121  10.428   5.548   7.417 -0.6194  0.3026 -0.2839
  875MOL0     H18122  10.519   6.358   7.850 -1.4043 -2.1933 -1.9745
  875MOL0     H18123  10.698   6.497   7.904  0.4941 -1.0391  1.9475
  875MOL0     H18124  10.839   6.428   7.983 -1.8029 -1.7954  2.0670
  875MOL0     H18125  10.841   6.423   7.813  2.4254 -7.2483  0.8499
  876MOL0     O18126   0.619   0.035   8.336 -0.2625 -0.1806  0.0422
  876MOL0     C18127   0.661  -0.079   8.333  0.1015 -0.4685 -0.9302
  876MOL0     O18128   0.634  -0.169   8.234 -0.7235 -0.1502 -0.2331
  876MOL0     C18129   0.529  -0.179   8.152 -0.2832  0.1908 -0.4569
  876MOL0     C18130   0.523  -0.299   8.088 -0.0982  0.2482 -0.0122
  876MOL0     C18131   0.419  -0.317   7.990 -0.8504 -0.3882 -0.4671
  876MOL0     C18132   0.326  -0.218   7.960  0.1022  0.4089 -0.9183
  876MOL0     O18133   0.224  -0.217   7.876 -0.1993 -0.4524  0.6036
  876MOL0     C18134   0.211  -0.337   7.797  0.4317 -0.6384 -0.5667
  876MOL0     C18135   0.071  -0.328   7.748 -1.2486 -0.3949 -0.6869
  876MOL0     C18136   0.048  -0.451   7.667 -0.6668 -0.1291 -0.1958
  876MOL0     C18137  -0.076  -0.447   7.582  0.0996  0.4517 -0.1593
  876MOL0     C18138  -0.107  -0.574   7.508  0.1418 -0.1834  0.3182
  876MOL0     C18139  -0.239  -0.559   7.435 -0.4183 -0.1594 -0.7497
  876MOL0     C18140  -0.261  -0.662   7.322  0.0459 -0.7647 -0.5750
  876MOL0     C18141  -0.390  -0.634   7.241  0.1067 -0.8854  0.3824
  876MOL0     N18142  -0.391  -0.730   7.120 -0.6211  0.5699 -0.2223
  876MOL0     C18143  -0.434  -0.859   7.141 -0.2334  0.3629  0.1619
  876MOL0     C18144  -0.460  -0.899   7.012 -0.9925 -0.3805 -0.7480
  876MOL0     C18145  -0.504  -1.036   6.970  0.7585  0.5345 -0.0809
  876MOL0     C18146  -0.373  -1.108   6.914 -0.0617 -1.5769  0.3178
  876MOL0     C18147  -0.435  -1.203   6.806  0.3328  0.6736  0.5272
  876MOL0     C18148  -0.344  -1.292   6.725  0.1089  0.3729  0.0775
  876MOL0     O18149  -0.413  -1.403   6.665  0.1630 -0.3184 -0.2221
  876MOL0     C18150  -0.364  -1.497   6.572  0.4111 -0.2389  0.8362
  876MOL0     C18151  -0.439  -1.619   6.551 -0.4004 -0.3151  0.2083
  876MOL0     C18152  -0.386  -1.716   6.463  0.3319 -0.3063  0.8861
  876MOL0     C18153  -0.271  -1.686   6.385 -0.2191 -0.1183 -0.8291
  876MOL0     C18154  -0.220  -1.778   6.284  0.5555  1.1610  0.0447
  876MOL0     O18155  -0.105  -1.762   6.230  0.2682 -0.4368  0.3698
  876MOL0     C18156  -0.045  -1.845   6.140 -0.5431  0.1538  1.4044
  876MOL0     C18157  -0.101  -1.870   6.022  0.3461  0.7498  0.6128
  876MOL0     C18158  -0.029  -1.939   5.926  0.4005  0.0911  0.9544
  876MOL0     C18159   0.097  -1.999   5.958 -0.2362 -0.4782  0.3350
  876MOL0     O18160   0.157  -2.071   5.860 -0.3639 -0.5399 -0.0816
  876MOL0     C18161   0.254  -2.168   5.885 -1.2623  0.4863 -0.0981
  876MOL0     C18162   0.220  -2.303   5.822 -0.2221 -0.8713 -0.8824
  876MOL0     C18163   0.217  -2.297   5.670  0.7262 -0.6729  0.1401
  876MOL0     C18164   0.358  -2.317   5.623  0.3112 -0.3301  1.1472
  876MOL0     C18165   0.388  -2.249   5.498  0.1212 -0.3718  0.0011
  876MOL0     C18166   0.510  -2.308   5.425  0.1520 -0.4325  0.0234
  876MOL0     C18167   0.482  -2.432   5.348 -0.0561 -0.3159 -0.1137
  876MOL0     C18168   0.607  -2.511   5.307  0.1793  0.0636 -0.0903
  876MOL0    Cl18169   0.701  -2.570   5.451 -0.2061 -0.2872  0.0453
  876MOL0     C18170   0.151  -1.973   6.075  0.1973  0.5994 -0.9026
  876MOL0     C18171   0.086  -1.889   6.165 -0.1447  1.1553 -0.0619
  876MOL0     O18172  -0.298  -1.871   6.251 -0.1245 -1.2137 -0.8588
  876MOL0     C18173  -0.207  -1.559   6.397  0.5290 -0.6618  0.6983
  876MOL0     C18174  -0.257  -1.463   6.488  0.1834 -0.4516 -0.3021
  876MOL0     N18175  -0.419  -0.795   6.929  0.3627  1.0968 -0.0679
  876MOL0     N18176  -0.379  -0.696   6.993  0.3590  0.6082 -0.5169
  876MOL0     C18177   0.345  -0.090   8.022 -0.3927  0.2667 -0.4476
  876MOL0     C18178   0.454  -0.068   8.108 -0.1752 -0.0978 -0.1476
  876MOL0     C18179   0.730  -0.138   8.450  0.1556  0.1048 -0.8628
  876MOL0     C18180   0.723  -0.272   8.483  0.4269 -0.5543 -0.0686
  876MOL0     C18181   0.761  -0.324   8.607 -1.0126 -0.2474  0.6969
  876MOL0     C18182   0.811  -0.245   8.709  0.2536  0.3332 -0.0392
  876MOL0     O18183   0.870  -0.314   8.812 -0.4912 -0.3948 -0.1315
  876MOL0     C18184   0.947  -0.234   8.910  0.4662  0.3770  0.9124
  876MOL0     C18185   0.995  -0.315   9.025 -1.2192  0.4626  0.0096
  876MOL0     C18186   0.889  -0.390   9.097  0.2349 -0.2261 -0.0657
  876MOL0     C18187   0.970  -0.480   9.193  0.3344 -0.1757 -0.4711
  876MOL0     C18188   0.900  -0.513   9.316  0.3664 -0.3859 -0.2260
  876MOL0     C18189   0.841  -0.537   9.413 -0.3904 -0.0802 -0.2688
  876MOL0     C18190   0.820  -0.112   8.689  0.7009 -0.3145 -0.3745
  876MOL0     C18191   0.788  -0.060   8.564  0.8220 -0.3313  0.1877
  876MOL0     C18192   0.810   0.086   8.537  1.3361 -0.2356 -0.3310
  876MOL0     H18193   0.592  -0.379   8.113  0.0880 -1.1037 -4.0792
  876MOL0     H18194   0.418  -0.415   7.944 -1.6325  0.8919 -3.3892
  876MOL0     H18195   0.272  -0.342   7.706 -1.7410  0.8080 -2.2195
  876MOL0     H18196   0.221  -0.428   7.856  3.7363  1.2992  2.2744
  876MOL0     H18197   0.052  -0.229   7.706  2.0294  0.8383  0.4049
  876MOL0     H18198   0.009  -0.334   7.838 -2.1706  2.1186 -1.0622
  876MOL0     H18199   0.037  -0.532   7.740 -0.0495  2.8101  3.4528
  876MOL0     H18200   0.138  -0.478   7.612 -0.8590 -0.2656 -0.4467
  876MOL0     H18201  -0.157  -0.427   7.653 -1.3620  1.1613 -1.9331
  876MOL0     H18202  -0.077  -0.366   7.508 -1.8589  0.2079 -0.4632
  876MOL0     H18203  -0.029  -0.600   7.435 -0.3817 -0.6262 -0.0906
  876MOL0     H18204  -0.109  -0.662   7.573 -2.8268  0.2742  0.9749
  876MOL0     H18205  -0.316  -0.570   7.512  2.3675  1.0477  2.4984
  876MOL0     H18206  -0.272  -0.462   7.397  1.4123  0.6977 -0.2650
  876MOL0     H18207  -0.262  -0.760   7.371  0.1182 -0.9348 -0.9106
  876MOL0     H18208  -0.177  -0.664   7.252 -0.9003 -4.5385 -1.8611
  876MOL0     H18209  -0.487  -0.654   7.289  0.6517 -2.1115  1.0301
  876MOL0     H18210  -0.400  -0.528   7.217 -2.1814 -0.4422  2.7195
  876MOL0     H18211  -0.444  -0.898   7.242  1.0884  1.3695  0.7072
  876MOL0     H18212  -0.557  -1.090   7.049 -3.6833  1.6408 -1.9903
  876MOL0     H18213  -0.581  -1.015   6.895 -0.5298 -1.3329  0.6319
  876MOL0     H18214  -0.305  -1.040   6.861 -1.6711  3.5972  4.0564
  876MOL0     H18215  -0.323  -1.158   6.997 -1.6630  1.6134  3.4453
  876MOL0     H18216  -0.499  -1.143   6.741 -1.6440 -1.2816  0.5446
  876MOL0     H18217  -0.500  -1.274   6.859  3.9526 -0.4915  3.9553
  876MOL0     H18218  -0.279  -1.347   6.794  1.0412 -0.0300 -1.0662
  876MOL0     H18219  -0.270  -1.242   6.661  1.7041 -0.5753  1.1036
  876MOL0     H18220  -0.531  -1.643   6.603  0.0221 -1.2130  0.5688
  876MOL0     H18221  -0.427  -1.816   6.465  1.3043 -0.7728 -0.6725
  876MOL0     H18222  -0.202  -1.836   6.001 -1.5895 -3.5731  1.7762
  876MOL0     H18223  -0.078  -1.967   5.834  0.0134  1.0187  0.8708
  876MOL0     H18224   0.344  -2.130   5.836 -0.9575 -0.4209 -0.2599
  876MOL0     H18225   0.278  -2.171   5.992  0.2020  1.1629 -0.3870
  876MOL0     H18226   0.290  -2.379   5.858  0.7866  0.4116 -0.0728
  876MOL0     H18227   0.123  -2.327   5.867  0.4122  1.5888  2.1225
  876MOL0     H18228   0.163  -2.389   5.645 -0.1140 -0.0907 -0.2315
  876MOL0     H18229   0.163  -2.210   5.631 -0.6380 -2.3700 -1.9900
  876MOL0     H18230   0.381  -2.424   5.623  1.7630 -0.1850 -2.8471
  876MOL0     H18231   0.432  -2.272   5.691  2.0578 -0.2371 -0.7064
  876MOL0     H18232   0.405  -2.142   5.510 -0.2882 -0.5785  3.2862
  876MOL0     H18233   0.307  -2.266   5.426 -1.7199 -0.6699  2.0552
  876MOL0     H18234   0.544  -2.234   5.352 -0.6641 -1.8736 -1.9010
  876MOL0     H18235   0.589  -2.325   5.499 -0.6456  1.4125  1.3825
  876MOL0     H18236   0.426  -2.406   5.258  1.1613 -1.7092 -1.3414
  876MOL0     H18237   0.424  -2.498   5.413  0.2241  0.8118  1.3060
  876MOL0     H18238   0.578  -2.603   5.255 -0.6993 -1.3126  2.6157
  876MOL0     H18239   0.671  -2.449   5.244 -0.7744  0.7846 -0.3699
  876MOL0     H18240   0.240  -2.029   6.103 -1.7696 -3.8849 -2.6787
  876MOL0     H18241   0.136  -1.852   6.254 -0.0752 -1.1449  0.9271
  876MOL0     H18242  -0.120  -1.529   6.340  1.9316 -0.0498  3.0320
  876MOL0     H18243  -0.205  -1.368   6.498  1.3232 -1.1843  1.0271
  876MOL0     H18244   0.272  -0.015   7.994 -0.4550  0.0159 -0.9549
  876MOL0     H18245   0.472   0.036   8.134 -1.1588 -0.0862  0.5308
  876MOL0     H18246   0.680  -0.348   8.418 -1.2910 -0.2854  0.6871
  876MOL0     H18247   0.739  -0.426   8.636 -1.4252 -0.2593  0.3409
  876MOL0     H18248   0.872  -0.158   8.933 -0.1337  0.2843 -0.5689
  876MOL0     H18249   1.035  -0.187   8.866  0.4910 -0.5908 -0.1242
  876MOL0     H18250   1.052  -0.253   9.094 -0.5930  1.1198 -1.0756
  876MOL0     H18251   1.065  -0.385   8.979 -0.3284  1.2943  0.0646
  876MOL0     H18252   0.833  -0.453   9.027  0.1279 -0.3045  0.0912
  876MOL0     H18253   0.829  -0.316   9.151 -0.3390 -0.9175  0.2667
  876MOL0     H18254   1.002  -0.568   9.136  2.2380  1.6516 -2.4008
  876MOL0     H18255   1.067  -0.445   9.230 -0.4478 -1.5655  3.3495
  876MOL0     H18256   0.782  -0.533   9.503  1.0385 -1.9080  0.8338
  876MOL0     H18257   0.864  -0.046   8.764  1.4141  0.5106 -1.4774
  876MOL0     H18258   0.727   0.157   8.545  1.0359 -0.6444  0.2931
  876MOL0     H18259   0.887   0.115   8.610 -0.3299  0.7228  1.1321
  876MOL0     H18260   0.865   0.090   8.443  2.3655 -3.8007 -0.0227
  877MOL0     O18261   7.180   1.848   4.350  0.8876  0.6418  0.4806
  877MOL0     C18262   7.114   1.945   4.314  0.6164  0.6651  0.8554
  877MOL0     O18263   7.037   1.957   4.203  0.3224 -0.3503 -0.2457
  877MOL0     C18264   7.016   1.851   4.126  0.6159  0.4263 -0.3676
  877MOL0     C18265   7.056   1.830   3.994  0.4589 -0.2379  0.2504
  877MOL0     C18266   7.025   1.708   3.917  0.4022 -0.2781  0.8315
  877MOL0     C18267   6.973   1.603   3.983 -0.3674 -0.6834  0.0444
  877MOL0     O18268   6.956   1.487   3.910 -0.3079  0.2217 -0.8768
  877MOL0     C18269   6.969   1.363   3.986  0.0754 -0.0710  0.9738
  877MOL0     C18270   6.956   1.244   3.892  0.1908  1.1347 -0.6249
  877MOL0     C18271   6.807   1.213   3.849 -0.3761  0.4399 -0.3686
  877MOL0     C18272   6.723   1.116   3.939 -0.6347  0.0134  0.3364
  877MOL0     C18273   6.602   1.067   3.867 -0.3978  0.3393  0.3620
  877MOL0     C18274   6.511   0.990   3.958 -0.4374  0.8779  0.1058
  877MOL0     C18275   6.366   0.977   3.902 -0.3911 -0.2434 -0.7730
  877MOL0     C18276   6.255   0.970   4.010 -0.0970 -0.4849  0.0480
  877MOL0     N18277   6.288   0.876   4.113  0.0664  0.5172 -0.5885
  877MOL0     C18278   6.300   0.741   4.086  0.6624 -0.3460 -0.4661
  877MOL0     C18279   6.344   0.695   4.204 -1.6683 -0.0094  0.8450
  877MOL0     C18280   6.358   0.548   4.224  0.3959 -0.1389 -0.1181
  877MOL0     C18281   6.501   0.541   4.283 -0.1248  0.5791  0.0331
  877MOL0     C18282   6.620   0.573   4.188 -0.2175 -0.3597 -0.3262
  877MOL0     C18283   6.646   0.483   4.065 -0.0493 -1.3114 -1.6547
  877MOL0     O18284   6.757   0.542   3.998  0.4361 -0.2247  0.4418
  877MOL0     C18285   6.759   0.499   3.864  0.2553 -0.2765 -0.6099
  877MOL0     C18286   6.837   0.395   3.821 -0.2846  0.2429  0.0167
  877MOL0     C18287   6.833   0.361   3.686  0.3632 -0.9159 -1.0750
  877MOL0     C18288   6.751   0.429   3.595 -0.2172 -1.0526  0.4727
  877MOL0     C18289   6.738   0.397   3.453 -0.8907 -0.2663  0.1881
  877MOL0     O18290   6.787   0.264   3.422 -0.0178  0.1129  0.6705
  877MOL0     C18291   6.786   0.210   3.292  0.5011  0.2728 -1.0259
  877MOL0     C18292   6.873   0.100   3.274 -0.1182  0.2291 -0.1660
  877MOL0     C18293   6.879   0.038   3.144 -0.4592  0.8905 -0.5548
  877MOL0     C18294   6.792   0.072   3.045  0.9314  0.4059 -0.1165
  877MOL0     O18295   6.802   0.001   2.924 -0.3020  0.0553  0.0992
  877MOL0     C18296   6.704   0.010   2.822  0.3210  0.7101 -0.3229
  877MOL0     C18297   6.755   0.098   2.703 -0.0642  0.4008 -0.4174
  877MOL0     C18298   6.790   0.236   2.749  0.7627 -0.3782 -0.5187
  877MOL0     C18299   6.845   0.337   2.646 -0.5480  0.2718 -0.6781
  877MOL0     C18300   6.999   0.318   2.639 -0.6034 -0.2753 -0.4407
  877MOL0     C18301   7.056   0.440   2.555  0.1302 -0.0363 -0.6841
  877MOL0     C18302   7.210   0.412   2.534 -0.1262 -0.1420  0.4337
  877MOL0     C18303   7.299   0.447   2.654 -0.1525  0.3566  0.0379
  877MOL0    Cl18304   7.464   0.492   2.591  0.8638  0.3184 -0.4929
  877MOL0     C18305   6.702   0.175   3.066  0.0226 -0.2079  0.6013
  877MOL0     C18306   6.713   0.250   3.188  0.0484 -0.5943 -0.3214
  877MOL0     O18307   6.712   0.494   3.374  0.5621  1.4310 -0.3967
  877MOL0     C18308   6.683   0.547   3.628  0.5700  1.3762 -0.2497
  877MOL0     C18309   6.683   0.580   3.767 -1.6864  0.7174 -0.8162
  877MOL0     N18310   6.357   0.791   4.302 -0.3983  0.2818 -0.1373
  877MOL0     N18311   6.318   0.904   4.239  0.3021 -0.4488  0.0954
  877MOL0     C18312   6.915   1.625   4.114  0.1271 -0.1131  0.4511
  877MOL0     C18313   6.938   1.745   4.180 -0.0470  0.5889 -0.3757
  877MOL0     C18314   7.113   2.058   4.415 -0.4286 -0.4618  0.4061
  877MOL0     C18315   7.084   2.182   4.360  0.2285 -0.1252  0.3424
  877MOL0     C18316   7.071   2.292   4.439  0.0024  0.2108  0.7664
  877MOL0     C18317   7.106   2.300   4.573 -0.3799 -0.3311  0.5062
  877MOL0     O18318   7.091   2.418   4.639  0.1064 -0.7537  0.0455
  877MOL0     C18319   7.151   2.423   4.767  0.1787  0.7866 -0.1977
  877MOL0     C18320   7.114   2.561   4.811 -0.3590 -0.3682 -0.0490
  877MOL0     C18321   6.972   2.595   4.822  0.5272  0.9076 -0.1665
  877MOL0     C18322   6.928   2.674   4.704  0.1148 -0.2758  0.3877
  877MOL0     C18323   6.787   2.714   4.707 -0.0336  0.0420  0.1490
  877MOL0     C18324   6.672   2.751   4.712 -0.0915 -0.5291  0.5108
  877MOL0     C18325   7.149   2.177   4.631  0.7223 -0.7441  0.6201
  877MOL0     C18326   7.133   2.055   4.555  0.5322  0.2702  0.0763
  877MOL0     C18327   7.132   1.927   4.632  0.1399  0.1154 -0.5176
  877MOL0     H18328   7.119   1.903   3.945  0.9425 -0.1037  1.0448
  877MOL0     H18329   7.062   1.708   3.815 -1.9940 -0.9336 -0.1209
  877MOL0     H18330   7.071   1.373   4.025 -0.8439 -1.6066  4.1606
  877MOL0     H18331   6.898   1.363   4.070 -0.5298 -0.0768  0.4738
  877MOL0     H18332   6.994   1.149   3.930 -3.6177 -0.1690  0.3425
  877MOL0     H18333   7.004   1.267   3.797 -0.2145  0.8473 -0.9005
  877MOL0     H18334   6.805   1.173   3.747 -1.7149 -2.7693  0.7800
  877MOL0     H18335   6.745   1.303   3.838 -2.3164 -1.1061 -3.5481
  877MOL0     H18336   6.789   1.032   3.964 -1.4627 -0.9810 -0.7401
  877MOL0     H18337   6.696   1.165   4.033  1.0870 -1.5047  1.7235
  877MOL0     H18338   6.557   1.155   3.819  0.6063  1.5343  1.5257
  877MOL0     H18339   6.633   0.990   3.796  0.2384 -0.0438  1.0365
  877MOL0     H18340   6.546   0.887   3.972 -1.7172  0.2652 -0.9263
  877MOL0     H18341   6.513   1.038   4.057  2.6310  2.2373 -0.5042
  877MOL0     H18342   6.363   0.893   3.833 -0.1288  0.4292 -1.6268
  877MOL0     H18343   6.348   1.064   3.837  1.6397 -1.2491 -2.8192
  877MOL0     H18344   6.246   1.071   4.049  0.4486 -0.7783  0.9669
  877MOL0     H18345   6.162   0.938   3.964  0.3344 -0.6690 -0.7199
  877MOL0     H18346   6.291   0.682   3.995 -2.1961  0.2092 -0.6453
  877MOL0     H18347   6.296   0.505   4.303  4.3863 -0.0364  3.3992
  877MOL0     H18348   6.322   0.520   4.125 -0.2837  1.9301 -0.4993
  877MOL0     H18349   6.512   0.620   4.357  1.0597  4.0284 -3.5025
  877MOL0     H18350   6.510   0.443   4.331  0.4463  1.0657  0.9449
  877MOL0     H18351   6.707   0.575   4.253 -1.5529 -0.6716  1.5691
  877MOL0     H18352   6.596   0.676   4.159 -0.5482 -0.2399  0.3476
  877MOL0     H18353   6.562   0.481   3.995 -2.1619 -1.0462  0.7134
  877MOL0     H18354   6.671   0.380   4.093 -3.6893 -1.8251  0.4378
  877MOL0     H18355   6.899   0.341   3.893 -2.8189  0.2938  2.4006
  877MOL0     H18356   6.894   0.279   3.648  2.0614 -1.2548  2.0444
  877MOL0     H18357   6.935   0.054   3.351 -0.0877 -0.8936 -0.8234
  877MOL0     H18358   6.937  -0.051   3.122  0.4170  0.5071  2.7238
  877MOL0     H18359   6.690  -0.089   2.778  3.8577  0.1348 -0.4632
  877MOL0     H18360   6.616   0.059   2.866  0.4307 -0.5854  1.4740
  877MOL0     H18361   6.844   0.041   2.672  0.5967 -0.1074  2.1624
  877MOL0     H18362   6.679   0.089   2.625 -0.3686 -0.7016 -0.0149
  877MOL0     H18363   6.698   0.279   2.788 -0.0249 -1.9390 -0.5601
  877MOL0     H18364   6.872   0.217   2.819  1.3057  1.4254 -0.6227
  877MOL0     H18365   6.838   0.436   2.691  2.4610  0.1750  0.2484
  877MOL0     H18366   6.800   0.329   2.547 -2.9994  1.1484  0.2881
  877MOL0     H18367   7.012   0.221   2.591 -3.9985 -0.7124 -0.6945
  877MOL0     H18368   7.036   0.323   2.742 -0.9531 -2.0780 -0.2120
  877MOL0     H18369   7.015   0.431   2.454 -0.7687  2.6198 -0.6393
  877MOL0     H18370   7.030   0.541   2.587  3.0451  0.3867  0.7179
  877MOL0     H18371   7.241   0.478   2.452  1.2376 -1.7492 -0.4182
  877MOL0     H18372   7.237   0.308   2.513  3.1424  0.1718  2.3659
  877MOL0     H18373   7.257   0.536   2.702  2.9659  1.8084  0.3226
  877MOL0     H18374   7.318   0.361   2.719  2.3484  1.8467  1.4564
  877MOL0     H18375   6.641   0.226   2.992  0.0323 -0.7210  0.2388
  877MOL0     H18376   6.654   0.342   3.188  1.9650  0.7163 -1.6283
  877MOL0     H18377   6.619   0.607   3.564 -0.9836  1.2240  1.0727
  877MOL0     H18378   6.640   0.676   3.792 -0.8269  1.1551 -1.0152
  877MOL0     H18379   6.856   1.544   4.154 -1.3581  0.4991 -0.4035
  877MOL0     H18380   6.894   1.764   4.278  0.6251  0.4680 -0.0490
  877MOL0     H18381   7.061   2.192   4.254  1.0666 -2.3508 -0.1053
  877MOL0     H18382   7.030   2.388   4.410 -0.1578  0.8861  3.0391
  877MOL0     H18383   7.259   2.406   4.763 -0.0452 -0.6409 -0.6358
  877MOL0     H18384   7.098   2.361   4.840 -0.9740  3.4781  1.4085
  877MOL0     H18385   7.164   2.635   4.748 -1.6149  0.4846 -0.0998
  877MOL0     H18386   7.134   2.568   4.918 -2.9794  0.1776  0.4715
  877MOL0     H18387   6.960   2.657   4.912  1.2892 -0.1353  0.6810
  877MOL0     H18388   6.911   2.504   4.833  3.2207 -1.0117 -0.1587
  877MOL0     H18389   6.980   2.770   4.713 -0.8446  0.1408  1.9013
  877MOL0     H18390   6.943   2.628   4.606 -0.9202 -1.2902  0.6892
  877MOL0     H18391   6.566   2.770   4.707 -0.4210 -1.7174  2.2803
  877MOL0     H18392   7.187   2.184   4.732  1.3403  2.0555  0.2666
  877MOL0     H18393   7.235   1.894   4.649  0.6315  0.2214 -3.0073
  877MOL0     H18394   7.076   1.942   4.725 -3.1191  1.0285 -2.4949
  877MOL0     H18395   7.084   1.842   4.584 -1.0661 -2.9526  5.2217
  878MOL0     O18396   0.881   7.353   2.303  0.3213 -0.0981 -0.0562
  878MOL0     C18397   0.767   7.332   2.337  0.7847 -0.3168 -0.0632
  878MOL0     O18398   0.657   7.389   2.284 -0.1712 -0.9241 -0.3118
  878MOL0     C18399   0.650   7.397   2.146  0.4521 -0.7388 -0.0578
  878MOL0     C18400   0.758   7.429   2.057  0.9630 -0.4226  0.3242
  878MOL0     C18401   0.728   7.451   1.921 -0.4732  0.6541  0.3933
  878MOL0     C18402   0.600   7.444   1.873 -0.2718  0.0528  0.4631
  878MOL0     O18403   0.571   7.471   1.738  0.4847 -0.1932 -0.4727
  878MOL0     C18404   0.635   7.393   1.640  0.3333  0.1800  1.5855
  878MOL0     C18405   0.564   7.405   1.509 -0.5956 -0.5309 -0.1898
  878MOL0     C18406   0.609   7.294   1.406 -0.1995 -0.4589 -0.2441
  878MOL0     C18407   0.588   7.345   1.259  0.5324  0.1122  0.6153
  878MOL0     C18408   0.439   7.340   1.209 -0.1295  0.4750 -0.7284
  878MOL0     C18409   0.403   7.387   1.071 -0.1842  0.0841  0.1436
  878MOL0     C18410   0.278   7.322   1.015  1.2645  0.7983  0.0331
  878MOL0     C18411   0.154   7.352   1.097 -0.7052  1.1647  0.2013
  878MOL0     N18412   0.033   7.285   1.051 -0.5079  0.7537  0.2520
  878MOL0     C18413  -0.060   7.202   1.120  0.0821 -0.0372 -0.5479
  878MOL0     C18414  -0.141   7.153   1.022 -0.0240 -0.5346 -0.5084
  878MOL0     C18415  -0.270   7.072   1.033 -0.4371 -0.2208 -0.2824
  878MOL0     C18416  -0.241   6.922   1.049  0.6085  0.3325 -0.6322
  878MOL0     C18417  -0.133   6.868   0.943 -0.5765  0.3404 -0.5924
  878MOL0     C18418  -0.165   6.879   0.795  0.1461  0.0925  0.1166
  878MOL0     O18419  -0.293   6.824   0.768  0.1943  0.3219 -0.4043
  878MOL0     C18420  -0.330   6.804   0.642  0.4656 -0.3960  0.2644
  878MOL0     C18421  -0.403   6.894   0.569  0.1873  0.3431 -0.5158
  878MOL0     C18422  -0.436   6.865   0.442  0.2771 -0.2604  0.3840
  878MOL0     C18423  -0.393   6.744   0.379  0.5677 -0.1673  0.5898
  878MOL0     C18424  -0.442   6.710   0.244  0.0042 -0.2705  0.6277
  878MOL0     O18425  -0.507   6.808   0.166 -0.4413  0.0432 -0.5062
  878MOL0     C18426  -0.558   6.789   0.040  0.9065 -0.1696 -1.0464
  878MOL0     C18427  -0.678   6.725   0.022 -0.0963 -0.1756  0.5192
  878MOL0     C18428  -0.726   6.698  -0.107 -0.5866  0.0348 -0.3939
  878MOL0     C18429  -0.644   6.727  -0.224 -0.5109 -0.4747 -0.0844
  878MOL0     O18430  -0.675   6.691  -0.354  0.4419 -0.4119 -0.4749
  878MOL0     C18431  -0.799   6.733  -0.400 -1.1457 -0.0496 -0.6249
  878MOL0     C18432  -0.824   6.692  -0.544 -1.1321 -0.6304 -0.2004
  878MOL0     C18433  -0.944   6.765  -0.602  0.3363 -0.6578 -0.3952
  878MOL0     C18434  -0.968   6.716  -0.744 -0.3856  0.6418 -0.3649
  878MOL0     C18435  -1.093   6.774  -0.812  0.2188 -0.1267 -0.3353
  878MOL0     C18436  -1.081   6.760  -0.960 -0.4010 -0.6276 -0.2589
  878MOL0     C18437  -1.083   6.625  -1.011 -0.0410  0.6738  0.3809
  878MOL0     C18438  -1.155   6.607  -1.147 -0.3054  0.6381  0.6066
  878MOL0    Cl18439  -1.335   6.610  -1.127 -0.1826 -0.4236 -1.0031
  878MOL0     C18440  -0.530   6.801  -0.198  0.1269  0.8534  0.8181
  878MOL0     C18441  -0.484   6.830  -0.067  0.1156 -0.3261  0.1612
  878MOL0     O18442  -0.414   6.596   0.201 -0.7390 -0.2088 -0.5480
  878MOL0     C18443  -0.333   6.646   0.459  1.4278  0.5472  0.1842
  878MOL0     C18444  -0.305   6.677   0.594 -0.6918 -0.0099 -0.4577
  878MOL0     N18445  -0.100   7.207   0.905  0.1193 -0.7586 -0.1856
  878MOL0     N18446  -0.006   7.287   0.919  0.4794 -1.1692 -0.1590
  878MOL0     C18447   0.500   7.425   1.959 -0.4161  0.4986  1.0607
  878MOL0     C18448   0.519   7.397   2.091 -0.2990 -0.0003 -0.6326
  878MOL0     C18449   0.756   7.274   2.477 -0.0248 -0.2371  0.4316
  878MOL0     C18450   0.877   7.240   2.536  0.8426 -0.5736 -0.0126
  878MOL0     C18451   0.885   7.201   2.662  0.3648 -0.1308 -0.9410
  878MOL0     C18452   0.783   7.217   2.747  0.5509 -0.3544 -0.2656
  878MOL0     O18453   0.784   7.195   2.887 -0.1120  0.0303  0.0239
  878MOL0     C18454   0.857   7.086   2.936  0.1258  0.3537 -0.8000
  878MOL0     C18455   0.823   7.074   3.086 -0.4820 -0.5642  0.4667
  878MOL0     C18456   0.672   7.047   3.122 -0.7857 -0.5369  0.3684
  878MOL0     C18457   0.610   6.938   3.033  0.7278 -0.7412  0.2757
  878MOL0     C18458   0.690   6.818   3.037 -0.0378  0.4627 -0.5529
  878MOL0     C18459   0.760   6.726   3.034 -0.1509  0.2713  0.1415
  878MOL0     C18460   0.654   7.250   2.695 -0.1814 -0.6657  0.1462
  878MOL0     C18461   0.635   7.277   2.555  0.7981  0.2098 -0.6334
  878MOL0     C18462   0.485   7.295   2.523 -0.6312 -0.9838 -0.3108
  878MOL0     H18463   0.858   7.443   2.097  0.3693  0.6615  1.5064
  878MOL0     H18464   0.809   7.474   1.851  0.2787 -2.5356  0.0517
  878MOL0     H18465   0.735   7.412   1.600 -0.2966 -4.6097 -3.3391
  878MOL0     H18466   0.626   7.287   1.668  0.5932 -0.0722  0.7307
  878MOL0     H18467   0.583   7.506   1.472 -1.8013 -0.4239 -0.5522
  878MOL0     H18468   0.457   7.404   1.528 -0.3036  1.1487  1.8711
  878MOL0     H18469   0.552   7.204   1.430  2.9665 -2.3043  0.9301
  878MOL0     H18470   0.709   7.252   1.417 -1.4506 -4.1134 -1.4609
  878MOL0     H18471   0.631   7.443   1.233 -0.4911 -0.1502 -2.4921
  878MOL0     H18472   0.633   7.274   1.189  0.7549  2.6161 -1.9696
  878MOL0     H18473   0.399   7.239   1.222 -2.2495  1.6048  2.9016
  878MOL0     H18474   0.380   7.401   1.278 -0.1108 -0.4307  0.1091
  878MOL0     H18475   0.387   7.495   1.072 -0.1611  0.0873  0.5813
  878MOL0     H18476   0.486   7.370   1.002 -0.6816 -0.4878 -0.3247
  878MOL0     H18477   0.283   7.213   1.018 -2.5745  0.4926  2.1172
  878MOL0     H18478   0.265   7.357   0.912 -2.2369  0.4339  0.2123
  878MOL0     H18479   0.173   7.328   1.202 -1.2040  1.4433  0.3564
  878MOL0     H18480   0.145   7.460   1.083 -1.1029  0.7855 -3.9278
  878MOL0     H18481  -0.062   7.180   1.227  1.6875  1.3435 -0.1909
  878MOL0     H18482  -0.326   7.109   1.119  0.2927  0.0596  0.0784
  878MOL0     H18483  -0.341   7.095   0.953 -1.1281  1.0253  0.6665
  878MOL0     H18484  -0.195   6.891   1.144  2.9717  1.0120 -1.4851
  878MOL0     H18485  -0.331   6.863   1.027  1.0927 -0.0896 -1.5296
  878MOL0     H18486  -0.127   6.761   0.967  0.0457  0.5468  0.2289
  878MOL0     H18487  -0.034   6.898   0.980  0.7489 -0.9949 -2.8621
  878MOL0     H18488  -0.088   6.826   0.739  1.1531  0.1454  1.4095
  878MOL0     H18489  -0.171   6.982   0.758 -1.4259 -0.0412 -0.0707
  878MOL0     H18490  -0.433   6.991   0.607  1.3606  0.7082 -0.5023
  878MOL0     H18491  -0.497   6.935   0.386  0.6105 -2.5371 -3.1333
  878MOL0     H18492  -0.738   6.702   0.110  2.0716  1.7398  2.6179
  878MOL0     H18493  -0.818   6.643  -0.124 -1.5161  0.8271  1.7669
  878MOL0     H18494  -0.871   6.695  -0.327 -0.4490 -1.7163 -0.7669
  878MOL0     H18495  -0.808   6.842  -0.399 -1.7506 -0.0927  0.3751
  878MOL0     H18496  -0.737   6.725  -0.602 -2.1983  2.3677 -0.3074
  878MOL0     H18497  -0.834   6.583  -0.551  0.6282 -0.8420  0.2429
  878MOL0     H18498  -1.027   6.753  -0.531  0.3565  1.5545  0.0787
  878MOL0     H18499  -0.938   6.874  -0.602  3.5633 -0.7087  2.1625
  878MOL0     H18500  -0.989   6.609  -0.735 -1.5740  0.9567  1.0704
  878MOL0     H18501  -0.879   6.718  -0.808 -1.0492 -0.6948 -1.3588
  878MOL0     H18502  -1.106   6.882  -0.799  0.7683  0.0987 -1.4796
  878MOL0     H18503  -1.185   6.732  -0.772 -0.9551  2.7261  0.2260
  878MOL0     H18504  -1.167   6.813  -1.001  0.7611  0.8337 -0.8885
  878MOL0     H18505  -0.988   6.811  -0.988  0.2448  0.0951  2.7586
  878MOL0     H18506  -1.126   6.550  -0.944 -1.1952  0.5238 -0.5052
  878MOL0     H18507  -0.979   6.591  -1.020 -0.1740 -0.7896  3.1480
  878MOL0     H18508  -1.131   6.690  -1.214  0.0717 -0.8165 -1.1466
  878MOL0     H18509  -1.123   6.514  -1.193 -2.1201  0.7868 -1.0801
  878MOL0     H18510  -0.462   6.818  -0.281  1.3570 -4.7013  0.3464
  878MOL0     H18511  -0.392   6.885  -0.051 -1.2598  1.5403  2.2589
  878MOL0     H18512  -0.295   6.554   0.416  0.4616  0.4509 -0.4816
  878MOL0     H18513  -0.238   6.613   0.651 -0.0559  3.0974  2.6109
  878MOL0     H18514   0.406   7.426   1.905  2.2958  0.5617 -4.4324
  878MOL0     H18515   0.439   7.369   2.159  1.6296 -1.6899  1.0715
  878MOL0     H18516   0.970   7.227   2.481  2.5413  2.0917  1.9890
  878MOL0     H18517   0.978   7.172   2.710 -1.7386 -0.4041  3.3844
  878MOL0     H18518   0.965   7.100   2.928  0.2553 -0.2130 -0.1224
  878MOL0     H18519   0.821   6.994   2.888 -2.0354  0.3519  0.6578
  878MOL0     H18520   0.854   7.166   3.136 -0.6792  1.2993 -2.5810
  878MOL0     H18521   0.880   6.992   3.130 -1.6690 -0.8456  1.5466
  878MOL0     H18522   0.627   7.146   3.114  4.2111  2.1480  1.9337
  878MOL0     H18523   0.665   7.008   3.224  0.8100 -1.1253  0.2769
  878MOL0     H18524   0.513   6.924   3.081  0.2382  1.2900 -0.0510
  878MOL0     H18525   0.587   6.977   2.933  2.6804  0.3468  0.2052
  878MOL0     H18526   0.816   6.636   3.049  2.1823  1.6545  0.1700
  878MOL0     H18527   0.567   7.268   2.758  0.4455  2.1207  0.3165
  878MOL0     H18528   0.407   7.273   2.596 -1.7481  0.4746 -1.0111
  878MOL0     H18529   0.471   7.390   2.470  4.0320  0.4387  0.5486
  878MOL0     H18530   0.463   7.229   2.438  2.8951 -2.8089  0.0350
  879MOL0     O18531  10.327   8.651   8.554 -0.0862 -0.3492 -0.1357
  879MOL0     C18532  10.243   8.582   8.613  0.1001  0.5260  0.1446
  879MOL0     O18533  10.121   8.550   8.575  0.2225 -0.9600  1.1380
  879MOL0     C18534  10.064   8.612   8.463  0.2748 -0.0135 -0.2804
  879MOL0     C18535  10.022   8.527   8.363 -0.4529  1.0905  0.5293
  879MOL0     C18536   9.941   8.581   8.257  0.0867  0.6581 -0.5295
  879MOL0     C18537   9.918   8.721   8.242  0.1565  0.4459 -0.4810
  879MOL0     O18538   9.844   8.777   8.143 -0.0542 -0.0549  0.4640
  879MOL0     C18539   9.855   8.730   8.011 -0.6447  0.3653  0.1669
  879MOL0     C18540   9.722   8.759   7.933  0.4154 -0.4780  0.5537
  879MOL0     C18541   9.732   8.879   7.831 -0.0057 -0.3267 -0.3733
  879MOL0     C18542   9.662   9.006   7.874  0.2322 -0.1534  0.7269
  879MOL0     C18543   9.698   9.065   8.004  0.7343  0.2991  0.0635
  879MOL0     C18544   9.848   9.105   8.008  0.3502  0.3562 -0.2884
  879MOL0     C18545   9.887   9.189   8.131  0.1008 -0.4438  0.1991
  879MOL0     C18546  10.041   9.174   8.161 -0.7549  0.6839  0.8086
  879MOL0     N18547  10.097   9.263   8.270 -0.2302  0.7162  0.3241
  879MOL0     C18548  10.022   9.300   8.380 -0.9019  0.6146 -0.3178
  879MOL0     C18549  10.108   9.370   8.453 -0.8297  0.5984 -0.4066
  879MOL0     C18550  10.093   9.433   8.583  0.2694  0.2214 -0.1935
  879MOL0     C18551  10.094   9.337   8.702 -0.1915  0.0305 -0.1312
  879MOL0     C18552  10.022   9.421   8.813 -0.0853  0.1843  0.3173
  879MOL0     C18553  10.047   9.370   8.961  0.4253 -0.1145  0.2104
  879MOL0     O18554   9.971   9.462   9.045  0.2523 -0.2910  0.6365
  879MOL0     C18555   9.901   9.420   9.152  0.6575  0.3621 -0.8427
  879MOL0     C18556   9.943   9.318   9.235 -0.2847 -1.0181 -0.5037
  879MOL0     C18557   9.858   9.282   9.345  1.1410 -0.0913  0.3477
  879MOL0     C18558   9.739   9.355   9.383 -1.1467  0.1179 -0.0191
  879MOL0     C18559   9.651   9.327   9.499 -0.5305  0.3244  1.1909
  879MOL0     O18560   9.697   9.256   9.596 -0.2043 -0.1802  0.3313
  879MOL0     C18561   9.601   9.188   9.672  0.1034 -0.4656 -0.7063
  879MOL0     C18562   9.559   9.056   9.633  0.9194  0.1813 -0.9633
  879MOL0     C18563   9.478   8.980   9.713 -0.7785 -0.2395 -0.4071
  879MOL0     C18564   9.425   9.039   9.833  0.6612  0.4941  1.0700
  879MOL0     O18565   9.323   8.975   9.909  0.1127 -0.2420 -0.5549
  879MOL0     C18566   9.245   8.860   9.870 -0.2655 -0.5507 -0.4194
  879MOL0     C18567   9.099   8.899   9.825 -0.2200  0.9919 -0.2073
  879MOL0     C18568   9.024   8.771   9.776  0.6725  0.0790 -0.3451
  879MOL0     C18569   8.879   8.798   9.739  0.1386  0.2563 -0.7655
  879MOL0     C18570   8.816   8.676   9.676  0.2702 -0.4023  0.2429
  879MOL0     C18571   8.657   8.704   9.663  1.0297 -0.2813 -0.2622
  879MOL0     C18572   8.601   8.688   9.524 -0.5825 -0.0541  0.9035
  879MOL0     C18573   8.658   8.797   9.428  0.5452  0.5010  0.3092
  879MOL0    Cl18574   8.610   8.971   9.469  0.1137  0.3661 -0.0655
  879MOL0     C18575   9.468   9.161   9.871  0.0971  0.8512 -0.6883
  879MOL0     C18576   9.558   9.233   9.796 -0.0482 -0.7369 -0.0365
  879MOL0     O18577   9.535   9.358   9.479  0.0228  0.3738  0.2008
  879MOL0     C18578   9.720   9.470   9.302  0.0195 -0.5081 -1.0477
  879MOL0     C18579   9.797   9.504   9.193  0.6848  0.3826  0.8791
  879MOL0     N18580  10.216   9.392   8.372  0.0660 -0.1869  0.0111
  879MOL0     N18581  10.210   9.336   8.257  0.0898  0.4669  0.0724
  879MOL0     C18582   9.957   8.798   8.346  0.5186  0.0950 -0.4363
  879MOL0     C18583  10.034   8.743   8.454  1.1771 -0.5172 -0.2947
  879MOL0     C18584  10.267   8.561   8.756 -1.4983 -1.0157 -0.0706
  879MOL0     C18585  10.322   8.673   8.830 -0.9919  0.8454 -0.4163
  879MOL0     C18586  10.380   8.651   8.957 -0.0676  0.7049 -0.5570
  879MOL0     C18587  10.375   8.522   9.015  0.2881  1.1923 -0.8910
  879MOL0     O18588  10.431   8.502   9.142 -0.5818 -0.0434 -0.5612
  879MOL0     C18589  10.437   8.626   9.230  0.1186  1.4864 -0.5547
  879MOL0     C18590  10.463   8.562   9.366 -0.2239  0.1536 -0.7562
  879MOL0     C18591  10.436   8.664   9.478 -0.6063  0.2172  0.2775
  879MOL0     C18592  10.543   8.775   9.496 -0.2101  0.0482 -0.1537
  879MOL0     C18593  10.674   8.747   9.561 -0.4493 -0.1348  1.0186
  879MOL0     C18594  10.777   8.749   9.625 -0.7288  0.3629  0.1409
  879MOL0     C18595  10.311   8.412   8.950  0.9067 -0.1240  1.3277
  879MOL0     C18596  10.264   8.432   8.821 -0.1469  1.2463  0.0552
  879MOL0     C18597  10.203   8.310   8.748 -0.2633 -0.4863 -0.3769
  879MOL0     H18598  10.042   8.420   8.367 -1.2562  0.9487  1.3919
  879MOL0     H18599   9.911   8.502   8.188  0.7202  1.0805 -1.3150
  879MOL0     H18600   9.938   8.783   7.963  0.6861  1.4655  3.3298
  879MOL0     H18601   9.879   8.623   8.009 -3.0823 -0.3214 -4.0751
  879MOL0     H18602   9.640   8.770   8.004  2.5115  1.6687  2.8689
  879MOL0     H18603   9.701   8.673   7.869 -3.7676  0.7950 -0.0823
  879MOL0     H18604   9.683   8.845   7.739  3.6578  1.0627 -3.0713
  879MOL0     H18605   9.832   8.895   7.790  1.3983 -1.5655  2.2710
  879MOL0     H18606   9.679   9.083   7.798  1.8766 -2.5439 -1.5063
  879MOL0     H18607   9.554   8.991   7.859  0.0608  2.5284 -1.4866
  879MOL0     H18608   9.641   9.157   8.018  0.1836 -0.1389  0.7748
  879MOL0     H18609   9.685   8.996   8.088 -0.6748  1.7915  1.1246
  879MOL0     H18610   9.908   9.014   8.000  1.9994  1.1722  1.7659
  879MOL0     H18611   9.884   9.166   7.924  3.5006  2.0477  2.0567
  879MOL0     H18612   9.832   9.166   8.223  1.5155 -0.4328  1.0828
  879MOL0     H18613   9.857   9.292   8.110 -0.2473 -0.0604  2.3139
  879MOL0     H18614  10.054   9.068   8.185  1.6985  1.3422  2.8118
  879MOL0     H18615  10.105   9.195   8.074 -3.3294 -0.9012 -1.6300
  879MOL0     H18616   9.926   9.256   8.406 -0.9736  0.4856 -0.7881
  879MOL0     H18617  10.161   9.518   8.593  0.9212 -0.4581  1.7363
  879MOL0     H18618   9.988   9.466   8.582 -0.3870 -1.6997 -2.5542
  879MOL0     H18619  10.040   9.243   8.687 -2.5765  1.2258  0.4112
  879MOL0     H18620  10.195   9.301   8.725 -0.5589 -1.9103 -1.3981
  879MOL0     H18621   9.917   9.400   8.792 -0.3597  2.2376 -0.5811
  879MOL0     H18622  10.034   9.529   8.800  0.3936 -0.2016 -3.8082
  879MOL0     H18623  10.155   9.383   8.975  0.3983 -0.5285  0.8654
  879MOL0     H18624  10.018   9.265   8.972 -0.6684  0.1423 -0.0926
  879MOL0     H18625  10.037   9.264   9.226  1.8267  2.2854 -0.1174
  879MOL0     H18626   9.891   9.207   9.416 -2.4977 -2.2125  0.0758
  879MOL0     H18627   9.588   9.026   9.533 -0.9616  0.9786 -1.7917
  879MOL0     H18628   9.435   8.892   9.667 -0.8502 -2.2970  3.1698
  879MOL0     H18629   9.284   8.802   9.786  3.7667 -0.1658  0.9507
  879MOL0     H18630   9.252   8.786   9.950  1.1839  0.8807  0.8424
  879MOL0     H18631   9.040   8.936   9.910 -0.6562  0.8752 -0.4589
  879MOL0     H18632   9.083   8.964   9.738 -4.0736 -1.3785 -1.5078
  879MOL0     H18633   9.060   8.739   9.678 -0.6029 -0.4982 -0.6356
  879MOL0     H18634   9.036   8.684   9.840 -1.8981 -0.3587 -0.3546
  879MOL0     H18635   8.858   8.890   9.684 -2.4072 -0.8332 -1.7929
  879MOL0     H18636   8.823   8.828   9.828 -0.0188  3.5241 -1.8377
  879MOL0     H18637   8.820   8.588   9.740  0.1351  0.5346  1.5854
  879MOL0     H18638   8.862   8.648   9.581  0.5150  2.6998 -0.6886
  879MOL0     H18639   8.615   8.616   9.712 -1.2671 -0.4049 -2.2500
  879MOL0     H18640   8.626   8.801   9.700  1.2535 -0.8425  1.4898
  879MOL0     H18641   8.491   8.692   9.522 -0.9247 -3.6896 -3.0256
  879MOL0     H18642   8.626   8.587   9.488 -1.4286 -0.6556  1.9281
  879MOL0     H18643   8.765   8.791   9.407  0.6764  2.9505 -0.0120
  879MOL0     H18644   8.614   8.756   9.337 -0.6469  1.1006  0.6023
  879MOL0     H18645   9.445   9.193   9.972 -1.0781  0.4175 -0.8084
  879MOL0     H18646   9.580   9.332   9.834 -0.6591 -1.7984  3.3963
  879MOL0     H18647   9.643   9.544   9.319  0.2816 -0.5795  0.6483
  879MOL0     H18648   9.776   9.594   9.137  2.5814 -0.1908 -0.8816
  879MOL0     H18649   9.928   8.902   8.361 -2.4355 -0.8743  1.3599
  879MOL0     H18650  10.039   8.807   8.542 -2.5327  1.2029 -1.1402
  879MOL0     H18651  10.327   8.775   8.794 -1.0161  1.5888  1.5604
  879MOL0     H18652  10.420   8.734   9.013 -0.5172  2.0984 -2.2073
  879MOL0     H18653  10.343   8.681   9.238  0.2414  1.5099  0.8401
  879MOL0     H18654  10.515   8.692   9.189  1.9248 -2.0957 -3.4947
  879MOL0     H18655  10.563   8.517   9.363 -1.0422 -1.7589 -3.4189
  879MOL0     H18656  10.391   8.482   9.384  1.2200 -1.2515 -0.9638
  879MOL0     H18657  10.426   8.602   9.567 -2.5178  0.7040  0.4478
  879MOL0     H18658  10.338   8.712   9.464 -1.2385 -0.7954  1.0467
  879MOL0     H18659  10.557   8.834   9.406  0.7611  0.5475  0.3133
  879MOL0     H18660  10.501   8.845   9.568 -4.0458 -0.6513 -1.4813
  879MOL0     H18661  10.854   8.741   9.700  1.1658 -0.8821 -1.8314
  879MOL0     H18662  10.311   8.316   9.002 -0.1527 -2.1500 -2.0944
  879MOL0     H18663  10.253   8.290   8.653  0.2831  0.9260 -0.4153
  879MOL0     H18664  10.192   8.229   8.821 -4.2301  1.7154  1.8175
  879MOL0     H18665  10.102   8.334   8.715 -1.5754 -0.0690  3.4304
  880MOL0     O18666  11.161  11.239   9.272 -0.0496  0.0035  0.2659
  880MOL0     C18667  11.279  11.222   9.243 -0.4976 -0.8353 -0.1543
  880MOL0     O18668  11.347  11.258   9.135 -0.1709 -0.1282  0.0160
  880MOL0     C18669  11.294  11.340   9.030 -0.3010 -0.2182  0.7956
  880MOL0     C18670  11.380  11.356   8.927 -0.5227 -0.2559  0.9177
  880MOL0     C18671  11.347  11.422   8.804  0.4627 -0.1789  0.9099
  880MOL0     C18672  11.213  11.465   8.787 -0.0533 -0.7306 -1.1522
  880MOL0     O18673  11.158  11.516   8.667 -0.2204 -0.0961  0.2108
  880MOL0     C18674  11.232  11.488   8.542  0.2248 -0.5938 -0.6169
  880MOL0     C18675  11.141  11.560   8.440 -0.4649  0.8813 -0.2146
  880MOL0     C18676  11.201  11.692   8.414 -0.3848 -0.7606  0.4364
  880MOL0     C18677  11.127  11.791   8.315  1.1764  0.5632  0.5286
  880MOL0     C18678  11.043  11.728   8.196 -0.0561  0.9066 -0.4992
  880MOL0     C18679  10.988  11.838   8.093 -0.6099 -0.2059  0.2173
  880MOL0     C18680  10.871  11.927   8.138  0.3327 -0.2770  0.1050
  880MOL0     C18681  10.757  11.837   8.168 -0.1874  0.3115 -0.1996
  880MOL0     N18682  10.633  11.902   8.203 -0.3380  0.0500 -0.0404
  880MOL0     C18683  10.590  11.962   8.321  0.3491  0.5087 -1.0371
  880MOL0     C18684  10.452  11.977   8.309 -0.6676 -0.0030  1.0248
  880MOL0     C18685  10.381  12.049   8.416  0.3883  0.2098  0.8492
  880MOL0     C18686  10.230  12.013   8.435 -0.5451 -0.6049 -0.0072
  880MOL0     C18687  10.127  12.087   8.334 -0.0005 -0.2449  0.5491
  880MOL0     C18688  10.085  12.223   8.394  0.0101 -0.2613 -0.1862
  880MOL0     O18689  10.000  12.209   8.510 -0.0765  0.7899 -0.7490
  880MOL0     C18690   9.975  12.321   8.573  0.3890  0.3808  0.7208
  880MOL0     C18691  10.030  12.445   8.547 -0.5307  0.2478  0.9021
  880MOL0     C18692  10.000  12.552   8.625 -0.7493  0.0199 -0.3844
  880MOL0     C18693   9.904  12.543   8.728 -0.9963  0.0891  0.9090
  880MOL0     C18694   9.854  12.658   8.813  0.0085  0.5819  0.5192
  880MOL0     O18695   9.905  12.773   8.781 -0.4178  0.2405 -0.3393
  880MOL0     C18696   9.879  12.871   8.871 -0.5188 -0.1454  0.3056
  880MOL0     C18697   9.759  12.954   8.849  0.2644  0.2583 -0.2572
  880MOL0     C18698   9.731  13.057   8.934 -0.1281 -0.2622 -0.1911
  880MOL0     C18699   9.792  13.064   9.058 -0.6382  0.0312 -1.4443
  880MOL0     O18700   9.754  13.169   9.140  0.1801 -0.0119 -1.1071
  880MOL0     C18701   9.774  13.142   9.280  0.5626 -0.3446 -0.0416
  880MOL0     C18702   9.661  13.210   9.358  0.2832 -0.0660 -0.5669
  880MOL0     C18703   9.538  13.119   9.384  0.0017  0.0734 -0.1073
  880MOL0     C18704   9.479  13.065   9.264  0.7354 -0.3221  0.4948
  880MOL0     C18705   9.408  13.167   9.174  0.3595  0.1246 -0.3656
  880MOL0     C18706   9.297  13.100   9.092  0.5044  0.0517 -0.2233
  880MOL0     C18707   9.205  13.193   9.022  0.5207 -0.5713 -0.1916
  880MOL0     C18708   9.056  13.178   9.048 -0.3068  0.6555 -0.7451
  880MOL0    Cl18709   8.997  13.022   8.970 -0.4237 -0.3996  0.0938
  880MOL0     C18710   9.914  12.994   9.078  0.9815  0.5201 -0.2100
  880MOL0     C18711   9.955  12.900   8.986  0.0835  0.4677 -0.2051
  880MOL0     O18712   9.775  12.636   8.901  0.6323  0.3936 -0.4385
  880MOL0     C18713   9.839  12.421   8.751 -0.0131 -0.0793  0.3310
  880MOL0     C18714   9.885  12.309   8.675 -0.2788 -0.9188 -0.3394
  880MOL0     N18715  10.423  11.917   8.186 -0.0708 -0.1468 -0.3252
  880MOL0     N18716  10.525  11.873   8.127 -0.0513 -0.7438  1.2252
  880MOL0     C18717  11.114  11.435   8.887 -0.5281  0.1673 -1.0915
  880MOL0     C18718  11.162  11.390   9.016  0.6333  0.1140  0.1884
  880MOL0     C18719  11.372  11.139   9.334 -0.1637 -0.7443 -0.0723
  880MOL0     C18720  11.309  11.067   9.444 -0.3462 -0.7465 -0.3157
  880MOL0     C18721  11.377  11.004   9.539  0.3940  0.3266  0.0388
  880MOL0     C18722  11.514  11.003   9.535 -0.5092 -0.8914  0.2540
  880MOL0     O18723  11.584  10.945   9.634 -0.2412  0.2080 -0.4795
  880MOL0     C18724  11.694  10.865   9.603 -0.6482 -0.0231 -0.3716
  880MOL0     C18725  11.662  10.715   9.620 -0.8538  0.5252 -0.0848
  880MOL0     C18726  11.546  10.656   9.550  0.8142 -0.2036 -0.3409
  880MOL0     C18727  11.591  10.634   9.404  0.3491  0.2191  0.7285
  880MOL0     C18728  11.487  10.557   9.345 -0.0405 -0.2741  0.6378
  880MOL0     C18729  11.399  10.492   9.294 -0.1946  0.7492 -0.3193
  880MOL0     C18730  11.585  11.068   9.435 -0.4433 -1.8946 -0.7511
  880MOL0     C18731  11.516  11.143   9.340  0.3301 -0.6093 -0.2564
  880MOL0     C18732  11.600  11.221   9.243 -0.5859 -0.6120  0.9456
  880MOL0     H18733  11.481  11.323   8.952 -0.7364 -0.2607  1.7786
  880MOL0     H18734  11.416  11.448   8.725  1.1800  1.6108  2.0751
  880MOL0     H18735  11.337  11.516   8.545 -0.0716  0.5796  2.4128
  880MOL0     H18736  11.212  11.382   8.525 -1.6928 -0.3240 -0.2811
  880MOL0     H18737  11.035  11.568   8.467 -0.7245 -1.5887 -0.2484
  880MOL0     H18738  11.141  11.500   8.348 -1.6373  1.3059 -0.5201
  880MOL0     H18739  11.308  11.685   8.397 -0.5057  0.6580 -1.1414
  880MOL0     H18740  11.188  11.745   8.509  1.5438  0.7987 -0.1192
  880MOL0     H18741  11.056  11.851   8.374 -0.2658 -1.1911  0.6930
  880MOL0     H18742  11.211  11.853   8.285  0.4087  1.3270 -0.0880
  880MOL0     H18743  11.112  11.656   8.151  3.5079  2.2658  2.2699
  880MOL0     H18744  10.978  11.658   8.249  0.1692 -0.0621 -1.4563
  880MOL0     H18745  11.075  11.893   8.055  0.3094 -1.6657  0.1252
  880MOL0     H18746  10.941  11.790   8.007 -4.0945  2.6873  0.2697
  880MOL0     H18747  10.842  11.993   8.056 -0.4760 -2.0679 -1.1247
  880MOL0     H18748  10.896  11.981   8.229 -1.4873  0.5598  0.1406
  880MOL0     H18749  10.744  11.759   8.091  1.6961 -0.2234 -0.0089
  880MOL0     H18750  10.783  11.781   8.258 -0.4306  1.0173  0.3217
  880MOL0     H18751  10.651  11.978   8.409 -0.2396 -1.5886 -0.2014
  880MOL0     H18752  10.441  12.033   8.506  4.2632 -1.5775 -1.7659
  880MOL0     H18753  10.380  12.157   8.402 -0.7495 -0.0419 -1.5946
  880MOL0     H18754  10.229  11.904   8.434  0.4298 -0.6583  1.7808
  880MOL0     H18755  10.208  12.048   8.536  1.2100  1.7326 -0.3472
  880MOL0     H18756  10.036  12.027   8.321  0.9714 -1.6998  0.1977
  880MOL0     H18757  10.177  12.104   8.238 -0.6555 -1.3122 -0.0084
  880MOL0     H18758  10.036  12.286   8.320 -1.5359 -3.0601 -1.7213
  880MOL0     H18759  10.174  12.271   8.436 -1.6086  2.4872  0.3708
  880MOL0     H18760  10.112  12.456   8.477  0.8049 -0.4057  2.3080
  880MOL0     H18761  10.053  12.645   8.606  1.7726 -1.4655 -1.0697
  880MOL0     H18762   9.707  12.943   8.755  0.9561  0.0836 -0.6228
  880MOL0     H18763   9.658  13.135   8.915  1.2363  0.8486 -1.1095
  880MOL0     H18764   9.755  13.035   9.290  0.2828 -0.6378 -2.9862
  880MOL0     H18765   9.876  13.154   9.317  0.5165  0.5645 -0.1880
  880MOL0     H18766   9.710  13.221   9.455  0.7587 -1.5273 -0.6178
  880MOL0     H18767   9.653  13.314   9.324  0.7261 -0.3880 -1.6862
  880MOL0     H18768   9.575  13.043   9.453 -0.4319  0.2289  0.3011
  880MOL0     H18769   9.465  13.181   9.438  0.8591 -0.1501  1.3674
  880MOL0     H18770   9.410  12.982   9.284  1.9153 -2.2340 -2.5672
  880MOL0     H18771   9.550  13.015   9.198  0.9402  2.4349 -1.5280
  880MOL0     H18772   9.486  13.213   9.112 -0.1022 -1.0791 -1.9245
  880MOL0     H18773   9.357  13.240   9.237 -1.7655 -2.2326  0.8559
  880MOL0     H18774   9.338  13.031   9.018  2.4342 -0.3400  1.1090
  880MOL0     H18775   9.242  13.051   9.173 -1.2496  3.9451  1.2214
  880MOL0     H18776   9.224  13.190   8.915 -3.1947 -1.9143 -0.9374
  880MOL0     H18777   9.239  13.289   9.064  1.9057 -1.5622  1.0851
  880MOL0     H18778   9.043  13.183   9.157  5.0790  2.5781  0.0862
  880MOL0     H18779   8.997  13.250   8.990  1.0109  3.1599  0.8670
  880MOL0     H18780   9.966  13.019   9.170  1.3159  1.1681 -0.5602
  880MOL0     H18781  10.057  12.864   8.989  0.8297  2.2960 -1.7420
  880MOL0     H18782   9.766  12.387   8.823  1.3701 -4.9603 -0.1455
  880MOL0     H18783   9.840  12.213   8.698 -1.1670 -0.2955  0.5678
  880MOL0     H18784  11.013  11.475   8.881 -0.7991 -0.6129 -2.0645
  880MOL0     H18785  11.088  11.372   9.093  0.4025  0.8084  0.1293
  880MOL0     H18786  11.202  11.064   9.461 -0.1664 -2.3871  0.7870
  880MOL0     H18787  11.318  10.961   9.620 -1.9600  1.2030 -1.1217
  880MOL0     H18788  11.773  10.897   9.672 -0.1132  2.2719 -1.9257
  880MOL0     H18789  11.733  10.896   9.505 -0.5025 -0.5474 -0.4849
  880MOL0     H18790  11.631  10.693   9.722 -0.1452 -5.3598 -0.8014
  880MOL0     H18791  11.749  10.652   9.596  0.4411  1.4212  1.9446
  880MOL0     H18792  11.466  10.731   9.549 -2.1775 -3.1779 -1.9430
  880MOL0     H18793  11.512  10.568   9.605  0.5486 -1.2406 -2.0963
  880MOL0     H18794  11.604  10.734   9.360  0.8022 -0.3243 -0.4015
  880MOL0     H18795  11.683  10.576   9.397  0.2870  0.3232 -3.5233
  880MOL0     H18796  11.320  10.437   9.246  0.9882  0.5883 -2.1878
  880MOL0     H18797  11.693  11.078   9.431 -0.5262  0.8829  1.0837
  880MOL0     H18798  11.707  11.213   9.268 -0.0333 -0.8444 -1.3417
  880MOL0     H18799  11.584  11.184   9.142  0.2604  1.9763 -0.2071
  880MOL0     H18800  11.577  11.328   9.240 -3.2671 -1.1334  0.4215
  881MOL0     O18801   6.307   9.415   0.601 -0.3900 -0.2126 -1.2179
  881MOL0     C18802   6.253   9.369   0.701 -0.2027  0.3767 -0.2667
  881MOL0     O18803   6.280   9.249   0.767 -1.2405  0.1199  0.8504
  881MOL0     C18804   6.404   9.195   0.764 -0.0840 -0.9412  0.0039
  881MOL0     C18805   6.449   9.162   0.893  0.3058 -0.6351  0.0562
  881MOL0     C18806   6.580   9.127   0.924  0.7313 -0.3914  0.4575
  881MOL0     C18807   6.663   9.105   0.817 -0.1231 -0.1180  0.5180
  881MOL0     O18808   6.781   9.050   0.860  0.3094  0.2220 -0.2333
  881MOL0     C18809   6.851   8.954   0.783 -0.3814 -0.1023 -0.0388
  881MOL0     C18810   6.941   8.857   0.863 -0.6472 -0.3660  1.0605
  881MOL0     C18811   6.870   8.786   0.976 -0.6422  0.4653 -0.1083
  881MOL0     C18812   6.985   8.731   1.066  0.8011 -0.9386 -0.7121
  881MOL0     C18813   6.929   8.644   1.184 -1.0471 -0.3033 -0.6773
  881MOL0     C18814   6.802   8.688   1.254  0.0938 -0.1075  0.6071
  881MOL0     C18815   6.814   8.816   1.339 -1.1102  0.0268  0.6636
  881MOL0     C18816   6.698   8.824   1.438 -1.3858  0.4938 -0.9726
  881MOL0     N18817   6.558   8.839   1.389 -0.5128  0.0517  0.9060
  881MOL0     C18818   6.446   8.872   1.472  0.0162  0.3316  0.4703
  881MOL0     C18819   6.348   8.898   1.383  0.4069  0.3788  0.2447
  881MOL0     C18820   6.203   8.928   1.416  0.0752 -0.3195  0.9087
  881MOL0     C18821   6.106   8.811   1.411 -0.4728  0.4751  0.0454
  881MOL0     C18822   5.980   8.860   1.354 -0.1958  0.8215 -0.2033
  881MOL0     C18823   5.861   8.758   1.332  0.2190 -0.4862  0.1586
  881MOL0     O18824   5.742   8.822   1.298  0.0059 -0.6680 -0.1862
  881MOL0     C18825   5.630   8.736   1.280  0.1592 -0.9465  1.0471
  881MOL0     C18826   5.526   8.788   1.191  0.2749 -0.3640  0.1630
  881MOL0     C18827   5.403   8.712   1.168 -1.8894 -0.1543 -0.0891
  881MOL0     C18828   5.393   8.581   1.218  0.2946 -0.1662 -0.7418
  881MOL0     C18829   5.270   8.495   1.197  0.2426 -0.2347  0.2221
  881MOL0     O18830   5.158   8.559   1.137  0.1657  0.1779 -1.1826
  881MOL0     C18831   5.065   8.470   1.094  0.6522  0.3078 -0.1551
  881MOL0     C18832   5.071   8.432   0.953 -0.7002  0.3227 -0.0206
  881MOL0     C18833   4.977   8.338   0.906 -0.1091 -0.2010  0.1314
  881MOL0     C18834   4.899   8.265   0.991  1.4183  0.4841 -0.7187
  881MOL0     O18835   4.835   8.159   0.929 -0.5688  0.5524 -0.0236
  881MOL0     C18836   4.729   8.090   1.014  0.1231  0.1560  0.4463
  881MOL0     C18837   4.781   7.980   1.092  0.1974  0.5730  0.3698
  881MOL0     C18838   4.679   7.925   1.187  0.0356 -0.7693 -1.1583
  881MOL0     C18839   4.717   7.787   1.231  0.3539  0.2699  0.3240
  881MOL0     C18840   4.855   7.781   1.283  0.7526 -0.7350  0.0806
  881MOL0     C18841   4.875   7.651   1.366  0.4348  0.3405 -0.2274
  881MOL0     C18842   5.024   7.628   1.404  0.9944  1.1103 -0.0906
  881MOL0     C18843   5.043   7.480   1.456  1.1421 -0.5801  0.5487
  881MOL0    Cl18844   5.183   7.486   1.567 -0.0622 -0.2082 -0.3411
  881MOL0     C18845   4.890   8.311   1.129 -1.0352  0.9997 -0.7118
  881MOL0     C18846   4.977   8.402   1.176 -1.0389 -0.2662 -0.3696
  881MOL0     O18847   5.283   8.370   1.195  0.4772  0.1913 -0.2675
  881MOL0     C18848   5.498   8.524   1.293  0.2971 -0.4726 -0.4152
  881MOL0     C18849   5.609   8.609   1.325  0.5310 -0.1785 -0.2328
  881MOL0     N18850   6.398   8.889   1.252  1.2120 -0.4251 -0.3502
  881MOL0     N18851   6.525   8.864   1.257 -0.8476  0.0153  0.3198
  881MOL0     C18852   6.619   9.126   0.680  0.4178 -0.1973  0.4585
  881MOL0     C18853   6.489   9.180   0.658 -0.2730  0.5640  0.5801
  881MOL0     C18854   6.121   9.429   0.745  0.0028 -0.5777  0.3672
  881MOL0     C18855   6.053   9.378   0.853  1.0398  0.2371  0.5673
  881MOL0     C18856   5.930   9.420   0.909  0.6698  0.0005  0.8572
  881MOL0     C18857   5.877   9.550   0.861  0.0250  0.8427 -0.1920
  881MOL0     O18858   5.754   9.598   0.924  0.3523  0.3475  0.0917
  881MOL0     C18859   5.712   9.725   0.873 -0.0034 -0.1974  0.3723
  881MOL0     C18860   5.599   9.775   0.961 -0.3934 -0.3921  0.1375
  881MOL0     C18861   5.555   9.920   0.925 -0.3743  0.7992 -0.5591
  881MOL0     C18862   5.416   9.967   0.991  0.3149  0.7129 -0.6480
  881MOL0     C18863   5.353  10.097   0.953  0.0125  0.6584  0.2991
  881MOL0     C18864   5.301  10.205   0.930 -0.2227  0.6660  0.1544
  881MOL0     C18865   5.940   9.602   0.747 -0.0129  0.1235 -1.0586
  881MOL0     C18866   6.058   9.546   0.682 -1.0168  0.4396  0.0803
  881MOL0     C18867   6.091   9.607   0.543  0.2206 -0.4823 -0.2063
  881MOL0     H18868   6.366   9.174   0.962 -1.8258 -0.1289 -2.4276
  881MOL0     H18869   6.596   9.106   1.030 -0.2340 -1.4658  0.4130
  881MOL0     H18870   6.784   8.895   0.720  1.6609 -3.2777  0.4969
  881MOL0     H18871   6.920   9.017   0.725 -0.6511  1.5736  1.3871
  881MOL0     H18872   7.031   8.911   0.893 -0.0014 -0.9199  0.2039
  881MOL0     H18873   6.975   8.774   0.799  1.7416  1.0408  0.3683
  881MOL0     H18874   6.804   8.703   0.948 -1.7403  0.3395  2.5087
  881MOL0     H18875   6.795   8.857   1.013  0.6940  2.1886 -0.6045
  881MOL0     H18876   7.047   8.667   1.003 -2.3862 -2.8829 -2.0990
  881MOL0     H18877   7.043   8.813   1.109  1.7912 -1.5906 -0.7804
  881MOL0     H18878   6.926   8.544   1.140  2.5360 -0.6422 -0.4506
  881MOL0     H18879   7.009   8.637   1.258 -2.3210 -0.0888  0.7476
  881MOL0     H18880   6.717   8.696   1.187 -0.5156  1.0386  1.4772
  881MOL0     H18881   6.791   8.600   1.319 -0.2293 -0.7153 -0.2616
  881MOL0     H18882   6.825   8.903   1.274  1.8347 -1.3363 -0.8334
  881MOL0     H18883   6.905   8.801   1.398 -0.3755  2.6765  0.3381
  881MOL0     H18884   6.711   8.745   1.512 -0.1929  3.3703  2.1102
  881MOL0     H18885   6.715   8.916   1.494 -1.3067  0.8894 -1.6307
  881MOL0     H18886   6.440   8.865   1.581 -0.7516  4.6145  0.8712
  881MOL0     H18887   6.199   8.971   1.517 -0.3090 -2.1386  1.6969
  881MOL0     H18888   6.181   9.003   1.340  2.1015 -4.4101 -4.2958
  881MOL0     H18889   6.158   8.734   1.354 -0.2578 -0.3946  1.3736
  881MOL0     H18890   6.099   8.762   1.509 -0.8982 -0.7534 -0.5829
  881MOL0     H18891   6.004   8.898   1.254  3.7103  2.7446  1.2258
  881MOL0     H18892   5.938   8.936   1.421 -0.4806  0.1216  0.4243
  881MOL0     H18893   5.854   8.701   1.425 -2.0063 -0.1807  0.2154
  881MOL0     H18894   5.881   8.682   1.256 -2.7406 -1.6064  0.3875
  881MOL0     H18895   5.531   8.893   1.162  2.2229 -0.5091 -0.1292
  881MOL0     H18896   5.331   8.760   1.103 -0.0465  0.9528 -1.3988
  881MOL0     H18897   5.136   8.476   0.878 -0.6945 -0.0505 -0.2333
  881MOL0     H18898   4.981   8.307   0.802 -0.7306 -0.9321  0.3180
  881MOL0     H18899   4.683   8.160   1.084  2.8390  0.3458  2.1840
  881MOL0     H18900   4.656   8.039   0.950  1.1155 -0.3493 -0.3169
  881MOL0     H18901   4.812   7.902   1.021  3.5841  2.1980 -0.1396
  881MOL0     H18902   4.872   8.023   1.132 -0.4027  0.3837  1.9894
  881MOL0     H18903   4.674   7.985   1.278 -0.3234 -3.3679  0.6168
  881MOL0     H18904   4.580   7.931   1.141  0.5256  3.3073 -2.1320
  881MOL0     H18905   4.707   7.722   1.143 -1.1186 -0.9573  1.3543
  881MOL0     H18906   4.645   7.750   1.304  2.2464 -2.9354  0.7562
  881MOL0     H18907   4.886   7.864   1.347  1.6431  1.0422 -2.4603
  881MOL0     H18908   4.923   7.773   1.197 -1.3668  0.7468 -1.8315
  881MOL0     H18909   4.820   7.668   1.459  0.5260 -1.1723  0.1285
  881MOL0     H18910   4.826   7.573   1.307 -0.9626  1.8502 -1.1783
  881MOL0     H18911   5.052   7.697   1.484 -1.4624  2.2433 -0.1122
  881MOL0     H18912   5.088   7.643   1.317 -2.5358  2.8690 -2.6530
  881MOL0     H18913   4.948   7.448   1.501  0.0490  1.9643  0.2788
  881MOL0     H18914   5.050   7.415   1.368  2.6904 -0.0930  0.2766
  881MOL0     H18915   4.832   8.249   1.197  0.8707 -0.2797 -0.1533
  881MOL0     H18916   4.979   8.429   1.281 -1.1413  0.1837 -0.4823
  881MOL0     H18917   5.493   8.423   1.332  0.0520  0.8264  3.3015
  881MOL0     H18918   5.689   8.562   1.381 -0.2264 -2.0544 -0.6445
  881MOL0     H18919   6.695   9.104   0.606 -0.0976  1.5280 -0.6296
  881MOL0     H18920   6.457   9.208   0.558  1.5859  5.0862  1.0064
  881MOL0     H18921   6.099   9.287   0.892  0.4871 -0.3938 -0.2286
  881MOL0     H18922   5.894   9.361   0.993  1.9667 -2.1989 -0.0549
  881MOL0     H18923   5.675   9.709   0.771  0.7266  1.4983 -0.1945
  881MOL0     H18924   5.791   9.800   0.874 -1.7978  1.8368  2.2301
  881MOL0     H18925   5.631   9.765   1.065 -2.3307  2.8217  1.1889
  881MOL0     H18926   5.516   9.705   0.942 -0.6462 -0.1723  0.4397
  881MOL0     H18927   5.528   9.914   0.819 -1.4557 -2.2308 -0.2260
  881MOL0     H18928   5.634   9.995   0.933 -0.1459  0.4902  0.2501
  881MOL0     H18929   5.347   9.883   0.986  1.2003 -0.1100  0.4638
  881MOL0     H18930   5.430   9.981   1.098 -0.2448  0.0241 -0.4827
  881MOL0     H18931   5.265  10.305   0.916 -0.6369  0.1386 -3.5388
  881MOL0     H18932   5.893   9.686   0.697  0.1384  2.1948  2.0208
  881MOL0     H18933   6.045   9.548   0.464  0.1800  0.0090 -0.5577
  881MOL0     H18934   6.057   9.709   0.524 -0.7412 -0.9204 -0.8908
  881MOL0     H18935   6.198   9.601   0.520  0.6290  1.2061  1.0251
  882MOL0     O18936   0.461   0.043   5.378 -0.3248  0.4487 -0.3921
  882MOL0     C18937   0.526  -0.051   5.331  0.0208 -0.5474 -0.2547
  882MOL0     O18938   0.609  -0.123   5.403 -0.3489 -0.3628  0.1008
  882MOL0     C18939   0.617  -0.087   5.536 -1.5848  0.3658 -0.4950
  882MOL0     C18940   0.686   0.039   5.575 -0.0251  0.4836 -1.4088
  882MOL0     C18941   0.711   0.072   5.715 -0.2415 -0.4161  0.4699
  882MOL0     C18942   0.691  -0.027   5.812  0.1605  0.7040  0.7561
  882MOL0     O18943   0.699  -0.011   5.948  0.3695 -0.4885  0.1759
  882MOL0     C18944   0.823   0.028   5.999 -0.5737 -0.1731  0.9232
  882MOL0     C18945   0.890  -0.081   6.075 -0.3935 -0.0039  0.3371
  882MOL0     C18946   1.047  -0.049   6.101  0.5812 -0.2963 -0.2908
  882MOL0     C18947   1.098  -0.171   6.183 -0.7207  0.0154  0.6188
  882MOL0     C18948   1.197  -0.264   6.112  0.0021  0.6602  0.1097
  882MOL0     C18949   1.251  -0.383   6.203  0.2322  0.2521  0.6521
  882MOL0     C18950   1.301  -0.496   6.102  0.4037 -0.2395 -0.0303
  882MOL0     C18951   1.348  -0.630   6.168 -0.0700 -0.3491 -1.3215
  882MOL0     N18952   1.422  -0.707   6.064 -0.6844  0.4788  0.5760
  882MOL0     C18953   1.412  -0.685   5.928  0.3639  0.3700 -0.0558
  882MOL0     C18954   1.486  -0.777   5.865 -0.0079 -0.6267 -0.3424
  882MOL0     C18955   1.490  -0.817   5.717 -0.9120  0.7657  0.3538
  882MOL0     C18956   1.459  -0.706   5.630 -0.6442 -0.1296  1.4336
  882MOL0     C18957   1.572  -0.599   5.618 -1.0570  0.5866 -0.3863
  882MOL0     C18958   1.519  -0.468   5.566  0.4694  0.1569  0.1838
  882MOL0     O18959   1.443  -0.412   5.674  1.1419 -0.4210  0.0444
  882MOL0     C18960   1.376  -0.293   5.659  0.7280 -0.2807 -0.5470
  882MOL0     C18961   1.354  -0.227   5.784  0.1104  0.6597  0.2425
  882MOL0     C18962   1.287  -0.108   5.793 -0.0643  0.6935  0.6291
  882MOL0     C18963   1.241  -0.050   5.674  0.5739 -0.5236  0.2738
  882MOL0     C18964   1.176   0.083   5.672  0.5340  0.0998 -0.6258
  882MOL0     O18965   1.181   0.153   5.561 -0.0523 -0.0872  0.3348
  882MOL0     C18966   1.136   0.283   5.560 -0.3567  0.6872 -1.3100
  882MOL0     C18967   1.003   0.293   5.514 -1.0052  0.0877 -0.4436
  882MOL0     C18968   0.957   0.426   5.504 -0.2676 -0.1520  0.7051
  882MOL0     C18969   1.044   0.540   5.526  0.8198  0.0574  0.0143
  882MOL0     O18970   0.993   0.672   5.520 -0.6510 -0.4694  0.3322
  882MOL0     C18971   0.862   0.698   5.487  0.7354 -0.7056 -0.3952
  882MOL0     C18972   0.861   0.846   5.448  0.1215 -0.4596  0.8190
  882MOL0     C18973   0.719   0.898   5.421  0.8156  0.2316  0.3808
  882MOL0     C18974   0.718   0.959   5.280  0.5803 -0.2324  0.8260
  882MOL0     C18975   0.807   1.084   5.266  0.5595 -0.3622 -0.4455
  882MOL0     C18976   0.816   1.111   5.111  0.3627 -0.0023  0.0728
  882MOL0     C18977   0.924   1.211   5.074 -0.0119  1.9562  0.6292
  882MOL0     C18978   0.942   1.237   4.917 -1.3089 -0.1226  0.5713
  882MOL0    Cl18979   0.811   1.326   4.838  0.1629 -0.2115 -0.2295
  882MOL0     C18980   1.177   0.517   5.568  0.9040 -0.1945  0.0787
  882MOL0     C18981   1.219   0.390   5.588 -0.5427 -0.0082 -0.5315
  882MOL0     O18982   1.127   0.116   5.776  0.1957 -0.3031  0.0071
  882MOL0     C18983   1.264  -0.114   5.551 -0.7374 -0.4968  0.5816
  882MOL0     C18984   1.324  -0.237   5.541 -0.2630  0.5462  0.3479
  882MOL0     N18985   1.539  -0.860   5.959 -0.2119 -0.2021  0.3205
  882MOL0     N18986   1.501  -0.814   6.075 -0.5539 -0.4799  0.3361
  882MOL0     C18987   0.648  -0.159   5.764  0.2243 -1.1805  0.7011
  882MOL0     C18988   0.600  -0.186   5.635 -0.4311  0.2252  0.9521
  882MOL0     C18989   0.511  -0.063   5.184  0.0359  0.9002  0.5775
  882MOL0     C18990   0.608  -0.143   5.116  0.4273 -0.0717 -0.6054
  882MOL0     C18991   0.611  -0.146   4.977 -0.2679 -0.0451  1.1428
  882MOL0     C18992   0.509  -0.090   4.899 -0.1126 -1.0029  0.6032
  882MOL0     O18993   0.512  -0.092   4.757  0.2596 -0.8924  0.0150
  882MOL0     C18994   0.558   0.039   4.708  0.1063 -0.4168 -0.1997
  882MOL0     C18995   0.619   0.047   4.567  0.6128  0.2780 -0.9058
  882MOL0     C18996   0.529   0.011   4.449  0.4400 -0.7610  0.2344
  882MOL0     C18997   0.596  -0.043   4.328 -0.1781  0.0678  0.3948
  882MOL0     C18998   0.701   0.051   4.286 -0.0698  0.4023 -0.4180
  882MOL0     C18999   0.785   0.131   4.257  0.1279 -0.0717  0.5178
  882MOL0     C19000   0.413  -0.018   4.965  0.3741 -0.5767 -0.9974
  882MOL0     C19001   0.413  -0.006   5.107  0.2678 -0.5305  0.0139
  882MOL0     C19002   0.306   0.071   5.171 -0.4756 -0.2885 -0.6358
  882MOL0     H19003   0.691   0.109   5.492 -0.7386  1.2742 -0.8093
  882MOL0     H19004   0.755   0.167   5.743  3.9603 -1.7550 -0.7560
  882MOL0     H19005   0.901   0.060   5.929 -1.7608 -0.1473 -0.4443
  882MOL0     H19006   0.811   0.112   6.068  2.6469  1.2669 -0.0360
  882MOL0     H19007   0.888  -0.172   6.015 -1.5700  0.2114  0.0134
  882MOL0     H19008   0.829  -0.105   6.163  0.2991 -0.4831  0.6912
  882MOL0     H19009   1.050   0.048   6.151  1.2287  0.5996 -1.9639
  882MOL0     H19010   1.107  -0.034   6.010 -1.5304 -1.5389 -1.9864
  882MOL0     H19011   1.149  -0.118   6.265  0.0675  1.8364 -0.9799
  882MOL0     H19012   1.011  -0.224   6.222 -2.5434  3.9495  2.3829
  882MOL0     H19013   1.149  -0.304   6.022  0.6747 -1.1328  0.5069
  882MOL0     H19014   1.271  -0.193   6.074 -1.0598  0.2668 -2.9854
  882MOL0     H19015   1.329  -0.354   6.274 -3.5808  2.8387  4.3073
  882MOL0     H19016   1.166  -0.421   6.261 -0.1080  1.5795  1.0696
  882MOL0     H19017   1.380  -0.448   6.043  0.7488  1.2013  1.5104
  882MOL0     H19018   1.217  -0.511   6.034  0.5094  0.1745 -0.2543
  882MOL0     H19019   1.408  -0.612   6.257 -1.4394  1.2090 -0.6636
  882MOL0     H19020   1.266  -0.682   6.219 -0.1315  1.3528  0.4079
  882MOL0     H19021   1.346  -0.612   5.882  2.0099  1.8814 -0.1465
  882MOL0     H19022   1.597  -0.833   5.702 -0.8746 -1.0830  2.1875
  882MOL0     H19023   1.426  -0.904   5.701  0.0913  0.0518  0.1100
  882MOL0     H19024   1.442  -0.734   5.525 -0.6841  2.9613  0.5199
  882MOL0     H19025   1.369  -0.658   5.668 -0.1817  0.7168  1.5014
  882MOL0     H19026   1.650  -0.641   5.553 -1.0801  2.0687 -1.4065
  882MOL0     H19027   1.612  -0.587   5.719 -2.8308  1.1596  0.2847
  882MOL0     H19028   1.473  -0.483   5.468  4.3709 -0.5093 -1.7383
  882MOL0     H19029   1.600  -0.396   5.552 -1.8905  3.2180  1.0476
  882MOL0     H19030   1.394  -0.268   5.876  2.2198  3.6272  0.8079
  882MOL0     H19031   1.267  -0.058   5.887  2.9241  1.3888  1.0017
  882MOL0     H19032   0.935   0.218   5.475 -2.3936  2.9766 -4.0745
  882MOL0     H19033   0.854   0.423   5.472  0.9305  2.4881 -4.4410
  882MOL0     H19034   0.827   0.644   5.399  2.5371 -0.2158 -1.4515
  882MOL0     H19035   0.788   0.690   5.568  1.6102  1.8948  0.7513
  882MOL0     H19036   0.906   0.904   5.529  0.2912 -0.8003  0.9745
  882MOL0     H19037   0.928   0.851   5.362 -0.7657 -1.6524  0.0176
  882MOL0     H19038   0.647   0.817   5.435  1.5862 -0.6824 -0.7232
  882MOL0     H19039   0.693   0.983   5.485 -1.3785  0.6893 -1.0158
  882MOL0     H19040   0.612   0.982   5.266  0.5656 -1.2542 -1.1099
  882MOL0     H19041   0.752   0.885   5.207 -0.0287  1.1736 -0.9512
  882MOL0     H19042   0.911   1.071   5.297  1.3873  2.8360 -1.4496
  882MOL0     H19043   0.766   1.169   5.321  2.6353 -0.0712  0.7529
  882MOL0     H19044   0.846   1.017   5.064 -0.9206 -1.3481  1.7817
  882MOL0     H19045   0.723   1.147   5.065  0.1248  1.5772  1.6537
  882MOL0     H19046   1.021   1.173   5.104  0.2584  0.2437 -2.0940
  882MOL0     H19047   0.910   1.303   5.132 -1.4046  2.1184  0.1037
  882MOL0     H19048   1.039   1.287   4.918 -1.5221  0.5119 -2.3182
  882MOL0     H19049   0.944   1.139   4.869  2.5843  1.7407 -3.8969
  882MOL0     H19050   1.236   0.607   5.576 -0.0129  0.3006  2.1185
  882MOL0     H19051   1.323   0.386   5.618  0.0363 -1.3897 -2.5366
  882MOL0     H19052   1.224  -0.072   5.459 -1.1041 -1.1575  0.4348
  882MOL0     H19053   1.327  -0.284   5.443 -1.5338 -0.0433  0.5719
  882MOL0     H19054   0.663  -0.230   5.844 -1.2427 -0.9128  1.2390
  882MOL0     H19055   0.552  -0.283   5.622 -5.6413  2.8055 -2.5743
  882MOL0     H19056   0.686  -0.187   5.177 -0.4014 -1.8685 -0.7810
  882MOL0     H19057   0.691  -0.199   4.927  1.6973  2.2538  1.6476
  882MOL0     H19058   0.645   0.060   4.770  0.0465 -1.8307  0.3996
  882MOL0     H19059   0.479   0.113   4.718 -0.3470 -0.8565 -0.4476
  882MOL0     H19060   0.709  -0.016   4.573  1.8151  1.9972  0.3980
  882MOL0     H19061   0.671   0.140   4.540  1.9403 -0.5030 -1.1643
  882MOL0     H19062   0.482   0.098   4.403  1.2400  0.6612  1.9510
  882MOL0     H19063   0.457  -0.063   4.484 -0.1334  1.2598  3.8189
  882MOL0     H19064   0.653  -0.133   4.352  1.4030  1.3362  1.6377
  882MOL0     H19065   0.520  -0.051   4.250  0.9678 -2.7708 -0.5705
  882MOL0     H19066   0.869   0.188   4.222 -0.1597 -0.5360 -1.0262
  882MOL0     H19067   0.344   0.035   4.900  0.7060 -0.4831 -1.2781
  882MOL0     H19068   0.253   0.015   5.249 -3.4821 -2.0473 -3.6077
  882MOL0     H19069   0.340   0.169   5.204  0.3721 -0.3721 -1.2420
  882MOL0     H19070   0.231   0.097   5.096 -1.0734 -1.6057 -0.5207
  883MOL0     O19071   8.879   3.224   9.749 -0.1049  0.2608  0.3227
  883MOL0     C19072   8.868   3.337   9.717 -0.0876 -0.1466 -0.8439
  883MOL0     O19073   8.798   3.427   9.794 -0.2698 -0.0030 -0.7618
  883MOL0     C19074   8.734   3.411   9.917  0.5251  0.2400  0.1796
  883MOL0     C19075   8.768   3.306  10.006  0.3827  0.5454 -0.1186
  883MOL0     C19076   8.699   3.287  10.129 -0.4431 -0.1606 -0.5268
  883MOL0     C19077   8.605   3.381  10.172  0.7146 -0.0437 -0.5756
  883MOL0     O19078   8.537   3.375  10.298 -0.0338 -0.0093 -0.4135
  883MOL0     C19079   8.609   3.355  10.421  0.0941  0.1928  0.5231
  883MOL0     C19080   8.584   3.211  10.478 -0.1764 -0.8317  0.3108
  883MOL0     C19081   8.444   3.176  10.505  0.2137 -0.3529  0.5230
  883MOL0     C19082   8.420   3.024  10.517  0.8076 -0.5013  0.8985
  883MOL0     C19083   8.286   2.981  10.563 -1.0014 -0.1366  1.1164
  883MOL0     C19084   8.173   2.977  10.462  0.9412  0.7353 -1.0792
  883MOL0     C19085   8.043   2.920  10.539  0.2669 -0.8971 -0.0490
  883MOL0     C19086   7.921   2.915  10.452  0.1341  0.3823  0.4628
  883MOL0     N19087   7.800   2.861  10.506  0.1759  0.0069  0.7636
  883MOL0     C19088   7.736   2.741  10.467  0.2311  0.4603 -0.5891
  883MOL0     C19089   7.617   2.751  10.515  0.3455 -0.1444 -0.6021
  883MOL0     C19090   7.508   2.649  10.499 -0.3653 -0.6463 -0.1739
  883MOL0     C19091   7.480   2.608  10.347  0.6215  0.3799 -0.4736
  883MOL0     C19092   7.333   2.578  10.321  0.2435  0.1838  0.6178
  883MOL0     C19093   7.310   2.573  10.167 -0.4299  0.4049  0.3308
  883MOL0     O19094   7.166   2.572  10.127 -1.1636  0.3141  0.5043
  883MOL0     C19095   7.094   2.472  10.176 -0.8464 -0.5849  0.2942
  883MOL0     C19096   6.969   2.490  10.238 -0.2096 -0.2723  0.0983
  883MOL0     C19097   6.893   2.388  10.291 -0.4249  0.2704 -1.1897
  883MOL0     C19098   6.949   2.260  10.292  0.1939  0.1025  0.5527
  883MOL0     C19099   6.875   2.142  10.346  0.1140  0.0732  0.1259
  883MOL0     O19100   6.772   2.159  10.426  0.7204  0.5419 -0.0042
  883MOL0     C19101   6.723   2.055  10.488 -0.1787  0.6241  0.5337
  883MOL0     C19102   6.598   1.998  10.463 -0.1085 -0.8087  0.0573
  883MOL0     C19103   6.557   1.871  10.513  0.4845 -0.6442 -0.4578
  883MOL0     C19104   6.639   1.800  10.593 -0.3191 -1.6485  0.4983
  883MOL0     O19105   6.606   1.670  10.636 -0.2319  0.3565 -0.0871
  883MOL0     C19106   6.630   1.556  10.545 -0.1156 -0.0435  0.0333
  883MOL0     C19107   6.567   1.426  10.578  1.2332 -0.4023 -0.2832
  883MOL0     C19108   6.508   1.408  10.725 -0.0263 -0.3317  0.3368
  883MOL0     C19109   6.624   1.398  10.828  0.1935 -0.5748  0.0293
  883MOL0     C19110   6.554   1.377  10.970 -0.4814  0.1012  0.0552
  883MOL0     C19111   6.655   1.399  11.086  0.0168 -0.3028  0.6474
  883MOL0     C19112   6.720   1.264  11.123 -0.0523 -0.2346  0.3316
  883MOL0     C19113   6.864   1.281  11.183  0.6261 -0.3348  0.2254
  883MOL0    Cl19114   6.955   1.121  11.182 -0.3938  0.2578  0.1648
  883MOL0     C19115   6.756   1.861  10.642 -0.6865 -0.3523  0.5688
  883MOL0     C19116   6.796   1.991  10.596 -0.5848  0.4062 -0.8348
  883MOL0     O19117   6.927   2.034  10.315  0.0802  0.6452  0.7333
  883MOL0     C19118   7.072   2.232  10.217  0.2459 -0.3013 -0.2191
  883MOL0     C19119   7.144   2.340  10.171  0.0189 -0.0451 -0.3928
  883MOL0     N19120   7.609   2.855  10.609  0.1605 -0.1410  0.1737
  883MOL0     N19121   7.723   2.914  10.610  0.6809 -0.1268  0.4602
  883MOL0     C19122   8.583   3.492  10.081 -0.9592 -1.4818 -0.8584
  883MOL0     C19123   8.638   3.508   9.954 -0.1262  0.1366 -0.4242
  883MOL0     C19124   8.909   3.385   9.581  1.3717  0.0869 -0.6408
  883MOL0     C19125   8.873   3.313   9.465 -0.4066 -0.2404  0.0824
  883MOL0     C19126   8.928   3.339   9.337  0.5496 -0.3474  0.3723
  883MOL0     C19127   9.014   3.449   9.323 -0.9495 -0.7622 -0.7114
  883MOL0     O19128   9.082   3.486   9.207 -0.1468 -0.2766 -0.3423
  883MOL0     C19129   9.019   3.446   9.087  0.5167 -0.6618  0.3701
  883MOL0     C19130   9.093   3.502   8.961 -0.3877  0.1728 -0.6136
  883MOL0     C19131   9.008   3.523   8.830 -0.5596 -0.4394 -0.1345
  883MOL0     C19132   9.105   3.524   8.705 -0.1950  0.8299 -0.0824
  883MOL0     C19133   9.078   3.633   8.605  0.7100  0.2928 -0.4020
  883MOL0     C19134   9.089   3.717   8.520  0.5165  0.3204  0.5406
  883MOL0     C19135   9.037   3.529   9.435 -0.0900  0.2512 -0.1354
  883MOL0     C19136   8.997   3.493   9.563  0.2222 -0.1096 -0.4578
  883MOL0     C19137   9.054   3.559   9.693  0.2510  0.0830  0.1545
  883MOL0     H19138   8.853   3.247   9.974  1.8757  4.5629 -4.8152
  883MOL0     H19139   8.733   3.207  10.194  0.2466  0.7219  0.2193
  883MOL0     H19140   8.717   3.358  10.401 -0.0487 -0.7391 -0.5019
  883MOL0     H19141   8.570   3.430  10.489  0.7844  0.8202  0.2397
  883MOL0     H19142   8.651   3.208  10.564  0.6251 -1.7091 -0.3235
  883MOL0     H19143   8.620   3.135  10.407  1.8673  0.2805  0.1004
  883MOL0     H19144   8.384   3.217  10.423 -0.6693 -3.0491 -0.3074
  883MOL0     H19145   8.399   3.234  10.586 -1.7828  0.5767 -1.1645
  883MOL0     H19146   8.454   2.975  10.425  2.4237  2.3846 -0.1798
  883MOL0     H19147   8.493   2.992  10.592  3.1722 -0.2312 -1.1410
  883MOL0     H19148   8.306   2.876  10.581 -0.2108 -0.1635  0.1227
  883MOL0     H19149   8.257   3.038  10.653 -0.4476 -0.5462  1.5588
  883MOL0     H19150   8.155   3.082  10.436  1.1799  1.5245  1.6665
  883MOL0     H19151   8.205   2.917  10.376  2.6650 -0.0252  0.0384
  883MOL0     H19152   8.001   2.997  10.604  2.1082  1.1105 -1.1424
  883MOL0     H19153   8.061   2.825  10.590  1.9435 -0.6663 -0.1652
  883MOL0     H19154   7.907   3.021  10.429 -2.6456 -0.1780 -0.8849
  883MOL0     H19155   7.952   2.869  10.358  5.8088  3.2270  0.5036
  883MOL0     H19156   7.764   2.666  10.394 -1.7691 -0.7451 -0.1898
  883MOL0     H19157   7.523   2.566  10.568 -0.4358  0.5530  1.3473
  883MOL0     H19158   7.414   2.700  10.520 -0.7601 -0.5574 -1.9789
  883MOL0     H19159   7.514   2.690  10.283 -1.9589  2.2298  0.3778
  883MOL0     H19160   7.540   2.518  10.334  0.4845  0.2229 -0.0410
  883MOL0     H19161   7.259   2.649  10.361  0.8095  2.4148 -2.0255
  883MOL0     H19162   7.331   2.479  10.368  3.6600  0.0756  0.7174
  883MOL0     H19163   7.359   2.480  10.135 -0.3327  0.5549  0.0487
  883MOL0     H19164   7.357   2.665  10.131  0.4141 -0.9476 -2.3181
  883MOL0     H19165   6.920   2.586  10.240 -0.4483 -0.4002  0.5347
  883MOL0     H19166   6.795   2.417  10.329 -0.1691  0.6864 -0.8419
  883MOL0     H19167   6.531   2.051  10.395 -2.5495 -2.7785  0.8072
  883MOL0     H19168   6.466   1.818  10.489  1.0346 -2.2578  0.8410
  883MOL0     H19169   6.586   1.584  10.449 -1.3941 -0.7665  0.3812
  883MOL0     H19170   6.738   1.545  10.535  0.3410  1.6287  2.2781
  883MOL0     H19171   6.486   1.408  10.507  0.9039 -0.5612  0.1328
  883MOL0     H19172   6.644   1.349  10.565  0.3823 -0.9586 -2.4457
  883MOL0     H19173   6.443   1.488  10.762 -0.4181 -0.8387  0.7688
  883MOL0     H19174   6.445   1.320  10.744 -0.4468 -0.4659 -1.4925
  883MOL0     H19175   6.685   1.488  10.825 -1.1073  0.6324  4.1139
  883MOL0     H19176   6.697   1.317  10.815  1.7103  0.6421  0.7073
  883MOL0     H19177   6.524   1.272  10.976  0.7748 -0.2011  1.7004
  883MOL0     H19178   6.475   1.453  10.975 -1.1934  0.0773 -5.1450
  883MOL0     H19179   6.727   1.475  11.056 -0.5334 -0.5677 -1.5089
  883MOL0     H19180   6.597   1.430  11.173 -1.1514 -0.0547 -0.1964
  883MOL0     H19181   6.735   1.212  11.028 -2.5987  1.8789 -1.3575
  883MOL0     H19182   6.653   1.212  11.191  2.6233 -0.4319  3.0271
  883MOL0     H19183   6.920   1.347  11.116  0.5434 -1.2114 -0.7389
  883MOL0     H19184   6.848   1.324  11.282 -1.4240 -2.8277  1.0963
  883MOL0     H19185   6.814   1.821  10.724  0.9913  4.1999  1.8790
  883MOL0     H19186   6.885   2.041  10.632  0.2471 -1.3366 -0.3921
  883MOL0     H19187   7.120   2.135  10.224  3.0833  0.9953 -0.3183
  883MOL0     H19188   7.239   2.318  10.122  0.0128 -1.0256  0.0225
  883MOL0     H19189   8.518   3.572  10.114  2.6785  1.8184 -0.9037
  883MOL0     H19190   8.604   3.592   9.894  0.1062 -0.8765 -2.0389
  883MOL0     H19191   8.829   3.217   9.492  1.2832 -0.8119  0.9437
  883MOL0     H19192   8.894   3.270   9.261 -0.6850  0.7692 -0.1461
  883MOL0     H19193   8.917   3.485   9.081  1.0239  0.5983 -0.3363
  883MOL0     H19194   9.012   3.337   9.085  0.2223 -0.6434  0.3243
  883MOL0     H19195   9.171   3.428   8.938 -0.7240 -0.3547 -0.0829
  883MOL0     H19196   9.140   3.593   8.997 -1.5141  0.2313  0.7928
  883MOL0     H19197   8.964   3.624   8.834  1.4681  0.5588 -1.4235
  883MOL0     H19198   8.928   3.450   8.812 -1.5988  0.5662  0.2622
  883MOL0     H19199   9.208   3.547   8.734  0.2368  2.6336 -2.6992
  883MOL0     H19200   9.097   3.425   8.659  2.0684 -0.6661  2.4488
  883MOL0     H19201   9.080   3.783   8.436 -2.7314 -1.1396 -0.4287
  883MOL0     H19202   9.104   3.614   9.428 -0.8117  0.7356 -1.6844
  883MOL0     H19203   8.983   3.607   9.762  2.2779 -0.5570  2.8043
  883MOL0     H19204   9.119   3.489   9.745  1.4502 -0.6424 -2.1943
  883MOL0     H19205   9.126   3.635   9.661  2.5719 -1.3870  1.6888
  884MOL0     O19206   7.629   9.135  10.985 -0.1281 -0.5528 -0.4652
  884MOL0     C19207   7.677   9.207  11.071  0.0461  0.2885  0.3014
  884MOL0     O19208   7.761   9.317  11.048 -0.1786 -0.0193  0.2424
  884MOL0     C19209   7.801   9.344  10.917 -0.8828 -0.2759  0.7007
  884MOL0     C19210   7.753   9.466  10.860  0.2420  0.0639 -0.3347
  884MOL0     C19211   7.788   9.493  10.727  1.1047  0.2337 -0.1780
  884MOL0     C19212   7.884   9.407  10.659 -0.0048 -1.0418 -0.3827
  884MOL0     O19213   7.929   9.449  10.536 -0.9050 -0.2761  0.2151
  884MOL0     C19214   7.882   9.369  10.430  0.0783  0.8918 -0.6700
  884MOL0     C19215   7.936   9.431  10.297  0.2616  0.3325 -1.1215
  884MOL0     C19216   8.082   9.472  10.305  0.7173 -0.8704  0.2654
  884MOL0     C19217   8.182   9.366  10.255  0.2392 -0.2655 -0.2579
  884MOL0     C19218   8.314   9.380  10.316  0.5990  0.8320 -0.7547
  884MOL0     C19219   8.417   9.289  10.239 -0.1207 -0.3207  0.4039
  884MOL0     C19220   8.431   9.138  10.265  0.4183  0.3147  0.2877
  884MOL0     C19221   8.389   9.094  10.413 -0.2946  0.0493  0.6983
  884MOL0     N19222   8.397   8.948  10.447  0.7880 -0.9900 -0.0985
  884MOL0     C19223   8.406   8.843  10.359  0.0467  0.4737 -0.0816
  884MOL0     C19224   8.449   8.736  10.439 -0.4608  0.0379 -0.5374
  884MOL0     C19225   8.473   8.598  10.376 -0.4324  0.2070 -0.2787
  884MOL0     C19226   8.604   8.521  10.410  0.6180  0.6366  0.3895
  884MOL0     C19227   8.599   8.370  10.378 -0.1934  0.3421 -0.2486
  884MOL0     C19228   8.536   8.314  10.249  0.0743  0.1477  0.2240
  884MOL0     O19229   8.570   8.400  10.136 -0.5006 -0.3449  0.2108
  884MOL0     C19230   8.551   8.356  10.005  0.0481  0.0405 -0.0849
  884MOL0     C19231   8.466   8.249   9.979  0.0524 -1.0261 -0.1784
  884MOL0     C19232   8.442   8.201   9.842  0.1388  0.7810 -1.2074
  884MOL0     C19233   8.516   8.258   9.737 -0.4240  0.7262  0.6718
  884MOL0     C19234   8.509   8.204   9.596  0.3145 -0.6056 -0.0746
  884MOL0     O19235   8.611   8.225   9.513 -0.9133  0.2009 -0.5592
  884MOL0     C19236   8.585   8.246   9.380 -0.0332 -0.0965 -0.5796
  884MOL0     C19237   8.689   8.229   9.299 -1.1373 -0.7955 -0.6533
  884MOL0     C19238   8.677   8.251   9.168  0.4660  0.7719  0.0255
  884MOL0     C19239   8.555   8.269   9.104 -0.3108  0.3460  0.2593
  884MOL0     O19240   8.565   8.272   8.968  0.1105 -0.2922 -0.1556
  884MOL0     C19241   8.436   8.289   8.909 -0.1367 -1.0718  0.0525
  884MOL0     C19242   8.421   8.236   8.763  0.7605 -0.1842  0.2417
  884MOL0     C19243   8.486   8.328   8.647  0.0939 -0.4487  0.4682
  884MOL0     C19244   8.439   8.290   8.505 -0.9438 -0.2322 -0.0010
  884MOL0     C19245   8.516   8.359   8.391 -0.2527 -0.2242 -0.2941
  884MOL0     C19246   8.634   8.269   8.348  0.5314 -0.2762 -0.0463
  884MOL0     C19247   8.696   8.299   8.214 -0.1839 -0.0189 -0.3245
  884MOL0     C19248   8.789   8.192   8.162  0.2208  0.7581 -0.4278
  884MOL0    Cl19249   8.820   8.236   7.992  0.2170  0.0454  0.3610
  884MOL0     C19250   8.439   8.291   9.190 -0.4690 -0.3710  0.1222
  884MOL0     C19251   8.464   8.286   9.323 -0.1373 -0.2901 -0.4776
  884MOL0     O19252   8.417   8.121   9.573 -0.3798  0.0889  0.2484
  884MOL0     C19253   8.605   8.363   9.766 -0.0447 -1.1515 -0.2978
  884MOL0     C19254   8.608   8.422   9.901 -0.6077  1.0569 -1.1249
  884MOL0     N19255   8.484   8.786  10.563  0.1653 -0.0393  0.0018
  884MOL0     N19256   8.441   8.911  10.564 -0.5145  1.0922 -0.1341
  884MOL0     C19257   7.948   9.309  10.732  0.0807 -0.6388 -0.8208
  884MOL0     C19258   7.898   9.265  10.855  0.0140 -0.9928 -1.2494
  884MOL0     C19259   7.636   9.193  11.212  0.7415  0.4044  0.0698
  884MOL0     C19260   7.709   9.268  11.310  0.9553 -0.3521 -0.7875
  884MOL0     C19261   7.684   9.244  11.449 -0.5817  0.5333 -0.0829
  884MOL0     C19262   7.587   9.159  11.497  0.1479 -0.1588  0.0639
  884MOL0     O19263   7.577   9.159  11.638 -0.5013  0.9293  0.8506
  884MOL0     C19264   7.479   9.083  11.701  1.0342  0.6870  0.3971
  884MOL0     C19265   7.506   9.114  11.847 -0.0023  0.0120  0.6118
  884MOL0     C19266   7.489   9.253  11.898 -0.5434 -0.1928  0.1313
  884MOL0     C19267   7.479   9.260  12.048 -0.0662  1.4645 -0.0270
  884MOL0     C19268   7.579   9.199  12.129  0.2478  0.7230 -0.0332
  884MOL0     C19269   7.664   9.156  12.206  0.7103  1.4976 -0.0315
  884MOL0     C19270   7.517   9.089  11.398  0.6360  0.0259  0.1426
  884MOL0     C19271   7.536   9.108  11.259 -0.0124 -0.6578  0.1314
  884MOL0     C19272   7.446   9.024  11.166  0.5013  0.5488 -0.3838
  884MOL0     H19273   7.689   9.524  10.926  2.4515 -0.2725  2.3199
  884MOL0     H19274   7.737   9.575  10.677  3.5121  0.9601 -1.6449
  884MOL0     H19275   7.922   9.267  10.420  2.2021  1.9289 -4.7284
  884MOL0     H19276   7.773   9.376  10.425 -0.0620 -1.2545 -2.2486
  884MOL0     H19277   7.883   9.525  10.278  1.1529  0.7440 -1.6122
  884MOL0     H19278   7.924   9.363  10.213 -2.1789  1.2097 -1.5694
  884MOL0     H19279   8.117   9.511  10.401  5.7342 -2.2128 -0.7563
  884MOL0     H19280   8.100   9.559  10.242 -2.8696 -0.6762 -0.7292
  884MOL0     H19281   8.135   9.273  10.289  0.4650 -0.2233  0.1908
  884MOL0     H19282   8.187   9.369  10.146  1.8147  3.6716 -0.2373
  884MOL0     H19283   8.339   9.485  10.296  3.6208  0.8519  2.3015
  884MOL0     H19284   8.306   9.338  10.416  2.3979 -1.5787 -1.5164
  884MOL0     H19285   8.403   9.297  10.131  1.7623 -0.8783  0.0715
  884MOL0     H19286   8.519   9.329  10.248 -0.0266 -0.0695 -1.3766
  884MOL0     H19287   8.536   9.111  10.250  1.2601  2.7445  1.4110
  884MOL0     H19288   8.370   9.081  10.194 -2.7316  1.3111  1.9900
  884MOL0     H19289   8.446   9.156  10.483 -0.2839 -0.5892  1.2806
  884MOL0     H19290   8.284   9.120  10.429  0.1808  3.2888 -0.8586
  884MOL0     H19291   8.362   8.838  10.260 -2.4062 -1.9375  0.9705
  884MOL0     H19292   8.389   8.530  10.394 -0.9969  1.5885  3.1408
  884MOL0     H19293   8.464   8.616  10.269  0.7000 -2.7535 -0.9765
  884MOL0     H19294   8.679   8.580  10.356  0.4415 -1.1963 -2.0388
  884MOL0     H19295   8.614   8.512  10.518  1.3916 -0.5062  0.2419
  884MOL0     H19296   8.560   8.319  10.466  1.7495  1.8286  1.5808
  884MOL0     H19297   8.698   8.326  10.391 -0.8247 -0.1574  5.9461
  884MOL0     H19298   8.428   8.318  10.268  0.1236  2.4493  0.2770
  884MOL0     H19299   8.559   8.208  10.235 -3.7653 -1.0134  1.4438
  884MOL0     H19300   8.416   8.204  10.064 -0.5018  3.1534  1.9622
  884MOL0     H19301   8.373   8.118   9.828  1.6318 -0.5356 -1.0004
  884MOL0     H19302   8.784   8.215   9.349 -2.4278  3.6036  3.8981
  884MOL0     H19303   8.769   8.245   9.110  0.7552  1.5873  0.3859
  884MOL0     H19304   8.361   8.235   8.967 -1.0903  3.2773  3.4622
  884MOL0     H19305   8.412   8.395   8.899  3.2811 -0.2078 -0.4420
  884MOL0     H19306   8.475   8.141   8.764  1.8795  0.4431  1.1668
  884MOL0     H19307   8.316   8.217   8.737  1.3877 -3.5483 -0.2512
  884MOL0     H19308   8.453   8.430   8.668  0.2457 -0.2403 -0.2643
  884MOL0     H19309   8.591   8.310   8.671  0.3446 -1.4348 -1.1885
  884MOL0     H19310   8.335   8.324   8.496 -1.5778 -1.9167  0.5147
  884MOL0     H19311   8.448   8.182   8.492 -2.3307 -0.1144 -2.5560
  884MOL0     H19312   8.552   8.457   8.427  2.0486 -1.4685  1.0307
  884MOL0     H19313   8.448   8.380   8.309 -1.1026 -0.5402  0.3181
  884MOL0     H19314   8.713   8.272   8.424 -0.7169  4.6137  1.4871
  884MOL0     H19315   8.588   8.171   8.340  0.7001 -0.3013 -0.6910
  884MOL0     H19316   8.747   8.396   8.216 -3.6962  2.0381  0.0554
  884MOL0     H19317   8.625   8.312   8.132  1.1350 -0.2450 -1.5374
  884MOL0     H19318   8.883   8.168   8.212  0.6043 -0.4280 -1.6529
  884MOL0     H19319   8.728   8.101   8.163  0.9969  0.2267 -0.6293
  884MOL0     H19320   8.338   8.305   9.151 -0.0355  0.3395 -0.7866
  884MOL0     H19321   8.368   8.280   9.375  0.2674 -0.1936  0.2908
  884MOL0     H19322   8.669   8.397   9.686  0.4604  0.9058  0.8939
  884MOL0     H19323   8.677   8.499   9.934 -0.2507 -0.1279  1.0643
  884MOL0     H19324   8.028   9.248  10.691 -0.4696 -2.5367  0.7338
  884MOL0     H19325   7.952   9.188  10.910 -0.5406  1.1181  2.6031
  884MOL0     H19326   7.777   9.350  11.290 -1.5518  2.4341  1.2737
  884MOL0     H19327   7.733   9.300  11.527 -0.0960  0.0351 -0.0196
  884MOL0     H19328   7.499   8.980  11.668  1.7875  0.6837  0.8368
  884MOL0     H19329   7.378   9.116  11.676  0.8701  1.6027  2.1002
  884MOL0     H19330   7.607   9.076  11.866  0.1978 -0.7330 -1.5915
  884MOL0     H19331   7.432   9.060  11.907 -0.5003 -0.5369 -0.4681
  884MOL0     H19332   7.406   9.298  11.843  0.6854  1.5381 -0.3957
  884MOL0     H19333   7.573   9.319  11.875  0.6401 -1.9170 -0.6898
  884MOL0     H19334   7.480   9.363  12.086 -0.2660  0.3550  3.3190
  884MOL0     H19335   7.377   9.226  12.069 -0.0745  1.2130 -0.4821
  884MOL0     H19336   7.727   9.124  12.287 -0.7729 -1.5318  0.0725
  884MOL0     H19337   7.439   9.022  11.432 -0.5147  1.2092 -0.0398
  884MOL0     H19338   7.499   8.956  11.099 -0.8354 -0.5930 -0.3253
  884MOL0     H19339   7.379   8.963  11.227 -0.0029 -0.9926 -2.3836
  884MOL0     H19340   7.373   9.082  11.108 -2.5706 -1.3796  1.3112
  885MOL0     O19341   4.035   9.514   9.837 -0.0854 -0.0947 -0.4750
  885MOL0     C19342   3.934   9.443   9.874 -0.2752  0.3409 -0.2162
  885MOL0     O19343   3.910   9.310   9.840 -0.0239 -0.7808  1.1960
  885MOL0     C19344   3.983   9.233   9.747  1.1339 -0.6569  0.2877
  885MOL0     C19345   4.118   9.250   9.708 -0.0985  0.2375  0.3549
  885MOL0     C19346   4.179   9.171   9.610  0.3319 -0.5888  0.6851
  885MOL0     C19347   4.103   9.077   9.550  0.4778  0.8155  0.3275
  885MOL0     O19348   4.173   8.997   9.458  0.0094  0.0243  0.4390
  885MOL0     C19349   4.144   9.006   9.318  0.7012  0.9885 -0.0926
  885MOL0     C19350   4.031   8.910   9.271  0.4303  0.0785  0.0784
  885MOL0     C19351   4.014   8.930   9.121  0.2027 -0.2265 -0.7885
  885MOL0     C19352   4.094   8.855   9.011  0.1992  0.7247 -0.1718
  885MOL0     C19353   4.060   8.902   8.869  0.8235  0.6400  0.1138
  885MOL0     C19354   4.111   8.791   8.781  0.3191 -0.3382 -0.1099
  885MOL0     C19355   4.109   8.823   8.637 -0.0830 -0.0677  0.9003
  885MOL0     C19356   3.973   8.840   8.579 -0.7728 -0.2086 -0.5079
  885MOL0     N19357   3.903   8.707   8.597  0.5758 -0.2973 -0.5985
  885MOL0     C19358   3.926   8.596   8.531 -0.8319  0.3224  0.9637
  885MOL0     C19359   3.829   8.507   8.581 -1.0827 -0.4654  0.1491
  885MOL0     C19360   3.779   8.370   8.531 -0.2051 -0.2238 -0.4000
  885MOL0     C19361   3.740   8.346   8.380 -0.1898  0.5667  0.8441
  885MOL0     C19362   3.706   8.201   8.357 -0.1103 -0.0342  0.5917
  885MOL0     C19363   3.812   8.099   8.389  0.8934  0.1392  0.0607
  885MOL0     O19364   3.942   8.129   8.331 -0.0109 -0.5208  0.7483
  885MOL0     C19365   4.047   8.054   8.373  0.4381 -1.0670  0.2767
  885MOL0     C19366   4.046   7.916   8.352 -0.4818  0.0140 -0.7390
  885MOL0     C19367   4.147   7.835   8.400 -0.3713  0.5082  0.2759
  885MOL0     C19368   4.255   7.893   8.469 -0.4408 -0.3023 -0.4814
  885MOL0     C19369   4.368   7.811   8.523  0.4668 -1.1124  0.0716
  885MOL0     O19370   4.349   7.677   8.515 -0.3233 -0.0582 -0.1566
  885MOL0     C19371   4.425   7.598   8.595  0.3504 -0.2621 -0.0142
  885MOL0     C19372   4.366   7.507   8.677 -0.7301  0.1125 -0.1514
  885MOL0     C19373   4.441   7.402   8.739 -0.2575  0.7301 -0.6024
  885MOL0     C19374   4.586   7.412   8.733 -0.0665 -1.0719  0.1347
  885MOL0     O19375   4.656   7.312   8.787  0.0538  0.4494 -0.0523
  885MOL0     C19376   4.765   7.335   8.879  0.3402 -0.2175  0.8081
  885MOL0     C19377   4.720   7.295   9.026 -0.1181 -0.4624  0.1825
  885MOL0     C19378   4.671   7.146   9.035  0.2895 -0.1780 -0.0242
  885MOL0     C19379   4.795   7.059   9.048 -0.1696 -0.4115 -0.2151
  885MOL0     C19380   4.775   6.907   9.055 -0.2309 -0.7064 -0.8046
  885MOL0     C19381   4.693   6.846   8.929  0.7090 -0.6804  0.3234
  885MOL0     C19382   4.699   6.689   8.936  0.9694  0.3459 -0.5629
  885MOL0     C19383   4.621   6.607   8.829  0.7862 -0.6595  0.0461
  885MOL0    Cl19384   4.686   6.449   8.788 -0.6632 -0.2488 -0.1153
  885MOL0     C19385   4.639   7.501   8.646 -0.1623 -0.1293  0.0238
  885MOL0     C19386   4.561   7.595   8.575 -0.0476  0.0948  0.5145
  885MOL0     O19387   4.463   7.867   8.587  0.4532  0.1584  0.1256
  885MOL0     C19388   4.255   8.037   8.495  0.2718  0.3640  0.3096
  885MOL0     C19389   4.147   8.114   8.448  0.2105 -0.0470  0.2352
  885MOL0     N19390   3.761   8.568   8.684 -0.1830 -0.3750  0.0400
  885MOL0     N19391   3.809   8.684   8.698  0.3843 -0.2704 -0.7143
  885MOL0     C19392   3.970   9.050   9.590  0.5479  0.1121  0.1580
  885MOL0     C19393   3.905   9.136   9.684  0.1148  0.2743  0.9383
  885MOL0     C19394   3.829   9.511   9.968  0.3852 -0.9247  0.3527
  885MOL0     C19395   3.841   9.649   9.999  0.0428  0.3046  0.4117
  885MOL0     C19396   3.758   9.715  10.094  0.2063 -0.3989  0.6791
  885MOL0     C19397   3.659   9.650  10.166 -0.1571  0.1896  0.8319
  885MOL0     O19398   3.573   9.690  10.261 -0.1869  0.0647  0.0545
  885MOL0     C19399   3.593   9.823  10.315 -0.4762  0.5204 -0.0463
  885MOL0     C19400   3.572   9.956  10.242  0.0326 -0.0290  0.2194
  885MOL0     C19401   3.586  10.078  10.325 -0.0763  0.7624  0.8724
  885MOL0     C19402   3.570  10.208  10.232  0.9234  0.1385 -0.7201
  885MOL0     C19403   3.592  10.334  10.306 -0.6846 -0.3325 -0.5795
  885MOL0     C19404   3.615  10.441  10.365 -0.6276  0.3718  0.8039
  885MOL0     C19405   3.653   9.508  10.150 -0.7499  0.1317 -0.3908
  885MOL0     C19406   3.747   9.441  10.064  0.3275  0.6579 -0.2766
  885MOL0     C19407   3.744   9.292  10.081 -0.1637 -0.1862  0.4003
  885MOL0     H19408   4.172   9.329   9.760  0.4758  0.6678 -0.8778
  885MOL0     H19409   4.280   9.197   9.579 -0.8147  1.1238 -1.9207
  885MOL0     H19410   4.136   9.109   9.281  2.7044  0.9731 -0.7109
  885MOL0     H19411   4.239   8.967   9.280  0.6264 -1.0817  1.7022
  885MOL0     H19412   3.938   8.932   9.324  0.5796  3.8329 -0.9083
  885MOL0     H19413   4.055   8.804   9.283  1.0914  0.4505  2.5095
  885MOL0     H19414   4.019   9.037   9.099 -1.8581  0.5900  2.0834
  885MOL0     H19415   3.908   8.921   9.095  0.2061  0.2887 -0.9982
  885MOL0     H19416   4.199   8.856   9.044 -0.2166  2.3209  1.2560
  885MOL0     H19417   4.066   8.750   9.016 -1.0430  1.0040 -0.9336
  885MOL0     H19418   3.951   8.907   8.862  0.8298 -0.0416 -0.6185
  885MOL0     H19419   4.119   8.993   8.857  3.0579 -0.5460  1.3935
  885MOL0     H19420   4.213   8.773   8.817  0.6206  4.3525  2.1006
  885MOL0     H19421   4.044   8.708   8.804 -0.4851  0.7723  1.7965
  885MOL0     H19422   4.162   8.745   8.581  0.6821  1.3602 -0.4404
  885MOL0     H19423   4.166   8.915   8.619  0.0054 -0.4010 -0.6951
  885MOL0     H19424   3.919   8.923   8.626 -0.2082  0.0114 -0.2419
  885MOL0     H19425   3.983   8.869   8.474 -0.5192  1.5591 -0.0291
  885MOL0     H19426   3.985   8.578   8.441 -3.3338  0.0639 -0.7269
  885MOL0     H19427   3.855   8.302   8.571  0.9345  1.9255  1.2645
  885MOL0     H19428   3.686   8.368   8.590 -0.7203  1.5887 -1.0923
  885MOL0     H19429   3.659   8.414   8.356  2.0641  2.8295 -0.9196
  885MOL0     H19430   3.816   8.378   8.308 -2.2237 -0.6812 -2.0648
  885MOL0     H19431   3.697   8.196   8.248 -0.8082  0.0227  0.6480
  885MOL0     H19432   3.610   8.177   8.403 -0.9459  1.8336 -0.0729
  885MOL0     H19433   3.780   7.997   8.364  2.6257 -0.1520 -1.1508
  885MOL0     H19434   3.818   8.085   8.498  0.2944 -1.8603 -0.1166
  885MOL0     H19435   3.970   7.872   8.289 -2.2774  2.1608 -0.1965
  885MOL0     H19436   4.136   7.728   8.388 -0.2083  0.3720  1.2731
  885MOL0     H19437   4.259   7.518   8.687 -0.8156  1.1378 -1.8279
  885MOL0     H19438   4.393   7.335   8.810  0.2940  0.9054 -0.0469
  885MOL0     H19439   4.855   7.283   8.844  1.5305  3.0194 -1.4980
  885MOL0     H19440   4.795   7.440   8.875 -2.4095  0.8737  4.3641
  885MOL0     H19441   4.805   7.309   9.094 -0.8630  1.9917  0.6881
  885MOL0     H19442   4.638   7.358   9.061  0.5055 -0.2809  1.3781
  885MOL0     H19443   4.615   7.134   9.128  1.4763 -0.5461  0.6549
  885MOL0     H19444   4.620   7.123   8.941  0.7723  3.3492 -1.3293
  885MOL0     H19445   4.844   7.096   9.138  0.5826 -2.2935  0.1888
  885MOL0     H19446   4.864   7.074   8.965  0.7569 -1.2777  0.3698
  885MOL0     H19447   4.727   6.882   9.150 -1.6776  1.7652 -0.8046
  885MOL0     H19448   4.878   6.870   9.050 -0.6313 -2.1976  1.1080
  885MOL0     H19449   4.589   6.877   8.936  0.6730 -0.0094 -2.1951
  885MOL0     H19450   4.734   6.871   8.830 -2.0517 -2.0418 -1.2626
  885MOL0     H19451   4.666   6.650   9.033 -0.4547 -1.8844 -1.8703
  885MOL0     H19452   4.802   6.659   8.916  0.0146 -1.3389 -3.5750
  885MOL0     H19453   4.521   6.589   8.870  0.1882  0.5371 -0.8305
  885MOL0     H19454   4.616   6.662   8.735 -3.9666 -1.2699 -0.3234
  885MOL0     H19455   4.747   7.507   8.636 -0.3097  0.2825 -1.6497
  885MOL0     H19456   4.614   7.646   8.495  1.4407 -2.0644  0.0311
  885MOL0     H19457   4.331   8.074   8.562  0.4436 -0.6269  0.6846
  885MOL0     H19458   4.141   8.219   8.476 -1.4697  0.0824 -0.5098
  885MOL0     H19459   3.911   8.972   9.544 -1.1198  2.0087 -1.0608
  885MOL0     H19460   3.800   9.144   9.711 -0.1826 -0.6057  0.0654
  885MOL0     H19461   3.917   9.708   9.949 -0.0395  0.4232  0.4252
  885MOL0     H19462   3.794   9.816  10.108  2.0325 -0.8644 -0.2597
  885MOL0     H19463   3.697   9.830  10.349  0.1962 -1.7397 -1.4227
  885MOL0     H19464   3.530   9.824  10.404 -0.0639 -0.4428  0.2674
  885MOL0     H19465   3.469   9.969  10.206 -0.0167  3.4782  1.2975
  885MOL0     H19466   3.645   9.946  10.161  1.9239 -2.6790  2.0928
  885MOL0     H19467   3.673  10.082  10.391 -0.0710  0.1690  0.9091
  885MOL0     H19468   3.495  10.073  10.387 -0.0174 -0.8108  0.8719
  885MOL0     H19469   3.626  10.211  10.138 -0.6464  4.1909 -1.7276
  885MOL0     H19470   3.467  10.216  10.198  1.6304  3.2370 -2.5119
  885MOL0     H19471   3.655  10.520  10.425 -1.1576 -1.4822  3.8185
  885MOL0     H19472   3.591   9.453  10.220  0.0072  2.6063  2.4531
  885MOL0     H19473   3.683   9.262  10.167  0.6469 -2.8194  0.1570
  885MOL0     H19474   3.703   9.236   9.997 -0.2105 -2.5057  1.8885
  885MOL0     H19475   3.847   9.261  10.100 -0.2218 -1.8249 -1.6982
  886MOL0     O19476   3.484   7.090   7.562  0.0497  0.2849 -0.2224
  886MOL0     C19477   3.364   7.063   7.568 -0.2242 -1.4334  0.0002
  886MOL0     O19478   3.310   6.948   7.615 -0.4619 -0.2107  0.1989
  886MOL0     C19479   3.376   6.889   7.714 -1.1962  0.4362 -0.9133
  886MOL0     C19480   3.339   6.885   7.854 -1.1567  0.2688  0.4074
  886MOL0     C19481   3.415   6.815   7.953  0.0440  0.1922  0.1683
  886MOL0     C19482   3.532   6.750   7.915 -0.0977 -0.1626 -0.7011
  886MOL0     O19483   3.615   6.717   8.020 -0.0665  0.3483 -0.0664
  886MOL0     C19484   3.759   6.691   8.000 -0.3612 -0.2584  0.0874
  886MOL0     C19485   3.838   6.814   8.040 -0.4382 -0.3102  0.9417
  886MOL0     C19486   3.778   6.938   7.972 -0.0270  0.5630 -0.2602
  886MOL0     C19487   3.888   7.050   7.960  0.2768  0.5440  0.0592
  886MOL0     C19488   3.844   7.163   7.868 -0.2145 -0.1418  0.0502
  886MOL0     C19489   3.955   7.202   7.764  0.3990  0.3767  0.0656
  886MOL0     C19490   4.077   7.265   7.824  0.0641 -0.7695 -0.1492
  886MOL0     C19491   4.207   7.258   7.744  0.8515  0.0555 -0.0601
  886MOL0     N19492   4.201   7.304   7.610  0.0965 -1.0271  0.2144
  886MOL0     C19493   4.148   7.239   7.502  0.0200  0.5523 -0.5550
  886MOL0     C19494   4.169   7.312   7.393  0.6482  0.5755  0.8386
  886MOL0     C19495   4.096   7.291   7.260  0.1245 -0.3528  0.2846
  886MOL0     C19496   4.188   7.207   7.178  1.1330  0.4278  0.0836
  886MOL0     C19497   4.115   7.181   7.044  0.2415  0.0753 -0.7027
  886MOL0     C19498   4.200   7.085   6.958 -0.3272 -0.3660  0.2529
  886MOL0     O19499   4.145   7.072   6.820 -0.6851  0.4061 -0.2668
  886MOL0     C19500   4.178   6.962   6.744 -0.0602  0.6925  0.0978
  886MOL0     C19501   4.139   6.963   6.612  0.8208 -0.1191 -0.8522
  886MOL0     C19502   4.143   6.840   6.533  0.3933 -0.2198 -0.7489
  886MOL0     C19503   4.197   6.723   6.592 -0.3810 -0.1494 -0.4914
  886MOL0     C19504   4.199   6.594   6.517 -0.1647 -0.5590  1.3066
  886MOL0     O19505   4.188   6.617   6.385 -0.0351  0.5927 -0.0636
  886MOL0     C19506   4.183   6.517   6.290 -0.1959 -0.5444  0.2673
  886MOL0     C19507   4.280   6.420   6.287  0.7387 -1.0054 -0.1977
  886MOL0     C19508   4.280   6.322   6.186 -0.2206  0.0287 -0.0759
  886MOL0     C19509   4.207   6.337   6.072  0.7663 -0.0543 -0.0720
  886MOL0     O19510   4.234   6.252   5.963 -0.9937 -0.0335 -0.6352
  886MOL0     C19511   4.258   6.115   5.983  0.0940  0.6323 -0.8073
  886MOL0     C19512   4.403   6.082   5.986 -1.0857  0.1561 -0.5642
  886MOL0     C19513   4.491   6.144   5.865  0.7164  0.5723 -0.0623
  886MOL0     C19514   4.448   6.068   5.734 -0.2733  0.5865 -0.4959
  886MOL0     C19515   4.533   6.106   5.616  0.1239  0.0812 -0.1733
  886MOL0     C19516   4.682   6.057   5.599 -0.1221  0.5635  0.5124
  886MOL0     C19517   4.738   6.115   5.472 -0.7566  0.0322  1.3377
  886MOL0     C19518   4.688   6.036   5.353 -0.0398 -0.0153  0.3408
  886MOL0    Cl19519   4.702   5.861   5.358  0.6807  0.7388  0.2923
  886MOL0     C19520   4.124   6.438   6.064  0.2022 -0.8521 -0.3602
  886MOL0     C19521   4.111   6.531   6.171  0.3850 -0.2473  0.1443
  886MOL0     O19522   4.201   6.485   6.572  0.3274 -0.5525 -0.2622
  886MOL0     C19523   4.252   6.728   6.717  0.3800 -0.2463 -0.7171
  886MOL0     C19524   4.227   6.845   6.791 -0.2602  1.0434 -0.7605
  886MOL0     N19525   4.258   7.410   7.432  0.0866  0.2176  1.0551
  886MOL0     N19526   4.267   7.412   7.563  1.1121  0.3689  0.1002
  886MOL0     C19527   3.568   6.741   7.783 -0.2408 -0.4901 -0.9503
  886MOL0     C19528   3.489   6.796   7.687  0.3294 -1.3999  1.4797
  886MOL0     C19529   3.286   7.182   7.517 -0.3095  0.1408  0.3384
  886MOL0     C19530   3.346   7.296   7.463  1.1339 -0.5402 -0.1365
  886MOL0     C19531   3.281   7.400   7.407 -0.4251  0.3888  1.3656
  886MOL0     C19532   3.140   7.396   7.391 -0.3202  1.7963  0.0604
  886MOL0     O19533   3.062   7.481   7.322  0.5764  0.1402  0.2659
  886MOL0     C19534   3.096   7.614   7.311  1.2927 -0.2125  0.2987
  886MOL0     C19535   3.006   7.681   7.212  0.1360  0.2476 -0.1256
  886MOL0     C19536   2.863   7.692   7.249  0.6405 -0.6000 -0.0483
  886MOL0     C19537   2.786   7.558   7.220 -0.6167  0.1844  0.6400
  886MOL0     C19538   2.812   7.489   7.092  0.0528  1.3261  0.2944
  886MOL0     C19539   2.856   7.446   6.986 -0.0148 -0.0411 -0.5131
  886MOL0     C19540   3.074   7.293   7.459  0.9107  0.7658 -1.1921
  886MOL0     C19541   3.147   7.193   7.520 -0.5317  0.1600 -0.4624
  886MOL0     C19542   3.057   7.118   7.617 -0.8934 -0.7129  0.5231
  886MOL0     H19543   3.257   6.942   7.896  0.1646  2.1735  0.4789
  886MOL0     H19544   3.388   6.804   8.057 -1.2502  0.2847 -0.1354
  886MOL0     H19545   3.779   6.607   8.067 -1.6662 -1.2195 -0.6754
  886MOL0     H19546   3.799   6.653   7.906 -0.2170 -1.4248  0.5995
  886MOL0     H19547   3.937   6.797   7.997 -1.0052 -3.3503  0.6522
  886MOL0     H19548   3.837   6.822   8.149  1.5444  2.2157  0.8649
  886MOL0     H19549   3.691   6.976   8.026 -0.8797 -2.4929  0.7403
  886MOL0     H19550   3.740   6.918   7.871  1.4093  1.1233 -0.9421
  886MOL0     H19551   3.913   7.077   8.063 -0.4677  1.8601 -0.0882
  886MOL0     H19552   3.980   7.010   7.917  2.2272  3.5687  1.1178
  886MOL0     H19553   3.758   7.134   7.805  0.6624 -1.7357 -0.4881
  886MOL0     H19554   3.818   7.257   7.917  2.5101  1.7502 -1.9182
  886MOL0     H19555   3.988   7.111   7.712  0.2615  1.0064 -1.1479
  886MOL0     H19556   3.916   7.270   7.688  0.0822 -0.6432 -0.7236
  886MOL0     H19557   4.101   7.225   7.923  0.5354 -0.0036  0.0555
  886MOL0     H19558   4.056   7.371   7.841 -0.3618 -1.2349  2.6981
  886MOL0     H19559   4.282   7.311   7.803 -1.0735  1.4713  1.2548
  886MOL0     H19560   4.237   7.153   7.732  1.0560  0.0756  0.2726
  886MOL0     H19561   4.079   7.157   7.517 -0.9604  1.2661 -1.0244
  886MOL0     H19562   3.996   7.246   7.269 -1.4960  1.7239 -4.1113
  886MOL0     H19563   4.087   7.395   7.227 -2.7422  0.1396  2.2159
  886MOL0     H19564   4.280   7.262   7.160  2.2322 -1.5495 -0.7254
  886MOL0     H19565   4.209   7.111   7.226  1.9939  0.3423 -0.4422
  886MOL0     H19566   4.117   7.272   6.984  3.1981  0.1347 -0.6483
  886MOL0     H19567   4.010   7.153   7.057 -0.8124  2.4257 -3.2434
  886MOL0     H19568   4.192   6.991   7.014  1.8021 -2.1603 -2.1918
  886MOL0     H19569   4.305   7.112   6.949  0.5714 -0.7519  6.1328
  886MOL0     H19570   4.131   7.059   6.562  2.7146  0.6403  0.2044
  886MOL0     H19571   4.112   6.849   6.430  1.2556  0.8285 -0.9285
  886MOL0     H19572   4.346   6.411   6.373 -0.1684 -2.2124  0.3892
  886MOL0     H19573   4.363   6.253   6.194 -1.3769 -1.3412  0.4517
  886MOL0     H19574   4.218   6.079   6.078  1.1930  4.4243  1.3071
  886MOL0     H19575   4.211   6.067   5.896 -1.0427  0.0615  0.1030
  886MOL0     H19576   4.462   6.087   6.078 -1.6818 -1.6612 -0.0512
  886MOL0     H19577   4.417   5.975   5.971 -2.5753 -0.1845  0.3508
  886MOL0     H19578   4.482   6.253   5.860  1.4381  0.8020  2.4579
  886MOL0     H19579   4.597   6.125   5.887  1.4268 -2.2907 -4.5748
  886MOL0     H19580   4.343   6.094   5.717 -0.1993  1.6821  0.5835
  886MOL0     H19581   4.457   5.960   5.749  0.1863  0.6814 -0.0345
  886MOL0     H19582   4.536   6.215   5.623 -1.9843  0.2993 -1.6395
  886MOL0     H19583   4.465   6.075   5.537 -1.0113 -0.1099  0.8481
  886MOL0     H19584   4.745   6.091   5.682 -1.8470  1.7005  1.4181
  886MOL0     H19585   4.684   5.947   5.603  0.3023  0.5573  0.2122
  886MOL0     H19586   4.847   6.115   5.465 -0.7766 -1.2595  0.6627
  886MOL0     H19587   4.715   6.221   5.462 -1.5537 -0.1112  1.5601
  886MOL0     H19588   4.589   6.076   5.328  0.3809  1.4633  0.9052
  886MOL0     H19589   4.740   6.079   5.267 -1.2044  0.6222 -0.0674
  886MOL0     H19590   4.075   6.452   5.968  1.4217 -3.3365 -1.4400
  886MOL0     H19591   4.055   6.623   6.165  0.2023 -0.4019 -0.7264
  886MOL0     H19592   4.292   6.637   6.760  1.4879  1.2526  1.6061
  886MOL0     H19593   4.236   6.831   6.898 -1.9541 -6.3977 -1.0164
  886MOL0     H19594   3.663   6.699   7.752  0.7640 -0.9931  2.3916
  886MOL0     H19595   3.518   6.792   7.582 -2.4924  1.5522  0.4138
  886MOL0     H19596   3.454   7.299   7.460  1.1782 -1.4089  0.2343
  886MOL0     H19597   3.332   7.487   7.366  0.7840 -0.4966  0.9262
  886MOL0     H19598   3.198   7.631   7.276  0.8779 -0.9262 -1.3182
  886MOL0     H19599   3.087   7.664   7.408  1.4165  0.9194 -0.2499
  886MOL0     H19600   3.024   7.638   7.113 -2.5677  0.7134 -0.8894
  886MOL0     H19601   3.041   7.785   7.211 -2.3657  1.1549  0.7510
  886MOL0     H19602   2.821   7.777   7.194  0.2498  0.8693  2.3835
  886MOL0     H19603   2.853   7.720   7.354 -2.0226  2.1757 -0.9021
  886MOL0     H19604   2.805   7.492   7.304  0.5967 -1.0049 -0.5297
  886MOL0     H19605   2.679   7.583   7.217 -1.0199 -1.3934  1.1194
  886MOL0     H19606   2.904   7.406   6.899  2.3162  1.7519 -0.1435
  886MOL0     H19607   2.965   7.300   7.456  0.7626  2.6375  2.4342
  886MOL0     H19608   3.031   7.017   7.584 -2.3109 -0.3577  0.5002
  886MOL0     H19609   3.116   7.096   7.707  0.7043 -1.8462 -0.7263
  886MOL0     H19610   2.968   7.171   7.651 -1.2230 -1.5172  0.9406
  887MOL0     O19611   9.031   5.410   2.553  0.0613  0.1558 -0.4053
  887MOL0     C19612   9.035   5.331   2.650  0.5767  1.0619  0.3903
  887MOL0     O19613   9.106   5.354   2.767 -0.3263  1.1865  0.1819
  887MOL0     C19614   9.158   5.465   2.805 -0.1906 -0.7536  0.2018
  887MOL0     C19615   9.086   5.588   2.800 -0.0245 -0.3902  0.5868
  887MOL0     C19616   9.138   5.701   2.847  0.4706  0.1618 -0.3588
  887MOL0     C19617   9.273   5.702   2.897  1.0918 -0.4098 -0.9747
  887MOL0     O19618   9.338   5.815   2.935 -0.6588  0.5232 -0.5691
  887MOL0     C19619   9.262   5.936   2.943 -0.4519  1.1607  0.0997
  887MOL0     C19620   9.355   6.047   3.003  0.4903 -0.0230 -0.2386
  887MOL0     C19621   9.466   6.086   2.896 -0.3026  0.5915 -0.0129
  887MOL0     C19622   9.578   6.186   2.952  0.4461  0.2223  0.2994
  887MOL0     C19623   9.652   6.255   2.842 -0.3033 -0.2008  0.0644
  887MOL0     C19624   9.742   6.155   2.755  0.6867 -0.8134 -0.3064
  887MOL0     C19625   9.846   6.218   2.661 -0.1939  0.2712  0.0224
  887MOL0     C19626   9.883   6.127   2.551 -0.3396  1.4519  0.7349
  887MOL0     N19627   9.764   6.100   2.462 -0.2112  0.7928  0.4934
  887MOL0     C19628   9.680   6.199   2.422  0.9199  0.2178  0.5250
  887MOL0     C19629   9.566   6.136   2.366 -0.0896 -0.0060  1.1730
  887MOL0     C19630   9.433   6.193   2.302 -0.2212 -0.3175 -0.4276
  887MOL0     C19631   9.443   6.304   2.199  0.8928  0.5887  0.2523
  887MOL0     C19632   9.476   6.267   2.058  0.9090  0.2086 -0.2633
  887MOL0     C19633   9.603   6.193   2.049 -0.9138 -0.2534  0.1600
  887MOL0     O19634   9.618   6.143   1.915 -0.3010 -0.4234 -0.4088
  887MOL0     C19635   9.659   6.229   1.818 -0.6709 -0.6953  0.9285
  887MOL0     C19636   9.724   6.355   1.823 -0.1665 -0.3981  0.3529
  887MOL0     C19637   9.769   6.417   1.709  0.2424  0.0559 -0.5272
  887MOL0     C19638   9.725   6.374   1.581  0.1205 -0.3796  0.2449
  887MOL0     C19639   9.753   6.447   1.459  0.2733  0.4609 -0.1931
  887MOL0     O19640   9.701   6.395   1.336 -0.1155  0.6213  0.5585
  887MOL0     C19641   9.738   6.472   1.225 -0.0571  0.4392  0.0910
  887MOL0     C19642   9.826   6.407   1.137 -0.8748 -0.1090  0.0620
  887MOL0     C19643   9.869   6.471   1.017  0.0814  0.1018 -0.2410
  887MOL0     C19644   9.823   6.602   0.990  0.2046  0.6911  0.1534
  887MOL0     O19645   9.852   6.646   0.865 -1.2052 -0.2136 -0.9515
  887MOL0     C19646   9.803   6.776   0.823 -0.5202  0.3230  0.2871
  887MOL0     C19647   9.661   6.760   0.776 -0.1871 -0.0861 -1.1557
  887MOL0     C19648   9.570   6.872   0.788 -0.1568 -0.4818  0.5126
  887MOL0     C19649   9.621   7.000   0.705 -0.4792  1.0478 -0.0123
  887MOL0     C19650   9.509   7.096   0.698 -0.2744 -0.9083 -0.4906
  887MOL0     C19651   9.566   7.227   0.650  0.1666 -0.4801  1.3827
  887MOL0     C19652   9.477   7.349   0.673  1.0179 -0.1727 -0.5566
  887MOL0     C19653   9.337   7.332   0.610 -0.5531 -0.4718 -0.2324
  887MOL0    Cl19654   9.257   7.491   0.580 -0.0708  0.3314 -0.0809
  887MOL0     C19655   9.737   6.667   1.081  0.7539  0.4155 -0.3144
  887MOL0     C19656   9.690   6.603   1.196  0.7462 -0.0879  0.2028
  887MOL0     O19657   9.823   6.548   1.472  0.4154 -0.3423 -1.1546
  887MOL0     C19658   9.661   6.249   1.576  0.8366  0.1819 -0.0124
  887MOL0     C19659   9.629   6.187   1.687 -0.2781 -0.5147 -0.1364
  887MOL0     N19660   9.592   6.002   2.396  0.6314 -0.0680 -0.1048
  887MOL0     N19661   9.707   5.976   2.438 -0.5394  0.3594  0.3264
  887MOL0     C19662   9.341   5.581   2.905  0.3047  0.0667  0.8226
  887MOL0     C19663   9.290   5.466   2.850  0.4245  0.0356  1.0923
  887MOL0     C19664   8.966   5.200   2.641 -0.4843 -0.0304  0.8215
  887MOL0     C19665   8.948   5.122   2.761 -0.4744 -0.9027 -0.2078
  887MOL0     C19666   8.866   5.010   2.773  0.3981 -0.4683  0.0674
  887MOL0     C19667   8.790   4.970   2.660 -0.0692 -0.9196 -0.0498
  887MOL0     O19668   8.701   4.874   2.650 -0.2378 -0.0539 -0.2492
  887MOL0     C19669   8.678   4.780   2.752 -0.6220  0.3899  0.3438
  887MOL0     C19670   8.604   4.840   2.863 -0.2018 -1.2182 -0.0459
  887MOL0     C19671   8.443   4.872   2.834 -0.9185  1.8524  1.0019
  887MOL0     C19672   8.394   4.954   2.953 -0.1836  0.8035  0.9198
  887MOL0     C19673   8.252   5.001   2.944  0.1161 -0.0517 -0.5524
  887MOL0     C19674   8.135   5.034   2.941  0.1137 -0.1199 -0.0963
  887MOL0     C19675   8.809   5.047   2.537 -0.2885  0.2812 -0.7467
  887MOL0     C19676   8.893   5.159   2.525  0.0063 -0.6622  0.5438
  887MOL0     C19677   8.896   5.226   2.391 -0.9907 -0.3061  1.1314
  887MOL0     H19678   8.984   5.587   2.765 -0.3217 -7.7120  0.1185
  887MOL0     H19679   9.065   5.781   2.848 -0.0808 -0.3269 -0.9277
  887MOL0     H19680   9.237   5.977   2.845  1.2362  0.9386 -0.4582
  887MOL0     H19681   9.179   5.914   3.010  1.3144  1.5513  2.5607
  887MOL0     H19682   9.390   6.024   3.104 -2.3563  0.3754  0.9214
  887MOL0     H19683   9.302   6.141   3.019 -0.4242 -0.3169 -1.4163
  887MOL0     H19684   9.413   6.120   2.806 -2.8933 -1.3249  0.6886
  887MOL0     H19685   9.507   5.994   2.852  2.3190  0.5942  2.1423
  887MOL0     H19686   9.543   6.263   3.021 -1.2633  0.9274 -1.2724
  887MOL0     H19687   9.646   6.130   3.017  3.3667  0.5049 -2.2379
  887MOL0     H19688   9.594   6.328   2.786  0.8773  2.0932  1.6775
  887MOL0     H19689   9.728   6.319   2.887 -0.4763 -1.0553  1.6432
  887MOL0     H19690   9.783   6.076   2.820  0.7471  0.9832  1.9409
  887MOL0     H19691   9.660   6.115   2.695 -0.8711 -2.2791  2.5731
  887MOL0     H19692   9.935   6.239   2.721  1.5061 -2.0303 -1.4967
  887MOL0     H19693   9.810   6.307   2.610 -2.0700 -1.5304 -2.0101
  887MOL0     H19694   9.969   6.167   2.497 -0.9641  2.9189  0.7687
  887MOL0     H19695   9.937   6.039   2.587  1.5231  1.9612 -0.6598
  887MOL0     H19696   9.687   6.307   2.428 -0.6998  0.4373 -0.8408
  887MOL0     H19697   9.370   6.114   2.260 -1.1287 -0.4031  0.9879
  887MOL0     H19698   9.387   6.235   2.392  0.2145 -2.7471  1.0226
  887MOL0     H19699   9.343   6.349   2.199  0.3476 -0.5713 -0.3829
  887MOL0     H19700   9.518   6.373   2.237  2.1710 -0.3123 -0.5757
  887MOL0     H19701   9.483   6.354   1.993 -0.5816  0.1411 -0.5466
  887MOL0     H19702   9.394   6.213   2.010  1.4815  1.6365 -3.0435
  887MOL0     H19703   9.598   6.113   2.124 -0.7322  1.5699  2.2525
  887MOL0     H19704   9.685   6.253   2.091  0.1253 -3.2281  2.7964
  887MOL0     H19705   9.775   6.386   1.914  1.9506 -0.2011 -0.8346
  887MOL0     H19706   9.827   6.508   1.720 -2.8058  2.3920 -2.2460
  887MOL0     H19707   9.855   6.302   1.144  1.2770  0.2048 -2.5398
  887MOL0     H19708   9.942   6.417   0.956 -1.8191 -0.9301 -1.7316
  887MOL0     H19709   9.823   6.864   0.886  0.9963 -1.1405  1.9407
  887MOL0     H19710   9.872   6.806   0.743  0.6474 -2.4256  0.1452
  887MOL0     H19711   9.654   6.710   0.679  0.5770  0.5438 -1.5504
  887MOL0     H19712   9.621   6.687   0.847 -0.7341  1.4667  0.1855
  887MOL0     H19713   9.471   6.835   0.761  0.3568 -0.9635 -0.7902
  887MOL0     H19714   9.570   6.897   0.894  1.8378 -0.6611  0.5852
  887MOL0     H19715   9.647   6.961   0.606 -1.7362 -4.0881  1.4015
  887MOL0     H19716   9.707   7.041   0.760 -1.9860  0.6888  2.8014
  887MOL0     H19717   9.463   7.105   0.797 -1.1207  2.1136 -1.0421
  887MOL0     H19718   9.426   7.054   0.639  0.8238 -3.4480 -0.3491
  887MOL0     H19719   9.661   7.256   0.696  1.6254  0.2073 -1.8489
  887MOL0     H19720   9.585   7.222   0.543  0.8455 -2.2580  1.5648
  887MOL0     H19721   9.536   7.435   0.638  2.1979  0.0908  1.8830
  887MOL0     H19722   9.482   7.352   0.782 -1.6232 -1.1532 -0.3209
  887MOL0     H19723   9.354   7.291   0.510  2.3767  0.9598 -0.4105
  887MOL0     H19724   9.268   7.275   0.673 -2.1089 -0.3756 -1.7812
  887MOL0     H19725   9.698   6.764   1.050  0.0363 -0.2377 -1.5567
  887MOL0     H19726   9.617   6.657   1.256 -2.8870 -2.3022 -1.8181
  887MOL0     H19727   9.625   6.199   1.486  3.0100  0.1408 -0.9312
  887MOL0     H19728   9.570   6.097   1.685  0.2544 -0.8492 -1.2043
  887MOL0     H19729   9.432   5.576   2.964  0.0202 -0.9990  1.1933
  887MOL0     H19730   9.336   5.369   2.864  0.3485 -0.2516 -0.5090
  887MOL0     H19731   8.997   5.145   2.855 -0.6447  1.2920 -0.6029
  887MOL0     H19732   8.862   4.960   2.869  1.2239  0.0629  0.3830
  887MOL0     H19733   8.768   4.729   2.788  1.0227  0.3059 -3.3435
  887MOL0     H19734   8.622   4.698   2.706  1.9279 -0.2310 -1.9648
  887MOL0     H19735   8.649   4.935   2.891  0.5629 -1.5219 -0.2347
  887MOL0     H19736   8.615   4.780   2.953  0.9007  0.1730  0.7844
  887MOL0     H19737   8.389   4.777   2.828  1.4176  0.5449 -1.7297
  887MOL0     H19738   8.436   4.929   2.741  0.0092 -0.6078 -0.6644
  887MOL0     H19739   8.407   4.884   3.036  1.5133 -0.3366 -0.2485
  887MOL0     H19740   8.455   5.043   2.971 -0.6896  1.7621 -1.7004
  887MOL0     H19741   8.032   5.060   2.929  0.7769  3.2013  0.2589
  887MOL0     H19742   8.748   5.023   2.450 -2.9252 -0.0085  1.0597
  887MOL0     H19743   9.000   5.246   2.366 -0.9080  3.1736  3.5386
  887MOL0     H19744   8.842   5.169   2.314  0.0174  0.0564  0.1216
  887MOL0     H19745   8.847   5.324   2.396 -4.4673 -1.8827  1.1289
  888MOL0     O19746   9.382   2.954  10.091  0.1189 -0.1897  0.7685
  888MOL0     C19747   9.284   3.002  10.034 -1.5147 -0.8547 -0.0327
  888MOL0     O19748   9.288   3.126   9.962 -0.4836  0.3559  0.8732
  888MOL0     C19749   9.386   3.218   9.967  0.7472  0.3488  1.0575
  888MOL0     C19750   9.480   3.229  10.074 -0.2330 -0.7391  1.3754
  888MOL0     C19751   9.574   3.325  10.058  0.4108  0.2001  0.0532
  888MOL0     C19752   9.568   3.423   9.971 -0.2515  0.4093 -0.0202
  888MOL0     O19753   9.673   3.512   9.971 -0.2604  0.6096 -0.3315
  888MOL0     C19754   9.684   3.624   9.877 -0.6262  0.5443  0.7405
  888MOL0     C19755   9.613   3.745   9.937  0.0239  0.1995  0.1620
  888MOL0     C19756   9.625   3.771  10.092  0.8878 -0.6013 -0.5347
  888MOL0     C19757   9.754   3.733  10.161  0.3153 -0.3547 -0.6631
  888MOL0     C19758   9.789   3.830  10.274  0.4581 -0.2286 -0.9551
  888MOL0     C19759   9.820   3.969  10.221  0.1060 -0.4245 -0.3022
  888MOL0     C19760   9.908   4.041  10.327 -0.1017 -0.0769 -0.0224
  888MOL0     C19761   9.816   4.092  10.437  0.1165 -1.3810 -0.2785
  888MOL0     N19762   9.896   4.129  10.561  0.2598  0.1478  0.2495
  888MOL0     C19763   9.922   4.047  10.663  0.2026  0.0639  0.8198
  888MOL0     C19764  10.038   4.091  10.721 -0.2241 -0.8886  0.4083
  888MOL0     C19765  10.117   4.052  10.845 -0.7528 -0.5142  0.8972
  888MOL0     C19766  10.078   4.164  10.949 -0.8014  0.1813  1.5640
  888MOL0     C19767  10.135   4.143  11.093 -0.5562  1.1848 -0.1200
  888MOL0     C19768  10.097   4.008  11.151  0.0447 -0.5315  0.2129
  888MOL0     O19769   9.948   4.018  11.150  0.2443 -0.3692  0.5106
  888MOL0     C19770   9.873   3.908  11.182  0.1977  0.2245  0.2799
  888MOL0     C19771   9.909   3.806  11.272 -0.3266  0.1408  0.0183
  888MOL0     C19772   9.823   3.703  11.298  0.3296  0.3429  1.1201
  888MOL0     C19773   9.694   3.693  11.236  0.4877  0.8085 -0.0037
  888MOL0     C19774   9.600   3.574  11.252  0.7145 -0.8153  0.8317
  888MOL0     O19775   9.642   3.469  11.329  0.5047  0.0433  0.3517
  888MOL0     C19776   9.577   3.347  11.315 -0.5148 -0.2038  0.1362
  888MOL0     C19777   9.659   3.238  11.334 -0.8059 -0.9835  0.9736
  888MOL0     C19778   9.605   3.116  11.344  0.7187 -0.3732 -0.4488
  888MOL0     C19779   9.474   3.094  11.344  0.0953  0.1874  0.8320
  888MOL0     O19780   9.446   2.963  11.364 -0.2493  0.6694  0.6316
  888MOL0     C19781   9.310   2.928  11.367 -0.7322  0.2506  0.4260
  888MOL0     C19782   9.291   2.780  11.364  0.7238 -0.0654 -0.8824
  888MOL0     C19783   9.314   2.715  11.499  0.5822  0.1575  0.8351
  888MOL0     C19784   9.326   2.563  11.480  0.4603 -0.5999 -0.9916
  888MOL0     C19785   9.296   2.464  11.598  0.4570  0.3306 -0.0138
  888MOL0     C19786   9.328   2.320  11.555 -0.2091  0.1567 -0.6105
  888MOL0     C19787   9.288   2.208  11.663  0.4533  0.6058 -0.0665
  888MOL0     C19788   9.361   2.214  11.799 -0.2760 -0.0006 -1.1493
  888MOL0    Cl19789   9.294   2.086  11.898  0.2969 -0.1808  0.0752
  888MOL0     C19790   9.384   3.203  11.317 -0.6662 -0.7996  0.2497
  888MOL0     C19791   9.438   3.330  11.298 -0.2242  0.4264 -0.3729
  888MOL0     O19792   9.492   3.578  11.189 -0.2660  0.2691  0.3975
  888MOL0     C19793   9.657   3.798  11.155 -0.3778  0.2300 -0.4850
  888MOL0     C19794   9.741   3.904  11.137  0.4223  0.2816 -0.5364
  888MOL0     N19795  10.073   4.209  10.646  0.2531 -0.2690  0.3719
  888MOL0     N19796   9.991   4.229  10.554  0.3778 -0.4910  0.6772
  888MOL0     C19797   9.466   3.425   9.872  0.6159  0.4542  1.3313
  888MOL0     C19798   9.379   3.324   9.872 -0.1232 -0.1398 -0.0257
  888MOL0     C19799   9.155   2.927  10.051 -0.4069  0.5679 -0.2007
  888MOL0     C19800   9.044   3.001  10.004 -0.8521  0.3815 -0.3530
  888MOL0     C19801   8.918   2.942  10.022  0.5556 -0.3855 -0.0151
  888MOL0     C19802   8.896   2.824  10.085  0.0547  0.9203  0.2379
  888MOL0     O19803   8.766   2.774  10.091 -0.7389 -0.2109 -0.0470
  888MOL0     C19804   8.708   2.723  10.208 -0.2567 -0.3975 -0.5995
  888MOL0     C19805   8.693   2.833  10.319 -0.4653  0.0776 -0.6766
  888MOL0     C19806   8.817   2.852  10.416  0.3069  0.1959 -0.8274
  888MOL0     C19807   8.792   2.816  10.562 -0.4138 -0.0138 -0.4731
  888MOL0     C19808   8.775   2.926  10.642 -0.9303 -0.9505  0.2152
  888MOL0     C19809   8.755   3.025  10.708  0.0234 -0.4142 -0.0195
  888MOL0     C19810   9.006   2.747  10.113 -0.5451 -0.1890 -0.4544
  888MOL0     C19811   9.139   2.793  10.106 -0.4651 -0.4434  0.3574
  888MOL0     C19812   9.245   2.687  10.117  0.8088  1.0137  0.1419
  888MOL0     H19813   9.492   3.160  10.157 -1.5587 -3.9304 -0.9119
  888MOL0     H19814   9.662   3.328  10.122 -0.0124  0.2523  0.6288
  888MOL0     H19815   9.789   3.644   9.853 -0.2257 -1.8432  0.2435
  888MOL0     H19816   9.634   3.605   9.782  0.8796  0.1179  0.0069
  888MOL0     H19817   9.512   3.720   9.905 -0.4686 -0.2806  1.9925
  888MOL0     H19818   9.639   3.839   9.887 -0.4784 -0.3998 -1.2680
  888MOL0     H19819   9.541   3.728  10.147  1.1842  0.1435  0.5382
  888MOL0     H19820   9.591   3.875  10.100 -0.6875 -1.0470 -0.9846
  888MOL0     H19821   9.739   3.629  10.190 -3.5472  0.9427  3.0317
  888MOL0     H19822   9.832   3.735  10.084  0.7666 -1.5292 -0.2559
  888MOL0     H19823   9.700   3.836  10.338  0.0215  2.3239 -1.6824
  888MOL0     H19824   9.873   3.789  10.330 -0.5726  0.2819  1.0572
  888MOL0     H19825   9.869   3.963  10.124 -2.7915 -3.6333 -1.7835
  888MOL0     H19826   9.728   4.025  10.199 -0.0141 -0.4218  0.2034
  888MOL0     H19827   9.962   4.124  10.280  1.3445 -0.5728  0.6969
  888MOL0     H19828   9.987   3.975  10.364 -1.2345 -1.1718  0.4988
  888MOL0     H19829   9.784   4.191  10.403  3.1537 -0.2124 -0.0750
  888MOL0     H19830   9.733   4.021  10.449 -0.6156 -0.1563  3.1185
  888MOL0     H19831   9.866   3.964  10.705  0.7586 -0.1832  1.0820
  888MOL0     H19832  10.082   3.950  10.866 -4.2775  0.8249  2.1697
  888MOL0     H19833  10.225   4.042  10.831 -0.9412 -4.3232  1.0090
  888MOL0     H19834  10.114   4.261  10.916 -2.9963  1.4217  2.5756
  888MOL0     H19835   9.969   4.169  10.958 -1.0653 -0.7351 -0.5262
  888MOL0     H19836  10.102   4.217  11.167  1.1927 -1.5458  3.6830
  888MOL0     H19837  10.244   4.149  11.084 -0.5527  0.2287 -0.8097
  888MOL0     H19838  10.143   3.994  11.249 -0.1285 -0.2562  0.3347
  888MOL0     H19839  10.128   3.922  11.092 -1.2468 -2.3213  2.0173
  888MOL0     H19840  10.007   3.803  11.319 -0.8508  1.8184  1.3046
  888MOL0     H19841   9.841   3.612  11.355 -0.0529 -1.0156 -0.8223
  888MOL0     H19842   9.764   3.256  11.355  0.1301 -2.7601 -1.7619
  888MOL0     H19843   9.657   3.026  11.375 -1.0538 -2.0737 -2.1168
  888MOL0     H19844   9.260   2.987  11.444  0.3817  0.5956  0.9072
  888MOL0     H19845   9.263   2.953  11.272 -1.5996 -0.5527  0.6247
  888MOL0     H19846   9.191   2.752  11.329  0.7510  0.3927 -1.3386
  888MOL0     H19847   9.371   2.738  11.302  1.3371 -1.2448  0.6279
  888MOL0     H19848   9.400   2.756  11.554  0.7467 -0.2751  0.9070
  888MOL0     H19849   9.217   2.731  11.546  0.0394 -1.0345  0.1533
  888MOL0     H19850   9.426   2.541  11.442  1.0014 -1.4137  0.8568
  888MOL0     H19851   9.252   2.538  11.402  0.7363 -1.1193 -1.0849
  888MOL0     H19852   9.188   2.476  11.616  0.2794 -0.3915 -0.5337
  888MOL0     H19853   9.343   2.496  11.691  1.7038  1.4591 -0.9886
  888MOL0     H19854   9.273   2.299  11.463 -0.2216  3.0718 -1.3685
  888MOL0     H19855   9.435   2.317  11.534 -0.2196  0.2087 -0.6713
  888MOL0     H19856   9.322   2.113  11.621  0.5801  0.7811 -0.3673
  888MOL0     H19857   9.181   2.217  11.682  0.7168 -0.8983  2.6542
  888MOL0     H19858   9.468   2.192  11.793 -0.0477 -0.8477  3.0689
  888MOL0     H19859   9.363   2.309  11.853  0.0027 -1.8391  2.3753
  888MOL0     H19860   9.276   3.189  11.308 -1.3589  2.7829  1.1158
  888MOL0     H19861   9.368   3.413  11.305 -1.8273 -0.6022 -2.7992
  888MOL0     H19862   9.563   3.797  11.100  0.4415  1.8221 -2.0440
  888MOL0     H19863   9.709   3.987  11.076 -0.3944  0.3810  0.0078
  888MOL0     H19864   9.463   3.494   9.789  0.9810 -1.2811 -0.1752
  888MOL0     H19865   9.308   3.318   9.791 -0.5764  1.2946  0.2379
  888MOL0     H19866   9.044   3.099   9.957 -4.1602  1.8389  2.2637
  888MOL0     H19867   8.828   2.991   9.985  1.2495  1.8028  1.0215
  888MOL0     H19868   8.766   2.636  10.240  2.5173  1.2061 -0.9240
  888MOL0     H19869   8.605   2.699  10.181 -1.9285  5.2443 -0.3929
  888MOL0     H19870   8.606   2.802  10.378 -0.1306  0.9287  0.2895
  888MOL0     H19871   8.655   2.926  10.273  0.8268  0.0526 -1.8504
  888MOL0     H19872   8.860   2.952  10.410  0.2355  0.3009  0.2360
  888MOL0     H19873   8.901   2.795  10.375  1.6744  2.1613 -0.9140
  888MOL0     H19874   8.705   2.752  10.575  0.8982 -2.0961 -1.4772
  888MOL0     H19875   8.876   2.764  10.609 -2.0643 -3.8789 -1.4086
  888MOL0     H19876   8.735   3.121  10.752  0.4731 -1.1042  1.8072
  888MOL0     H19877   8.980   2.644  10.138 -1.5858 -0.1156 -1.1843
  888MOL0     H19878   9.271   2.679  10.223 -2.2766  0.9111  0.9770
  888MOL0     H19879   9.209   2.593  10.075  0.7772  0.7536  0.7384
  888MOL0     H19880   9.335   2.711  10.059 -0.0070  0.6626 -1.3118
  889MOL0     O19881   1.382   1.739   0.030 -0.2784 -0.3736 -0.4385
  889MOL0     C19882   1.455   1.755   0.125  0.6829  0.3152  0.3144
  889MOL0     O19883   1.588   1.728   0.131 -0.9955 -0.5399  0.0879
  889MOL0     C19884   1.661   1.668   0.028  0.0770 -0.0563 -0.9809
  889MOL0     C19885   1.791   1.706   0.005 -0.1659  0.4889  0.3819
  889MOL0     C19886   1.870   1.644  -0.096  0.2378 -0.8159  0.4922
  889MOL0     C19887   1.812   1.547  -0.181  0.0548 -0.1774 -0.6587
  889MOL0     O19888   1.890   1.508  -0.287 -0.1235 -0.0109  0.4217
  889MOL0     C19889   1.821   1.492  -0.407  0.7692  0.3940  0.2425
  889MOL0     C19890   1.930   1.481  -0.514  0.6304 -0.1160 -0.5586
  889MOL0     C19891   1.986   1.339  -0.520 -0.3804  0.4767  0.3070
  889MOL0     C19892   2.090   1.325  -0.641 -0.0725 -0.9845 -0.1935
  889MOL0     C19893   2.157   1.177  -0.662  0.3389  0.0387  0.0806
  889MOL0     C19894   2.090   1.051  -0.602 -0.7325  0.0506  0.1455
  889MOL0     C19895   1.980   0.991  -0.689 -0.6045 -0.6189 -0.0403
  889MOL0     C19896   2.041   0.908  -0.804  0.3049 -0.8114  0.5200
  889MOL0     N19897   1.963   0.806  -0.870  0.4239 -0.1211  0.2217
  889MOL0     C19898   1.854   0.837  -0.946  0.9261 -0.6107 -0.5908
  889MOL0     C19899   1.823   0.720  -1.007  0.2984  0.3472 -0.5434
  889MOL0     C19900   1.710   0.685  -1.102 -0.0693 -0.0910 -0.1054
  889MOL0     C19901   1.605   0.596  -1.034 -0.0056 -0.6245 -0.7915
  889MOL0     C19902   1.536   0.643  -0.903  0.4140 -0.1960 -0.5585
  889MOL0     C19903   1.460   0.773  -0.920  0.1149  0.3207  0.1596
  889MOL0     O19904   1.432   0.828  -0.788 -0.4458  0.7684  0.2057
  889MOL0     C19905   1.355   0.939  -0.791  1.2243  0.3347 -0.1408
  889MOL0     C19906   1.303   0.975  -0.669  0.1162 -1.1180 -0.9823
  889MOL0     C19907   1.223   1.088  -0.648  0.2287 -0.3857 -0.4056
  889MOL0     C19908   1.184   1.168  -0.759 -0.1217  0.6709 -0.1839
  889MOL0     C19909   1.097   1.285  -0.735 -0.7951 -0.5457  0.4275
  889MOL0     O19910   1.094   1.323  -0.600 -0.6064 -0.4241 -0.0925
  889MOL0     C19911   0.996   1.390  -0.541 -0.0731 -0.5492  0.2782
  889MOL0     C19912   1.010   1.524  -0.520  1.0639 -0.8930  0.4581
  889MOL0     C19913   0.916   1.609  -0.458 -0.0972  0.1617 -1.3706
  889MOL0     C19914   0.793   1.544  -0.413  0.2260 -0.8058  1.2116
  889MOL0     O19915   0.689   1.618  -0.363 -0.2538 -0.7023 -0.0536
  889MOL0     C19916   0.716   1.689  -0.241  0.8683  0.2601 -0.7937
  889MOL0     C19917   0.674   1.836  -0.271 -0.3415 -0.4476 -0.3179
  889MOL0     C19918   0.514   1.844  -0.253  0.9050 -0.1552  0.0270
  889MOL0     C19919   0.485   1.870  -0.113  0.6834 -0.2171 -0.3220
  889MOL0     C19920   0.336   1.878  -0.077 -0.5409  0.2547  0.4214
  889MOL0     C19921   0.315   1.932   0.070  0.5173 -0.2223 -0.0538
  889MOL0     C19922   0.166   1.897   0.120 -0.2558 -0.3109  0.7890
  889MOL0     C19923   0.124   1.952   0.247  0.0699  1.0949 -0.6204
  889MOL0    Cl19924   0.221   1.892   0.385 -0.0201  0.1021  0.2578
  889MOL0     C19925   0.779   1.413  -0.438 -0.1228  0.4898 -0.1376
  889MOL0     C19926   0.875   1.331  -0.502 -0.4137  0.0745 -0.3108
  889MOL0     O19927   1.047   1.349  -0.830 -0.0120 -0.1382 -0.5451
  889MOL0     C19928   1.228   1.121  -0.889 -0.1638  1.2384 -0.0595
  889MOL0     C19929   1.315   1.012  -0.897 -0.4013 -0.1123  0.8029
  889MOL0     N19930   1.912   0.617  -0.974 -0.7161 -0.0496 -0.9616
  889MOL0     N19931   2.000   0.677  -0.895  0.8074  0.6233  0.8037
  889MOL0     C19932   1.683   1.505  -0.150  0.8945 -0.4275  0.6377
  889MOL0     C19933   1.610   1.560  -0.042  0.0789  0.6260 -0.6693
  889MOL0     C19934   1.395   1.804   0.248 -0.1416  0.1395 -0.5255
  889MOL0     C19935   1.484   1.881   0.329 -0.3498  1.1638  0.1218
  889MOL0     C19936   1.444   1.923   0.457 -0.2375  0.0384  1.1527
  889MOL0     C19937   1.320   1.891   0.502  0.0726  0.0213  0.1219
  889MOL0     O19938   1.291   1.936   0.624 -0.3868 -0.5838 -0.3291
  889MOL0     C19939   1.187   1.879   0.703  0.7463  1.3352 -0.2969
  889MOL0     C19940   1.209   1.914   0.851 -0.5661  0.5665 -0.1798
  889MOL0     C19941   1.136   2.039   0.878  0.6734 -1.3871 -0.5191
  889MOL0     C19942   0.983   2.018   0.908  0.5148 -0.1960 -0.1583
  889MOL0     C19943   0.915   2.121   0.818  0.5480  0.3425  0.3959
  889MOL0     C19944   0.855   2.192   0.745 -0.3683  0.8940  0.0971
  889MOL0     C19945   1.224   1.817   0.429  0.5003  0.3131  0.2612
  889MOL0     C19946   1.268   1.773   0.300 -0.0693 -0.6612 -0.6841
  889MOL0     C19947   1.184   1.687   0.217  0.8946 -0.0579 -0.1753
  889MOL0     H19948   1.827   1.792   0.062 -2.1937  1.1094  0.8160
  889MOL0     H19949   1.966   1.692  -0.114 -0.0556 -0.1164  0.7889
  889MOL0     H19950   1.756   1.404  -0.396 -1.2778  1.9887  1.9383
  889MOL0     H19951   1.760   1.580  -0.432 -1.2259 -1.2913 -1.2484
  889MOL0     H19952   2.011   1.547  -0.482  0.3157 -0.7104  1.6244
  889MOL0     H19953   1.890   1.511  -0.611  0.4673  5.1454  0.7948
  889MOL0     H19954   1.917   1.256  -0.533 -1.4680  1.0797  1.9214
  889MOL0     H19955   2.032   1.326  -0.422 -0.6192  1.3181  0.5379
  889MOL0     H19956   2.038   1.330  -0.737  1.7075 -2.5392 -1.3282
  889MOL0     H19957   2.171   1.398  -0.644  0.8303 -1.9388  0.1283
  889MOL0     H19958   2.177   1.156  -0.768  1.0770  1.1988 -0.0400
  889MOL0     H19959   2.253   1.198  -0.613 -0.2317  2.8875  0.1679
  889MOL0     H19960   2.167   0.976  -0.586 -0.8716 -0.1091  0.0735
  889MOL0     H19961   2.056   1.079  -0.502  0.0510  1.6308 -0.0075
  889MOL0     H19962   1.935   1.076  -0.741 -0.3293  0.5440  1.5478
  889MOL0     H19963   1.914   0.928  -0.628  0.6164 -1.9053  0.0084
  889MOL0     H19964   2.074   0.976  -0.883  0.2937  0.9572  1.9798
  889MOL0     H19965   2.135   0.869  -0.762  1.7695  1.4847 -0.3860
  889MOL0     H19966   1.790   0.924  -0.950  2.6596  0.7080 -0.8034
  889MOL0     H19967   1.655   0.778  -1.117  0.4099  0.4143  1.1206
  889MOL0     H19968   1.752   0.643  -1.194  1.5334 -2.9846  1.7618
  889MOL0     H19969   1.534   0.564  -1.111 -0.8984 -3.2556  0.9702
  889MOL0     H19970   1.675   0.514  -1.018  1.3950  0.4635 -1.1345
  889MOL0     H19971   1.607   0.661  -0.821 -0.9394 -2.4699  1.2236
  889MOL0     H19972   1.466   0.568  -0.865 -3.7611  3.9253  0.8767
  889MOL0     H19973   1.371   0.747  -0.977 -1.4813  1.5533  1.9383
  889MOL0     H19974   1.524   0.842  -0.976  1.1485  1.8056  2.9738
  889MOL0     H19975   1.344   0.926  -0.581  0.2696 -0.8596 -0.9081
  889MOL0     H19976   1.194   1.118  -0.548  0.5237 -1.3254 -0.0318
  889MOL0     H19977   1.098   1.573  -0.561 -1.0736  3.2433  0.2495
  889MOL0     H19978   0.914   1.716  -0.444 -1.9548 -0.1385  1.3785
  889MOL0     H19979   0.654   1.653  -0.158 -0.1455  0.9277 -1.2388
  889MOL0     H19980   0.819   1.675  -0.207  1.0098  0.4430 -1.1392
  889MOL0     H19981   0.717   1.905  -0.199  2.1440 -2.0142 -0.1716
  889MOL0     H19982   0.715   1.851  -0.371 -1.6338 -1.7992 -1.0930
  889MOL0     H19983   0.469   1.926  -0.310  0.4545 -1.7629 -2.0878
  889MOL0     H19984   0.461   1.753  -0.281 -0.5765  0.1205  1.7450
  889MOL0     H19985   0.537   1.948  -0.057 -0.9211 -1.3900  3.0655
  889MOL0     H19986   0.524   1.781  -0.061  1.6068  0.4554  0.1640
  889MOL0     H19987   0.299   1.775  -0.080 -0.5118  0.2611 -1.7156
  889MOL0     H19988   0.277   1.931  -0.152 -2.5186  1.2583  2.5811
  889MOL0     H19989   0.380   1.876   0.138  0.9257 -1.0108 -1.0679
  889MOL0     H19990   0.328   2.041   0.080  2.0097 -0.4597  0.9786
  889MOL0     H19991   0.153   1.793   0.087  0.2868 -0.2815  0.4562
  889MOL0     H19992   0.108   1.949   0.043  2.2739 -0.9112 -1.6966
  889MOL0     H19993   0.129   2.061   0.255 -0.0733  0.9554  3.5797
  889MOL0     H19994   0.020   1.922   0.267 -0.1921  3.1271  1.4497
  889MOL0     H19995   0.692   1.357  -0.405 -0.7822  0.5921 -1.6045
  889MOL0     H19996   0.861   1.224  -0.515  1.0884 -0.8090  3.7970
  889MOL0     H19997   1.220   1.191  -0.971  0.8140 -1.8351 -3.0015
  889MOL0     H19998   1.355   0.993  -0.996  2.5291 -1.5295  2.1375
  889MOL0     H19999   1.631   1.439  -0.219 -0.4254  3.2867 -2.2654
  889MOL0     H20000   1.512   1.533  -0.004 -0.7532  2.6286 -1.2746
  889MOL0     H20001   1.588   1.897   0.302 -0.1192  1.0717  0.9269
  889MOL0     H20002   1.508   1.994   0.509 -1.4612  1.1604  1.1860
  889MOL0     H20003   1.179   1.770   0.704 -0.5516  1.3902  1.9004
  889MOL0     H20004   1.090   1.899   0.657  1.4716  4.4470 -0.7172
  889MOL0     H20005   1.315   1.935   0.866  0.4394 -3.5123 -0.3777
  889MOL0     H20006   1.189   1.837   0.926  4.4367  0.8489  1.8131
  889MOL0     H20007   1.155   2.109   0.796  0.4922 -1.6323 -0.7741
  889MOL0     H20008   1.180   2.076   0.970 -2.0593 -2.4297  1.3383
  889MOL0     H20009   0.943   1.917   0.890 -2.0355  0.6322  0.5079
  889MOL0     H20010   0.962   2.046   1.011  1.4158  4.8334 -1.0940
  889MOL0     H20011   0.799   2.259   0.683 -0.0881 -1.0227 -2.3978
  889MOL0     H20012   1.127   1.784   0.464  0.3610 -3.6848 -3.0484
  889MOL0     H20013   1.250   1.611   0.175 -0.5555  0.3446 -3.5417
  889MOL0     H20014   1.102   1.654   0.282  1.0285  0.7535  0.4285
  889MOL0     H20015   1.139   1.756   0.144  1.1705 -0.9093 -1.1648
  890MOL0     O20016   3.889   3.965   5.555  0.0573  0.3714 -0.4512
  890MOL0     C20017   3.838   3.926   5.660  0.8001  0.2170 -1.2315
  890MOL0     O20018   3.749   3.819   5.670 -0.0476 -0.2416 -0.0915
  890MOL0     C20019   3.657   3.794   5.576 -0.4588 -0.3844  0.6249
  890MOL0     C20020   3.614   3.875   5.472  0.6489  0.3984 -1.0450
  890MOL0     C20021   3.515   3.835   5.377  0.2507 -0.4067  0.5020
  890MOL0     C20022   3.450   3.712   5.373 -1.6444 -0.3163 -0.6453
  890MOL0     O20023   3.356   3.679   5.284  1.0498 -0.1838 -0.9789
  890MOL0     C20024   3.340   3.545   5.245 -1.8318 -0.1898  0.4527
  890MOL0     C20025   3.254   3.459   5.340 -0.2272 -0.0670 -0.0060
  890MOL0     C20026   3.152   3.365   5.268 -0.8137 -0.1301 -0.4714
  890MOL0     C20027   3.082   3.293   5.377  0.0657 -0.9368  0.1008
  890MOL0     C20028   2.973   3.202   5.327  0.7512 -0.1042 -0.2784
  890MOL0     C20029   3.022   3.075   5.270  1.0594  0.2116  0.0104
  890MOL0     C20030   2.901   2.982   5.217  0.1343  0.4356 -0.3137
  890MOL0     C20031   2.958   2.874   5.121  0.2620  0.0707 -0.4323
  890MOL0     N20032   3.012   2.760   5.191 -0.2434 -0.3117 -0.6063
  890MOL0     C20033   2.950   2.640   5.208 -0.5183 -0.5267  0.3198
  890MOL0     C20034   3.035   2.563   5.278 -0.4378  0.3279 -0.4411
  890MOL0     C20035   3.007   2.416   5.302 -0.3981 -0.4568 -0.2035
  890MOL0     C20036   2.954   2.394   5.441 -1.1061  0.3916 -0.4798
  890MOL0     C20037   2.810   2.444   5.473 -0.1196 -0.2738 -0.2141
  890MOL0     C20038   2.694   2.381   5.410 -0.1687 -1.0206 -0.0328
  890MOL0     O20039   2.696   2.428   5.275  0.2920  0.4427 -0.7823
  890MOL0     C20040   2.575   2.424   5.213  0.0693 -0.2195 -0.1292
  890MOL0     C20041   2.442   2.400   5.259  0.5257 -0.4460  0.2122
  890MOL0     C20042   2.327   2.391   5.174  0.9518 -0.6937 -0.0021
  890MOL0     C20043   2.341   2.417   5.037 -0.2034  1.1273 -0.2774
  890MOL0     C20044   2.219   2.428   4.965 -0.7912 -0.6232  0.6012
  890MOL0     O20045   2.095   2.382   5.011 -0.0932 -0.2311  0.1029
  890MOL0     C20046   1.980   2.383   4.925  0.1973  0.1258 -0.9049
  890MOL0     C20047   1.982   2.354   4.788  0.2229  0.2455  0.1075
  890MOL0     C20048   1.857   2.342   4.721  0.3768  0.6508 -0.3813
  890MOL0     C20049   1.732   2.362   4.786 -0.2119 -0.5870  0.2076
  890MOL0     O20050   1.606   2.370   4.735  0.2634  0.3979  1.1503
  890MOL0     C20051   1.587   2.346   4.598  0.1675  1.4069 -0.4217
  890MOL0     C20052   1.431   2.332   4.571 -0.5306  0.5663  0.7961
  890MOL0     C20053   1.342   2.455   4.584 -1.0664  0.1118 -0.0708
  890MOL0     C20054   1.371   2.545   4.468  1.1669 -0.1061  0.0852
  890MOL0     C20055   1.297   2.511   4.349  0.5291 -0.2633 -0.0143
  890MOL0     C20056   1.309   2.616   4.248  0.7513  0.0123 -0.1634
  890MOL0     C20057   1.242   2.560   4.131 -0.1320  0.4715  0.1844
  890MOL0     C20058   1.201   2.660   4.024 -0.0763  0.2239 -0.4518
  890MOL0    Cl20059   1.358   2.755   3.983  0.0908  0.0079 -0.0717
  890MOL0     C20060   1.742   2.394   4.920  0.0839 -0.7240  0.8967
  890MOL0     C20061   1.855   2.396   4.985 -0.4288 -0.3239  0.3878
  890MOL0     O20062   2.243   2.462   4.850  0.3696  0.5885  0.0478
  890MOL0     C20063   2.477   2.452   4.993  0.7193  0.5641 -0.3006
  890MOL0     C20064   2.589   2.453   5.078  0.4972 -0.7500 -0.2960
  890MOL0     N20065   3.140   2.642   5.325 -0.5520  0.3383  0.2804
  890MOL0     N20066   3.129   2.755   5.265  0.4693 -0.5182  0.9463
  890MOL0     C20067   3.508   3.627   5.474  0.5246 -0.4275 -0.7739
  890MOL0     C20068   3.597   3.674   5.570  1.0294  0.4124 -0.0095
  890MOL0     C20069   3.873   3.982   5.789  0.4795 -0.8699 -0.4517
  890MOL0     C20070   3.834   3.912   5.914 -0.1191 -0.8543 -0.6104
  890MOL0     C20071   3.878   3.967   6.032 -0.6007  0.3645  0.3432
  890MOL0     C20072   3.940   4.090   6.050 -0.7442 -0.7793  0.2364
  890MOL0     O20073   3.978   4.150   6.168  0.0166 -0.3843  0.2077
  890MOL0     C20074   3.975   4.074   6.293 -0.2166  0.3356  0.5224
  890MOL0     C20075   4.025   4.139   6.425 -0.5476  1.3078  0.2749
  890MOL0     C20076   4.151   4.216   6.393 -0.4485  0.1691 -0.0131
  890MOL0     C20077   4.229   4.244   6.525  0.7688  0.2005  0.3854
  890MOL0     C20078   4.348   4.315   6.481 -0.4704 -0.2344 -0.3418
  890MOL0     C20079   4.469   4.348   6.465  0.7551 -0.2080  0.2351
  890MOL0     C20080   3.957   4.164   5.937  0.1158 -0.5980  0.0964
  890MOL0     C20081   3.922   4.120   5.804 -0.3313  0.1730 -0.5792
  890MOL0     C20082   3.942   4.224   5.696 -0.5867 -0.1186 -0.2851
  890MOL0     H20083   3.659   3.973   5.464  0.9852  1.0720  4.8958
  890MOL0     H20084   3.481   3.905   5.301 -3.0465 -1.6019  0.7443
  890MOL0     H20085   3.288   3.537   5.148 -5.2529 -0.3057  2.1434
  890MOL0     H20086   3.443   3.508   5.237 -0.6362  3.2320 -2.4409
  890MOL0     H20087   3.207   3.528   5.410 -3.7967 -1.1391 -1.1279
  890MOL0     H20088   3.321   3.383   5.381  0.2887  0.9452  1.0598
  890MOL0     H20089   3.203   3.286   5.212  0.5122  1.1668 -1.1632
  890MOL0     H20090   3.080   3.424   5.211 -0.1986  0.4098 -0.7116
  890MOL0     H20091   3.154   3.243   5.443  0.1994  0.6598  1.2342
  890MOL0     H20092   3.033   3.380   5.423 -1.1368  0.0115 -2.7366
  890MOL0     H20093   2.897   3.186   5.404 -1.7365 -1.9708 -2.9076
  890MOL0     H20094   2.924   3.252   5.242  2.3709  1.1192 -0.5424
  890MOL0     H20095   3.102   3.087   5.197 -0.6364 -0.7642 -2.1021
  890MOL0     H20096   3.072   3.020   5.351  0.2996  1.2306  1.2146
  890MOL0     H20097   2.825   3.049   5.177 -1.1660  0.2870  1.7216
  890MOL0     H20098   2.857   2.941   5.308  0.3535 -0.9957 -0.8357
  890MOL0     H20099   2.882   2.846   5.047 -0.1106  0.9436 -0.3857
  890MOL0     H20100   3.034   2.927   5.062 -0.0604 -0.1901 -1.0974
  890MOL0     H20101   2.853   2.611   5.169 -0.4468  2.7665 -2.8544
  890MOL0     H20102   2.947   2.371   5.222  1.3853 -0.6020 -1.5474
  890MOL0     H20103   3.109   2.380   5.280  0.3141  2.3422 -2.0724
  890MOL0     H20104   2.962   2.285   5.446 -1.6383  0.2462 -2.0945
  890MOL0     H20105   3.023   2.445   5.509  0.7325  1.0224 -2.6586
  890MOL0     H20106   2.801   2.553   5.465  1.4916  0.1017  2.0409
  890MOL0     H20107   2.806   2.424   5.581  2.3761  2.7868  0.6155
  890MOL0     H20108   2.609   2.415   5.470  1.5875  0.2199  1.8641
  890MOL0     H20109   2.704   2.275   5.437 -1.8007 -1.5492 -1.3175
  890MOL0     H20110   2.426   2.385   5.365 -2.5183 -0.9973 -0.2329
  890MOL0     H20111   2.232   2.366   5.221 -0.4619  0.2741 -2.1973
  890MOL0     H20112   2.073   2.334   4.734 -1.0495 -2.2367 -1.3058
  890MOL0     H20113   1.842   2.306   4.620  0.1362 -2.7780  0.7444
  890MOL0     H20114   1.628   2.421   4.529 -0.4642  0.6607 -1.6565
  890MOL0     H20115   1.629   2.248   4.577 -0.0186  1.6354 -2.0171
  890MOL0     H20116   1.413   2.282   4.475 -3.1846 -0.0897  1.5576
  890MOL0     H20117   1.400   2.256   4.643  2.1987 -2.5176 -0.9733
  890MOL0     H20118   1.240   2.419   4.601 -0.9492 -1.2733 -2.0144
  890MOL0     H20119   1.366   2.505   4.679 -1.9088  1.7705 -0.6966
  890MOL0     H20120   1.480   2.547   4.454  1.8939  1.8680  4.2331
  890MOL0     H20121   1.355   2.650   4.495  1.5004 -0.0885  0.2275
  890MOL0     H20122   1.191   2.500   4.373  0.0580 -0.8610 -2.1488
  890MOL0     H20123   1.343   2.418   4.314 -0.0539 -1.2763  1.7553
  890MOL0     H20124   1.254   2.709   4.270  0.9609 -0.4469  2.6364
  890MOL0     H20125   1.413   2.641   4.227  0.2930  0.7135 -1.8477
  890MOL0     H20126   1.158   2.500   4.167  2.1669 -1.5989  2.5271
  890MOL0     H20127   1.312   2.493   4.080 -0.4882  0.4759 -0.3146
  890MOL0     H20128   1.160   2.615   3.933  2.8851 -2.0806 -0.8239
  890MOL0     H20129   1.132   2.735   4.064 -1.5253 -0.5929 -1.3519
  890MOL0     H20130   1.652   2.418   4.975 -0.4437 -0.5380 -0.0147
  890MOL0     H20131   1.851   2.421   5.090  1.8835  0.2485  0.3830
  890MOL0     H20132   2.500   2.471   4.889 -1.2165  0.4051 -0.7986
  890MOL0     H20133   2.691   2.466   5.043  0.6739 -3.3986 -0.9201
  890MOL0     H20134   3.475   3.524   5.487  2.6794 -1.2194 -1.1484
  890MOL0     H20135   3.616   3.599   5.646  0.1166  1.8795  1.7347
  890MOL0     H20136   3.791   3.813   5.909 -0.5286 -0.6551 -1.1676
  890MOL0     H20137   3.858   3.907   6.120  1.4162  0.7012  1.0872
  890MOL0     H20138   4.030   3.979   6.286 -1.7231 -0.4724 -1.6359
  890MOL0     H20139   3.873   4.038   6.307  0.4027 -1.2975  1.0818
  890MOL0     H20140   4.040   4.069   6.507  0.4598  1.0081 -0.1530
  890MOL0     H20141   3.941   4.205   6.449  0.4655  2.4111  0.8760
  890MOL0     H20142   4.128   4.311   6.344 -0.3263 -0.3409 -1.0965
  890MOL0     H20143   4.215   4.153   6.330  1.1007 -0.4370  2.0512
  890MOL0     H20144   4.176   4.320   6.584  2.2352 -0.1502  2.2618
  890MOL0     H20145   4.248   4.158   6.590 -2.0191  1.1739  2.7153
  890MOL0     H20146   4.574   4.367   6.451  0.8552  0.7636  2.0303
  890MOL0     H20147   3.990   4.268   5.934  0.1636 -0.5842 -3.3591
  890MOL0     H20148   4.044   4.260   5.711 -0.8043 -0.6982  3.2947
  890MOL0     H20149   3.914   4.200   5.593  1.1685  2.5622 -1.5059
  890MOL0     H20150   3.874   4.305   5.723 -0.3759 -0.2234  0.5866
  891MOL0     O20151   7.907   1.492   8.144 -0.5869  0.2570  0.2948
  891MOL0     C20152   7.970   1.558   8.227 -0.1707  0.3256  0.0195
  891MOL0     O20153   8.100   1.576   8.222 -0.2815  0.0283  0.4750
  891MOL0     C20154   8.179   1.480   8.160 -0.4474  0.6173  0.1864
  891MOL0     C20155   8.156   1.341   8.162  0.4488  0.2371 -0.9542
  891MOL0     C20156   8.239   1.257   8.097 -0.6994  0.5337  0.3159
  891MOL0     C20157   8.363   1.298   8.042 -0.5153 -0.6377  0.5272
  891MOL0     O20158   8.467   1.215   7.984  1.0056 -0.1671  0.0019
  891MOL0     C20159   8.444   1.076   7.978  0.2798 -0.4439 -0.2515
  891MOL0     C20160   8.580   1.011   7.943  0.0664  0.4402 -0.1008
  891MOL0     C20161   8.665   1.087   7.841 -0.2240 -1.4078 -0.3344
  891MOL0     C20162   8.772   1.172   7.911 -0.8693  0.1077  0.1710
  891MOL0     C20163   8.884   1.231   7.827 -0.1617  0.1293  0.3591
  891MOL0     C20164   8.828   1.315   7.702 -1.0448 -0.1684 -0.5100
  891MOL0     C20165   8.803   1.450   7.738 -0.4113  0.2613 -0.4878
  891MOL0     C20166   8.759   1.543   7.615  0.2504  0.1587  0.2900
  891MOL0     N20167   8.676   1.654   7.650 -0.1339  0.0194  0.0728
  891MOL0     C20168   8.549   1.646   7.700 -0.2606 -0.5037 -0.1204
  891MOL0     C20169   8.533   1.754   7.783  0.3691  0.6614 -0.1680
  891MOL0     C20170   8.410   1.786   7.868 -0.5466 -0.6522 -0.0391
  891MOL0     C20171   8.326   1.907   7.824 -0.9421 -0.3410  0.3473
  891MOL0     C20172   8.376   2.050   7.871 -0.8503 -0.6150  0.4029
  891MOL0     C20173   8.384   2.159   7.759  0.2319  0.5628  1.0103
  891MOL0     O20174   8.257   2.195   7.713  0.1179 -0.0090  0.0487
  891MOL0     C20175   8.191   2.287   7.795  0.7952  0.9924  0.3250
  891MOL0     C20176   8.098   2.227   7.881  0.7583 -0.5483 -0.2069
  891MOL0     C20177   8.036   2.301   7.987 -0.1321 -0.1221  0.2268
  891MOL0     C20178   8.055   2.437   7.994 -0.1997 -0.5117 -0.8985
  891MOL0     C20179   7.954   2.520   8.063 -0.3665 -0.6140 -0.3482
  891MOL0     O20180   7.983   2.658   8.063  0.6211 -0.1068  0.0806
  891MOL0     C20181   7.907   2.756   8.137 -0.0196  0.0780 -0.1953
  891MOL0     C20182   7.965   2.885   8.164 -0.3318  1.4805  0.6661
  891MOL0     C20183   7.895   2.990   8.243  0.3216  0.2698 -0.4876
  891MOL0     C20184   7.772   2.961   8.304  0.3876  0.5431 -0.6492
  891MOL0     O20185   7.712   3.050   8.390  0.1918  0.1386  0.2488
  891MOL0     C20186   7.777   3.174   8.438  0.1510  1.1158 -0.8268
  891MOL0     C20187   7.673   3.235   8.532 -0.8218 -0.1057  0.1010
  891MOL0     C20188   7.701   3.382   8.573  0.6978 -0.4417  0.1144
  891MOL0     C20189   7.842   3.419   8.597 -0.1744  0.2514 -0.2195
  891MOL0     C20190   7.846   3.572   8.607 -1.2789  1.6301 -0.1303
  891MOL0     C20191   7.990   3.611   8.641 -0.4761 -0.2555  1.1188
  891MOL0     C20192   8.013   3.763   8.643  0.0757 -0.3331  0.2950
  891MOL0     C20193   7.980   3.831   8.509  0.6151  0.2629 -1.0654
  891MOL0    Cl20194   8.098   3.772   8.387 -0.0341 -1.0957 -0.0681
  891MOL0     C20195   7.714   2.839   8.271 -0.4011 -0.2670 -0.3197
  891MOL0     C20196   7.774   2.742   8.186 -0.4676 -0.5736  0.0651
  891MOL0     O20197   7.852   2.462   8.108 -0.2901 -0.8587 -0.2859
  891MOL0     C20198   8.155   2.494   7.910  0.3766  0.1210 -0.5377
  891MOL0     C20199   8.216   2.427   7.814 -0.4392  0.7763 -1.0616
  891MOL0     N20200   8.644   1.833   7.778 -0.6441 -0.3880 -0.2123
  891MOL0     N20201   8.734   1.771   7.695  0.5318  0.1987  1.1446
  891MOL0     C20202   8.385   1.437   8.026  0.0708 -0.2226  0.6717
  891MOL0     C20203   8.295   1.526   8.095  0.1483  0.5111 -0.7224
  891MOL0     C20204   7.897   1.635   8.329 -0.1230  0.6437 -0.3426
  891MOL0     C20205   7.966   1.743   8.392  0.2004 -0.5714  0.0547
  891MOL0     C20206   7.932   1.815   8.500  0.1858 -0.3197 -0.1445
  891MOL0     C20207   7.813   1.782   8.561 -0.1973  0.0220 -0.0962
  891MOL0     O20208   7.762   1.831   8.675  0.0949  0.0769  0.8361
  891MOL0     C20209   7.672   1.935   8.654  0.2176 -1.0334 -0.7082
  891MOL0     C20210   7.620   1.976   8.794  0.5016 -0.6565  0.4314
  891MOL0     C20211   7.560   2.130   8.788 -0.9983  0.8513 -0.4267
  891MOL0     C20212   7.548   2.196   8.933  0.1570  0.4757 -0.2841
  891MOL0     C20213   7.638   2.305   8.950 -0.2889  0.5707 -0.0826
  891MOL0     C20214   7.728   2.390   8.949  0.0193  0.0676  0.9547
  891MOL0     C20215   7.733   1.685   8.507 -0.4832 -0.5168  0.4472
  891MOL0     C20216   7.776   1.608   8.390 -0.1920  0.2454 -0.1127
  891MOL0     C20217   7.683   1.492   8.360 -0.1282  0.2843  0.0190
  891MOL0     H20218   8.081   1.291   8.222  1.0382  0.8107  0.2822
  891MOL0     H20219   8.204   1.154   8.097 -2.0773  0.8642 -3.1508
  891MOL0     H20220   8.423   1.043   8.080  2.2310  2.7721  1.3461
  891MOL0     H20221   8.368   1.045   7.905 -0.7783 -0.2797  0.7561
  891MOL0     H20222   8.548   0.911   7.910 -1.2421  0.4059  1.1496
  891MOL0     H20223   8.642   0.990   8.031  0.2233  0.0895 -0.2926
  891MOL0     H20224   8.605   1.156   7.780  1.9710  1.6656  0.7405
  891MOL0     H20225   8.716   1.015   7.776 -0.4948 -0.9782 -1.0322
  891MOL0     H20226   8.725   1.247   7.975 -3.0127 -3.1322  2.7557
  891MOL0     H20227   8.824   1.110   7.984  1.2662  0.6698 -0.8048
  891MOL0     H20228   8.954   1.299   7.876 -0.3592  0.0857  0.7062
  891MOL0     H20229   8.944   1.147   7.790 -0.1195  0.6198 -0.7468
  891MOL0     H20230   8.904   1.306   7.625 -0.9229 -0.8555 -0.3227
  891MOL0     H20231   8.737   1.265   7.667 -1.5275 -0.0527  0.5429
  891MOL0     H20232   8.901   1.482   7.775 -1.0862  2.3239 -0.3398
  891MOL0     H20233   8.720   1.458   7.809  1.3920  3.5577  1.5065
  891MOL0     H20234   8.837   1.584   7.550 -3.1887  1.9632 -3.0885
  891MOL0     H20235   8.709   1.466   7.555 -0.4620 -0.2094  1.3383
  891MOL0     H20236   8.471   1.572   7.684  0.3265 -1.0978 -0.2319
  891MOL0     H20237   8.341   1.701   7.870 -5.6856  3.0147  0.0473
  891MOL0     H20238   8.446   1.801   7.970 -2.7025  0.6691  0.5841
  891MOL0     H20239   8.310   1.896   7.716  0.6098 -3.2461  0.3202
  891MOL0     H20240   8.224   1.892   7.861 -1.2199  1.5874  0.4495
  891MOL0     H20241   8.470   2.039   7.925 -0.6221  2.2547  0.7413
  891MOL0     H20242   8.313   2.078   7.956  1.8212 -0.0525  2.3204
  891MOL0     H20243   8.440   2.112   7.678  0.5704  3.0915 -0.3244
  891MOL0     H20244   8.447   2.245   7.783 -1.3598  1.9394  0.5246
  891MOL0     H20245   8.074   2.121   7.873  0.6998 -0.4144 -2.0230
  891MOL0     H20246   7.978   2.237   8.053  0.9815 -1.7661 -0.3043
  891MOL0     H20247   8.056   2.908   8.110 -1.5980 -0.1855 -2.4700
  891MOL0     H20248   7.948   3.083   8.264 -3.0007  1.7463  2.2915
  891MOL0     H20249   7.860   3.137   8.499 -0.4663 -0.2119 -0.7589
  891MOL0     H20250   7.803   3.245   8.359 -2.3873 -0.5720 -3.3621
  891MOL0     H20251   7.577   3.236   8.480 -0.3547 -3.3811 -1.0225
  891MOL0     H20252   7.668   3.177   8.625  0.6487  0.7018  0.7192
  891MOL0     H20253   7.664   3.442   8.489 -0.8688 -0.4731  0.7592
  891MOL0     H20254   7.652   3.406   8.668  2.2607 -0.0012  0.8373
  891MOL0     H20255   7.895   3.386   8.507 -2.8956 -1.6382 -1.2836
  891MOL0     H20256   7.881   3.367   8.685 -1.7506  1.5571  1.3306
  891MOL0     H20257   7.770   3.607   8.678 -0.5905  0.3332  1.3128
  891MOL0     H20258   7.836   3.606   8.504 -0.6798  0.7669 -0.4902
  891MOL0     H20259   8.040   3.584   8.735 -1.7945 -2.6999  1.1921
  891MOL0     H20260   8.046   3.564   8.559 -1.1995 -1.1563  1.1270
  891MOL0     H20261   8.120   3.770   8.665  0.6083  0.1522 -2.1271
  891MOL0     H20262   7.951   3.801   8.725 -3.8191 -5.6428  0.3487
  891MOL0     H20263   7.877   3.808   8.479  0.2706  0.6650 -0.2099
  891MOL0     H20264   7.985   3.937   8.532 -0.3795 -0.1413  1.3951
  891MOL0     H20265   7.611   2.823   8.303 -0.7983  0.8859 -0.9634
  891MOL0     H20266   7.715   2.651   8.179  1.2250 -2.1191  3.5160
  891MOL0     H20267   8.164   2.601   7.902  0.5490  0.0828 -0.8557
  891MOL0     H20268   8.296   2.474   7.757  0.4052  0.0223 -0.5216
  891MOL0     H20269   8.472   1.461   7.965 -2.1701  0.0394 -2.6868
  891MOL0     H20270   8.315   1.633   8.097  0.5796  0.4200  0.5577
  891MOL0     H20271   8.062   1.771   8.350 -0.7947  2.5562 -0.3807
  891MOL0     H20272   8.001   1.888   8.542 -2.6321  1.7424  1.2510
  891MOL0     H20273   7.599   1.906   8.577  1.2767 -0.7534 -1.8430
  891MOL0     H20274   7.710   2.026   8.608 -2.1119 -0.1945 -1.1171
  891MOL0     H20275   7.706   1.986   8.861  0.8346 -0.9309  0.0498
  891MOL0     H20276   7.549   1.899   8.828 -0.0014 -0.4984 -0.2325
  891MOL0     H20277   7.463   2.132   8.736 -0.3549 -1.3601 -1.8696
  891MOL0     H20278   7.618   2.193   8.720 -2.9946  1.6306 -1.4963
  891MOL0     H20279   7.449   2.243   8.935 -0.1122 -0.0447 -1.1355
  891MOL0     H20280   7.560   2.125   9.015  1.6499 -0.9632 -1.6908
  891MOL0     H20281   7.810   2.455   8.927  0.3673 -0.3366  1.0395
  891MOL0     H20282   7.648   1.654   8.567 -0.3255 -0.7360  0.5575
  891MOL0     H20283   7.736   1.398   8.379 -0.0557  0.7215  2.3288
  891MOL0     H20284   7.588   1.502   8.413 -0.3566  1.5992 -0.5870
  891MOL0     H20285   7.651   1.495   8.256  1.0910  1.0581 -0.3464
  892MOL0     O20286   3.904   4.893   3.171  0.2975 -0.6156  0.4902
  892MOL0     C20287   3.851   4.787   3.186 -0.2331  0.0599 -0.1782
  892MOL0     O20288   3.764   4.723   3.100 -0.6938  0.8632  0.0178
  892MOL0     C20289   3.697   4.797   3.006 -0.1019 -0.6027  0.1824
  892MOL0     C20290   3.639   4.725   2.900  0.6562 -0.5025 -0.9172
  892MOL0     C20291   3.558   4.787   2.810  0.7279 -0.6312  0.4258
  892MOL0     C20292   3.523   4.924   2.814  0.3254  0.6978  0.3725
  892MOL0     O20293   3.440   4.979   2.725  0.0368  0.0403  0.4294
  892MOL0     C20294   3.340   4.912   2.655 -0.1583 -0.6899 -0.7936
  892MOL0     C20295   3.201   4.926   2.723 -0.8926 -0.1852  0.0803
  892MOL0     C20296   3.119   4.797   2.699  0.1745 -0.6170  0.2769
  892MOL0     C20297   3.119   4.689   2.813  0.2197  0.0353 -0.8832
  892MOL0     C20298   3.027   4.569   2.782 -0.3204 -0.2392 -0.1670
  892MOL0     C20299   3.071   4.449   2.860 -0.1826  0.4326 -0.8965
  892MOL0     C20300   2.997   4.317   2.838 -0.1857 -1.0204  0.8316
  892MOL0     C20301   3.034   4.204   2.939  0.9700 -0.2567  0.7055
  892MOL0     N20302   2.992   4.229   3.069  0.0439 -0.0060  0.3516
  892MOL0     C20303   3.016   4.138   3.181 -0.2530  0.0750  0.3340
  892MOL0     C20304   2.933   4.180   3.280 -0.8141  0.4243  0.4075
  892MOL0     C20305   2.907   4.088   3.392 -0.3141 -0.1187  0.3257
  892MOL0     C20306   3.022   4.058   3.482 -0.3000 -0.0870  0.3404
  892MOL0     C20307   3.071   4.191   3.535 -0.5370 -0.1806 -0.3819
  892MOL0     C20308   3.151   4.183   3.659  0.6193  0.3723 -0.0663
  892MOL0     O20309   3.067   4.135   3.768  0.0399  0.7105 -0.4004
  892MOL0     C20310   2.961   4.212   3.830 -1.2285 -0.8574 -0.8037
  892MOL0     C20311   2.866   4.159   3.915 -0.1457 -0.1435 -0.8259
  892MOL0     C20312   2.766   4.235   3.982  0.6471  0.8841  0.0847
  892MOL0     C20313   2.759   4.369   3.976  0.4073 -0.3029  0.6542
  892MOL0     C20314   2.668   4.460   4.053 -0.4674  0.6466 -0.2016
  892MOL0     O20315   2.643   4.570   3.987  0.8860 -0.7352  0.3726
  892MOL0     C20316   2.543   4.656   4.041  0.3935  0.2871  0.9388
  892MOL0     C20317   2.417   4.606   4.082 -0.1503  0.3143  0.1410
  892MOL0     C20318   2.313   4.689   4.114 -0.7394  0.0387  0.2010
  892MOL0     C20319   2.321   4.833   4.110 -0.1514 -0.7889 -0.2997
  892MOL0     O20320   2.222   4.925   4.139  0.1846  0.4766  0.6020
  892MOL0     C20321   2.123   4.883   4.236 -0.0464 -0.2753 -0.1243
  892MOL0     C20322   1.981   4.939   4.200 -0.1203  0.1539 -0.3712
  892MOL0     C20323   1.871   4.874   4.280  0.2788 -1.0784 -0.5156
  892MOL0     C20324   1.864   4.928   4.423  0.4727  0.2533  0.2448
  892MOL0     C20325   1.752   4.875   4.513 -0.4822  0.7186 -0.0435
  892MOL0     C20326   1.768   4.946   4.651 -0.4411 -0.4671 -0.5857
  892MOL0     C20327   1.676   4.885   4.760  0.3013 -0.1453  0.1521
  892MOL0     C20328   1.544   4.961   4.776  0.0201 -0.2873 -0.7262
  892MOL0    Cl20329   1.430   4.858   4.865 -0.4550  0.5057 -0.9742
  892MOL0     C20330   2.449   4.882   4.090 -0.7360 -1.0013  0.7943
  892MOL0     C20331   2.555   4.801   4.039  0.2696 -0.1073  0.1124
  892MOL0     O20332   2.624   4.426   4.165  0.6340  0.5697  0.1731
  892MOL0     C20333   2.852   4.426   3.880 -0.0951  0.8950 -0.8939
  892MOL0     C20334   2.951   4.349   3.814  0.3768  0.0522  0.4681
  892MOL0     N20335   2.863   4.288   3.234  1.1758 -0.5551  0.6083
  892MOL0     N20336   2.898   4.322   3.116  0.1665  0.1873  0.2816
  892MOL0     C20337   3.580   4.993   2.922  0.3247 -0.1402 -0.3732
  892MOL0     C20338   3.650   4.932   3.027 -0.0273 -0.8794  1.0405
  892MOL0     C20339   3.899   4.703   3.297  0.5252 -0.0920 -0.0331
  892MOL0     C20340   3.905   4.570   3.277  0.1496  0.2947 -0.0203
  892MOL0     C20341   3.953   4.482   3.378  0.4594 -0.5464 -0.5640
  892MOL0     C20342   3.990   4.535   3.503 -0.0768 -0.0220 -0.0148
  892MOL0     O20343   4.029   4.468   3.623  0.0004 -0.1505  0.3509
  892MOL0     C20344   3.980   4.337   3.646  0.0944  0.4926 -0.5914
  892MOL0     C20345   4.034   4.269   3.777 -0.7494  0.2283 -0.1920
  892MOL0     C20346   4.001   4.119   3.775  0.4311 -0.7665 -0.0222
  892MOL0     C20347   4.088   4.027   3.866 -0.5727 -0.3667  0.4017
  892MOL0     C20348   4.052   3.889   3.839  0.3637  0.2855  0.1382
  892MOL0     C20349   4.032   3.768   3.829  0.0580  0.3041  0.0340
  892MOL0     C20350   3.994   4.673   3.512  0.0960 -0.4851 -0.3238
  892MOL0     C20351   3.953   4.763   3.412 -0.1403 -1.2657 -0.0570
  892MOL0     C20352   3.934   4.899   3.454 -0.8759  0.2742  0.0473
  892MOL0     H20353   3.655   4.619   2.913  1.7383 -0.1353  1.3540
  892MOL0     H20354   3.509   4.712   2.748  1.3770 -0.9912  0.3371
  892MOL0     H20355   3.326   4.947   2.553 -1.7608 -0.4079 -0.4942
  892MOL0     H20356   3.361   4.808   2.630  3.5704  0.3781 -2.9364
  892MOL0     H20357   3.158   5.021   2.691  1.0180  0.3796 -0.9913
  892MOL0     H20358   3.223   4.941   2.829  1.9148  2.0346 -0.6579
  892MOL0     H20359   3.149   4.753   2.603  1.8678  0.4532  0.2763
  892MOL0     H20360   3.013   4.821   2.689 -0.5930 -2.1774  3.4082
  892MOL0     H20361   3.223   4.658   2.818  1.8511  4.6872 -1.1705
  892MOL0     H20362   3.095   4.733   2.910  1.2102 -2.7035  0.7046
  892MOL0     H20363   2.924   4.601   2.798  0.1788  0.7110  1.4671
  892MOL0     H20364   3.027   4.533   2.679 -5.4807 -1.0094 -0.1731
  892MOL0     H20365   3.176   4.427   2.839 -0.3785 -3.1040  1.1020
  892MOL0     H20366   3.062   4.472   2.966  2.2660 -2.4542  0.0820
  892MOL0     H20367   3.031   4.278   2.741 -1.1033  0.5965 -0.1940
  892MOL0     H20368   2.893   4.352   2.833  1.5337  5.0730 -0.1974
  892MOL0     H20369   2.979   4.114   2.907  1.5542 -0.7193  0.9810
  892MOL0     H20370   3.138   4.173   2.929  1.3849  1.7995 -4.9272
  892MOL0     H20371   3.079   4.050   3.172  2.5394  2.1090 -2.2015
  892MOL0     H20372   2.820   4.115   3.453  1.3496  1.6960  2.0501
  892MOL0     H20373   2.872   3.998   3.342  0.3820 -0.6815  0.8390
  892MOL0     H20374   2.987   4.007   3.572 -3.5544  0.3843 -0.5379
  892MOL0     H20375   3.103   4.008   3.428  0.1619  1.6395 -0.6654
  892MOL0     H20376   2.993   4.268   3.540  1.3979  1.8255  1.3641
  892MOL0     H20377   3.132   4.232   3.454  0.6210  4.5338  2.5131
  892MOL0     H20378   3.184   4.281   3.697 -1.7238  0.0588  3.2202
  892MOL0     H20379   3.244   4.128   3.642  0.0961 -0.9175  1.0339
  892MOL0     H20380   2.873   4.052   3.931 -1.1232 -1.2036 -5.8381
  892MOL0     H20381   2.692   4.193   4.050 -0.0392  3.5652  1.1024
  892MOL0     H20382   2.393   4.500   4.084  1.9052 -0.2101  2.3001
  892MOL0     H20383   2.221   4.647   4.152 -0.7655 -0.4276 -0.3606
  892MOL0     H20384   2.119   4.774   4.250  2.1732 -0.1978  1.6433
  892MOL0     H20385   2.154   4.922   4.333  3.4868 -5.1794  1.1222
  892MOL0     H20386   1.970   5.048   4.201  0.2449  0.2133 -1.3617
  892MOL0     H20387   1.963   4.915   4.095 -0.5208  0.5628 -0.3977
  892MOL0     H20388   1.782   4.910   4.228  0.3666  2.0705  1.2222
  892MOL0     H20389   1.891   4.767   4.281  1.7761 -0.8251 -0.9185
  892MOL0     H20390   1.845   5.036   4.426 -2.0128 -0.1274  1.9931
  892MOL0     H20391   1.959   4.906   4.472 -0.0837  0.8245  1.6403
  892MOL0     H20392   1.762   4.767   4.527 -0.3187  0.4502 -1.9834
  892MOL0     H20393   1.647   4.882   4.484 -0.8277  0.5731  1.1040
  892MOL0     H20394   1.873   4.945   4.683 -1.0338  3.2154  2.0899
  892MOL0     H20395   1.743   5.050   4.625 -4.5197 -1.0795  0.2015
  892MOL0     H20396   1.727   4.883   4.857  0.1821 -2.9200  0.2343
  892MOL0     H20397   1.679   4.779   4.734  1.9616 -0.5868  1.8970
  892MOL0     H20398   1.556   5.061   4.819  0.1499 -0.1998 -0.9641
  892MOL0     H20399   1.506   4.976   4.675  1.0290  1.9562 -0.8160
  892MOL0     H20400   2.467   4.987   4.110  1.8375 -1.3719  0.8183
  892MOL0     H20401   2.654   4.841   4.021  1.7066 -3.8712 -1.1488
  892MOL0     H20402   2.851   4.534   3.874  2.6745  1.4423  3.6959
  892MOL0     H20403   3.027   4.410   3.766  1.3392 -1.5520 -0.1240
  892MOL0     H20404   3.544   5.096   2.930 -0.0977 -0.2459 -0.8391
  892MOL0     H20405   3.675   4.989   3.116 -0.2202  1.2307 -0.1853
  892MOL0     H20406   3.859   4.525   3.189  0.3238 -0.1807  0.1264
  892MOL0     H20407   3.949   4.374   3.366  2.4094 -0.8481  0.9569
  892MOL0     H20408   4.003   4.279   3.556 -2.8190  0.7523 -1.6096
  892MOL0     H20409   3.871   4.334   3.649  0.1098  0.0948 -0.3147
  892MOL0     H20410   3.983   4.313   3.864 -0.2248  0.5207 -0.0303
  892MOL0     H20411   4.143   4.279   3.774 -0.7597  0.0587 -1.4969
  892MOL0     H20412   4.004   4.092   3.669  0.1270  4.3146 -1.5872
  892MOL0     H20413   3.898   4.102   3.808  0.2234 -0.9858 -0.7454
  892MOL0     H20414   4.194   4.039   3.839 -1.3360  0.1128 -2.7623
  892MOL0     H20415   4.085   4.061   3.969  2.2473  2.2739 -0.2084
  892MOL0     H20416   4.007   3.665   3.823 -2.7292  0.7092  2.6181
  892MOL0     H20417   4.026   4.695   3.614 -2.7037 -2.4441  1.1151
  892MOL0     H20418   3.841   4.940   3.415 -0.8154 -0.8415 -1.3564
  892MOL0     H20419   3.938   4.919   3.561 -0.5390  2.9102 -0.3815
  892MOL0     H20420   4.017   4.953   3.407  0.4543 -0.6724  1.2088
  893MOL0     O20421   6.205   6.595  11.463  0.3487  0.9325  0.2200
  893MOL0     C20422   6.199   6.499  11.383 -0.2463  0.6366 -0.0676
  893MOL0     O20423   6.255   6.374  11.403 -0.5627  0.0410 -0.5616
  893MOL0     C20424   6.368   6.368  11.474  0.5734  0.2918  0.5818
  893MOL0     C20425   6.409   6.242  11.515 -0.9263  0.2082 -0.9702
  893MOL0     C20426   6.532   6.214  11.578  0.6084 -0.7041  0.5557
  893MOL0     C20427   6.627   6.319  11.576 -0.7559  0.6350 -0.3843
  893MOL0     O20428   6.746   6.303  11.624 -0.2754 -0.4237 -0.2444
  893MOL0     C20429   6.856   6.289  11.534 -0.1803  0.8310 -0.1321
  893MOL0     C20430   6.913   6.141  11.513  0.9807 -0.3164 -0.4067
  893MOL0     C20431   6.913   6.049  11.636 -0.3085 -0.3061  0.4544
  893MOL0     C20432   6.967   5.915  11.597  0.4159  1.1512  0.5019
  893MOL0     C20433   7.034   5.849  11.719  0.5881  0.0104 -1.1442
  893MOL0     C20434   6.924   5.787  11.815 -0.3581  0.1445  1.0382
  893MOL0     C20435   6.977   5.741  11.951 -0.0362  0.1800  0.3355
  893MOL0     C20436   6.859   5.697  12.047  0.2456 -0.2998 -0.9499
  893MOL0     N20437   6.778   5.591  11.988  0.5254  0.3277 -0.1899
  893MOL0     C20438   6.653   5.598  11.931  0.2313  0.1228 -0.3018
  893MOL0     C20439   6.617   5.471  11.925  0.9923 -0.7032 -0.6782
  893MOL0     C20440   6.483   5.408  11.893 -1.5013 -0.7782 -0.0699
  893MOL0     C20441   6.469   5.352  11.751 -0.1002  0.0144 -0.0510
  893MOL0     C20442   6.323   5.303  11.727 -0.3308 -0.1809 -0.4574
  893MOL0     C20443   6.294   5.264  11.589  0.2742  0.5001 -0.3372
  893MOL0     O20444   6.324   5.125  11.564  1.6351  0.6654  0.0892
  893MOL0     C20445   6.300   5.073  11.435  0.2648 -0.8285 -0.0605
  893MOL0     C20446   6.249   5.146  11.327 -0.1458 -0.8285  0.0868
  893MOL0     C20447   6.258   5.092  11.201  0.0300  0.4501  0.3521
  893MOL0     C20448   6.291   4.964  11.177 -0.4251  0.4745  0.5482
  893MOL0     C20449   6.300   4.899  11.039 -0.2588  0.2048 -0.8304
  893MOL0     O20450   6.288   4.975  10.922  0.5245 -0.5306 -0.7369
  893MOL0     C20451   6.306   4.921  10.797 -0.0374  0.9247  0.8442
  893MOL0     C20452   6.348   4.793  10.755  0.5716 -0.1375  0.2062
  893MOL0     C20453   6.346   4.760  10.620  0.5092 -0.4252 -1.2920
  893MOL0     C20454   6.308   4.847  10.515 -0.1854 -0.8593  0.6956
  893MOL0     O20455   6.301   4.825  10.377 -0.0027  0.1323 -0.3743
  893MOL0     C20456   6.330   4.687  10.334  0.8677 -0.5929 -0.3172
  893MOL0     C20457   6.317   4.663  10.184 -0.9807  0.0632  0.4534
  893MOL0     C20458   6.346   4.517  10.157  0.1609 -0.4708  0.4735
  893MOL0     C20459   6.304   4.467  10.020  0.7372 -0.4810  0.1789
  893MOL0     C20460   6.180   4.388  10.035 -0.0408  0.1606 -0.3377
  893MOL0     C20461   6.190   4.253  10.118 -1.0603  0.2240  0.2311
  893MOL0     C20462   6.295   4.155  10.063  0.2155  0.4010 -0.3398
  893MOL0     C20463   6.316   4.033  10.147  0.0843 -0.7969 -0.3093
  893MOL0    Cl20464   6.448   3.947  10.063 -0.4056  0.1664 -0.5677
  893MOL0     C20465   6.271   4.974  10.564  0.2560  0.5251  0.2989
  893MOL0     C20466   6.263   5.007  10.703 -0.1295 -0.7744  1.1381
  893MOL0     O20467   6.312   4.780  11.037  0.2912 -0.5202  0.2467
  893MOL0     C20468   6.320   4.886  11.288  0.7457  0.8992  0.4396
  893MOL0     C20469   6.323   4.940  11.411 -0.1414  0.3079  0.0324
  893MOL0     N20470   6.708   5.384  11.990 -0.5201  0.3451  0.2221
  893MOL0     N20471   6.811   5.462  12.007 -0.6896 -0.3097  0.1669
  893MOL0     C20472   6.592   6.442  11.523 -0.5282  0.0364 -0.1388
  893MOL0     C20473   6.467   6.470  11.484 -0.0291  0.9684 -0.2368
  893MOL0     C20474   6.114   6.496  11.273  0.3436  0.6394  0.1266
  893MOL0     C20475   6.035   6.386  11.249  0.0860  0.4973  0.1249
  893MOL0     C20476   5.973   6.358  11.132  0.1845 -0.5381 -1.5818
  893MOL0     C20477   5.959   6.454  11.040 -0.6889  0.3460 -0.5826
  893MOL0     O20478   5.884   6.450  10.926  0.3693 -0.2131  0.0161
  893MOL0     C20479   5.794   6.341  10.907 -0.3749  0.3597  0.2166
  893MOL0     C20480   5.714   6.360  10.791 -0.3189  0.1014  0.9181
  893MOL0     C20481   5.616   6.243  10.774 -0.2375  0.0701  1.0714
  893MOL0     C20482   5.505   6.271  10.672  0.1742  0.5152 -0.2440
  893MOL0     C20483   5.423   6.157  10.646  0.5685 -0.6518  0.0866
  893MOL0     C20484   5.352   6.059  10.628 -1.0875  0.7324 -0.1535
  893MOL0     C20485   6.034   6.570  11.061  0.0464 -0.0846  0.0840
  893MOL0     C20486   6.117   6.592  11.171  1.0293 -0.4841  0.3099
  893MOL0     C20487   6.209   6.715  11.181  0.0708  0.2971 -0.8437
  893MOL0     H20488   6.341   6.160  11.495 -1.2580  0.1183  0.4506
  893MOL0     H20489   6.555   6.116  11.617 -0.1453 -1.3191 -0.4992
  893MOL0     H20490   6.832   6.332  11.436 -2.6236 -1.0434 -0.4401
  893MOL0     H20491   6.939   6.345  11.577  0.9192 -1.0515  0.3198
  893MOL0     H20492   7.018   6.149  11.482  1.9899  0.0774  2.7595
  893MOL0     H20493   6.847   6.105  11.434  0.2693 -0.9902  0.4736
  893MOL0     H20494   6.808   6.038  11.665 -0.2799 -0.3314  0.5476
  893MOL0     H20495   6.970   6.095  11.718 -2.3016  2.6234  0.3291
  893MOL0     H20496   6.882   5.861  11.555  1.4311  0.7819 -1.1750
  893MOL0     H20497   7.050   5.920  11.525  0.1427  0.8168  0.1651
  893MOL0     H20498   7.105   5.772  11.689  2.8286  0.5725  2.2044
  893MOL0     H20499   7.091   5.926  11.772  1.0740 -2.1835  1.7354
  893MOL0     H20500   6.844   5.860  11.831  0.8762  1.4826  1.2853
  893MOL0     H20501   6.883   5.700  11.764  0.5824  0.6057 -0.5633
  893MOL0     H20502   7.018   5.832  11.996  1.2161  0.5970 -1.5239
  893MOL0     H20503   7.051   5.662  11.933  0.5051  1.3650 -3.6345
  893MOL0     H20504   6.900   5.671  12.145  1.9477  1.7436 -1.0594
  893MOL0     H20505   6.795   5.785  12.063 -0.1689 -0.6644 -0.5518
  893MOL0     H20506   6.590   5.683  11.905 -1.1515 -0.1204  2.0119
  893MOL0     H20507   6.470   5.321  11.959  3.2806 -1.3080  0.5250
  893MOL0     H20508   6.407   5.480  11.922  1.7146  3.0075 -0.2041
  893MOL0     H20509   6.494   5.435  11.685  0.7692 -3.1427 -4.0735
  893MOL0     H20510   6.540   5.271  11.730 -1.0487 -1.2794  1.4669
  893MOL0     H20511   6.266   5.392  11.758  3.0670  1.4637  1.6848
  893MOL0     H20512   6.305   5.211  11.783  2.6846 -1.4266 -1.3926
  893MOL0     H20513   6.347   5.326  11.517 -1.3748  2.6273  0.1650
  893MOL0     H20514   6.186   5.280  11.583 -0.0941 -1.5912 -0.0020
  893MOL0     H20515   6.231   5.252  11.342 -1.1680 -0.8579 -0.8021
  893MOL0     H20516   6.247   5.147  11.108  1.5262  1.2902  0.6515
  893MOL0     H20517   6.391   4.714  10.815 -2.1676 -4.6149 -3.1449
  893MOL0     H20518   6.385   4.660  10.602  2.3012  0.1973 -1.0893
  893MOL0     H20519   6.432   4.656  10.360  0.5829 -0.7159  0.6792
  893MOL0     H20520   6.270   4.609  10.382 -2.3395  0.2614 -2.5856
  893MOL0     H20521   6.218   4.691  10.147 -2.1027 -2.9038  0.8926
  893MOL0     H20522   6.387   4.729  10.133 -3.2136  1.1942 -1.3430
  893MOL0     H20523   6.452   4.488  10.158 -0.2767 -2.4923 -2.1453
  893MOL0     H20524   6.309   4.454  10.237  2.0131 -4.9511 -1.8282
  893MOL0     H20525   6.377   4.392   9.988 -1.2093 -3.8751  2.9593
  893MOL0     H20526   6.299   4.549   9.948 -4.8278  1.6874  2.5116
  893MOL0     H20527   6.141   4.376   9.933  0.9996  1.6633 -0.9490
  893MOL0     H20528   6.102   4.433  10.098 -1.0290 -2.7684  0.7291
  893MOL0     H20529   6.212   4.284  10.221  2.6192  1.9879 -0.9310
  893MOL0     H20530   6.095   4.199  10.114 -0.1890 -1.3462 -0.0336
  893MOL0     H20531   6.391   4.204  10.081 -0.0716 -0.3060  4.5142
  893MOL0     H20532   6.283   4.129   9.957 -2.1686 -2.3400  0.4593
  893MOL0     H20533   6.348   4.057  10.249 -1.5276  2.0637 -0.3623
  893MOL0     H20534   6.224   3.975  10.154 -1.1944  0.7712 -2.6879
  893MOL0     H20535   6.247   5.043  10.483  0.4034  1.2944  0.9059
  893MOL0     H20536   6.236   5.110  10.726 -1.5284 -1.0081  0.6386
  893MOL0     H20537   6.320   4.778  11.276 -0.2846  1.0655 -1.6486
  893MOL0     H20538   6.368   4.891  11.497  1.5325  1.5262 -0.0979
  893MOL0     H20539   6.666   6.517  11.498 -0.3567 -0.0495  0.1161
  893MOL0     H20540   6.445   6.573  11.462  0.2815  1.0324 -0.2466
  893MOL0     H20541   6.028   6.315  11.331  0.4666  0.6339  0.2757
  893MOL0     H20542   5.922   6.262  11.127 -2.3813  0.7026 -0.9620
  893MOL0     H20543   5.731   6.334  10.996  1.4449 -0.3137  1.5131
  893MOL0     H20544   5.844   6.244  10.900  0.1818  0.7091 -0.9524
  893MOL0     H20545   5.769   6.371  10.697 -2.5168  0.2871 -0.4213
  893MOL0     H20546   5.669   6.459  10.795  2.1355  1.3339 -0.0537
  893MOL0     H20547   5.565   6.222  10.869 -2.1602 -0.1188  0.0433
  893MOL0     H20548   5.670   6.157  10.733  1.0649  0.3459  2.1465
  893MOL0     H20549   5.446   6.358  10.702  1.2466  0.2740  2.9129
  893MOL0     H20550   5.557   6.281  10.576 -2.0196  0.0388 -1.5650
  893MOL0     H20551   5.302   5.969  10.599  2.0533 -2.3399  2.9103
  893MOL0     H20552   6.030   6.659  10.999  4.0190  1.4583  1.7343
  893MOL0     H20553   6.163   6.792  11.243  1.7355  1.9717 -1.5919
  893MOL0     H20554   6.306   6.678  11.216 -1.3033 -2.3748  0.4272
  893MOL0     H20555   6.216   6.741  11.075  3.0957 -0.7682 -1.0085
  894MOL0     O20556   6.868   6.848   1.669 -0.2355  0.1629  0.1942
  894MOL0     C20557   6.939   6.943   1.643  0.2705  0.8665  0.6741
  894MOL0     O20558   6.932   7.062   1.689 -0.5125  0.3317 -0.1611
  894MOL0     C20559   6.812   7.099   1.745 -0.4726  0.8180 -0.5741
  894MOL0     C20560   6.702   7.130   1.665 -0.0092  1.0851  0.8863
  894MOL0     C20561   6.569   7.149   1.723  0.2030  0.2049 -0.4863
  894MOL0     C20562   6.553   7.130   1.860  0.1981  0.9254  0.8669
  894MOL0     O20563   6.432   7.119   1.916  0.4090  0.0637 -0.5530
  894MOL0     C20564   6.317   7.133   1.826 -0.1408 -0.4522  0.4279
  894MOL0     C20565   6.188   7.118   1.906 -0.3996 -0.4044 -1.1449
  894MOL0     C20566   6.163   7.215   2.021  0.4244 -0.5920 -0.2603
  894MOL0     C20567   6.045   7.180   2.103  0.2900  0.1057 -0.9890
  894MOL0     C20568   6.063   7.061   2.197  0.2603  0.1207 -0.3009
  894MOL0     C20569   5.943   7.053   2.285  1.0923  0.9621 -0.3271
  894MOL0     C20570   5.942   6.907   2.338  0.7066 -0.2790 -0.5212
  894MOL0     C20571   6.062   6.866   2.432  0.5189 -0.8810 -0.5624
  894MOL0     N20572   6.053   6.940   2.555  1.0698 -0.6433 -0.3384
  894MOL0     C20573   6.046   6.878   2.681  0.6995 -0.4336  0.3011
  894MOL0     C20574   6.063   6.981   2.767  0.3053 -1.0476 -0.1214
  894MOL0     C20575   6.061   6.962   2.920  0.4472  0.0591 -0.0519
  894MOL0     C20576   6.032   7.088   2.990 -0.8757 -0.0057 -0.1313
  894MOL0     C20577   5.906   7.177   2.953 -0.5727 -0.7592 -0.1211
  894MOL0     C20578   5.769   7.118   2.972  0.2121  1.1138 -0.3695
  894MOL0     O20579   5.748   7.058   3.099  1.0042  0.2530  0.3580
  894MOL0     C20580   5.627   7.020   3.137 -0.0020 -0.9020 -0.3718
  894MOL0     C20581   5.517   7.021   3.056 -0.9120 -0.1824 -0.2463
  894MOL0     C20582   5.400   6.980   3.101  0.1469 -0.5798 -0.3126
  894MOL0     C20583   5.371   6.946   3.228 -0.0309  0.6452 -0.6489
  894MOL0     C20584   5.234   6.894   3.263  0.6701  0.2982 -0.0103
  894MOL0     O20585   5.216   6.872   3.403 -0.5217  0.0830  0.4181
  894MOL0     C20586   5.107   6.812   3.456  0.0418 -1.2267  0.2577
  894MOL0     C20587   5.053   6.694   3.403  0.1531 -0.4995  0.6200
  894MOL0     C20588   4.930   6.644   3.447 -1.0262  0.4606  0.4053
  894MOL0     C20589   4.850   6.704   3.546 -0.3424  0.5259  1.0977
  894MOL0     O20590   4.726   6.655   3.567 -0.9896 -0.1968  0.1090
  894MOL0     C20591   4.654   6.685   3.689 -0.4349  0.3347  0.6909
  894MOL0     C20592   4.708   6.602   3.801  1.0364  1.1816 -0.1130
  894MOL0     C20593   4.644   6.632   3.929 -0.2851  0.2096 -1.0949
  894MOL0     C20594   4.672   6.524   4.040 -0.4365  0.9416 -0.9404
  894MOL0     C20595   4.632   6.569   4.182  0.6184  0.1172  0.6489
  894MOL0     C20596   4.485   6.575   4.201 -0.3681  0.2487 -0.5629
  894MOL0     C20597   4.450   6.589   4.351  0.4795 -0.5432 -0.4556
  894MOL0     C20598   4.320   6.669   4.379  1.1141 -0.0458 -0.3520
  894MOL0    Cl20599   4.179   6.610   4.275  0.0888 -0.1473 -0.1365
  894MOL0     C20600   4.911   6.821   3.610 -0.7591  0.0749  1.3411
  894MOL0     C20601   5.040   6.870   3.565  0.1299  0.9184 -0.0119
  894MOL0     O20602   5.152   6.867   3.183 -0.1806  0.3468  0.2969
  894MOL0     C20603   5.486   6.941   3.322 -0.8402 -0.3849  0.6820
  894MOL0     C20604   5.609   6.986   3.269  0.4617 -0.1960 -0.6439
  894MOL0     N20605   6.094   7.101   2.694 -0.2035  0.1491 -0.2937
  894MOL0     N20606   6.082   7.072   2.567  0.0333  0.5400 -0.2314
  894MOL0     C20607   6.667   7.097   1.940  0.5323 -0.4430 -0.5634
  894MOL0     C20608   6.797   7.085   1.881  0.4758 -0.1785 -1.2672
  894MOL0     C20609   7.062   6.915   1.563  0.1619  0.4306  0.2229
  894MOL0     C20610   7.164   7.016   1.556 -0.1365 -0.3014  0.3694
  894MOL0     C20611   7.259   7.008   1.458  0.0712  0.0697 -0.1307
  894MOL0     C20612   7.272   6.900   1.368  1.4416 -0.5696  0.0020
  894MOL0     O20613   7.372   6.919   1.281 -1.0027  0.2031  0.2918
  894MOL0     C20614   7.398   6.824   1.178 -0.0003  0.1702  0.1415
  894MOL0     C20615   7.520   6.735   1.214 -0.1282 -0.3588 -0.3562
  894MOL0     C20616   7.594   6.659   1.087 -0.9255 -0.1003  0.5745
  894MOL0     C20617   7.520   6.534   1.031  0.1443 -0.9979  0.6650
  894MOL0     C20618   7.369   6.540   1.009 -0.2463 -0.1591 -0.3092
  894MOL0     C20619   7.251   6.548   1.011 -0.4841 -0.0339 -0.7825
  894MOL0     C20620   7.177   6.806   1.371  0.7345  0.8686 -0.2325
  894MOL0     C20621   7.076   6.809   1.470  1.0312  0.6247  0.1976
  894MOL0     C20622   6.980   6.696   1.463  0.2624 -0.5409  0.3109
  894MOL0     H20623   6.711   7.136   1.557 -0.4588  2.6916  0.9068
  894MOL0     H20624   6.480   7.160   1.663 -1.5137 -4.5370  0.7615
  894MOL0     H20625   6.319   7.232   1.781  1.2732 -1.0054 -0.8192
  894MOL0     H20626   6.318   7.059   1.746  1.0877  0.3158 -0.2999
  894MOL0     H20627   6.173   7.016   1.942 -3.7980  0.6583  0.9684
  894MOL0     H20628   6.113   7.132   1.827 -2.4682  0.3164  0.8306
  894MOL0     H20629   6.145   7.315   1.981 -1.4911 -0.0411  1.7564
  894MOL0     H20630   6.246   7.237   2.089  1.1210  0.8586 -1.5314
  894MOL0     H20631   6.030   7.274   2.156 -2.3896 -0.3152 -0.8387
  894MOL0     H20632   5.962   7.157   2.035 -0.4858 -4.8280  1.1788
  894MOL0     H20633   6.087   6.972   2.138  1.0721 -0.6574  1.1589
  894MOL0     H20634   6.144   7.085   2.266 -1.8200 -0.9625  2.7397
  894MOL0     H20635   5.960   7.126   2.365 -0.5403  2.0465 -0.9104
  894MOL0     H20636   5.847   7.075   2.238  0.3495  0.0776  0.7094
  894MOL0     H20637   5.930   6.835   2.258  3.1007 -2.9388  1.3109
  894MOL0     H20638   5.862   6.886   2.409  1.5085  1.2799  0.9414
  894MOL0     H20639   6.050   6.760   2.455 -3.8676 -0.3453  0.3094
  894MOL0     H20640   6.158   6.876   2.380  1.2726  2.3777  1.1716
  894MOL0     H20641   6.029   6.773   2.703  2.6265 -0.7589  0.4331
  894MOL0     H20642   5.991   6.883   2.947 -0.6902  1.1016  0.1768
  894MOL0     H20643   6.163   6.930   2.941  0.5966 -0.2620 -1.1896
  894MOL0     H20644   6.030   7.068   3.098 -2.0679  2.1715  0.3111
  894MOL0     H20645   6.118   7.153   2.973  0.5235 -1.0176  2.5377
  894MOL0     H20646   5.906   7.219   2.852  1.8633  1.3654  0.6665
  894MOL0     H20647   5.921   7.264   3.018 -2.3249 -1.0132  0.6696
  894MOL0     H20648   5.758   7.042   2.894 -0.2368  0.8692 -0.0766
  894MOL0     H20649   5.701   7.202   2.953 -0.9926  0.3599  0.4036
  894MOL0     H20650   5.530   7.059   2.956 -3.0221 -1.9310 -1.2563
  894MOL0     H20651   5.318   6.982   3.030 -1.2275 -0.0016  1.2208
  894MOL0     H20652   5.087   6.653   3.308 -0.2246  1.1019 -0.2348
  894MOL0     H20653   4.885   6.556   3.403 -0.2978 -0.1272  0.8127
  894MOL0     H20654   4.663   6.792   3.711  0.7076 -0.0789  2.4144
  894MOL0     H20655   4.546   6.671   3.676 -0.1804 -3.6648  1.6048
  894MOL0     H20656   4.705   6.494   3.785  0.7033  1.2607 -0.6124
  894MOL0     H20657   4.815   6.624   3.808  1.0269  0.7898  1.6414
  894MOL0     H20658   4.685   6.728   3.963  0.4386 -1.0220  1.7808
  894MOL0     H20659   4.536   6.643   3.914 -0.8128 -2.5096  0.0696
  894MOL0     H20660   4.778   6.500   4.046 -0.5226  0.1620 -2.1457
  894MOL0     H20661   4.614   6.435   4.016 -0.8996  0.6590  1.0749
  894MOL0     H20662   4.669   6.671   4.195  0.5774  0.3521 -0.9218
  894MOL0     H20663   4.682   6.500   4.251  1.4968  2.5235  2.5644
  894MOL0     H20664   4.440   6.661   4.152  1.0849  3.3013  3.0277
  894MOL0     H20665   4.450   6.476   4.168  2.3850 -1.0567  0.1206
  894MOL0     H20666   4.531   6.637   4.405  0.4523  0.6897 -1.4716
  894MOL0     H20667   4.448   6.489   4.396 -0.6389  0.4960  2.0029
  894MOL0     H20668   4.289   6.663   4.484 -0.4714  0.0228 -0.7817
  894MOL0     H20669   4.346   6.769   4.346  1.9086 -0.5296 -1.2439
  894MOL0     H20670   4.871   6.886   3.687 -0.3733  1.5649  0.3337
  894MOL0     H20671   5.077   6.959   3.614  0.6666 -0.7838  2.9383
  894MOL0     H20672   5.480   6.906   3.425  1.1704 -2.3682  0.2078
  894MOL0     H20673   5.689   7.004   3.339 -1.4529  0.4005  1.5161
  894MOL0     H20674   6.657   7.087   2.048 -0.4199  0.7470 -0.5257
  894MOL0     H20675   6.877   7.042   1.940 -2.9355 -1.3390  3.0552
  894MOL0     H20676   7.154   7.110   1.610  1.2868 -0.4237  0.8830
  894MOL0     H20677   7.326   7.091   1.438  1.7029 -0.0687  3.9055
  894MOL0     H20678   7.433   6.874   1.088  0.6042  1.4764  1.0743
  894MOL0     H20679   7.319   6.752   1.155 -0.6911  0.3825  1.7314
  894MOL0     H20680   7.493   6.658   1.287 -0.6831  1.0591  0.9660
  894MOL0     H20681   7.600   6.800   1.250  0.8418 -2.4770  1.5860
  894MOL0     H20682   7.700   6.645   1.111 -0.3000  0.9199 -1.3701
  894MOL0     H20683   7.607   6.729   1.004 -0.1668 -0.4464  0.3942
  894MOL0     H20684   7.564   6.491   0.941 -0.4262 -1.2660  0.5116
  894MOL0     H20685   7.524   6.453   1.104  2.7608  0.2301  2.0045
  894MOL0     H20686   7.145   6.532   1.015 -0.2089 -1.9539  0.3339
  894MOL0     H20687   7.163   6.725   1.300 -3.0232  0.9711  0.1952
  894MOL0     H20688   6.877   6.721   1.437  0.0315  1.0748  2.4802
  894MOL0     H20689   7.001   6.627   1.380 -1.9587 -0.4783 -0.3596
  894MOL0     H20690   6.972   6.645   1.559 -3.0546 -0.1692  0.3480
  895MOL0     O20691   4.107   0.309   4.642  0.2879 -0.3302  0.4531
  895MOL0     C20692   4.037   0.405   4.620  0.6741 -0.2145  0.3715
  895MOL0     O20693   4.035   0.513   4.690  0.1220 -0.9963 -0.7391
  895MOL0     C20694   4.107   0.536   4.803 -0.6564  1.2684 -0.0539
  895MOL0     C20695   4.146   0.431   4.897  0.7037 -0.4276  0.0517
  895MOL0     C20696   4.208   0.454   5.008  0.5783  0.8291 -0.3986
  895MOL0     C20697   4.238   0.591   5.044 -0.6484 -0.2141 -1.2321
  895MOL0     O20698   4.276   0.621   5.174 -0.6380 -0.3078 -0.4482
  895MOL0     C20699   4.372   0.728   5.182  0.6302 -0.4391  0.3396
  895MOL0     C20700   4.307   0.841   5.255 -0.0496 -0.7441  0.4705
  895MOL0     C20701   4.295   0.794   5.390 -0.0421  0.6148 -0.6958
  895MOL0     C20702   4.234   0.917   5.469  0.3386 -0.5115  0.2314
  895MOL0     C20703   4.255   0.924   5.620  0.0990 -0.3544 -0.6497
  895MOL0     C20704   4.178   1.045   5.675 -0.3326  0.6607 -0.7922
  895MOL0     C20705   4.187   1.061   5.830  0.1337 -0.0279  0.1460
  895MOL0     C20706   4.093   0.976   5.911 -0.1337 -0.8816  0.0030
  895MOL0     N20707   4.087   1.031   6.052 -0.5520 -0.1710 -0.2623
  895MOL0     C20708   4.187   1.089   6.130  0.3986 -0.4035 -0.4724
  895MOL0     C20709   4.119   1.132   6.239 -0.0642 -0.9177 -0.1502
  895MOL0     C20710   4.197   1.206   6.357  0.9025  0.2860  0.3620
  895MOL0     C20711   4.195   1.355   6.350  0.2018  0.1453 -0.3863
  895MOL0     C20712   4.224   1.437   6.482  0.3083  0.1162 -0.0329
  895MOL0     C20713   4.214   1.580   6.475 -0.7685  0.1091  0.4031
  895MOL0     O20714   4.081   1.631   6.449 -0.2627 -0.6849  0.7359
  895MOL0     C20715   4.073   1.776   6.447 -0.3918  1.2733 -1.1892
  895MOL0     C20716   3.940   1.836   6.436 -0.7516  0.6252  0.1929
  895MOL0     C20717   3.929   1.978   6.434 -0.2073 -0.0669 -0.2764
  895MOL0     C20718   4.041   2.064   6.454  0.0668  0.5355  1.0510
  895MOL0     C20719   4.020   2.210   6.466 -0.1260  1.3509  0.1844
  895MOL0     O20720   4.129   2.274   6.522  0.1178 -0.2075 -0.0038
  895MOL0     C20721   4.132   2.407   6.511  0.9273  0.6808 -0.1257
  895MOL0     C20722   4.076   2.477   6.406 -0.6887  0.8183  0.1671
  895MOL0     C20723   4.084   2.614   6.384 -0.3612 -0.4405  0.0187
  895MOL0     C20724   4.162   2.688   6.474 -0.1419 -0.2333 -0.1805
  895MOL0     O20725   4.181   2.822   6.442  0.3219  1.1860  0.6665
  895MOL0     C20726   4.320   2.867   6.434  0.1905 -0.0431  0.1544
  895MOL0     C20727   4.402   2.794   6.330  0.3466  1.5557 -0.2570
  895MOL0     C20728   4.535   2.868   6.306  0.4524  1.0275  0.4526
  895MOL0     C20729   4.621   2.791   6.201  0.1046 -0.3753  0.6917
  895MOL0     C20730   4.755   2.861   6.181  0.8440 -0.6731 -0.4016
  895MOL0     C20731   4.818   2.797   6.048  0.3634  0.0959  0.6815
  895MOL0     C20732   4.931   2.681   6.089  0.5868 -0.0855 -1.0783
  895MOL0     C20733   4.873   2.554   6.154  0.8210 -0.8423  0.3880
  895MOL0    Cl20734   4.769   2.464   6.036 -0.0518  0.1995 -0.2744
  895MOL0     C20735   4.233   2.625   6.573 -0.6780 -1.0397 -0.1918
  895MOL0     C20736   4.217   2.488   6.592 -0.3167 -0.4146  0.1295
  895MOL0     O20737   3.913   2.247   6.427  0.6098 -0.2714 -0.3011
  895MOL0     C20738   4.167   2.006   6.478 -0.4051  0.8092  0.4619
  895MOL0     C20739   4.186   1.862   6.477  0.3567 -0.0502  1.0569
  895MOL0     N20740   3.985   1.111   6.233 -0.0566  0.4786  0.4948
  895MOL0     N20741   3.977   1.058   6.117  0.2494  0.6139 -0.1374
  895MOL0     C20742   4.207   0.696   4.954  0.0637 -0.1917  0.4629
  895MOL0     C20743   4.146   0.663   4.831 -0.0058  0.3742  0.2807
  895MOL0     C20744   3.962   0.404   4.487 -0.5100 -0.6059 -0.5861
  895MOL0     C20745   3.938   0.281   4.426  0.2327 -0.0097  0.5864
  895MOL0     C20746   3.855   0.264   4.319  0.6255  0.0189  0.4166
  895MOL0     C20747   3.772   0.360   4.273 -0.1253 -0.2863 -0.5343
  895MOL0     O20748   3.705   0.351   4.158  0.9052  0.9654  0.1228
  895MOL0     C20749   3.583   0.423   4.124 -0.3284  0.5191 -0.5641
  895MOL0     C20750   3.484   0.382   4.237 -0.7269 -0.1430 -0.0351
  895MOL0     C20751   3.335   0.425   4.223 -0.4275 -0.5265  0.4808
  895MOL0     C20752   3.320   0.583   4.229 -1.3850 -0.1301  0.2988
  895MOL0     C20753   3.181   0.623   4.227 -0.2885 -0.1668 -0.4612
  895MOL0     C20754   3.076   0.679   4.242  0.3628 -0.1907 -0.0088
  895MOL0     C20755   3.787   0.486   4.333  0.0139 -0.4548  0.2437
  895MOL0     C20756   3.887   0.515   4.435  0.0300  0.3836 -0.1647
  895MOL0     C20757   3.903   0.667   4.483 -0.1693  0.5073  0.3244
  895MOL0     H20758   4.116   0.328   4.878 -0.8084 -0.3415  1.7913
  895MOL0     H20759   4.203   0.374   5.081 -1.4316  0.8866 -0.3946
  895MOL0     H20760   4.450   0.672   5.234 -0.0660 -2.5213 -0.7481
  895MOL0     H20761   4.420   0.753   5.086  0.1388  0.8857  0.4187
  895MOL0     H20762   4.214   0.874   5.209 -0.4303 -0.9153  1.1031
  895MOL0     H20763   4.377   0.924   5.261 -0.6572 -0.2110  0.2344
  895MOL0     H20764   4.392   0.756   5.424 -0.7061  0.3401  1.0181
  895MOL0     H20765   4.211   0.725   5.406 -1.0036  2.3518  2.9163
  895MOL0     H20766   4.269   1.009   5.422 -1.3820  0.2275  0.2969
  895MOL0     H20767   4.130   0.908   5.434  1.0142 -0.2766 -1.9950
  895MOL0     H20768   4.223   0.835   5.675 -2.0321  0.8251  0.1389
  895MOL0     H20769   4.362   0.934   5.643 -0.7042 -0.1775  4.0039
  895MOL0     H20770   4.232   1.134   5.639 -1.0155  1.4093 -0.0020
  895MOL0     H20771   4.072   1.057   5.650 -1.0498  1.4754  2.2867
  895MOL0     H20772   4.160   1.165   5.849  1.8412  0.1672  1.7302
  895MOL0     H20773   4.287   1.041   5.869  0.3086 -2.6787 -1.4311
  895MOL0     H20774   3.997   0.976   5.858  1.7427  0.1279 -3.7352
  895MOL0     H20775   4.151   0.884   5.919  2.6635  0.8573  1.1420
  895MOL0     H20776   4.291   1.083   6.099  1.2209  0.9123  1.8268
  895MOL0     H20777   4.148   1.174   6.449 -2.7344  1.4260 -1.0025
  895MOL0     H20778   4.297   1.160   6.358  0.4542 -0.7197  0.9666
  895MOL0     H20779   4.283   1.382   6.291  2.8304 -2.8859  1.8531
  895MOL0     H20780   4.102   1.385   6.300  0.0775 -2.2472 -1.6989
  895MOL0     H20781   4.318   1.402   6.525 -0.3839 -2.1642 -0.2243
  895MOL0     H20782   4.148   1.411   6.557 -2.9809  1.8238 -2.4936
  895MOL0     H20783   4.278   1.619   6.395 -0.5992 -0.8554  0.0554
  895MOL0     H20784   4.252   1.617   6.570  2.6851  0.3771 -0.9310
  895MOL0     H20785   3.858   1.767   6.415  0.6808 -0.9669 -0.3545
  895MOL0     H20786   3.834   2.024   6.407 -0.3178 -0.4973 -0.6384
  895MOL0     H20787   4.011   2.431   6.332 -0.5255  1.6270 -0.4861
  895MOL0     H20788   4.030   2.663   6.304  1.3809 -1.6209 -2.0250
  895MOL0     H20789   4.303   2.972   6.407 -4.2728 -0.2975  1.1704
  895MOL0     H20790   4.373   2.878   6.529  0.8933 -0.3209 -0.2022
  895MOL0     H20791   4.437   2.696   6.363  0.4677  0.7042 -2.7021
  895MOL0     H20792   4.337   2.770   6.245 -0.0946 -1.3151  0.7897
  895MOL0     H20793   4.515   2.967   6.266  2.4871  1.2587 -0.1035
  895MOL0     H20794   4.588   2.878   6.402 -1.6939  0.0920  1.8146
  895MOL0     H20795   4.560   2.792   6.110 -2.9892  1.7094  2.5924
  895MOL0     H20796   4.637   2.689   6.238  0.0495 -0.5663  0.1881
  895MOL0     H20797   4.819   2.843   6.268  1.2190  0.9660 -0.2981
  895MOL0     H20798   4.744   2.969   6.169  4.3572  0.1687  2.2801
  895MOL0     H20799   4.747   2.761   5.973  2.9405 -2.9708 -0.4804
  895MOL0     H20800   4.871   2.881   6.002 -1.5436 -0.1331 -2.1681
  895MOL0     H20801   5.009   2.717   6.155 -0.5198  0.9866 -0.3091
  895MOL0     H20802   4.988   2.651   6.000 -0.1956  3.4858 -2.9761
  895MOL0     H20803   4.957   2.487   6.173  0.6327 -1.0149  0.6195
  895MOL0     H20804   4.816   2.577   6.245 -0.0451 -3.3049  0.5256
  895MOL0     H20805   4.301   2.677   6.640  0.5837 -1.0939 -1.3801
  895MOL0     H20806   4.278   2.438   6.667  1.4491 -0.5185 -1.2961
  895MOL0     H20807   4.262   2.058   6.489 -0.2703  0.7431 -0.3513
  895MOL0     H20808   4.293   1.840   6.474  0.6107  1.1775 -1.6054
  895MOL0     H20809   4.233   0.800   4.972  0.0486 -0.2377  0.7448
  895MOL0     H20810   4.123   0.744   4.763 -0.8631 -1.6455 -1.9662
  895MOL0     H20811   3.999   0.195   4.451  2.1730  1.0915 -0.0587
  895MOL0     H20812   3.867   0.165   4.275  1.2524 -0.1472  0.9512
  895MOL0     H20813   3.543   0.391   4.027  0.6234 -0.1071 -0.7574
  895MOL0     H20814   3.593   0.532   4.135 -1.3910  0.5007  0.9561
  895MOL0     H20815   3.521   0.422   4.332  0.1463 -2.1633  0.5528
  895MOL0     H20816   3.487   0.273   4.247 -2.2277 -0.2055 -0.0228
  895MOL0     H20817   3.274   0.393   4.308 -0.3662  0.2428  0.8214
  895MOL0     H20818   3.298   0.396   4.124  1.1773  2.1066 -0.9996
  895MOL0     H20819   3.373   0.632   4.311  1.3902  2.6495 -2.9310
  895MOL0     H20820   3.370   0.612   4.137 -2.4990 -0.8880 -0.5836
  895MOL0     H20821   2.985   0.734   4.253  2.7893  3.9446  1.7023
  895MOL0     H20822   3.710   0.553   4.297 -0.9361 -1.4482  0.3957
  895MOL0     H20823   3.998   0.686   4.533 -0.9699  0.1823  2.0400
  895MOL0     H20824   3.897   0.739   4.401 -0.2424 -0.3858 -0.4762
  895MOL0     H20825   3.828   0.688   4.560 -0.5650  0.6095 -0.0837
  896MOL0     O20826   2.250  11.225   9.543  0.3868 -1.4254 -0.3696
  896MOL0     C20827   2.312  11.315   9.600  0.4565 -0.1171 -0.3716
  896MOL0     O20828   2.439  11.316   9.653  0.1186  0.1534  0.7016
  896MOL0     C20829   2.508  11.196   9.651  0.9654 -0.1309  0.4000
  896MOL0     C20830   2.623  11.197   9.575  0.2343 -0.6215 -0.6359
  896MOL0     C20831   2.706  11.080   9.569 -0.7354  0.6517  0.0761
  896MOL0     C20832   2.664  10.959   9.636 -0.2385  0.1769 -1.2279
  896MOL0     O20833   2.724  10.839   9.641 -0.2765  0.3072  0.3757
  896MOL0     C20834   2.854  10.837   9.569  0.6383  0.5442  0.7126
  896MOL0     C20835   2.974  10.886   9.643 -0.2117  0.0637  0.1655
  896MOL0     C20836   3.082  10.774   9.648 -0.0792 -0.5003 -0.7707
  896MOL0     C20837   3.193  10.806   9.753  0.3696  0.6297  1.2284
  896MOL0     C20838   3.327  10.717   9.744  0.1782  0.3531 -0.0616
  896MOL0     C20839   3.313  10.569   9.775  0.4960  0.7569  0.2135
  896MOL0     C20840   3.294  10.527   9.926  1.3870  0.5340 -0.2802
  896MOL0     C20841   3.428  10.503   9.984 -0.0607 -0.2072  0.2650
  896MOL0     N20842   3.480  10.372   9.940  0.2806 -0.1295 -0.5720
  896MOL0     C20843   3.593  10.348   9.865  0.6819  0.4856 -0.7334
  896MOL0     C20844   3.592  10.216   9.828 -0.5291  0.4541  0.6023
  896MOL0     C20845   3.690  10.135   9.750  0.1902  0.5546 -0.1596
  896MOL0     C20846   3.635  10.007   9.695  0.1379  1.4042  0.0212
  896MOL0     C20847   3.660   9.890   9.787  0.1283  1.1691 -0.0599
  896MOL0     C20848   3.602   9.751   9.732 -0.1825  0.7163  0.2727
  896MOL0     O20849   3.676   9.712   9.613 -0.3678  0.5033 -0.0154
  896MOL0     C20850   3.653   9.583   9.565 -0.1882  0.1489 -0.3214
  896MOL0     C20851   3.526   9.535   9.518  0.2338 -0.6350 -0.7871
  896MOL0     C20852   3.511   9.411   9.461  1.7125 -0.6008  0.2999
  896MOL0     C20853   3.622   9.331   9.437  0.3376 -0.3517 -0.5990
  896MOL0     C20854   3.619   9.212   9.356  0.0549  0.7590 -1.3049
  896MOL0     O20855   3.523   9.199   9.265  0.4880  0.4566 -0.0614
  896MOL0     C20856   3.521   9.098   9.170  1.0600  0.0053 -0.8296
  896MOL0     C20857   3.620   9.011   9.138  0.3348 -0.1833  0.6641
  896MOL0     C20858   3.586   8.901   9.043 -0.3267 -0.2142 -0.4578
  896MOL0     C20859   3.460   8.893   8.988  0.7025 -0.0037  0.5708
  896MOL0     O20860   3.410   8.782   8.918 -0.0833  0.4833 -0.9384
  896MOL0     C20861   3.494   8.687   8.850 -0.1108 -0.3669 -0.2096
  896MOL0     C20862   3.419   8.570   8.791  0.1203  0.3251 -0.4776
  896MOL0     C20863   3.312   8.601   8.685  0.6995 -0.5659 -0.4296
  896MOL0     C20864   3.162   8.586   8.730  0.1653  0.5370 -0.1219
  896MOL0     C20865   3.113   8.433   8.707 -0.5548 -0.5008  1.2125
  896MOL0     C20866   2.966   8.439   8.756  0.5138 -1.5456 -0.7515
  896MOL0     C20867   2.885   8.312   8.733  0.4212  0.5241 -0.1102
  896MOL0     C20868   2.938   8.190   8.801  0.1241 -0.2405 -0.4888
  896MOL0    Cl20869   2.975   8.227   8.979 -0.0936  0.4186  0.6142
  896MOL0     C20870   3.363   8.986   9.027  0.7508 -1.0322 -0.0578
  896MOL0     C20871   3.396   9.085   9.118  1.2065 -0.1673 -0.4545
  896MOL0     O20872   3.707   9.128   9.385 -0.3575 -0.3309 -0.4225
  896MOL0     C20873   3.741   9.376   9.499 -0.0669 -0.1760  0.0996
  896MOL0     C20874   3.761   9.499   9.559  0.2530 -0.8986  0.1453
  896MOL0     N20875   3.472  10.164   9.880 -0.2487 -0.6684 -0.3046
  896MOL0     N20876   3.414  10.254   9.938 -0.0732 -0.1540  0.6085
  896MOL0     C20877   2.559  10.967   9.721  0.6737 -0.9012  0.5086
  896MOL0     C20878   2.476  11.080   9.732 -0.5318  0.2018  0.3263
  896MOL0     C20879   2.247  11.442   9.625 -0.0303  0.3196  0.3953
  896MOL0     C20880   2.110  11.454   9.586  0.2311  0.1261 -0.2805
  896MOL0     C20881   2.031  11.559   9.630 -0.2804  1.0516  0.2571
  896MOL0     C20882   2.082  11.671   9.683  0.1366  0.5368 -0.0018
  896MOL0     O20883   2.000  11.773   9.726  0.5905 -0.2642 -0.0535
  896MOL0     C20884   2.055  11.899   9.691 -0.6066  0.0153  0.3308
  896MOL0     C20885   1.955  12.004   9.655  0.4080  0.6883  0.1944
  896MOL0     C20886   2.013  12.146   9.662 -0.2771  0.4120  0.3627
  896MOL0     C20887   2.066  12.179   9.803  0.2449  0.1632  0.2656
  896MOL0     C20888   2.023  12.318   9.844  0.1951  0.2523 -1.1761
  896MOL0     C20889   1.974  12.421   9.880  0.2356 -0.5997 -0.0295
  896MOL0     C20890   2.218  11.661   9.717  0.5022  0.1616  0.3064
  896MOL0     C20891   2.306  11.560   9.684 -0.4813 -0.6268  0.2448
  896MOL0     C20892   2.443  11.575   9.734  0.1499 -0.5392 -0.0760
  896MOL0     H20893   2.652  11.286   9.521 -4.5597  0.1213 -2.4793
  896MOL0     H20894   2.791  11.083   9.501  1.3409 -2.6080  2.2842
  896MOL0     H20895   2.871  10.733   9.541 -0.0839  0.9956 -1.5722
  896MOL0     H20896   2.845  10.884   9.471 -1.9354  0.0294  0.6380
  896MOL0     H20897   2.944  10.912   9.744  1.6094  1.4636  0.4075
  896MOL0     H20898   3.020  10.975   9.598 -3.0736  2.4740  1.6203
  896MOL0     H20899   3.119  10.757   9.547  1.6566 -2.7764  0.1663
  896MOL0     H20900   3.036  10.682   9.686 -2.3515 -0.0020 -2.1455
  896MOL0     H20901   3.220  10.911   9.758 -3.8115  1.8398  5.0627
  896MOL0     H20902   3.149  10.794   9.853 -1.3499 -0.7530  0.3745
  896MOL0     H20903   3.373  10.738   9.647  0.5604  0.9902  0.2516
  896MOL0     H20904   3.400  10.757   9.815 -0.9917 -1.3546  2.2372
  896MOL0     H20905   3.232  10.520   9.719  0.9554 -1.3414  1.2892
  896MOL0     H20906   3.406  10.524   9.739  2.1662  0.6757  4.1237
  896MOL0     H20907   3.229  10.440   9.932 -2.1600  2.8934 -1.1285
  896MOL0     H20908   3.255  10.614   9.980  0.7161 -0.1994  0.4311
  896MOL0     H20909   3.501  10.580   9.957  2.3272 -1.8939  1.5931
  896MOL0     H20910   3.427  10.506  10.093  2.0272 -1.5322  0.3688
  896MOL0     H20911   3.668  10.423   9.843  0.7224  0.0134 -2.3797
  896MOL0     H20912   3.727  10.204   9.673  0.1080  1.9843  1.0412
  896MOL0     H20913   3.783  10.119   9.804  1.0033 -0.7581 -1.8698
  896MOL0     H20914   3.529  10.018   9.669 -0.5483 -0.3978  1.8268
  896MOL0     H20915   3.683   9.985   9.599 -0.5332  2.4651 -0.5829
  896MOL0     H20916   3.617   9.914   9.884 -2.6072 -3.5881  0.1958
  896MOL0     H20917   3.769   9.884   9.795  0.0691 -3.7861 -0.1056
  896MOL0     H20918   3.499   9.772   9.701 -0.4002  0.0860  0.5406
  896MOL0     H20919   3.597   9.672   9.808 -1.9125 -1.0099 -1.4936
  896MOL0     H20920   3.433   9.591   9.527 -0.6528 -1.9813 -1.1179
  896MOL0     H20921   3.414   9.379   9.422  0.6448  1.0046  1.5172
  896MOL0     H20922   3.721   9.017   9.178  0.2582  4.2950  0.7086
  896MOL0     H20923   3.660   8.822   9.037  1.0289  0.7647  1.9305
  896MOL0     H20924   3.548   8.748   8.777  1.4193  2.3633  2.9869
  896MOL0     H20925   3.571   8.647   8.916 -1.1955 -0.9233  0.7477
  896MOL0     H20926   3.498   8.508   8.747 -0.2648 -1.4701  1.2223
  896MOL0     H20927   3.377   8.507   8.870  0.0735  0.0790 -0.6962
  896MOL0     H20928   3.322   8.708   8.664  2.4132 -0.2459  1.6562
  896MOL0     H20929   3.334   8.539   8.597  1.5690 -1.1084  0.1559
  896MOL0     H20930   3.098   8.641   8.661 -3.5534 -2.3013  0.7927
  896MOL0     H20931   3.134   8.616   8.832  1.5163  1.4050  0.0370
  896MOL0     H20932   3.177   8.359   8.756 -0.2098 -2.0536 -1.4414
  896MOL0     H20933   3.117   8.398   8.604 -1.7444  2.6117 -0.0241
  896MOL0     H20934   2.959   8.477   8.858  2.3899  0.7905 -1.4067
  896MOL0     H20935   2.918   8.513   8.691  0.3450 -2.4350 -1.6662
  896MOL0     H20936   2.890   8.300   8.625  1.8203 -1.0465  0.0913
  896MOL0     H20937   2.784   8.336   8.768  1.8302  3.4890  2.3444
  896MOL0     H20938   2.867   8.107   8.795 -0.8923  0.1750  3.2805
  896MOL0     H20939   3.035   8.165   8.755 -0.4742  1.0783 -2.5809
  896MOL0     H20940   3.268   8.995   8.974  1.5177 -1.6541 -1.5919
  896MOL0     H20941   3.322   9.162   9.139  0.4736 -1.1341  0.7084
  896MOL0     H20942   3.830   9.314   9.497 -0.3691 -0.7970  2.5091
  896MOL0     H20943   3.859   9.534   9.588  0.3378 -1.7460  0.9341
  896MOL0     H20944   2.526  10.878   9.773 -0.7466 -0.0926  1.0480
  896MOL0     H20945   2.390  11.083   9.797 -1.2660  2.9934 -0.6237
  896MOL0     H20946   2.050  11.374   9.545 -0.9270  1.9319 -2.2878
  896MOL0     H20947   1.925  11.557   9.608  0.2418  1.5530 -2.8025
  896MOL0     H20948   2.120  11.887   9.604 -1.1946 -1.8199  0.1029
  896MOL0     H20949   2.115  11.921   9.780 -0.7444 -2.7060  1.2086
  896MOL0     H20950   1.866  11.995   9.718  2.3051 -0.2938  2.9296
  896MOL0     H20951   1.914  11.997   9.554 -1.9107  2.2811  0.9497
  896MOL0     H20952   1.943  12.224   9.632  3.2635  3.3729 -0.8367
  896MOL0     H20953   2.100  12.157   9.597  1.5277 -0.1596  2.5443
  896MOL0     H20954   2.031  12.108   9.879 -0.3609  1.8636  1.6398
  896MOL0     H20955   2.175  12.175   9.807  0.5511  2.4052 -2.6504
  896MOL0     H20956   1.928  12.514   9.909  1.1719 -0.0338 -0.3257
  896MOL0     H20957   2.247  11.756   9.760  1.9319  1.2093 -2.7006
  896MOL0     H20958   2.457  11.516   9.826  0.4428  0.0682  0.2762
  896MOL0     H20959   2.514  11.551   9.655 -0.0856  2.3263 -1.2802
  896MOL0     H20960   2.469  11.678   9.761 -1.0650 -0.2671  0.0957
  897MOL0     O20961   0.363   9.616  11.480  0.6147  0.5067  0.5028
  897MOL0     C20962   0.241   9.592  11.495 -0.2165  0.2868  0.1207
  897MOL0     O20963   0.170   9.627  11.599  0.5599 -0.9889 -0.7282
  897MOL0     C20964   0.225   9.719  11.685  0.0688 -0.6026  0.0982
  897MOL0     C20965   0.295   9.672  11.788  0.0520 -0.6858  0.2330
  897MOL0     C20966   0.370   9.763  11.866 -0.8957  0.2059 -0.4780
  897MOL0     C20967   0.369   9.901  11.839  0.5861  0.8580  0.1507
  897MOL0     O20968   0.444   9.976  11.914  0.9462 -1.3359  0.6756
  897MOL0     C20969   0.373  10.085  11.982  0.1709 -0.6546  0.1740
  897MOL0     C20970   0.253  10.035  12.067  0.8757  0.9402 -0.3194
  897MOL0     C20971   0.290   9.931  12.171 -0.7797 -0.0461 -1.0586
  897MOL0     C20972   0.188   9.930  12.293 -0.8881  0.3021 -0.6645
  897MOL0     C20973   0.216   9.808  12.390  0.2842 -0.3691  0.1094
  897MOL0     C20974   0.359   9.792  12.450  0.7028  0.5500  0.2749
  897MOL0     C20975   0.396   9.895  12.548 -0.4582  0.6073 -1.0184
  897MOL0     C20976   0.297   9.911  12.657 -0.7661  0.0527  0.0272
  897MOL0     N20977   0.349   9.971  12.770  0.2936 -0.5147 -0.9077
  897MOL0     C20978   0.399   9.909  12.879 -1.0668  0.1409  0.0736
  897MOL0     C20979   0.409   9.991  12.979 -0.3324  0.0517  0.2164
  897MOL0     C20980   0.480   9.959  13.103  0.9833  0.6601  0.5115
  897MOL0     C20981   0.630   9.976  13.087  0.6117  1.1639  0.2851
  897MOL0     C20982   0.667  10.120  13.105  0.0431  0.7701 -0.4132
  897MOL0     C20983   0.811  10.137  13.067  1.4081  0.5776 -0.2170
  897MOL0     O20984   0.841  10.109  12.924 -0.3275 -0.1059 -0.1149
  897MOL0     C20985   0.979  10.093  12.911  0.4545 -0.0819  0.2468
  897MOL0     C20986   1.060  10.016  12.987 -0.2786 -0.3771 -0.0904
  897MOL0     C20987   1.198  10.016  12.973  0.1066 -1.0881  0.1329
  897MOL0     C20988   1.258  10.095  12.881 -1.0780  0.0931  0.3494
  897MOL0     C20989   1.399  10.073  12.857 -0.3514  0.4138 -0.5605
  897MOL0     O20990   1.452  10.156  12.764  0.3065  0.1692  0.7566
  897MOL0     C20991   1.586  10.144  12.734 -0.6082  1.1788 -0.5445
  897MOL0     C20992   1.688  10.179  12.823 -0.8722 -0.5751  0.1000
  897MOL0     C20993   1.821  10.183  12.775  0.1760 -1.0771 -0.3990
  897MOL0     C20994   1.858  10.151  12.643  0.9880  0.2442 -0.6053
  897MOL0     O20995   1.983  10.138  12.596  0.2803  0.3985 -0.5080
  897MOL0     C20996   2.098  10.140  12.680  0.5722  0.0213  0.0699
  897MOL0     C20997   2.231  10.152  12.599 -1.1519 -0.0800 -1.0327
  897MOL0     C20998   2.255  10.027  12.516  0.2837 -0.7625  0.1087
  897MOL0     C20999   2.401  10.013  12.470 -1.4517 -0.2968 -0.3912
  897MOL0     C21000   2.435  10.112  12.355  0.4971 -0.1254 -0.6496
  897MOL0     C21001   2.585  10.131  12.325 -0.0355  0.5337 -0.1377
  897MOL0     C21002   2.622  10.176  12.185  0.4620  0.2852  0.3854
  897MOL0     C21003   2.775  10.172  12.186 -0.4443 -0.4199  0.0792
  897MOL0    Cl21004   2.827  10.293  12.315  0.5558  0.2223  0.1206
  897MOL0     C21005   1.758  10.121  12.554 -0.6586 -0.1867  0.4118
  897MOL0     C21006   1.625  10.106  12.599  0.7486 -0.9152 -0.5048
  897MOL0     O21007   1.468   9.983  12.914 -0.0318  0.2248 -0.3542
  897MOL0     C21008   1.182  10.174  12.797 -0.1329 -0.1563  0.1892
  897MOL0     C21009   1.040  10.180  12.811  0.4078 -0.7781 -0.2629
  897MOL0     N21010   0.368  10.115  12.934  0.4000 -0.0995 -0.1803
  897MOL0     N21011   0.325  10.099  12.810 -0.1058  0.0153 -0.2345
  897MOL0     C21012   0.289   9.950  11.730 -0.4818  0.0547 -0.6425
  897MOL0     C21013   0.223   9.855  11.650  0.1499 -0.9596  0.3058
  897MOL0     C21014   0.167   9.510  11.393  0.1488 -0.7745 -0.5099
  897MOL0     C21015   0.022   9.509  11.407 -1.3390 -0.1538 -0.7436
  897MOL0     C21016  -0.062   9.430  11.322  0.4865 -0.1528 -1.1281
  897MOL0     C21017  -0.001   9.368  11.207  0.4982 -0.0652 -0.1713
  897MOL0     O21018  -0.066   9.313  11.103  0.6661  1.2027  0.3476
  897MOL0     C21019  -0.203   9.286  11.128  0.0165 -0.2086 -1.3479
  897MOL0     C21020  -0.284   9.252  11.003 -0.3321 -0.4983 -0.2069
  897MOL0     C21021  -0.423   9.314  10.993 -0.0307 -0.7318  0.1312
  897MOL0     C21022  -0.529   9.212  11.048  0.4065  0.7226  0.5057
  897MOL0     C21023  -0.657   9.232  10.982  0.0226 -0.6434 -0.6708
  897MOL0     C21024  -0.759   9.246  10.916 -0.5341  0.6600 -0.6223
  897MOL0     C21025   0.143   9.376  11.189  0.3645  0.2269 -0.1372
  897MOL0     C21026   0.228   9.443  11.279  0.7172 -0.4702 -0.0169
  897MOL0     C21027   0.373   9.434  11.248  0.0311  0.0810  0.5524
  897MOL0     H21028   0.295   9.564  11.799 -1.5278 -0.6108  1.3949
  897MOL0     H21029   0.427   9.728  11.952  0.2259 -1.2023 -1.7376
  897MOL0     H21030   0.447  10.147  12.033 -1.2802  0.5606  0.8759
  897MOL0     H21031   0.330  10.160  11.916 -4.1928 -1.7258  1.4634
  897MOL0     H21032   0.183   9.984  12.000 -0.0166 -2.7208  3.0187
  897MOL0     H21033   0.199  10.119  12.112  1.3499  2.1537 -1.9211
  897MOL0     H21034   0.384   9.971  12.209 -2.1214  1.3741  1.0099
  897MOL0     H21035   0.300   9.829  12.132  0.2405 -0.8182  1.0246
  897MOL0     H21036   0.189  10.022  12.352 -0.6675  0.6812 -1.2515
  897MOL0     H21037   0.089   9.915  12.250 -0.7049 -2.0494 -0.4081
  897MOL0     H21038   0.143   9.809  12.472 -0.7061  0.1247 -0.7536
  897MOL0     H21039   0.189   9.716  12.338  0.7155  0.0942 -0.9471
  897MOL0     H21040   0.376   9.691  12.488  2.1745  1.0212  0.9361
  897MOL0     H21041   0.433   9.798  12.369  0.6556 -3.1057 -0.2071
  897MOL0     H21042   0.413   9.985  12.488 -0.5909  0.1378 -1.7675
  897MOL0     H21043   0.480   9.852  12.603 -2.5542 -1.8020  0.5211
  897MOL0     H21044   0.209   9.960  12.614 -0.7147 -2.0797 -2.7478
  897MOL0     H21045   0.265   9.810  12.684 -0.4645  0.1399  0.7318
  897MOL0     H21046   0.432   9.807  12.893  0.2594  0.0925 -2.6828
  897MOL0     H21047   0.447  10.035  13.175  0.9727 -1.9242  3.4624
  897MOL0     H21048   0.448   9.860  13.136  0.7227  0.5954  0.0730
  897MOL0     H21049   0.682   9.914  13.161 -0.9611 -0.8285 -0.1773
  897MOL0     H21050   0.652   9.935  12.988 -2.2407 -4.5567  1.5627
  897MOL0     H21051   0.658  10.138  13.213 -0.1704 -1.3181 -0.0494
  897MOL0     H21052   0.601  10.179  13.041  0.8013 -0.4030 -2.3528
  897MOL0     H21053   0.873  10.080  13.137  0.2537 -0.4568 -0.0115
  897MOL0     H21054   0.835  10.240  13.095 -4.9734  2.7023 -1.1224
  897MOL0     H21055   1.000   9.943  13.041 -2.4912 -1.7033 -3.9748
  897MOL0     H21056   1.252   9.948  13.038  2.0317 -0.4807 -0.7778
  897MOL0     H21057   1.671  10.221  12.921  0.4769 -1.8304  0.9091
  897MOL0     H21058   1.894  10.207  12.851 -0.6585 -3.3698  1.2312
  897MOL0     H21059   2.090  10.228  12.745 -1.3528 -0.2664  0.2683
  897MOL0     H21060   2.089  10.050  12.742  0.9222 -3.3271 -4.3098
  897MOL0     H21061   2.235  10.242  12.538 -1.1743  0.5568 -0.1081
  897MOL0     H21062   2.313  10.159  12.672  1.1129 -0.7918 -3.3543
  897MOL0     H21063   2.218   9.931  12.555  0.7557  0.1336  3.0168
  897MOL0     H21064   2.191  10.049  12.430  1.1581 -0.0891 -0.3835
  897MOL0     H21065   2.416   9.909  12.439 -1.2540 -1.0514  2.0196
  897MOL0     H21066   2.469  10.028  12.554  2.4455 -1.1488 -3.1465
  897MOL0     H21067   2.392  10.211  12.369 -2.5314 -1.2344 -1.3373
  897MOL0     H21068   2.379  10.067  12.272 -2.8335 -0.6664  1.6966
  897MOL0     H21069   2.605  10.213  12.394 -0.3106  0.6375 -0.1813
  897MOL0     H21070   2.642  10.041  12.352 -0.4870  0.2716 -0.0508
  897MOL0     H21071   2.586  10.278  12.169 -1.5061  0.2044  3.4815
  897MOL0     H21072   2.571  10.108  12.116  0.1727 -0.5909  1.4331
  897MOL0     H21073   2.814  10.070  12.199  0.0356 -0.2488  0.0208
  897MOL0     H21074   2.806  10.206  12.086  0.4927 -1.6218 -0.0608
  897MOL0     H21075   1.774  10.099  12.449 -3.8040  2.5526 -0.8120
  897MOL0     H21076   1.547  10.074  12.531 -0.7720  0.5608  0.4771
  897MOL0     H21077   1.223  10.225  12.710 -0.5371 -0.3964 -0.1473
  897MOL0     H21078   0.984  10.231  12.733  1.2837 -2.1656 -1.8651
  897MOL0     H21079   0.294  10.055  11.706 -1.9471 -0.0974 -1.8115
  897MOL0     H21080   0.175   9.893  11.561  1.3496 -0.9161 -0.3292
  897MOL0     H21081  -0.007   9.563  11.497  1.4015  0.7183 -0.2921
  897MOL0     H21082  -0.168   9.408  11.337  0.2785  0.7500 -1.2038
  897MOL0     H21083  -0.245   9.380  11.166  2.3742 -0.1242  1.3816
  897MOL0     H21084  -0.219   9.210  11.205 -0.1525 -0.9846 -2.1329
  897MOL0     H21085  -0.296   9.144  10.993  0.6332 -0.5244 -1.3123
  897MOL0     H21086  -0.215   9.280  10.923 -0.3508 -0.3445 -0.1687
  897MOL0     H21087  -0.454   9.334  10.890 -0.7354  0.4117  0.5564
  897MOL0     H21088  -0.421   9.411  11.042 -0.7230  0.1921 -1.5540
  897MOL0     H21089  -0.504   9.106  11.046 -3.6966 -0.4109 -0.4884
  897MOL0     H21090  -0.534   9.240  11.154  0.9266 -0.4664  0.8500
  897MOL0     H21091  -0.842   9.278  10.857  1.3850  1.7240 -2.9116
  897MOL0     H21092   0.193   9.296  11.136  2.0557  2.0909 -1.5055
  897MOL0     H21093   0.390   9.386  11.151  2.5250 -0.0320  0.9847
  897MOL0     H21094   0.407   9.537  11.234 -1.1748  0.7483  2.1833
  897MOL0     H21095   0.427   9.379  11.324  0.6945 -1.8999 -1.2594
  898MOL0     O21096   4.390   9.947   5.932  0.0761 -0.0340  0.6004
  898MOL0     C21097   4.456   9.864   5.998 -0.9427 -1.1799 -0.2640
  898MOL0     O21098   4.504   9.884   6.126 -0.3873  0.7921  0.6421
  898MOL0     C21099   4.478   9.998   6.195  0.0727 -0.4759 -0.8043
  898MOL0     C21100   4.349  10.034   6.239 -0.3932  0.1833  0.7299
  898MOL0     C21101   4.329  10.133   6.332 -0.3437 -0.4426  0.2984
  898MOL0     C21102   4.426  10.217   6.387  0.0849  1.2123  0.0228
  898MOL0     O21103   4.394  10.321   6.471 -0.2333 -0.1711 -0.0717
  898MOL0     C21104   4.489  10.430   6.475  0.3595  0.6881 -0.3928
  898MOL0     C21105   4.426  10.540   6.554 -0.5931  0.3473 -0.3975
  898MOL0     C21106   4.267  10.555   6.557 -0.1993 -0.2010 -0.9818
  898MOL0     C21107   4.224  10.667   6.646 -0.5729 -0.0648 -0.0601
  898MOL0     C21108   4.228  10.805   6.582  0.1169  0.4099 -0.0276
  898MOL0     C21109   4.114  10.826   6.480 -0.9779 -0.2559 -0.1754
  898MOL0     C21110   4.128  10.953   6.393  0.2101 -0.2868  0.1449
  898MOL0     C21111   4.051  10.945   6.264  0.3865  0.0112  0.4457
  898MOL0     N21112   4.045  10.823   6.182  0.5533  1.1012 -0.2176
  898MOL0     C21113   4.149  10.772   6.103 -0.3968  1.0580 -1.1568
  898MOL0     C21114   4.101  10.644   6.069  0.4386 -0.4153  0.7298
  898MOL0     C21115   4.149  10.547   5.973  0.1635 -0.1739  0.6489
  898MOL0     C21116   4.206  10.418   6.031 -0.3417 -0.0928 -0.7205
  898MOL0     C21117   4.115  10.340   6.124  0.0986  0.4549 -0.0451
  898MOL0     C21118   3.980  10.312   6.067 -0.5064  0.4336  0.5273
  898MOL0     O21119   3.974  10.204   5.971  0.2909 -0.0149  0.9792
  898MOL0     C21120   3.850  10.147   5.940  0.6353 -0.0541 -0.4040
  898MOL0     C21121   3.861  10.040   5.862 -0.9124  0.2312 -0.1697
  898MOL0     C21122   3.757   9.981   5.795 -0.0291  0.2680 -0.2289
  898MOL0     C21123   3.626  10.028   5.822  0.5527  1.1281  0.2266
  898MOL0     C21124   3.503   9.975   5.762  0.3461 -0.9462 -0.3675
  898MOL0     O21125   3.517   9.890   5.652  0.5932 -0.3145 -0.3274
  898MOL0     C21126   3.406   9.821   5.615  0.1810  0.6013  0.4384
  898MOL0     C21127   3.347   9.850   5.491 -0.6747 -0.6007  0.5807
  898MOL0     C21128   3.235   9.782   5.443  0.6507 -0.2522  0.5983
  898MOL0     C21129   3.179   9.682   5.527 -0.7248  0.3463  0.0180
  898MOL0     O21130   3.074   9.604   5.490 -0.2481 -0.2926 -0.0263
  898MOL0     C21131   3.102   9.523   5.376  1.2217  0.1755  0.5201
  898MOL0     C21132   2.972   9.472   5.302 -0.2601 -0.6765  0.3165
  898MOL0     C21133   2.978   9.342   5.222 -0.2380 -0.1237 -0.2832
  898MOL0     C21134   2.993   9.212   5.313  0.1696  0.2198  0.9303
  898MOL0     C21135   3.042   9.087   5.237  0.1246 -0.1725  0.1777
  898MOL0     C21136   3.007   8.954   5.310  0.0470 -1.0027  0.3443
  898MOL0     C21137   3.089   8.833   5.246 -0.0003 -0.1467  0.0851
  898MOL0     C21138   3.106   8.717   5.341  0.6591  0.5282 -0.1760
  898MOL0    Cl21139   2.960   8.648   5.404 -0.0978 -0.4604  0.7234
  898MOL0     C21140   3.243   9.652   5.640 -0.3813  0.7141  0.2406
  898MOL0     C21141   3.357   9.721   5.689 -0.1814  1.3779  0.1574
  898MOL0     O21142   3.393  10.019   5.798  1.2304 -0.8197 -0.2994
  898MOL0     C21143   3.617  10.129   5.929 -0.1986  0.0771  0.5916
  898MOL0     C21144   3.726  10.194   5.990 -0.3870 -0.0812  0.8188
  898MOL0     N21145   3.969  10.636   6.106  0.0603 -0.1398  0.2144
  898MOL0     N21146   3.930  10.738   6.178 -0.1803 -1.0794  0.0914
  898MOL0     C21147   4.556  10.178   6.346  0.1776 -0.1064  0.2998
  898MOL0     C21148   4.580  10.069   6.255 -0.4668 -0.0548 -0.0777
  898MOL0     C21149   4.482   9.723   5.934  0.0846  0.3381  0.0201
  898MOL0     C21150   4.567   9.643   6.009 -0.7903 -0.5432 -0.3093
  898MOL0     C21151   4.591   9.510   5.980 -0.4605 -0.7820 -0.2581
  898MOL0     C21152   4.538   9.462   5.861  1.0772 -0.0958 -0.4073
  898MOL0     O21153   4.553   9.336   5.813  0.0401 -0.3415 -0.1947
  898MOL0     C21154   4.695   9.289   5.827 -0.3038 -0.4078  0.5175
  898MOL0     C21155   4.690   9.181   5.931 -0.6784 -0.1635  0.0475
  898MOL0     C21156   4.619   9.054   5.883  0.2627 -0.0893  0.2042
  898MOL0     C21157   4.625   8.948   5.980  0.2234  0.2555 -0.2336
  898MOL0     C21158   4.532   8.980   6.088  0.1796  0.0569 -1.4191
  898MOL0     C21159   4.440   8.994   6.173  1.4650 -0.2714  0.5252
  898MOL0     C21160   4.447   9.539   5.790 -0.4047  0.1606 -0.7320
  898MOL0     C21161   4.421   9.671   5.824 -0.1097 -0.6602 -0.5163
  898MOL0     C21162   4.313   9.734   5.743  0.2203 -0.7136  0.0913
  898MOL0     H21163   4.268   9.975   6.198  1.6974 -4.1734  2.2340
  898MOL0     H21164   4.224  10.155   6.347 -1.5382 -4.0069 -1.6726
  898MOL0     H21165   4.578  10.406   6.533 -1.5349  1.4187  3.1157
  898MOL0     H21166   4.512  10.463   6.373 -4.2062  0.5285 -1.7045
  898MOL0     H21167   4.465  10.634   6.514  1.1413  0.6943  1.9519
  898MOL0     H21168   4.459  10.531   6.658  3.3632  0.0937 -1.5334
  898MOL0     H21169   4.216  10.464   6.589 -0.8319  0.4070 -0.1878
  898MOL0     H21170   4.226  10.575   6.458 -4.2241 -0.8122  0.3824
  898MOL0     H21171   4.116  10.654   6.651 -1.0346  2.0049 -2.7245
  898MOL0     H21172   4.277  10.674   6.742 -3.3895  2.8214  1.4708
  898MOL0     H21173   4.217  10.880   6.660  1.8857  0.8637 -0.1628
  898MOL0     H21174   4.322  10.827   6.529 -0.3323  2.2070 -0.1490
  898MOL0     H21175   4.100  10.740   6.415  3.4584 -1.5276  0.2039
  898MOL0     H21176   4.019  10.840   6.532 -1.6172 -1.8057 -0.8704
  898MOL0     H21177   4.236  10.949   6.372  0.6274 -4.7269  1.9387
  898MOL0     H21178   4.106  11.043   6.451 -0.2190 -2.7278  4.1668
  898MOL0     H21179   3.949  10.983   6.276  0.2805 -0.5166  1.2697
  898MOL0     H21180   4.105  11.011   6.194  1.3157  0.8075  1.8709
  898MOL0     H21181   4.238  10.823   6.069  0.5139  0.2626 -0.0466
  898MOL0     H21182   4.076  10.511   5.900 -0.0717 -0.9984  1.2766
  898MOL0     H21183   4.219  10.600   5.908 -0.6067  0.8876  0.6697
  898MOL0     H21184   4.250  10.359   5.951  0.1689  0.2401 -0.6979
  898MOL0     H21185   4.295  10.441   6.092  1.0230 -2.4414 -1.6743
  898MOL0     H21186   4.126  10.382   6.224 -0.3953  3.5769 -1.2052
  898MOL0     H21187   4.165  10.242   6.129  2.0655  1.2514 -2.2243
  898MOL0     H21188   3.940  10.397   6.011 -1.0676  0.3977  0.8612
  898MOL0     H21189   3.904  10.301   6.146 -1.4610  0.3108 -0.3811
  898MOL0     H21190   3.960  10.002   5.840 -0.4765  0.7093  0.8945
  898MOL0     H21191   3.776   9.902   5.722 -2.7681  0.2019 -1.0021
  898MOL0     H21192   3.386   9.937   5.438 -3.4301  0.4987  0.1763
  898MOL0     H21193   3.188   9.814   5.350 -3.1497 -0.5445  2.2485
  898MOL0     H21194   3.160   9.570   5.296 -3.2834  2.6203 -1.7031
  898MOL0     H21195   3.153   9.430   5.404 -2.0960 -2.1392 -0.3979
  898MOL0     H21196   2.893   9.465   5.377 -1.9209 -1.8780 -1.4803
  898MOL0     H21197   2.939   9.539   5.223  1.1334 -1.4868 -1.0018
  898MOL0     H21198   2.884   9.344   5.166 -1.0059 -0.6778  0.9496
  898MOL0     H21199   3.045   9.343   5.135 -2.6293 -1.6467 -2.2721
  898MOL0     H21200   2.893   9.189   5.352 -0.3005 -0.7525 -0.7637
  898MOL0     H21201   3.058   9.216   5.401 -0.2450 -0.9200  1.3103
  898MOL0     H21202   3.150   9.084   5.226  0.3021 -1.3059  1.8408
  898MOL0     H21203   3.004   9.093   5.135 -1.5777  1.0848  0.8370
  898MOL0     H21204   3.022   8.968   5.418 -2.4561  0.7240  0.5632
  898MOL0     H21205   2.898   8.944   5.299  0.0194  1.0912 -2.1685
  898MOL0     H21206   3.190   8.867   5.220  0.9998 -2.5347  0.5542
  898MOL0     H21207   3.043   8.801   5.153 -2.1989  1.7734  0.4038
  898MOL0     H21208   3.170   8.637   5.302  0.3798  0.9501 -1.5661
  898MOL0     H21209   3.162   8.743   5.431  0.9846 -1.7571  0.3375
  898MOL0     H21210   3.199   9.572   5.698  1.9468 -1.0061 -0.2544
  898MOL0     H21211   3.399   9.712   5.789 -2.3014  2.8111  1.2473
  898MOL0     H21212   3.517  10.159   5.960 -0.6243 -2.0473  1.4301
  898MOL0     H21213   3.719  10.281   6.055 -0.9972  0.6527 -0.2137
  898MOL0     H21214   4.645  10.218   6.393 -0.2173  0.8486  0.2513
  898MOL0     H21215   4.683  10.038   6.266 -0.8377 -0.6710  2.3278
  898MOL0     H21216   4.614   9.663   6.105 -0.7836  1.0211 -0.6171
  898MOL0     H21217   4.658   9.452   6.044  1.8707 -2.0721 -3.5909
  898MOL0     H21218   4.753   9.372   5.869 -2.4028  0.4866  1.8309
  898MOL0     H21219   4.738   9.253   5.733 -0.4004 -0.4478  0.4889
  898MOL0     H21220   4.644   9.213   6.025 -0.5915 -1.7672  0.6727
  898MOL0     H21221   4.796   9.164   5.951 -1.1719 -0.7197  2.4903
  898MOL0     H21222   4.668   9.017   5.793  1.3303  1.9435 -0.1194
  898MOL0     H21223   4.515   9.064   5.850  0.3031 -3.2960 -1.2740
  898MOL0     H21224   4.598   8.852   5.937 -0.0939 -0.0555  0.6285
  898MOL0     H21225   4.729   8.940   6.010  0.7189  3.0347 -0.9182
  898MOL0     H21226   4.349   9.006   6.229 -1.4047 -0.8926 -3.5436
  898MOL0     H21227   4.407   9.493   5.700 -2.9338  0.2903  0.2627
  898MOL0     H21228   4.216   9.742   5.791 -1.3759  0.6902 -3.0312
  898MOL0     H21229   4.352   9.834   5.719 -0.5218 -0.8722 -2.0499
  898MOL0     H21230   4.316   9.676   5.650  2.1268 -0.3649 -0.1092
  899MOL0     O21231   7.605   2.873   0.007  0.0465  0.4651  0.1295
  899MOL0     C21232   7.496   2.883   0.065 -0.0432  0.3233 -0.0116
  899MOL0     O21233   7.476   2.951   0.185 -0.3903 -0.1508  0.2889
  899MOL0     C21234   7.576   3.003   0.259 -0.4683 -0.2484 -0.1204
  899MOL0     C21235   7.692   2.932   0.295  0.0843  1.1621  0.2716
  899MOL0     C21236   7.787   2.972   0.389 -0.3089 -0.3366 -0.4172
  899MOL0     C21237   7.771   3.095   0.452  0.2423  0.1123 -0.5638
  899MOL0     O21238   7.861   3.141   0.543 -0.3951 -0.3480 -0.3740
  899MOL0     C21239   7.977   3.066   0.586  0.4107 -1.5717  0.3313
  899MOL0     C21240   8.084   3.162   0.648 -0.7173 -0.7290 -0.5128
  899MOL0     C21241   8.151   3.248   0.545  0.4965 -0.3961  0.1586
  899MOL0     C21242   8.282   3.309   0.595 -0.1112 -0.5650 -0.2420
  899MOL0     C21243   8.344   3.391   0.476 -0.4118  0.8440 -0.9933
  899MOL0     C21244   8.495   3.436   0.497  0.7330  0.9803  0.1127
  899MOL0     C21245   8.589   3.322   0.537 -0.7588  0.1705  0.7508
  899MOL0     C21246   8.734   3.381   0.520 -0.3948 -0.6850  0.3042
  899MOL0     N21247   8.838   3.277   0.521 -0.1077  0.1680 -0.0336
  899MOL0     C21248   8.965   3.302   0.489 -0.6304 -0.6120  0.5573
  899MOL0     C21249   9.024   3.180   0.485 -1.0933  0.4933  0.7568
  899MOL0     C21250   9.164   3.151   0.425 -0.8171 -0.1300 -0.2300
  899MOL0     C21251   9.256   3.254   0.481  0.0999  0.7233 -0.7156
  899MOL0     C21252   9.395   3.231   0.436 -0.0852 -0.1007 -0.1473
  899MOL0     C21253   9.414   3.263   0.279  0.3299 -0.4928 -0.3900
  899MOL0     O21254   9.386   3.401   0.250 -0.8362  0.1032  0.3312
  899MOL0     C21255   9.488   3.483   0.233 -0.0514 -0.1369  0.1750
  899MOL0     C21256   9.527   3.525   0.115  0.4134  0.2375 -0.7180
  899MOL0     C21257   9.650   3.592   0.094  0.3194 -0.1228  0.3142
  899MOL0     C21258   9.737   3.606   0.205  0.3002 -0.1122 -0.6325
  899MOL0     C21259   9.871   3.675   0.188  0.3398  0.3417  0.1963
  899MOL0     O21260   9.962   3.644   0.277 -0.1936  0.1853  0.4441
  899MOL0     C21261  10.051   3.738   0.317 -0.1151 -0.1854  0.4464
  899MOL0     C21262  10.181   3.685   0.343  0.5841 -0.7682 -0.0457
  899MOL0     C21263  10.274   3.772   0.398  0.0149 -0.2620 -0.7780
  899MOL0     C21264  10.260   3.909   0.411  0.4909 -0.1039 -0.0653
  899MOL0     O21265  10.360   3.986   0.458 -0.6101  0.1630 -0.3720
  899MOL0     C21266  10.486   3.972   0.403  0.1192  0.5116  0.2038
  899MOL0     C21267  10.535   4.121   0.372 -0.2784  1.0938 -0.1338
  899MOL0     C21268  10.673   4.098   0.301  0.6796  0.0783  0.3218
  899MOL0     C21269  10.683   4.027   0.168  0.1717 -0.3187  0.4123
  899MOL0     C21270  10.671   4.131   0.061  0.2026 -0.9125 -0.0014
  899MOL0     C21271  10.724   4.085  -0.072  0.3879 -0.3899 -0.5394
  899MOL0     C21272  10.704   4.197  -0.182  0.9885 -0.4458 -0.2707
  899MOL0     C21273  10.741   4.145  -0.323 -0.7124 -0.8297 -0.6207
  899MOL0    Cl21274  10.727   4.266  -0.449 -0.0985  0.1484 -0.1527
  899MOL0     C21275  10.136   3.960   0.365 -0.5963 -0.2622 -0.3164
  899MOL0     C21276  10.032   3.874   0.325 -0.3182 -1.1217 -0.3546
  899MOL0     O21277   9.887   3.738   0.082  0.1983  0.7980  0.7567
  899MOL0     C21278   9.696   3.559   0.328  0.9058  0.0143  1.7443
  899MOL0     C21279   9.568   3.506   0.343 -0.7506 -1.3037 -0.7665
  899MOL0     N21280   8.929   3.079   0.514 -0.3682  0.1495 -0.0226
  899MOL0     N21281   8.826   3.151   0.557  0.3169  0.5346 -0.1878
  899MOL0     C21282   7.654   3.171   0.421 -0.6511 -0.1509  0.5846
  899MOL0     C21283   7.553   3.119   0.330 -0.5778 -0.4910  0.4298
  899MOL0     C21284   7.379   2.823  -0.010  0.3572 -0.0613  0.2780
  899MOL0     C21285   7.256   2.865   0.037  0.4195  0.1413 -0.6108
  899MOL0     C21286   7.137   2.839  -0.029  0.0527  0.6516 -1.2682
  899MOL0     C21287   7.135   2.765  -0.149 -0.5196 -0.3409 -0.7854
  899MOL0     O21288   7.011   2.759  -0.207 -0.4388 -0.7639  0.1902
  899MOL0     C21289   6.992   2.668  -0.314 -0.7884 -0.4586  0.2718
  899MOL0     C21290   7.030   2.717  -0.464 -0.6376  0.0379 -0.3317
  899MOL0     C21291   6.974   2.855  -0.498 -0.3247 -0.7319  0.5287
  899MOL0     C21292   6.916   2.863  -0.630 -0.3297 -0.5118  0.8038
  899MOL0     C21293   6.864   2.994  -0.660 -0.5770 -0.4047  0.2365
  899MOL0     C21294   6.827   3.107  -0.691  0.7650 -0.6083 -0.0875
  899MOL0     C21295   7.258   2.723  -0.200  0.4088 -0.5336  0.1734
  899MOL0     C21296   7.380   2.755  -0.135  0.6655  0.4962  0.5580
  899MOL0     C21297   7.506   2.709  -0.201 -0.1514 -0.2847 -0.1417
  899MOL0     H21298   7.704   2.828   0.266 -1.4884  1.1020 -0.2248
  899MOL0     H21299   7.867   2.909   0.427 -1.0173 -0.2504  1.2722
  899MOL0     H21300   7.961   2.998   0.669  0.9485  0.9474  2.6491
  899MOL0     H21301   8.020   3.013   0.500  1.6635 -0.8906  0.5178
  899MOL0     H21302   8.166   3.102   0.689 -1.9004 -2.2448 -0.2897
  899MOL0     H21303   8.033   3.213   0.730 -1.0231 -3.6842  1.2900
  899MOL0     H21304   8.084   3.325   0.505 -0.5957 -1.2959  0.2001
  899MOL0     H21305   8.180   3.183   0.461  0.1714  1.3814 -1.3916
  899MOL0     H21306   8.246   3.381   0.668 -3.3089 -3.3745  1.2073
  899MOL0     H21307   8.347   3.231   0.636 -0.2385 -0.6702 -0.2418
  899MOL0     H21308   8.346   3.332   0.384  1.8521  0.4967 -0.7682
  899MOL0     H21309   8.290   3.486   0.468 -1.0154  0.3929 -2.6103
  899MOL0     H21310   8.517   3.501   0.411  0.6219  2.3119  1.0590
  899MOL0     H21311   8.502   3.497   0.587 -0.3787  1.0504  0.1651
  899MOL0     H21312   8.583   3.239   0.466  1.4571 -0.6476  1.4423
  899MOL0     H21313   8.567   3.283   0.637 -0.4878 -1.6508  0.1347
  899MOL0     H21314   8.737   3.440   0.428 -1.9530 -2.3620 -0.8919
  899MOL0     H21315   8.753   3.452   0.601 -2.1433  0.5265 -0.2946
  899MOL0     H21316   9.004   3.398   0.456  3.7351 -2.3843 -0.1555
  899MOL0     H21317   9.187   3.047   0.450 -2.4588 -0.3383  0.5125
  899MOL0     H21318   9.173   3.144   0.316  3.5692 -1.8184  0.0402
  899MOL0     H21319   9.232   3.351   0.438  1.4358  0.4222 -2.2385
  899MOL0     H21320   9.253   3.246   0.590 -0.5318 -3.2846 -0.8740
  899MOL0     H21321   9.421   3.130   0.467 -2.3094 -0.8420 -0.4695
  899MOL0     H21322   9.451   3.301   0.499 -0.6840  1.0421 -0.8420
  899MOL0     H21323   9.336   3.204   0.229 -0.0212 -1.0964  0.8209
  899MOL0     H21324   9.514   3.244   0.239  0.7597  2.8901 -1.1978
  899MOL0     H21325   9.469   3.488   0.030 -2.1053  3.3431 -0.5524
  899MOL0     H21326   9.670   3.620  -0.009 -1.6753 -1.6352 -0.5349
  899MOL0     H21327  10.196   3.578   0.347  3.3225 -0.6008 -2.6849
  899MOL0     H21328  10.367   3.730   0.434  1.4102  1.1010 -2.5763
  899MOL0     H21329  10.556   3.923   0.471  0.0477 -1.3220 -0.9578
  899MOL0     H21330  10.483   3.898   0.322  1.2810  0.1563  0.4730
  899MOL0     H21331  10.468   4.163   0.297  1.5224  0.4910 -2.1996
  899MOL0     H21332  10.541   4.177   0.466  0.9988  0.5170  0.1529
  899MOL0     H21333  10.711   4.200   0.298 -0.0242  0.4724  2.8521
  899MOL0     H21334  10.741   4.038   0.362 -0.4316 -1.4111  0.1637
  899MOL0     H21335  10.600   3.956   0.160  0.8873 -1.0921 -0.3333
  899MOL0     H21336  10.774   3.967   0.160 -1.5199 -3.1001  1.0945
  899MOL0     H21337  10.727   4.219   0.095  1.0016 -1.3271 -0.2086
  899MOL0     H21338  10.565   4.158   0.059 -0.3419 -2.9014  0.1008
  899MOL0     H21339  10.829   4.058  -0.060  0.0389 -3.9731 -3.7784
  899MOL0     H21340  10.677   3.993  -0.105  2.8376 -1.3367 -1.6560
  899MOL0     H21341  10.752   4.290  -0.150 -2.0334  1.2410 -0.2776
  899MOL0     H21342  10.595   4.205  -0.184  0.4877 -1.9611  5.1643
  899MOL0     H21343  10.841   4.101  -0.323 -0.8014 -1.1475  1.7511
  899MOL0     H21344  10.673   4.063  -0.348  1.7059 -2.9960 -0.5493
  899MOL0     H21345  10.111   4.065   0.364 -0.7808 -0.3033 -1.3539
  899MOL0     H21346   9.942   3.925   0.292  1.7983  2.1631 -1.6502
  899MOL0     H21347   9.763   3.561   0.414 -2.3187  1.7180  4.4771
  899MOL0     H21348   9.529   3.491   0.444  1.1257 -1.0957  0.0200
  899MOL0     H21349   7.633   3.269   0.463  0.2101  1.0620 -1.6370
  899MOL0     H21350   7.458   3.166   0.308  0.1345  0.4857 -0.6838
  899MOL0     H21351   7.253   2.917   0.132 -0.8623  0.2363 -0.6845
  899MOL0     H21352   7.042   2.871   0.014  0.8327  3.6009 -1.5395
  899MOL0     H21353   6.887   2.636  -0.313 -0.8421 -0.2807  0.2790
  899MOL0     H21354   7.040   2.571  -0.296 -0.3917  0.0630  2.2343
  899MOL0     H21355   7.001   2.640  -0.535  5.2624 -2.8286 -0.1521
  899MOL0     H21356   7.136   2.732  -0.484 -0.8660  1.2594 -0.7475
  899MOL0     H21357   7.060   2.922  -0.495 -2.0993  1.7062 -0.2147
  899MOL0     H21358   6.897   2.883  -0.425 -1.4058  0.6419 -1.0518
  899MOL0     H21359   6.977   2.823  -0.711  0.2268  1.5809  0.1169
  899MOL0     H21360   6.826   2.803  -0.623 -1.9601  1.5838 -0.7243
  899MOL0     H21361   6.791   3.207  -0.700  0.7590 -0.6653 -0.7441
  899MOL0     H21362   7.265   2.672  -0.295  0.9693 -0.4316  0.1577
  899MOL0     H21363   7.597   2.769  -0.208 -0.8616  0.8419  0.0699
  899MOL0     H21364   7.532   2.610  -0.163  0.8109  0.5885  1.5995
  899MOL0     H21365   7.483   2.691  -0.306 -2.7787 -0.2546  0.3692
  900MOL0     O21366  10.752   1.359   7.630  0.3462  0.0090  0.6194
  900MOL0     C21367  10.813   1.272   7.567 -1.0834  0.3414  0.6924
  900MOL0     O21368  10.861   1.294   7.436  0.0939  0.4482  0.3208
  900MOL0     C21369  10.801   1.384   7.349  0.0918 -0.1715 -0.1121
  900MOL0     C21370  10.664   1.398   7.335  0.4474  0.3034 -0.4073
  900MOL0     C21371  10.599   1.494   7.261 -1.2920  0.4489  0.4153
  900MOL0     C21372  10.690   1.567   7.178  0.4954  0.2564 -0.6792
  900MOL0     O21373  10.642   1.665   7.097 -0.3776  0.8297 -0.0567
  900MOL0     C21374  10.519   1.729   7.111  0.3872 -0.1591 -0.3368
  900MOL0     C21375  10.514   1.864   7.042  0.9476 -0.4095 -0.1631
  900MOL0     C21376  10.488   1.864   6.897 -0.6605 -0.5253 -0.2957
  900MOL0     C21377  10.626   1.847   6.825 -0.3258 -0.8612  0.0394
  900MOL0     C21378  10.606   1.826   6.678  0.3617 -0.0269  0.5511
  900MOL0     C21379  10.545   1.949   6.611 -0.2725 -0.0742  0.2178
  900MOL0     C21380  10.654   2.005   6.511  0.2630  0.7791 -0.6037
  900MOL0     C21381  10.666   1.927   6.381 -0.6389 -0.8300 -0.0174
  900MOL0     N21382  10.541   1.931   6.294 -0.4873 -0.7180 -0.6514
  900MOL0     C21383  10.475   2.047   6.242  0.3095  0.5022 -0.5096
  900MOL0     C21384  10.346   2.014   6.211 -1.1457  0.4220 -0.1181
  900MOL0     C21385  10.238   2.114   6.183  0.6057  0.2792 -1.0559
  900MOL0     C21386  10.164   2.200   6.300 -0.4835  0.3142 -0.0544
  900MOL0     C21387  10.122   2.118   6.423  0.2427  0.6908  0.0613
  900MOL0     C21388  10.170   2.178   6.552 -1.5348 -0.9104 -0.4122
  900MOL0     O21389  10.099   2.302   6.592 -0.1660 -0.2488 -0.0697
  900MOL0     C21390   9.969   2.278   6.625 -0.6980 -0.3837  0.4134
  900MOL0     C21391   9.881   2.382   6.590  0.6768  0.7602 -0.7023
  900MOL0     C21392   9.750   2.389   6.642  0.4845 -0.3264  0.4133
  900MOL0     C21393   9.708   2.281   6.720 -0.6484  0.2135 -0.6345
  900MOL0     C21394   9.576   2.288   6.782  0.3347  0.3147  0.1356
  900MOL0     O21395   9.519   2.170   6.816  1.0702 -0.6453 -0.3897
  900MOL0     C21396   9.384   2.141   6.846  1.0943 -0.1745 -0.0277
  900MOL0     C21397   9.347   2.008   6.836  0.2209 -0.4640 -0.1109
  900MOL0     C21398   9.213   1.969   6.857  0.1628  0.1400 -0.0771
  900MOL0     C21399   9.110   2.063   6.876 -0.1216  0.4346  0.5527
  900MOL0     O21400   8.977   2.033   6.904  0.3349 -0.0830  0.0145
  900MOL0     C21401   8.931   1.895   6.905 -0.1864 -0.1390  0.8428
  900MOL0     C21402   8.779   1.885   6.870  0.6888  0.5066 -0.4110
  900MOL0     C21403   8.723   1.747   6.899 -0.1594 -0.0500  0.5657
  900MOL0     C21404   8.807   1.646   6.812 -0.6092 -1.4535 -0.5125
  900MOL0     C21405   8.724   1.520   6.798 -0.5016  0.4657 -0.8051
  900MOL0     C21406   8.659   1.477   6.930 -0.1957  0.1021 -0.4006
  900MOL0     C21407   8.625   1.329   6.952  0.0208 -0.6587 -0.3712
  900MOL0     C21408   8.587   1.249   6.832  0.1934  0.5588  0.2019
  900MOL0    Cl21409   8.515   1.086   6.867  0.4327 -0.5501  0.0462
  900MOL0     C21410   9.150   2.198   6.874 -0.6436 -0.1321 -0.0554
  900MOL0     C21411   9.282   2.240   6.873 -0.2948 -0.4455  0.2682
  900MOL0     O21412   9.519   2.395   6.788 -0.9524 -0.6171 -0.1279
  900MOL0     C21413   9.795   2.168   6.749 -0.3335 -0.1107  0.0992
  900MOL0     C21414   9.926   2.180   6.713 -0.8705  1.1156 -0.8088
  900MOL0     N21415  10.323   1.883   6.249 -0.3828 -0.6874  1.4680
  900MOL0     N21416  10.441   1.833   6.289  0.2099  0.4424 -0.3887
  900MOL0     C21417  10.831   1.549   7.178 -0.1187 -0.2174 -0.2980
  900MOL0     C21418  10.882   1.463   7.269  0.3132 -1.0363 -0.8308
  900MOL0     C21419  10.871   1.159   7.647 -0.4114  0.7839  0.5744
  900MOL0     C21420  10.982   1.101   7.588 -0.7559 -0.2535 -0.2000
  900MOL0     C21421  11.033   0.981   7.652  0.0176  0.9719 -0.1195
  900MOL0     C21422  10.975   0.931   7.767  0.4057  0.5560 -0.3535
  900MOL0     O21423  11.047   0.828   7.834 -0.3400 -0.8466 -0.8425
  900MOL0     C21424  11.023   0.800   7.968  0.6718 -0.6689  0.1064
  900MOL0     C21425  11.144   0.715   7.995 -0.1830  0.5196  0.1713
  900MOL0     C21426  11.128   0.649   8.140 -0.4970  0.2502  0.0627
  900MOL0     C21427  11.170   0.741   8.251  0.2680 -0.6474 -0.1710
  900MOL0     C21428  11.219   0.666   8.362  0.2876 -0.9160 -0.1797
  900MOL0     C21429  11.248   0.608   8.469  0.8463 -0.1589 -0.1298
  900MOL0     C21430  10.863   0.998   7.822  1.4796  0.2995 -0.0165
  900MOL0     C21431  10.817   1.117   7.774 -0.3941 -0.5171  0.0338
  900MOL0     C21432  10.710   1.191   7.850 -0.0997 -1.1448 -0.0584
  900MOL0     H21433  10.598   1.325   7.381 -0.9321  2.0055  0.4417
  900MOL0     H21434  10.491   1.485   7.256 -1.1827 -1.5103  0.4624
  900MOL0     H21435  10.437   1.658   7.096 -0.2069 -0.0139  1.8108
  900MOL0     H21436  10.508   1.749   7.218  0.8125 -1.6897  0.0166
  900MOL0     H21437  10.590   1.936   7.076 -2.3716  1.9143  3.0544
  900MOL0     H21438  10.417   1.908   7.067  0.8368 -0.2424 -0.8707
  900MOL0     H21439  10.435   1.956   6.869  2.0880  2.0726  2.1708
  900MOL0     H21440  10.439   1.771   6.868 -1.3693  0.4514 -2.4059
  900MOL0     H21441  10.693   1.930   6.851 -2.9330  2.1827 -2.1695
  900MOL0     H21442  10.663   1.753   6.868 -1.0894 -2.0027 -1.7137
  900MOL0     H21443  10.688   1.787   6.617 -0.8772  1.9940 -2.6522
  900MOL0     H21444  10.530   1.748   6.675  0.1917  0.1571 -2.2597
  900MOL0     H21445  10.450   1.923   6.564  1.1408 -1.4020 -2.0909
  900MOL0     H21446  10.522   2.030   6.681 -2.7282 -1.5923  1.2953
  900MOL0     H21447  10.750   1.999   6.563  0.2405  0.3781 -0.6098
  900MOL0     H21448  10.626   2.108   6.486  2.1230  1.8075  1.2575
  900MOL0     H21449  10.760   1.943   6.326 -1.5788  1.7853 -1.0116
  900MOL0     H21450  10.681   1.822   6.409 -0.5303 -0.2120  2.4941
  900MOL0     H21451  10.514   2.148   6.232 -1.8169  1.4988  0.5268
  900MOL0     H21452  10.283   2.176   6.105  4.1143 -1.1787 -0.3996
  900MOL0     H21453  10.165   2.048   6.137  3.4440 -1.2421 -3.7515
  900MOL0     H21454  10.224   2.281   6.341 -1.0263  0.0769  1.2347
  900MOL0     H21455  10.093   2.263   6.245  0.1627 -1.3580 -3.0884
  900MOL0     H21456  10.164   2.018   6.411 -2.6961 -0.5715 -0.4851
  900MOL0     H21457  10.013   2.112   6.430  0.1891  2.3267  1.2917
  900MOL0     H21458  10.277   2.195   6.537 -2.0742  1.7286 -1.8125
  900MOL0     H21459  10.160   2.095   6.623 -2.9092  0.4941  1.1286
  900MOL0     H21460   9.932   2.454   6.527 -0.0180  0.5623 -1.5053
  900MOL0     H21461   9.691   2.477   6.619 -1.0795 -0.9228  1.9052
  900MOL0     H21462   9.423   1.933   6.815  0.4657 -0.5207  0.9191
  900MOL0     H21463   9.186   1.866   6.841 -0.2909 -0.4210  3.5744
  900MOL0     H21464   8.968   1.838   6.819 -3.3825  2.2336 -2.3962
  900MOL0     H21465   8.970   1.848   6.996  3.1306  0.6968  0.0054
  900MOL0     H21466   8.723   1.967   6.915 -0.0574  0.1508 -0.6773
  900MOL0     H21467   8.789   1.902   6.763  4.2267 -2.7074 -0.8103
  900MOL0     H21468   8.731   1.727   7.006  2.3633 -0.2713  0.3954
  900MOL0     H21469   8.616   1.748   6.876 -0.6571 -3.8868  1.9662
  900MOL0     H21470   8.901   1.622   6.861 -0.6715 -0.3384  0.1944
  900MOL0     H21471   8.827   1.690   6.714  1.4136 -2.3064 -0.5286
  900MOL0     H21472   8.806   1.456   6.763  2.6283  0.8867  4.7024
  900MOL0     H21473   8.648   1.533   6.720 -1.9242  0.2138  0.4954
  900MOL0     H21474   8.717   1.516   7.015 -0.1311  0.0463 -0.4177
  900MOL0     H21475   8.559   1.517   6.917  0.0515  0.4692 -1.1828
  900MOL0     H21476   8.538   1.326   7.017 -0.9515 -1.8390 -1.6636
  900MOL0     H21477   8.721   1.295   6.992  0.2106 -0.3597 -0.5611
  900MOL0     H21478   8.503   1.300   6.782 -0.3705  0.1362  0.7025
  900MOL0     H21479   8.671   1.240   6.764  0.9694 -1.5446  1.3439
  900MOL0     H21480   9.065   2.265   6.885 -0.2237  0.1890  1.5413
  900MOL0     H21481   9.305   2.346   6.878 -0.1604 -0.2567 -2.6482
  900MOL0     H21482   9.772   2.086   6.816  1.4057 -1.7022 -1.1656
  900MOL0     H21483  10.000   2.102   6.728  2.1564  3.4924 -2.2285
  900MOL0     H21484  10.889   1.609   7.108  0.7040 -0.9454 -0.2589
  900MOL0     H21485  10.989   1.448   7.277  0.2334 -1.3602 -0.2767
  900MOL0     H21486  11.031   1.126   7.495 -0.2293 -2.7800 -0.6752
  900MOL0     H21487  11.122   0.942   7.603 -0.6457 -0.5789 -0.1325
  900MOL0     H21488  10.932   0.750   8.004  0.0855 -0.0883 -0.5422
  900MOL0     H21489  11.041   0.888   8.031  5.7217 -0.2917 -1.4603
  900MOL0     H21490  11.234   0.777   8.001  0.1834  0.0822 -0.7273
  900MOL0     H21491  11.166   0.638   7.921  0.7187  2.8092 -2.0993
  900MOL0     H21492  11.175   0.550   8.134 -0.3839  0.3726 -1.3203
  900MOL0     H21493  11.025   0.636   8.175  0.4275 -0.0379  3.0340
  900MOL0     H21494  11.251   0.806   8.218 -0.6600 -1.0073 -3.4247
  900MOL0     H21495  11.081   0.790   8.290  2.4984  1.3286  2.9747
  900MOL0     H21496  11.253   0.543   8.554 -1.1624 -0.7873 -0.4406
  900MOL0     H21497  10.822   0.959   7.915 -1.2654  2.7631 -0.0379
  900MOL0     H21498  10.667   1.133   7.932 -2.2584 -1.0060 -1.0189
  900MOL0     H21499  10.739   1.288   7.890  0.3842 -1.0548 -0.6050
  900MOL0     H21500  10.635   1.207   7.772  0.3980 -1.0526 -0.5278
  901MOL0     O21501   4.953   5.196   4.749 -0.0026  0.1730 -0.5496
  901MOL0     C21502   4.950   5.101   4.673 -0.3824 -0.0395 -0.3633
  901MOL0     O21503   5.020   5.087   4.559 -0.5427  0.0697  1.1702
  901MOL0     C21504   5.134   5.159   4.528 -0.0441  0.0125  0.3529
  901MOL0     C21505   5.242   5.092   4.463  0.6262 -0.4056 -0.0695
  901MOL0     C21506   5.354   5.167   4.424 -0.7875  1.2079 -0.7069
  901MOL0     C21507   5.369   5.301   4.451  0.2130 -0.2699 -0.0332
  901MOL0     O21508   5.481   5.375   4.414  0.4076 -0.5160  0.4511
  901MOL0     C21509   5.535   5.459   4.522  1.0481 -0.6541 -0.8443
  901MOL0     C21510   5.652   5.397   4.590  0.7504  0.2134 -0.2724
  901MOL0     C21511   5.744   5.495   4.678 -0.2429  1.0490 -0.2071
  901MOL0     C21512   5.823   5.422   4.790 -0.5243  0.1833  0.7641
  901MOL0     C21513   5.932   5.503   4.860  0.4838 -0.5363  0.3714
  901MOL0     C21514   6.032   5.416   4.936  0.7200  0.0892 -0.9999
  901MOL0     C21515   6.154   5.492   4.994 -0.7032 -0.1763 -0.7704
  901MOL0     C21516   6.256   5.550   4.898  0.6972  0.5247 -0.5537
  901MOL0     N21517   6.380   5.577   4.969  0.0148 -0.3002 -0.1364
  901MOL0     C21518   6.394   5.667   5.075 -0.4352  0.0344 -1.1563
  901MOL0     C21519   6.529   5.661   5.105  0.4031  0.9143 -0.0772
  901MOL0     C21520   6.598   5.721   5.231 -0.4843 -0.0760  0.5970
  901MOL0     C21521   6.629   5.594   5.331 -1.7055 -0.6053 -0.2539
  901MOL0     C21522   6.704   5.647   5.455  0.0819  0.5503  0.2765
  901MOL0     C21523   6.727   5.542   5.555  0.1143 -0.3953  0.2776
  901MOL0     O21524   6.832   5.578   5.651  0.6498 -0.2277 -0.6301
  901MOL0     C21525   6.890   5.482   5.724 -0.0380  0.6542 -0.7747
  901MOL0     C21526   7.011   5.517   5.787 -0.5333  0.3990 -0.8651
  901MOL0     C21527   7.073   5.432   5.884 -0.1007  0.8483 -0.4358
  901MOL0     C21528   7.017   5.307   5.916  0.4929  1.2571  0.5410
  901MOL0     C21529   7.085   5.213   6.010  0.8518 -0.0447 -0.3902
  901MOL0     O21530   7.018   5.114   6.066  0.2280  0.2445  0.2900
  901MOL0     C21531   7.092   5.030   6.149  1.2348  0.6059 -0.2818
  901MOL0     C21532   7.055   5.012   6.280  0.0925  0.1401  0.5865
  901MOL0     C21533   7.109   4.928   6.367 -0.4306 -0.1317 -0.3040
  901MOL0     C21534   7.230   4.858   6.327  0.1654  0.2583 -1.2330
  901MOL0     O21535   7.289   4.779   6.427 -0.2556 -0.3581  0.0194
  901MOL0     C21536   7.417   4.830   6.468  0.3315  0.4227 -0.2643
  901MOL0     C21537   7.484   4.718   6.547  0.0768 -0.2342  1.1231
  901MOL0     C21538   7.434   4.719   6.695 -0.0480  0.9985 -0.6896
  901MOL0     C21539   7.488   4.600   6.776 -0.2104  0.9550  0.2254
  901MOL0     C21540   7.462   4.618   6.928  0.2550 -0.0478 -0.7189
  901MOL0     C21541   7.336   4.697   6.965  0.0402 -0.7303 -0.9400
  901MOL0     C21542   7.322   4.686   7.115  0.0661 -0.0754 -0.0499
  901MOL0     C21543   7.221   4.794   7.174 -0.1535 -0.2536  0.7785
  901MOL0    Cl21544   7.293   4.961   7.153  0.2620  0.3468 -0.1138
  901MOL0     C21545   7.275   4.876   6.195 -0.5119 -0.3483  0.3400
  901MOL0     C21546   7.197   4.950   6.104  0.6426  0.0908 -0.7106
  901MOL0     O21547   7.197   5.253   6.044  0.4264  0.1473 -0.2989
  901MOL0     C21548   6.901   5.269   5.846 -0.1291  0.1839 -0.2246
  901MOL0     C21549   6.834   5.357   5.754  0.5026 -0.6929 -0.5439
  901MOL0     N21550   6.594   5.585   5.011  0.3893  0.5388 -0.3012
  901MOL0     N21551   6.505   5.538   4.932 -0.1778  0.2799 -0.5014
  901MOL0     C21552   5.255   5.368   4.500  0.3720 -0.0464  0.2824
  901MOL0     C21553   5.142   5.303   4.541  0.1908  0.4043  0.3049
  901MOL0     C21554   4.842   5.005   4.693  0.7316 -0.0757 -1.0895
  901MOL0     C21555   4.857   4.890   4.779  0.1210 -0.9174 -0.7724
  901MOL0     C21556   4.737   4.814   4.813 -0.2362 -0.0351  0.0646
  901MOL0     C21557   4.620   4.835   4.741  1.1391  0.1741  0.4348
  901MOL0     O21558   4.520   4.748   4.773 -0.2963  0.1431 -1.1418
  901MOL0     C21559   4.422   4.794   4.865  0.2828 -0.6670 -0.0625
  901MOL0     C21560   4.373   4.670   4.939 -0.5414 -0.8536 -0.5158
  901MOL0     C21561   4.296   4.575   4.855 -0.3502  0.8122 -0.5123
  901MOL0     C21562   4.210   4.626   4.748  0.1012  1.5496 -0.0269
  901MOL0     C21563   4.096   4.694   4.825  0.3623 -0.3884  1.5651
  901MOL0     C21564   4.001   4.750   4.872 -0.7133 -0.7441  0.0873
  901MOL0     C21565   4.612   4.938   4.644 -0.5035  0.6676  0.1975
  901MOL0     C21566   4.713   5.031   4.630 -0.4720 -0.0809  0.0488
  901MOL0     C21567   4.694   5.124   4.507 -0.5431 -0.0293 -0.0453
  901MOL0     H21568   5.221   4.989   4.437 -0.9487  0.2482 -1.6119
  901MOL0     H21569   5.443   5.122   4.383  0.1183  2.9571 -0.7715
  901MOL0     H21570   5.555   5.559   4.485 -0.0739 -1.4206 -3.8072
  901MOL0     H21571   5.458   5.472   4.598  2.0899  2.2541 -0.1676
  901MOL0     H21572   5.706   5.335   4.518  2.7553 -0.2610  1.5229
  901MOL0     H21573   5.604   5.328   4.660  1.1012  0.1542 -0.0840
  901MOL0     H21574   5.682   5.572   4.725 -1.0731  1.0582 -1.2730
  901MOL0     H21575   5.800   5.557   4.608  1.4544  0.4933  0.6178
  901MOL0     H21576   5.756   5.382   4.866 -0.8706 -0.5451  0.0808
  901MOL0     H21577   5.869   5.343   4.731 -0.6044  2.5012 -2.7387
  901MOL0     H21578   5.981   5.559   4.780  0.5132 -2.1400 -0.7822
  901MOL0     H21579   5.883   5.575   4.926  1.3302  0.4250 -0.0127
  901MOL0     H21580   5.979   5.363   5.016  1.3421 -1.7187 -1.7366
  901MOL0     H21581   6.069   5.334   4.875 -2.2238 -0.7608 -1.8125
  901MOL0     H21582   6.207   5.449   5.080 -1.3196 -0.8756 -0.7400
  901MOL0     H21583   6.097   5.577   5.035 -2.0662  0.0319 -2.9681
  901MOL0     H21584   6.281   5.473   4.823  0.1671 -1.8541  1.5833
  901MOL0     H21585   6.214   5.645   4.864  1.1526  0.3661 -1.6236
  901MOL0     H21586   6.320   5.710   5.142  1.1840  1.5370 -0.2673
  901MOL0     H21587   6.684   5.782   5.202 -0.7751 -0.6249 -1.6401
  901MOL0     H21588   6.514   5.774   5.277 -1.1671 -1.0156  0.4577
  901MOL0     H21589   6.534   5.543   5.350 -2.5150 -0.4134 -3.2618
  901MOL0     H21590   6.693   5.524   5.276 -1.1487 -2.4730  2.5578
  901MOL0     H21591   6.641   5.729   5.491  0.7406 -0.1592  3.3314
  901MOL0     H21592   6.806   5.680   5.432  2.1752 -4.6368  0.7684
  901MOL0     H21593   6.755   5.451   5.501  2.0015  0.0503  0.4353
  901MOL0     H21594   6.637   5.522   5.614  0.3074  1.5668  1.3108
  901MOL0     H21595   7.052   5.617   5.784  2.2553 -0.6268 -0.2360
  901MOL0     H21596   7.167   5.465   5.926  0.9018 -0.4461 -1.5653
  901MOL0     H21597   6.963   5.062   6.306  0.0508 -0.1254  0.9659
  901MOL0     H21598   7.064   4.913   6.465 -2.1490  1.4617 -0.7834
  901MOL0     H21599   7.485   4.854   6.385  0.2187  0.5876 -0.3081
  901MOL0     H21600   7.418   4.921   6.527  3.5506 -0.8292  1.8806
  901MOL0     H21601   7.460   4.626   6.494 -2.1008  1.2748 -0.6872
  901MOL0     H21602   7.589   4.748   6.536 -1.0673  3.6876 -0.9056
  901MOL0     H21603   7.478   4.809   6.739  0.9306 -0.5178  1.6249
  901MOL0     H21604   7.325   4.730   6.701 -0.0408  1.5104 -1.3650
  901MOL0     H21605   7.591   4.574   6.751 -0.2085  1.5073 -0.3873
  901MOL0     H21606   7.433   4.514   6.737  1.2167 -0.7682  1.8754
  901MOL0     H21607   7.549   4.678   6.955  0.5086  0.0034 -1.6138
  901MOL0     H21608   7.469   4.518   6.973 -2.3535 -1.0205 -2.2267
  901MOL0     H21609   7.350   4.800   6.932 -1.0288 -1.2393 -3.1343
  901MOL0     H21610   7.252   4.653   6.912 -0.9730  0.6252 -0.5115
  901MOL0     H21611   7.417   4.711   7.163 -0.1527  2.4340 -0.7829
  901MOL0     H21612   7.292   4.583   7.139  0.9966 -0.6485 -1.2514
  901MOL0     H21613   7.125   4.791   7.121 -0.7352  1.7373  1.5971
  901MOL0     H21614   7.211   4.773   7.281 -1.7711 -0.7226  0.5665
  901MOL0     H21615   7.371   4.843   6.158 -1.4158 -2.7236 -0.0897
  901MOL0     H21616   7.228   4.942   6.001 -3.0113 -0.6984 -1.9060
  901MOL0     H21617   6.867   5.167   5.862 -0.9451  0.7621  2.0923
  901MOL0     H21618   6.739   5.321   5.717  0.0229 -0.3403  0.3060
  901MOL0     H21619   5.254   5.476   4.505 -1.3940  0.2265 -2.8856
  901MOL0     H21620   5.053   5.351   4.581 -0.4403 -0.2610 -0.2725
  901MOL0     H21621   4.950   4.878   4.834 -0.4459  1.4053  0.8734
  901MOL0     H21622   4.726   4.747   4.897  1.2047 -2.8123 -1.7930
  901MOL0     H21623   4.342   4.851   4.818 -0.1629 -1.9197 -0.9002
  901MOL0     H21624   4.459   4.861   4.943 -0.2097 -0.1810 -0.2405
  901MOL0     H21625   4.310   4.702   5.023  2.3252 -2.0168  2.2999
  901MOL0     H21626   4.455   4.611   4.982 -1.2650 -0.7996  1.0080
  901MOL0     H21627   4.243   4.509   4.924 -1.5157  1.2795 -0.9314
  901MOL0     H21628   4.370   4.507   4.811 -2.1350 -1.3921 -0.3009
  901MOL0     H21629   4.260   4.698   4.682 -0.6264  0.1648 -2.2164
  901MOL0     H21630   4.188   4.534   4.693 -0.2575  1.6272 -0.0177
  901MOL0     H21631   3.922   4.802   4.923 -1.2407 -3.8227  2.6917
  901MOL0     H21632   4.519   4.965   4.597 -0.2947  0.4678 -0.3387
  901MOL0     H21633   4.700   5.072   4.412 -0.3635  1.8350 -1.1045
  901MOL0     H21634   4.604   5.186   4.517  0.2852  1.3861 -1.1217
  901MOL0     H21635   4.778   5.193   4.500 -0.9161  0.4558  0.1404
  902MOL0     O21636  10.248   8.460   1.692  0.0090 -0.3763 -0.6090
  902MOL0     C21637  10.216   8.355   1.759 -1.2901 -0.5622 -0.3537
  902MOL0     O21638  10.284   8.321   1.875 -0.6085 -0.2608  1.3294
  902MOL0     C21639  10.408   8.389   1.895 -0.0404  0.5553  0.0519
  902MOL0     C21640  10.517   8.300   1.903  0.1453 -0.9732 -0.3521
  902MOL0     C21641  10.638   8.359   1.945 -0.1419 -0.1420 -0.2282
  902MOL0     C21642  10.658   8.498   1.986 -0.0204  0.5439  1.4946
  902MOL0     O21643  10.786   8.534   2.032 -0.2999  0.4341  0.3367
  902MOL0     C21644  10.797   8.636   2.133  0.0929  0.0758  0.8019
  902MOL0     C21645  10.883   8.755   2.101 -1.1421  0.5168  0.5748
  902MOL0     C21646  11.030   8.717   2.132  0.8719 -0.4108  0.9134
  902MOL0     C21647  11.117   8.837   2.086 -0.9221 -0.4410 -0.0771
  902MOL0     C21648  11.265   8.796   2.076  0.7216 -0.2502 -0.2962
  902MOL0     C21649  11.358   8.902   2.029 -1.4134  0.7602  0.4901
  902MOL0     C21650  11.503   8.880   2.055  0.5907  0.5666 -0.6155
  902MOL0     C21651  11.543   8.942   2.198 -0.7242  0.0624 -0.0421
  902MOL0     N21652  11.688   8.942   2.214 -0.5127 -0.0865  0.2825
  902MOL0     C21653  11.770   9.054   2.231  0.3388 -0.1039  0.4047
  902MOL0     C21654  11.900   9.021   2.189 -0.4129 -0.2354 -0.5157
  902MOL0     C21655  12.023   9.090   2.173 -0.7902  0.7257  0.3464
  902MOL0     C21656  12.076   9.117   2.315 -0.4687 -0.5224  0.5098
  902MOL0     C21657  12.206   9.187   2.306 -0.2551 -0.0996 -0.0328
  902MOL0     C21658  12.253   9.206   2.451 -0.3770  0.5667 -1.1143
  902MOL0     O21659  12.319   9.083   2.494  0.2515 -0.1738  0.0118
  902MOL0     C21660  12.370   9.089   2.622 -0.2893  0.2080  0.8402
  902MOL0     C21661  12.340   9.172   2.730 -0.6782 -0.2611 -0.0428
  902MOL0     C21662  12.406   9.171   2.854  0.6682  0.0258 -0.2814
  902MOL0     C21663  12.480   9.057   2.892 -1.3120 -0.1304 -0.3806
  902MOL0     C21664  12.532   9.028   3.017 -0.7538  0.6023 -0.2765
  902MOL0     O21665  12.633   8.927   3.019 -0.5230 -0.1692 -0.2490
  902MOL0     C21666  12.655   8.859   3.135  0.0251  0.0765 -0.4466
  902MOL0     C21667  12.779   8.816   3.162  0.2619  0.0980 -0.0044
  902MOL0     C21668  12.808   8.719   3.263 -0.4026  0.2479 -0.3296
  902MOL0     C21669  12.701   8.675   3.331  0.6698 -0.7123 -0.2918
  902MOL0     O21670  12.730   8.580   3.427 -0.6280 -0.8611 -0.7936
  902MOL0     C21671  12.679   8.618   3.552 -0.1832  0.7041  0.4991
  902MOL0     C21672  12.741   8.536   3.660 -1.1163  0.1651 -0.5174
  902MOL0     C21673  12.875   8.597   3.699 -0.2894 -0.6953  0.8705
  902MOL0     C21674  12.946   8.509   3.800  0.0307 -0.0267  0.2430
  902MOL0     C21675  13.073   8.574   3.853  0.4083 -0.3035  0.0172
  902MOL0     C21676  13.153   8.475   3.934 -0.3562 -0.5845 -0.7954
  902MOL0     C21677  13.093   8.478   4.077 -1.1901  0.7701  0.7574
  902MOL0     C21678  13.174   8.578   4.177  0.1640 -0.5251  0.0849
  902MOL0    Cl21679  13.221   8.472   4.316 -0.0756 -0.3560 -0.3552
  902MOL0     C21680  12.572   8.715   3.307 -0.0809  0.5846 -0.2325
  902MOL0     C21681  12.553   8.801   3.204  0.2895 -0.3180  0.6968
  902MOL0     O21682  12.486   9.091   3.113 -0.1022 -0.0907 -0.0389
  902MOL0     C21683  12.510   8.966   2.786 -0.4274  0.2272 -0.3228
  902MOL0     C21684  12.460   8.980   2.660  0.2101 -1.4297  0.2219
  902MOL0     N21685  11.896   8.889   2.154 -0.5052  1.1511  0.5113
  902MOL0     N21686  11.770   8.844   2.175 -0.1724  0.1417  1.3235
  902MOL0     C21687  10.540   8.582   1.981  0.3229  0.1006  0.0605
  902MOL0     C21688  10.423   8.522   1.938  1.0109 -0.8359 -1.5704
  902MOL0     C21689  10.117   8.268   1.693 -1.2769  0.0768 -1.7190
  902MOL0     C21690  10.062   8.296   1.562 -0.1801  0.1115 -0.3828
  902MOL0     C21691   9.969   8.209   1.506 -0.5641 -0.9398 -0.1278
  902MOL0     C21692   9.917   8.098   1.577 -0.0883 -0.4973 -0.1143
  902MOL0     O21693   9.828   8.022   1.498  0.2682 -0.5641 -0.3931
  902MOL0     C21694   9.761   7.921   1.561  0.1831  0.3538 -0.5079
  902MOL0     C21695   9.829   7.781   1.557  0.1077  0.5127 -0.1539
  902MOL0     C21696   9.878   7.742   1.414 -0.5981  1.0427  0.6521
  902MOL0     C21697   9.760   7.715   1.324  0.2964 -0.5799 -0.8024
  902MOL0     C21698   9.807   7.695   1.186 -0.1434  0.1647  1.7847
  902MOL0     C21699   9.824   7.686   1.064  1.0728 -0.2621  0.1908
  902MOL0     C21700   9.985   8.066   1.696 -0.4770  0.4025  0.0765
  902MOL0     C21701  10.078   8.145   1.753  0.6340 -0.0691 -0.3657
  902MOL0     C21702  10.132   8.096   1.887  1.1755 -0.1670 -0.3357
  902MOL0     H21703  10.502   8.195   1.881 -3.7111 -1.0490  1.8098
  902MOL0     H21704  10.725   8.294   1.947  0.7109  0.8781 -1.7580
  902MOL0     H21705  10.698   8.678   2.150 -1.3902 -1.9324 -2.0050
  902MOL0     H21706  10.834   8.592   2.226  1.4277  0.6268  0.5633
  902MOL0     H21707  10.851   8.829   2.174 -3.1343 -1.5613  1.9584
  902MOL0     H21708  10.866   8.789   1.999 -0.5949  0.8486  0.5924
  902MOL0     H21709  11.057   8.635   2.065  1.1028  0.4073 -0.0419
  902MOL0     H21710  11.040   8.699   2.239 -0.6226  0.9646  1.3196
  902MOL0     H21711  11.091   8.893   1.996  0.4347 -1.6750 -1.2974
  902MOL0     H21712  11.107   8.919   2.158 -0.7327  1.8157 -2.4754
  902MOL0     H21713  11.301   8.772   2.177  1.8704  1.9141 -0.1395
  902MOL0     H21714  11.270   8.701   2.022 -0.7018 -1.8453  2.1466
  902MOL0     H21715  11.361   8.889   1.921  3.1122  0.9750  0.4143
  902MOL0     H21716  11.327   9.003   2.059 -0.1612  1.0321  0.9165
  902MOL0     H21717  11.569   8.932   1.986  1.7767 -1.5444 -1.1695
  902MOL0     H21718  11.512   8.771   2.061  0.5498  0.6541  2.4568
  902MOL0     H21719  11.492   9.032   2.234 -2.9386 -1.8893  2.1214
  902MOL0     H21720  11.505   8.869   2.270 -0.1046  1.6549  1.9846
  902MOL0     H21721  11.717   9.144   2.262 -2.3562 -1.8943  1.3735
  902MOL0     H21722  12.092   9.026   2.118 -2.8475  0.7995 -2.5385
  902MOL0     H21723  12.010   9.182   2.115  0.0451  1.3007  1.0506
  902MOL0     H21724  12.011   9.175   2.380  2.8682  0.2586  3.4685
  902MOL0     H21725  12.098   9.019   2.357  2.5285 -0.2969 -0.2967
  902MOL0     H21726  12.190   9.293   2.284  1.3003  0.6751  2.2298
  902MOL0     H21727  12.269   9.143   2.229 -0.1334 -1.9038  1.0475
  902MOL0     H21728  12.167   9.228   2.514 -0.2676  1.4985 -1.2770
  902MOL0     H21729  12.321   9.292   2.453  3.4960 -2.2499 -0.5402
  902MOL0     H21730  12.278   9.256   2.699 -0.0407 -0.7656 -3.0857
  902MOL0     H21731  12.391   9.249   2.929 -0.3768 -1.9942  1.7139
  902MOL0     H21732  12.862   8.863   3.110  0.2572  1.2084  0.9649
  902MOL0     H21733  12.907   8.677   3.281  1.4177  1.3681 -5.6964
  902MOL0     H21734  12.693   8.726   3.565 -0.4930  0.5143  2.8757
  902MOL0     H21735  12.573   8.593   3.546  0.0374 -0.5742  1.5342
  902MOL0     H21736  12.675   8.522   3.746  0.7922 -1.0665  0.8409
  902MOL0     H21737  12.758   8.436   3.618  0.3926 -0.7062  1.9325
  902MOL0     H21738  12.931   8.631   3.612 -1.1778  1.1916  0.9900
  902MOL0     H21739  12.845   8.688   3.752 -3.8058 -3.3882  4.1225
  902MOL0     H21740  12.980   8.410   3.770 -2.9740 -1.5424  1.3810
  902MOL0     H21741  12.881   8.489   3.886  2.4697  0.9139  2.4513
  902MOL0     H21742  13.024   8.651   3.914  2.0572 -1.4258  2.9446
  902MOL0     H21743  13.124   8.618   3.767 -4.2391  2.1274 -1.9175
  902MOL0     H21744  13.139   8.373   3.897  0.3073  0.1210 -3.1726
  902MOL0     H21745  13.261   8.492   3.934 -0.1915 -1.4549  1.0118
  902MOL0     H21746  13.115   8.377   4.112 -0.8593  0.8738  0.8437
  902MOL0     H21747  12.988   8.509   4.072 -2.1725 -1.9597  2.1769
  902MOL0     H21748  13.271   8.611   4.137  1.0592  0.2441  2.6648
  902MOL0     H21749  13.114   8.662   4.214  0.5757 -1.8034  4.2225
  902MOL0     H21750  12.484   8.673   3.354  1.2196 -1.6964  0.3065
  902MOL0     H21751  12.447   8.813   3.183 -0.3093 -2.3927  2.1642
  902MOL0     H21752  12.564   8.874   2.805 -0.8875  0.2400  1.1667
  902MOL0     H21753  12.488   8.912   2.580 -3.4998 -1.0333 -1.5981
  902MOL0     H21754  10.539   8.688   2.008 -0.1181 -0.5320  2.9119
  902MOL0     H21755  10.340   8.592   1.931 -0.0586 -1.5110  1.9496
  902MOL0     H21756  10.076   8.387   1.505 -0.7845  0.6715  0.3462
  902MOL0     H21757   9.917   8.225   1.412 -0.7413  0.0213  0.1278
  902MOL0     H21758   9.670   7.924   1.502 -0.4060 -1.4307  0.2158
  902MOL0     H21759   9.734   7.943   1.665  4.1970 -0.4986  0.9388
  902MOL0     H21760   9.760   7.701   1.585  1.3584 -0.7378 -0.4844
  902MOL0     H21761   9.914   7.788   1.626 -1.2562 -0.6119  1.7354
  902MOL0     H21762   9.947   7.657   1.423  1.2886  2.5670  1.0966
  902MOL0     H21763   9.940   7.822   1.372 -4.7417  4.3317  0.1701
  902MOL0     H21764   9.714   7.626   1.368 -1.7501  1.6934  2.0529
  902MOL0     H21765   9.683   7.792   1.316  0.0682 -0.6762  0.3165
  902MOL0     H21766   9.806   7.661   0.961 -5.1411  2.1574  0.2908
  902MOL0     H21767   9.952   7.978   1.749 -1.0434  1.5282  1.6453
  902MOL0     H21768  10.110   8.168   1.966  1.9685 -1.2210  0.8840
  902MOL0     H21769  10.078   8.011   1.929 -0.3312  0.6717 -0.4890
  902MOL0     H21770  10.238   8.070   1.885  0.8628 -1.5833  0.2136
  903MOL0     O21771   5.660  10.297  10.950  0.4378  0.3712 -0.0273
  903MOL0     C21772   5.656  10.242  11.058 -0.2765 -0.0903  0.2436
  903MOL0     O21773   5.655  10.306  11.178 -0.2564  0.0026 -1.2228
  903MOL0     C21774   5.621  10.440  11.183 -0.4790 -0.6832  0.1305
  903MOL0     C21775   5.712  10.536  11.235  0.9739  0.5025  0.1212
  903MOL0     C21776   5.668  10.674  11.230 -0.2838  0.1339 -0.1540
  903MOL0     C21777   5.554  10.722  11.169 -0.9256  0.2654  0.3787
  903MOL0     O21778   5.530  10.854  11.172 -0.0126 -0.7036 -0.1255
  903MOL0     C21779   5.622  10.934  11.089 -0.4933  0.1784  0.0775
  903MOL0     C21780   5.565  11.071  11.072  0.3540  0.4257  0.4184
  903MOL0     C21781   5.537  11.103  10.926  0.3731  0.1937  0.5054
  903MOL0     C21782   5.517  11.248  10.917 -0.0396 -0.3339 -0.1951
  903MOL0     C21783   5.523  11.309  10.781 -0.0310  0.3427  0.2712
  903MOL0     C21784   5.665  11.297  10.722 -0.6213 -0.7633  0.4916
  903MOL0     C21785   5.675  11.373  10.602 -0.5027 -0.3700  0.2853
  903MOL0     C21786   5.814  11.363  10.535 -0.2546  0.0754  0.1054
  903MOL0     N21787   5.835  11.454  10.422 -0.7035 -0.4635 -0.5182
  903MOL0     C21788   5.816  11.593  10.414  0.0784  0.4897 -0.3449
  903MOL0     C21789   5.880  11.630  10.297  0.7461  0.1738  0.7575
  903MOL0     C21790   5.878  11.767  10.219  0.0254  0.5000  0.1241
  903MOL0     C21791   6.013  11.840  10.220  0.2023  0.0617 -0.2346
  903MOL0     C21792   6.054  11.878  10.363  0.1070  0.4675  0.2676
  903MOL0     C21793   6.191  11.945  10.354  0.7914  0.6619  0.5578
  903MOL0     O21794   6.285  11.908  10.450  0.0241  0.0786 -0.1147
  903MOL0     C21795   6.353  12.020  10.489  0.5395 -0.0061 -0.0427
  903MOL0     C21796   6.478  12.058  10.425 -0.3001  0.0321 -0.3821
  903MOL0     C21797   6.552  12.172  10.469 -0.1358 -0.0774  0.2204
  903MOL0     C21798   6.514  12.246  10.581 -0.0023 -1.8504  0.4705
  903MOL0     C21799   6.588  12.361  10.633  0.4511 -0.2913  0.1574
  903MOL0     O21800   6.715  12.367  10.602 -0.8412 -0.0245 -0.5633
  903MOL0     C21801   6.790  12.469  10.657  0.1333  0.6127 -0.0522
  903MOL0     C21802   6.913  12.443  10.717 -0.3148  0.9385  0.8202
  903MOL0     C21803   7.001  12.546  10.769  0.2077 -0.1046 -0.0444
  903MOL0     C21804   6.974  12.681  10.729  0.7214  0.3309  0.3598
  903MOL0     O21805   7.069  12.773  10.764 -0.1802 -0.2863 -0.4420
  903MOL0     C21806   7.101  12.887  10.678  0.6733  0.4011 -0.3319
  903MOL0     C21807   7.018  13.014  10.687 -0.3044  0.1327  0.7774
  903MOL0     C21808   7.020  13.071  10.545  0.1914  0.6571 -0.8720
  903MOL0     C21809   7.135  13.160  10.513 -0.3242  0.0683  0.2659
  903MOL0     C21810   7.151  13.226  10.371  0.1922 -0.1637  0.6066
  903MOL0     C21811   7.121  13.131  10.264  0.0604  0.4198  0.3008
  903MOL0     C21812   7.233  13.034  10.231  0.3700  0.6727  0.7880
  903MOL0     C21813   7.189  12.917  10.147  0.2637 -0.2444 -0.5161
  903MOL0    Cl21814   7.155  12.968   9.980  0.2088  0.3590  0.1789
  903MOL0     C21815   6.858  12.708  10.654  0.1283 -0.5737 -0.0111
  903MOL0     C21816   6.771  12.600  10.627  0.6015 -0.5189 -1.0020
  903MOL0     O21817   6.523  12.455  10.680  0.1384 -0.1481  0.8964
  903MOL0     C21818   6.400  12.201  10.648  0.5659  0.2484  0.2622
  903MOL0     C21819   6.325  12.087  10.610 -0.8839 -0.1385 -0.0293
  903MOL0     N21820   5.938  11.515  10.237 -0.0435 -0.1379 -0.4661
  903MOL0     N21821   5.909  11.409  10.313 -0.7267  0.2734 -0.7669
  903MOL0     C21822   5.465  10.623  11.117  0.9640 -0.4791  0.3354
  903MOL0     C21823   5.492  10.481  11.123  0.4692 -0.8620 -0.0233
  903MOL0     C21824   5.669  10.093  11.053  0.5135  1.4035 -0.4298
  903MOL0     C21825   5.737  10.040  11.160  0.4330  1.1555 -0.0250
  903MOL0     C21826   5.757   9.906  11.175  0.2251 -0.2348  0.0239
  903MOL0     C21827   5.734   9.822  11.074  0.0096  0.1105  0.4990
  903MOL0     O21828   5.755   9.685  11.089 -0.1331 -0.4200  0.4662
  903MOL0     C21829   5.808   9.613  10.975 -0.4091 -0.3096  0.5963
  903MOL0     C21830   5.902   9.491  11.001  0.5574 -0.6511 -0.7547
  903MOL0     C21831   5.847   9.368  11.067  0.4501 -0.1110 -0.7320
  903MOL0     C21832   5.715   9.310  11.008  0.4553 -0.7836  0.5686
  903MOL0     C21833   5.628   9.250  11.106  1.6515  0.9706 -0.8981
  903MOL0     C21834   5.548   9.200  11.185  0.8279  0.1432 -1.2677
  903MOL0     C21835   5.672   9.869  10.957  0.1818 -0.5269 -0.5059
  903MOL0     C21836   5.629  10.000  10.953 -0.1220 -0.2407 -0.6314
  903MOL0     C21837   5.540  10.055  10.833 -0.3144 -0.6516  0.1730
  903MOL0     H21838   5.798  10.502  11.293 -1.3382 -2.3103  2.1938
  903MOL0     H21839   5.725  10.746  11.288 -1.9885  0.5757  1.0654
  903MOL0     H21840   5.713  10.944  11.149 -0.2958 -0.5876 -0.0887
  903MOL0     H21841   5.639  10.887  10.992  0.2309  0.0823  0.2496
  903MOL0     H21842   5.621  11.149  11.125  2.9755 -1.6069  0.8282
  903MOL0     H21843   5.465  11.068  11.117 -0.5641  0.4005 -1.5040
  903MOL0     H21844   5.448  11.054  10.885 -0.7268  2.5776 -0.1073
  903MOL0     H21845   5.625  11.075  10.869 -0.4053 -1.1902 -0.0752
  903MOL0     H21846   5.435  11.292  10.975  1.9247  5.4615 -1.1378
  903MOL0     H21847   5.607  11.283  10.968 -0.4607  1.1164 -0.3987
  903MOL0     H21848   5.443  11.266  10.720 -0.7405  0.5671  1.0240
  903MOL0     H21849   5.500  11.414  10.800  0.6208  0.7995 -1.3400
  903MOL0     H21850   5.728  11.346  10.797 -2.7067  2.4766  0.3156
  903MOL0     H21851   5.696  11.192  10.717  1.7029 -0.1013  0.0310
  903MOL0     H21852   5.645  11.475  10.630  1.1926  0.6386 -1.3090
  903MOL0     H21853   5.599  11.353  10.526 -0.5900 -1.1337  0.5681
  903MOL0     H21854   5.885  11.373  10.617 -0.1877  2.1991 -0.1633
  903MOL0     H21855   5.839  11.261  10.503  2.3463  1.1891 -1.6996
  903MOL0     H21856   5.755  11.650  10.483  2.0048 -1.2702  3.1139
  903MOL0     H21857   5.841  11.740  10.119 -1.4339 -0.1951  0.8154
  903MOL0     H21858   5.797  11.833  10.250 -0.4102 -0.2834  0.7127
  903MOL0     H21859   6.081  11.777  10.162 -0.0440 -0.0211 -0.4357
  903MOL0     H21860   6.008  11.929  10.157  1.7383  0.0855 -0.3542
  903MOL0     H21861   6.053  11.781  10.414 -2.9094  0.3051  0.0946
  903MOL0     H21862   5.980  11.942  10.412  0.7615 -0.4412  2.5853
  903MOL0     H21863   6.172  12.052  10.347  3.3097  1.2607  1.9572
  903MOL0     H21864   6.229  11.928  10.252 -2.0685  2.8360 -1.0187
  903MOL0     H21865   6.516  12.003  10.340  2.5323 -1.6433  1.7786
  903MOL0     H21866   6.639  12.207  10.415 -0.5637 -0.6037 -0.8399
  903MOL0     H21867   6.947  12.344  10.747  1.9646  1.4774  0.2048
  903MOL0     H21868   7.091  12.523  10.825 -0.2232 -0.6010  0.4574
  903MOL0     H21869   7.204  12.916  10.701  1.6167 -1.4439 -1.9533
  903MOL0     H21870   7.108  12.852  10.574  0.0955 -1.5075  0.2341
  903MOL0     H21871   6.912  13.008  10.714 -0.3633  2.4078  1.2230
  903MOL0     H21872   7.065  13.078  10.763 -0.6595 -1.0620  2.0566
  903MOL0     H21873   7.017  12.985  10.477  1.1427 -2.4583  2.6845
  903MOL0     H21874   6.941  13.143  10.525  0.2895  0.4450 -2.1348
  903MOL0     H21875   7.223  13.102  10.543 -0.6767 -1.1944 -1.0615
  903MOL0     H21876   7.140  13.247  10.580 -1.0830  0.7956 -0.5988
  903MOL0     H21877   7.247  13.279  10.374  0.2567 -0.3165  3.3298
  903MOL0     H21878   7.068  13.297  10.369  2.6608  2.9360  0.2944
  903MOL0     H21879   7.033  13.069  10.285  1.1160 -1.3555 -0.2513
  903MOL0     H21880   7.089  13.192  10.179  1.2535  0.8731  0.1580
  903MOL0     H21881   7.273  12.997  10.326 -1.2178 -2.4805  0.3757
  903MOL0     H21882   7.309  13.087  10.173 -0.0507 -1.5236 -2.0228
  903MOL0     H21883   7.267  12.841  10.142 -0.7476 -1.3479 -0.0074
  903MOL0     H21884   7.111  12.854  10.191  0.2713 -0.9443 -1.4702
  903MOL0     H21885   6.841  12.811  10.622 -0.7816  0.6581  3.9052
  903MOL0     H21886   6.687  12.628  10.563 -2.5334 -0.4879  2.7510
  903MOL0     H21887   6.346  12.244  10.732 -3.9897  0.5418 -2.4676
  903MOL0     H21888   6.237  12.068  10.671 -1.1701  0.5047 -0.2340
  903MOL0     H21889   5.375  10.656  11.066  1.0384 -1.9981 -0.8737
  903MOL0     H21890   5.416  10.406  11.103 -0.7219  0.5219 -0.8336
  903MOL0     H21891   5.776  10.110  11.234  0.0225  1.4947 -0.1272
  903MOL0     H21892   5.799   9.865  11.267  0.5527  0.4529  0.1900
  903MOL0     H21893   5.858   9.659  10.889  0.0341  1.3173  1.6625
  903MOL0     H21894   5.718   9.570  10.932  0.4321 -0.6947 -0.8458
  903MOL0     H21895   5.981   9.528  11.068  0.8022  3.1966 -2.8951
  903MOL0     H21896   5.945   9.462  10.905 -0.4680 -0.3529 -1.3192
  903MOL0     H21897   5.821   9.393  11.170  0.8394 -0.3641 -0.5705
  903MOL0     H21898   5.930   9.298  11.070 -3.2747 -5.1880 -2.1915
  903MOL0     H21899   5.659   9.385  10.951  1.9234  0.6653  0.9564
  903MOL0     H21900   5.753   9.249  10.925  2.3558  2.0219 -0.8036
  903MOL0     H21901   5.492   9.136  11.251 -1.2136 -0.4057 -3.4299
  903MOL0     H21902   5.647   9.797  10.880  1.1265 -1.9520  0.4513
  903MOL0     H21903   5.489   9.972  10.784 -2.2668  0.3271  0.4687
  903MOL0     H21904   5.462  10.121  10.871  0.9179  0.3119  1.1163
  903MOL0     H21905   5.586  10.118  10.756 -0.3380 -0.1753  0.5441
  904MOL0     O21906   2.087   2.379   0.267  0.1956 -0.0488  0.0379
  904MOL0     C21907   2.115   2.364   0.150 -0.2083  0.9804  0.6491
  904MOL0     O21908   2.081   2.448   0.056 -0.2248 -0.3229  0.4011
  904MOL0     C21909   2.136   2.442  -0.070 -0.3148  0.9208  1.0604
  904MOL0     C21910   2.274   2.454  -0.098 -0.0346  0.9169  0.0567
  904MOL0     C21911   2.325   2.436  -0.227  0.4687 -0.7448  0.7846
  904MOL0     C21912   2.248   2.401  -0.338 -0.8945  0.4705 -0.2442
  904MOL0     O21913   2.317   2.382  -0.452 -0.4029  0.3974 -0.5080
  904MOL0     C21914   2.237   2.328  -0.562  0.2863 -0.1376 -0.2214
  904MOL0     C21915   2.336   2.287  -0.669 -0.1740 -0.1520  0.3176
  904MOL0     C21916   2.415   2.165  -0.637 -0.4070 -0.1428 -0.1152
  904MOL0     C21917   2.519   2.141  -0.742 -0.8712  0.6938 -0.5601
  904MOL0     C21918   2.622   2.028  -0.711  0.5942  0.0872 -0.3282
  904MOL0     C21919   2.727   2.036  -0.817 -0.1626  0.2376  0.2800
  904MOL0     C21920   2.814   1.910  -0.845  1.0159 -0.1336  0.1672
  904MOL0     C21921   2.726   1.796  -0.915  0.2356 -0.2665  0.0884
  904MOL0     N21922   2.821   1.708  -0.980  0.6878  0.4898 -0.1307
  904MOL0     C21923   2.855   1.708  -1.107  0.0246 -0.3902  0.2204
  904MOL0     C21924   2.947   1.610  -1.111  0.3618  0.3190  1.4629
  904MOL0     C21925   3.019   1.574  -1.241 -0.0322 -0.3771  0.3707
  904MOL0     C21926   3.173   1.580  -1.227 -0.1785  0.7858 -0.1220
  904MOL0     C21927   3.222   1.713  -1.174 -0.1714 -1.0993 -1.0345
  904MOL0     C21928   3.361   1.695  -1.136 -0.5089 -0.5713 -0.2977
  904MOL0     O21929   3.448   1.701  -1.248 -0.6631  0.6255  0.0378
  904MOL0     C21930   3.562   1.619  -1.236 -0.2086 -1.2291  0.1175
  904MOL0     C21931   3.675   1.666  -1.169 -0.4042  0.2281  0.4871
  904MOL0     C21932   3.782   1.575  -1.151 -0.3808  0.1200  0.1557
  904MOL0     C21933   3.757   1.444  -1.182 -0.3145  1.0391  0.4029
  904MOL0     C21934   3.870   1.343  -1.158  0.7227  0.6808  0.9484
  904MOL0     O21935   3.846   1.215  -1.215 -0.4426  0.4891  0.3385
  904MOL0     C21936   3.960   1.134  -1.224 -0.1950  0.9788  0.6860
  904MOL0     C21937   4.002   1.065  -1.116  0.4658 -0.3422  0.2424
  904MOL0     C21938   4.116   0.974  -1.137  1.1049 -0.7314 -0.5271
  904MOL0     C21939   4.178   0.954  -1.261 -0.5889 -0.4008 -0.1241
  904MOL0     O21940   4.281   0.863  -1.252  0.2565  0.5098 -0.3692
  904MOL0     C21941   4.383   0.856  -1.345  0.1563  0.3470  1.8680
  904MOL0     C21942   4.471   0.736  -1.336 -0.1297  0.1375 -0.4966
  904MOL0     C21943   4.403   0.609  -1.389 -0.4667  0.1110  0.1250
  904MOL0     C21944   4.461   0.473  -1.336 -0.3029 -0.6154 -0.8593
  904MOL0     C21945   4.411   0.356  -1.419 -0.8238  1.3189 -0.2266
  904MOL0     C21946   4.484   0.337  -1.557  1.1664 -0.8052 -0.3877
  904MOL0     C21947   4.435   0.215  -1.638 -0.1115  1.0190  0.4364
  904MOL0     C21948   4.458   0.067  -1.584 -0.4919  0.4306  1.2888
  904MOL0    Cl21949   4.616   0.049  -1.491 -0.0778  0.3407  0.4201
  904MOL0     C21950   4.130   1.035  -1.365  0.1651  0.3538  0.9497
  904MOL0     C21951   4.035   1.123  -1.342  0.1445  0.0732 -0.4015
  904MOL0     O21952   3.970   1.368  -1.098 -0.4348 -0.7862  0.3595
  904MOL0     C21953   3.646   1.399  -1.248 -0.5242 -0.1059  0.3901
  904MOL0     C21954   3.552   1.491  -1.287 -0.8084 -0.4311 -0.9680
  904MOL0     N21955   2.967   1.549  -0.993  1.1814 -0.3266  0.6152
  904MOL0     N21956   2.889   1.608  -0.918  0.5654 -0.2420 -0.1037
  904MOL0     C21957   2.107   2.378  -0.312 -1.1835 -0.2673  0.2348
  904MOL0     C21958   2.060   2.400  -0.180  0.2612  0.7404  0.4934
  904MOL0     C21959   2.186   2.234   0.111  0.2677 -0.2925 -0.0632
  904MOL0     C21960   2.105   2.137   0.046  0.6918  0.4946 -0.2866
  904MOL0     C21961   2.154   2.009   0.015  0.8093  0.4206 -0.2045
  904MOL0     C21962   2.279   1.970   0.067  0.5083  0.6408  0.6925
  904MOL0     O21963   2.321   1.840   0.046  0.5600 -0.1938  0.4212
  904MOL0     C21964   2.455   1.827  -0.000 -0.3903  0.6926  0.9988
  904MOL0     C21965   2.503   1.691   0.043 -0.0407 -0.4189  0.2672
  904MOL0     C21966   2.406   1.568   0.010 -0.5342  0.1517  0.5932
  904MOL0     C21967   2.390   1.560  -0.147  0.4714  0.4524 -0.5668
  904MOL0     C21968   2.349   1.429  -0.200  0.2956 -0.8092  0.7321
  904MOL0     C21969   2.323   1.317  -0.239 -0.1969  0.8870  0.6456
  904MOL0     C21970   2.361   2.064   0.137 -0.4584 -0.1737  0.0578
  904MOL0     C21971   2.314   2.197   0.149 -0.5955  0.2025  0.5553
  904MOL0     C21972   2.401   2.287   0.230  1.0457  1.0074  0.3075
  904MOL0     H21973   2.346   2.483  -0.023  2.1589  1.9684 -2.2870
  904MOL0     H21974   2.430   2.427  -0.250  0.8431 -0.1369  2.1662
  904MOL0     H21975   2.179   2.245  -0.520  0.8186  1.0404  3.2313
  904MOL0     H21976   2.175   2.409  -0.602 -1.7601 -1.1672  0.7093
  904MOL0     H21977   2.392   2.374  -0.702 -3.0906  1.5424 -0.5565
  904MOL0     H21978   2.287   2.266  -0.765  1.1235 -1.8350 -0.0276
  904MOL0     H21979   2.351   2.078  -0.619  0.4829 -1.3665 -2.4582
  904MOL0     H21980   2.469   2.182  -0.543 -0.5346  3.3734 -0.5757
  904MOL0     H21981   2.467   2.119  -0.836 -0.8190  0.3570 -0.5136
  904MOL0     H21982   2.578   2.230  -0.765  1.5286 -1.1969 -2.4292
  904MOL0     H21983   2.670   2.039  -0.614 -1.0472 -2.0693  0.8316
  904MOL0     H21984   2.572   1.931  -0.725  0.0963  0.5841 -2.4060
  904MOL0     H21985   2.680   2.069  -0.910  1.2126 -1.5752 -1.1268
  904MOL0     H21986   2.799   2.113  -0.789  3.5241 -2.6399 -0.4965
  904MOL0     H21987   2.856   1.865  -0.754  2.6987 -4.5278 -2.4907
  904MOL0     H21988   2.896   1.938  -0.911  2.7448  2.2866  3.0666
  904MOL0     H21989   2.669   1.744  -0.838 -1.4236 -0.6444 -1.3027
  904MOL0     H21990   2.654   1.846  -0.981  0.7394  1.6734  0.9365
  904MOL0     H21991   2.822   1.774  -1.186 -0.5644  1.5308  1.9821
  904MOL0     H21992   2.980   1.477  -1.274 -2.7652  1.0630 -0.9562
  904MOL0     H21993   2.992   1.636  -1.327  4.6956 -1.1786 -2.0207
  904MOL0     H21994   3.197   1.504  -1.152  1.2327  0.7764 -0.5527
  904MOL0     H21995   3.218   1.553  -1.323 -0.6909  0.3711 -0.2458
  904MOL0     H21996   3.160   1.749  -1.091 -0.2697  0.8404 -1.8898
  904MOL0     H21997   3.216   1.787  -1.254  0.5802 -0.0184 -0.1244
  904MOL0     H21998   3.363   1.597  -1.087 -2.1946 -0.9789 -1.0040
  904MOL0     H21999   3.396   1.776  -1.072  2.6504  0.8099 -3.4034
  904MOL0     H22000   3.683   1.763  -1.122  2.9442  1.1551 -1.6864
  904MOL0     H22001   3.878   1.608  -1.112 -0.0899 -1.3106  0.6873
  904MOL0     H22002   3.959   1.063  -1.016 -0.3698 -1.2384 -0.1161
  904MOL0     H22003   4.147   0.909  -1.056 -2.1130 -1.0718  0.5912
  904MOL0     H22004   4.344   0.853  -1.447 -2.3065  0.0049  2.7461
  904MOL0     H22005   4.452   0.940  -1.346  0.4437  0.1198  2.0690
  904MOL0     H22006   4.566   0.754  -1.387 -0.7425 -1.6186 -2.3724
  904MOL0     H22007   4.499   0.716  -1.232  1.4187  2.0497 -0.4648
  904MOL0     H22008   4.296   0.612  -1.370 -0.2176  1.2018  1.5174
  904MOL0     H22009   4.397   0.604  -1.498 -0.7129 -2.8793  0.2094
  904MOL0     H22010   4.430   0.460  -1.232  0.7857  0.8312 -0.3230
  904MOL0     H22011   4.570   0.467  -1.339 -0.2920 -2.7277  1.4764
  904MOL0     H22012   4.303   0.343  -1.417 -0.7320  0.4969  0.5073
  904MOL0     H22013   4.452   0.270  -1.364  2.6988  2.8629 -0.1419
  904MOL0     H22014   4.469   0.420  -1.627 -0.3330 -1.5029 -0.9402
  904MOL0     H22015   4.590   0.328  -1.534  0.9190  1.3925  2.0533
  904MOL0     H22016   4.484   0.222  -1.736 -0.7381 -1.2244 -0.0891
  904MOL0     H22017   4.329   0.219  -1.663 -0.2424  0.5100  0.9021
  904MOL0     H22018   4.387   0.028  -1.510 -2.1266 -1.0921 -0.9550
  904MOL0     H22019   4.440  -0.001  -1.667  1.8973  1.7076 -0.4133
  904MOL0     H22020   4.179   1.029  -1.462 -1.0074 -0.8725  0.3943
  904MOL0     H22021   4.005   1.194  -1.420 -1.2030  1.1347  1.0050
  904MOL0     H22022   3.630   1.299  -1.288 -0.1441  0.2375 -0.6542
  904MOL0     H22023   3.461   1.463  -1.339 -0.4064 -1.2484 -1.2550
  904MOL0     H22024   2.030   2.347  -0.382 -1.7054  3.1115 -0.9138
  904MOL0     H22025   1.955   2.391  -0.156  0.2956 -0.2500  0.3191
  904MOL0     H22026   2.001   2.162   0.029  1.4561  2.5847 -2.7332
  904MOL0     H22027   2.086   1.943  -0.037  2.7084 -1.0503 -0.9423
  904MOL0     H22028   2.522   1.910   0.024  0.4758  0.6175 -0.9312
  904MOL0     H22029   2.465   1.835  -0.109  0.1134 -1.4347  0.8504
  904MOL0     H22030   2.514   1.692   0.152 -3.5995 -1.2803  0.7814
  904MOL0     H22031   2.603   1.681  -0.001  1.8998  2.8258  3.3737
  904MOL0     H22032   2.310   1.576   0.062 -0.0932  0.5644  1.3682
  904MOL0     H22033   2.457   1.479   0.047 -1.5007 -0.3728  0.6827
  904MOL0     H22034   2.305   1.625  -0.167  0.6393  1.2999  1.2968
  904MOL0     H22035   2.481   1.591  -0.200  1.3431 -1.3809 -0.2122
  904MOL0     H22036   2.301   1.224  -0.290  0.5408  1.1565 -0.1843
  904MOL0     H22037   2.460   2.038   0.173  0.3556  1.1889 -1.0844
  904MOL0     H22038   2.381   2.394   0.214  0.1256  1.1821  2.2876
  904MOL0     H22039   2.389   2.267   0.337  2.2766 -1.1802  0.0888
  904MOL0     H22040   2.505   2.268   0.204 -0.2450 -0.9142 -4.3779
  905MOL0     O22041   1.538  10.219   8.254  0.5928  0.6579  0.1908
  905MOL0     C22042   1.466  10.144   8.184  0.1413  0.0371  0.4912
  905MOL0     O22043   1.440  10.015   8.219 -1.1813  0.6054  0.2140
  905MOL0     C22044   1.511   9.943   8.309 -0.6014 -0.9788  0.2670
  905MOL0     C22045   1.647   9.956   8.331  0.2002  0.7140  1.0723
  905MOL0     C22046   1.706   9.869   8.414  0.3799 -0.2719 -0.0946
  905MOL0     C22047   1.638   9.766   8.474 -0.4288  1.3218 -1.1173
  905MOL0     O22048   1.704   9.696   8.579  0.1661 -0.4124 -0.8152
  905MOL0     C22049   1.748   9.780   8.682 -0.5466 -0.0304  0.5167
  905MOL0     C22050   1.770   9.700   8.812 -0.3392  0.2609  0.0885
  905MOL0     C22051   1.794   9.801   8.931 -0.7633  1.0335 -0.3988
  905MOL0     C22052   1.785   9.737   9.067  0.5917 -0.1557 -0.0885
  905MOL0     C22053   1.821   9.834   9.175  0.6802  1.0300 -0.7798
  905MOL0     C22054   1.970   9.835   9.191 -0.4169 -0.5851 -0.5968
  905MOL0     C22055   2.012   9.910   9.321 -0.2099  0.3853 -0.0935
  905MOL0     C22056   1.960   9.840   9.460  0.4337  0.3755  0.3721
  905MOL0     N22057   1.840   9.906   9.502 -0.1702  0.0338 -0.1334
  905MOL0     C22058   1.716   9.853   9.506  0.3109  0.0586  1.3036
  905MOL0     C22059   1.623   9.957   9.523 -1.0025  0.8214  0.0668
  905MOL0     C22060   1.478   9.928   9.532  0.6937  0.3022 -1.0430
  905MOL0     C22061   1.419   9.897   9.675 -0.6052 -0.9498  1.5400
  905MOL0     C22062   1.466   9.996   9.774  0.0118  0.1061 -0.6195
  905MOL0     C22063   1.389   9.975   9.903 -0.5640 -0.1369 -0.0236
  905MOL0     O22064   1.351   9.840   9.943 -0.8319  0.0433  0.1395
  905MOL0     C22065   1.219   9.809   9.943 -0.4372 -0.2203  0.2440
  905MOL0     C22066   1.132   9.897  10.015 -0.3530  0.3655 -0.4485
  905MOL0     C22067   0.994   9.886  10.000 -0.6118  0.2040 -1.4387
  905MOL0     C22068   0.947   9.779   9.912 -0.7118  0.2306  0.0809
  905MOL0     C22069   0.804   9.750   9.903  0.9006 -0.2708 -0.9735
  905MOL0     O22070   0.724   9.822   9.989  0.2739  0.2258 -0.5981
  905MOL0     C22071   0.586   9.809   9.975 -0.3552  0.2283  0.0030
  905MOL0     C22072   0.512   9.833  10.095 -0.4710  0.1247 -0.2043
  905MOL0     C22073   0.374   9.815  10.107  1.0175 -0.5422  0.0083
  905MOL0     C22074   0.292   9.774   9.992 -0.2610  0.7106  0.1838
  905MOL0     O22075   0.158   9.731   9.991  0.2446  0.7412 -0.1792
  905MOL0     C22076   0.074   9.764  10.099 -0.5163 -0.8246  0.4287
  905MOL0     C22077   0.012   9.903  10.079 -0.1688 -0.3566 -0.1557
  905MOL0     C22078  -0.093   9.932  10.186  0.2907  0.0063 -0.3927
  905MOL0     C22079  -0.225   9.848  10.152 -0.9487 -0.0060  0.3251
  905MOL0     C22080  -0.334   9.878  10.241 -1.4969 -0.1787  0.4896
  905MOL0     C22081  -0.313   9.821  10.376  0.2403  0.1318  0.5899
  905MOL0     C22082  -0.413   9.886  10.475 -0.9732  0.2538 -1.4643
  905MOL0     C22083  -0.564   9.877  10.459 -0.2835 -0.1101  0.0607
  905MOL0    Cl22084  -0.623   9.950  10.611  0.2801 -0.2020  0.1422
  905MOL0     C22085   0.359   9.755   9.870 -0.4257 -0.3347 -0.4820
  905MOL0     C22086   0.501   9.781   9.860  0.4242  0.4325 -0.6013
  905MOL0     O22087   0.773   9.653   9.833 -0.2971  0.2244  0.2958
  905MOL0     C22088   1.035   9.680   9.855  0.2979 -0.6858 -0.3646
  905MOL0     C22089   1.166   9.699   9.872  0.4147 -0.1460  0.9212
  905MOL0     N22090   1.697  10.071   9.538  0.4261 -0.2740 -0.8732
  905MOL0     N22091   1.823  10.040   9.526  0.4610  0.2496  0.4761
  905MOL0     C22092   1.502   9.750   8.451 -0.5942 -0.3816 -0.5057
  905MOL0     C22093   1.433   9.833   8.365 -0.4488  0.5255  0.2509
  905MOL0     C22094   1.412  10.195   8.052  0.0909 -0.0342  0.0756
  905MOL0     C22095   1.426  10.335   8.017 -0.0625 -0.8687 -0.2796
  905MOL0     C22096   1.363  10.383   7.897  0.0070 -0.0265  0.7113
  905MOL0     C22097   1.278  10.302   7.824 -0.3708 -0.5060  0.7167
  905MOL0     O22098   1.237  10.351   7.697  1.4102 -0.4591  0.1016
  905MOL0     C22099   1.123  10.290   7.639  0.4673  0.4116 -0.6144
  905MOL0     C22100   1.036  10.381   7.552 -0.9600  0.3766 -0.2899
  905MOL0     C22101   1.106  10.419   7.424  1.2262 -0.4130  0.0359
  905MOL0     C22102   1.021  10.499   7.326  0.6901  0.2761  0.5051
  905MOL0     C22103   1.116  10.528   7.221  0.1682  0.6357  1.1540
  905MOL0     C22104   1.180  10.559   7.122 -0.6234 -0.5402 -1.1843
  905MOL0     C22105   1.265  10.165   7.854  0.8247  0.7592 -0.2237
  905MOL0     C22106   1.336  10.112   7.965  0.6986 -0.3423 -0.4483
  905MOL0     C22107   1.315   9.964   7.988  0.2646  0.1518  0.1271
  905MOL0     H22108   1.708  10.029   8.280 -1.7745  1.3360 -0.5196
  905MOL0     H22109   1.813   9.890   8.418  0.9076 -2.0690 -2.4619
  905MOL0     H22110   1.840   9.833   8.655  0.5470 -1.1206  1.9841
  905MOL0     H22111   1.685   9.869   8.695  2.0576  1.8899  0.6873
  905MOL0     H22112   1.850   9.627   8.799 -0.4628  0.1931 -0.3270
  905MOL0     H22113   1.687   9.630   8.827  2.5618 -2.8416  3.4212
  905MOL0     H22114   1.712   9.874   8.923 -0.9196  0.7566 -1.4732
  905MOL0     H22115   1.898   9.832   8.919  1.8450 -5.3674  1.5452
  905MOL0     H22116   1.685   9.694   9.079  0.4689  0.2389  0.3453
  905MOL0     H22117   1.852   9.652   9.079  1.0319 -0.1380 -2.0913
  905MOL0     H22118   1.772   9.930   9.156 -3.0508 -0.2821  1.2412
  905MOL0     H22119   1.783   9.790   9.267  2.7871 -1.2587 -0.8617
  905MOL0     H22120   2.005   9.731   9.187  0.7139 -0.3083  1.2041
  905MOL0     H22121   2.010   9.898   9.111  1.0909 -1.3034 -0.4397
  905MOL0     H22122   1.986  10.016   9.311 -0.2266  0.4798  0.8545
  905MOL0     H22123   2.121   9.909   9.329 -0.2952 -0.1341  1.1692
  905MOL0     H22124   1.940   9.734   9.440 -1.7572  0.9393 -0.7712
  905MOL0     H22125   2.029   9.846   9.545 -0.6187  0.5461  1.2503
  905MOL0     H22126   1.695   9.747   9.492 -3.2635  0.5025  2.2093
  905MOL0     H22127   1.422  10.016   9.499 -1.8456 -1.1890 -0.9613
  905MOL0     H22128   1.445   9.850   9.462 -1.2453 -1.6082  1.7688
  905MOL0     H22129   1.312   9.899   9.651 -0.3646 -0.1201  0.4612
  905MOL0     H22130   1.452   9.798   9.708 -2.5741 -1.8437  0.9537
  905MOL0     H22131   1.453  10.099   9.738  0.7666  0.2549 -0.5047
  905MOL0     H22132   1.571   9.983   9.803  0.1437  1.6321 -0.2991
  905MOL0     H22133   1.299  10.035   9.887 -0.5573 -0.9302 -4.0094
  905MOL0     H22134   1.442  10.011   9.991 -0.0240 -1.3661  0.1755
  905MOL0     H22135   1.172   9.975  10.078 -0.6907 -0.7094  1.1527
  905MOL0     H22136   0.924   9.960  10.037  0.0377  0.4167 -0.6107
  905MOL0     H22137   0.574   9.858  10.181  1.6407 -1.7982 -1.0801
  905MOL0     H22138   0.327   9.840  10.201  2.8475  2.9964  0.1905
  905MOL0     H22139  -0.007   9.692  10.113  0.1146 -1.1620  2.8569
  905MOL0     H22140   0.131   9.775  10.192  1.9174 -3.6566 -0.5654
  905MOL0     H22141   0.095   9.974  10.084 -1.1538  1.0036 -1.8881
  905MOL0     H22142  -0.044   9.907   9.984  0.3746  1.7386 -0.4288
  905MOL0     H22143  -0.038   9.891  10.271 -0.5427  0.9675  0.6256
  905MOL0     H22144  -0.116  10.037  10.200  0.4311 -0.0925  0.6518
  905MOL0     H22145  -0.210   9.740  10.148 -0.1467  0.1186 -1.8669
  905MOL0     H22146  -0.258   9.879  10.052 -1.1721  3.3230  1.2979
  905MOL0     H22147  -0.408   9.845  10.168  0.4609  2.0904 -2.8749
  905MOL0     H22148  -0.349   9.986  10.253  0.5272  0.7261 -3.2269
  905MOL0     H22149  -0.323   9.712  10.378 -2.1774  0.2904  1.7259
  905MOL0     H22150  -0.212   9.848  10.407  1.0830 -2.5550  0.4398
  905MOL0     H22151  -0.397   9.994  10.473 -1.8284  0.3801 -2.4386
  905MOL0     H22152  -0.399   9.846  10.576 -3.9767  2.2550 -0.0969
  905MOL0     H22153  -0.579   9.928  10.364  0.4849 -4.0624 -2.4090
  905MOL0     H22154  -0.596   9.774  10.437 -1.7164  0.2071  0.5036
  905MOL0     H22155   0.298   9.711   9.793  1.1631 -0.9840 -1.4258
  905MOL0     H22156   0.534   9.768   9.757  2.1791  0.9555 -0.1370
  905MOL0     H22157   0.987   9.601   9.798 -4.3712  0.3472  1.6822
  905MOL0     H22158   1.237   9.641   9.813 -1.3123  1.1086 -2.6706
  905MOL0     H22159   1.458   9.671   8.511  1.0935 -0.8631  0.1602
  905MOL0     H22160   1.331   9.813   8.333  0.1317 -0.9956 -0.7582
  905MOL0     H22161   1.495  10.391   8.079 -1.6326  0.4045  0.3878
  905MOL0     H22162   1.387  10.478   7.851  3.5093 -2.0618 -2.2492
  905MOL0     H22163   1.059  10.253   7.719  0.0988  1.7636 -0.2424
  905MOL0     H22164   1.143  10.207   7.572 -4.1986 -2.6707  1.3278
  905MOL0     H22165   1.038  10.478   7.603 -1.5357  1.1632 -1.6933
  905MOL0     H22166   0.939  10.330   7.545 -0.7562 -0.3503  1.5296
  905MOL0     H22167   1.143  10.331   7.372 -1.6401 -2.2772  0.9548
  905MOL0     H22168   1.191  10.483   7.451  3.4647 -0.1378 -6.0707
  905MOL0     H22169   0.939  10.445   7.279 -0.1211  1.4101  0.6007
  905MOL0     H22170   0.978  10.588   7.373 -2.4657 -1.4737  1.2121
  905MOL0     H22171   1.223  10.591   7.030  1.4875  1.3083  0.3164
  905MOL0     H22172   1.200  10.099   7.798 -0.4157  1.0633  0.8024
  905MOL0     H22173   1.262   9.912   7.908 -0.2560 -0.9770  1.1657
  905MOL0     H22174   1.412   9.916   8.005  1.8584  2.6828 -1.2696
  905MOL0     H22175   1.262   9.958   8.084  3.3103  3.6284  2.2758
  906MOL0     O22176   1.353   2.115   2.893  0.4438  0.4462  0.3636
  906MOL0     C22177   1.343   2.053   2.998 -0.9612  0.7210  0.1659
  906MOL0     O22178   1.360   1.916   3.017  0.6790 -0.3216  0.0234
  906MOL0     C22179   1.417   1.830   2.923 -0.0479  0.2301  0.3389
  906MOL0     C22180   1.545   1.769   2.940  0.5266 -0.0658  0.0261
  906MOL0     C22181   1.591   1.669   2.864 -1.4434 -0.7122  0.0179
  906MOL0     C22182   1.497   1.612   2.775 -0.2524 -0.2023  0.9396
  906MOL0     O22183   1.560   1.516   2.699  0.5968  0.2199 -1.4822
  906MOL0     C22184   1.484   1.453   2.594  0.0332 -0.3942  0.2333
  906MOL0     C22185   1.574   1.368   2.504 -0.3576  0.0068 -0.8504
  906MOL0     C22186   1.682   1.454   2.439  0.0934  0.0387 -0.2788
  906MOL0     C22187   1.756   1.366   2.335  0.2274  0.3911 -0.4401
  906MOL0     C22188   1.820   1.436   2.214  1.1651  0.6539 -0.3845
  906MOL0     C22189   1.722   1.505   2.112  0.1756  0.3955 -0.3485
  906MOL0     C22190   1.794   1.567   1.997  0.2835  0.4081  0.3419
  906MOL0     C22191   1.748   1.495   1.870  0.8037  0.4815  0.9970
  906MOL0     N22192   1.801   1.579   1.764  0.6144 -0.0030 -0.5302
  906MOL0     C22193   1.739   1.679   1.696  0.5611 -0.0908  0.2112
  906MOL0     C22194   1.830   1.725   1.608 -0.2781  0.4855 -0.2023
  906MOL0     C22195   1.817   1.837   1.517 -0.7559 -0.6822 -0.2571
  906MOL0     C22196   1.778   1.810   1.370 -0.0464 -0.0970  0.4504
  906MOL0     C22197   1.709   1.930   1.310 -0.0465  0.3702 -0.3540
  906MOL0     C22198   1.655   1.886   1.178  1.1586 -0.1687  0.2287
  906MOL0     O22199   1.545   1.968   1.148 -0.6770 -0.9881 -0.4416
  906MOL0     C22200   1.429   1.957   1.205 -0.1142  0.8696  0.8075
  906MOL0     C22201   1.346   2.070   1.214 -0.2101  0.2623  0.3524
  906MOL0     C22202   1.210   2.066   1.251  0.5723  1.0209 -0.5475
  906MOL0     C22203   1.158   1.946   1.295  0.1730  0.5811  0.5513
  906MOL0     C22204   1.029   1.948   1.366 -0.1547 -0.6388  0.2914
  906MOL0     O22205   0.983   2.069   1.398 -0.3452  0.0675 -0.2236
  906MOL0     C22206   0.851   2.086   1.418 -0.4366 -0.8482  0.3991
  906MOL0     C22207   0.807   2.203   1.490 -0.4072  0.0109  0.2485
  906MOL0     C22208   0.673   2.240   1.496 -0.2318  0.1092 -0.1565
  906MOL0     C22209   0.578   2.165   1.429  0.0665  0.7536  0.1690
  906MOL0     O22210   0.446   2.203   1.435 -0.0102  0.6563 -0.0085
  906MOL0     C22211   0.440   2.316   1.345 -0.7260 -0.1620 -0.3330
  906MOL0     C22212   0.395   2.271   1.203  0.3879 -0.4813 -0.3552
  906MOL0     C22213   0.378   2.384   1.106  0.6125 -0.1005  0.7093
  906MOL0     C22214   0.311   2.337   0.983  0.7184  0.2292 -0.0630
  906MOL0     C22215   0.263   2.434   0.876 -0.5166  0.1461  0.4536
  906MOL0     C22216   0.357   2.554   0.843 -0.3219 -0.2068  0.3695
  906MOL0     C22217   0.488   2.506   0.775  1.1157 -0.4592  0.8202
  906MOL0     C22218   0.476   2.441   0.633  0.0688  0.6427 -0.5264
  906MOL0    Cl22219   0.634   2.452   0.555  0.0405  0.1550  0.6687
  906MOL0     C22220   0.609   2.055   1.358  0.5181  0.2372  0.2194
  906MOL0     C22221   0.748   2.017   1.355 -0.0488  0.1888  0.4435
  906MOL0     O22222   0.983   1.838   1.409 -0.0994  0.2112  1.9597
  906MOL0     C22223   1.237   1.829   1.267  0.4328  0.4424 -0.4057
  906MOL0     C22224   1.368   1.830   1.219  0.0652 -0.0229 -0.9418
  906MOL0     N22225   1.958   1.665   1.637  0.0601 -0.1104  0.1124
  906MOL0     N22226   1.933   1.575   1.725 -0.8825 -0.2292 -0.3527
  906MOL0     C22227   1.373   1.667   2.758  0.2382 -0.0086  0.0479
  906MOL0     C22228   1.332   1.775   2.825 -0.2674 -0.4781 -0.7603
  906MOL0     C22229   1.343   2.128   3.127 -0.4812  0.7205  0.6614
  906MOL0     C22230   1.430   2.074   3.224  0.6774  0.6543 -0.8884
  906MOL0     C22231   1.447   2.136   3.348  0.0616 -0.9640 -0.2307
  906MOL0     C22232   1.384   2.261   3.374  0.7308  0.0356 -0.8796
  906MOL0     O22233   1.388   2.325   3.496 -0.6757 -0.6511  0.3626
  906MOL0     C22234   1.454   2.269   3.606 -0.1894 -0.2226 -0.5158
  906MOL0     C22235   1.376   2.306   3.728 -0.4370  0.6668  0.0070
  906MOL0     C22236   1.247   2.220   3.742 -0.1972  0.0504  0.6013
  906MOL0     C22237   1.167   2.250   3.866  0.3541  0.5996 -0.3197
  906MOL0     C22238   1.045   2.170   3.875  1.0623 -0.1111 -0.4246
  906MOL0     C22239   0.930   2.109   3.886 -0.2870  0.5736 -0.0050
  906MOL0     C22240   1.308   2.315   3.278 -0.3018  0.4486 -0.3625
  906MOL0     C22241   1.278   2.248   3.156  0.3372  0.3754 -0.2905
  906MOL0     C22242   1.181   2.309   3.074  0.0075 -0.5679  0.4834
  906MOL0     H22243   1.606   1.819   3.015  3.5521 -0.3886 -2.0558
  906MOL0     H22244   1.693   1.634   2.875 -1.5047 -0.8468  0.1656
  906MOL0     H22245   1.420   1.376   2.638  2.4078 -1.9595  1.1901
  906MOL0     H22246   1.423   1.529   2.544 -0.5206  0.7634  2.5482
  906MOL0     H22247   1.512   1.331   2.421 -3.2500 -0.3779  1.3210
  906MOL0     H22248   1.627   1.290   2.559 -1.6792  0.5061  1.2793
  906MOL0     H22249   1.750   1.494   2.515  1.2173  1.2324 -1.8321
  906MOL0     H22250   1.631   1.539   2.391 -3.7855 -1.4282  0.8719
  906MOL0     H22251   1.842   1.326   2.390  1.3538  0.9308 -1.7432
  906MOL0     H22252   1.699   1.283   2.293  1.5519  0.0218 -1.5736
  906MOL0     H22253   1.882   1.511   2.263  0.7140  0.9157 -0.2069
  906MOL0     H22254   1.878   1.360   2.161 -1.8077 -1.2090 -1.1639
  906MOL0     H22255   1.649   1.427   2.088  1.1286 -0.5542 -0.2561
  906MOL0     H22256   1.670   1.584   2.166 -0.6563  0.1915 -0.8437
  906MOL0     H22257   1.901   1.549   2.008  0.2098 -0.8424 -0.7306
  906MOL0     H22258   1.778   1.675   1.998 -0.0545  0.3603  0.4694
  906MOL0     H22259   1.795   1.396   1.871  3.1451  1.1297 -4.9894
  906MOL0     H22260   1.643   1.491   1.842  2.0774 -0.2264 -5.0119
  906MOL0     H22261   1.635   1.711   1.703  1.1495  1.6309  2.1972
  906MOL0     H22262   1.737   1.898   1.560 -0.0882 -0.0599  0.1301
  906MOL0     H22263   1.911   1.893   1.509 -1.1902  0.1701  0.4508
  906MOL0     H22264   1.872   1.798   1.315  0.6468  1.2589  1.2899
  906MOL0     H22265   1.717   1.719   1.373 -0.0174 -0.3450 -2.9190
  906MOL0     H22266   1.769   2.021   1.303  0.4013 -0.0027 -1.6518
  906MOL0     H22267   1.629   1.949   1.382 -0.3561  0.5834 -0.7571
  906MOL0     H22268   1.623   1.786   1.150 -1.6365  0.9507 -1.0302
  906MOL0     H22269   1.728   1.925   1.105 -0.9760  1.2403 -1.2774
  906MOL0     H22270   1.391   2.162   1.179  3.1576  0.4130  4.3897
  906MOL0     H22271   1.154   2.159   1.248 -0.3122  0.4795 -1.0980
  906MOL0     H22272   0.870   2.277   1.537  0.1694 -0.0522 -0.4115
  906MOL0     H22273   0.642   2.325   1.557 -0.3595 -0.4523  0.5638
  906MOL0     H22274   0.372   2.385   1.396 -2.4915 -1.8426 -0.2917
  906MOL0     H22275   0.538   2.364   1.333 -0.5821 -0.8224 -2.0209
  906MOL0     H22276   0.471   2.203   1.163 -2.8979 -3.5262 -1.9552
  906MOL0     H22277   0.299   2.219   1.209 -0.2532  0.5974 -0.9332
  906MOL0     H22278   0.303   2.453   1.146  0.4127 -0.3751  0.8068
  906MOL0     H22279   0.478   2.419   1.079  1.5336 -2.8818  0.2842
  906MOL0     H22280   0.217   2.288   1.008 -2.0058  4.6356 -0.5833
  906MOL0     H22281   0.378   2.264   0.936 -3.6354 -4.5478  0.2746
  906MOL0     H22282   0.167   2.465   0.920 -0.3246 -1.2040  1.9371
  906MOL0     H22283   0.235   2.378   0.787  1.1103  1.5572 -1.0145
  906MOL0     H22284   0.298   2.615   0.774  1.4365 -1.4904 -2.4755
  906MOL0     H22285   0.378   2.616   0.930 -4.4110  1.2494  0.5306
  906MOL0     H22286   0.534   2.438   0.847 -0.8562 -1.2890  1.3598
  906MOL0     H22287   0.544   2.600   0.770  0.9557 -0.3926 -3.6053
  906MOL0     H22288   0.447   2.339   0.658 -1.5452  1.7410  2.5429
  906MOL0     H22289   0.397   2.489   0.574 -2.6993  0.7100  2.9359
  906MOL0     H22290   0.546   1.981   1.310  3.5746 -1.1942 -1.9728
  906MOL0     H22291   0.761   1.924   1.300 -0.9245 -0.5894  1.5116
  906MOL0     H22292   1.197   1.731   1.287  2.0298  0.0195  0.9395
  906MOL0     H22293   1.413   1.731   1.229  1.3625  0.7690  2.6135
  906MOL0     H22294   1.301   1.622   2.691 -1.3006 -0.8469  2.1707
  906MOL0     H22295   1.229   1.809   2.817 -0.8412 -2.3792 -2.2686
  906MOL0     H22296   1.481   1.978   3.217 -1.8564 -1.2569  2.9507
  906MOL0     H22297   1.510   2.080   3.417 -1.6829 -0.6976  1.7110
  906MOL0     H22298   1.547   2.322   3.625  0.1929 -1.0000 -0.1690
  906MOL0     H22299   1.476   2.162   3.617  1.5665  0.1888  0.3296
  906MOL0     H22300   1.346   2.411   3.722 -0.5845  0.8900  2.9516
  906MOL0     H22301   1.432   2.290   3.821 -1.9262  0.9084  0.9866
  906MOL0     H22302   1.266   2.112   3.745 -1.2550 -0.1418  2.4849
  906MOL0     H22303   1.192   2.240   3.649  2.8503  0.2193 -1.2822
  906MOL0     H22304   1.232   2.228   3.951  1.3069 -5.1049 -2.0382
  906MOL0     H22305   1.136   2.354   3.864  0.8100  0.7363 -0.3259
  906MOL0     H22306   0.832   2.067   3.887 -0.6070  1.2965  1.3022
  906MOL0     H22307   1.267   2.414   3.294  0.3706  0.6685  0.0457
  906MOL0     H22308   1.229   2.324   2.976  2.5441 -0.8472  1.6026
  906MOL0     H22309   1.097   2.238   3.071  0.6428 -1.3834 -3.3377
  906MOL0     H22310   1.157   2.410   3.107  0.2734  0.5428 -2.4198
  907MOL0     O22311   5.913   6.111   0.808 -0.3551  0.2125 -0.1154
  907MOL0     C22312   5.981   6.209   0.774 -0.3631 -0.4462  0.8228
  907MOL0     O22313   6.118   6.218   0.776 -0.1362  0.3903 -0.4733
  907MOL0     C22314   6.201   6.113   0.802 -1.0091  0.6504  0.1014
  907MOL0     C22315   6.290   6.069   0.699  0.0630  0.2616 -0.2928
  907MOL0     C22316   6.367   5.950   0.705 -0.0793 -0.5440  0.0600
  907MOL0     C22317   6.330   5.861   0.808  1.1869  0.1721  0.3914
  907MOL0     O22318   6.377   5.735   0.831  0.1581 -0.1526 -0.0689
  907MOL0     C22319   6.481   5.695   0.736 -0.4355 -0.5154 -0.5788
  907MOL0     C22320   6.516   5.551   0.787  0.6822 -0.7407 -0.4850
  907MOL0     C22321   6.392   5.465   0.771  0.4178 -1.1394  0.6231
  907MOL0     C22322   6.426   5.328   0.829  0.1348  0.0064 -0.5608
  907MOL0     C22323   6.330   5.221   0.821  0.7494  1.4602 -0.5042
  907MOL0     C22324   6.260   5.214   0.689  0.0221  1.7383  0.4272
  907MOL0     C22325   6.194   5.072   0.651  0.2646 -0.0613 -1.4323
  907MOL0     C22326   6.152   5.061   0.501 -0.6893 -0.1508 -0.2074
  907MOL0     N22327   6.040   5.145   0.452 -0.7829 -0.6437 -0.1306
  907MOL0     C22328   6.013   5.166   0.318 -0.1221  0.3762 -0.8860
  907MOL0     C22329   5.914   5.259   0.322  0.2149 -0.4937  0.1831
  907MOL0     C22330   5.858   5.304   0.189  0.6524  0.9258  0.1888
  907MOL0     C22331   5.709   5.343   0.198  0.7800  0.0404  0.1723
  907MOL0     C22332   5.623   5.227   0.243  1.0753  0.1598  0.0508
  907MOL0     C22333   5.615   5.124   0.133 -0.4177  0.9515  0.3541
  907MOL0     O22334   5.544   5.012   0.186 -0.1697  1.1144 -0.7378
  907MOL0     C22335   5.611   4.899   0.229  0.1310  0.1376 -0.3218
  907MOL0     C22336   5.732   4.918   0.298 -0.1833  1.0028 -0.1328
  907MOL0     C22337   5.803   4.808   0.352  0.3158 -0.2262 -0.5703
  907MOL0     C22338   5.746   4.680   0.353  0.8112  0.2469 -0.2020
  907MOL0     C22339   5.814   4.569   0.427  0.3770 -0.8198  0.5326
  907MOL0     O22340   5.938   4.596   0.448 -1.1995 -0.5770  0.4553
  907MOL0     C22341   6.014   4.501   0.517  0.5172  0.2543 -0.7770
  907MOL0     C22342   6.044   4.376   0.470  0.1778  0.6095  0.4459
  907MOL0     C22343   6.114   4.277   0.543  0.3141  0.1596  0.4909
  907MOL0     C22344   6.171   4.317   0.668 -0.0065 -0.0549 -0.4533
  907MOL0     O22345   6.239   4.217   0.736  1.0413  0.4592  1.0233
  907MOL0     C22346   6.264   4.213   0.871  0.0448  0.4065 -0.6488
  907MOL0     C22347   6.152   4.143   0.941  0.1184  0.1920  0.4005
  907MOL0     C22348   6.149   4.173   1.089  0.7432 -0.5218 -0.0153
  907MOL0     C22349   6.262   4.129   1.184 -0.5243 -0.2348 -0.3238
  907MOL0     C22350   6.218   4.019   1.284  0.8858 -0.3232  0.3354
  907MOL0     C22351   6.318   4.004   1.397  0.1148  0.4898 -0.5886
  907MOL0     C22352   6.293   3.899   1.510  0.3975  0.3159  0.4080
  907MOL0     C22353   6.156   3.900   1.570  0.3532 -0.1430 -0.5981
  907MOL0    Cl22354   6.167   3.818   1.722 -0.2596  0.1894  0.2945
  907MOL0     C22355   6.133   4.443   0.716 -1.0203  0.6535 -0.6063
  907MOL0     C22356   6.061   4.533   0.643  0.3671 -0.0263 -0.0911
  907MOL0     O22357   5.760   4.472   0.471  0.9169  0.1763 -0.1993
  907MOL0     C22358   5.625   4.660   0.281 -0.5343 -0.2782  0.4431
  907MOL0     C22359   5.559   4.769   0.215  0.0963 -0.2959 -1.0293
  907MOL0     N22360   5.887   5.295   0.448  0.0220  0.6962 -0.6429
  907MOL0     N22361   5.963   5.230   0.529 -1.1172  0.2705 -0.9624
  907MOL0     C22362   6.240   5.898   0.911  0.8686  0.9590 -0.0610
  907MOL0     C22363   6.174   6.026   0.911  0.0358 -0.4898  0.4691
  907MOL0     C22364   5.920   6.331   0.705 -0.4481 -0.9100 -0.5869
  907MOL0     C22365   5.998   6.444   0.695  0.4554 -0.2485 -0.8038
  907MOL0     C22366   5.944   6.559   0.643  0.3686 -0.0787  0.1413
  907MOL0     C22367   5.807   6.581   0.604 -0.8941  0.3662  0.6369
  907MOL0     O22368   5.740   6.689   0.564 -0.2000  0.0584  0.4389
  907MOL0     C22369   5.800   6.820   0.570  1.1718 -0.1382 -0.8737
  907MOL0     C22370   5.697   6.905   0.636  0.2048  0.1069 -0.3137
  907MOL0     C22371   5.556   6.909   0.570  0.0231  0.2657  1.0760
  907MOL0     C22372   5.542   7.007   0.452  0.6123  0.5303 -0.2378
  907MOL0     C22373   5.552   6.935   0.317 -0.8435 -0.1731 -0.7353
  907MOL0     C22374   5.544   6.885   0.204 -0.3688 -0.6042  0.5077
  907MOL0     C22375   5.728   6.464   0.615  0.2101  0.8036 -0.9734
  907MOL0     C22376   5.779   6.338   0.669 -0.4466  0.1791 -0.0735
  907MOL0     C22377   5.685   6.227   0.684 -0.6252 -0.6385 -0.2887
  907MOL0     H22378   6.297   6.137   0.614  3.7264  1.6476  0.9486
  907MOL0     H22379   6.440   5.945   0.625  3.3664  3.0815  2.5773
  907MOL0     H22380   6.454   5.696   0.630  0.3604 -1.7683 -0.8111
  907MOL0     H22381   6.572   5.755   0.747 -0.4816 -0.7171  1.3055
  907MOL0     H22382   6.531   5.555   0.895  0.5483  2.6276 -0.4815
  907MOL0     H22383   6.599   5.510   0.728  1.6035 -1.5073  1.2869
  907MOL0     H22384   6.357   5.457   0.668  2.0914 -0.8790  0.0140
  907MOL0     H22385   6.321   5.515   0.838 -0.6408  3.5011 -3.4177
  907MOL0     H22386   6.523   5.290   0.796  1.4534 -1.4955  4.2438
  907MOL0     H22387   6.442   5.349   0.935 -1.4471  1.4322 -0.5627
  907MOL0     H22388   6.386   5.129   0.841 -0.0677  1.2337  0.8838
  907MOL0     H22389   6.258   5.239   0.901  1.9342  2.4684  0.3803
  907MOL0     H22390   6.181   5.290   0.686 -1.4534  0.3219  1.7707
  907MOL0     H22391   6.328   5.226   0.604  1.6985 -2.3265  0.9796
  907MOL0     H22392   6.109   5.056   0.718  0.9062 -2.2940 -1.0868
  907MOL0     H22393   6.261   4.993   0.685  0.0904  0.7330  0.9681
  907MOL0     H22394   6.234   5.081   0.431  0.4665 -0.7337  0.9481
  907MOL0     H22395   6.115   4.960   0.480  1.0505 -0.6830 -0.8860
  907MOL0     H22396   6.054   5.135   0.223 -2.7941  2.2294 -2.8258
  907MOL0     H22397   5.905   5.392   0.143 -0.7828  0.0550 -3.2548
  907MOL0     H22398   5.875   5.229   0.112 -2.0969  2.6616 -2.3010
  907MOL0     H22399   5.699   5.423   0.271  2.0375 -0.4081  0.8636
  907MOL0     H22400   5.670   5.395   0.110  0.0684  0.4443  0.7277
  907MOL0     H22401   5.526   5.273   0.261 -0.1843 -0.4107 -4.0884
  907MOL0     H22402   5.661   5.182   0.335 -0.9298 -3.3978 -0.6719
  907MOL0     H22403   5.710   5.090   0.090 -0.4490 -0.6159  1.4702
  907MOL0     H22404   5.558   5.167   0.050  0.8120  2.6106  0.3080
  907MOL0     H22405   5.785   5.013   0.304  1.1279  0.5213 -2.6549
  907MOL0     H22406   5.901   4.833   0.393  0.3806  3.7571 -2.6525
  907MOL0     H22407   6.004   4.331   0.380 -1.4095 -3.7468  2.9906
  907MOL0     H22408   6.110   4.175   0.506  2.1025 -0.1074  0.9383
  907MOL0     H22409   6.345   4.141   0.887 -0.3867  0.3039  1.3949
  907MOL0     H22410   6.289   4.306   0.923  2.0295 -0.8526  0.7715
  907MOL0     H22411   6.072   4.190   0.882  1.2003  0.6713 -0.7178
  907MOL0     H22412   6.154   4.035   0.929 -1.8886  0.2820 -1.4327
  907MOL0     H22413   6.122   4.279   1.089  0.9556 -0.4238 -2.3015
  907MOL0     H22414   6.068   4.119   1.140  0.5065  3.0858  3.9866
  907MOL0     H22415   6.301   4.209   1.247  0.5526 -2.2711  1.7459
  907MOL0     H22416   6.340   4.086   1.121  0.0446 -1.1884  0.9858
  907MOL0     H22417   6.218   3.927   1.224 -3.1288 -1.0024  1.0963
  907MOL0     H22418   6.117   4.045   1.316  1.0768  2.8353 -1.2752
  907MOL0     H22419   6.416   3.989   1.351 -0.3687  2.8963 -2.6151
  907MOL0     H22420   6.332   4.096   1.454 -0.1576 -0.0941  0.4545
  907MOL0     H22421   6.363   3.938   1.584  1.2141  2.0531 -1.1930
  907MOL0     H22422   6.315   3.795   1.484 -2.9779 -0.3789 -0.1711
  907MOL0     H22423   6.128   4.005   1.582  2.2355  0.2716  0.5947
  907MOL0     H22424   6.070   3.851   1.523 -1.1615 -0.9878  2.7202
  907MOL0     H22425   6.154   4.477   0.817 -3.2369 -1.1253  0.5459
  907MOL0     H22426   6.032   4.630   0.681  1.9372 -0.7701  3.3704
  907MOL0     H22427   5.572   4.565   0.283  0.1727 -0.6921 -0.0738
  907MOL0     H22428   5.462   4.756   0.169  0.3483  1.3874 -2.1484
  907MOL0     H22429   6.219   5.831   0.994 -1.1706  2.3110  0.6125
  907MOL0     H22430   6.101   6.042   0.990  1.8009 -0.4578  2.1970
  907MOL0     H22431   6.104   6.453   0.719 -0.1625  0.3474  2.1982
  907MOL0     H22432   6.014   6.641   0.650 -0.9413  0.9351  2.3507
  907MOL0     H22433   5.811   6.851   0.465  0.7664 -0.9150 -1.1586
  907MOL0     H22434   5.900   6.825   0.614  2.1643  2.1165 -3.1098
  907MOL0     H22435   5.740   7.006   0.637 -0.8156  0.7954  4.7337
  907MOL0     H22436   5.685   6.881   0.742 -1.0709 -0.0063 -0.4707
  907MOL0     H22437   5.478   6.925   0.645 -2.1682 -1.4001 -0.6914
  907MOL0     H22438   5.539   6.810   0.528  2.9457 -0.3235  1.0983
  907MOL0     H22439   5.449   7.064   0.464 -0.4254 -1.6532  3.9506
  907MOL0     H22440   5.631   7.071   0.458  1.5513 -0.7978  0.6029
  907MOL0     H22441   5.544   6.848   0.103 -4.1443 -0.0258  0.1585
  907MOL0     H22442   5.623   6.473   0.589  0.6816  0.6428 -3.1295
  907MOL0     H22443   5.577   6.245   0.673 -0.6175  0.1026  0.7110
  907MOL0     H22444   5.714   6.140   0.624 -1.5746  0.1455 -1.9673
  907MOL0     H22445   5.680   6.193   0.788 -1.5240 -2.0875 -0.7723
  908MOL0     O22446   3.517   7.665   4.868 -0.4546 -1.1639 -0.4939
  908MOL0     C22447   3.570   7.605   4.770 -0.7231  0.8217 -0.4036
  908MOL0     O22448   3.676   7.664   4.706 -0.1014  0.2512  0.4586
  908MOL0     C22449   3.721   7.782   4.748  0.4928  0.6086  0.3992
  908MOL0     C22450   3.735   7.835   4.881 -0.2151 -0.0394  0.2111
  908MOL0     C22451   3.791   7.964   4.905 -0.1644 -0.2451  0.7699
  908MOL0     C22452   3.827   8.039   4.792 -0.1346  0.7611  0.2475
  908MOL0     O22453   3.868   8.163   4.807  0.2605 -0.5479 -0.2903
  908MOL0     C22454   3.928   8.235   4.699  0.1631 -0.4051  0.9582
  908MOL0     C22455   3.954   8.376   4.751 -0.4115 -0.0394 -0.7079
  908MOL0     C22456   3.831   8.466   4.765 -0.3550 -0.2858 -0.3296
  908MOL0     C22457   3.763   8.490   4.627 -0.7652  0.1099 -0.2762
  908MOL0     C22458   3.651   8.592   4.657  0.1779  0.2954 -1.0332
  908MOL0     C22459   3.588   8.632   4.520 -0.1932  0.6254 -0.6588
  908MOL0     C22460   3.513   8.520   4.445  0.3324  0.8681  0.2209
  908MOL0     C22461   3.374   8.484   4.503  0.1893  0.0559  0.4149
  908MOL0     N22462   3.262   8.575   4.484 -0.2984  0.0816 -0.1104
  908MOL0     C22463   3.254   8.699   4.535  0.2413 -0.1409  0.7518
  908MOL0     C22464   3.144   8.757   4.485 -0.4918 -1.2976 -0.1908
  908MOL0     C22465   3.093   8.890   4.530 -0.3134  0.3404  0.1054
  908MOL0     C22466   3.063   9.006   4.434  0.1361  0.2052  0.3487
  908MOL0     C22467   2.938   8.995   4.348  0.1288  0.0158  0.8579
  908MOL0     C22468   2.935   9.112   4.239  0.6919 -0.1588  0.7116
  908MOL0     O22469   3.025   9.085   4.131 -0.4405  0.4531  0.1910
  908MOL0     C22470   3.110   9.183   4.086 -1.5644 -0.2194 -0.4618
  908MOL0     C22471   3.196   9.152   3.985 -0.1342 -0.7524  0.3762
  908MOL0     C22472   3.285   9.248   3.936  0.6011  0.2073 -0.0448
  908MOL0     C22473   3.291   9.385   3.977 -0.2334 -0.5590  0.3116
  908MOL0     C22474   3.375   9.487   3.915 -0.8419 -0.2273  1.1774
  908MOL0     O22475   3.444   9.452   3.793 -0.1557 -0.1729 -0.4300
  908MOL0     C22476   3.499   9.548   3.719  0.2161 -0.4447  0.8759
  908MOL0     C22477   3.607   9.614   3.769 -0.9915 -0.8323  1.0240
  908MOL0     C22478   3.664   9.720   3.687  0.4886 -0.6201 -0.6294
  908MOL0     C22479   3.602   9.752   3.571 -0.7711 -0.2164 -0.7209
  908MOL0     O22480   3.655   9.865   3.509 -0.9331  0.0102 -0.2175
  908MOL0     C22481   3.651   9.876   3.369 -0.2454  1.0126  0.0474
  908MOL0     C22482   3.724   9.998   3.332  0.2387  0.2294 -0.7655
  908MOL0     C22483   3.878   9.995   3.348 -0.6492 -0.3469  0.7970
  908MOL0     C22484   3.948  10.120   3.294  0.3936  0.3977  0.1083
  908MOL0     C22485   4.080  10.132   3.360  0.7973  0.1706  0.6032
  908MOL0     C22486   4.156  10.267   3.341 -0.3251 -0.0433  1.4048
  908MOL0     C22487   4.194  10.281   3.192 -0.0053 -0.4145 -0.8800
  908MOL0     C22488   4.233  10.425   3.173  0.4973 -0.1214  0.6775
  908MOL0    Cl22489   4.091  10.536   3.174 -0.1394 -0.3013  1.1303
  908MOL0     C22490   3.510   9.673   3.506  0.9628  0.3477 -0.2032
  908MOL0     C22491   3.457   9.572   3.586  0.2562  0.3256  0.1306
  908MOL0     O22492   3.383   9.599   3.966 -0.8453  0.0087  0.6460
  908MOL0     C22493   3.183   9.418   4.059 -0.1280 -0.1287  0.5528
  908MOL0     C22494   3.098   9.321   4.115  0.0030 -0.9850  0.2032
  908MOL0     N22495   3.078   8.660   4.407 -0.6630  0.5417  1.0524
  908MOL0     N22496   3.153   8.554   4.402 -1.2407 -0.3922  0.6033
  908MOL0     C22497   3.826   7.988   4.666  0.5156  1.7223  0.8718
  908MOL0     C22498   3.765   7.858   4.644  0.2652  0.2452  0.4013
  908MOL0     C22499   3.513   7.468   4.727  0.7751  0.0049 -0.3526
  908MOL0     C22500   3.559   7.408   4.612  0.1664  0.3011 -0.1291
  908MOL0     C22501   3.517   7.271   4.580 -1.1801 -1.3237 -0.4125
  908MOL0     C22502   3.406   7.218   4.637  0.4631  0.3569  0.3247
  908MOL0     O22503   3.365   7.092   4.604  0.2479 -0.5357 -0.0360
  908MOL0     C22504   3.315   7.068   4.482  0.2234 -0.0615  1.1288
  908MOL0     C22505   3.170   7.014   4.482 -0.1378 -0.2205  0.5852
  908MOL0     C22506   3.143   6.892   4.560 -0.1000 -0.0329  0.6783
  908MOL0     C22507   3.242   6.770   4.528  0.0754  1.4248  0.0035
  908MOL0     C22508   3.207   6.706   4.403 -0.2664 -0.7404  0.8679
  908MOL0     C22509   3.180   6.649   4.299  0.2586  0.5123  0.8893
  908MOL0     C22510   3.355   7.279   4.749 -0.2072  0.7109  0.9508
  908MOL0     C22511   3.411   7.398   4.794  0.1872  1.3822 -0.1290
  908MOL0     C22512   3.349   7.439   4.926  0.0611  0.4467  0.5212
  908MOL0     H22513   3.726   7.777   4.973 -1.4598  1.7051  1.2526
  908MOL0     H22514   3.797   8.010   5.003 -0.0613  1.2725  0.0800
  908MOL0     H22515   4.024   8.199   4.662  1.1280  1.0844  1.8848
  908MOL0     H22516   3.867   8.252   4.610  0.4617  1.2978  1.0366
  908MOL0     H22517   4.016   8.421   4.673 -0.4530  1.5310  0.1309
  908MOL0     H22518   4.016   8.368   4.840  0.6423 -0.9037 -1.4842
  908MOL0     H22519   3.867   8.564   4.797 -1.1399 -0.6006  1.6550
  908MOL0     H22520   3.758   8.424   4.835 -1.2516  1.6273 -0.0304
  908MOL0     H22521   3.835   8.527   4.553  1.4238  1.8415  2.5342
  908MOL0     H22522   3.721   8.393   4.595  0.2158 -0.2991 -0.3527
  908MOL0     H22523   3.585   8.537   4.726  1.0403  0.6895  0.1398
  908MOL0     H22524   3.695   8.676   4.711  0.3869  0.5826 -1.6461
  908MOL0     H22525   3.537   8.729   4.531  0.2497  0.7983 -0.0443
  908MOL0     H22526   3.673   8.655   4.454 -0.3284  1.5401 -0.5354
  908MOL0     H22527   3.559   8.420   4.446 -0.4220  0.4972 -0.4381
  908MOL0     H22528   3.503   8.555   4.342 -2.2874  1.8010  0.7261
  908MOL0     H22529   3.338   8.388   4.465  3.1339 -0.3875 -1.5474
  908MOL0     H22530   3.390   8.472   4.611  2.3615  0.4554  0.1828
  908MOL0     H22531   3.325   8.745   4.604  3.7425 -1.0309 -1.9791
  908MOL0     H22532   2.999   8.865   4.581  0.2203  1.9323  2.0000
  908MOL0     H22533   3.164   8.931   4.602 -2.9846  1.8652  2.0912
  908MOL0     H22534   3.068   9.102   4.487 -3.7088  0.3515  0.7711
  908MOL0     H22535   3.149   9.001   4.367  1.5362  1.9779  1.9073
  908MOL0     H22536   2.848   9.002   4.409  0.4304  0.5333  1.2562
  908MOL0     H22537   2.933   8.905   4.286 -0.3758  1.4384 -1.2746
  908MOL0     H22538   2.942   9.209   4.289 -0.7309  0.4740 -0.2535
  908MOL0     H22539   2.836   9.114   4.193  0.2526 -0.4563  1.6010
  908MOL0     H22540   3.201   9.057   3.932 -1.1814  0.0562 -1.2851
  908MOL0     H22541   3.359   9.213   3.865  0.9757  0.3965  0.2486
  908MOL0     H22542   3.659   9.583   3.858  3.4381 -0.5989 -1.1983
  908MOL0     H22543   3.740   9.785   3.728 -2.6840  1.7157  2.0967
  908MOL0     H22544   3.704   9.788   3.332 -0.7893  0.2167  1.0848
  908MOL0     H22545   3.553   9.874   3.321 -0.9392 -1.6319  1.3378
  908MOL0     H22546   3.702  10.016   3.227  1.6578  3.3134 -0.6692
  908MOL0     H22547   3.681  10.084   3.384  1.8065  0.9252 -0.5330
  908MOL0     H22548   3.906   9.984   3.453 -0.7087 -1.0047  0.7491
  908MOL0     H22549   3.911   9.908   3.289  0.1170  0.0470  0.6438
  908MOL0     H22550   3.879  10.201   3.317 -1.2388 -1.0483  0.5567
  908MOL0     H22551   3.964  10.105   3.186  1.1348 -1.8407  0.4772
  908MOL0     H22552   4.150  10.051   3.338  1.8883  1.2017  0.2029
  908MOL0     H22553   4.076  10.121   3.469  0.7787 -2.4553  0.4017
  908MOL0     H22554   4.110  10.354   3.388  1.1480  2.6051 -1.6269
  908MOL0     H22555   4.250  10.251   3.394 -0.2619  0.7615  1.5465
  908MOL0     H22556   4.107  10.268   3.126 -0.0581  0.9202 -1.0930
  908MOL0     H22557   4.269  10.207   3.162 -2.1772 -1.0372 -5.6301
  908MOL0     H22558   4.302  10.456   3.252 -0.6261 -0.9269  2.0153
  908MOL0     H22559   4.282  10.426   3.075  1.8976  0.6652  1.3604
  908MOL0     H22560   3.469   9.694   3.407  1.4195  0.6809 -0.3285
  908MOL0     H22561   3.366   9.524   3.551 -1.7109  4.4011 -0.8409
  908MOL0     H22562   3.184   9.524   4.080 -0.7260 -0.4487  2.3894
  908MOL0     H22563   3.011   9.352   4.173  0.8937 -4.6765  3.9914
  908MOL0     H22564   3.855   8.034   4.573 -1.0534 -1.2207 -1.2348
  908MOL0     H22565   3.753   7.817   4.544  0.6950  0.3579  0.3035
  908MOL0     H22566   3.624   7.448   4.535 -0.6328  2.1983  0.1324
  908MOL0     H22567   3.560   7.218   4.495  3.5234  0.1398  0.7478
  908MOL0     H22568   3.384   7.002   4.429 -2.2204 -1.2631 -0.7111
  908MOL0     H22569   3.311   7.159   4.421  1.0096 -0.4712  0.4490
  908MOL0     H22570   3.144   6.999   4.376  0.1974  5.1014 -0.5284
  908MOL0     H22571   3.096   7.078   4.530  0.2344 -1.6056  3.2144
  908MOL0     H22572   3.041   6.856   4.544 -0.4832 -0.1140  2.9580
  908MOL0     H22573   3.131   6.915   4.666  1.6740  1.5415  0.5888
  908MOL0     H22574   3.340   6.820   4.526 -0.8115  3.2553  0.0794
  908MOL0     H22575   3.247   6.703   4.614  2.8642 -1.5858 -2.2529
  908MOL0     H22576   3.137   6.602   4.212 -1.2377 -1.0829  2.3980
  908MOL0     H22577   3.276   7.219   4.793  1.9640 -1.0805  2.6422
  908MOL0     H22578   3.279   7.519   4.900 -2.8690 -2.4733 -1.4383
  908MOL0     H22579   3.287   7.360   4.969 -0.7823  0.3039 -0.8954
  908MOL0     H22580   3.406   7.484   5.008 -2.4568  5.7276 -0.2339
  909MOL0     O22581   7.254   3.869   4.608  0.6334 -0.3693  0.5373
  909MOL0     C22582   7.213   3.875   4.722  0.4043 -0.5104 -0.2072
  909MOL0     O22583   7.120   3.791   4.773 -0.5424  0.7645 -0.5970
  909MOL0     C22584   7.031   3.716   4.698 -0.7590 -0.4691 -0.1921
  909MOL0     C22585   7.089   3.620   4.616  0.0179  0.7258 -0.2832
  909MOL0     C22586   7.006   3.537   4.539  0.1809  0.4110 -0.0896
  909MOL0     C22587   6.867   3.559   4.540 -0.2051 -0.0253  0.8502
  909MOL0     O22588   6.788   3.477   4.466 -0.2616 -0.6164  0.2896
  909MOL0     C22589   6.646   3.510   4.449  0.1104  0.3188 -0.6238
  909MOL0     C22590   6.584   3.403   4.359  0.1399 -0.0540 -0.5765
  909MOL0     C22591   6.439   3.402   4.327  1.1154 -1.0851  0.7215
  909MOL0     C22592   6.354   3.511   4.377  0.7650 -0.8567  0.8088
  909MOL0     C22593   6.211   3.519   4.314 -0.8893 -0.9927 -0.3539
  909MOL0     C22594   6.155   3.655   4.356 -0.1692  0.1546 -0.3535
  909MOL0     C22595   6.000   3.664   4.362 -0.7097 -0.1859 -0.2546
  909MOL0     C22596   5.914   3.665   4.236 -0.1838 -0.5303 -0.1283
  909MOL0     N22597   5.955   3.565   4.135  0.6719 -0.9329  0.0150
  909MOL0     C22598   5.918   3.438   4.155 -0.0956  0.1118  0.1413
  909MOL0     C22599   6.002   3.374   4.072  0.3278 -0.2237  0.2761
  909MOL0     C22600   6.012   3.228   4.067 -0.6310  1.2201  0.4425
  909MOL0     C22601   6.136   3.169   4.131 -0.0952 -1.0723 -0.7135
  909MOL0     C22602   6.192   3.034   4.080  0.1020  0.1050 -0.0870
  909MOL0     C22603   6.339   3.011   4.124  0.6797 -0.2162  1.3010
  909MOL0     O22604   6.338   2.971   4.266  0.6608  0.7226  0.7939
  909MOL0     C22605   6.310   2.844   4.305  0.3223  0.0413 -0.5711
  909MOL0     C22606   6.266   2.740   4.220  0.1723 -1.4276  1.0461
  909MOL0     C22607   6.254   2.605   4.250  0.6238 -0.4843  0.5613
  909MOL0     C22608   6.277   2.564   4.381 -0.4465  0.6098  0.1610
  909MOL0     C22609   6.264   2.424   4.417  0.2775 -0.5623  0.1809
  909MOL0     O22610   6.211   2.342   4.332  0.6445  1.0227  0.2034
  909MOL0     C22611   6.184   2.209   4.367  0.0011 -0.2734 -0.2706
  909MOL0     C22612   6.144   2.162   4.496  0.2468 -0.1498  0.4063
  909MOL0     C22613   6.153   2.032   4.540  0.3670 -0.8485  0.5929
  909MOL0     C22614   6.159   1.927   4.439 -0.3913 -0.1952 -0.4795
  909MOL0     O22615   6.132   1.794   4.478  0.3598  0.1185  0.1511
  909MOL0     C22616   6.017   1.764   4.583 -0.6974  0.0081  0.1857
  909MOL0     C22617   6.086   1.746   4.722  0.3467 -0.7485  0.6409
  909MOL0     C22618   6.141   1.602   4.728  0.6518  0.4279 -0.1362
  909MOL0     C22619   6.214   1.574   4.854  0.1708  0.7894 -0.2498
  909MOL0     C22620   6.293   1.443   4.837  0.1018 -0.3246 -0.6880
  909MOL0     C22621   6.395   1.406   4.946 -0.5221  0.9400  0.2486
  909MOL0     C22622   6.491   1.518   4.970 -0.2816 -0.2663  0.3648
  909MOL0     C22623   6.596   1.460   5.070  0.5480 -1.1713  0.6005
  909MOL0    Cl22624   6.741   1.551   5.121 -0.2058  0.3207 -0.0003
  909MOL0     C22625   6.195   1.967   4.306 -0.5803  0.4572 -0.2383
  909MOL0     C22626   6.220   2.104   4.279  0.1739 -0.6583 -1.3174
  909MOL0     O22627   6.303   2.392   4.523 -0.1198 -0.1036 -0.1464
  909MOL0     C22628   6.316   2.663   4.468  0.4749 -0.5347 -0.1112
  909MOL0     C22629   6.329   2.795   4.438  0.0994 -0.1071 -0.4045
  909MOL0     N22630   6.063   3.466   3.990  0.3858  0.2125  0.6478
  909MOL0     N22631   6.022   3.587   4.021 -0.1851  0.4969 -0.0270
  909MOL0     C22632   6.819   3.667   4.621  0.3162  0.8845  0.8503
  909MOL0     C22633   6.900   3.741   4.707 -0.2463  0.1866  0.7380
  909MOL0     C22634   7.263   3.968   4.831 -0.3973 -0.6267 -0.1542
  909MOL0     C22635   7.240   3.940   4.964 -0.3771  0.3150 -0.0344
  909MOL0     C22636   7.305   4.021   5.062  0.4748 -0.0133 -0.3071
  909MOL0     C22637   7.375   4.138   5.028 -0.2333  1.5490  0.3221
  909MOL0     O22638   7.429   4.221   5.123 -0.6915  0.0242  1.0478
  909MOL0     C22639   7.564   4.249   5.103  1.1384 -0.7842  0.0465
  909MOL0     C22640   7.632   4.250   5.248 -0.8985  0.7014  0.0260
  909MOL0     C22641   7.578   4.354   5.349  0.3451  0.2379 -0.9697
  909MOL0     C22642   7.667   4.355   5.484 -0.1089  0.9110 -0.2016
  909MOL0     C22643   7.696   4.220   5.539  1.4441  0.1332  0.9748
  909MOL0     C22644   7.737   4.105   5.559 -0.0279  0.5487  0.1102
  909MOL0     C22645   7.393   4.171   4.889  0.6504 -0.3353  0.0234
  909MOL0     C22646   7.329   4.091   4.796  0.5888 -0.5223  0.4814
  909MOL0     C22647   7.358   4.126   4.646  0.7968 -0.1271 -0.3900
  909MOL0     H22648   7.196   3.601   4.607 -0.2938 -1.0319 -0.5780
  909MOL0     H22649   7.058   3.451   4.498  2.0520  0.4111  2.0937
  909MOL0     H22650   6.598   3.506   4.547  1.5663  3.4238  0.3434
  909MOL0     H22651   6.635   3.606   4.398 -1.1125  0.2514 -0.5262
  909MOL0     H22652   6.601   3.305   4.405  1.8755 -0.5873 -2.2491
  909MOL0     H22653   6.642   3.411   4.267 -0.8361 -1.8689 -1.3912
  909MOL0     H22654   6.400   3.313   4.377 -1.3700 -1.6733 -2.0189
  909MOL0     H22655   6.419   3.406   4.220  2.8322  3.5726  0.3236
  909MOL0     H22656   6.355   3.510   4.486 -1.1904 -0.5176  0.8672
  909MOL0     H22657   6.411   3.601   4.352  0.0692 -0.7391 -0.4194
  909MOL0     H22658   6.215   3.518   4.205 -2.4284 -0.9057 -0.4268
  909MOL0     H22659   6.143   3.441   4.350 -3.5588  3.1101  4.7428
  909MOL0     H22660   6.193   3.676   4.456  0.6503  0.8871 -0.8085
  909MOL0     H22661   6.179   3.733   4.284 -0.3343 -0.2176 -0.8201
  909MOL0     H22662   5.972   3.742   4.433 -2.9676  0.7565 -2.0398
  909MOL0     H22663   5.969   3.568   4.402  0.5019 -0.7340 -0.5673
  909MOL0     H22664   5.807   3.653   4.253 -0.4048  0.2355 -0.8938
  909MOL0     H22665   5.925   3.768   4.200 -1.7803  0.8829  3.0352
  909MOL0     H22666   5.847   3.402   4.229 -2.7620  4.4844  0.0385
  909MOL0     H22667   5.914   3.197   4.102 -0.1424  3.2575  4.0873
  909MOL0     H22668   6.017   3.197   3.962  0.6456  0.7097  0.6271
  909MOL0     H22669   6.216   3.243   4.117  1.6442 -2.6430  0.4573
  909MOL0     H22670   6.126   3.152   4.238  0.8392  1.2283 -0.1960
  909MOL0     H22671   6.194   3.043   3.971  0.3887  0.0834 -0.0849
  909MOL0     H22672   6.129   2.948   4.107 -0.6223  0.4940 -0.5027
  909MOL0     H22673   6.384   3.109   4.106 -0.8937  0.4151  0.6272
  909MOL0     H22674   6.384   2.940   4.054  1.0165 -1.3006  2.5671
  909MOL0     H22675   6.262   2.767   4.115  0.6756  2.4609  1.8738
  909MOL0     H22676   6.223   2.544   4.166  0.3725  2.7953 -1.9695
  909MOL0     H22677   6.130   2.230   4.580 -0.3333 -0.1495  0.3113
  909MOL0     H22678   6.141   1.996   4.641  1.4929 -1.8365  0.4061
  909MOL0     H22679   5.940   1.842   4.586  0.0675  1.2305 -4.3399
  909MOL0     H22680   5.956   1.678   4.555 -0.9769  0.5810 -1.0736
  909MOL0     H22681   6.173   1.808   4.746 -0.5959  0.2117  1.7057
  909MOL0     H22682   6.008   1.760   4.796  1.6140  2.3262  1.5704
  909MOL0     H22683   6.070   1.521   4.707 -1.5503  1.5529  2.3313
  909MOL0     H22684   6.209   1.596   4.642 -0.2509  1.1552 -0.9275
  909MOL0     H22685   6.140   1.559   4.933 -1.3804  3.3117 -1.1002
  909MOL0     H22686   6.277   1.661   4.874  1.2540  0.2069 -1.0055
  909MOL0     H22687   6.358   1.451   4.749  0.8612  0.3769 -0.0825
  909MOL0     H22688   6.233   1.352   4.837  1.1941 -1.0739  0.6009
  909MOL0     H22689   6.348   1.371   5.039 -0.5229 -0.6235 -0.2988
  909MOL0     H22690   6.448   1.316   4.912  1.0414  1.4952  1.1056
  909MOL0     H22691   6.445   1.614   4.996 -0.4981  0.1983 -1.5540
  909MOL0     H22692   6.528   1.538   4.869 -0.4446 -1.0748  0.1338
  909MOL0     H22693   6.545   1.436   5.164  1.8424  0.5627  1.8018
  909MOL0     H22694   6.634   1.365   5.031  1.0782 -0.2312 -1.2769
  909MOL0     H22695   6.203   1.891   4.230  0.1577 -1.2218  1.4274
  909MOL0     H22696   6.268   2.119   4.183 -1.1265  1.7555 -1.6738
  909MOL0     H22697   6.345   2.638   4.570  2.1032  2.5857  0.3029
  909MOL0     H22698   6.353   2.868   4.514  0.7324  0.5931 -1.2453
  909MOL0     H22699   6.711   3.675   4.616  0.1305 -1.2581  0.5341
  909MOL0     H22700   6.857   3.809   4.779  0.8877 -2.5776  4.2968
  909MOL0     H22701   7.172   3.864   5.000 -0.6262 -1.6130 -4.0651
  909MOL0     H22702   7.288   3.987   5.164  0.2573 -2.1754 -1.0093
  909MOL0     H22703   7.586   4.343   5.052 -0.1687  0.8250  2.2653
  909MOL0     H22704   7.611   4.172   5.041  2.4740  2.8088 -3.8943
  909MOL0     H22705   7.736   4.280   5.241 -0.4441 -0.2880  1.9007
  909MOL0     H22706   7.634   4.151   5.294  2.2080 -0.2981 -1.9157
  909MOL0     H22707   7.471   4.342   5.367  0.6029  1.2691  1.6877
  909MOL0     H22708   7.584   4.453   5.302  0.1699  0.1267 -1.2269
  909MOL0     H22709   7.765   4.394   5.455 -0.0598  1.5183  0.7252
  909MOL0     H22710   7.626   4.415   5.566  3.0786 -0.7899  2.8844
  909MOL0     H22711   7.783   4.008   5.570  0.7422  0.5695 -2.3309
  909MOL0     H22712   7.454   4.255   4.858 -0.5904  0.6642  0.1836
  909MOL0     H22713   7.425   4.054   4.598  0.1875 -0.1749 -1.1983
  909MOL0     H22714   7.260   4.121   4.598  0.1339 -1.2296  0.9998
  909MOL0     H22715   7.404   4.224   4.629  1.0239  0.1199  1.4043
  910MOL0     O22716  10.925   2.470   6.616 -0.2438 -0.8259 -0.0102
  910MOL0     C22717  10.980   2.388   6.692 -0.2457  0.0928  0.1400
  910MOL0     O22718  10.913   2.335   6.793  0.6190  0.2762  0.2777
  910MOL0     C22719  10.779   2.320   6.802 -0.1833  0.1365  0.8999
  910MOL0     C22720  10.688   2.320   6.687  0.2096  0.9523 -0.9287
  910MOL0     C22721  10.546   2.319   6.707 -0.2175 -1.0679 -0.2883
  910MOL0     C22722  10.498   2.298   6.838  0.2603  0.2086  0.6476
  910MOL0     O22723  10.361   2.299   6.854 -0.1075  0.1653 -0.5204
  910MOL0     C22724  10.316   2.283   6.989  0.6952  0.8820  0.4690
  910MOL0     C22725  10.164   2.277   7.013  0.4686 -0.5266 -0.5391
  910MOL0     C22726  10.096   2.412   7.027  0.0473  0.0835 -0.5559
  910MOL0     C22727   9.949   2.403   7.037  0.0011 -0.9245 -0.6381
  910MOL0     C22728   9.886   2.539   6.997  0.6414  0.1689 -0.2580
  910MOL0     C22729   9.748   2.553   7.047  0.6567  1.0698  0.7348
  910MOL0     C22730   9.737   2.586   7.197  0.5612 -1.5085 -0.5055
  910MOL0     C22731   9.622   2.510   7.261 -0.7277  0.1967 -0.3132
  910MOL0     N22732   9.632   2.368   7.247  0.7043  0.2306 -0.1103
  910MOL0     C22733   9.585   2.272   7.162  0.2136  1.0731 -0.5065
  910MOL0     C22734   9.622   2.153   7.213  0.1039 -0.9068  0.2278
  910MOL0     C22735   9.592   2.022   7.163 -1.1718 -0.2384  0.6445
  910MOL0     C22736   9.447   1.982   7.196 -0.5207 -0.7110 -0.5797
  910MOL0     C22737   9.404   1.846   7.153 -0.6132  0.7767 -0.1843
  910MOL0     C22738   9.258   1.825   7.159  1.1219 -0.0812 -0.9851
  910MOL0     O22739   9.211   1.768   7.286 -0.5915  0.0123 -0.3564
  910MOL0     C22740   9.169   1.641   7.283  0.0560 -0.9177  0.0188
  910MOL0     C22741   9.033   1.603   7.300  0.3274  0.0051  0.9465
  910MOL0     C22742   8.990   1.472   7.294  0.1322  0.4261  0.2183
  910MOL0     C22743   9.089   1.374   7.270 -0.9220  0.5407  0.4469
  910MOL0     C22744   9.041   1.241   7.232 -0.3488  0.5715 -0.1435
  910MOL0     O22745   8.943   1.178   7.297 -0.5431 -0.0663 -0.7366
  910MOL0     C22746   8.914   1.058   7.229  0.3012  0.3278 -0.2372
  910MOL0     C22747   8.991   0.940   7.221  0.0555 -0.5403 -0.0874
  910MOL0     C22748   8.944   0.825   7.157 -0.7418 -0.2737 -0.5808
  910MOL0     C22749   8.822   0.819   7.094 -0.4241 -0.2685 -0.2987
  910MOL0     O22750   8.774   0.707   7.038 -0.4254  0.0933  0.2545
  910MOL0     C22751   8.804   0.575   7.092  0.3783  0.2209 -0.5476
  910MOL0     C22752   8.736   0.544   7.229  0.0907 -0.9862  0.0522
  910MOL0     C22753   8.771   0.398   7.271  0.7187  0.3369 -0.3030
  910MOL0     C22754   8.675   0.364   7.383 -0.5700  1.3282 -0.6075
  910MOL0     C22755   8.681   0.219   7.446 -0.8734 -0.0012 -0.1500
  910MOL0     C22756   8.801   0.210   7.537 -0.1489 -0.4606  0.2575
  910MOL0     C22757   8.825   0.072   7.600 -0.6504 -0.8898  1.1390
  910MOL0     C22758   8.882  -0.034   7.504 -0.0221 -0.4489  0.2715
  910MOL0    Cl22759   8.768  -0.112   7.407  0.0157 -0.2469 -0.6259
  910MOL0     C22760   8.739   0.932   7.103  0.5784  0.9122 -1.0378
  910MOL0     C22761   8.785   1.047   7.170  0.5052  0.3358 -0.2906
  910MOL0     O22762   9.106   1.190   7.134 -0.4760  0.2576  0.1383
  910MOL0     C22763   9.221   1.411   7.262 -0.1214  0.5124  0.9590
  910MOL0     C22764   9.262   1.544   7.274  0.4159  0.7297  0.1209
  910MOL0     N22765   9.677   2.181   7.334 -0.4315  0.6077 -0.1530
  910MOL0     N22766   9.688   2.307   7.351 -0.2779 -0.3860 -0.0100
  910MOL0     C22767  10.587   2.275   6.943  0.4308 -0.1662 -0.0777
  910MOL0     C22768  10.721   2.285   6.925  0.8537  0.5752  0.0219
  910MOL0     C22769  11.119   2.356   6.670  0.3180  0.2353  0.0409
  910MOL0     C22770  11.206   2.469   6.667 -0.2336 -0.3435  0.3102
  910MOL0     C22771  11.337   2.438   6.652  0.0472 -0.0617 -0.5700
  910MOL0     C22772  11.388   2.306   6.633 -0.3863 -0.0867  0.3787
  910MOL0     O22773  11.520   2.271   6.619  0.9388  0.4032  0.3827
  910MOL0     C22774  11.625   2.362   6.589  0.5209 -0.4104  0.2334
  910MOL0     C22775  11.701   2.415   6.707 -0.6641  0.0795  0.1523
  910MOL0     C22776  11.767   2.283   6.774  0.7256  0.0334 -0.8540
  910MOL0     C22777  11.829   2.314   6.910 -0.7274 -0.2740 -0.1962
  910MOL0     C22778  11.942   2.403   6.903  0.0439 -0.2128  0.3753
  910MOL0     C22779  12.036   2.478   6.867  1.1891  1.3596 -0.4114
  910MOL0     C22780  11.303   2.203   6.639  1.0334 -0.0142 -0.4400
  910MOL0     C22781  11.160   2.224   6.647 -0.0286 -0.8712  0.7749
  910MOL0     C22782  11.072   2.102   6.660  0.3287 -0.8930 -0.5823
  910MOL0     H22783  10.729   2.344   6.589  1.6988  0.9405 -0.3197
  910MOL0     H22784  10.469   2.324   6.632 -0.2708 -3.0012 -0.4116
  910MOL0     H22785  10.362   2.194   7.032  1.9563  1.1897 -0.2064
  910MOL0     H22786  10.351   2.367   7.050  5.0371 -0.1008 -0.3875
  910MOL0     H22787  10.140   2.218   7.102  0.2442  0.8284  0.3245
  910MOL0     H22788  10.117   2.218   6.933 -1.6848  1.1255 -0.5937
  910MOL0     H22789  10.112   2.464   6.932 -0.3751 -1.2270 -1.3670
  910MOL0     H22790  10.139   2.475   7.106 -1.0872  0.3821 -0.1614
  910MOL0     H22791   9.903   2.322   6.980 -1.2858 -1.5740  1.2216
  910MOL0     H22792   9.927   2.392   7.144 -1.5263 -1.5296 -0.9835
  910MOL0     H22793   9.956   2.620   7.018  0.7473 -0.2072  0.9588
  910MOL0     H22794   9.887   2.536   6.888 -0.7969  1.4019 -0.3402
  910MOL0     H22795   9.698   2.637   6.998 -0.7635  1.5732  2.8819
  910MOL0     H22796   9.702   2.464   7.003  2.6835 -0.1443  0.9997
  910MOL0     H22797   9.717   2.693   7.204  2.3052 -1.1950  0.3409
  910MOL0     H22798   9.840   2.572   7.234  0.5312  2.0738  1.3863
  910MOL0     H22799   9.625   2.525   7.370  1.7293 -2.7603  0.1542
  910MOL0     H22800   9.526   2.545   7.222 -1.3220 -1.3593 -0.3192
  910MOL0     H22801   9.534   2.282   7.066  2.0134 -1.0318 -1.7996
  910MOL0     H22802   9.618   2.016   7.057  0.9086  3.6732  0.7378
  910MOL0     H22803   9.655   1.946   7.210  3.2225  3.8833  2.2745
  910MOL0     H22804   9.432   1.973   7.305  0.0676 -1.5447 -0.5582
  910MOL0     H22805   9.390   2.061   7.147  2.2236  2.0059  0.3442
  910MOL0     H22806   9.461   1.757   7.184  0.5625  0.7814 -2.1941
  910MOL0     H22807   9.426   1.843   7.046 -0.1048 -1.5249 -0.0803
  910MOL0     H22808   9.234   1.770   7.068  0.0584 -2.6459  0.7404
  910MOL0     H22809   9.216   1.923   7.134  1.1223 -0.4223 -2.4283
  910MOL0     H22810   8.961   1.684   7.313  0.5954  0.8795 -2.1491
  910MOL0     H22811   8.887   1.442   7.277 -0.5350  1.6771  1.8169
  910MOL0     H22812   9.084   0.955   7.275  0.7316  0.8238 -1.5880
  910MOL0     H22813   9.024   0.752   7.155 -0.2414  0.1941  1.0261
  910MOL0     H22814   8.762   0.503   7.022 -1.8365  0.6859  0.2295
  910MOL0     H22815   8.913   0.566   7.099  0.4228  1.7732  1.8471
  910MOL0     H22816   8.764   0.620   7.302 -2.0968 -0.2585  0.2281
  910MOL0     H22817   8.629   0.557   7.208  0.1006 -1.2701 -0.1758
  910MOL0     H22818   8.760   0.326   7.190 -1.0537 -2.0652  1.9256
  910MOL0     H22819   8.876   0.399   7.303  1.4048  0.4710 -2.3894
  910MOL0     H22820   8.576   0.371   7.337  1.2032  1.6449 -4.7590
  910MOL0     H22821   8.670   0.445   7.457 -4.0046  0.1170  0.7095
  910MOL0     H22822   8.701   0.147   7.366  3.1827 -0.5182  1.1085
  910MOL0     H22823   8.589   0.194   7.500 -3.5044  2.9247 -2.8477
  910MOL0     H22824   8.901   0.229   7.497  0.1809 -0.9288  0.8483
  910MOL0     H22825   8.781   0.273   7.624  0.5961 -1.8753  1.5020
  910MOL0     H22826   8.734   0.032   7.647  0.2053 -1.2689  2.5137
  910MOL0     H22827   8.895   0.112   7.673  1.1143  2.2235 -1.9569
  910MOL0     H22828   8.968   0.002   7.447  0.0593  0.6259  1.0351
  910MOL0     H22829   8.920  -0.111   7.572 -2.9593 -0.2760  2.3224
  910MOL0     H22830   8.640   0.924   7.059  0.3813  0.3644 -0.5012
  910MOL0     H22831   8.711   1.127   7.174 -2.1449 -1.8927 -1.5467
  910MOL0     H22832   9.298   1.336   7.248 -0.5376  0.2236  0.1074
  910MOL0     H22833   9.370   1.554   7.263  0.1589  1.3581 -2.5895
  910MOL0     H22834  10.553   2.244   7.041 -1.4443  2.7172  0.2948
  910MOL0     H22835  10.787   2.270   7.010  0.1041 -1.2591  0.3432
  910MOL0     H22836  11.165   2.568   6.687  1.9501  1.3978 -2.9148
  910MOL0     H22837  11.414   2.515   6.653  1.2370 -1.2038  1.1933
  910MOL0     H22838  11.577   2.439   6.528 -0.3878 -3.2338 -2.8905
  910MOL0     H22839  11.698   2.307   6.530  0.7949  0.7265 -0.5103
  910MOL0     H22840  11.654   2.478   6.782 -0.4363 -0.6637  0.9404
  910MOL0     H22841  11.774   2.487   6.670 -0.6267  0.2083  0.4708
  910MOL0     H22842  11.841   2.240   6.706  0.7894  0.2749 -0.9376
  910MOL0     H22843  11.684   2.214   6.792 -0.1544  0.8750 -1.5904
  910MOL0     H22844  11.747   2.352   6.971 -0.2672  0.8793 -0.2668
  910MOL0     H22845  11.856   2.216   6.951 -2.1866 -0.2562  0.8616
  910MOL0     H22846  12.086   2.569   6.844  1.2379  1.1341 -1.2086
  910MOL0     H22847  11.343   2.104   6.624  1.7959  0.2595 -0.2799
  910MOL0     H22848  10.977   2.132   6.616  0.8055 -0.9532 -1.6868
  910MOL0     H22849  11.106   2.023   6.592 -0.0539 -0.1668 -1.6482
  910MOL0     H22850  11.073   2.062   6.761  0.9063 -2.2735 -1.1094
  911MOL0     O22851   9.025   6.426   2.345  0.0675  0.7234  0.6552
  911MOL0     C22852   8.939   6.446   2.265  0.7290 -0.7248 -0.2986
  911MOL0     O22853   8.888   6.565   2.233  0.2948  0.7684  0.4345
  911MOL0     C22854   8.951   6.676   2.283 -0.1247  0.1781 -0.5067
  911MOL0     C22855   8.930   6.725   2.408  0.6817 -0.0611 -0.4117
  911MOL0     C22856   8.999   6.824   2.469 -0.8343  0.3084  0.1671
  911MOL0     C22857   9.080   6.905   2.391 -0.1531 -0.2470 -0.2514
  911MOL0     O22858   9.156   7.007   2.439  0.1445 -0.6204 -0.9253
  911MOL0     C22859   9.096   7.099   2.523  0.7187  0.6128 -0.3824
  911MOL0     C22860   9.181   7.223   2.580 -1.0304  0.6191 -0.0185
  911MOL0     C22861   9.270   7.259   2.464 -0.2344 -0.0114  0.1869
  911MOL0     C22862   9.371   7.361   2.500  0.1409  0.7868  0.0970
  911MOL0     C22863   9.335   7.509   2.488 -0.0500  0.1691 -1.0756
  911MOL0     C22864   9.457   7.595   2.502  1.0829  0.9213 -0.1877
  911MOL0     C22865   9.498   7.623   2.647  0.6350 -0.5296  0.1241
  911MOL0     C22866   9.615   7.717   2.652  0.3565 -0.7460  0.0392
  911MOL0     N22867   9.651   7.747   2.786  1.1849 -0.3605 -0.4350
  911MOL0     C22868   9.778   7.782   2.829  0.4042  0.4920  0.1322
  911MOL0     C22869   9.761   7.839   2.953 -0.6879 -0.1105  0.7216
  911MOL0     C22870   9.876   7.911   3.026  0.1333  0.6464  0.6839
  911MOL0     C22871   9.907   8.053   2.969  1.1718  0.1901 -0.1979
  911MOL0     C22872   9.790   8.153   2.972  0.0369  0.3636  0.4064
  911MOL0     C22873   9.831   8.298   3.013  0.1302  0.2837 -1.3901
  911MOL0     O22874   9.892   8.305   3.147  0.0981  0.2699 -1.0571
  911MOL0     C22875   9.851   8.404   3.237  0.0720  0.9806 -0.2746
  911MOL0     C22876   9.724   8.401   3.296 -0.9050  0.2356  0.6260
  911MOL0     C22877   9.682   8.508   3.377 -0.5127 -0.7585 -0.6023
  911MOL0     C22878   9.775   8.611   3.410 -0.2853  0.8423 -0.5266
  911MOL0     C22879   9.733   8.714   3.506 -0.4228 -1.2420 -0.5128
  911MOL0     O22880   9.811   8.834   3.510  0.2012 -0.0271 -0.6997
  911MOL0     C22881   9.783   8.920   3.619  0.5302  0.1982 -0.1374
  911MOL0     C22882   9.713   9.036   3.602  0.1733 -0.7289  0.1416
  911MOL0     C22883   9.670   9.107   3.717 -0.0045  0.2115 -0.0671
  911MOL0     C22884   9.692   9.058   3.855 -0.0761 -0.4713  0.3919
  911MOL0     O22885   9.640   9.105   3.974 -0.0987  0.7933 -0.2429
  911MOL0     C22886   9.568   9.230   3.975 -0.5000  1.1889  0.3488
  911MOL0     C22887   9.653   9.358   3.940 -0.1093 -0.4597  0.4442
  911MOL0     C22888   9.714   9.428   4.048  0.0944 -0.6901 -0.3381
  911MOL0     C22889   9.621   9.498   4.144 -0.1112 -0.6782  0.6944
  911MOL0     C22890   9.699   9.551   4.267 -0.4623  0.4167 -0.1427
  911MOL0     C22891   9.780   9.444   4.352  0.6785 -0.5702  0.1258
  911MOL0     C22892   9.818   9.495   4.503 -0.6089  0.4029  0.5655
  911MOL0     C22893   9.930   9.407   4.566  0.2165 -0.1606  0.7131
  911MOL0    Cl22894   9.890   9.238   4.564  0.1622 -0.0414 -0.1374
  911MOL0     C22895   9.777   8.952   3.859  0.6196 -0.3460 -0.3591
  911MOL0     C22896   9.823   8.887   3.749  0.1139 -0.0962 -0.2689
  911MOL0     O22897   9.643   8.686   3.586  0.3872  0.2317  0.2425
  911MOL0     C22898   9.901   8.617   3.354 -0.2330  0.4058  0.9002
  911MOL0     C22899   9.933   8.516   3.260 -0.6962  0.8208 -0.3996
  911MOL0     N22900   9.631   7.830   2.993  0.2326  0.5312 -0.2526
  911MOL0     N22901   9.569   7.783   2.889  0.2191  0.5983  0.4501
  911MOL0     C22902   9.101   6.864   2.252  0.1693  0.4538  0.4619
  911MOL0     C22903   9.032   6.755   2.204 -0.6612 -0.0820  0.1093
  911MOL0     C22904   8.895   6.323   2.201  0.5732  0.3341  0.3869
  911MOL0     C22905   8.984   6.212   2.189 -0.0106 -0.8305  1.7026
  911MOL0     C22906   8.949   6.100   2.113 -0.3754 -0.7139 -0.2000
  911MOL0     C22907   8.833   6.094   2.038 -0.3104 -0.2684 -0.0403
  911MOL0     O22908   8.811   5.974   1.969  0.2520  0.1608 -0.6799
  911MOL0     C22909   8.684   5.940   1.905 -1.1290 -0.2869 -0.1470
  911MOL0     C22910   8.705   5.835   1.791  0.4072  1.0507  0.7365
  911MOL0     C22911   8.815   5.887   1.703 -0.0730 -0.1211  0.6447
  911MOL0     C22912   8.823   5.832   1.563 -0.0593 -0.6266  0.1343
  911MOL0     C22913   8.939   5.881   1.492 -0.0795  0.0917  0.4293
  911MOL0     C22914   9.033   5.917   1.424 -0.2334 -0.0290  0.3736
  911MOL0     C22915   8.750   6.207   2.040  0.7141  0.2101 -0.3894
  911MOL0     C22916   8.770   6.320   2.124 -1.8559  0.1758 -1.0171
  911MOL0     C22917   8.656   6.423   2.126  0.5405 -0.3667 -0.4170
  911MOL0     H22918   8.876   6.659   2.475 -3.1605  0.7303 -2.4476
  911MOL0     H22919   8.984   6.844   2.575  1.0659 -0.8651  0.7098
  911MOL0     H22920   9.032   7.153   2.452 -0.0774  0.6485  0.3588
  911MOL0     H22921   9.021   7.052   2.587  1.0826  0.2621 -0.2119
  911MOL0     H22922   9.241   7.192   2.665 -1.3091 -0.4539 -0.2059
  911MOL0     H22923   9.126   7.301   2.634  1.2252  1.7525  0.8152
  911MOL0     H22924   9.212   7.278   2.373  2.5102 -0.8647 -1.8619
  911MOL0     H22925   9.331   7.174   2.434 -0.1932 -0.2010  0.7809
  911MOL0     H22926   9.410   7.347   2.601  0.2121  2.5980  0.3498
  911MOL0     H22927   9.451   7.333   2.431 -0.3500 -2.8238  0.8140
  911MOL0     H22928   9.296   7.520   2.387 -3.6333 -1.0889  0.0102
  911MOL0     H22929   9.252   7.533   2.554 -0.0278  0.7959 -1.2650
  911MOL0     H22930   9.533   7.556   2.433 -0.5101 -0.4202 -1.2327
  911MOL0     H22931   9.430   7.691   2.456 -0.2113  0.9039  0.5011
  911MOL0     H22932   9.534   7.525   2.680  1.7703 -1.1520 -2.6272
  911MOL0     H22933   9.413   7.656   2.706  0.5157  4.1937 -2.2199
  911MOL0     H22934   9.701   7.669   2.604 -0.0860 -2.6237  1.0027
  911MOL0     H22935   9.590   7.809   2.598 -0.3517  3.4497  6.4743
  911MOL0     H22936   9.867   7.759   2.772 -0.1819  0.9000 -0.9760
  911MOL0     H22937   9.850   7.924   3.132 -2.9289  0.9582 -0.0180
  911MOL0     H22938   9.968   7.854   3.015 -2.4508 -3.4309 -2.3385
  911MOL0     H22939   9.983   8.112   3.021 -1.6825  4.3483 -0.2251
  911MOL0     H22940   9.935   8.044   2.863 -1.6343 -1.9800 -0.8666
  911MOL0     H22941   9.710   8.114   3.036  1.6255 -1.1013  1.5950
  911MOL0     H22942   9.750   8.165   2.871 -0.7475  2.6654  0.9372
  911MOL0     H22943   9.747   8.368   3.013 -0.2459 -0.1236  0.3855
  911MOL0     H22944   9.909   8.338   2.947  1.5105 -1.2505 -0.7596
  911MOL0     H22945   9.662   8.315   3.272  0.8678 -0.7146 -0.8946
  911MOL0     H22946   9.583   8.502   3.421 -0.2057 -2.1359 -0.0321
  911MOL0     H22947   9.670   9.068   3.508  1.3998 -2.8657 -1.2238
  911MOL0     H22948   9.602   9.188   3.692  0.7181  1.5658  2.1393
  911MOL0     H22949   9.495   9.221   3.894 -0.5237  0.0317  0.4765
  911MOL0     H22950   9.508   9.253   4.063 -1.8215  1.3442 -0.5627
  911MOL0     H22951   9.733   9.344   3.866  1.7527  0.7360  2.1387
  911MOL0     H22952   9.585   9.428   3.891 -2.3678 -1.3444  2.1229
  911MOL0     H22953   9.781   9.355   4.093  0.7740  0.1135 -0.0389
  911MOL0     H22954   9.767   9.512   4.002  2.1544 -1.0350  1.2578
  911MOL0     H22955   9.542   9.428   4.173 -0.2218 -3.0371 -4.3378
  911MOL0     H22956   9.574   9.586   4.097  2.2975  0.4684  0.2899
  911MOL0     H22957   9.638   9.611   4.334 -0.9743  1.3856 -1.4383
  911MOL0     H22958   9.768   9.626   4.228  1.5685 -2.2235 -2.0218
  911MOL0     H22959   9.714   9.357   4.365  0.9176 -0.6259  1.0562
  911MOL0     H22960   9.874   9.419   4.303  1.5183  3.0020 -0.3302
  911MOL0     H22961   9.729   9.491   4.567 -0.4108  0.0569  0.8185
  911MOL0     H22962   9.860   9.595   4.488  0.0226 -0.2219 -2.5846
  911MOL0     H22963  10.020   9.414   4.504 -0.6078  0.0983 -0.5075
  911MOL0     H22964   9.946   9.435   4.670 -0.8041 -3.8907  2.0366
  911MOL0     H22965   9.799   8.922   3.961 -0.8661 -0.7518 -0.1215
  911MOL0     H22966   9.894   8.807   3.766  0.7755 -0.0873 -2.6432
  911MOL0     H22967   9.967   8.700   3.379  1.1040 -0.0052 -0.9767
  911MOL0     H22968  10.038   8.515   3.230 -0.7253 -0.2530 -0.5029
  911MOL0     H22969   9.178   6.913   2.193  1.2567 -1.3622  0.2972
  911MOL0     H22970   9.051   6.718   2.104  0.2595  1.1844 -0.2086
  911MOL0     H22971   9.084   6.215   2.228  1.0601 -2.3373 -0.6721
  911MOL0     H22972   9.011   6.010   2.114  0.7530  0.0350  0.3330
  911MOL0     H22973   8.642   6.034   1.868 -1.8180  1.7867  4.9739
  911MOL0     H22974   8.616   5.902   1.982 -0.8371  1.5844  1.1061
  911MOL0     H22975   8.610   5.815   1.740 -1.8845  0.1580  4.8564
  911MOL0     H22976   8.730   5.737   1.831 -0.9998  0.6194  0.6378
  911MOL0     H22977   8.909   5.874   1.757  0.5538 -2.0250 -0.7950
  911MOL0     H22978   8.787   5.992   1.690  1.1894  0.0418 -1.1936
  911MOL0     H22979   8.822   5.722   1.569  1.4571 -0.6071  1.4723
  911MOL0     H22980   8.733   5.866   1.512  2.1084  3.5612 -1.3394
  911MOL0     H22981   9.119   5.963   1.378 -0.9614  1.3441  0.3300
  911MOL0     H22982   8.660   6.212   1.979  0.7158  1.3501 -0.3229
  911MOL0     H22983   8.699   6.516   2.087  0.4323  1.0282  2.5266
  911MOL0     H22984   8.574   6.387   2.062  2.4480 -1.3567 -2.4739
  911MOL0     H22985   8.625   6.444   2.228  3.4130  2.3864  0.0678
  912MOL0     O22986   7.778   5.743   9.003 -0.5702 -0.7412  0.0989
  912MOL0     C22987   7.652   5.750   9.004 -0.3286  0.3837  0.2593
  912MOL0     O22988   7.581   5.778   9.112  0.9999 -0.8183 -0.9539
  912MOL0     C22989   7.653   5.786   9.238  0.5582 -0.7216  0.3863
  912MOL0     C22990   7.730   5.673   9.284  0.5500  0.3051  0.5309
  912MOL0     C22991   7.816   5.672   9.390 -0.0300 -0.4349 -0.6909
  912MOL0     C22992   7.835   5.800   9.445 -0.1874  0.6548 -0.9582
  912MOL0     O22993   7.917   5.816   9.555  0.6963  0.1114 -1.0297
  912MOL0     C22994   7.952   5.703   9.634  0.4656 -0.9372 -0.1736
  912MOL0     C22995   7.981   5.767   9.774  0.6314  0.7142 -0.3108
  912MOL0     C22996   7.855   5.814   9.856 -0.9377  0.2833  0.3066
  912MOL0     C22997   7.888   5.832   9.999 -0.3876 -0.5821 -0.3790
  912MOL0     C22998   7.763   5.830  10.090 -0.3634 -0.5606 -0.8972
  912MOL0     C22999   7.792   5.864  10.234 -0.7637 -0.4875  1.5537
  912MOL0     C23000   7.666   5.863  10.326  1.0100 -0.6933 -0.8695
  912MOL0     C23001   7.686   5.917  10.470 -0.5315  0.8741 -1.1316
  912MOL0     N23002   7.667   6.058  10.460  0.5050  0.1716 -0.2015
  912MOL0     C23003   7.767   6.142  10.495  0.9975  0.6686  0.0413
  912MOL0     C23004   7.719   6.263  10.476  0.4588  0.7700 -0.5785
  912MOL0     C23005   7.785   6.394  10.502  0.8354 -0.0931 -0.3730
  912MOL0     C23006   7.919   6.400  10.432  1.2685 -0.2924  0.3974
  912MOL0     C23007   8.015   6.493  10.513  0.6098  0.5516 -0.1079
  912MOL0     C23008   8.002   6.641  10.488 -1.1500 -0.0443  0.0865
  912MOL0     O23009   8.038   6.661  10.360  0.2581 -0.5202  0.4735
  912MOL0     C23010   8.127   6.762  10.331 -0.1017 -0.6295  0.2510
  912MOL0     C23011   8.137   6.877  10.415  0.4512 -0.7658  0.1137
  912MOL0     C23012   8.237   6.974  10.403  0.0855  0.8753 -0.2954
  912MOL0     C23013   8.313   6.980  10.291 -0.7952  0.3885  0.6432
  912MOL0     C23014   8.418   7.086  10.265 -0.2967  0.7496  0.3988
  912MOL0     O23015   8.481   7.075  10.139 -0.8729  0.2874 -0.1889
  912MOL0     C23016   8.579   7.162  10.087 -0.1436  0.5244 -0.0753
  912MOL0     C23017   8.594   7.192   9.948 -0.8297 -0.7775 -0.5774
  912MOL0     C23018   8.676   7.299   9.903  0.4318 -0.1327 -0.2224
  912MOL0     C23019   8.770   7.356   9.989 -0.8373  0.1304  0.5256
  912MOL0     O23020   8.859   7.446   9.939  0.2395  0.8496 -0.1267
  912MOL0     C23021   8.902   7.549  10.029  0.2720  0.3511  0.0194
  912MOL0     C23022   8.969   7.659   9.964 -0.4707  0.2012  0.5999
  912MOL0     C23023   9.076   7.601   9.877 -0.3784 -0.3560 -0.0922
  912MOL0     C23024   9.145   7.706   9.789 -0.3782 -0.0786  0.2466
  912MOL0     C23025   9.246   7.644   9.686 -0.4861  0.4541  0.6604
  912MOL0     C23026   9.367   7.578   9.752 -0.2699 -0.1999  0.0416
  912MOL0     C23027   9.496   7.618   9.652  0.1332 -0.2283  0.1821
  912MOL0     C23028   9.634   7.578   9.716  0.4838 -1.0809  0.2110
  912MOL0    Cl23029   9.678   7.684   9.854  0.0960 -0.0839  0.1167
  912MOL0     C23030   8.784   7.302  10.113  0.7995  0.0533 -1.7317
  912MOL0     C23031   8.681   7.226  10.170 -1.1265  0.4360  0.2304
  912MOL0     O23032   8.431   7.181  10.344 -0.6092  0.2910 -0.7920
  912MOL0     C23033   8.297   6.880  10.197 -0.6702  1.1192  0.3740
  912MOL0     C23034   8.222   6.763  10.224 -0.2058  0.8350 -0.0897
  912MOL0     N23035   7.595   6.250  10.418 -0.3190 -0.4794 -0.3048
  912MOL0     N23036   7.558   6.125  10.424  0.7353 -1.1269  1.0080
  912MOL0     C23037   7.779   5.910   9.401  0.5321  0.6567 -0.2901
  912MOL0     C23038   7.672   5.911   9.304  0.5947  0.7035 -0.1694
  912MOL0     C23039   7.581   5.754   8.875 -0.4210 -0.7961  0.1782
  912MOL0     C23040   7.479   5.841   8.843 -0.9027 -0.5770  0.0689
  912MOL0     C23041   7.419   5.848   8.719 -0.4641 -0.4641 -0.7066
  912MOL0     C23042   7.463   5.771   8.618 -0.7740  0.4707 -0.2888
  912MOL0     O23043   7.390   5.775   8.496 -0.7711 -0.4738 -0.2476
  912MOL0     C23044   7.438   5.715   8.375  0.2805  0.5420 -0.4883
  912MOL0     C23045   7.337   5.766   8.270  0.1349  0.8878 -0.7446
  912MOL0     C23046   7.384   5.733   8.125 -0.9151 -0.7009 -0.1677
  912MOL0     C23047   7.273   5.731   8.022 -0.6417 -0.4543 -0.0346
  912MOL0     C23048   7.187   5.846   8.034  0.5012  0.0823 -0.0528
  912MOL0     C23049   7.115   5.941   8.064 -0.6780 -0.2020 -0.7717
  912MOL0     C23050   7.555   5.673   8.647  0.1041  0.3827  0.4075
  912MOL0     C23051   7.621   5.662   8.775  0.8657  0.1454  0.2677
  912MOL0     C23052   7.723   5.556   8.787 -0.2603 -0.0063  0.4913
  912MOL0     H23053   7.706   5.585   9.225 -0.3847  1.4779 -0.8804
  912MOL0     H23054   7.875   5.584   9.417  1.5541  0.8636  0.2528
  912MOL0     H23055   7.860   5.644   9.646 -1.0353  1.4958  1.4281
  912MOL0     H23056   8.038   5.650   9.593 -0.5932 -3.9087  1.1673
  912MOL0     H23057   8.064   5.836   9.755  1.7414  0.1185  2.0035
  912MOL0     H23058   8.036   5.685   9.821 -1.5359  0.2041  1.4984
  912MOL0     H23059   7.768   5.755   9.826  0.2779 -0.4271 -2.1157
  912MOL0     H23060   7.819   5.911   9.822 -2.4529 -0.1427  0.6192
  912MOL0     H23061   7.949   5.746  10.029 -2.7284 -1.4866  2.2018
  912MOL0     H23062   7.948   5.924   9.999 -0.8591 -0.2678 -0.5741
  912MOL0     H23063   7.697   5.908  10.050 -0.9430 -1.3093 -1.4186
  912MOL0     H23064   7.709   5.737  10.074 -1.3652  0.4364 -4.1803
  912MOL0     H23065   7.866   5.794  10.274 -0.3914 -0.1258  1.5053
  912MOL0     H23066   7.836   5.964  10.246 -2.9195  0.6528  0.5116
  912MOL0     H23067   7.627   5.761  10.317 -1.8051  0.3345 -1.1432
  912MOL0     H23068   7.590   5.921  10.275  1.6989  0.5499 -0.5311
  912MOL0     H23069   7.604   5.863  10.518 -2.1003  2.1183 -2.2911
  912MOL0     H23070   7.778   5.880  10.515 -1.2526  0.0632 -0.2808
  912MOL0     H23071   7.856   6.105  10.545 -1.1909  1.1199  4.9050
  912MOL0     H23072   7.714   6.471  10.468  1.6342  1.9029  2.1607
  912MOL0     H23073   7.803   6.398  10.610 -0.5354 -3.5433  0.0958
  912MOL0     H23074   7.958   6.298  10.431 -0.1967 -0.8953  1.6782
  912MOL0     H23075   7.902   6.427  10.327  0.5419 -2.7819 -0.1857
  912MOL0     H23076   8.118   6.465  10.489 -0.3822 -1.1828 -2.8233
  912MOL0     H23077   7.993   6.488  10.620 -0.5232  0.1586 -0.3494
  912MOL0     H23078   8.065   6.686  10.566 -0.7801 -0.7373  0.1977
  912MOL0     H23079   7.902   6.678  10.509 -0.6594  0.4940  1.7096
  912MOL0     H23080   8.053   6.903  10.479  1.4079  1.7509  0.4273
  912MOL0     H23081   8.228   7.062  10.467  0.8957  0.2156  0.7585
  912MOL0     H23082   8.529   7.150   9.871 -1.9804 -1.0109  0.4805
  912MOL0     H23083   8.672   7.334   9.801 -0.4359 -2.1657 -0.9385
  912MOL0     H23084   8.820   7.589  10.089 -1.0580  1.3652 -2.3483
  912MOL0     H23085   8.978   7.502  10.093  1.1601  0.1242 -1.1720
  912MOL0     H23086   8.895   7.707   9.900  1.6449 -0.4238 -2.5370
  912MOL0     H23087   9.009   7.730  10.037  1.5154 -0.3617  0.1090
  912MOL0     H23088   9.151   7.559   9.945  0.6756  0.7337 -0.5508
  912MOL0     H23089   9.039   7.521   9.812 -2.5033  1.5042 -1.3210
  912MOL0     H23090   9.206   7.770   9.854  2.2607 -2.4034  0.2659
  912MOL0     H23091   9.070   7.770   9.742 -0.9910 -0.1600  1.1096
  912MOL0     H23092   9.272   7.729   9.622 -2.7678  3.4477  3.4018
  912MOL0     H23093   9.198   7.564   9.628 -0.2037 -1.8917  3.4026
  912MOL0     H23094   9.375   7.630   9.847 -1.6553  0.8742 -0.3987
  912MOL0     H23095   9.361   7.470   9.772 -1.7917  0.5954  5.5425
  912MOL0     H23096   9.503   7.712   9.596  2.4328  0.3966  1.3747
  912MOL0     H23097   9.470   7.538   9.582  0.8725 -0.5058  0.2159
  912MOL0     H23098   9.624   7.477   9.756  1.9378 -1.7375 -1.0009
  912MOL0     H23099   9.725   7.584   9.656 -0.3134 -0.7172 -0.9955
  912MOL0     H23100   8.859   7.339  10.182 -0.1564 -0.5044 -0.3516
  912MOL0     H23101   8.699   7.216  10.276  0.3228  0.7373  0.0245
  912MOL0     H23102   8.366   6.867  10.114  0.6806 -1.2137  1.7605
  912MOL0     H23103   8.218   6.688  10.144  0.3703  3.1722 -2.4534
  912MOL0     H23104   7.808   6.001   9.453  0.6868  0.8008 -0.6238
  912MOL0     H23105   7.606   5.994   9.281 -0.8473 -0.0771  1.0051
  912MOL0     H23106   7.441   5.917   8.911 -1.5869 -2.3159  1.7028
  912MOL0     H23107   7.335   5.914   8.701 -0.7860 -0.5404  0.4262
  912MOL0     H23108   7.448   5.606   8.369  1.1964  0.5792  0.0288
  912MOL0     H23109   7.540   5.743   8.345  1.2065 -0.8041  1.1537
  912MOL0     H23110   7.330   5.875   8.282  0.1082  0.6426  2.4809
  912MOL0     H23111   7.241   5.728   8.307  1.5242  0.6416  3.0188
  912MOL0     H23112   7.430   5.634   8.129  3.1919  0.8919 -2.2320
  912MOL0     H23113   7.468   5.795   8.093 -1.1231  1.5921  3.2357
  912MOL0     H23114   7.329   5.717   7.929  1.8025  0.1142  1.2491
  912MOL0     H23115   7.209   5.646   8.049  0.1928 -1.1752 -0.2582
  912MOL0     H23116   7.053   6.022   8.097 -2.4010 -0.9765 -1.9647
  912MOL0     H23117   7.586   5.606   8.567  2.1951  0.8147  0.7877
  912MOL0     H23118   7.814   5.608   8.759 -0.0483 -1.0620 -0.9442
  912MOL0     H23119   7.740   5.519   8.889  0.6882  1.2324  0.7915
  912MOL0     H23120   7.686   5.476   8.721  0.8318  2.3485 -3.2640
  913MOL0     O23121   0.645  11.393   6.612 -0.1028 -0.0243  0.0810
  913MOL0     C23122   0.625  11.435   6.499 -0.1472  0.8303  0.2027
  913MOL0     O23123   0.522  11.385   6.413 -0.1177 -0.5259 -0.8596
  913MOL0     C23124   0.486  11.249   6.423 -0.3848 -1.4373  0.0900
  913MOL0     C23125   0.433  11.198   6.539 -0.7369  0.1142 -0.4179
  913MOL0     C23126   0.407  11.063   6.551  0.4120 -0.8407 -0.5590
  913MOL0     C23127   0.438  10.972   6.448 -0.7402  0.4719  0.0872
  913MOL0     O23128   0.441  10.838   6.457 -0.0886  0.5768 -0.5195
  913MOL0     C23129   0.342  10.786   6.551  0.3461 -0.7837 -0.0607
  913MOL0     C23130   0.276  10.653   6.507 -0.1418 -0.3160  0.3119
  913MOL0     C23131   0.369  10.524   6.513  0.1738  0.1257  0.0589
  913MOL0     C23132   0.481  10.527   6.417 -0.5952  0.3739 -0.3937
  913MOL0     C23133   0.584  10.416   6.466  1.1976  0.3460 -0.5972
  913MOL0     C23134   0.694  10.418   6.358 -0.2757  0.0139 -1.1031
  913MOL0     C23135   0.805  10.529   6.373 -0.2180 -0.6301  0.3286
  913MOL0     C23136   0.807  10.608   6.237  0.0698 -0.5542  0.8689
  913MOL0     N23137   0.868  10.744   6.245  0.5886 -0.4029  0.9376
  913MOL0     C23138   0.817  10.839   6.336 -0.1547  0.4942 -0.3525
  913MOL0     C23139   0.909  10.938   6.341  0.5983  0.3007 -0.1470
  913MOL0     C23140   0.901  11.070   6.415 -0.0951 -0.5505 -0.2786
  913MOL0     C23141   0.925  11.050   6.561  0.0242 -0.7048 -0.9327
  913MOL0     C23142   0.863  11.154   6.648  0.9161  0.3766  0.6962
  913MOL0     C23143   0.923  11.168   6.779  0.0897 -0.3582  0.4559
  913MOL0     O23144   0.910  11.048   6.845  0.5614  0.9093  0.2098
  913MOL0     C23145   0.968  11.042   6.971 -0.7309 -0.5040  1.1390
  913MOL0     C23146   0.989  11.157   7.050  0.5785 -1.1264  0.8531
  913MOL0     C23147   1.032  11.146   7.182 -0.9313  0.0184  0.2148
  913MOL0     C23148   1.061  11.021   7.240  1.2291  0.7454 -0.1630
  913MOL0     C23149   1.106  11.015   7.386  0.2566  0.1886  0.1993
  913MOL0     O23150   1.108  10.892   7.449 -0.3138 -0.6484 -0.1636
  913MOL0     C23151   1.139  10.882   7.584  0.0133  0.7533 -0.3110
  913MOL0     C23152   1.084  10.973   7.676 -0.6463 -0.2190 -0.7029
  913MOL0     C23153   1.114  10.964   7.814  0.7544  0.8103 -0.2203
  913MOL0     C23154   1.173  10.850   7.862  0.3412  0.2223  0.2892
  913MOL0     O23155   1.204  10.821   7.985  0.9805 -0.3373 -0.0112
  913MOL0     C23156   1.293  10.919   8.041  0.3980  0.3134  0.1040
  913MOL0     C23157   1.324  10.870   8.183  1.0468  0.0148 -0.3031
  913MOL0     C23158   1.391  10.970   8.279  0.3361  0.6250 -0.2691
  913MOL0     C23159   1.452  10.912   8.417 -0.1686 -0.1040  0.3487
  913MOL0     C23160   1.514  11.023   8.502  0.0035  0.0262  1.2616
  913MOL0     C23161   1.589  10.955   8.609  0.4274  1.0221  0.4866
  913MOL0     C23162   1.656  11.059   8.695  0.1066 -0.0145  0.0066
  913MOL0     C23163   1.758  11.001   8.784 -0.6640  1.1449  0.1133
  913MOL0    Cl23164   1.847  11.132   8.874  0.0052  0.5153  0.3635
  913MOL0     C23165   1.222  10.748   7.769 -0.1614 -0.2109  0.0552
  913MOL0     C23166   1.199  10.767   7.634  0.3116 -0.0346 -0.6955
  913MOL0     O23167   1.115  11.120   7.447  0.1571 -0.3073  0.7854
  913MOL0     C23168   1.056  10.908   7.163  0.6309 -0.4635  0.1078
  913MOL0     C23169   1.003  10.923   7.029  0.6161 -0.7233 -0.8393
  913MOL0     N23170   1.014  10.909   6.252  0.7086  0.0082 -0.0954
  913MOL0     N23171   0.989  10.791   6.196 -0.0843  0.3310  0.0452
  913MOL0     C23172   0.506  11.027   6.343 -0.0055  0.0913  0.6989
  913MOL0     C23173   0.531  11.162   6.328 -1.0318 -0.0987 -0.3629
  913MOL0     C23174   0.688  11.566   6.462  0.0089 -0.2361  0.2392
  913MOL0     C23175   0.594  11.662   6.410 -0.1073  0.5387 -0.1127
  913MOL0     C23176   0.642  11.785   6.372  1.5580 -0.0678 -0.2783
  913MOL0     C23177   0.774  11.829   6.390 -0.8069 -0.8501 -0.0857
  913MOL0     O23178   0.823  11.962   6.370  0.2794 -0.1547  0.0763
  913MOL0     C23179   0.737  12.079   6.361  0.6193  0.5261  0.7465
  913MOL0     C23180   0.681  12.124   6.499 -0.9191 -0.1931  0.2526
  913MOL0     C23181   0.644  12.262   6.509 -0.4970 -0.2808 -0.3765
  913MOL0     C23182   0.660  12.318   6.655 -0.1756  0.4128  0.6801
  913MOL0     C23183   0.643  12.459   6.664  0.5633 -0.1610  0.5693
  913MOL0     C23184   0.631  12.578   6.672 -0.5141 -0.9698  0.6155
  913MOL0     C23185   0.867  11.729   6.446  1.0917 -0.8013  0.1381
  913MOL0     C23186   0.823  11.598   6.466 -0.3976  0.1316 -1.5082
  913MOL0     C23187   0.929  11.496   6.513 -0.0937 -0.4326  0.0418
  913MOL0     H23188   0.400  11.271   6.613  1.0266  0.0093  0.5175
  913MOL0     H23189   0.358  11.038   6.645 -1.6607  1.2345 -0.9798
  913MOL0     H23190   0.381  10.773   6.652 -2.4797  0.7239  1.3670
  913MOL0     H23191   0.261  10.857   6.568  2.0681  1.3300 -0.2850
  913MOL0     H23192   0.238  10.667   6.406 -3.8041  0.8951  1.6947
  913MOL0     H23193   0.188  10.632   6.568 -0.8321 -1.4152 -1.0332
  913MOL0     H23194   0.307  10.434   6.506  0.0441  0.2610 -0.7033
  913MOL0     H23195   0.414  10.523   6.612  0.5729  0.2568 -0.1162
  913MOL0     H23196   0.440  10.508   6.317 -3.0414 -0.1622  0.6335
  913MOL0     H23197   0.536  10.621   6.427  3.9906 -2.0444 -0.2203
  913MOL0     H23198   0.618  10.434   6.568 -1.8228 -0.2260  0.6209
  913MOL0     H23199   0.524  10.324   6.467  0.4201  0.7477  2.7875
  913MOL0     H23200   0.740  10.319   6.366 -0.6257 -0.0158  2.9825
  913MOL0     H23201   0.644  10.426   6.261 -1.3554  2.9996 -0.3949
  913MOL0     H23202   0.898  10.480   6.403 -0.1928 -0.3829  0.6634
  913MOL0     H23203   0.774  10.600   6.450 -0.7826  0.7951 -1.1439
  913MOL0     H23204   0.863  10.545   6.167  0.0580  1.0919 -0.7025
  913MOL0     H23205   0.710  10.615   6.186  1.6107 -2.4936 -2.7441
  913MOL0     H23206   0.723  10.832   6.389 -2.0924  0.5980 -3.4980
  913MOL0     H23207   0.965  11.148   6.372 -1.4748  0.4154 -0.6610
  913MOL0     H23208   0.802  11.113   6.397  0.8549  1.8408 -0.1071
  913MOL0     H23209   0.893  10.948   6.587 -1.2428 -0.5082 -1.6466
  913MOL0     H23210   1.030  11.043   6.591 -0.1091  0.7702 -0.0080
  913MOL0     H23211   0.757  11.131   6.665  1.2335 -0.3912  1.7576
  913MOL0     H23212   0.886  11.252   6.606 -0.8300 -0.5772 -2.8420
  913MOL0     H23213   0.863  11.244   6.830 -1.6842 -1.8656  0.7312
  913MOL0     H23214   1.027  11.199   6.767 -0.2090 -0.3436 -2.9169
  913MOL0     H23215   0.964  11.258   7.018  1.2585 -1.2709 -0.1643
  913MOL0     H23216   1.056  11.234   7.240  0.8401 -1.4369  1.8328
  913MOL0     H23217   1.004  11.043   7.654 -0.1424  2.2193  3.9624
  913MOL0     H23218   1.054  11.030   7.876  2.4851  2.5302 -0.2731
  913MOL0     H23219   1.385  10.935   7.985 -0.4368  0.8813 -1.1636
  913MOL0     H23220   1.233  11.010   8.048 -1.6136 -1.0923  3.5386
  913MOL0     H23221   1.230  10.829   8.222  1.5309 -2.4352 -1.5337
  913MOL0     H23222   1.393  10.789   8.160  1.4410  1.0426 -3.1719
  913MOL0     H23223   1.482  11.015   8.240  1.7107 -1.4059  0.4671
  913MOL0     H23224   1.322  11.052   8.302  0.5179  0.0250  3.0070
  913MOL0     H23225   1.518  10.826   8.397 -0.2570 -0.0078 -0.3899
  913MOL0     H23226   1.368  10.866   8.470 -0.7994  0.1441 -0.4145
  913MOL0     H23227   1.429  11.079   8.543 -1.7082 -0.8998 -0.8474
  913MOL0     H23228   1.571  11.085   8.432  1.8918  0.8776  3.4181
  913MOL0     H23229   1.516  10.900   8.669 -0.4133  1.2505 -0.3085
  913MOL0     H23230   1.661  10.897   8.551  0.3519  1.5507 -0.1360
  913MOL0     H23231   1.593  11.111   8.768  0.7585  1.9493 -0.7671
  913MOL0     H23232   1.701  11.131   8.626 -2.1543 -0.5749 -2.1904
  913MOL0     H23233   1.715  10.951   8.871  2.8745  0.1411  1.4883
  913MOL0     H23234   1.828  10.935   8.732 -1.0976  1.9988 -1.6340
  913MOL0     H23235   1.278  10.665   7.812  0.1689 -0.2362 -0.4091
  913MOL0     H23236   1.224  10.683   7.570  2.4129  2.0658 -2.8123
  913MOL0     H23237   1.060  10.806   7.201  1.1250 -0.8138 -0.8538
  913MOL0     H23238   0.968  10.836   6.975  0.0950  0.2426 -2.1107
  913MOL0     H23239   0.552  10.947   6.285 -0.9899 -0.1527  0.2259
  913MOL0     H23240   0.591  11.213   6.253  1.0847  1.9623  2.4547
  913MOL0     H23241   0.490  11.633   6.401 -0.6129  1.9549  0.9157
  913MOL0     H23242   0.560  11.850   6.343  0.0768 -0.6793  2.2046
  913MOL0     H23243   0.651  12.048   6.301  0.5191 -0.6904  1.4742
  913MOL0     H23244   0.802  12.150   6.310 -3.3164  1.8609 -3.0234
  913MOL0     H23245   0.756  12.100   6.575 -2.5549  0.3871  2.1460
  913MOL0     H23246   0.591  12.073   6.536 -0.6231  0.8101  2.5522
  913MOL0     H23247   0.541  12.286   6.480 -0.8845  1.3444  2.0714
  913MOL0     H23248   0.713  12.313   6.442 -0.5587  0.7237  0.3019
  913MOL0     H23249   0.603  12.254   6.723 -0.6165  1.0119  0.8833
  913MOL0     H23250   0.765  12.306   6.682  0.2130 -0.7378 -1.1795
  913MOL0     H23251   0.632  12.685   6.677 -1.8048 -0.9286  0.3664
  913MOL0     H23252   0.971  11.748   6.470  0.8415 -0.9190  1.4218
  913MOL0     H23253   1.024  11.548   6.494 -0.7858  1.6487  1.7893
  913MOL0     H23254   0.922  11.489   6.622  0.2572  2.3359  0.3086
  913MOL0     H23255   0.925  11.403   6.456 -0.5729 -1.6156  1.8813
  914MOL0     O23256  10.414   9.772   2.344 -1.0378  0.4078 -0.2079
  914MOL0     C23257  10.490   9.819   2.266 -0.4590  0.3479 -0.8545
  914MOL0     O23258  10.463   9.817   2.133  0.9785  0.2076  0.3955
  914MOL0     C23259  10.350   9.753   2.086 -0.1513 -1.1134  0.1449
  914MOL0     C23260  10.356   9.624   2.041 -0.2207  0.0673  0.0111
  914MOL0     C23261  10.247   9.551   1.996 -0.8835 -0.6444 -0.2577
  914MOL0     C23262  10.131   9.627   1.982  1.0332 -1.0507 -0.5250
  914MOL0     O23263  10.024   9.567   1.916 -0.6753  0.0105 -0.1285
  914MOL0     C23264   9.900   9.620   1.946  0.2108  0.1331  0.3007
  914MOL0     C23265   9.787   9.523   1.914 -1.1877  0.2107 -0.0950
  914MOL0     C23266   9.647   9.573   1.938  0.2949 -0.4570  0.5048
  914MOL0     C23267   9.542   9.458   1.931  0.1924 -0.2684 -0.2996
  914MOL0     C23268   9.401   9.516   1.973 -0.2101  0.7591 -0.0159
  914MOL0     C23269   9.297   9.395   1.979  0.0208 -0.0615 -0.6284
  914MOL0     C23270   9.147   9.445   2.012 -0.0601 -0.0127  0.5490
  914MOL0     C23271   9.093   9.525   1.895  1.2646 -0.0214 -0.1631
  914MOL0     N23272   8.944   9.548   1.895 -0.4764  0.6153 -0.5411
  914MOL0     C23273   8.894   9.647   1.978  0.0668 -0.3167  0.6476
  914MOL0     C23274   8.761   9.653   1.948 -0.9394 -0.1290  0.2928
  914MOL0     C23275   8.669   9.765   1.991  0.5170 -0.7179 -1.5080
  914MOL0     C23276   8.611   9.727   2.130 -0.5982 -0.3698  0.1903
  914MOL0     C23277   8.544   9.849   2.201  0.5433  0.0382 -0.8129
  914MOL0     C23278   8.417   9.904   2.132 -1.1171  0.4311 -0.1872
  914MOL0     O23279   8.353  10.014   2.193  0.4299  0.6692 -0.0997
  914MOL0     C23280   8.256  10.074   2.109  0.1329  0.4548  1.6115
  914MOL0     C23281   8.222  10.200   2.143  0.9374 -0.4778  0.6703
  914MOL0     C23282   8.107  10.261   2.078  0.7828  0.3706  0.0293
  914MOL0     C23283   8.046  10.204   1.967 -0.4168  0.1470  0.1729
  914MOL0     C23284   7.933  10.284   1.895 -0.7241 -0.0821  0.1997
  914MOL0     O23285   7.900  10.240   1.772  0.4571 -0.1850 -0.7200
  914MOL0     C23286   7.796  10.308   1.712 -0.1702  0.0329 -0.1687
  914MOL0     C23287   7.663  10.264   1.730  0.7380 -0.2760  0.3219
  914MOL0     C23288   7.554  10.327   1.666  0.2542  0.2362  0.1336
  914MOL0     C23289   7.566  10.452   1.618  0.0739 -0.4415  0.0163
  914MOL0     O23290   7.457  10.518   1.555  0.5294  0.6596  0.8108
  914MOL0     C23291   7.381  10.440   1.460 -0.3528  0.8471 -0.3812
  914MOL0     C23292   7.241  10.476   1.494 -0.2124  0.0351 -0.1307
  914MOL0     C23293   7.208  10.618   1.448  1.1359 -0.1558  0.1004
  914MOL0     C23294   7.058  10.669   1.458  0.9811  1.8616 -0.1807
  914MOL0     C23295   6.969  10.608   1.343 -0.3325 -0.4537 -0.3932
  914MOL0     C23296   6.845  10.704   1.343 -0.8640  0.0639 -0.5316
  914MOL0     C23297   6.739  10.645   1.237 -0.2462  1.0834 -0.5819
  914MOL0     C23298   6.748  10.718   1.100 -0.1696  0.6657 -0.9180
  914MOL0    Cl23299   6.715  10.885   1.138 -0.1431 -0.6670  0.0316
  914MOL0     C23300   7.698  10.505   1.608  0.0614 -0.8404 -0.5532
  914MOL0     C23301   7.809  10.433   1.656  0.3997  1.1141  0.7982
  914MOL0     O23302   7.881  10.377   1.957  0.4768 -0.4083 -0.0322
  914MOL0     C23303   8.095  10.083   1.914  0.3013  0.9349 -0.1491
  914MOL0     C23304   8.192  10.019   1.991  0.4474  0.4089  0.2075
  914MOL0     N23305   8.743   9.559   1.849  0.5001 -0.3919  0.5659
  914MOL0     N23306   8.846   9.502   1.815 -0.0584  0.1099  0.0346
  914MOL0     C23307  10.129   9.767   2.013  0.4519 -0.4922  0.4486
  914MOL0     C23308  10.239   9.836   2.066 -0.7578  0.0870 -0.0136
  914MOL0     C23309  10.616   9.877   2.325  0.9095  0.0321  0.6538
  914MOL0     C23310  10.721   9.883   2.234  0.0794  0.6384  0.0247
  914MOL0     C23311  10.843   9.900   2.280 -1.0364 -0.4533  0.7342
  914MOL0     C23312  10.863   9.929   2.414  0.2616  0.0421  0.3301
  914MOL0     O23313  10.995   9.943   2.449  0.5367  0.5344  0.5183
  914MOL0     C23314  11.018   9.985   2.589  0.0399  0.2444  0.3135
  914MOL0     C23315  11.030  10.139   2.606 -0.4957  0.9244  0.0860
  914MOL0     C23316  11.111  10.163   2.732  0.6502 -0.1360 -0.0488
  914MOL0     C23317  11.126  10.305   2.776 -0.0599 -0.0821  0.3825
  914MOL0     C23318  11.228  10.375   2.696 -0.3740  0.9111  0.0753
  914MOL0     C23319  11.330  10.433   2.664 -0.4084 -0.1208 -0.5236
  914MOL0     C23320  10.756   9.951   2.502 -0.2572 -0.3336 -0.1639
  914MOL0     C23321  10.630   9.920   2.458 -0.0658  0.2695 -0.2934
  914MOL0     C23322  10.520   9.945   2.553  0.3121  0.1757  0.3474
  914MOL0     H23323  10.451   9.573   2.034 -0.1261  0.2392  0.0492
  914MOL0     H23324  10.253   9.446   1.967  0.2217 -0.6611 -0.0232
  914MOL0     H23325   9.895   9.650   2.051  4.1166 -0.3938  0.7790
  914MOL0     H23326   9.899   9.708   1.881 -1.0605  1.7909  2.4352
  914MOL0     H23327   9.788   9.433   1.977  0.6937 -1.7820 -2.7400
  914MOL0     H23328   9.805   9.500   1.808 -2.0531  1.6926 -0.5820
  914MOL0     H23329   9.608   9.653   1.873  0.1871 -0.2477  0.8245
  914MOL0     H23330   9.651   9.623   2.035  2.7439 -0.7000  0.5847
  914MOL0     H23331   9.541   9.406   1.836 -0.4748 -3.3871  1.3004
  914MOL0     H23332   9.567   9.387   2.011 -1.2636  0.9371  1.3186
  914MOL0     H23333   9.400   9.577   2.064 -1.8463  0.2523  0.3553
  914MOL0     H23334   9.366   9.583   1.895 -0.7569 -1.2526 -1.5834
  914MOL0     H23335   9.299   9.340   1.884  0.8339 -0.2592 -0.5079
  914MOL0     H23336   9.324   9.321   2.055 -1.5578 -0.1682 -0.1393
  914MOL0     H23337   9.145   9.507   2.102 -0.4314  0.6381  0.0994
  914MOL0     H23338   9.093   9.351   2.024  0.7944 -0.5414  0.3336
  914MOL0     H23339   9.147   9.618   1.874  2.7926 -0.6719  0.6849
  914MOL0     H23340   9.109   9.470   1.802  2.6198  0.9519 -0.5546
  914MOL0     H23341   8.944   9.725   2.034  0.4326  0.5160 -0.7851
  914MOL0     H23342   8.730   9.856   2.000 -1.4060  0.6171 -1.2463
  914MOL0     H23343   8.591   9.788   1.918  0.1613 -1.5180 -1.3841
  914MOL0     H23344   8.538   9.647   2.114  2.0131 -2.8651 -0.0523
  914MOL0     H23345   8.697   9.686   2.184  2.0435  0.4205 -3.0616
  914MOL0     H23346   8.616   9.931   2.208  0.3901  0.2607 -1.8004
  914MOL0     H23347   8.507   9.810   2.297 -3.6129  1.1566 -1.7732
  914MOL0     H23348   8.345   9.824   2.114  1.5254 -2.2979  0.3888
  914MOL0     H23349   8.445   9.936   2.032 -1.0773 -1.2760 -0.7550
  914MOL0     H23350   8.258  10.238   2.238  0.2185 -0.3017  0.8771
  914MOL0     H23351   8.075  10.355   2.121 -0.2945  0.8300 -1.6768
  914MOL0     H23352   7.637  10.171   1.778  4.3579 -0.7000  1.7750
  914MOL0     H23353   7.451  10.296   1.679  0.1081  0.4893 -0.4043
  914MOL0     H23354   7.400  10.472   1.358 -1.0119  1.1225 -0.4205
  914MOL0     H23355   7.405  10.333   1.464  1.6565  1.2744  0.6604
  914MOL0     H23356   7.174  10.407   1.442 -0.4900 -0.5097  0.9073
  914MOL0     H23357   7.231  10.478   1.603  0.9060 -0.7929  0.0014
  914MOL0     H23358   7.271  10.688   1.505  2.5163  1.9954 -3.7291
  914MOL0     H23359   7.235  10.620   1.342 -2.6537 -3.4400 -1.1764
  914MOL0     H23360   7.065  10.778   1.443  3.7329  1.4692 -2.6126
  914MOL0     H23361   7.026  10.633   1.556  2.2257 -2.0609 -1.0595
  914MOL0     H23362   6.943  10.507   1.375 -3.0739  0.4516  0.4236
  914MOL0     H23363   7.025  10.603   1.249  1.9634 -0.7660  0.9060
  914MOL0     H23364   6.802  10.717   1.443  2.4635 -2.0466  1.3672
  914MOL0     H23365   6.881  10.804   1.319  2.3221 -1.3972 -2.5172
  914MOL0     H23366   6.640  10.648   1.282  0.4666  2.0992  0.9927
  914MOL0     H23367   6.759  10.538   1.221  2.5808  1.5741 -0.9235
  914MOL0     H23368   6.855  10.709   1.077  0.8631 -1.3856  3.4536
  914MOL0     H23369   6.682  10.660   1.035 -2.6174  0.3359  1.6389
  914MOL0     H23370   7.708  10.605   1.565  0.9385 -0.5095  0.3832
  914MOL0     H23371   7.913  10.463   1.648  0.2663  1.4293  0.2281
  914MOL0     H23372   8.047  10.039   1.826 -0.1791  1.7548 -0.3034
  914MOL0     H23373   8.226   9.924   1.951  2.7730  1.9662 -1.7587
  914MOL0     H23374  10.050   9.831   1.976  1.4149  1.8001  2.1353
  914MOL0     H23375  10.241   9.944   2.079  0.8208  0.1025 -0.1382
  914MOL0     H23376  10.696   9.847   2.134  1.3539  2.0595 -0.8364
  914MOL0     H23377  10.936   9.890   2.226  0.5033 -0.7098  3.2627
  914MOL0     H23378  11.109   9.937   2.625 -1.3510 -2.1466  0.8738
  914MOL0     H23379  10.954   9.935   2.663  0.1312 -1.6974 -0.8329
  914MOL0     H23380  10.930  10.184   2.603 -1.1696 -0.4776  0.4653
  914MOL0     H23381  11.080  10.183   2.519  1.7472 -0.5782  0.5358
  914MOL0     H23382  11.210  10.118   2.741  0.2206 -0.7731  1.9976
  914MOL0     H23383  11.054  10.117   2.813  2.1581  0.2555  1.2778
  914MOL0     H23384  11.031  10.360   2.776  2.0108  4.0008  2.5751
  914MOL0     H23385  11.171  10.310   2.875 -1.4760  0.4290  1.0322
  914MOL0     H23386  11.418  10.494   2.660  0.2613 -0.9316  1.0640
  914MOL0     H23387  10.768   9.981   2.605  4.9403 -0.2239 -0.5364
  914MOL0     H23388  10.463   9.856   2.580 -1.5326  0.5353 -1.9560
  914MOL0     H23389  10.552  10.000   2.642  1.1849  1.4208 -0.6820
  914MOL0     H23390  10.451  10.009   2.495  0.7336 -2.9275 -4.0418
  915MOL0     O23391   5.209   2.623   3.033 -0.9375  0.0308 -0.2951
  915MOL0     C23392   5.181   2.652   3.150 -0.4691  0.3582  0.5348
  915MOL0     O23393   5.125   2.567   3.245 -0.4345  0.0815  0.6090
  915MOL0     C23394   5.066   2.452   3.187  0.0911 -0.0143 -0.0355
  915MOL0     C23395   4.930   2.430   3.204 -0.1105 -0.3649 -0.9717
  915MOL0     C23396   4.861   2.322   3.154  0.1650  0.2119 -1.0689
  915MOL0     C23397   4.929   2.227   3.074 -0.1304 -0.3848  0.6220
  915MOL0     O23398   4.890   2.105   3.031  0.3248 -0.1304  0.4355
  915MOL0     C23399   4.764   2.057   3.080  0.1429 -0.1018 -0.2328
  915MOL0     C23400   4.764   1.914   3.023  0.3581 -1.0810  0.0373
  915MOL0     C23401   4.891   1.829   3.057  0.0563  0.3084  1.1687
  915MOL0     C23402   4.894   1.799   3.208 -0.4366 -0.3503 -0.4463
  915MOL0     C23403   5.007   1.702   3.236 -0.0465 -0.2371 -0.5883
  915MOL0     C23404   4.980   1.602   3.354 -0.2655  0.6162  0.5955
  915MOL0     C23405   5.119   1.549   3.411  0.1427  0.4530 -0.1171
  915MOL0     C23406   5.106   1.541   3.566 -0.1039 -0.3797  0.0538
  915MOL0     N23407   5.055   1.661   3.634  0.6087 -0.0344 -0.3635
  915MOL0     C23408   5.082   1.795   3.607 -0.6505 -0.5153  0.1960
  915MOL0     C23409   4.985   1.852   3.681  0.2071 -1.3365  0.0716
  915MOL0     C23410   4.966   1.998   3.703  0.6409 -0.1299  0.8107
  915MOL0     C23411   4.821   2.034   3.659 -0.8010 -0.0462  0.1851
  915MOL0     C23412   4.802   2.186   3.670  0.2172 -0.6092 -0.1236
  915MOL0     C23413   4.909   2.284   3.601  0.8158 -0.4451  0.4766
  915MOL0     O23414   4.856   2.413   3.634  1.0214  0.7082 -0.3592
  915MOL0     C23415   4.938   2.487   3.719  0.2601 -0.5021 -0.5081
  915MOL0     C23416   4.921   2.482   3.859  0.2011  0.4780 -1.6046
  915MOL0     C23417   5.021   2.531   3.941  0.8780 -0.2225  0.2060
  915MOL0     C23418   5.136   2.586   3.891 -0.5110  0.8213  1.0630
  915MOL0     C23419   5.253   2.611   3.986  0.1637  0.4562 -0.0495
  915MOL0     O23420   5.222   2.617   4.119 -0.1549  0.0990 -0.2358
  915MOL0     C23421   5.334   2.624   4.205  0.0342  0.3854  0.7417
  915MOL0     C23422   5.397   2.749   4.238  1.0236  0.0407 -0.4207
  915MOL0     C23423   5.500   2.753   4.338  0.7733  0.6038 -0.2705
  915MOL0     C23424   5.549   2.632   4.389 -0.5144  0.1576 -0.4210
  915MOL0     O23425   5.645   2.641   4.494 -0.1268 -1.0856 -0.4338
  915MOL0     C23426   5.776   2.582   4.471 -0.0115  0.2693 -0.2604
  915MOL0     C23427   5.854   2.533   4.597 -0.1015 -0.0008  0.1981
  915MOL0     C23428   5.770   2.432   4.669 -1.2186  0.4064  0.1656
  915MOL0     C23429   5.752   2.299   4.596  0.2613 -0.0268  0.3807
  915MOL0     C23430   5.685   2.199   4.691  0.1540  0.1988  0.4256
  915MOL0     C23431   5.667   2.060   4.633  0.8797  0.0857 -0.1061
  915MOL0     C23432   5.535   2.028   4.553 -0.2952  0.2113  0.0376
  915MOL0     C23433   5.515   2.119   4.434  0.0844  0.5506  0.1714
  915MOL0    Cl23434   5.426   2.024   4.312 -0.3989 -0.5322  0.0063
  915MOL0     C23435   5.492   2.508   4.347 -0.2157  0.2722 -0.0412
  915MOL0     C23436   5.388   2.512   4.261  1.3748  0.0805  0.5148
  915MOL0     O23437   5.364   2.625   3.938 -0.5068  0.2133  0.4724
  915MOL0     C23438   5.146   2.601   3.756  0.2615 -0.3427  0.3180
  915MOL0     C23439   5.048   2.555   3.671 -1.1523  0.1138 -0.2947
  915MOL0     N23440   4.914   1.767   3.761 -0.4943  0.3197  0.1636
  915MOL0     N23441   4.945   1.645   3.720 -0.3808  0.4222  0.2672
  915MOL0     C23442   5.065   2.250   3.048  0.0842  0.1206 -0.6404
  915MOL0     C23443   5.133   2.352   3.106 -0.3460 -0.6608 -0.1105
  915MOL0     C23444   5.191   2.790   3.203 -0.6825  0.0955 -0.1541
  915MOL0     C23445   5.142   2.815   3.325  0.2214 -0.2236 -0.7730
  915MOL0     C23446   5.149   2.940   3.385 -0.1355 -0.0437  0.3962
  915MOL0     C23447   5.214   3.046   3.314  0.7205  0.5007 -0.5221
  915MOL0     O23448   5.196   3.164   3.376  0.4905  0.0001  0.1168
  915MOL0     C23449   5.080   3.227   3.334 -0.5784  0.1028 -0.5387
  915MOL0     C23450   5.106   3.375   3.375  0.4435 -0.4136  0.5805
  915MOL0     C23451   5.212   3.440   3.283 -0.6555 -0.8220  0.1135
  915MOL0     C23452   5.194   3.428   3.132 -0.1523 -0.4049  0.1387
  915MOL0     C23453   5.082   3.507   3.078  0.0336 -0.8215 -0.2289
  915MOL0     C23454   4.978   3.557   3.036  0.5798 -0.2965 -0.4388
  915MOL0     C23455   5.252   3.021   3.185 -0.7820 -0.3713 -0.3987
  915MOL0     C23456   5.257   2.888   3.130 -0.4488 -0.6362 -0.5117
  915MOL0     C23457   5.326   2.867   2.997  0.7584  0.4743  0.8580
  915MOL0     H23458   4.867   2.492   3.267 -0.0493  0.0794 -1.3478
  915MOL0     H23459   4.757   2.319   3.186  0.2289  2.0983 -0.4963
  915MOL0     H23460   4.751   2.068   3.188  1.2529 -0.0577 -0.0914
  915MOL0     H23461   4.686   2.122   3.040  1.2069  3.6060  3.0949
  915MOL0     H23462   4.770   1.927   2.915 -0.1347 -0.1776  0.1050
  915MOL0     H23463   4.681   1.847   3.048  2.7974 -3.3297  2.8769
  915MOL0     H23464   4.982   1.881   3.027  1.0026  1.2173  5.0865
  915MOL0     H23465   4.870   1.735   3.003  1.8392 -0.3725  1.6036
  915MOL0     H23466   4.914   1.884   3.273 -0.4263  2.0239 -3.3486
  915MOL0     H23467   4.800   1.751   3.238  0.4559 -1.0719  1.3776
  915MOL0     H23468   5.038   1.631   3.159 -0.5304 -1.5527  0.4040
  915MOL0     H23469   5.088   1.771   3.264 -1.8583  3.5952 -3.7518
  915MOL0     H23470   4.915   1.645   3.430 -2.0586 -1.0569  0.0958
  915MOL0     H23471   4.907   1.528   3.319 -0.1715  2.3230 -3.9508
  915MOL0     H23472   5.200   1.618   3.385  0.0492  1.4069  1.9918
  915MOL0     H23473   5.155   1.453   3.372  0.8210  2.1042 -4.0546
  915MOL0     H23474   5.044   1.453   3.585 -0.4123 -0.4545 -1.1710
  915MOL0     H23475   5.209   1.525   3.599  0.3751  1.9763 -0.0829
  915MOL0     H23476   5.155   1.836   3.538 -2.1240  0.2146 -1.0062
  915MOL0     H23477   4.966   2.013   3.812  0.7249 -0.7518  0.8979
  915MOL0     H23478   5.042   2.055   3.648  0.6613  1.2802  2.2220
  915MOL0     H23479   4.805   1.984   3.564 -0.0261  0.6404 -0.3244
  915MOL0     H23480   4.756   1.983   3.731 -0.8271 -0.3152 -0.0286
  915MOL0     H23481   4.800   2.218   3.774  1.4029  0.1526 -0.3109
  915MOL0     H23482   4.712   2.212   3.613 -1.5991 -4.0320  0.8859
  915MOL0     H23483   4.913   2.279   3.492 -2.7646 -0.5972  0.2199
  915MOL0     H23484   5.012   2.282   3.636  1.0942  0.9364 -0.1670
  915MOL0     H23485   4.840   2.429   3.907  2.4471 -1.8602 -0.1774
  915MOL0     H23486   5.016   2.541   4.049 -1.6776  4.1884 -0.0639
  915MOL0     H23487   5.363   2.833   4.179  0.0936  0.0758  0.1444
  915MOL0     H23488   5.534   2.852   4.367  1.2148 -0.1612  2.0423
  915MOL0     H23489   5.771   2.501   4.397 -0.9492 -0.4912  0.6125
  915MOL0     H23490   5.834   2.667   4.433  0.2783  2.5611  4.6034
  915MOL0     H23491   5.956   2.499   4.577  0.4670  0.2029  2.5426
  915MOL0     H23492   5.869   2.622   4.659 -1.2631  0.1246  0.3202
  915MOL0     H23493   5.822   2.398   4.759 -0.4243  2.7265  0.6363
  915MOL0     H23494   5.672   2.476   4.692 -1.2463  0.6036 -0.3109
  915MOL0     H23495   5.853   2.258   4.583  0.2513  0.3064 -0.8827
  915MOL0     H23496   5.702   2.313   4.500  3.1718  0.2844 -1.2338
  915MOL0     H23497   5.581   2.226   4.711  0.1674 -0.4458  1.4698
  915MOL0     H23498   5.737   2.192   4.787  0.0560 -3.4688  0.3675
  915MOL0     H23499   5.758   2.039   4.575  1.3878 -1.3542  1.1485
  915MOL0     H23500   5.658   1.986   4.713  0.6165  1.6435  1.3682
  915MOL0     H23501   5.456   2.035   4.629 -1.6999 -1.6885 -1.1550
  915MOL0     H23502   5.538   1.922   4.528 -1.0539  0.3378 -0.6499
  915MOL0     H23503   5.462   2.205   4.476 -0.0273 -0.1972  1.6263
  915MOL0     H23504   5.613   2.142   4.389  0.0420  0.4713  0.0377
  915MOL0     H23505   5.517   2.423   4.411 -2.6168 -1.7261 -1.5585
  915MOL0     H23506   5.328   2.425   4.239  2.5757 -0.6968  0.2385
  915MOL0     H23507   5.233   2.640   3.705 -1.0681  5.6751  1.8391
  915MOL0     H23508   5.054   2.557   3.563  0.2103  5.5662 -0.4274
  915MOL0     H23509   5.114   2.175   2.988  0.7010 -1.3936  1.6418
  915MOL0     H23510   5.240   2.362   3.091 -0.4278 -0.4600 -0.5534
  915MOL0     H23511   5.075   2.750   3.381 -1.1892 -0.1511 -2.3242
  915MOL0     H23512   5.108   2.965   3.482 -2.4184 -2.0854  0.0717
  915MOL0     H23513   4.992   3.201   3.394  0.2484  0.8314  1.0445
  915MOL0     H23514   5.049   3.221   3.230 -1.3199  2.9353 -0.5446
  915MOL0     H23515   5.122   3.401   3.480 -3.3820 -0.6137  1.3670
  915MOL0     H23516   5.010   3.426   3.357  1.2584  0.9685 -0.0218
  915MOL0     H23517   5.315   3.409   3.303 -0.5185  0.2503  1.1512
  915MOL0     H23518   5.224   3.541   3.323 -2.0226 -1.0303  1.1292
  915MOL0     H23519   5.282   3.475   3.086 -3.4029  4.3934 -1.9384
  915MOL0     H23520   5.185   3.324   3.100  0.8396 -0.5857  0.4126
  915MOL0     H23521   4.878   3.593   3.022 -0.7913 -3.3560  0.6439
  915MOL0     H23522   5.277   3.108   3.125 -3.3602  0.2707 -0.6561
  915MOL0     H23523   5.374   2.958   2.962  1.8281  0.1668  1.5064
  915MOL0     H23524   5.391   2.783   3.021 -1.4392 -1.2441  1.1567
  915MOL0     H23525   5.263   2.833   2.914 -1.3489  0.5991  2.3121
  916MOL0     O23526   7.018   8.738   5.992  0.0600  0.9829  0.7121
  916MOL0     C23527   7.127   8.739   6.046  0.6167 -0.2427  0.0441
  916MOL0     O23528   7.188   8.644   6.121  0.3399 -0.1773 -0.0412
  916MOL0     C23529   7.127   8.521   6.132  0.4414  0.0788 -0.1360
  916MOL0     C23530   7.081   8.443   6.021 -0.0813 -0.7384 -0.3733
  916MOL0     C23531   7.016   8.315   6.051 -0.7105  0.4338  0.5038
  916MOL0     C23532   7.001   8.269   6.182 -0.2613 -0.2383  0.0865
  916MOL0     O23533   6.926   8.153   6.185  0.5134 -0.5245 -0.0007
  916MOL0     C23534   6.857   8.135   6.315 -0.2296 -0.0426  1.2282
  916MOL0     C23535   6.724   8.219   6.348 -0.1709  0.6197 -0.4024
  916MOL0     C23536   6.611   8.193   6.236  0.6482 -0.5808 -0.4546
  916MOL0     C23537   6.474   8.260   6.272 -0.9712  0.3956  0.4425
  916MOL0     C23538   6.376   8.156   6.339 -0.2542  0.1098 -0.7008
  916MOL0     C23539   6.235   8.213   6.313 -0.4725 -0.6159  0.6280
  916MOL0     C23540   6.134   8.152   6.411 -0.5293  0.6061  0.4232
  916MOL0     C23541   6.044   8.272   6.459  0.3267  0.3562 -0.9312
  916MOL0     N23542   5.963   8.333   6.352  0.2539 -0.2718  0.9719
  916MOL0     C23543   5.831   8.298   6.331 -0.0177 -0.6052  0.8002
  916MOL0     C23544   5.788   8.391   6.228 -1.3167  0.8892 -0.7726
  916MOL0     C23545   5.641   8.415   6.183 -0.7271  0.6961  0.3473
  916MOL0     C23546   5.583   8.528   6.270  0.3307  0.2010  0.0890
  916MOL0     C23547   5.439   8.551   6.217 -0.8393  0.5307 -0.6759
  916MOL0     C23548   5.380   8.685   6.265  0.1933 -0.3284  0.5113
  916MOL0     O23549   5.453   8.795   6.240 -0.7703  0.1343 -0.1105
  916MOL0     C23550   5.382   8.889   6.174  0.3901 -0.1018 -0.2454
  916MOL0     C23551   5.362   9.006   6.241 -0.7120 -0.5521 -0.3409
  916MOL0     C23552   5.289   9.106   6.179 -0.3363  0.5003 -1.1284
  916MOL0     C23553   5.242   9.093   6.047 -0.4394 -0.0135  0.1634
  916MOL0     C23554   5.166   9.210   6.000  0.3539  0.7723 -0.2507
  916MOL0     O23555   5.168   9.319   6.074 -0.5094  0.1767 -0.0588
  916MOL0     C23556   5.096   9.424   6.023 -0.6104  0.2294  0.4879
  916MOL0     C23557   4.991   9.476   6.112 -1.2049  0.7029 -0.5578
  916MOL0     C23558   4.926   9.583   6.070  0.7093  0.2504 -0.6046
  916MOL0     C23559   4.944   9.657   5.956  0.8225  0.6061  0.8205
  916MOL0     O23560   4.867   9.775   5.934  0.1183  0.0362  0.2465
  916MOL0     C23561   4.898   9.850   5.820 -0.0600  0.0454 -0.5770
  916MOL0     C23562   4.803   9.967   5.790 -0.1065  0.2030 -0.2288
  916MOL0     C23563   4.849  10.103   5.852 -0.2306  1.5085  0.2836
  916MOL0     C23564   4.731  10.180   5.922 -0.0636  0.9101  0.9980
  916MOL0     C23565   4.785  10.316   5.969  0.0016 -0.9259 -0.2421
  916MOL0     C23566   4.677  10.414   6.021 -0.2103  0.0947  1.2251
  916MOL0     C23567   4.742  10.542   6.081 -0.4527 -0.4154  0.0372
  916MOL0     C23568   4.645  10.649   6.119 -0.4394 -0.3157  0.6416
  916MOL0    Cl23569   4.728  10.818   6.123  0.0548 -0.6222 -0.1875
  916MOL0     C23570   5.039   9.595   5.868  0.1508 -0.0655  0.3538
  916MOL0     C23571   5.124   9.494   5.903  0.5933  0.2698  0.0720
  916MOL0     O23572   5.092   9.193   5.903  0.0021  0.8340 -0.1653
  916MOL0     C23573   5.260   8.975   5.972 -0.4082  0.2815 -0.3546
  916MOL0     C23574   5.317   8.865   6.045  0.2071  0.6221  0.6101
  916MOL0     N23575   5.895   8.469   6.194 -0.0393 -0.0654 -1.3651
  916MOL0     N23576   5.996   8.427   6.259  0.5857  0.4236  0.1822
  916MOL0     C23577   7.049   8.347   6.292  0.7467 -0.4767 -0.5998
  916MOL0     C23578   7.119   8.470   6.262 -0.2819  0.3372 -0.2952
  916MOL0     C23579   7.188   8.872   6.057 -0.0009  0.4310 -0.2381
  916MOL0     C23580   7.160   8.965   5.950 -1.2542  0.8309  0.0822
  916MOL0     C23581   7.211   9.102   5.942  0.7364  0.3669  0.0465
  916MOL0     C23582   7.299   9.138   6.044 -1.4139  0.2076 -0.2593
  916MOL0     O23583   7.352   9.260   6.034  0.2555  0.4087 -0.1807
  916MOL0     C23584   7.475   9.308   6.098 -0.2243 -0.7535 -0.2163
  916MOL0     C23585   7.484   9.459   6.093  0.1001 -0.2140  0.3338
  916MOL0     C23586   7.629   9.499   6.130  0.2421 -0.7210 -0.5421
  916MOL0     C23587   7.641   9.644   6.146  0.4500 -0.7362 -0.2673
  916MOL0     C23588   7.664   9.691   6.279  0.1164  0.2546  0.3507
  916MOL0     C23589   7.672   9.726   6.391 -0.8692  0.2758  0.3540
  916MOL0     C23590   7.322   9.052   6.156  0.0838 -1.2025  0.4034
  916MOL0     C23591   7.273   8.922   6.166  0.0923 -0.5054  0.3896
  916MOL0     C23592   7.318   8.841   6.283 -0.7918  0.5962  0.9185
  916MOL0     H23593   7.077   8.468   5.915 -2.1100 -1.3877 -0.4831
  916MOL0     H23594   6.984   8.247   5.972  1.3412 -0.5221  0.4042
  916MOL0     H23595   6.819   8.033   6.301  1.2881 -0.3763 -1.1968
  916MOL0     H23596   6.911   8.150   6.409 -1.0755 -0.9041  1.8698
  916MOL0     H23597   6.740   8.326   6.336 -2.1127  1.1110  0.9085
  916MOL0     H23598   6.668   8.207   6.441  0.4450  0.9731  0.0179
  916MOL0     H23599   6.595   8.085   6.224 -2.7087 -0.0274 -1.9762
  916MOL0     H23600   6.645   8.224   6.137  0.2723 -0.4118 -0.5296
  916MOL0     H23601   6.497   8.337   6.347  0.0013 -0.0600  0.6171
  916MOL0     H23602   6.431   8.294   6.177  0.1725  1.1748  0.1774
  916MOL0     H23603   6.375   8.061   6.286  1.2194  0.0795 -0.7372
  916MOL0     H23604   6.410   8.145   6.442  2.7820  0.5345 -1.5545
  916MOL0     H23605   6.253   8.315   6.346  1.2069 -0.6169 -0.1500
  916MOL0     H23606   6.205   8.220   6.208  2.3124  1.2481 -0.1749
  916MOL0     H23607   6.189   8.116   6.498 -0.6911  1.3181  0.8299
  916MOL0     H23608   6.067   8.077   6.366  2.2747 -2.0769  0.4417
  916MOL0     H23609   5.975   8.232   6.534 -1.3993  1.9985 -1.5655
  916MOL0     H23610   6.098   8.353   6.510 -0.6718  1.2894 -1.3287
  916MOL0     H23611   5.783   8.220   6.390 -0.3580 -0.1923  1.0781
  916MOL0     H23612   5.641   8.446   6.078 -1.6891 -2.8621 -0.8395
  916MOL0     H23613   5.580   8.324   6.182 -1.1507  0.8929 -2.8060
  916MOL0     H23614   5.570   8.505   6.377 -1.4910 -0.8723 -0.3140
  916MOL0     H23615   5.650   8.614   6.262 -0.2889  0.6076 -0.9439
  916MOL0     H23616   5.380   8.462   6.241 -2.1049  1.3024 -0.8383
  916MOL0     H23617   5.435   8.541   6.108  0.1729 -0.1918 -0.6545
  916MOL0     H23618   5.376   8.671   6.373 -3.3870  0.1963  0.5776
  916MOL0     H23619   5.275   8.694   6.236  0.3987 -0.5175 -0.3076
  916MOL0     H23620   5.391   9.016   6.345 -0.3874 -1.3092 -0.3525
  916MOL0     H23621   5.260   9.186   6.246 -2.3745 -0.4517 -0.8063
  916MOL0     H23622   4.980   9.443   6.215 -3.6558 -0.2655 -1.0581
  916MOL0     H23623   4.855   9.622   6.141 -1.7484 -0.2897 -2.6107
  916MOL0     H23624   5.000   9.890   5.814  0.6823 -1.9457 -3.3139
  916MOL0     H23625   4.886   9.781   5.736 -0.6096  0.4962 -0.8706
  916MOL0     H23626   4.808   9.980   5.682  0.2021  0.7735 -0.1505
  916MOL0     H23627   4.697   9.946   5.808 -0.6513  1.5199 -1.6813
  916MOL0     H23628   4.929  10.083   5.924  3.1830  1.1346 -3.2627
  916MOL0     H23629   4.908  10.160   5.779  0.9137  0.5477  0.4186
  916MOL0     H23630   4.674  10.117   5.990 -1.4681 -1.2536 -1.9421
  916MOL0     H23631   4.657  10.192   5.842  0.9804 -1.1682 -0.3635
  916MOL0     H23632   4.818  10.372   5.881 -0.8216  0.3599  0.2312
  916MOL0     H23633   4.870  10.315   6.038 -0.0445  1.3523 -0.0940
  916MOL0     H23634   4.624  10.454   5.934  1.1993 -1.0230 -0.2290
  916MOL0     H23635   4.619  10.358   6.096  2.8891 -2.2089  2.1056
  916MOL0     H23636   4.807  10.591   6.008  1.1842  1.8858  2.8410
  916MOL0     H23637   4.815  10.528   6.162 -0.7155  2.2819  0.8295
  916MOL0     H23638   4.558  10.642   6.053 -0.9539 -2.0364  1.4682
  916MOL0     H23639   4.591  10.639   6.213 -1.1068 -0.5238  0.2376
  916MOL0     H23640   5.064   9.655   5.781 -2.2961  1.5428  0.6467
  916MOL0     H23641   5.208   9.464   5.842 -0.4740  0.0286 -1.3272
  916MOL0     H23642   5.214   8.970   5.874 -1.5657  1.3132  0.1090
  916MOL0     H23643   5.329   8.765   6.003 -0.2184  0.4523  0.8943
  916MOL0     H23644   7.025   8.324   6.395 -3.7679 -0.5245 -1.4348
  916MOL0     H23645   7.134   8.536   6.347 -3.2557 -1.1774  1.6004
  916MOL0     H23646   7.110   8.924   5.863  0.0628 -1.0832  0.1597
  916MOL0     H23647   7.201   9.177   5.865  0.4936 -0.9326 -1.2239
  916MOL0     H23648   7.559   9.260   6.047 -0.2540 -2.0080  0.8450
  916MOL0     H23649   7.481   9.278   6.203  0.5037  2.8995  0.9449
  916MOL0     H23650   7.404   9.515   6.143 -0.3209  0.0994 -0.6617
  916MOL0     H23651   7.485   9.490   5.988 -3.0699 -0.4307  0.1379
  916MOL0     H23652   7.691   9.463   6.047  0.0898 -0.4631 -0.7691
  916MOL0     H23653   7.648   9.439   6.219  1.7231  0.5313  0.0258
  916MOL0     H23654   7.735   9.674   6.099 -0.0689 -0.8310 -1.4110
  916MOL0     H23655   7.564   9.707   6.099  2.1692  3.9679  2.4884
  916MOL0     H23656   7.703   9.766   6.485  2.9593 -2.8312  0.6777
  916MOL0     H23657   7.372   9.079   6.249 -0.2540  1.4108 -0.0840
  916MOL0     H23658   7.379   8.889   6.360  3.3752  0.3437 -1.9053
  916MOL0     H23659   7.234   8.786   6.325  0.5831 -1.5323  1.0109
  916MOL0     H23660   7.392   8.771   6.244  1.7584  3.7741 -0.4328
  917MOL0     O23661   7.983   8.870   7.127  0.3087  0.2204 -0.3583
  917MOL0     C23662   8.002   8.862   7.248 -0.7426 -0.2493  0.0108
  917MOL0     O23663   8.062   8.962   7.330  0.1878  0.3528  0.6023
  917MOL0     C23664   8.116   9.081   7.293 -0.4568  0.3340 -0.1104
  917MOL0     C23665   8.249   9.078   7.254  0.4902 -0.1439  0.6273
  917MOL0     C23666   8.307   9.195   7.195  0.3828  0.1204  0.3115
  917MOL0     C23667   8.229   9.318   7.192 -0.3453  1.0568  0.5013
  917MOL0     O23668   8.270   9.442   7.162  0.0925 -0.3033 -0.0145
  917MOL0     C23669   8.395   9.453   7.087  0.3616  0.4789  0.0775
  917MOL0     C23670   8.396   9.602   7.050 -0.2289 -0.2682 -0.1263
  917MOL0     C23671   8.519   9.650   6.964  0.6313 -0.0037 -0.5478
  917MOL0     C23672   8.503   9.585   6.824 -0.0972 -0.5692  0.3565
  917MOL0     C23673   8.581   9.688   6.727  0.8671  0.1564  0.2083
  917MOL0     C23674   8.567   9.650   6.583  0.1898 -0.4318  0.6123
  917MOL0     C23675   8.663   9.539   6.529 -0.8137 -0.1638 -0.0888
  917MOL0     C23676   8.799   9.593   6.482 -0.4893  0.1121  0.3631
  917MOL0     N23677   8.787   9.678   6.368  0.5183 -0.0658  0.2284
  917MOL0     C23678   8.764   9.628   6.240 -0.1353  0.0015  1.0638
  917MOL0     C23679   8.780   9.731   6.154 -0.0716  0.6340  0.1486
  917MOL0     C23680   8.789   9.726   6.008  0.2848 -0.8206 -0.1384
  917MOL0     C23681   8.917   9.791   5.958 -0.3953  0.5676  0.4092
  917MOL0     C23682   8.963   9.735   5.817 -0.4528  0.0880  0.0136
  917MOL0     C23683   9.054   9.614   5.815  0.3084  0.5260 -0.9452
  917MOL0     O23684   9.066   9.550   5.687 -0.0546 -0.1566  0.3910
  917MOL0     C23685   9.138   9.613   5.587  0.3541 -0.5708 -0.0576
  917MOL0     C23686   9.112   9.562   5.457 -0.6735  0.1463 -0.4193
  917MOL0     C23687   9.163   9.631   5.340  0.2797  0.1798  0.1505
  917MOL0     C23688   9.225   9.751   5.354 -1.0221  0.2299 -0.4512
  917MOL0     C23689   9.276   9.827   5.243  0.5898  0.3184  0.8895
  917MOL0     O23690   9.371   9.924   5.265 -0.4943  0.2193  0.1667
  917MOL0     C23691   9.444   9.980   5.166  0.5115 -0.6118  0.0159
  917MOL0     C23692   9.577   9.993   5.198 -0.1727 -1.3286 -0.1843
  917MOL0     C23693   9.670  10.058   5.130  0.2420 -1.1275  0.4372
  917MOL0     C23694   9.626  10.100   5.007 -0.5543 -0.8757  1.6704
  917MOL0     O23695   9.720  10.159   4.926  0.0707 -0.5827 -0.5278
  917MOL0     C23696   9.742  10.100   4.799  0.4987  0.3305 -0.1162
  917MOL0     C23697   9.881  10.064   4.788 -0.5284  0.5815  0.4980
  917MOL0     C23698   9.928   9.997   4.649  0.2870  1.0209 -0.1693
  917MOL0     C23699  10.036   9.891   4.666 -0.5645  0.2169  0.7217
  917MOL0     C23700  10.085   9.832   4.529  1.0753 -0.2219  0.5609
  917MOL0     C23701  10.095   9.940   4.423  0.1625 -0.9536 -0.2106
  917MOL0     C23702  10.171   9.892   4.304  0.1215  0.4088 -0.0676
  917MOL0     C23703  10.083   9.810   4.207 -0.0318  0.7102 -1.1669
  917MOL0    Cl23704   9.957   9.920   4.125  0.3835 -0.3135  0.3752
  917MOL0     C23705   9.491  10.084   4.954 -0.3602  0.3560 -0.5289
  917MOL0     C23706   9.400  10.025   5.041  0.5288  0.2177  1.0036
  917MOL0     O23707   9.224   9.789   5.133 -0.4213 -0.6246  0.0344
  917MOL0     C23708   9.267   9.792   5.480 -0.7944 -0.8364  0.7882
  917MOL0     C23709   9.224   9.726   5.600 -0.1977 -0.1442  0.3291
  917MOL0     N23710   8.807   9.840   6.228 -0.2716  0.7989 -0.7654
  917MOL0     N23711   8.821   9.810   6.351  0.1355  0.0943 -0.0945
  917MOL0     C23712   8.090   9.300   7.218  0.3377  0.1767 -0.3643
  917MOL0     C23713   8.033   9.184   7.268 -0.2230  0.2296 -0.3999
  917MOL0     C23714   7.937   8.748   7.317 -0.1739  0.3586 -0.3676
  917MOL0     C23715   7.981   8.719   7.448 -0.3536  0.4512  0.3424
  917MOL0     C23716   7.943   8.598   7.515 -0.3725 -0.1052 -1.1511
  917MOL0     C23717   7.839   8.519   7.478 -0.4930  0.0820 -0.1271
  917MOL0     O23718   7.767   8.432   7.558 -0.0977  0.3646 -0.0227
  917MOL0     C23719   7.824   8.369   7.672 -0.5440  0.2474  0.4353
  917MOL0     C23720   7.745   8.262   7.723  0.2609  0.0833  0.2924
  917MOL0     C23721   7.598   8.309   7.746 -0.6791 -0.1319  0.0114
  917MOL0     C23722   7.511   8.189   7.772 -1.3731 -0.8247 -0.4633
  917MOL0     C23723   7.557   8.105   7.881 -0.5235 -0.5244  0.3723
  917MOL0     C23724   7.619   8.033   7.956  0.3739  0.3411  0.3057
  917MOL0     C23725   7.786   8.555   7.350  0.4059  0.8399  0.2677
  917MOL0     C23726   7.830   8.664   7.269 -1.0475  0.5006  0.3725
  917MOL0     C23727   7.747   8.677   7.140 -0.1693 -0.7222 -0.1546
  917MOL0     H23728   8.297   8.980   7.262 -0.1806 -0.7768 -1.9740
  917MOL0     H23729   8.408   9.184   7.155 -0.0909  1.2986 -1.3059
  917MOL0     H23730   8.481   9.422   7.146 -0.4159  1.9514  2.0855
  917MOL0     H23731   8.373   9.391   6.999 -2.4213  1.9768 -0.4082
  917MOL0     H23732   8.396   9.661   7.143 -0.4839 -1.3976  0.6101
  917MOL0     H23733   8.299   9.619   7.003  0.0143  2.1970  0.0915
  917MOL0     H23734   8.616   9.619   7.005  0.3691 -0.6696 -0.4124
  917MOL0     H23735   8.534   9.758   6.961  4.8094 -0.2276  3.0417
  917MOL0     H23736   8.549   9.486   6.812  0.7103 -0.0785 -0.8178
  917MOL0     H23737   8.397   9.579   6.797 -0.5103  1.5289  1.3432
  917MOL0     H23738   8.535   9.783   6.754 -0.6653 -0.8686  1.3334
  917MOL0     H23739   8.688   9.700   6.745  0.9318  1.9649 -1.1599
  917MOL0     H23740   8.468   9.618   6.551 -1.3621 -0.0575  4.5254
  917MOL0     H23741   8.590   9.740   6.525  0.6116 -0.9336 -0.0157
  917MOL0     H23742   8.623   9.499   6.436 -1.4371 -0.7774  0.4304
  917MOL0     H23743   8.682   9.461   6.603  0.6733 -2.6066 -2.8286
  917MOL0     H23744   8.824   9.648   6.573 -2.9722 -1.7174  2.3051
  917MOL0     H23745   8.879   9.519   6.471 -0.5795  0.2082 -1.1802
  917MOL0     H23746   8.745   9.527   6.206 -2.6321  1.0025 -0.8400
  917MOL0     H23747   8.801   9.622   5.977 -0.0155 -0.9451  0.1650
  917MOL0     H23748   8.701   9.782   5.974  0.6752  1.5493  2.3951
  917MOL0     H23749   8.890   9.897   5.956 -1.0330  0.4023  0.1039
  917MOL0     H23750   8.999   9.776   6.030  0.1703 -2.5344 -0.7108
  917MOL0     H23751   9.010   9.819   5.765 -2.9709  2.3030  1.0901
  917MOL0     H23752   8.877   9.707   5.755  0.7678 -4.0231 -0.0972
  917MOL0     H23753   9.010   9.548   5.890  0.0254  0.7388 -0.9229
  917MOL0     H23754   9.155   9.647   5.843 -0.1828  0.9822  0.3571
  917MOL0     H23755   9.053   9.471   5.452 -0.4305 -0.0388  0.0806
  917MOL0     H23756   9.144   9.582   5.245 -0.4176  0.8485 -0.0670
  917MOL0     H23757   9.610   9.948   5.291  2.6042 -1.2745 -1.0475
  917MOL0     H23758   9.773  10.077   5.159  0.7253 -1.6457 -0.8477
  917MOL0     H23759   9.675  10.015   4.781  1.2261  0.1809 -2.5303
  917MOL0     H23760   9.726  10.184   4.732 -1.5277  0.6854  0.7363
  917MOL0     H23761   9.943  10.153   4.800  2.5288 -1.0109 -1.9510
  917MOL0     H23762   9.903  10.002   4.875 -0.2252 -0.8542 -0.5417
  917MOL0     H23763   9.841   9.951   4.602  1.1340 -0.4937 -0.3210
  917MOL0     H23764   9.956  10.071   4.574  0.0328  0.1881 -1.1087
  917MOL0     H23765  10.002   9.814   4.736  3.0047 -0.2709  2.1053
  917MOL0     H23766  10.129   9.932   4.705 -0.4462 -0.9612  1.7399
  917MOL0     H23767  10.011   9.761   4.489 -0.9645 -0.5049  4.3952
  917MOL0     H23768  10.176   9.772   4.540  0.2850 -1.4551  0.6538
  917MOL0     H23769   9.996   9.967   4.384 -0.1792 -1.9062 -0.0267
  917MOL0     H23770  10.159  10.022   4.458  3.5951 -2.6829 -1.9118
  917MOL0     H23771  10.256   9.829   4.331  1.3113  2.7304  2.1072
  917MOL0     H23772  10.203   9.983   4.252  2.3638  1.4218  2.7528
  917MOL0     H23773  10.142   9.762   4.128  2.2003  2.4710 -0.6616
  917MOL0     H23774  10.036   9.724   4.256 -1.0725 -0.0510 -3.3470
  917MOL0     H23775   9.464  10.119   4.855 -0.8420  0.2316 -0.4451
  917MOL0     H23776   9.295  10.008   5.022  0.4078 -1.2269  2.7145
  917MOL0     H23777   9.325   9.884   5.487 -2.8556  0.6838 -0.6871
  917MOL0     H23778   9.254   9.772   5.693 -1.3153 -0.4561  0.8667
  917MOL0     H23779   8.027   9.388   7.211 -0.4066 -0.4352 -1.8388
  917MOL0     H23780   7.929   9.161   7.289 -1.0098  2.6586 -1.2063
  917MOL0     H23781   8.029   8.798   7.504 -1.4989  1.0143  0.5633
  917MOL0     H23782   7.993   8.586   7.611 -4.4388 -0.3906  1.1190
  917MOL0     H23783   7.822   8.449   7.747 -4.4633 -0.4302  1.2657
  917MOL0     H23784   7.924   8.336   7.641 -1.6785 -0.1762 -3.2754
  917MOL0     H23785   7.797   8.228   7.814  0.9150  3.8269  1.5208
  917MOL0     H23786   7.746   8.175   7.658  0.1779 -0.6555  1.2665
  917MOL0     H23787   7.559   8.345   7.650 -0.9315 -1.5868 -0.4695
  917MOL0     H23788   7.591   8.379   7.829 -4.8199 -1.9150  1.4539
  917MOL0     H23789   7.418   8.244   7.789  0.4073  3.1773 -2.3607
  917MOL0     H23790   7.507   8.123   7.684  1.6611 -0.9814 -0.6076
  917MOL0     H23791   7.663   7.974   8.035 -3.9786 -3.3657  0.3770
  917MOL0     H23792   7.698   8.503   7.315  1.3066 -0.4126 -0.2033
  917MOL0     H23793   7.808   8.696   7.051  1.2638 -0.4639  0.8333
  917MOL0     H23794   7.686   8.588   7.124 -2.1649  0.4111  0.8255
  917MOL0     H23795   7.677   8.760   7.151 -0.6665 -0.8053 -2.2297
  918MOL0     O23796   2.521   5.852   5.132  0.3309  0.1148  0.1311
  918MOL0     C23797   2.504   5.729   5.143 -0.4880 -0.2125  0.3754
  918MOL0     O23798   2.509   5.665   5.261  0.6395 -0.1454 -0.7969
  918MOL0     C23799   2.497   5.749   5.374 -0.7937  0.9233  0.4860
  918MOL0     C23800   2.381   5.782   5.436 -0.0105 -0.1383 -0.5313
  918MOL0     C23801   2.380   5.861   5.555 -0.5684  1.0134 -0.2129
  918MOL0     C23802   2.503   5.911   5.613  0.1218 -0.6966 -0.8368
  918MOL0     O23803   2.538   6.006   5.708  0.2413  0.4858 -0.0416
  918MOL0     C23804   2.422   6.079   5.746  0.7254 -0.1471  0.6377
  918MOL0     C23805   2.477   6.195   5.819  0.6581  0.2565 -0.7382
  918MOL0     C23806   2.398   6.208   5.957  0.4432 -1.4125 -0.4559
  918MOL0     C23807   2.420   6.356   6.010  0.9129  0.5227 -0.1474
  918MOL0     C23808   2.368   6.376   6.158 -0.8247 -1.1237  0.6444
  918MOL0     C23809   2.432   6.507   6.230  0.1339  0.3031  0.6412
  918MOL0     C23810   2.411   6.640   6.140 -0.0528  0.3396 -0.7660
  918MOL0     C23811   2.269   6.664   6.086  0.7763 -0.2352 -0.1564
  918MOL0     N23812   2.239   6.795   6.026 -0.2804  0.5199 -0.4826
  918MOL0     C23813   2.246   6.919   6.086 -0.3922 -0.7177  0.4336
  918MOL0     C23814   2.213   7.000   5.985 -0.7378  0.1885 -0.3102
  918MOL0     C23815   2.206   7.147   5.966  0.0124 -0.3985 -0.0805
  918MOL0     C23816   2.216   7.209   6.107  0.1867  0.1331  0.5903
  918MOL0     C23817   2.215   7.361   6.103  0.8883 -0.8726  0.4616
  918MOL0     C23818   2.354   7.422   6.081 -0.2794  0.5905 -0.2847
  918MOL0     O23819   2.460   7.381   6.167 -0.5642 -0.0853 -0.0458
  918MOL0     C23820   2.494   7.467   6.270 -0.6166  1.3162 -0.3025
  918MOL0     C23821   2.404   7.535   6.347 -0.7644  0.1404 -0.3666
  918MOL0     C23822   2.448   7.611   6.459 -0.1623  0.2746  0.5272
  918MOL0     C23823   2.580   7.616   6.501  0.6577 -0.0945 -0.3039
  918MOL0     C23824   2.619   7.710   6.607 -0.4446 -0.0494 -0.3528
  918MOL0     O23825   2.520   7.738   6.705 -0.1557 -0.5329  0.3853
  918MOL0     C23826   2.554   7.815   6.817 -0.6468 -0.0984 -0.1540
  918MOL0     C23827   2.606   7.945   6.798  0.6909 -0.1942 -0.2122
  918MOL0     C23828   2.632   8.021   6.910 -0.0215 -1.6913  0.4973
  918MOL0     C23829   2.624   7.965   7.042  0.5356  0.0384  0.1308
  918MOL0     O23830   2.660   8.017   7.161  0.0286 -0.0278  0.5872
  918MOL0     C23831   2.686   8.159   7.157 -0.0768  0.1428  0.5243
  918MOL0     C23832   2.682   8.230   7.293 -0.0772 -0.4167 -0.3784
  918MOL0     C23833   2.816   8.216   7.364 -0.4527 -0.2645 -0.7886
  918MOL0     C23834   2.825   8.306   7.478  0.1430  0.6114  1.4898
  918MOL0     C23835   2.953   8.302   7.544 -0.1357 -0.2481  0.1190
  918MOL0     C23836   2.972   8.421   7.641 -0.0621 -0.5363  0.3515
  918MOL0     C23837   3.067   8.382   7.761  1.0406  0.7360  0.7165
  918MOL0     C23838   3.029   8.452   7.889 -0.3875 -0.9136  0.0687
  918MOL0    Cl23839   3.018   8.632   7.870 -0.2833 -0.2274 -0.1630
  918MOL0     C23840   2.574   7.838   7.061 -0.7996  1.2222  0.0706
  918MOL0     C23841   2.539   7.760   6.944  1.1887  0.4370 -0.5582
  918MOL0     O23842   2.734   7.739   6.613 -0.0824  0.3531 -0.6001
  918MOL0     C23843   2.671   7.529   6.436 -0.3782 -0.3152  0.0739
  918MOL0     C23844   2.625   7.454   6.316  0.4022  0.7389 -0.7374
  918MOL0     N23845   2.170   6.928   5.878  0.3609  0.3211  0.2026
  918MOL0     N23846   2.188   6.806   5.905 -0.0021  0.1636  0.5854
  918MOL0     C23847   2.623   5.863   5.552  0.1864  0.3629  0.0520
  918MOL0     C23848   2.612   5.801   5.434 -0.1647 -0.4389  0.2697
  918MOL0     C23849   2.484   5.644   5.020 -1.3937  1.0218 -1.9907
  918MOL0     C23850   2.421   5.513   5.035 -0.3105  0.1446 -0.7041
  918MOL0     C23851   2.403   5.433   4.916  0.8576 -0.0696  0.3167
  918MOL0     C23852   2.430   5.488   4.790 -0.0447  0.7727  0.0345
  918MOL0     O23853   2.420   5.400   4.681  0.8115  0.7901 -0.4375
  918MOL0     C23854   2.308   5.427   4.597 -0.5800 -0.2820 -0.3476
  918MOL0     C23855   2.178   5.389   4.657  0.0432  0.2156 -0.7648
  918MOL0     C23856   2.054   5.446   4.579  0.1102  0.3091  0.7737
  918MOL0     C23857   2.001   5.334   4.489  0.3396 -0.9373  0.1344
  918MOL0     C23858   2.086   5.300   4.367 -0.4957 -0.5428  0.0406
  918MOL0     C23859   2.167   5.249   4.284  0.2052  1.1115 -0.2550
  918MOL0     C23860   2.483   5.618   4.771  0.2946  0.0473  0.1188
  918MOL0     C23861   2.510   5.688   4.890  0.4246 -0.6091  0.7915
  918MOL0     C23862   2.575   5.822   4.857 -0.4284 -0.5094  0.3218
  918MOL0     H23863   2.285   5.751   5.396  0.5808  0.3381 -2.3775
  918MOL0     H23864   2.288   5.908   5.588 -1.6889 -0.3204 -1.3087
  918MOL0     H23865   2.371   6.112   5.655  0.5731 -2.5478 -0.2054
  918MOL0     H23866   2.362   6.009   5.805  2.2063 -1.9839  0.0539
  918MOL0     H23867   2.456   6.280   5.753 -1.5729  0.9561  0.7452
  918MOL0     H23868   2.582   6.177   5.844  0.0806 -2.6527  0.0008
  918MOL0     H23869   2.446   6.146   6.034 -0.3715 -0.4119  0.8924
  918MOL0     H23870   2.295   6.184   5.932  1.1981 -3.1452 -2.2390
  918MOL0     H23871   2.527   6.376   6.018  1.5071 -2.5721  1.1467
  918MOL0     H23872   2.379   6.425   5.936 -0.6646 -1.0629 -0.8514
  918MOL0     H23873   2.263   6.405   6.156 -0.9674 -1.0143 -4.8155
  918MOL0     H23874   2.375   6.283   6.216 -1.3732 -0.1416  2.3778
  918MOL0     H23875   2.379   6.529   6.323 -0.5136  0.9561  0.1275
  918MOL0     H23876   2.539   6.493   6.249  1.0013  2.0620 -2.3447
  918MOL0     H23877   2.476   6.634   6.052 -0.6973  2.0481 -1.3797
  918MOL0     H23878   2.430   6.719   6.213 -2.0807  2.3234 -2.2641
  918MOL0     H23879   2.244   6.591   6.008 -2.9862 -0.6190  1.1872
  918MOL0     H23880   2.197   6.647   6.166 -0.1253  0.4318 -0.7966
  918MOL0     H23881   2.295   6.938   6.181  1.3194  0.4253 -0.6204
  918MOL0     H23882   2.289   7.182   5.903 -0.2274  5.6212  2.2357
  918MOL0     H23883   2.110   7.184   5.929  0.8816  0.5995 -1.4502
  918MOL0     H23884   2.125   7.180   6.160  0.3589 -1.3574  0.1325
  918MOL0     H23885   2.306   7.173   6.159  0.0024  0.2599  0.9958
  918MOL0     H23886   2.180   7.389   6.202  0.9370  0.5641  0.0854
  918MOL0     H23887   2.146   7.406   6.031  0.7126 -1.2460  0.3950
  918MOL0     H23888   2.343   7.531   6.079 -1.4434  0.5357  1.3041
  918MOL0     H23889   2.385   7.393   5.980  0.4755 -0.2538  0.1788
  918MOL0     H23890   2.298   7.527   6.326 -0.7653 -4.1127  0.4133
  918MOL0     H23891   2.371   7.668   6.509 -1.4897 -1.7636  0.9374
  918MOL0     H23892   2.588   8.001   6.707 -2.0946  2.7011  1.8798
  918MOL0     H23893   2.659   8.124   6.889 -3.0649 -1.2534 -2.1238
  918MOL0     H23894   2.787   8.171   7.116 -0.6831  2.9993 -0.3898
  918MOL0     H23895   2.610   8.208   7.096  0.9256  1.2564  0.1246
  918MOL0     H23896   2.648   8.334   7.292  1.6750  0.5205  4.6941
  918MOL0     H23897   2.606   8.182   7.357  1.1317  2.7201  3.8331
  918MOL0     H23898   2.814   8.110   7.392 -4.6859 -0.3640 -0.8801
  918MOL0     H23899   2.899   8.240   7.297 -0.3097  0.8975 -0.2253
  918MOL0     H23900   2.761   8.267   7.558  1.3907 -2.0083  1.3181
  918MOL0     H23901   2.802   8.406   7.441 -0.1118 -0.5683 -1.9059
  918MOL0     H23902   3.020   8.319   7.459 -1.0511 -0.5711 -0.6917
  918MOL0     H23903   2.959   8.203   7.590 -0.4992 -0.1607  0.3567
  918MOL0     H23904   3.016   8.509   7.593  0.9475 -1.4194 -0.3829
  918MOL0     H23905   2.870   8.448   7.672 -1.9782 -2.2911 -3.6949
  918MOL0     H23906   3.170   8.416   7.745  0.1458  3.4376  0.1632
  918MOL0     H23907   3.073   8.276   7.783 -3.1129  0.6095  2.1694
  918MOL0     H23908   2.937   8.409   7.930 -0.1411 -0.5381  1.0378
  918MOL0     H23909   3.117   8.436   7.952  2.1814  0.6444 -2.8730
  918MOL0     H23910   2.577   7.788   7.157  1.9640  0.6566 -0.2315
  918MOL0     H23911   2.503   7.659   6.962  1.3895  0.1268 -1.8081
  918MOL0     H23912   2.772   7.534   6.474 -0.5143  0.4406  0.3377
  918MOL0     H23913   2.701   7.394   6.267 -0.3779  0.0210 -1.0924
  918MOL0     H23914   2.717   5.894   5.594 -0.7568  1.4325  1.4718
  918MOL0     H23915   2.701   5.772   5.379 -0.4694 -0.6327 -0.1294
  918MOL0     H23916   2.379   5.485   5.130  1.7591  1.0304  0.5430
  918MOL0     H23917   2.370   5.330   4.917  1.8174 -0.3824  0.0723
  918MOL0     H23918   2.327   5.372   4.505 -0.5030  0.4391 -0.7753
  918MOL0     H23919   2.308   5.534   4.571 -2.7319 -0.5576 -1.7469
  918MOL0     H23920   2.159   5.429   4.757  0.0401 -0.0504 -0.6575
  918MOL0     H23921   2.174   5.280   4.659 -0.4338  0.1182  3.5935
  918MOL0     H23922   2.090   5.527   4.515  2.0210 -0.8729  0.2374
  918MOL0     H23923   1.977   5.473   4.650 -1.5870 -3.5290  0.6240
  918MOL0     H23924   1.985   5.248   4.555 -1.0925 -0.3318  0.6120
  918MOL0     H23925   1.902   5.369   4.457 -0.3927 -2.3844  0.7227
  918MOL0     H23926   2.231   5.180   4.233  0.0125 -0.4359  1.5040
  918MOL0     H23927   2.502   5.651   4.669  4.0233  0.0283  0.6424
  918MOL0     H23928   2.527   5.911   4.900 -1.1022 -0.3453 -0.7198
  918MOL0     H23929   2.683   5.825   4.876 -0.5017 -0.6843  0.7597
  918MOL0     H23930   2.567   5.840   4.749 -1.8992  0.8269  0.6075
  919MOL0     O23931   7.189   8.232   9.228 -1.3791 -0.7970 -0.5434
  919MOL0     C23932   7.068   8.201   9.233 -0.0298  0.1582 -0.2630
  919MOL0     O23933   6.995   8.184   9.122  0.2944  0.1805  0.6146
  919MOL0     C23934   7.067   8.185   9.005  0.5969 -0.7105 -1.5315
  919MOL0     C23935   7.115   8.067   8.953 -0.4688 -0.7858 -0.1064
  919MOL0     C23936   7.197   8.058   8.846 -0.1230 -0.3310  0.4496
  919MOL0     C23937   7.253   8.176   8.788  0.2311  0.0806  0.9146
  919MOL0     O23938   7.345   8.177   8.695 -0.2854  0.2117  0.2610
  919MOL0     C23939   7.480   8.160   8.744  1.3362  0.6985 -0.9696
  919MOL0     C23940   7.599   8.198   8.659  0.6880 -0.0449 -0.9823
  919MOL0     C23941   7.584   8.335   8.585  0.4507  1.5894 -0.2573
  919MOL0     C23942   7.510   8.309   8.452  0.6506 -0.1927 -0.7037
  919MOL0     C23943   7.483   8.429   8.358  0.1410 -0.1851 -0.6687
  919MOL0     C23944   7.442   8.382   8.223  0.9600  0.4919  0.5180
  919MOL0     C23945   7.297   8.344   8.208 -0.1614 -0.8705  0.6476
  919MOL0     C23946   7.274   8.307   8.063 -0.6860  1.2288  0.9145
  919MOL0     N23947   7.139   8.270   8.010 -0.1404 -0.2029 -1.0881
  919MOL0     C23948   7.105   8.161   7.945  0.3175  0.7332  0.2854
  919MOL0     C23949   6.972   8.173   7.934 -1.0577  0.0312  0.1048
  919MOL0     C23950   6.880   8.088   7.860  0.0973 -0.5307 -0.4947
  919MOL0     C23951   6.822   8.169   7.742 -0.2916  0.1268 -0.5542
  919MOL0     C23952   6.670   8.182   7.765 -0.4871 -0.5533  0.2939
  919MOL0     C23953   6.602   8.263   7.662  0.3844  0.4152 -0.0605
  919MOL0     O23954   6.466   8.303   7.695 -0.5640  0.4202 -0.1508
  919MOL0     C23955   6.456   8.428   7.748 -0.1080 -0.3237  1.0383
  919MOL0     C23956   6.353   8.494   7.691 -0.3011 -0.0434  0.2668
  919MOL0     C23957   6.324   8.625   7.736  0.5853 -0.1562  0.5453
  919MOL0     C23958   6.408   8.697   7.821 -0.4800 -0.4574  0.6124
  919MOL0     C23959   6.376   8.835   7.871  1.0188  0.0838 -0.2497
  919MOL0     O23960   6.475   8.911   7.918  0.0130 -0.8028 -0.7249
  919MOL0     C23961   6.454   9.020   7.996  0.2348 -0.3035  0.5215
  919MOL0     C23962   6.386   9.134   7.946  0.3727  0.5694  0.2933
  919MOL0     C23963   6.372   9.251   8.012 -1.0021 -0.5549 -0.1666
  919MOL0     C23964   6.421   9.265   8.147 -0.6852 -0.7618  0.1450
  919MOL0     O23965   6.395   9.381   8.218 -0.3389  0.7609  0.0541
  919MOL0     C23966   6.268   9.454   8.190 -0.2626 -1.3244 -0.2383
  919MOL0     C23967   6.263   9.564   8.306 -0.1501  0.4601  0.5308
  919MOL0     C23968   6.195   9.521   8.438 -0.0938 -0.5217  1.2739
  919MOL0     C23969   6.042   9.521   8.437  0.0018  0.6902  0.9112
  919MOL0     C23970   5.977   9.458   8.554 -0.5904  0.7822 -0.1608
  919MOL0     C23971   5.998   9.539   8.686 -1.0744 -0.6906  0.0877
  919MOL0     C23972   5.939   9.680   8.698  0.1462 -1.0285 -0.8035
  919MOL0     C23973   5.788   9.685   8.696  0.6191 -0.0670  0.2008
  919MOL0    Cl23974   5.730   9.855   8.719 -0.1273  0.4938 -0.3488
  919MOL0     C23975   6.502   9.166   8.194 -0.7020  1.0466 -0.5644
  919MOL0     C23976   6.517   9.041   8.121  0.5567  0.3379 -0.6424
  919MOL0     O23977   6.259   8.876   7.848 -1.1615  0.2759  0.4874
  919MOL0     C23978   6.521   8.626   7.866  0.1780  0.3098 -0.2732
  919MOL0     C23979   6.549   8.501   7.829  0.0038 -0.1156 -0.0163
  919MOL0     N23980   6.921   8.298   7.990 -0.2029 -0.4601  0.3277
  919MOL0     N23981   7.037   8.353   8.025 -0.6760  1.2505 -0.1669
  919MOL0     C23982   7.205   8.299   8.842 -0.6305 -0.3316 -0.9505
  919MOL0     C23983   7.114   8.303   8.948  0.1191  0.8500 -0.8525
  919MOL0     C23984   6.994   8.212   9.367 -0.9506  1.2074  0.0187
  919MOL0     C23985   6.853   8.211   9.374  0.4433 -0.9451  0.5633
  919MOL0     C23986   6.776   8.181   9.485  0.2682 -0.5439  0.7720
  919MOL0     C23987   6.838   8.169   9.605  0.2081 -0.2859 -0.8309
  919MOL0     O23988   6.784   8.149   9.726 -0.2869  0.6972  0.3714
  919MOL0     C23989   6.729   8.260   9.788 -0.0163  0.1184 -0.0654
  919MOL0     C23990   6.612   8.218   9.882  0.7493  0.3566  0.5917
  919MOL0     C23991   6.478   8.222   9.816 -0.0758 -0.7154 -0.0235
  919MOL0     C23992   6.362   8.162   9.903 -0.6955  0.2567 -0.0048
  919MOL0     C23993   6.334   8.231  10.030 -0.2385 -0.7073 -0.5593
  919MOL0     C23994   6.322   8.285  10.142  0.3974 -0.3145 -0.7724
  919MOL0     C23995   6.976   8.171   9.618  0.1908  0.1001 -1.2678
  919MOL0     C23996   7.054   8.186   9.497  0.8179 -0.4339  0.3744
  919MOL0     C23997   7.208   8.176   9.516 -0.1810 -0.4600  0.2979
  919MOL0     H23998   7.078   7.973   8.995 -1.9667  0.9497  2.7795
  919MOL0     H23999   7.232   7.964   8.804 -2.1493  0.0553 -2.4734
  919MOL0     H24000   7.492   8.208   8.841 -0.8977 -2.1151  0.8757
  919MOL0     H24001   7.487   8.054   8.771 -1.7852 -0.1188 -2.7745
  919MOL0     H24002   7.638   8.126   8.586 -0.0433 -1.0804 -0.3827
  919MOL0     H24003   7.683   8.204   8.729 -0.8308 -1.6406  1.1275
  919MOL0     H24004   7.687   8.359   8.555  1.4727  0.7253  2.3602
  919MOL0     H24005   7.551   8.419   8.647  2.0170  2.1017 -0.0885
  919MOL0     H24006   7.561   8.229   8.397 -0.9336 -0.3068 -2.0928
  919MOL0     H24007   7.413   8.265   8.478  0.9900 -0.6514 -0.1857
  919MOL0     H24008   7.409   8.493   8.407 -0.4858 -0.7141 -0.9073
  919MOL0     H24009   7.576   8.486   8.349  0.8288 -1.1576  0.1473
  919MOL0     H24010   7.466   8.453   8.143 -1.1536 -0.7160 -1.3108
  919MOL0     H24011   7.514   8.302   8.199  0.2966 -0.3568  1.2729
  919MOL0     H24012   7.234   8.431   8.231 -1.3444 -1.8549  1.2766
  919MOL0     H24013   7.279   8.266   8.282 -1.5677 -0.1803  1.0810
  919MOL0     H24014   7.320   8.383   7.999  0.1947 -1.0065 -1.2787
  919MOL0     H24015   7.325   8.218   8.025 -2.1408  1.2497 -1.2976
  919MOL0     H24016   7.160   8.076   7.906 -0.7777  0.3974 -0.5807
  919MOL0     H24017   6.942   8.008   7.817  1.0111  0.0667 -0.3097
  919MOL0     H24018   6.805   8.038   7.922  1.4027 -0.9348  0.8304
  919MOL0     H24019   6.876   8.261   7.716  3.9703 -1.5413  1.3677
  919MOL0     H24020   6.833   8.106   7.653  2.6924  0.4641 -0.5258
  919MOL0     H24021   6.649   8.220   7.865  0.6250  0.6416  0.1064
  919MOL0     H24022   6.621   8.085   7.771 -1.0729 -0.2423  0.5888
  919MOL0     H24023   6.578   8.190   7.584  0.5578  0.4254 -0.1222
  919MOL0     H24024   6.650   8.349   7.616 -0.1705  2.1214  2.3801
  919MOL0     H24025   6.280   8.446   7.626  0.7812 -0.5664 -0.5925
  919MOL0     H24026   6.236   8.674   7.694 -0.8837 -1.5200  1.8698
  919MOL0     H24027   6.354   9.128   7.843  1.7458  0.1770 -0.1222
  919MOL0     H24028   6.314   9.329   7.964 -1.3107 -1.4241 -1.2344
  919MOL0     H24029   6.264   9.497   8.089 -0.1721 -1.8638 -0.4714
  919MOL0     H24030   6.184   9.386   8.206 -0.4947 -0.8663  0.5656
  919MOL0     H24031   6.367   9.593   8.318 -0.2338  0.6688  0.7586
  919MOL0     H24032   6.205   9.652   8.276  2.5590  1.5180 -2.0313
  919MOL0     H24033   6.230   9.422   8.470  0.1378 -0.2423  1.9035
  919MOL0     H24034   6.233   9.591   8.512 -1.9183  2.3152 -0.2822
  919MOL0     H24035   6.006   9.463   8.352  3.4024  2.2177 -1.8001
  919MOL0     H24036   5.997   9.620   8.428 -3.3827 -0.7270  0.7052
  919MOL0     H24037   6.015   9.357   8.571 -2.1227  0.1915 -0.0376
  919MOL0     H24038   5.868   9.457   8.540 -0.5637  2.9565 -0.7940
  919MOL0     H24039   5.953   9.489   8.772 -0.0050 -0.0521  1.0416
  919MOL0     H24040   6.103   9.558   8.708 -1.4390  0.0580  1.2683
  919MOL0     H24041   5.977   9.749   8.622  3.0695 -0.9806  0.5597
  919MOL0     H24042   5.970   9.721   8.794 -2.2607 -0.7204 -0.0829
  919MOL0     H24043   5.740   9.646   8.605 -2.0090 -0.1941  1.5424
  919MOL0     H24044   5.747   9.622   8.775  1.3008  0.8722  1.3304
  919MOL0     H24045   6.557   9.170   8.288  0.9479 -0.6156 -1.3915
  919MOL0     H24046   6.583   8.976   8.178  1.8108  4.2753  2.9328
  919MOL0     H24047   6.586   8.668   7.942  0.7503 -3.1496  1.3591
  919MOL0     H24048   6.616   8.434   7.882 -1.0307 -0.8865  0.3514
  919MOL0     H24049   7.246   8.396   8.817  0.5427  0.0831  2.0922
  919MOL0     H24050   7.074   8.398   8.981 -1.6788 -0.0125 -0.3825
  919MOL0     H24051   6.787   8.223   9.289 -0.9364  1.7249  1.8857
  919MOL0     H24052   6.670   8.166   9.466  0.1677  1.6763 -0.8152
  919MOL0     H24053   6.693   8.335   9.717  0.1164  1.7615  1.5090
  919MOL0     H24054   6.805   8.319   9.841  1.7713 -1.4792 -0.7148
  919MOL0     H24055   6.592   8.275   9.973 -3.6510  2.0154 -1.0968
  919MOL0     H24056   6.622   8.112   9.903  0.8176  0.5005  1.3036
  919MOL0     H24057   6.479   8.160   9.726  0.4128  1.4157 -1.5337
  919MOL0     H24058   6.458   8.324   9.783 -1.9078 -1.9158 -3.0390
  919MOL0     H24059   6.263   8.172   9.856 -0.0588 -0.5357 -1.5906
  919MOL0     H24060   6.387   8.063   9.943  0.4984  0.7692  0.5667
  919MOL0     H24061   6.322   8.350  10.227 -2.3725 -1.3008  0.0891
  919MOL0     H24062   7.020   8.147   9.714  1.4908  0.6569 -1.7036
  919MOL0     H24063   7.255   8.269   9.481  0.1421  0.7254  3.5157
  919MOL0     H24064   7.237   8.172   9.622 -2.3204  2.0550  1.0829
  919MOL0     H24065   7.255   8.096   9.459  2.1366  0.9196  0.1391
  920MOL0     O24066   4.654   9.389   4.607 -0.4577 -1.2235 -0.6916
  920MOL0     C24067   4.582   9.349   4.517 -0.1825  0.3078 -0.4193
  920MOL0     O24068   4.607   9.243   4.440 -0.4265  0.2761 -0.1638
  920MOL0     C24069   4.709   9.148   4.473 -0.1321  0.5779  1.0571
  920MOL0     C24070   4.775   9.129   4.601  0.9344 -0.1437  0.0269
  920MOL0     C24071   4.866   9.029   4.612  0.1526 -0.3025  0.2573
  920MOL0     C24072   4.900   8.942   4.509  0.3765  0.6805 -0.0138
  920MOL0     O24073   4.992   8.843   4.525 -0.5426  0.1454 -0.3778
  920MOL0     C24074   5.106   8.840   4.438  0.0825  2.3062 -0.5014
  920MOL0     C24075   5.242   8.792   4.511  0.0394 -0.0452  0.1734
  920MOL0     C24076   5.274   8.884   4.623  0.7428  0.3039  0.6012
  920MOL0     C24077   5.392   8.835   4.710  0.1717  0.5343  1.0287
  920MOL0     C24078   5.419   8.912   4.835  1.5226  0.0841  0.0237
  920MOL0     C24079   5.410   9.060   4.841  0.1849  0.1664  0.0728
  920MOL0     C24080   5.508   9.131   4.751  0.3058 -0.0658  0.9394
  920MOL0     C24081   5.518   9.274   4.783 -0.6212 -0.7452  0.0488
  920MOL0     N24082   5.544   9.316   4.917 -0.0988 -0.4378  0.1464
  920MOL0     C24083   5.460   9.392   4.999  0.6341  0.9229  0.4181
  920MOL0     C24084   5.538   9.430   5.106 -0.5361  0.5563 -0.0362
  920MOL0     C24085   5.494   9.502   5.225  0.0180  0.6490  0.3999
  920MOL0     C24086   5.583   9.611   5.270 -0.1769 -0.3604  0.0641
  920MOL0     C24087   5.704   9.556   5.363  0.8281 -1.4178  0.3532
  920MOL0     C24088   5.742   9.651   5.474 -0.1805  0.7172  0.5910
  920MOL0     O24089   5.788   9.768   5.413 -0.5039 -0.0966 -0.1871
  920MOL0     C24090   5.903   9.821   5.469  0.1267  0.3357  0.0250
  920MOL0     C24091   6.028   9.830   5.404  0.3472  0.6439 -0.7517
  920MOL0     C24092   6.134   9.892   5.469 -0.4157  0.9636 -0.5388
  920MOL0     C24093   6.125   9.956   5.592  0.0613 -0.4523 -0.2608
  920MOL0     C24094   6.238  10.014   5.667  0.8161  0.6910 -0.8502
  920MOL0     O24095   6.208  10.071   5.790  0.3106  0.1284 -0.0739
  920MOL0     C24096   6.254  10.197   5.798  0.8300 -0.1083  0.0017
  920MOL0     C24097   6.272  10.285   5.688 -0.4113  0.0750 -0.4698
  920MOL0     C24098   6.304  10.419   5.709  0.5523 -0.4623  0.3115
  920MOL0     C24099   6.306  10.478   5.837  0.2392 -0.1981 -0.6309
  920MOL0     O24100   6.339  10.609   5.854 -0.0457  0.5916  0.3331
  920MOL0     C24101   6.312  10.673   5.980  0.7983 -0.5828  0.2570
  920MOL0     C24102   6.163  10.696   5.993 -1.0087  0.7681 -0.3088
  920MOL0     C24103   6.136  10.770   6.125 -0.1609 -0.2011  0.8151
  920MOL0     C24104   6.046  10.889   6.099 -1.0762 -0.7489 -0.3473
  920MOL0     C24105   6.016  10.957   6.230  0.4666  0.6747  0.0280
  920MOL0     C24106   5.885  11.032   6.233 -0.2445  0.9479  0.9969
  920MOL0     C24107   5.851  11.141   6.338  0.3199 -0.3225 -0.0714
  920MOL0     C24108   5.832  11.090   6.483 -0.2388  0.2751 -0.4683
  920MOL0    Cl24109   5.731  11.192   6.592  0.3644  0.4229 -0.0058
  920MOL0     C24110   6.318  10.388   5.949 -0.3074  1.1006 -0.4143
  920MOL0     C24111   6.288  10.250   5.926  0.5555  0.1759 -0.0255
  920MOL0     O24112   6.344  10.012   5.611  0.2716  0.5043 -0.1991
  920MOL0     C24113   5.998   9.954   5.649  0.4369  0.2494 -0.5289
  920MOL0     C24114   5.889   9.889   5.587  0.9974 -0.2503 -0.6865
  920MOL0     N24115   5.666   9.368   5.091  0.4372 -0.2594  0.5269
  920MOL0     N24116   5.660   9.299   4.979  0.9507 -0.9570 -0.3548
  920MOL0     C24117   4.851   8.964   4.384  0.1637  0.5968  0.3969
  920MOL0     C24118   4.753   9.065   4.364  0.0314  0.0721  0.4666
  920MOL0     C24119   4.438   9.413   4.504 -0.3477 -0.1919 -0.4756
  920MOL0     C24120   4.373   9.453   4.627 -0.8866  0.2469  0.2331
  920MOL0     C24121   4.239   9.496   4.619  0.5497 -0.2430  0.3561
  920MOL0     C24122   4.169   9.509   4.500  1.0648  0.7096  0.3158
  920MOL0     O24123   4.030   9.538   4.486 -0.9846 -0.5873  0.0730
  920MOL0     C24124   3.951   9.604   4.593  0.1505 -0.2047  0.5913
  920MOL0     C24125   3.849   9.506   4.654  0.1381 -0.3323  0.2114
  920MOL0     C24126   3.776   9.571   4.775  0.9442  0.0029 -0.3953
  920MOL0     C24127   3.626   9.598   4.751 -0.1633  0.9547 -0.1187
  920MOL0     C24128   3.617   9.721   4.674  0.7690  0.2339 -0.3774
  920MOL0     C24129   3.599   9.821   4.609 -0.7023 -0.8385  1.0369
  920MOL0     C24130   4.240   9.471   4.376  0.6483  1.0042 -0.9148
  920MOL0     C24131   4.376   9.429   4.380  0.8751  0.3769  1.0548
  920MOL0     C24132   4.437   9.377   4.257 -0.0577  0.2257 -0.1937
  920MOL0     H24133   4.750   9.197   4.682  3.3389  2.2709 -1.0744
  920MOL0     H24134   4.903   9.015   4.713  0.3511  4.4066  1.0431
  920MOL0     H24135   5.088   8.758   4.368 -0.0811 -0.2369  2.3369
  920MOL0     H24136   5.108   8.937   4.388 -0.9073  2.6271  0.0369
  920MOL0     H24137   5.326   8.786   4.441 -1.0576  0.6574 -1.2561
  920MOL0     H24138   5.227   8.696   4.561  2.2801 -0.3243  0.4250
  920MOL0     H24139   5.187   8.887   4.690  1.6742 -2.6501  2.1371
  920MOL0     H24140   5.283   8.989   4.593  2.2143  0.2035  0.6312
  920MOL0     H24141   5.377   8.727   4.723 -2.2527  0.6002 -0.5611
  920MOL0     H24142   5.485   8.843   4.652 -0.1555  2.4938  0.7186
  920MOL0     H24143   5.339   8.879   4.903 -0.8921  1.4082 -2.0108
  920MOL0     H24144   5.510   8.883   4.890  0.4029 -1.3173  1.2421
  920MOL0     H24145   5.306   9.091   4.829 -0.0332  0.0885  1.4998
  920MOL0     H24146   5.422   9.088   4.946  1.6348  0.0343 -0.0372
  920MOL0     H24147   5.496   9.117   4.644  2.0168  0.9794  0.5710
  920MOL0     H24148   5.603   9.079   4.766  0.3862  0.6237  3.2182
  920MOL0     H24149   5.604   9.319   4.731 -0.9850 -0.5082 -0.3580
  920MOL0     H24150   5.433   9.331   4.743  1.2388  1.7026 -0.6782
  920MOL0     H24151   5.358   9.423   4.984  1.0794  3.0921  1.5141
  920MOL0     H24152   5.395   9.542   5.198 -0.1088  1.0913  1.4487
  920MOL0     H24153   5.493   9.430   5.307 -0.7034  1.7452  1.3840
  920MOL0     H24154   5.622   9.665   5.183 -1.3252 -2.0718 -1.5852
  920MOL0     H24155   5.528   9.679   5.335  2.4205 -1.2977  3.6045
  920MOL0     H24156   5.789   9.537   5.297  0.0072 -0.1289 -1.1681
  920MOL0     H24157   5.674   9.461   5.407  0.5033 -1.6981 -0.4533
  920MOL0     H24158   5.821   9.599   5.529 -0.8426 -0.1799  0.7285
  920MOL0     H24159   5.657   9.669   5.540 -1.9015 -2.9074 -0.3637
  920MOL0     H24160   6.038   9.775   5.311  1.4846  0.7036 -0.6733
  920MOL0     H24161   6.231   9.903   5.422  0.0420 -0.2185  0.1059
  920MOL0     H24162   6.265  10.252   5.585  1.0029 -0.8366 -0.2922
  920MOL0     H24163   6.325  10.483   5.624  0.4868 -2.5556 -1.3658
  920MOL0     H24164   6.359  10.639   6.073  2.6215 -2.6830 -1.3160
  920MOL0     H24165   6.350  10.774   5.962  1.3335 -0.9017 -0.4330
  920MOL0     H24166   6.140  10.764   5.911 -3.4619  0.6520  0.2054
  920MOL0     H24167   6.103  10.605   5.982 -0.6447  0.5427 -0.4549
  920MOL0     H24168   6.086  10.700   6.192 -3.1761  1.1904  0.1947
  920MOL0     H24169   6.226  10.807   6.176  1.4967  1.1717 -2.7476
  920MOL0     H24170   5.952  10.853   6.055 -1.7046  1.5012 -0.9928
  920MOL0     H24171   6.104  10.959   6.038 -2.0346  0.5565  0.1835
  920MOL0     H24172   6.095  11.033   6.241 -2.0274  3.4172  0.4620
  920MOL0     H24173   6.021  10.882   6.310 -1.2605  0.2410 -0.2308
  920MOL0     H24174   5.885  11.075   6.132  5.3675  1.5551  0.9640
  920MOL0     H24175   5.809  10.953   6.235 -0.1454  0.7883 -0.4014
  920MOL0     H24176   5.759  11.199   6.327  0.4385 -0.2409 -0.6327
  920MOL0     H24177   5.925  11.221   6.333  1.9692 -1.7716 -0.0662
  920MOL0     H24178   5.784  10.992   6.483 -0.2906 -0.2790  7.1126
  920MOL0     H24179   5.928  11.081   6.533 -0.7647  2.8657  1.1931
  920MOL0     H24180   6.344  10.411   6.052 -0.5060 -1.8078  0.3791
  920MOL0     H24181   6.297  10.183   6.011 -1.5324  1.0524  0.9743
  920MOL0     H24182   5.979  10.018   5.734  0.5938 -2.4221  1.6594
  920MOL0     H24183   5.791   9.901   5.633  2.9304 -2.4107  4.9206
  920MOL0     H24184   4.899   8.913   4.302 -2.8002  1.0184 -1.7580
  920MOL0     H24185   4.727   9.080   4.260 -0.0122 -0.9738  0.3209
  920MOL0     H24186   4.423   9.441   4.723  1.5947  1.9992 -0.7281
  920MOL0     H24187   4.185   9.526   4.708  0.1514 -0.2007  0.1048
  920MOL0     H24188   3.895   9.685   4.547 -1.2103 -0.1061  2.3174
  920MOL0     H24189   4.011   9.644   4.676  3.0375  2.1880 -2.3976
  920MOL0     H24190   3.904   9.414   4.676  0.3243 -0.2682  0.0205
  920MOL0     H24191   3.778   9.473   4.578 -0.0954 -0.5567  0.5289
  920MOL0     H24192   3.836   9.660   4.794  0.9771  0.0649 -0.7824
  920MOL0     H24193   3.788   9.502   4.858 -0.3103 -1.9089 -1.7166
  920MOL0     H24194   3.597   9.511   4.692  2.6788  0.2720 -0.6709
  920MOL0     H24195   3.571   9.604   4.845  0.2605 -2.7481  0.5223
  920MOL0     H24196   3.595   9.914   4.554 -0.8745 -3.4395 -3.9198
  920MOL0     H24197   4.186   9.476   4.282  1.3464  1.5301 -1.2999
  920MOL0     H24198   4.427   9.268   4.257 -2.5585  0.3764 -0.3293
  920MOL0     H24199   4.386   9.416   4.169 -1.0451 -1.4695 -0.4130
  920MOL0     H24200   4.544   9.399   4.258  0.2874 -1.1190  2.1805
  921MOL0     O24201   8.736   3.713   8.743 -0.1127 -0.2718  0.1623
  921MOL0     C24202   8.618   3.683   8.752  0.3836 -0.1689 -0.2777
  921MOL0     O24203   8.532   3.665   8.645  0.3594 -1.0119  0.2161
  921MOL0     C24204   8.575   3.690   8.516 -0.1977 -0.4532  0.8192
  921MOL0     C24205   8.467   3.686   8.428 -0.7267 -0.4287 -0.6295
  921MOL0     C24206   8.483   3.728   8.300  0.1824 -0.3797  0.4101
  921MOL0     C24207   8.612   3.753   8.251  0.7593 -1.1177  0.3111
  921MOL0     O24208   8.629   3.796   8.126 -0.0737  0.5592  0.0633
  921MOL0     C24209   8.571   3.918   8.082  0.2689  0.4226 -0.1645
  921MOL0     C24210   8.489   3.914   7.958 -0.2560  0.2576 -0.0915
  921MOL0     C24211   8.454   4.065   7.919  0.0518 -1.0975  0.0765
  921MOL0     C24212   8.397   4.088   7.786 -0.2989  1.1363 -0.4406
  921MOL0     C24213   8.384   4.234   7.750 -0.5658 -0.7001 -1.1911
  921MOL0     C24214   8.334   4.246   7.600 -0.1042  0.4029 -1.5765
  921MOL0     C24215   8.292   4.383   7.564 -0.1709  0.0399 -0.2822
  921MOL0     C24216   8.166   4.368   7.485 -0.7803 -0.6218  0.3834
  921MOL0     N24217   8.141   4.505   7.444  0.5875 -0.6753  0.1816
  921MOL0     C24218   8.195   4.579   7.339 -1.0669  0.0632 -0.7419
  921MOL0     C24219   8.140   4.699   7.351  0.8294  1.0031  0.1991
  921MOL0     C24220   8.204   4.817   7.276  0.3306  0.5083  0.7787
  921MOL0     C24221   8.122   4.938   7.271 -0.2644  0.1808  0.0178
  921MOL0     C24222   8.180   5.054   7.192 -1.5296 -0.0517  0.3300
  921MOL0     C24223   8.082   5.174   7.181  0.4747 -0.1538 -0.2439
  921MOL0     O24224   8.129   5.277   7.095  0.3566 -0.0378 -0.1292
  921MOL0     C24225   8.193   5.396   7.144  1.2573  0.0060 -0.8108
  921MOL0     C24226   8.220   5.494   7.058  0.7636 -0.1031 -0.1123
  921MOL0     C24227   8.294   5.611   7.093  0.7777 -0.2590 -0.2804
  921MOL0     C24228   8.337   5.630   7.227  0.4697  0.9065  0.7494
  921MOL0     C24229   8.395   5.753   7.284 -0.4238  0.2558 -0.0030
  921MOL0     O24230   8.443   5.742   7.410  0.2427  0.2019  0.1626
  921MOL0     C24231   8.462   5.851   7.484 -0.0919 -0.1936 -0.3301
  921MOL0     C24232   8.569   5.833   7.575 -0.4680 -0.5586  1.5437
  921MOL0     C24233   8.608   5.940   7.656  0.3565  0.0207 -0.0990
  921MOL0     C24234   8.515   6.042   7.674  0.0718 -0.3972 -0.9255
  921MOL0     O24235   8.528   6.135   7.775  0.4897  0.0365 -0.3589
  921MOL0     C24236   8.634   6.231   7.760 -0.6404  0.0781 -0.4103
  921MOL0     C24237   8.635   6.342   7.868 -0.3482 -0.0679  0.2920
  921MOL0     C24238   8.762   6.437   7.846 -0.0128  0.2430 -0.4597
  921MOL0     C24239   8.760   6.536   7.965 -0.8431  0.0863 -0.0718
  921MOL0     C24240   8.894   6.606   8.009 -0.0866 -0.0005 -0.2390
  921MOL0     C24241   8.869   6.692   8.135  0.7347 -0.5211  0.3962
  921MOL0     C24242   8.994   6.758   8.191  0.2354  1.2724  0.2081
  921MOL0     C24243   8.963   6.872   8.285 -0.8373  0.8322 -0.2466
  921MOL0    Cl24244   9.106   6.910   8.394  0.3159  0.1392  0.2760
  921MOL0     C24245   8.400   6.055   7.596  0.2456  0.1930  0.6882
  921MOL0     C24246   8.374   5.950   7.507  0.3185  0.6425 -0.3118
  921MOL0     O24247   8.397   5.857   7.216  0.0099  0.1152  0.5272
  921MOL0     C24248   8.300   5.527   7.316  0.2513  0.5028 -0.6834
  921MOL0     C24249   8.228   5.417   7.279 -0.3791  0.3262 -0.2154
  921MOL0     N24250   8.037   4.698   7.444 -0.5283  0.4759 -0.3603
  921MOL0     N24251   8.040   4.585   7.496 -0.3192 -0.0657  0.0400
  921MOL0     C24252   8.719   3.751   8.330 -0.4288  0.6286  0.6366
  921MOL0     C24253   8.700   3.716   8.460  0.6088 -0.1771  0.5082
  921MOL0     C24254   8.566   3.669   8.902  0.5991 -0.3650 -0.2339
  921MOL0     C24255   8.655   3.626   9.004  0.2452  0.6551  0.1749
  921MOL0     C24256   8.611   3.585   9.131 -0.7453 -0.2309  0.9481
  921MOL0     C24257   8.478   3.583   9.166  0.1444 -0.3285  0.3117
  921MOL0     O24258   8.422   3.542   9.282 -1.1734 -0.0422 -0.4712
  921MOL0     C24259   8.501   3.477   9.378  0.1546 -1.3543 -0.0790
  921MOL0     C24260   8.606   3.573   9.443  0.7965  1.1987 -0.9815
  921MOL0     C24261   8.571   3.621   9.589  0.9293 -0.7405 -0.6294
  921MOL0     C24262   8.666   3.734   9.623  0.3888  0.6421 -0.3227
  921MOL0     C24263   8.618   3.872   9.589  0.3337 -1.0729  0.6084
  921MOL0     C24264   8.559   3.978   9.553  0.1783  0.4659 -0.3229
  921MOL0     C24265   8.393   3.637   9.075  0.7122 -0.3008  0.2038
  921MOL0     C24266   8.428   3.679   8.938  0.1584 -0.4143 -0.7147
  921MOL0     C24267   8.326   3.738   8.840 -0.0181 -0.5187 -0.2582
  921MOL0     H24268   8.367   3.654   8.458 -0.0597 -1.1044  0.9957
  921MOL0     H24269   8.405   3.727   8.224  0.8074 -0.8636 -0.2371
  921MOL0     H24270   8.512   3.965   8.162  1.7089  1.7849  0.1492
  921MOL0     H24271   8.655   3.986   8.064  1.9133 -1.5446 -0.1570
  921MOL0     H24272   8.395   3.859   7.967 -0.3385  0.4997  0.5102
  921MOL0     H24273   8.553   3.879   7.876  1.8198 -0.7502  1.8430
  921MOL0     H24274   8.543   4.127   7.927 -1.7247  1.9143 -1.4805
  921MOL0     H24275   8.381   4.105   7.989  1.8796 -1.1305  2.0891
  921MOL0     H24276   8.467   4.040   7.717 -0.1429  0.9641 -0.1663
  921MOL0     H24277   8.301   4.040   7.804 -0.5113  1.6495 -0.1750
  921MOL0     H24278   8.315   4.275   7.824  1.5577  0.4267  0.2901
  921MOL0     H24279   8.473   4.297   7.763 -1.1184 -0.0735 -0.3416
  921MOL0     H24280   8.387   4.186   7.526  1.1761  0.2353 -0.5572
  921MOL0     H24281   8.239   4.192   7.603 -0.0294  0.1889  2.5115
  921MOL0     H24282   8.377   4.421   7.507  0.1203 -1.9393 -1.2765
  921MOL0     H24283   8.273   4.444   7.652  3.9197 -0.6890  1.3311
  921MOL0     H24284   8.174   4.308   7.394 -1.2441  1.6242 -1.2255
  921MOL0     H24285   8.084   4.334   7.547  1.0581  0.0208  3.3847
  921MOL0     H24286   8.287   4.555   7.286  0.3200  2.7026  0.2821
  921MOL0     H24287   8.303   4.846   7.311  0.9255  0.3054 -0.6509
  921MOL0     H24288   8.230   4.774   7.179 -1.1300 -1.1925  1.1041
  921MOL0     H24289   8.024   4.914   7.229  0.7181 -2.1240 -1.1662
  921MOL0     H24290   8.114   4.963   7.376 -2.4786 -0.6624  0.1067
  921MOL0     H24291   8.212   5.032   7.090  0.6772 -0.8206  1.1276
  921MOL0     H24292   8.270   5.093   7.241 -1.0069  4.2758 -3.3789
  921MOL0     H24293   8.063   5.232   7.271  1.3663  1.1125 -0.8504
  921MOL0     H24294   7.983   5.137   7.150  0.2203 -0.0608  0.4341
  921MOL0     H24295   8.181   5.488   6.956  2.7706 -2.5638 -0.8513
  921MOL0     H24296   8.318   5.692   7.024 -1.2973 -0.5770 -1.4816
  921MOL0     H24297   8.623   5.740   7.560  0.7413  0.6466 -2.8754
  921MOL0     H24298   8.678   5.921   7.737  1.0171  2.3981 -0.0348
  921MOL0     H24299   8.735   6.189   7.761 -0.2922  0.9071  0.7685
  921MOL0     H24300   8.622   6.278   7.662 -1.7306 -0.9791 -0.8066
  921MOL0     H24301   8.547   6.407   7.861 -1.2342 -1.3574 -1.8473
  921MOL0     H24302   8.648   6.288   7.961  1.5326 -0.9957 -0.4541
  921MOL0     H24303   8.854   6.378   7.845 -1.9161 -2.9732 -0.5152
  921MOL0     H24304   8.758   6.491   7.751 -0.1558  2.0437  0.5313
  921MOL0     H24305   8.709   6.494   8.052  0.1018 -0.0447  0.4362
  921MOL0     H24306   8.694   6.616   7.931 -1.2353 -0.6040 -0.9705
  921MOL0     H24307   8.937   6.659   7.924  3.4859  0.3173  1.5598
  921MOL0     H24308   8.967   6.531   8.039  2.6174  2.3779 -0.3923
  921MOL0     H24309   8.795   6.771   8.119  0.2063 -0.7983  1.3561
  921MOL0     H24310   8.811   6.635   8.209 -2.5566  1.0220 -0.8139
  921MOL0     H24311   9.059   6.782   8.106  0.5484 -0.6106 -0.1130
  921MOL0     H24312   9.055   6.684   8.243 -1.1771 -0.4568 -0.5080
  921MOL0     H24313   8.924   6.959   8.232 -3.2089 -1.0669 -1.8377
  921MOL0     H24314   8.879   6.835   8.344 -0.1502  0.1000  0.3027
  921MOL0     H24315   8.337   6.144   7.599 -0.5640 -0.2475 -1.4076
  921MOL0     H24316   8.288   5.959   7.441  0.6567  1.5771 -0.6344
  921MOL0     H24317   8.332   5.536   7.420  6.0962  1.0162 -2.2025
  921MOL0     H24318   8.204   5.347   7.359  1.2744  1.0807  1.0064
  921MOL0     H24319   8.819   3.764   8.290 -0.5602 -1.9867 -0.7765
  921MOL0     H24320   8.790   3.705   8.521 -0.1721 -1.1395  1.5598
  921MOL0     H24321   8.760   3.609   8.985  0.4596 -2.5109  3.2058
  921MOL0     H24322   8.693   3.542   9.188 -0.6585 -1.4926 -0.0666
  921MOL0     H24323   8.553   3.399   9.322 -3.5835 -2.0892 -2.9650
  921MOL0     H24324   8.436   3.429   9.451  1.4468 -3.5332 -0.2864
  921MOL0     H24325   8.625   3.663   9.384 -1.4043  1.1836 -1.8299
  921MOL0     H24326   8.701   3.520   9.448  0.4729  0.6965  0.2046
  921MOL0     H24327   8.576   3.536   9.659 -0.5114 -1.0920 -0.9227
  921MOL0     H24328   8.471   3.662   9.599  0.6763 -1.0425 -1.8130
  921MOL0     H24329   8.682   3.735   9.731 -1.4262  1.8774 -0.0254
  921MOL0     H24330   8.757   3.719   9.563  0.4453  0.0608 -0.0895
  921MOL0     H24331   8.503   4.063   9.521 -1.4011 -0.5199 -0.2499
  921MOL0     H24332   8.289   3.650   9.104  0.4116 -3.3662  0.7844
  921MOL0     H24333   8.363   3.834   8.803 -2.2554  0.6663  0.4128
  921MOL0     H24334   8.307   3.669   8.757 -1.9077  0.7281 -0.9297
  921MOL0     H24335   8.229   3.756   8.886 -0.4518 -1.4601 -0.7649
  922MOL0     O24336   7.571   5.874   4.382  0.0818  0.8936 -0.0748
  922MOL0     C24337   7.617   5.944   4.299 -0.0792  0.5278 -0.4310
  922MOL0     O24338   7.660   6.075   4.318  0.4063  0.3920 -0.5858
  922MOL0     C24339   7.665   6.134   4.448 -0.2290 -0.1213 -0.2153
  922MOL0     C24340   7.664   6.266   4.434 -0.0215 -0.6131 -0.6969
  922MOL0     C24341   7.687   6.348   4.540 -0.5704  1.0020 -0.5908
  922MOL0     C24342   7.711   6.299   4.668  0.0464  0.9503 -0.9180
  922MOL0     O24343   7.726   6.387   4.774 -0.0703  0.1773 -0.0791
  922MOL0     C24344   7.785   6.360   4.901 -0.0190  0.5476 -0.5572
  922MOL0     C24345   7.794   6.474   5.001 -0.0441  0.1936  0.3604
  922MOL0     C24346   7.891   6.584   4.973  0.3431 -0.1078  0.2620
  922MOL0     C24347   7.901   6.681   5.088  0.7088 -0.6487  0.8032
  922MOL0     C24348   7.996   6.798   5.057 -0.8987  0.3769  0.3684
  922MOL0     C24349   8.142   6.754   5.029 -1.1312  0.0664 -0.8440
  922MOL0     C24350   8.241   6.868   5.006 -0.2620 -0.1213 -0.2845
  922MOL0     C24351   8.281   6.943   5.136 -0.6877 -0.5178 -0.7553
  922MOL0     N24352   8.382   7.049   5.106  0.3519 -0.9414 -0.1506
  922MOL0     C24353   8.400   7.168   5.168 -0.9332 -0.7324 -0.4789
  922MOL0     C24354   8.530   7.203   5.136 -0.2030 -0.1602 -0.2345
  922MOL0     C24355   8.620   7.307   5.203  0.5279  0.1070  1.3813
  922MOL0     C24356   8.580   7.461   5.187 -0.5026 -0.6911  0.2235
  922MOL0     C24357   8.704   7.546   5.179  0.3754  0.5180  0.4344
  922MOL0     C24358   8.685   7.699   5.187  0.3464  1.4190  1.1632
  922MOL0     O24359   8.810   7.775   5.205  0.0849 -0.6035  1.0192
  922MOL0     C24360   8.894   7.804   5.098 -0.7616 -0.0374 -0.1115
  922MOL0     C24361   8.857   7.815   4.960 -0.8163  0.5745  0.3156
  922MOL0     C24362   8.950   7.850   4.866 -0.3814 -0.6609 -0.3443
  922MOL0     C24363   9.081   7.881   4.898 -1.6810 -0.5793 -0.5529
  922MOL0     C24364   9.178   7.913   4.789  0.1607 -0.4869 -0.6278
  922MOL0     O24365   9.144   7.920   4.661 -0.0500 -0.2305 -0.3470
  922MOL0     C24366   9.217   7.986   4.562  0.2144 -0.7980  0.0389
  922MOL0     C24367   9.240   7.921   4.440  0.2818 -0.1287 -1.0008
  922MOL0     C24368   9.313   7.987   4.335  0.8635  0.6386  0.0698
  922MOL0     C24369   9.378   8.104   4.364  0.0495 -0.4044 -0.6986
  922MOL0     O24370   9.464   8.170   4.279  0.1105 -0.4219  1.1012
  922MOL0     C24371   9.555   8.083   4.215 -0.1319 -0.2594 -0.6103
  922MOL0     C24372   9.697   8.157   4.227  0.4509 -0.4950  0.1461
  922MOL0     C24373   9.739   8.203   4.365  0.6379  0.0671 -0.6524
  922MOL0     C24374   9.745   8.086   4.458 -0.2473  0.5729  0.9409
  922MOL0     C24375   9.802   8.113   4.596 -0.0952  0.0512 -0.5021
  922MOL0     C24376   9.843   7.987   4.675 -0.5503  0.5250  0.3217
  922MOL0     C24377   9.894   8.036   4.811  0.3343  0.9163 -0.6701
  922MOL0     C24378   9.946   7.916   4.890 -0.3141  0.2357 -0.9365
  922MOL0    Cl24379  10.080   7.836   4.814 -0.5636 -0.1704  0.2890
  922MOL0     C24380   9.351   8.171   4.487  0.9954 -0.1356 -0.2862
  922MOL0     C24381   9.272   8.109   4.582  0.9049 -0.1207  0.1242
  922MOL0     O24382   9.290   7.952   4.829  1.1586 -0.0262 -0.1057
  922MOL0     C24383   9.120   7.872   5.034 -1.1842 -0.7210  0.1923
  922MOL0     C24384   9.029   7.840   5.129  1.7047 -0.3173  0.0291
  922MOL0     N24385   8.575   7.120   5.038 -0.6384  0.2105  0.7035
  922MOL0     N24386   8.486   7.028   5.029 -0.1798  0.2127  0.1614
  922MOL0     C24387   7.707   6.166   4.691  0.7667  0.2065  0.7236
  922MOL0     C24388   7.683   6.080   4.576 -0.6461  0.5364  0.9352
  922MOL0     C24389   7.615   5.879   4.167 -0.6408  0.0570 -0.1635
  922MOL0     C24390   7.570   5.749   4.154 -0.4054 -0.0758  0.0859
  922MOL0     C24391   7.554   5.687   4.030  0.6891  0.2796  0.3585
  922MOL0     C24392   7.571   5.763   3.913 -0.4876  0.6827  0.1702
  922MOL0     O24393   7.556   5.693   3.795 -0.7094  0.9113 -0.5471
  922MOL0     C24394   7.600   5.764   3.683 -0.2013 -0.3945  0.8436
  922MOL0     C24395   7.558   5.697   3.550 -0.4476  0.0103  0.2772
  922MOL0     C24396   7.571   5.804   3.430 -0.5489 -1.1742  0.1983
  922MOL0     C24397   7.719   5.850   3.400  0.5019 -0.2267 -0.7668
  922MOL0     C24398   7.778   5.755   3.303  0.0600  0.2375 -0.4303
  922MOL0     C24399   7.823   5.683   3.208  0.6038  0.1744  0.6359
  922MOL0     C24400   7.631   5.890   3.923  0.0632 -0.2435 -0.5238
  922MOL0     C24401   7.661   5.947   4.044 -0.2126  0.8251 -0.0697
  922MOL0     C24402   7.728   6.084   4.042  0.0470  0.1981 -0.5772
  922MOL0     H24403   7.652   6.321   4.341 -0.6574  1.5662  0.5714
  922MOL0     H24404   7.706   6.454   4.527 -1.6418  1.7567  3.0424
  922MOL0     H24405   7.751   6.273   4.958  1.1146  0.1319 -0.4953
  922MOL0     H24406   7.891   6.352   4.876  0.3930  0.6652  1.0184
  922MOL0     H24407   7.828   6.429   5.095  2.9620 -0.4295 -0.9149
  922MOL0     H24408   7.690   6.506   5.013 -0.5848 -1.4821  0.3867
  922MOL0     H24409   7.841   6.646   4.897  1.8826  4.6208  2.6981
  922MOL0     H24410   7.988   6.542   4.947 -0.0618 -0.8569 -0.0717
  922MOL0     H24411   7.806   6.722   5.123  2.2738  2.0306  2.2336
  922MOL0     H24412   7.944   6.622   5.170 -0.6235  0.4880  2.3930
  922MOL0     H24413   7.958   6.860   4.976  0.8124  4.9571  2.7064
  922MOL0     H24414   7.999   6.865   5.144  1.3396  0.2946  0.4116
  922MOL0     H24415   8.182   6.708   5.119  2.4887  2.9464 -0.7561
  922MOL0     H24416   8.139   6.678   4.950 -0.5483 -2.5719  1.5183
  922MOL0     H24417   8.222   6.936   4.922  1.5459  0.9770  0.1443
  922MOL0     H24418   8.334   6.822   4.971 -1.2705 -1.8266 -0.8136
  922MOL0     H24419   8.188   6.987   5.173 -0.4820 -1.5070  1.0705
  922MOL0     H24420   8.329   6.898   5.223 -0.7021  2.7628  1.1315
  922MOL0     H24421   8.335   7.212   5.243 -2.1144 -3.0174 -0.0574
  922MOL0     H24422   8.612   7.274   5.307  1.0404 -0.8611  1.1243
  922MOL0     H24423   8.719   7.293   5.158  1.2692  2.2721  2.1928
  922MOL0     H24424   8.529   7.458   5.090  1.8988 -0.8377 -1.1107
  922MOL0     H24425   8.505   7.490   5.262  0.0500 -0.4229  0.6768
  922MOL0     H24426   8.755   7.524   5.084 -1.1033 -0.2441 -0.2187
  922MOL0     H24427   8.763   7.523   5.268  0.5484  2.6141  0.9127
  922MOL0     H24428   8.614   7.716   5.269 -0.2163  3.5989  0.2790
  922MOL0     H24429   8.633   7.739   5.100 -1.1990  0.1996  1.4801
  922MOL0     H24430   8.757   7.788   4.926 -0.2451 -2.4842  0.7950
  922MOL0     H24431   8.911   7.851   4.764  0.4130  0.8564 -0.6606
  922MOL0     H24432   9.174   7.837   4.417  0.8777 -1.0905  0.6348
  922MOL0     H24433   9.299   7.928   4.245  2.2083 -3.0012  2.0470
  922MOL0     H24434   9.564   7.984   4.259  2.7941 -0.5593 -1.6538
  922MOL0     H24435   9.542   8.076   4.107  1.4434  0.0923 -0.8526
  922MOL0     H24436   9.770   8.084   4.189  0.1608 -0.7309  0.0362
  922MOL0     H24437   9.706   8.245   4.162  3.5344  1.0104  2.3600
  922MOL0     H24438   9.838   8.248   4.369  0.5370  0.2727  2.6295
  922MOL0     H24439   9.663   8.271   4.407  0.5346  0.7604 -1.9238
  922MOL0     H24440   9.789   8.009   4.393 -0.8313 -0.5534  1.8351
  922MOL0     H24441   9.647   8.038   4.469 -0.6190  1.2179  0.4740
  922MOL0     H24442   9.731   8.179   4.647  0.7347  0.8961 -0.4034
  922MOL0     H24443   9.892   8.169   4.572 -0.5451  0.6893 -0.7316
  922MOL0     H24444   9.754   7.927   4.693 -0.9037  1.1356  0.6429
  922MOL0     H24445   9.918   7.934   4.615 -0.7400  1.3109 -0.6490
  922MOL0     H24446   9.815   8.073   4.877  0.4967 -0.5324  0.3945
  922MOL0     H24447   9.973   8.110   4.791 -1.1885  2.8836  0.2231
  922MOL0     H24448   9.971   7.944   4.993  1.4041 -2.9588 -0.3479
  922MOL0     H24449   9.872   7.837   4.907 -0.5153  0.5302 -0.4221
  922MOL0     H24450   9.393   8.271   4.500  0.5845 -0.1934  1.8881
  922MOL0     H24451   9.237   8.166   4.668 -1.5339 -0.0621 -0.8475
  922MOL0     H24452   9.223   7.893   5.063 -1.5367  0.6905  0.5019
  922MOL0     H24453   9.061   7.830   5.232  2.2883 -0.0687 -0.1211
  922MOL0     H24454   7.720   6.123   4.790 -1.6676 -0.1986  0.9308
  922MOL0     H24455   7.685   5.972   4.586 -1.9889  0.2399 -1.3806
  922MOL0     H24456   7.555   5.693   4.245  2.7004 -2.2154 -0.5482
  922MOL0     H24457   7.525   5.583   4.019  2.2415 -0.0042 -1.6449
  922MOL0     H24458   7.710   5.770   3.682 -0.2041  0.2961  2.3170
  922MOL0     H24459   7.543   5.856   3.688 -0.6143 -0.7029  2.1952
  922MOL0     H24460   7.451   5.675   3.553 -1.3689  2.7733 -3.8841
  922MOL0     H24461   7.613   5.606   3.523 -1.5271  0.0469 -2.3504
  922MOL0     H24462   7.526   5.894   3.473  2.5027 -0.9423  3.3481
  922MOL0     H24463   7.517   5.764   3.343 -4.1294 -0.6884  1.9922
  922MOL0     H24464   7.745   5.954   3.379  2.2463  0.2438  2.9596
  922MOL0     H24465   7.782   5.860   3.489 -1.4149  0.0660  0.6329
  922MOL0     H24466   7.862   5.633   3.122  3.9895  0.2882  1.9206
  922MOL0     H24467   7.652   5.949   3.834  0.0034  1.5900  0.6272
  922MOL0     H24468   7.795   6.094   3.956  0.2060 -2.5660 -0.8792
  922MOL0     H24469   7.651   6.161   4.031  0.3143  0.5531  0.0273
  922MOL0     H24470   7.792   6.107   4.128  1.4138  1.6806 -1.9187
  923MOL0     O24471   0.537   9.397   3.492  0.2750 -0.2133  0.4181
  923MOL0     C24472   0.505   9.392   3.613  0.1772 -0.4215  0.7660
  923MOL0     O24473   0.593   9.408   3.719 -0.6148  0.4287 -0.8340
  923MOL0     C24474   0.707   9.480   3.692  1.0593  0.6013  0.3839
  923MOL0     C24475   0.707   9.617   3.721  0.9436 -0.0200  0.1231
  923MOL0     C24476   0.826   9.687   3.696 -0.7182 -0.2328 -0.0698
  923MOL0     C24477   0.936   9.635   3.627 -0.6545  0.1547  0.5090
  923MOL0     O24478   1.037   9.717   3.577 -0.3256  0.0380  0.2764
  923MOL0     C24479   1.175   9.677   3.562 -0.8479 -0.0905 -0.0519
  923MOL0     C24480   1.250   9.786   3.482  0.5583 -0.4300  0.7606
  923MOL0     C24481   1.324   9.886   3.572  0.9639 -0.4084  0.3835
  923MOL0     C24482   1.431   9.953   3.488  0.1951  0.2150 -0.3551
  923MOL0     C24483   1.506  10.043   3.583 -0.5866 -0.5250  0.8351
  923MOL0     C24484   1.605  10.126   3.503 -0.3732 -0.1259  0.3870
  923MOL0     C24485   1.695  10.210   3.585  0.1691  0.0648  0.5521
  923MOL0     C24486   1.799  10.285   3.511 -0.3605 -0.6714  0.8004
  923MOL0     N24487   1.895  10.368   3.599 -0.3728  0.5886 -0.7555
  923MOL0     C24488   2.025  10.397   3.580 -0.9295  0.0860 -0.9238
  923MOL0     C24489   2.058  10.472   3.687  0.5363 -0.5683 -0.4178
  923MOL0     C24490   2.192  10.537   3.704  0.8142  0.2708 -0.9105
  923MOL0     C24491   2.203  10.672   3.641  0.2946  1.2752 -0.5140
  923MOL0     C24492   2.087  10.772   3.673  0.1030  1.0104 -0.1436
  923MOL0     C24493   2.112  10.903   3.600  0.3883  0.2185 -0.3507
  923MOL0     O24494   2.244  10.959   3.624 -0.5413 -0.0487 -0.6911
  923MOL0     C24495   2.280  11.010   3.752  0.0910 -0.1384  1.0268
  923MOL0     C24496   2.421  11.036   3.764  0.7114 -0.1157 -0.1417
  923MOL0     C24497   2.473  11.102   3.880 -0.0216  0.0413  0.9634
  923MOL0     C24498   2.389  11.122   3.991  0.4907 -0.8785  0.7145
  923MOL0     C24499   2.443  11.186   4.118 -0.2996  1.2893  0.4624
  923MOL0     O24500   2.348  11.234   4.204  0.9028 -0.0066 -0.0599
  923MOL0     C24501   2.379  11.286   4.328 -0.4544 -0.1578  0.1482
  923MOL0     C24502   2.428  11.408   4.346  0.3276 -0.5534 -0.0185
  923MOL0     C24503   2.471  11.458   4.469 -0.2722  0.4817 -0.0223
  923MOL0     C24504   2.432  11.378   4.582 -0.6088 -0.4948 -0.8106
  923MOL0     O24505   2.488  11.423   4.700  0.2274 -0.0444  0.3838
  923MOL0     C24506   2.463  11.363   4.826 -0.4308 -0.7172  0.1552
  923MOL0     C24507   2.594  11.350   4.913 -0.2587  1.1591 -0.4605
  923MOL0     C24508   2.583  11.244   5.029 -0.9406  0.2492  0.2863
  923MOL0     C24509   2.449  11.233   5.111  0.0054 -0.0850  0.3119
  923MOL0     C24510   2.464  11.131   5.231  0.6599 -0.4595 -0.0949
  923MOL0     C24511   2.554  11.015   5.201  1.0422 -0.4585 -0.0973
  923MOL0     C24512   2.530  10.912   5.312  0.6375 -0.0244 -0.3266
  923MOL0     C24513   2.579  10.780   5.257  0.2551  0.4949  0.3681
  923MOL0    Cl24514   2.754  10.801   5.243 -0.1299  0.0274 -0.4558
  923MOL0     C24515   2.359  11.260   4.566  0.1216  0.1431  0.5338
  923MOL0     C24516   2.330  11.218   4.433  0.1922 -0.3564  0.1291
  923MOL0     O24517   2.560  11.218   4.109  0.4691 -0.0342 -0.5579
  923MOL0     C24518   2.246  11.096   3.976 -0.3339  0.2076 -0.0432
  923MOL0     C24519   2.193  11.042   3.855  1.2204 -0.5279  0.9201
  923MOL0     N24520   1.946  10.490   3.769 -0.2012 -0.1488 -0.2963
  923MOL0     N24521   1.844  10.427   3.714  0.2559 -1.5921 -0.4197
  923MOL0     C24522   0.927   9.499   3.597  0.8966  0.1705  0.2964
  923MOL0     C24523   0.808   9.421   3.627 -0.9385  0.0470 -0.6836
  923MOL0     C24524   0.365   9.387   3.654  0.5559  0.2305 -0.6143
  923MOL0     C24525   0.332   9.401   3.795  0.2192 -0.1392  0.3503
  923MOL0     C24526   0.202   9.394   3.837 -0.7085  0.7338 -0.5856
  923MOL0     C24527   0.097   9.352   3.755  0.2494 -0.1758 -0.6596
  923MOL0     O24528  -0.031   9.339   3.797  0.2114  0.0206 -0.3014
  923MOL0     C24529  -0.047   9.285   3.931  0.3434  0.9646 -0.2259
  923MOL0     C24530  -0.073   9.383   4.055  0.1107 -0.1625 -0.7038
  923MOL0     C24531  -0.206   9.457   4.053 -0.2488  0.5521 -0.1551
  923MOL0     C24532  -0.228   9.524   4.184  0.5090  0.3409  0.1696
  923MOL0     C24533  -0.323   9.632   4.164 -0.0538 -0.0854  0.1635
  923MOL0     C24534  -0.393   9.726   4.148 -0.3607 -0.2836  0.0757
  923MOL0     C24535   0.128   9.341   3.621  0.2536  0.0403 -0.1147
  923MOL0     C24536   0.254   9.361   3.569  0.2393  0.1853 -0.4806
  923MOL0     C24537   0.259   9.347   3.418  0.9835 -0.3005  0.4775
  923MOL0     H24538   0.612   9.661   3.750 -0.1456 -0.4502 -2.4780
  923MOL0     H24539   0.834   9.794   3.714  1.0631 -0.1483 -1.0840
  923MOL0     H24540   1.233   9.655   3.652  4.9408  0.3255 -3.1955
  923MOL0     H24541   1.193   9.588   3.502 -1.2505  0.7021 -1.3965
  923MOL0     H24542   1.195   9.832   3.400  0.7325 -0.2729  0.7322
  923MOL0     H24543   1.332   9.733   3.434  0.2731 -0.5795  0.4372
  923MOL0     H24544   1.374   9.833   3.654 -0.1793 -0.7814  0.8576
  923MOL0     H24545   1.249   9.958   3.607  1.9210 -0.1471  1.9892
  923MOL0     H24546   1.504   9.884   3.445 -0.9427 -0.5521 -1.1187
  923MOL0     H24547   1.389  10.010   3.404  0.6942  0.8699 -0.1713
  923MOL0     H24548   1.444  10.110   3.643  0.6386  0.3111  1.2077
  923MOL0     H24549   1.564   9.984   3.655  2.9475 -0.0438 -1.3887
  923MOL0     H24550   1.655  10.059   3.432 -0.7687 -0.9839  0.8946
  923MOL0     H24551   1.541  10.193   3.445 -1.3243  0.0789  1.6387
  923MOL0     H24552   1.750  10.148   3.656  4.8552  1.6915 -1.2887
  923MOL0     H24553   1.634  10.284   3.638  0.7121  0.2119  0.9755
  923MOL0     H24554   1.861  10.228   3.441  0.6655  2.6924 -1.2601
  923MOL0     H24555   1.738  10.353   3.450  0.2662  1.2789  2.2497
  923MOL0     H24556   2.083  10.366   3.493 -1.8458  1.3858 -2.0416
  923MOL0     H24557   2.208  10.538   3.812 -4.1384  0.5140  0.0646
  923MOL0     H24558   2.267  10.474   3.656 -0.2475 -1.3092 -0.5765
  923MOL0     H24559   2.298  10.710   3.679  0.6227  0.1245 -0.1286
  923MOL0     H24560   2.208  10.666   3.532 -3.2047  1.8775 -0.8261
  923MOL0     H24561   2.078  10.790   3.781 -1.3238  0.5583 -0.1705
  923MOL0     H24562   1.995  10.722   3.642  2.3868 -2.6641 -1.8049
  923MOL0     H24563   2.033  10.977   3.615 -1.0605 -1.6354  1.8052
  923MOL0     H24564   2.122  10.885   3.492 -0.4730  0.2707 -0.4461
  923MOL0     H24565   2.484  11.017   3.677 -1.5101 -3.8952 -1.1769
  923MOL0     H24566   2.579  11.123   3.877  0.3182 -1.6512 -0.7620
  923MOL0     H24567   2.472  11.457   4.260  1.1323 -1.0168  0.1123
  923MOL0     H24568   2.534  11.546   4.470 -0.0921  0.4152 -1.7575
  923MOL0     H24569   2.400  11.433   4.882  3.1567  0.3789  3.2320
  923MOL0     H24570   2.405  11.271   4.818 -1.0749 -0.1871 -1.5683
  923MOL0     H24571   2.671  11.310   4.847 -0.1210  1.3651 -0.4232
  923MOL0     H24572   2.630  11.445   4.953  1.3868 -0.8113  3.4004
  923MOL0     H24573   2.597  11.147   4.982 -1.4511  0.0317  0.5706
  923MOL0     H24574   2.672  11.263   5.090  0.1994 -2.3068 -0.4370
  923MOL0     H24575   2.364  11.210   5.045  0.0520 -0.4013  0.3589
  923MOL0     H24576   2.407  11.329   5.144 -0.0568 -0.3611  1.0638
  923MOL0     H24577   2.359  11.101   5.243 -1.8683  5.9888 -1.4493
  923MOL0     H24578   2.494  11.191   5.318  1.3667 -0.4510 -0.3434
  923MOL0     H24579   2.550  10.972   5.101 -0.1057 -4.8157  1.5962
  923MOL0     H24580   2.650  11.067   5.208  1.3633 -1.1316  0.7025
  923MOL0     H24581   2.423  10.900   5.335  0.4456  2.4364  0.3722
  923MOL0     H24582   2.580  10.944   5.404  1.3361 -0.1636 -0.6569
  923MOL0     H24583   2.560  10.710   5.340 -0.7830 -1.1030 -1.1334
  923MOL0     H24584   2.525  10.759   5.164 -1.4297  1.1578  1.1463
  923MOL0     H24585   2.335  11.192   4.647 -1.3510 -2.3948 -1.8695
  923MOL0     H24586   2.256  11.142   4.408  0.9190  0.2360 -4.7504
  923MOL0     H24587   2.183  11.109   4.063  3.0278  3.0495  2.2216
  923MOL0     H24588   2.085  11.034   3.853  1.1923 -0.2986  1.3806
  923MOL0     H24589   1.007   9.459   3.535 -1.6240  0.9546 -3.8734
  923MOL0     H24590   0.813   9.313   3.615 -2.4287  0.0360 -1.4025
  923MOL0     H24591   0.406   9.417   3.873 -1.3722 -1.9623  2.3893
  923MOL0     H24592   0.180   9.413   3.942 -0.6907  0.3650 -0.5151
  923MOL0     H24593   0.029   9.215   3.967  0.4722  1.1092 -0.2173
  923MOL0     H24594  -0.143   9.232   3.938 -0.4933  2.3482 -0.6597
  923MOL0     H24595   0.006   9.457   4.066 -2.0992  2.2146  0.0870
  923MOL0     H24596  -0.076   9.307   4.134 -0.7224 -0.6595 -1.1958
  923MOL0     H24597  -0.286   9.385   4.033 -0.0130 -0.4393  2.0972
  923MOL0     H24598  -0.208   9.521   3.964 -3.1433  1.2257  0.2960
  923MOL0     H24599  -0.258   9.448   4.257  0.1641 -0.6365 -0.9476
  923MOL0     H24600  -0.139   9.563   4.234  1.0882 -1.9641  1.0468
  923MOL0     H24601  -0.454   9.814   4.137 -2.7483 -1.9104 -0.6146
  923MOL0     H24602   0.046   9.309   3.558 -1.6561  3.2085  0.4989
  923MOL0     H24603   0.169   9.308   3.371  2.7044 -1.1045 -2.3941
  923MOL0     H24604   0.291   9.431   3.357  0.3227  0.2164  0.8211
  923MOL0     H24605   0.322   9.259   3.401  0.1908 -0.8811  0.4756
  924MOL0     O24606   6.516   5.578   3.186 -0.1372  1.1516  0.7000
  924MOL0     C24607   6.634   5.571   3.238 -0.0369  0.1649 -0.2758
  924MOL0     O24608   6.721   5.467   3.217 -0.2137 -0.7928  0.7790
  924MOL0     C24609   6.685   5.364   3.135 -0.9890  0.5151 -0.3688
  924MOL0     C24610   6.604   5.361   3.027  0.4990  1.4390  1.0553
  924MOL0     C24611   6.568   5.236   2.959 -0.5863 -0.0895  0.6087
  924MOL0     C24612   6.635   5.116   2.997  0.2546  0.1562 -0.4749
  924MOL0     O24613   6.618   5.008   2.929  0.3213 -0.2703  0.3699
  924MOL0     C24614   6.718   4.900   2.931  0.8806  0.0834  0.4252
  924MOL0     C24615   6.691   4.815   2.797 -0.0963 -0.2527 -0.3373
  924MOL0     C24616   6.773   4.689   2.797 -0.6193  0.4852  0.1679
  924MOL0     C24617   6.726   4.595   2.692 -0.3372 -0.1538 -0.5470
  924MOL0     C24618   6.828   4.498   2.651 -0.2448  0.9923  0.5079
  924MOL0     C24619   6.787   4.379   2.558  0.4046 -0.2559  0.6980
  924MOL0     C24620   6.757   4.267   2.651 -0.2376  0.4701  0.3917
  924MOL0     C24621   6.687   4.160   2.561  0.2334 -0.3527 -0.1037
  924MOL0     N24622   6.628   4.056   2.655 -0.7897 -0.5942  0.3776
  924MOL0     C24623   6.502   4.052   2.695  0.7236 -0.3790  0.3888
  924MOL0     C24624   6.487   3.956   2.790 -0.3402 -0.3319 -0.4805
  924MOL0     C24625   6.355   3.905   2.848 -1.3409 -1.3050 -0.2819
  924MOL0     C24626   6.298   3.988   2.968 -1.0646 -0.2776  0.1370
  924MOL0     C24627   6.396   3.972   3.090  0.0442 -0.2048  0.2054
  924MOL0     C24628   6.373   4.069   3.210  1.1180  0.0997 -0.4588
  924MOL0     O24629   6.237   4.073   3.262  0.1753  1.0765  0.0858
  924MOL0     C24630   6.198   4.173   3.347 -0.4847  1.0628 -0.2848
  924MOL0     C24631   6.284   4.277   3.396  0.0274 -0.4575  0.7260
  924MOL0     C24632   6.227   4.385   3.468 -0.0181  0.0238  1.3075
  924MOL0     C24633   6.092   4.379   3.510 -0.0325 -1.0863 -0.1616
  924MOL0     C24634   6.036   4.495   3.589  0.3687 -0.0977  1.0860
  924MOL0     O24635   5.908   4.496   3.637 -1.0869  0.4510  0.8298
  924MOL0     C24636   5.863   4.607   3.703 -0.3382 -0.3562 -0.4522
  924MOL0     C24637   5.941   4.693   3.792 -0.1662  0.1789  0.6919
  924MOL0     C24638   5.892   4.812   3.842 -0.3618  0.8403  0.5433
  924MOL0     C24639   5.756   4.842   3.829 -0.0228 -0.3349  0.2271
  924MOL0     O24640   5.708   4.969   3.870  0.4999 -0.2219 -0.1435
  924MOL0     C24641   5.576   5.006   3.918  0.7790 -1.5954 -0.6644
  924MOL0     C24642   5.549   4.935   4.055 -0.5152 -0.1586 -0.0742
  924MOL0     C24643   5.427   4.996   4.123 -0.0345  0.0955  0.0449
  924MOL0     C24644   5.295   4.928   4.065  0.7880  0.1284  0.0837
  924MOL0     C24645   5.164   5.011   4.097  0.2377 -1.0135 -0.3805
  924MOL0     C24646   5.156   5.147   4.024  0.1359 -0.1595  0.1918
  924MOL0     C24647   5.012   5.197   4.009  0.3338  0.2579 -0.0272
  924MOL0     C24648   4.998   5.335   4.085  0.1607 -0.2437  1.3104
  924MOL0    Cl24649   4.986   5.322   4.254 -0.0104  0.1971  0.2928
  924MOL0     C24650   5.681   4.763   3.749  0.0918 -0.5100  0.0534
  924MOL0     C24651   5.730   4.644   3.685  0.4756  0.1271 -0.7086
  924MOL0     O24652   6.109   4.593   3.591  0.2187  1.2906  0.2985
  924MOL0     C24653   6.015   4.272   3.465  1.0637  0.3156 -0.3473
  924MOL0     C24654   6.074   4.170   3.388  1.1269  0.4944 -0.4308
  924MOL0     N24655   6.621   3.914   2.825 -0.6450 -0.0249 -0.4526
  924MOL0     N24656   6.701   3.959   2.726 -0.3174 -0.2312  0.4597
  924MOL0     C24657   6.694   5.120   3.123  0.2646  0.4927  1.0903
  924MOL0     C24658   6.721   5.239   3.186  0.0022  0.1994 -0.4959
  924MOL0     C24659   6.676   5.689   3.315  0.6349  0.5831  1.3246
  924MOL0     C24660   6.743   5.671   3.434 -0.1941 -0.9862 -0.5913
  924MOL0     C24661   6.788   5.783   3.509  0.0775  0.4734  0.1118
  924MOL0     C24662   6.765   5.913   3.455 -0.5458  0.2275  0.2872
  924MOL0     O24663   6.780   6.032   3.528  0.2999  0.4235 -1.1726
  924MOL0     C24664   6.745   6.013   3.669 -0.1374 -0.2970  0.6489
  924MOL0     C24665   6.663   6.125   3.737  0.0368  0.5420 -0.0937
  924MOL0     C24666   6.700   6.268   3.702 -1.0865 -0.0854  0.0953
  924MOL0     C24667   6.837   6.330   3.745 -0.0953  1.2735 -0.1577
  924MOL0     C24668   6.947   6.242   3.692  0.6166 -0.3035  0.0353
  924MOL0     C24669   7.033   6.183   3.636 -0.5950  0.7983  0.3960
  924MOL0     C24670   6.705   5.927   3.336 -0.5640  2.1553 -0.0584
  924MOL0     C24671   6.667   5.813   3.257  0.4504  0.5289  0.1759
  924MOL0     C24672   6.596   5.846   3.123  0.0442  0.8423 -0.4089
  924MOL0     H24673   6.565   5.454   2.987  0.2795 -0.3419 -3.3531
  924MOL0     H24674   6.492   5.232   2.882  0.6043 -0.7660 -0.5933
  924MOL0     H24675   6.823   4.933   2.932  1.6447 -2.1971  1.5257
  924MOL0     H24676   6.700   4.840   3.020 -3.6448 -1.6135 -1.3562
  924MOL0     H24677   6.698   4.894   2.722  1.1592  3.0942  2.9749
  924MOL0     H24678   6.585   4.790   2.795 -1.1988  3.5658 -4.0504
  924MOL0     H24679   6.766   4.640   2.895 -2.0660 -2.3284 -1.2042
  924MOL0     H24680   6.876   4.721   2.782 -1.3026  3.7943  1.6075
  924MOL0     H24681   6.632   4.545   2.720 -0.9018  1.3023  0.2601
  924MOL0     H24682   6.690   4.657   2.609  0.5036  0.2030 -0.6550
  924MOL0     H24683   6.911   4.552   2.605  2.0304 -1.4026  1.5137
  924MOL0     H24684   6.872   4.456   2.742  0.1332  0.2678 -0.0006
  924MOL0     H24685   6.706   4.412   2.492 -1.4529 -2.0920  1.9685
  924MOL0     H24686   6.865   4.352   2.485 -1.7446 -0.0431 -1.8368
  924MOL0     H24687   6.686   4.289   2.732 -0.1533 -1.3223  1.0000
  924MOL0     H24688   6.852   4.233   2.693 -0.3534  3.4324  3.5832
  924MOL0     H24689   6.611   4.207   2.498  1.7108 -0.6106 -2.2265
  924MOL0     H24690   6.749   4.105   2.489  0.0431  0.0763 -0.6073
  924MOL0     H24691   6.426   4.120   2.658  0.1819 -2.9632 -4.0915
  924MOL0     H24692   6.274   3.906   2.775 -4.6776  3.2580  2.8600
  924MOL0     H24693   6.366   3.804   2.887  1.4296 -1.0035 -0.0605
  924MOL0     H24694   6.303   4.091   2.932 -1.8352 -0.1860  0.2693
  924MOL0     H24695   6.198   3.975   3.009 -0.8818  1.9086  1.4452
  924MOL0     H24696   6.502   3.984   3.067  1.0628 -2.5887  3.0341
  924MOL0     H24697   6.403   3.868   3.122  1.5746  0.2833  1.5800
  924MOL0     H24698   6.405   4.170   3.181 -1.2799  1.5060  1.4128
  924MOL0     H24699   6.440   4.034   3.288 -1.0644 -3.0131  0.1858
  924MOL0     H24700   6.384   4.288   3.357 -0.0227 -0.4766  0.5900
  924MOL0     H24701   6.288   4.471   3.493  0.1902 -0.2791  1.8501
  924MOL0     H24702   6.046   4.672   3.812 -0.1255  2.4387  3.2928
  924MOL0     H24703   5.958   4.887   3.884 -0.9505  2.6708 -1.6131
  924MOL0     H24704   5.571   5.113   3.938 -0.7403 -1.3004 -2.3823
  924MOL0     H24705   5.503   4.988   3.839  2.7904 -3.2265 -2.2566
  924MOL0     H24706   5.553   4.826   4.053  1.3291 -0.1135 -1.0144
  924MOL0     H24707   5.636   4.973   4.108  0.4606  3.4619 -3.7307
  924MOL0     H24708   5.427   4.992   4.233  0.0435 -1.5077  0.0104
  924MOL0     H24709   5.418   5.100   4.089 -1.4206 -0.7443 -2.3533
  924MOL0     H24710   5.281   4.830   4.111 -2.4546  1.0539  1.3103
  924MOL0     H24711   5.287   4.899   3.960 -1.9300  0.1837  0.2055
  924MOL0     H24712   5.161   5.025   4.205 -3.0119 -0.7723 -0.3998
  924MOL0     H24713   5.079   4.948   4.068 -0.9222 -0.4733  1.6590
  924MOL0     H24714   5.216   5.211   4.090 -2.2549 -1.2899  3.7181
  924MOL0     H24715   5.209   5.131   3.929 -0.3242 -1.8790  0.1861
  924MOL0     H24716   4.950   5.124   4.062  4.9468 -2.3306  2.4633
  924MOL0     H24717   4.988   5.203   3.903  0.4436  0.9401 -0.0224
  924MOL0     H24718   5.081   5.403   4.067  1.2225 -2.0848 -1.4022
  924MOL0     H24719   4.909   5.376   4.037  0.6504 -0.9382 -0.2533
  924MOL0     H24720   5.573   4.781   3.748 -0.1982 -2.0930  0.7536
  924MOL0     H24721   5.673   4.584   3.616  1.6922 -0.1119 -1.5378
  924MOL0     H24722   5.908   4.286   3.474  1.4374  3.3357  0.3885
  924MOL0     H24723   6.005   4.091   3.363  0.7339 -0.6130  3.4264
  924MOL0     H24724   6.721   5.028   3.174 -2.0333 -0.6247  0.4725
  924MOL0     H24725   6.775   5.219   3.278 -1.7107  1.5058  0.8717
  924MOL0     H24726   6.776   5.573   3.468  2.9022 -0.2566 -1.1972
  924MOL0     H24727   6.840   5.765   3.602 -1.8499  2.7615  1.7789
  924MOL0     H24728   6.832   6.023   3.735 -1.6561  2.7161  2.4184
  924MOL0     H24729   6.702   5.914   3.682  2.7107 -2.2478 -3.0234
  924MOL0     H24730   6.666   6.104   3.844 -1.6195  2.3446  0.3610
  924MOL0     H24731   6.558   6.107   3.716  0.0520 -0.9237  0.9659
  924MOL0     H24732   6.632   6.332   3.760 -1.3889 -0.8771  0.6194
  924MOL0     H24733   6.674   6.295   3.600  2.9862  0.8609 -0.8918
  924MOL0     H24734   6.856   6.428   3.702  1.9987  1.2791  0.6991
  924MOL0     H24735   6.849   6.337   3.853 -0.5551  0.4656 -0.0391
  924MOL0     H24736   7.106   6.128   3.580  1.3964  0.8508  2.7392
  924MOL0     H24737   6.685   6.029   3.307 -0.6819  1.1574 -4.0904
  924MOL0     H24738   6.623   5.772   3.047 -1.0470 -1.0388  0.9324
  924MOL0     H24739   6.490   5.826   3.140  0.1404  0.3908 -0.3136
  924MOL0     H24740   6.611   5.949   3.090  0.6490  0.8562 -0.1078
  925MOL0     O24741   2.821   7.268   4.303  0.0007  0.9222  0.6133
  925MOL0     C24742   2.736   7.267   4.219 -0.8682 -0.4949  0.6074
  925MOL0     O24743   2.722   7.372   4.135 -0.4235 -1.3109 -0.2508
  925MOL0     C24744   2.812   7.474   4.142 -0.5413  0.1277  0.4572
  925MOL0     C24745   2.787   7.597   4.201 -0.9482 -1.1448  0.4311
  925MOL0     C24746   2.879   7.706   4.187 -0.3228 -0.4337  0.7890
  925MOL0     C24747   3.005   7.701   4.113  0.7231 -0.2340  0.4766
  925MOL0     O24748   3.072   7.824   4.101 -0.5047 -0.8628 -0.0788
  925MOL0     C24749   3.215   7.820   4.116 -0.8106 -0.4995  0.9975
  925MOL0     C24750   3.277   7.955   4.147  0.9394  0.6781  0.2593
  925MOL0     C24751   3.427   7.955   4.131 -0.4735  0.1737  0.0168
  925MOL0     C24752   3.468   7.940   3.990 -1.2495 -0.3921  1.3719
  925MOL0     C24753   3.586   8.039   3.956 -0.4246  1.0716 -0.5888
  925MOL0     C24754   3.648   8.006   3.815  0.1516 -0.6603 -0.1780
  925MOL0     C24755   3.723   8.129   3.760  0.8704  0.1475  0.1963
  925MOL0     C24756   3.803   8.094   3.634 -0.7234 -0.4715 -0.0924
  925MOL0     N24757   3.887   8.210   3.591  0.2851 -0.0048  0.1824
  925MOL0     C24758   3.853   8.314   3.502  0.2522 -0.3673  0.0772
  925MOL0     C24759   3.956   8.392   3.521 -0.4475 -0.4200 -0.0799
  925MOL0     C24760   3.962   8.531   3.472 -0.2447  0.1549  0.2391
  925MOL0     C24761   3.870   8.565   3.349  0.1107 -0.8430  0.0960
  925MOL0     C24762   3.877   8.708   3.324  0.3970  0.4915  0.2554
  925MOL0     C24763   3.780   8.748   3.224  0.6782 -0.1232  1.2379
  925MOL0     O24764   3.804   8.707   3.088  0.4167 -0.0672 -0.2403
  925MOL0     C24765   3.767   8.790   2.979  0.0435 -0.6501  0.4922
  925MOL0     C24766   3.815   8.759   2.850 -0.0503 -1.1895 -0.2248
  925MOL0     C24767   3.778   8.830   2.738  0.3273  0.3242  0.4578
  925MOL0     C24768   3.690   8.935   2.757 -0.3383 -0.2073  0.8841
  925MOL0     C24769   3.631   9.007   2.638 -0.0585 -0.3977 -0.1596
  925MOL0     O24770   3.558   9.130   2.656 -1.1149 -0.5118 -0.8414
  925MOL0     C24771   3.466   9.166   2.559  0.1017 -0.4387  0.4948
  925MOL0     C24772   3.448   9.304   2.548 -1.1105 -0.0759 -0.1247
  925MOL0     C24773   3.342   9.348   2.471 -0.0751 -0.2596  1.2913
  925MOL0     C24774   3.275   9.266   2.377  0.8946 -0.6663  0.4737
  925MOL0     O24775   3.193   9.331   2.286  0.0024 -0.8925 -0.7168
  925MOL0     C24776   3.105   9.255   2.205 -0.1697  0.2432  0.2091
  925MOL0     C24777   3.037   9.322   2.085  0.5065 -0.3930 -0.9021
  925MOL0     C24778   3.118   9.329   1.951 -0.4981  0.4276 -0.2203
  925MOL0     C24779   3.235   9.425   1.958  0.4210  0.2254  0.5828
  925MOL0     C24780   3.194   9.568   1.971 -0.4253 -0.1804  0.3671
  925MOL0     C24781   3.316   9.662   2.010 -0.2755  0.4503  0.6472
  925MOL0     C24782   3.421   9.611   2.107 -0.1395  0.0560 -0.2396
  925MOL0     C24783   3.517   9.718   2.135 -0.1543 -0.0300 -0.3676
  925MOL0    Cl24784   3.627   9.736   1.997  0.1481  0.2875  0.3433
  925MOL0     C24785   3.296   9.127   2.383 -0.3504 -0.1521 -0.5955
  925MOL0     C24786   3.391   9.077   2.478 -1.1529  0.7166  0.5741
  925MOL0     O24787   3.635   8.944   2.532  0.7413  0.5099 -0.7210
  925MOL0     C24788   3.641   8.971   2.884  0.1742  0.6466 -0.0426
  925MOL0     C24789   3.680   8.899   2.996  0.3354  0.2177  0.5854
  925MOL0     N24790   4.060   8.331   3.592  0.3157 -0.2762 -0.4125
  925MOL0     N24791   4.010   8.223   3.636  0.3761  0.0713 -0.1204
  925MOL0     C24792   3.018   7.579   4.057 -0.3926  0.1187 -0.4446
  925MOL0     C24793   2.928   7.467   4.061  0.9201  0.0588 -0.1030
  925MOL0     C24794   2.667   7.135   4.208 -0.8461  1.2133  1.0542
  925MOL0     C24795   2.694   7.034   4.306 -0.4390  0.2779  0.7063
  925MOL0     C24796   2.634   6.908   4.295 -0.4814 -1.3344  0.4939
  925MOL0     C24797   2.529   6.876   4.207 -0.6195 -0.5122 -0.4357
  925MOL0     O24798   2.452   6.764   4.210  0.2517 -0.1619 -0.4517
  925MOL0     C24799   2.403   6.702   4.332  0.3748 -0.3060  0.2164
  925MOL0     C24800   2.368   6.555   4.304 -0.5224 -1.1945 -0.4759
  925MOL0     C24801   2.264   6.550   4.188 -0.4289  0.5456 -0.2042
  925MOL0     C24802   2.191   6.423   4.186  0.1923  1.1576  0.2567
  925MOL0     C24803   2.056   6.439   4.254 -0.3137  0.5830 -0.6386
  925MOL0     C24804   1.946   6.413   4.300  0.0707  0.0917 -0.0413
  925MOL0     C24805   2.510   6.977   4.104 -0.0711  0.3699  0.0908
  925MOL0     C24806   2.573   7.099   4.103 -0.0913 -0.7450 -0.3614
  925MOL0     C24807   2.537   7.194   3.997  0.1082  0.2417  0.8796
  925MOL0     H24808   2.697   7.608   4.261 -1.7225 -3.0258 -0.3150
  925MOL0     H24809   2.853   7.796   4.243  0.5264  0.6151 -0.4558
  925MOL0     H24810   3.234   7.745   4.194  0.3348 -0.8052  0.4281
  925MOL0     H24811   3.257   7.787   4.021 -1.8434 -1.6327  0.9059
  925MOL0     H24812   3.248   7.984   4.248 -2.8801  0.3829 -0.5926
  925MOL0     H24813   3.252   8.037   4.079  2.4205  1.7650  0.9822
  925MOL0     H24814   3.462   7.865   4.182 -0.8255 -0.4136 -0.7585
  925MOL0     H24815   3.478   8.040   4.178  2.8077 -1.4830 -0.2677
  925MOL0     H24816   3.503   7.837   3.974  3.7179  1.2355 -0.1102
  925MOL0     H24817   3.387   7.956   3.918 -1.9323  1.9157  2.5750
  925MOL0     H24818   3.563   8.145   3.967 -1.1800  0.9558 -1.0014
  925MOL0     H24819   3.659   8.024   4.036 -1.8974 -0.4375  0.5432
  925MOL0     H24820   3.712   7.920   3.835  1.0854 -0.2654 -1.3740
  925MOL0     H24821   3.577   7.964   3.743 -1.5877  0.5848  0.7363
  925MOL0     H24822   3.786   8.173   3.839  3.1022 -3.5910  0.7644
  925MOL0     H24823   3.649   8.202   3.729  1.4102  1.0798  1.0435
  925MOL0     H24824   3.855   8.001   3.659 -3.8452 -1.8446  1.7598
  925MOL0     H24825   3.723   8.083   3.560 -3.1522  1.9104  1.9665
  925MOL0     H24826   3.759   8.331   3.451 -0.1254 -1.4567  0.3770
  925MOL0     H24827   3.937   8.602   3.551 -0.5611  1.2238 -0.7838
  925MOL0     H24828   4.060   8.562   3.433 -0.5313 -0.8053 -1.2989
  925MOL0     H24829   3.913   8.529   3.256 -1.3383  1.1902 -1.4556
  925MOL0     H24830   3.765   8.536   3.362 -0.7732  1.0173 -2.2693
  925MOL0     H24831   3.978   8.738   3.294  0.9949  2.2844  3.5894
  925MOL0     H24832   3.859   8.769   3.413  0.5806 -0.3355  0.8797
  925MOL0     H24833   3.785   8.852   3.258  2.0424 -0.4325  2.0625
  925MOL0     H24834   3.677   8.715   3.243 -0.7028 -0.1255 -4.3456
  925MOL0     H24835   3.888   8.681   2.827  0.5228  0.0418 -2.9527
  925MOL0     H24836   3.808   8.793   2.640 -2.9076 -1.4418 -0.0108
  925MOL0     H24837   3.523   9.368   2.593 -0.3052  0.2988 -1.8733
  925MOL0     H24838   3.332   9.455   2.458 -0.3131 -0.4124  0.0795
  925MOL0     H24839   3.163   9.178   2.153 -0.7639 -0.4045  0.4955
  925MOL0     H24840   3.027   9.215   2.270  0.8314 -1.0464  0.6604
  925MOL0     H24841   2.940   9.278   2.058 -0.6959  1.4372  0.2368
  925MOL0     H24842   3.007   9.421   2.119  4.7275  0.9764 -0.6460
  925MOL0     H24843   3.152   9.229   1.921  1.4022  1.2528 -0.9520
  925MOL0     H24844   3.045   9.365   1.878  1.2314  0.1611 -2.1909
  925MOL0     H24845   3.296   9.426   1.868  2.9083  1.3498  2.1842
  925MOL0     H24846   3.298   9.400   2.043  1.9547  1.5773 -0.1207
  925MOL0     H24847   3.125   9.568   2.056 -0.4753 -1.5847  0.3520
  925MOL0     H24848   3.151   9.606   1.878 -0.3454  0.5520  0.6202
  925MOL0     H24849   3.370   9.688   1.918 -3.1657 -0.3114 -1.3974
  925MOL0     H24850   3.270   9.751   2.053 -0.9357 -0.1488  1.2212
  925MOL0     H24851   3.489   9.532   2.073  1.5704  0.6631  1.6088
  925MOL0     H24852   3.372   9.568   2.194 -2.4847 -0.8724 -1.9262
  925MOL0     H24853   3.471   9.817   2.142  0.0820  0.1224 -0.9140
  925MOL0     H24854   3.570   9.704   2.230 -0.5947 -1.8847 -0.3557
  925MOL0     H24855   3.241   9.054   2.324 -3.1589 -0.8386  2.5398
  925MOL0     H24856   3.413   8.971   2.484  1.2315  1.2305  3.1972
  925MOL0     H24857   3.578   9.057   2.902  0.5787  0.8103  0.6317
  925MOL0     H24858   3.645   8.932   3.093  0.4868 -0.7617  0.9782
  925MOL0     H24859   3.116   7.557   4.015 -0.4543 -1.2647  0.1054
  925MOL0     H24860   2.956   7.372   4.016 -2.3632 -1.7373  1.2602
  925MOL0     H24861   2.761   7.030   4.392  1.2838  1.3685 -0.5209
  925MOL0     H24862   2.650   6.835   4.374  1.8754 -0.9662  0.4244
  925MOL0     H24863   2.317   6.764   4.357  0.9174  2.9814 -4.6328
  925MOL0     H24864   2.474   6.707   4.416 -0.1421 -0.9452  0.7011
  925MOL0     H24865   2.339   6.501   4.395 -2.1448 -0.3182 -0.4411
  925MOL0     H24866   2.462   6.505   4.279  0.9156 -1.0764  3.8333
  925MOL0     H24867   2.332   6.551   4.102 -0.1913 -3.2182 -0.2486
  925MOL0     H24868   2.203   6.640   4.195  0.7796  1.2952  1.2515
  925MOL0     H24869   2.171   6.378   4.088 -0.1827  0.3849  0.6775
  925MOL0     H24870   2.255   6.349   4.234 -0.7455 -0.4310 -0.8237
  925MOL0     H24871   1.862   6.378   4.356  2.0291  0.6003  3.4952
  925MOL0     H24872   2.434   6.965   4.028 -2.4039  0.5548  2.2667
  925MOL0     H24873   2.457   7.164   3.928 -0.3217 -0.6456  1.7491
  925MOL0     H24874   2.497   7.289   4.034  1.2100  1.0798 -0.0029
  925MOL0     H24875   2.632   7.221   3.949  0.4360  0.2813  1.5445
  926MOL0     O24876   8.178   7.752   3.210 -0.1718 -0.2491 -1.4840
  926MOL0     C24877   8.093   7.681   3.269  0.1417 -0.5911  0.3853
  926MOL0     O24878   8.113   7.549   3.315  0.3701  0.3145  1.2704
  926MOL0     C24879   8.210   7.461   3.273  0.3080 -0.1507 -0.2950
  926MOL0     C24880   8.259   7.386   3.373  0.0488  0.4623  0.0726
  926MOL0     C24881   8.347   7.282   3.346 -0.2320  1.0569 -0.2075
  926MOL0     C24882   8.385   7.252   3.217 -0.1736  0.5870  0.0814
  926MOL0     O24883   8.470   7.144   3.186  0.2335  0.7149 -1.2743
  926MOL0     C24884   8.566   7.114   3.288 -0.9525  0.3114  0.3163
  926MOL0     C24885   8.676   7.215   3.289 -0.1246  0.1039 -0.4543
  926MOL0     C24886   8.782   7.176   3.387  0.2354  0.0116 -0.0295
  926MOL0     C24887   8.859   7.297   3.426 -0.3017 -0.8887 -0.4496
  926MOL0     C24888   8.950   7.266   3.550 -0.2762  0.0809 -0.3890
  926MOL0     C24889   9.080   7.193   3.497 -0.1512 -0.5217  0.6925
  926MOL0     C24890   9.114   7.102   3.611  0.2542 -0.2560  0.4642
  926MOL0     C24891   9.249   7.022   3.590 -0.7136 -0.0820  0.7224
  926MOL0     N24892   9.221   6.897   3.515  0.0237  0.6567 -0.0797
  926MOL0     C24893   9.209   6.763   3.561  0.0279 -0.6607  0.5862
  926MOL0     C24894   9.199   6.695   3.448  0.0849  0.8331 -0.1491
  926MOL0     C24895   9.174   6.548   3.450  0.3641 -0.8928  0.7060
  926MOL0     C24896   9.283   6.470   3.522  0.1764 -0.8174  0.6942
  926MOL0     C24897   9.411   6.477   3.448 -0.7506 -0.6996  0.4415
  926MOL0     C24898   9.415   6.428   3.308  0.0689 -0.2146 -0.3374
  926MOL0     O24899   9.549   6.451   3.258  0.3665 -0.1549 -0.2956
  926MOL0     C24900   9.579   6.560   3.183 -0.6792  0.4382  0.1492
  926MOL0     C24901   9.690   6.545   3.097  0.6422 -0.1592 -0.1603
  926MOL0     C24902   9.719   6.645   3.000  0.0973  0.4951 -0.0096
  926MOL0     C24903   9.651   6.768   2.998 -0.2970  0.1471 -0.7729
  926MOL0     C24904   9.689   6.865   2.905  0.2423 -0.2623  0.6791
  926MOL0     O24905   9.664   6.996   2.944 -0.4857 -0.4360  0.5877
  926MOL0     C24906   9.723   7.094   2.868 -0.2183  0.4266  0.9502
  926MOL0     C24907   9.651   7.148   2.753 -0.9328 -0.9506 -0.9965
  926MOL0     C24908   9.713   7.244   2.669  0.2098 -0.2059 -0.6821
  926MOL0     C24909   9.837   7.299   2.708 -0.0859 -0.5860 -0.1605
  926MOL0     O24910   9.876   7.402   2.623  0.4310 -0.3929 -0.0514
  926MOL0     C24911   9.998   7.471   2.658 -0.0245 -0.5016 -0.6577
  926MOL0     C24912  10.020   7.587   2.559 -0.1961  0.2762  0.7284
  926MOL0     C24913  10.150   7.570   2.483  0.7550  0.2330  0.4234
  926MOL0     C24914  10.218   7.703   2.451 -0.6665 -0.0261  0.2921
  926MOL0     C24915  10.339   7.683   2.350 -0.5740 -0.5594  0.3488
  926MOL0     C24916  10.435   7.796   2.318  0.5797 -0.4068  0.0874
  926MOL0     C24917  10.340   7.887   2.234  0.4143  0.4840  0.4272
  926MOL0     C24918  10.399   8.024   2.210 -0.3029 -0.0842 -0.0664
  926MOL0    Cl24919  10.540   8.042   2.095 -0.3790  0.7070 -0.2431
  926MOL0     C24920   9.903   7.256   2.820  0.5524  0.2147 -1.0194
  926MOL0     C24921   9.843   7.147   2.894 -0.5684 -0.0556  0.1927
  926MOL0     O24922   9.745   6.831   2.798 -0.6672  0.5454  0.4610
  926MOL0     C24923   9.547   6.789   3.087 -0.4441  0.5161 -0.4184
  926MOL0     C24924   9.518   6.691   3.183 -1.0862 -0.7563 -0.1426
  926MOL0     N24925   9.192   6.773   3.343 -0.4338 -0.7359  0.5303
  926MOL0     N24926   9.209   6.894   3.377 -0.0551  0.1357 -0.2802
  926MOL0     C24927   8.345   7.337   3.118  1.2301 -0.0122  0.4860
  926MOL0     C24928   8.256   7.445   3.143 -0.7339 -0.8595 -0.8764
  926MOL0     C24929   7.958   7.750   3.280 -0.0584 -0.2289  0.0019
  926MOL0     C24930   7.863   7.686   3.355  0.5736 -0.3723 -0.6077
  926MOL0     C24931   7.742   7.743   3.378  0.5202  0.6165 -0.3816
  926MOL0     C24932   7.705   7.865   3.333  0.7590  0.4320 -0.4154
  926MOL0     O24933   7.576   7.912   3.352 -0.0924  0.1474  0.2338
  926MOL0     C24934   7.534   8.024   3.270 -0.9891 -0.0497 -0.3248
  926MOL0     C24935   7.380   8.059   3.273  0.4020  0.4063 -0.3343
  926MOL0     C24936   7.321   8.036   3.416  0.8775  0.3479  0.7028
  926MOL0     C24937   7.363   8.133   3.529 -0.6654  0.3341  0.4559
  926MOL0     C24938   7.302   8.268   3.504  0.2868 -1.0180  0.0267
  926MOL0     C24939   7.263   8.388   3.512  0.0722  0.8796  0.4835
  926MOL0     C24940   7.804   7.939   3.264 -0.4625 -0.5629  0.1616
  926MOL0     C24941   7.935   7.888   3.234 -0.7822  1.0675  0.0377
  926MOL0     C24942   8.028   7.976   3.156  0.3198 -0.4609  0.5925
  926MOL0     H24943   8.219   7.390   3.474 -0.7278 -3.1210  0.0360
  926MOL0     H24944   8.371   7.218   3.430  0.0239 -1.0693 -1.7956
  926MOL0     H24945   8.540   7.091   3.391  1.1096  1.4478  1.1498
  926MOL0     H24946   8.625   7.029   3.253 -1.0099  1.4160 -2.7840
  926MOL0     H24947   8.626   7.310   3.306  0.9003  1.4488 -3.9167
  926MOL0     H24948   8.718   7.209   3.188 -0.0261 -0.0433 -0.4043
  926MOL0     H24949   8.841   7.090   3.354 -0.4102 -0.2478 -0.5414
  926MOL0     H24950   8.739   7.143   3.481  2.1974 -3.1330 -0.0949
  926MOL0     H24951   8.920   7.344   3.349 -2.3488  0.4228 -1.3435
  926MOL0     H24952   8.783   7.375   3.438  0.1844 -0.0573 -2.4131
  926MOL0     H24953   8.975   7.359   3.600 -2.3990 -0.3601  1.6771
  926MOL0     H24954   8.885   7.211   3.619 -1.8379  0.9893 -1.0866
  926MOL0     H24955   9.058   7.136   3.405  2.5399 -0.0950 -0.3071
  926MOL0     H24956   9.165   7.255   3.469 -0.1302 -1.2666 -1.0273
  926MOL0     H24957   9.032   7.037   3.642 -1.4548  1.2219 -0.7326
  926MOL0     H24958   9.122   7.180   3.688  1.5835  0.4055 -0.3025
  926MOL0     H24959   9.315   7.092   3.539 -1.2893  0.0397  0.1303
  926MOL0     H24960   9.305   6.994   3.679  0.1699  0.1075  0.2315
  926MOL0     H24961   9.223   6.732   3.664  2.8939 -0.0454  0.4765
  926MOL0     H24962   9.073   6.540   3.492 -0.2138 -0.8592 -0.5972
  926MOL0     H24963   9.173   6.527   3.342 -1.3296 -2.0691  0.9001
  926MOL0     H24964   9.288   6.491   3.629 -1.2301  0.3065  0.5668
  926MOL0     H24965   9.257   6.364   3.532  5.1773 -2.3705  0.5122
  926MOL0     H24966   9.482   6.422   3.510 -1.7277 -3.2126 -0.5039
  926MOL0     H24967   9.454   6.577   3.447  1.5052 -1.5474  2.3718
  926MOL0     H24968   9.349   6.487   3.244 -2.7996 -0.9665  1.7074
  926MOL0     H24969   9.385   6.323   3.302 -1.8055  0.2257  0.4680
  926MOL0     H24970   9.749   6.455   3.111  1.8533  0.8862  1.8023
  926MOL0     H24971   9.799   6.624   2.931  0.8363  2.4284  0.1795
  926MOL0     H24972   9.552   7.108   2.729 -2.2484 -0.2708  2.6614
  926MOL0     H24973   9.667   7.292   2.583  1.2283 -0.4302 -1.3603
  926MOL0     H24974   9.992   7.513   2.759  0.6804  0.4958 -1.0205
  926MOL0     H24975  10.078   7.398   2.648 -0.8605 -1.3735 -1.1573
  926MOL0     H24976   9.931   7.597   2.496  0.0477 -2.3735 -0.1737
  926MOL0     H24977  10.021   7.675   2.623 -1.6460  0.1844  0.9168
  926MOL0     H24978  10.219   7.508   2.540 -1.7857 -2.3363  0.9372
  926MOL0     H24979  10.132   7.506   2.396 -2.0851 -0.1664  1.2229
  926MOL0     H24980  10.246   7.742   2.549 -3.5318  3.5328 -0.0765
  926MOL0     H24981  10.140   7.766   2.407 -2.5856 -1.6239  1.2223
  926MOL0     H24982  10.297   7.653   2.254 -0.2236  3.3327 -1.1917
  926MOL0     H24983  10.396   7.595   2.383 -0.7990 -0.7173  0.3238
  926MOL0     H24984  10.474   7.849   2.406 -3.3030  1.2484  1.0239
  926MOL0     H24985  10.523   7.786   2.254  0.2930  0.0603 -0.3916
  926MOL0     H24986  10.245   7.901   2.287 -0.2710 -0.4422 -0.5394
  926MOL0     H24987  10.325   7.846   2.134 -0.0202  4.3648 -1.3085
  926MOL0     H24988  10.326   8.092   2.164  0.3075  0.7354  0.1532
  926MOL0     H24989  10.426   8.067   2.307  0.1604 -0.1823 -0.1508
  926MOL0     H24990   9.996   7.298   2.855 -0.1780  1.1294 -0.0909
  926MOL0     H24991   9.882   7.118   2.991 -0.4084 -0.2830  0.0627
  926MOL0     H24992   9.499   6.886   3.093 -1.7341 -0.0886 -0.5479
  926MOL0     H24993   9.452   6.714   3.265  0.0966 -1.9235  1.1958
  926MOL0     H24994   8.377   7.329   3.014  2.4672  0.7486  0.7849
  926MOL0     H24995   8.235   7.512   3.060  0.9982  1.5724  0.5085
  926MOL0     H24996   7.886   7.587   3.392  1.3979  0.9842  2.9165
  926MOL0     H24997   7.666   7.689   3.434 -0.9265  1.8157 -1.1276
  926MOL0     H24998   7.573   8.012   3.169  1.0058 -0.0131  0.4027
  926MOL0     H24999   7.577   8.108   3.325 -2.0501 -2.3653  4.5500
  926MOL0     H25000   7.320   8.003   3.200 -0.9787  1.6835 -0.2211
  926MOL0     H25001   7.364   8.166   3.260  0.8484  0.2009 -3.3092
  926MOL0     H25002   7.340   7.931   3.440 -2.4142 -1.4618 -3.2645
  926MOL0     H25003   7.212   8.047   3.407  1.1130  1.5281 -1.1111
  926MOL0     H25004   7.326   8.087   3.621 -0.7077  0.4826  0.5127
  926MOL0     H25005   7.473   8.131   3.534 -0.5624  0.9162 -1.1003
  926MOL0     H25006   7.239   8.488   3.540 -0.2736  0.2245  2.7002
  926MOL0     H25007   7.781   8.043   3.242 -1.8456 -0.6536  1.0344
  926MOL0     H25008   8.089   7.922   3.082 -2.0899 -1.2850 -0.9096
  926MOL0     H25009   7.981   8.054   3.095 -0.0789  0.9404  2.6212
  926MOL0     H25010   8.090   8.029   3.228 -0.3146 -0.9782  1.5324
  927MOL0     O25011   4.945   2.813   6.636 -0.3850  0.1887 -0.4373
  927MOL0     C25012   4.870   2.890   6.582  0.2431  0.2010  0.4481
  927MOL0     O25013   4.735   2.908   6.615 -0.0751 -0.4461 -0.1662
  927MOL0     C25014   4.661   2.822   6.685  0.2955  0.6727 -0.3668
  927MOL0     C25015   4.679   2.680   6.693  0.3199  0.7252  0.0309
  927MOL0     C25016   4.597   2.608   6.772 -0.5748  0.2840 -0.0723
  927MOL0     C25017   4.492   2.674   6.851  0.7281  0.0514 -0.2722
  927MOL0     O25018   4.404   2.608   6.930  0.0462  0.1037 -0.5667
  927MOL0     C25019   4.405   2.466   6.957  0.1018  0.0744 -0.4167
  927MOL0     C25020   4.329   2.433   7.083  0.1823 -0.3881  0.0623
  927MOL0     C25021   4.399   2.486   7.208  0.1125  0.1745  0.3919
  927MOL0     C25022   4.311   2.417   7.315  0.2229  0.5690 -0.6596
  927MOL0     C25023   4.361   2.470   7.457 -0.5429 -0.2996  1.4872
  927MOL0     C25024   4.272   2.408   7.564  0.6223 -0.5867 -0.5371
  927MOL0     C25025   4.309   2.458   7.700 -0.5212  0.8275  0.5797
  927MOL0     C25026   4.244   2.593   7.732  0.7044  0.2961  0.0244
  927MOL0     N25027   4.248   2.593   7.878  0.7117  0.2651  1.0336
  927MOL0     C25028   4.365   2.576   7.962 -0.3270 -0.5385 -0.1037
  927MOL0     C25029   4.314   2.556   8.087  0.7515  0.4767 -0.1328
  927MOL0     C25030   4.384   2.529   8.217  0.4156 -0.3787  0.4365
  927MOL0     C25031   4.318   2.597   8.328 -0.4436 -0.4758 -0.6855
  927MOL0     C25032   4.365   2.576   8.467 -0.4676 -0.2210 -0.2348
  927MOL0     C25033   4.513   2.626   8.486  0.1087 -0.2932 -0.3415
  927MOL0     O25034   4.601   2.543   8.409 -0.2128  0.0996 -0.0985
  927MOL0     C25035   4.716   2.494   8.470 -0.4727 -0.7452  0.2013
  927MOL0     C25036   4.779   2.394   8.407  1.0978 -0.8517 -0.4090
  927MOL0     C25037   4.901   2.351   8.443  0.0656  0.3653 -0.2313
  927MOL0     C25038   4.963   2.391   8.558 -0.1978  0.3908  1.7409
  927MOL0     C25039   5.090   2.334   8.601  0.0977  0.0404 -0.2131
  927MOL0     O25040   5.161   2.279   8.489  0.6080 -0.1949 -1.5371
  927MOL0     C25041   5.287   2.227   8.493 -0.7974  1.0551  0.5022
  927MOL0     C25042   5.357   2.177   8.604 -1.0488  0.9607 -0.4120
  927MOL0     C25043   5.489   2.124   8.593  0.4970 -0.9360 -0.4445
  927MOL0     C25044   5.549   2.130   8.473 -0.4632 -0.6996  0.5088
  927MOL0     O25045   5.678   2.094   8.467 -0.6432 -0.3123 -0.4598
  927MOL0     C25046   5.766   2.207   8.472  0.5393  0.0056  0.4584
  927MOL0     C25047   5.886   2.182   8.560 -0.1260  0.0344 -0.6066
  927MOL0     C25048   5.847   2.215   8.703 -0.1572  0.2091 -0.0241
  927MOL0     C25049   5.860   2.359   8.740 -0.3477 -0.2974 -0.9715
  927MOL0     C25050   5.834   2.388   8.894  0.3008  0.8177  0.1799
  927MOL0     C25051   5.870   2.536   8.931  1.1053 -0.9575 -0.3735
  927MOL0     C25052   5.783   2.578   9.044  0.1132 -0.9698 -0.5011
  927MOL0     C25053   5.846   2.697   9.119  0.0468 -0.4868 -0.1273
  927MOL0    Cl25054   6.015   2.671   9.177  0.5215 -0.1541  0.1837
  927MOL0     C25055   5.486   2.189   8.356  0.2411  0.4254  0.1138
  927MOL0     C25056   5.356   2.246   8.373 -0.2716  1.2592  0.7576
  927MOL0     O25057   5.131   2.346   8.712 -0.5660  0.1074  0.7096
  927MOL0     C25058   4.906   2.491   8.631 -0.2486 -0.6449  0.0303
  927MOL0     C25059   4.777   2.542   8.582  0.6419 -0.5572 -0.0437
  927MOL0     N25060   4.177   2.561   8.074  0.3713 -0.5518  0.3841
  927MOL0     N25061   4.137   2.591   7.950 -0.7049  0.1536 -1.5838
  927MOL0     C25062   4.482   2.818   6.847 -0.5369 -1.2895  0.3725
  927MOL0     C25063   4.563   2.883   6.760  0.0524 -0.1557  0.5777
  927MOL0     C25064   4.933   2.966   6.472 -0.3743 -0.3350  0.5396
  927MOL0     C25065   5.057   2.917   6.416  0.1663  0.5236 -0.7953
  927MOL0     C25066   5.130   2.989   6.319  0.3466  0.6437 -0.8339
  927MOL0     C25067   5.082   3.106   6.271  0.5806  0.3845  0.4750
  927MOL0     O25068   5.138   3.170   6.174 -0.6228 -0.0973  0.6952
  927MOL0     C25069   5.170   3.095   6.054 -0.0992 -0.2653 -0.1656
  927MOL0     C25070   5.083   3.152   5.946  0.8779  0.0441  0.5465
  927MOL0     C25071   5.076   3.064   5.824  0.4553 -0.2075 -0.3176
  927MOL0     C25072   4.971   3.116   5.722  0.4354 -0.2090  0.0781
  927MOL0     C25073   5.028   3.243   5.671  0.0480  1.0098  0.2904
  927MOL0     C25074   5.074   3.341   5.618  0.8322  0.6557 -0.3897
  927MOL0     C25075   4.964   3.153   6.325  0.5045 -0.4134 -0.0166
  927MOL0     C25076   4.894   3.091   6.427  0.1503  0.4999  0.1767
  927MOL0     C25077   4.759   3.146   6.465 -0.1809 -0.3935  0.1215
  927MOL0     H25078   4.750   2.625   6.631 -0.7644 -0.3669 -0.2693
  927MOL0     H25079   4.618   2.502   6.779  1.7017  0.5206 -1.9812
  927MOL0     H25080   4.380   2.403   6.871 -0.0721  0.0254 -0.3314
  927MOL0     H25081   4.507   2.440   6.987 -0.4528 -2.1563 -0.2795
  927MOL0     H25082   4.308   2.325   7.085  0.8012 -0.5071  0.4349
  927MOL0     H25083   4.230   2.475   7.064  0.0179 -0.7506  0.0937
  927MOL0     H25084   4.400   2.595   7.219  0.5657 -0.0162  3.0235
  927MOL0     H25085   4.501   2.451   7.225 -1.0548 -1.6014  5.5698
  927MOL0     H25086   4.204   2.434   7.298 -0.2295  0.8983  2.1036
  927MOL0     H25087   4.331   2.310   7.301 -0.7825  0.2120  0.4596
  927MOL0     H25088   4.468   2.450   7.470  0.2041  3.4921  2.4173
  927MOL0     H25089   4.372   2.578   7.447 -0.6357 -0.2828  1.5483
  927MOL0     H25090   4.167   2.433   7.545  1.2523  1.6158 -1.4375
  927MOL0     H25091   4.265   2.299   7.553 -3.4391 -0.5993  0.6379
  927MOL0     H25092   4.415   2.467   7.725 -0.6458 -2.2798  2.9194
  927MOL0     H25093   4.267   2.379   7.764 -0.0772 -3.3941 -3.7213
  927MOL0     H25094   4.306   2.677   7.703 -0.1476  1.4887  1.5119
  927MOL0     H25095   4.144   2.603   7.690 -0.0642  0.5721  1.8198
  927MOL0     H25096   4.465   2.558   7.924 -1.5102 -2.7620 -2.5161
  927MOL0     H25097   4.386   2.421   8.235  3.8970 -0.9324 -2.1702
  927MOL0     H25098   4.482   2.576   8.205 -1.7399  5.2231  1.9492
  927MOL0     H25099   4.314   2.705   8.313 -1.2310 -0.0779  1.8659
  927MOL0     H25100   4.216   2.559   8.326  0.0285 -1.8031 -2.5975
  927MOL0     H25101   4.349   2.477   8.509 -0.4337 -0.0886  0.0976
  927MOL0     H25102   4.303   2.637   8.534 -0.8734 -1.3764  0.4532
  927MOL0     H25103   4.533   2.627   8.593 -1.8134  0.4883  0.0543
  927MOL0     H25104   4.528   2.728   8.449  1.1558  0.3308  1.6733
  927MOL0     H25105   4.750   2.354   8.311  1.8661  0.3811 -1.1861
  927MOL0     H25106   4.949   2.270   8.389 -0.1562  0.6078 -0.7991
  927MOL0     H25107   5.312   2.169   8.702  0.8812 -0.2219  0.4358
  927MOL0     H25108   5.529   2.094   8.690 -0.0970  0.9156  0.4215
  927MOL0     H25109   5.809   2.229   8.374 -0.5662 -0.4685 -0.1466
  927MOL0     H25110   5.706   2.293   8.503  0.3929  0.9140 -2.1640
  927MOL0     H25111   5.924   2.082   8.540 -0.2516  0.2701 -2.1356
  927MOL0     H25112   5.964   2.257   8.539 -0.4928  0.1812 -1.4884
  927MOL0     H25113   5.745   2.184   8.728 -0.5383  0.2638 -1.4648
  927MOL0     H25114   5.914   2.161   8.771 -2.8091 -2.0779  0.9501
  927MOL0     H25115   5.807   2.414   8.662 -0.3947 -2.9562 -2.9335
  927MOL0     H25116   5.966   2.387   8.728  0.1453 -1.4457  0.4322
  927MOL0     H25117   5.895   2.317   8.950 -0.9205  0.0794  0.6246
  927MOL0     H25118   5.727   2.370   8.911  0.1314 -0.6558 -1.9792
  927MOL0     H25119   5.976   2.558   8.946  1.0741  1.0364 -2.4437
  927MOL0     H25120   5.833   2.592   8.844 -1.9211 -0.8946  0.8154
  927MOL0     H25121   5.763   2.498   9.116  1.4673 -2.3943 -1.6213
  927MOL0     H25122   5.687   2.606   8.999 -0.6578 -3.5574 -0.6594
  927MOL0     H25123   5.848   2.780   9.049 -2.2487 -0.9025 -0.7624
  927MOL0     H25124   5.782   2.733   9.200  1.3886 -3.4359  2.5006
  927MOL0     H25125   5.534   2.185   8.259  1.2514  0.7214  0.5904
  927MOL0     H25126   5.295   2.280   8.289 -1.2667 -3.1446 -0.5374
  927MOL0     H25127   4.964   2.530   8.714  0.7830 -0.9510 -0.5216
  927MOL0     H25128   4.733   2.612   8.653 -0.8350 -1.6727  0.1674
  927MOL0     H25129   4.401   2.864   6.902 -0.5420 -0.8174 -0.0236
  927MOL0     H25130   4.558   2.991   6.751  2.2399  0.2386  2.8596
  927MOL0     H25131   5.087   2.822   6.458 -4.9664 -1.2700 -0.4143
  927MOL0     H25132   5.227   2.948   6.293  1.0442  0.8337  1.2068
  927MOL0     H25133   5.158   2.987   6.063  0.6994 -0.2628  1.2412
  927MOL0     H25134   5.273   3.113   6.023 -0.2697 -0.1312 -0.6616
  927MOL0     H25135   5.114   3.253   5.920  3.1961 -1.1378 -1.8100
  927MOL0     H25136   4.982   3.151   5.987 -0.3523 -0.7172 -2.2157
  927MOL0     H25137   5.034   2.965   5.844 -1.0764  0.0384 -2.0493
  927MOL0     H25138   5.179   3.062   5.786  1.0831 -2.7491  1.2174
  927MOL0     H25139   4.940   3.049   5.641 -2.2986  1.6504 -0.5663
  927MOL0     H25140   4.877   3.143   5.771 -0.1971  0.4781 -1.4268
  927MOL0     H25141   5.116   3.432   5.580 -0.1681  1.1824 -0.2836
  927MOL0     H25142   4.919   3.246   6.292 -1.0348 -0.1600  2.5466
  927MOL0     H25143   4.764   3.162   6.574  0.1663 -0.4815  0.1210
  927MOL0     H25144   4.749   3.242   6.413  1.7236  0.0981  0.5755
  927MOL0     H25145   4.680   3.075   6.439 -1.9757  0.8761  1.7901
  928MOL0     O25146   2.276   6.211   8.197  0.0116  0.3512  0.9389
  928MOL0     C25147   2.228   6.108   8.156  0.4697  1.1751  0.9471
  928MOL0     O25148   2.173   6.017   8.243  0.1629  0.1401  0.2900
  928MOL0     C25149   2.047   5.973   8.206 -1.6273  0.1524 -0.3517
  928MOL0     C25150   2.008   5.846   8.250  1.0179  0.9198 -0.8098
  928MOL0     C25151   1.881   5.805   8.213  0.3646  0.1149 -0.3949
  928MOL0     C25152   1.788   5.888   8.156 -0.6240 -0.6764 -0.1389
  928MOL0     O25153   1.667   5.833   8.130  0.0171  0.0055 -0.5537
  928MOL0     C25154   1.624   5.832   7.997  0.1815  0.2055 -0.5595
  928MOL0     C25155   1.470   5.801   8.007 -0.4486 -0.2973 -0.0881
  928MOL0     C25156   1.392   5.801   7.874  0.1915  0.4847 -0.2611
  928MOL0     C25157   1.239   5.831   7.902  0.0235 -0.7624  0.4411
  928MOL0     C25158   1.169   5.884   7.778  0.0958  0.5520  0.3394
  928MOL0     C25159   1.030   5.945   7.800 -0.2157 -0.2860 -0.9199
  928MOL0     C25160   0.988   6.036   7.689  0.3255  0.1542 -0.5244
  928MOL0     C25161   0.836   6.050   7.711  0.4602 -0.3743  0.3369
  928MOL0     N25162   0.801   6.115   7.842  0.0921 -0.0369 -0.0774
  928MOL0     C25163   0.743   6.048   7.944 -0.4528 -1.2501  0.3609
  928MOL0     C25164   0.764   6.134   8.052  0.7981 -0.5385  0.1075
  928MOL0     C25165   0.726   6.101   8.202  0.8991  0.2776  0.0786
  928MOL0     C25166   0.603   6.180   8.247 -0.4134 -0.2884  0.6894
  928MOL0     C25167   0.534   6.122   8.383 -0.1166  0.4664  0.5447
  928MOL0     C25168   0.449   6.003   8.351  0.1949 -0.0868 -0.8768
  928MOL0     O25169   0.328   6.060   8.311  0.1242  0.0608  0.1519
  928MOL0     C25170   0.206   5.997   8.325  0.0260  0.6000  0.2558
  928MOL0     C25171   0.184   5.867   8.380 -0.0241 -0.0289  0.3254
  928MOL0     C25172   0.062   5.803   8.370  0.4686 -0.6503 -0.2874
  928MOL0     C25173  -0.058   5.866   8.319 -0.1597  0.1831 -0.1526
  928MOL0     C25174  -0.181   5.789   8.313 -0.4264  0.4614  0.0590
  928MOL0     O25175  -0.194   5.648   8.332 -0.6997 -0.6260  0.1227
  928MOL0     C25176  -0.324   5.599   8.370  0.7632 -0.3251  0.0554
  928MOL0     C25177  -0.403   5.651   8.472 -0.6208  0.5990  0.8975
  928MOL0     C25178  -0.524   5.597   8.500  0.4064 -0.7863  0.1831
  928MOL0     C25179  -0.564   5.477   8.433 -0.7819 -0.3175  0.3045
  928MOL0     O25180  -0.666   5.401   8.456  1.2521  1.0839  0.3023
  928MOL0     C25181  -0.761   5.438   8.553  0.4638 -0.2642 -0.2625
  928MOL0     C25182  -0.892   5.365   8.558  0.1431  0.2377  0.4796
  928MOL0     C25183  -0.992   5.392   8.665 -0.6221 -0.0163 -0.8150
  928MOL0     C25184  -1.090   5.283   8.673  0.4263  0.2156 -1.0588
  928MOL0     C25185  -1.209   5.328   8.763 -0.4754  0.7763  0.1835
  928MOL0     C25186  -1.312   5.217   8.764  1.2232 -0.2739  0.3658
  928MOL0     C25187  -1.349   5.166   8.625  0.8449  1.0748 -0.5319
  928MOL0     C25188  -1.474   5.079   8.641  0.0372  0.4583  0.5180
  928MOL0    Cl25189  -1.498   4.992   8.803  0.0416  0.0917 -0.5447
  928MOL0     C25190  -0.483   5.423   8.331  0.0368 -0.4642  0.2541
  928MOL0     C25191  -0.363   5.481   8.305  0.1758  0.3966  0.7453
  928MOL0     O25192  -0.278   5.862   8.310 -0.5823 -0.2948  0.2742
  928MOL0     C25193  -0.036   6.001   8.284  0.1011 -0.3440 -0.0804
  928MOL0     C25194   0.093   6.061   8.278 -0.2149 -0.4495  0.1054
  928MOL0     N25195   0.839   6.247   8.010  0.4060  0.3956  1.2553
  928MOL0     N25196   0.862   6.234   7.881  0.0599  0.4727  0.2329
  928MOL0     C25197   1.823   6.020   8.131  0.3999 -0.0006 -0.0727
  928MOL0     C25198   1.957   6.059   8.139 -0.4228 -0.4487  0.6261
  928MOL0     C25199   2.223   6.086   8.003  0.0200 -0.7114  0.7489
  928MOL0     C25200   2.195   5.956   7.957  0.4091  0.2881 -0.3794
  928MOL0     C25201   2.160   5.933   7.823 -0.3978  0.0267  0.4860
  928MOL0     C25202   2.187   6.031   7.730 -0.1159 -1.2373 -0.3528
  928MOL0     O25203   2.144   5.998   7.611  0.1389  0.2982 -0.0691
  928MOL0     C25204   2.242   6.022   7.503 -0.9309 -0.1444 -0.5932
  928MOL0     C25205   2.292   5.894   7.428 -0.6347  0.0844 -0.5291
  928MOL0     C25206   2.184   5.808   7.361 -0.4849 -0.0861 -1.4637
  928MOL0     C25207   2.119   5.728   7.469  1.2377  0.1430  0.1384
  928MOL0     C25208   2.033   5.616   7.410  0.0190  0.6683 -0.6011
  928MOL0     C25209   1.964   5.522   7.378 -0.6905 -0.1015  0.5170
  928MOL0     C25210   2.222   6.167   7.764 -0.2023 -0.2193 -0.4377
  928MOL0     C25211   2.257   6.189   7.908  0.4389  0.5882  0.6937
  928MOL0     C25212   2.291   6.330   7.933 -0.0466  0.6691 -0.5870
  928MOL0     H25213   2.080   5.777   8.292 -0.7678  0.1631  1.1842
  928MOL0     H25214   1.854   5.702   8.235  3.0759 -0.2218  2.0707
  928MOL0     H25215   1.640   5.933   7.959 -0.4244  1.3171  1.9559
  928MOL0     H25216   1.677   5.753   7.942  1.0503  0.0420  0.4781
  928MOL0     H25217   1.435   5.878   8.076  2.5592  1.7205 -0.6178
  928MOL0     H25218   1.460   5.702   8.053  0.5457  1.2200  3.8278
  928MOL0     H25219   1.399   5.699   7.835 -0.7345  0.3701 -0.1459
  928MOL0     H25220   1.436   5.866   7.798  3.4019 -2.1949 -0.9452
  928MOL0     H25221   1.182   5.744   7.936 -1.9381  0.2592 -0.0707
  928MOL0     H25222   1.231   5.919   7.966  0.9958  0.4514 -1.0369
  928MOL0     H25223   1.226   5.960   7.722 -0.0448  1.4897  1.4273
  928MOL0     H25224   1.158   5.801   7.708 -2.6867  2.1170 -1.2560
  928MOL0     H25225   0.949   5.871   7.806 -2.3191  1.6084 -3.3317
  928MOL0     H25226   1.024   6.000   7.894  1.7516 -1.6117  0.0414
  928MOL0     H25227   0.996   5.984   7.592  1.0105  1.3189 -1.1177
  928MOL0     H25228   1.041   6.131   7.688  1.1473 -0.2578 -2.5542
  928MOL0     H25229   0.792   6.111   7.631 -0.0244 -4.3260 -2.6960
  928MOL0     H25230   0.777   5.963   7.683 -0.9441  1.2289 -2.0730
  928MOL0     H25231   0.690   5.953   7.939 -1.3531 -0.9068  2.4050
  928MOL0     H25232   0.730   5.992   8.213  3.0654  0.2851 -0.0957
  928MOL0     H25233   0.803   6.135   8.272  0.8703  2.4842 -0.8808
  928MOL0     H25234   0.634   6.284   8.265  1.4377 -0.6290 -0.2706
  928MOL0     H25235   0.538   6.183   8.158  0.4847 -4.0437 -0.2430
  928MOL0     H25236   0.478   6.198   8.437 -0.1056 -1.2707  3.1886
  928MOL0     H25237   0.616   6.087   8.446 -1.4685  0.5121  2.4285
  928MOL0     H25238   0.452   5.936   8.438  0.0869  0.0296 -0.7821
  928MOL0     H25239   0.507   5.952   8.274  1.8840 -2.3724  1.7521
  928MOL0     H25240   0.258   5.809   8.433 -0.8024  0.0156  1.5073
  928MOL0     H25241   0.048   5.697   8.388 -2.8641 -0.2047  0.5241
  928MOL0     H25242  -0.369   5.743   8.518  2.3803  0.6399 -1.1643
  928MOL0     H25243  -0.573   5.632   8.591  1.8415  0.6258  0.4568
  928MOL0     H25244  -0.709   5.425   8.648  1.1533  1.0035 -0.4347
  928MOL0     H25245  -0.787   5.544   8.539 -2.8981 -0.8991  0.3923
  928MOL0     H25246  -0.955   5.387   8.471  0.1725  0.1794  0.4440
  928MOL0     H25247  -0.864   5.259   8.567  0.0034  0.0302 -1.1249
  928MOL0     H25248  -0.938   5.406   8.759 -0.6569  1.6653 -1.0269
  928MOL0     H25249  -1.041   5.486   8.637 -0.0537  0.4546 -0.2546
  928MOL0     H25250  -1.040   5.198   8.721 -1.1178 -1.1469 -1.7624
  928MOL0     H25251  -1.111   5.237   8.576 -0.6030  0.1086 -0.8005
  928MOL0     H25252  -1.257   5.418   8.724 -0.3179  1.6811  1.9782
  928MOL0     H25253  -1.166   5.353   8.860 -0.4165 -2.6673  1.1890
  928MOL0     H25254  -1.272   5.131   8.818  1.6292 -0.5960 -0.4318
  928MOL0     H25255  -1.398   5.259   8.817  1.1464  2.1864 -1.5349
  928MOL0     H25256  -1.281   5.093   8.580  0.5343  0.5981 -0.2318
  928MOL0     H25257  -1.350   5.243   8.547 -1.7187  0.2544 -1.3968
  928MOL0     H25258  -1.553   5.155   8.646 -1.1787 -0.8373  3.0613
  928MOL0     H25259  -1.487   5.014   8.555 -0.9426 -0.0215  1.0078
  928MOL0     H25260  -0.511   5.331   8.281 -0.3802  0.5189 -1.4395
  928MOL0     H25261  -0.297   5.443   8.228  2.0185  4.3632  0.1196
  928MOL0     H25262  -0.128   6.057   8.267  1.3175  2.1711  1.1081
  928MOL0     H25263   0.098   6.160   8.235 -1.4186 -0.5325 -0.2611
  928MOL0     H25264   1.748   6.083   8.084  1.3873  0.2735 -1.3254
  928MOL0     H25265   1.985   6.155   8.097  0.3917 -0.1004  1.8960
  928MOL0     H25266   2.168   5.871   8.019 -0.4704  0.5241 -0.4262
  928MOL0     H25267   2.123   5.836   7.792 -1.1421 -0.3382  2.3700
  928MOL0     H25268   2.336   6.072   7.528  0.4656 -1.5701 -2.6358
  928MOL0     H25269   2.185   6.078   7.428  1.5059  1.5179 -1.2950
  928MOL0     H25270   2.355   5.829   7.490 -2.9457 -2.2621 -0.4670
  928MOL0     H25271   2.348   5.934   7.343  0.7350  3.6660  1.8384
  928MOL0     H25272   2.231   5.735   7.294  0.4418 -1.0475  0.1720
  928MOL0     H25273   2.116   5.868   7.300 -0.6153 -0.2632 -1.4908
  928MOL0     H25274   2.197   5.672   7.520  0.6658  0.9283  1.9540
  928MOL0     H25275   2.057   5.795   7.530 -1.1192 -0.0158 -1.8904
  928MOL0     H25276   1.893   5.444   7.356  0.1772  0.2560 -5.1404
  928MOL0     H25277   2.243   6.246   7.692 -0.0168  1.3251  1.2346
  928MOL0     H25278   2.300   6.395   7.846  0.0352  2.7765  0.9016
  928MOL0     H25279   2.229   6.377   8.010 -0.9334 -0.1891 -0.7665
  928MOL0     H25280   2.390   6.342   7.979  1.2341  2.1984 -3.4872
  929MOL0     O25281   3.248   5.482   9.937 -0.0953 -0.4678  0.0051
  929MOL0     C25282   3.184   5.555  10.014 -0.5498  0.0034 -0.6885
  929MOL0     O25283   3.097   5.514  10.113  0.4089  0.7988  1.2816
  929MOL0     C25284   3.059   5.379  10.133 -0.0364 -0.6928 -0.8678
  929MOL0     C25285   3.048   5.287  10.033  0.4000  0.0185 -0.2653
  929MOL0     C25286   2.993   5.159  10.063  0.0326 -1.5134  0.6284
  929MOL0     C25287   2.962   5.126  10.194 -1.4159 -0.0221 -0.6711
  929MOL0     O25288   2.912   5.001  10.216  1.1714  0.4298  0.2638
  929MOL0     C25289   2.772   4.980  10.177 -0.4651 -0.2402  0.6220
  929MOL0     C25290   2.748   4.834  10.162 -0.8121 -0.8642  0.5213
  929MOL0     C25291   2.772   4.799  10.010 -0.0593 -0.1188 -0.1643
  929MOL0     C25292   2.753   4.647   9.990 -0.7081  0.3620  0.0955
  929MOL0     C25293   2.790   4.610   9.842  0.0579 -1.0930 -0.1802
  929MOL0     C25294   2.802   4.456   9.839 -1.5142  0.3921 -0.3542
  929MOL0     C25295   2.829   4.401   9.694 -0.0512 -0.6276  0.3620
  929MOL0     C25296   2.846   4.257   9.698 -0.3530 -0.3017 -0.1090
  929MOL0     N25297   2.842   4.203   9.557  0.3225 -0.4387 -0.6803
  929MOL0     C25298   2.797   4.078   9.527  0.0812 -0.2777 -0.4798
  929MOL0     C25299   2.794   4.085   9.394 -0.6878  0.3902 -0.1280
  929MOL0     C25300   2.731   3.977   9.303  0.1200  0.4381  0.6445
  929MOL0     C25301   2.818   3.850   9.266  0.7707 -0.3530 -0.4871
  929MOL0     C25302   2.732   3.728   9.281  0.2438  0.5811  0.7985
  929MOL0     C25303   2.810   3.621   9.194  0.7539  0.2499  1.1010
  929MOL0     O25304   2.790   3.654   9.052 -0.1741 -0.1797  0.0467
  929MOL0     C25305   2.706   3.560   8.993 -0.0928 -0.4308 -0.2870
  929MOL0     C25306   2.741   3.429   8.971 -0.3950 -0.6100 -0.2528
  929MOL0     C25307   2.647   3.332   8.919 -0.8379  0.1097 -0.1217
  929MOL0     C25308   2.516   3.386   8.897 -0.2047  0.4490  0.4463
  929MOL0     C25309   2.418   3.296   8.832 -0.0008 -0.7952  0.0655
  929MOL0     O25310   2.286   3.338   8.840  0.1170 -0.0671  0.2962
  929MOL0     C25311   2.189   3.279   8.772  1.0668  0.4019  0.9214
  929MOL0     C25312   2.199   3.201   8.654 -0.0506  0.5546  0.4935
  929MOL0     C25313   2.085   3.141   8.589 -0.6169  0.0973 -0.3694
  929MOL0     C25314   1.957   3.137   8.653  0.0379 -0.4553  0.6183
  929MOL0     O25315   1.838   3.098   8.591  0.3535  0.1282  1.1081
  929MOL0     C25316   1.827   2.966   8.523 -0.5146  0.8066  0.0218
  929MOL0     C25317   1.684   2.945   8.463  0.5658 -0.4499  0.1471
  929MOL0     C25318   1.663   2.794   8.436  0.5573  0.4924 -0.1158
  929MOL0     C25319   1.771   2.718   8.365  0.5772  0.2310  0.5756
  929MOL0     C25320   1.736   2.565   8.335 -0.9308 -0.2805  1.2000
  929MOL0     C25321   1.855   2.474   8.288  0.8131  0.4963  0.3611
  929MOL0     C25322   1.809   2.341   8.258  1.2061 -0.3286  0.3427
  929MOL0     C25323   1.926   2.242   8.256  0.7398 -0.0874  0.3740
  929MOL0    Cl25324   1.999   2.255   8.102 -0.1216  0.4521  0.0249
  929MOL0     C25325   1.948   3.206   8.772  0.4788  0.1253  0.4511
  929MOL0     C25326   2.064   3.274   8.822  0.2521 -1.3211  0.0095
  929MOL0     O25327   2.457   3.197   8.779  0.8924  0.5186  0.9131
  929MOL0     C25328   2.485   3.524   8.908  0.7446  0.1467  0.2566
  929MOL0     C25329   2.585   3.611   8.956  0.3644 -0.3211 -0.2196
  929MOL0     N25330   2.833   4.211   9.346  0.8884  0.4261  0.6723
  929MOL0     N25331   2.867   4.276   9.451 -0.6584 -0.5428 -0.7671
  929MOL0     C25332   2.993   5.216  10.299 -0.2077 -0.5917 -0.3561
  929MOL0     C25333   3.032   5.343  10.265 -0.4876 -0.1306 -0.7107
  929MOL0     C25334   3.193   5.702   9.990 -0.6787 -0.9813  0.0505
  929MOL0     C25335   3.120   5.784  10.081 -0.1286  0.1009  0.3105
  929MOL0     C25336   3.127   5.925  10.061 -0.7492 -0.8891 -0.4235
  929MOL0     C25337   3.219   5.986   9.976  0.1547 -0.6940 -0.8294
  929MOL0     O25338   3.214   6.125   9.954 -0.4957 -0.8143  0.1800
  929MOL0     C25339   3.145   6.221  10.026  0.0895 -0.1944 -0.2378
  929MOL0     C25340   3.177   6.365   9.981 -0.0361  1.6836 -1.6282
  929MOL0     C25341   3.326   6.391   9.945 -0.3231 -0.1267 -0.0385
  929MOL0     C25342   3.364   6.530   9.990  0.1723 -0.6129 -0.4521
  929MOL0     C25343   3.289   6.631   9.922 -0.3236 -0.2176 -0.2628
  929MOL0     C25344   3.201   6.694   9.865  0.4117 -0.6033  0.4279
  929MOL0     C25345   3.298   5.907   9.901 -0.2815  0.1259 -0.0555
  929MOL0     C25346   3.286   5.768   9.901  0.3744  0.5091 -0.0584
  929MOL0     C25347   3.394   5.705   9.821 -0.1022  0.5077 -0.2203
  929MOL0     H25348   3.061   5.307   9.927 -1.0216  0.3685 -0.3893
  929MOL0     H25349   2.982   5.090   9.980  1.6176 -0.9760 -0.0763
  929MOL0     H25350   2.697   5.031  10.239 -2.3827  1.9489 -3.1519
  929MOL0     H25351   2.751   5.016  10.076 -0.3591 -1.9405 -0.0362
  929MOL0     H25352   2.641   4.822  10.181 -1.2365 -0.5545 -1.4648
  929MOL0     H25353   2.803   4.778  10.239 -1.6046  0.1706  1.8829
  929MOL0     H25354   2.873   4.832   9.985 -0.2593  0.0606 -0.7422
  929MOL0     H25355   2.696   4.852   9.953 -3.8828 -0.8018  3.7751
  929MOL0     H25356   2.819   4.582  10.049  0.9557  1.6215 -0.2889
  929MOL0     H25357   2.649   4.624  10.015 -0.9110  2.9523  2.1015
  929MOL0     H25358   2.720   4.646   9.765 -2.9050 -1.0847  2.3060
  929MOL0     H25359   2.887   4.653   9.819 -1.0339  0.4313 -2.3523
  929MOL0     H25360   2.872   4.423   9.916 -1.8116  0.1876 -0.1700
  929MOL0     H25361   2.702   4.422   9.868 -1.2079 -0.3932 -0.2122
  929MOL0     H25362   2.915   4.458   9.658 -1.2071 -0.1475 -1.8327
  929MOL0     H25363   2.742   4.436   9.638 -1.4941  0.8865  3.3462
  929MOL0     H25364   2.951   4.250   9.730 -0.2921  0.1940 -0.1913
  929MOL0     H25365   2.773   4.208   9.762 -0.9612  0.6552 -0.0547
  929MOL0     H25366   2.752   4.003   9.591  1.2657  1.0599  2.1200
  929MOL0     H25367   2.639   3.947   9.353 -0.9322  2.7024  0.2011
  929MOL0     H25368   2.699   4.030   9.213 -3.4582 -1.3542  0.6703
  929MOL0     H25369   2.858   3.862   9.165  0.9583  0.5371 -0.3126
  929MOL0     H25370   2.910   3.836   9.324  1.6065 -1.4426 -1.9914
  929MOL0     H25371   2.630   3.735   9.240  0.3354  0.0129  0.4580
  929MOL0     H25372   2.727   3.702   9.387  1.9461 -0.0426  0.7469
  929MOL0     H25373   2.767   3.522   9.211  1.1044 -0.0136  0.4836
  929MOL0     H25374   2.915   3.619   9.222  0.9192 -0.0212  0.4602
  929MOL0     H25375   2.847   3.406   8.981  0.3089  1.4016 -2.2903
  929MOL0     H25376   2.669   3.226   8.909  0.1554  0.1921  1.0536
  929MOL0     H25377   2.295   3.194   8.605  0.1242 -2.2944  1.0841
  929MOL0     H25378   2.084   3.086   8.496 -2.1040  1.8636 -1.4731
  929MOL0     H25379   1.911   2.961   8.454 -0.3331  1.6471  0.1659
  929MOL0     H25380   1.841   2.878   8.586 -0.2538 -0.7197 -2.0899
  929MOL0     H25381   1.605   2.972   8.533  1.2997  2.4930 -0.0171
  929MOL0     H25382   1.675   3.003   8.370  2.4595 -2.6690 -1.5564
  929MOL0     H25383   1.645   2.753   8.536 -1.7082 -1.0478 -1.0665
  929MOL0     H25384   1.575   2.774   8.373 -1.3925  3.0038  1.5905
  929MOL0     H25385   1.866   2.719   8.420 -1.5219  1.7493  4.5465
  929MOL0     H25386   1.786   2.775   8.273 -1.2077  1.5600  1.0593
  929MOL0     H25387   1.676   2.564   8.243 -1.0851  1.8458  1.2251
  929MOL0     H25388   1.686   2.520   8.421  1.4457 -1.8577  1.8300
  929MOL0     H25389   1.893   2.517   8.194 -3.1433  2.1772 -0.7181
  929MOL0     H25390   1.916   2.471   8.378  1.5585  1.4696 -0.0932
  929MOL0     H25391   1.742   2.343   8.172 -0.9294  1.4217  1.9483
  929MOL0     H25392   1.747   2.318   8.345  1.5627  0.2479  0.7533
  929MOL0     H25393   2.002   2.263   8.332 -0.3141  0.3516  1.3406
  929MOL0     H25394   1.892   2.147   8.298 -5.0435  1.6706  0.5371
  929MOL0     H25395   1.848   3.216   8.814 -0.6439 -1.7187 -1.5486
  929MOL0     H25396   2.045   3.327   8.915 -1.7344  1.0382 -1.6290
  929MOL0     H25397   2.389   3.559   8.872  0.2286 -1.9722 -0.5785
  929MOL0     H25398   2.559   3.716   8.951 -1.7630 -0.8342 -1.1774
  929MOL0     H25399   2.964   5.201  10.402 -4.5324  1.3198 -1.0649
  929MOL0     H25400   3.050   5.421  10.338  5.8741 -0.0682 -1.7471
  929MOL0     H25401   3.059   5.743  10.160 -1.4598  1.8151  0.2195
  929MOL0     H25402   3.071   5.978  10.137  0.0641 -3.3570  2.0354
  929MOL0     H25403   3.159   6.208  10.133  1.0577  1.3121 -0.1522
  929MOL0     H25404   3.040   6.199  10.007 -1.2041  3.4823  1.7065
  929MOL0     H25405   3.144   6.437  10.057  2.1092 -0.1997  1.2741
  929MOL0     H25406   3.131   6.396   9.887 -1.4459  2.5311 -0.6966
  929MOL0     H25407   3.342   6.383   9.837 -1.9424 -0.0489 -0.3081
  929MOL0     H25408   3.380   6.318  10.006 -2.5530 -0.7084  1.3456
  929MOL0     H25409   3.363   6.536  10.099 -1.6352 -1.7343 -0.3638
  929MOL0     H25410   3.467   6.556   9.962  0.6525 -0.5040  1.2875
  929MOL0     H25411   3.143   6.761   9.804  0.7242 -2.1475 -1.6897
  929MOL0     H25412   3.368   5.962   9.840  2.3856 -2.0955  0.8001
  929MOL0     H25413   3.447   5.634   9.884  2.8487  2.4047 -0.3832
  929MOL0     H25414   3.354   5.651   9.735 -1.0823  3.2169 -1.5904
  929MOL0     H25415   3.477   5.772   9.796  0.3271  0.3808  0.8263
  930MOL0     O25416   3.576   1.296   2.257  0.6035  0.3941  0.1711
  930MOL0     C25417   3.509   1.401   2.263 -1.2656 -0.2267 -0.0423
  930MOL0     O25418   3.439   1.448   2.164  0.5500 -0.7456 -0.1421
  930MOL0     C25419   3.406   1.377   2.050 -0.3004  0.2258 -0.3493
  930MOL0     C25420   3.406   1.236   2.032 -0.3769  0.1068  0.2472
  930MOL0     C25421   3.354   1.183   1.913  1.1210  0.0392 -0.2028
  930MOL0     C25422   3.293   1.265   1.814 -0.1507  0.1029 -1.0375
  930MOL0     O25423   3.246   1.205   1.703  1.1452  1.0401 -0.1707
  930MOL0     C25424   3.212   1.279   1.589  0.0102  0.4927  0.3202
  930MOL0     C25425   3.130   1.180   1.493 -0.2796  0.6803 -0.4597
  930MOL0     C25426   3.122   1.233   1.349  0.4449  0.1323 -0.4798
  930MOL0     C25427   3.003   1.149   1.280 -0.3982  0.2351 -0.0676
  930MOL0     C25428   3.022   1.141   1.135  0.2359 -0.1520  0.1945
  930MOL0     C25429   3.009   1.285   1.083  0.1875  0.0576 -0.0385
  930MOL0     C25430   2.864   1.351   1.113 -0.2368  0.2479 -0.0002
  930MOL0     C25431   2.815   1.454   1.018 -0.0133  0.7172 -0.1137
  930MOL0     N25432   2.910   1.560   0.995 -0.1524 -0.0769  0.0552
  930MOL0     C25433   2.926   1.640   0.882  0.0720 -0.0607 -0.5631
  930MOL0     C25434   3.034   1.722   0.906  0.8249 -0.0104 -0.5499
  930MOL0     C25435   3.068   1.827   0.808 -0.5996 -1.3176 -0.3808
  930MOL0     C25436   3.117   1.961   0.866  1.1275  0.1882  0.2620
  930MOL0     C25437   3.253   1.957   0.929 -0.2339  0.1025 -0.1719
  930MOL0     C25438   3.320   2.096   0.939 -0.0149  1.0371 -0.1161
  930MOL0     O25439   3.337   2.143   0.802 -0.4091  0.5410 -0.5607
  930MOL0     C25440   3.397   2.265   0.776 -0.5782 -0.4281  0.0585
  930MOL0     C25441   3.408   2.298   0.642 -0.4670  0.2035 -1.4110
  930MOL0     C25442   3.492   2.392   0.587 -0.2338  0.2581  0.6764
  930MOL0     C25443   3.556   2.473   0.675 -0.7286  0.0748 -0.2984
  930MOL0     C25444   3.621   2.587   0.620 -0.9088  0.1098 -0.1779
  930MOL0     O25445   3.731   2.643   0.692  0.0289 -0.3539  1.3189
  930MOL0     C25446   3.791   2.759   0.650  0.2491  0.6598 -0.6859
  930MOL0     C25447   3.790   2.861   0.739  0.8057  0.1154 -0.0302
  930MOL0     C25448   3.859   2.982   0.725  0.4663 -0.1384  0.9316
  930MOL0     C25449   3.936   2.996   0.606  0.0657 -1.1913  0.0168
  930MOL0     O25450   4.008   3.108   0.561 -0.6842 -0.2282 -0.7597
  930MOL0     C25451   4.019   3.213   0.653 -0.0016  0.9113  0.0977
  930MOL0     C25452   4.115   3.310   0.593  0.5143 -0.9631 -1.3077
  930MOL0     C25453   4.133   3.432   0.691 -0.1372  0.5648 -0.4166
  930MOL0     C25454   4.028   3.548   0.670 -1.1768 -0.0124 -0.5993
  930MOL0     C25455   4.038   3.661   0.769 -1.0919  0.1611 -0.6105
  930MOL0     C25456   3.930   3.775   0.735 -0.4368  0.7970 -0.5334
  930MOL0     C25457   3.981   3.883   0.632  0.5935 -0.5248  0.4759
  930MOL0     C25458   3.912   4.010   0.650  0.0204 -0.0035 -0.0951
  930MOL0    Cl25459   3.739   4.003   0.627  0.2090  0.6336 -0.4739
  930MOL0     C25460   3.937   2.894   0.516  0.3162  0.9141 -0.3045
  930MOL0     C25461   3.864   2.771   0.539 -0.1417 -0.4436  0.3494
  930MOL0     O25462   3.583   2.626   0.510  0.5221  0.1039  0.3363
  930MOL0     C25463   3.547   2.452   0.820 -0.8717 -1.0824 -0.2596
  930MOL0     C25464   3.463   2.350   0.864 -0.7357  0.6930 -0.5257
  930MOL0     N25465   3.083   1.690   1.031 -0.8067 -0.1786 -0.1519
  930MOL0     N25466   3.007   1.594   1.083 -0.8850  0.3829 -0.0760
  930MOL0     C25467   3.286   1.399   1.841  0.2993 -0.4215 -0.5514
  930MOL0     C25468   3.347   1.458   1.956  0.1545  0.3178  0.7334
  930MOL0     C25469   3.546   1.476   2.384  0.0531 -0.7444  0.3087
  930MOL0     C25470   3.603   1.419   2.489 -0.1070 -0.5238  0.1207
  930MOL0     C25471   3.659   1.485   2.594  0.5819  0.2283 -0.6748
  930MOL0     C25472   3.639   1.618   2.608  0.6089 -0.2901 -0.1594
  930MOL0     O25473   3.687   1.675   2.732 -0.1795 -0.5586 -0.5228
  930MOL0     C25474   3.649   1.803   2.770  0.6052  0.2889 -0.0578
  930MOL0     C25475   3.746   1.909   2.747  0.3237  0.5445 -0.4910
  930MOL0     C25476   3.800   1.926   2.607 -0.7136  0.8838 -0.1758
  930MOL0     C25477   3.923   2.016   2.610  0.2592  0.8331  0.6021
  930MOL0     C25478   4.027   1.974   2.518 -0.0631  0.1957 -1.7657
  930MOL0     C25479   4.110   1.946   2.436 -0.6080  0.1715 -0.3608
  930MOL0     C25480   3.566   1.691   2.510 -0.9145  0.8438  0.3341
  930MOL0     C25481   3.528   1.623   2.389  0.2852  0.3083 -0.5546
  930MOL0     C25482   3.467   1.706   2.278  0.9344 -0.3679  0.5346
  930MOL0     H25483   3.457   1.170   2.102 -0.7431 -0.6167 -0.1509
  930MOL0     H25484   3.358   1.078   1.889 -1.2032 -0.3320  0.7558
  930MOL0     H25485   3.154   1.370   1.608 -1.8517 -1.0912  2.6585
  930MOL0     H25486   3.307   1.301   1.538  0.8317 -2.3894  0.4278
  930MOL0     H25487   3.030   1.150   1.525  0.7731 -2.5217  0.3104
  930MOL0     H25488   3.190   1.088   1.498 -3.2109 -1.4686 -1.9342
  930MOL0     H25489   3.209   1.209   1.288 -0.8341 -4.5083 -0.8490
  930MOL0     H25490   3.100   1.340   1.347  2.7826  0.7220  1.0767
  930MOL0     H25491   3.001   1.045   1.316 -0.7808  0.7048  1.3667
  930MOL0     H25492   2.911   1.193   1.320  0.0247  2.0011 -0.9465
  930MOL0     H25493   3.121   1.102   1.108 -0.3443 -0.7651 -1.1780
  930MOL0     H25494   2.944   1.073   1.099  1.2511 -0.3992 -1.6611
  930MOL0     H25495   3.076   1.359   1.127 -1.0818  2.1214 -1.4188
  930MOL0     H25496   3.030   1.280   0.976  1.7096  1.1569  0.1648
  930MOL0     H25497   2.860   1.385   1.217  3.0852 -0.2874  0.4070
  930MOL0     H25498   2.793   1.268   1.116  0.8681 -0.7046  1.4634
  930MOL0     H25499   2.787   1.408   0.923  0.5690 -0.5148  0.2985
  930MOL0     H25500   2.733   1.506   1.067  0.3490  1.4827 -0.2972
  930MOL0     H25501   2.862   1.624   0.796 -1.6727 -3.7451  1.2055
  930MOL0     H25502   3.147   1.786   0.743  1.0217  0.3770  0.4579
  930MOL0     H25503   2.990   1.839   0.732  0.9871 -4.3120 -2.7654
  930MOL0     H25504   3.104   2.037   0.788  0.4262 -1.5812 -1.4186
  930MOL0     H25505   3.056   1.990   0.952 -0.6044 -1.2514 -0.4305
  930MOL0     H25506   3.320   1.898   0.866  1.3757  1.1418  0.5087
  930MOL0     H25507   3.265   1.913   1.029  4.8057 -1.2114 -1.0809
  930MOL0     H25508   3.406   2.092   1.006 -0.4713 -1.6090  0.4261
  930MOL0     H25509   3.252   2.165   0.990  0.2435  1.3618 -0.2142
  930MOL0     H25510   3.379   2.234   0.559  0.4480  2.5398 -3.6564
  930MOL0     H25511   3.503   2.407   0.480 -2.8404  1.6329  0.5267
  930MOL0     H25512   3.745   2.849   0.837  1.3155 -0.1150  0.1779
  930MOL0     H25513   3.864   3.059   0.801 -0.0179  1.4957 -0.6276
  930MOL0     H25514   3.918   3.253   0.654  0.5661  2.3965  0.6754
  930MOL0     H25515   4.045   3.175   0.752  1.7538  1.0089 -0.2903
  930MOL0     H25516   4.213   3.264   0.576 -1.0263 -4.4428 -1.6089
  930MOL0     H25517   4.082   3.339   0.492  0.1816  0.4087 -0.8198
  930MOL0     H25518   4.142   3.394   0.793  1.2681 -0.4264 -0.8831
  930MOL0     H25519   4.232   3.475   0.670  1.0139  0.5785  4.0004
  930MOL0     H25520   3.932   3.495   0.680  1.1301 -4.4913  0.6386
  930MOL0     H25521   4.043   3.593   0.572  1.8646 -3.0966 -1.7270
  930MOL0     H25522   4.134   3.712   0.756 -0.7324 -1.1211 -4.2823
  930MOL0     H25523   4.021   3.625   0.871  2.0487 -0.6140 -0.2646
  930MOL0     H25524   3.844   3.724   0.691  0.3385 -0.3071 -0.8186
  930MOL0     H25525   3.903   3.817   0.832 -1.1553  1.2726 -0.9185
  930MOL0     H25526   3.958   3.847   0.532 -0.9263  1.8653 -0.1150
  930MOL0     H25527   4.089   3.893   0.643  0.5880 -2.3618  3.6094
  930MOL0     H25528   3.923   4.054   0.750 -2.5455  1.8786 -0.5463
  930MOL0     H25529   3.959   4.077   0.577 -1.0696  3.4396  2.1137
  930MOL0     H25530   3.994   2.894   0.424 -1.0276 -1.1405 -1.1848
  930MOL0     H25531   3.859   2.688   0.469 -2.5723  1.5092 -1.9828
  930MOL0     H25532   3.593   2.525   0.886 -1.8797 -0.9538  0.3243
  930MOL0     H25533   3.469   2.321   0.969 -0.4079 -5.6942 -1.9432
  930MOL0     H25534   3.227   1.463   1.777  2.8701  1.8706 -0.8418
  930MOL0     H25535   3.354   1.567   1.957  2.3198  0.2136  0.8630
  930MOL0     H25536   3.651   1.323   2.471 -1.2698 -0.9587 -0.7955
  930MOL0     H25537   3.713   1.427   2.668 -0.6512 -0.9818 -0.6837
  930MOL0     H25538   3.636   1.797   2.878  1.7691 -1.2380  0.0253
  930MOL0     H25539   3.552   1.831   2.727  0.6399 -0.6738 -0.7878
  930MOL0     H25540   3.823   1.885   2.820  1.6630  3.9854 -0.5821
  930MOL0     H25541   3.703   2.006   2.774 -2.2358 -0.2619 -1.4053
  930MOL0     H25542   3.719   1.973   2.551 -0.3742  1.3577 -0.2761
  930MOL0     H25543   3.814   1.830   2.557  1.6053  2.1355 -2.1677
  930MOL0     H25544   3.891   2.114   2.575  4.6711  2.0822 -0.6068
  930MOL0     H25545   3.958   2.021   2.713 -0.2566 -0.3255  0.8571
  930MOL0     H25546   4.174   1.926   2.353 -1.7067 -0.8749 -0.9940
  930MOL0     H25547   3.555   1.799   2.509  1.5017  1.1452 -0.0348
  930MOL0     H25548   3.374   1.659   2.245  0.3675  0.2961  1.1680
  930MOL0     H25549   3.453   1.810   2.307 -1.7385 -0.2823 -0.7820
  930MOL0     H25550   3.525   1.717   2.186  0.2202  1.0989  0.2271
  931MOL0     O25551   4.390   1.470   3.888  0.3388  0.4927  0.7245
  931MOL0     C25552   4.460   1.411   3.970  0.3582 -0.1718 -0.2677
  931MOL0     O25553   4.572   1.329   3.944 -0.2871  0.6604 -0.3806
  931MOL0     C25554   4.620   1.323   3.818 -0.0616  0.6215 -0.6485
  931MOL0     C25555   4.646   1.192   3.773 -1.1248 -0.2386 -0.4764
  931MOL0     C25556   4.732   1.167   3.656 -0.3826 -1.2710  0.0179
  931MOL0     C25557   4.781   1.282   3.582 -0.8897  0.4021  0.0355
  931MOL0     O25558   4.859   1.267   3.463  0.5538 -0.3435 -0.6090
  931MOL0     C25559   4.797   1.233   3.339 -0.6656  0.0463 -1.4081
  931MOL0     C25560   4.813   1.088   3.313 -0.4636  0.1794  0.0227
  931MOL0     C25561   4.953   1.048   3.293 -0.3289 -0.0073  0.0638
  931MOL0     C25562   4.971   0.893   3.325 -0.0530 -0.2770 -0.1065
  931MOL0     C25563   5.084   0.821   3.239 -0.6553 -0.6912 -0.7331
  931MOL0     C25564   5.085   0.672   3.278 -0.2153 -1.1699 -0.7744
  931MOL0     C25565   5.162   0.586   3.172 -0.2547 -0.3982 -0.0967
  931MOL0     C25566   5.233   0.465   3.231 -0.4273 -0.3859  0.0732
  931MOL0     N25567   5.351   0.511   3.313  1.2258  0.1544 -0.0705
  931MOL0     C25568   5.465   0.580   3.276  0.2438  0.1548  0.5134
  931MOL0     C25569   5.524   0.602   3.399 -1.1294  0.1091  0.5181
  931MOL0     C25570   5.652   0.690   3.419  1.6874 -1.0999 -0.1048
  931MOL0     C25571   5.775   0.612   3.422 -0.0738 -0.1142 -0.4629
  931MOL0     C25572   5.770   0.483   3.503  0.1122 -0.3758  0.4313
  931MOL0     C25573   5.907   0.421   3.527  1.2728 -0.6846  0.4529
  931MOL0     O25574   5.938   0.341   3.405 -0.9450 -0.1026 -0.2743
  931MOL0     C25575   5.893   0.215   3.392  1.1079 -0.5838 -0.1340
  931MOL0     C25576   5.802   0.152   3.482  0.5288 -0.1056  0.2293
  931MOL0     C25577   5.744   0.023   3.457  0.0646 -0.0078  0.3269
  931MOL0     C25578   5.788  -0.046   3.340  0.8634 -0.4841 -0.7478
  931MOL0     C25579   5.731  -0.172   3.321 -0.9795 -0.3388 -0.0604
  931MOL0     O25580   5.757  -0.225   3.199 -0.1982 -1.1375  0.2312
  931MOL0     C25581   5.680  -0.327   3.154 -0.1262 -0.0531  0.1115
  931MOL0     C25582   5.569  -0.297   3.074  0.6488  0.5564  0.7962
  931MOL0     C25583   5.510  -0.404   3.018 -0.1796  0.6692  0.1606
  931MOL0     C25584   5.532  -0.541   3.043 -0.7224 -0.1388  0.7984
  931MOL0     O25585   5.467  -0.642   2.977 -0.7071 -0.1146 -0.0137
  931MOL0     C25586   5.341  -0.605   2.912  0.1764  0.0570  0.2032
  931MOL0     C25587   5.368  -0.567   2.759  0.2781 -0.2127 -0.1859
  931MOL0     C25588   5.248  -0.497   2.710 -0.1921  0.2088  0.1040
  931MOL0     C25589   5.250  -0.500   2.554 -0.3658 -0.8902  0.3522
  931MOL0     C25590   5.145  -0.407   2.486 -0.2170 -0.4109 -0.0299
  931MOL0     C25591   5.137  -0.439   2.338  0.7291 -0.5006  0.3054
  931MOL0     C25592   5.048  -0.346   2.259  0.0387  0.7648 -0.0821
  931MOL0     C25593   5.055  -0.388   2.110  0.1170 -0.8000  0.4807
  931MOL0    Cl25594   5.209  -0.366   2.052 -0.3820  0.5726  0.5641
  931MOL0     C25595   5.635  -0.573   3.128 -0.4109 -0.1581 -0.2876
  931MOL0     C25596   5.707  -0.465   3.188 -0.1396 -0.2599 -0.5885
  931MOL0     O25597   5.671  -0.231   3.407  0.1627  0.2303 -0.2642
  931MOL0     C25598   5.880   0.012   3.260  0.2011 -0.1488 -0.5553
  931MOL0     C25599   5.939   0.140   3.285  0.7077  0.6532  0.2311
  931MOL0     N25600   5.465   0.536   3.496 -0.0666 -0.4684  0.2656
  931MOL0     N25601   5.361   0.480   3.447 -0.1858 -0.3798  0.3214
  931MOL0     C25602   4.751   1.412   3.630  0.3215  0.6516  0.4526
  931MOL0     C25603   4.668   1.428   3.743 -0.4854 -0.7925 -0.6504
  931MOL0     C25604   4.442   1.427   4.126 -0.5762  0.2061  0.6610
  931MOL0     C25605   4.514   1.337   4.206  0.6356  0.0449  0.7475
  931MOL0     C25606   4.491   1.308   4.342  0.7606 -0.2858  0.0944
  931MOL0     C25607   4.382   1.377   4.400  0.2688  0.1493 -0.3803
  931MOL0     O25608   4.344   1.376   4.532 -0.5399  0.6045  0.5587
  931MOL0     C25609   4.432   1.301   4.617 -0.1966  0.0097 -1.3827
  931MOL0     C25610   4.382   1.313   4.758 -0.9599  0.4467  0.0103
  931MOL0     C25611   4.441   1.200   4.853 -0.2323 -0.4416 -0.8359
  931MOL0     C25612   4.397   1.233   4.998 -0.0048  0.0293 -0.4775
  931MOL0     C25613   4.487   1.333   5.054  0.2409  0.7972 -0.0377
  931MOL0     C25614   4.568   1.412   5.100 -0.0060 -0.4332 -0.7064
  931MOL0     C25615   4.311   1.475   4.332 -0.2445  1.2298  0.1414
  931MOL0     C25616   4.346   1.499   4.199  0.1708 -0.8529 -0.2584
  931MOL0     C25617   4.252   1.597   4.135  0.0505  0.0102 -0.2300
  931MOL0     H25618   4.595   1.108   3.819 -0.1368  0.4593  2.0021
  931MOL0     H25619   4.761   1.067   3.623 -1.5406 -0.5083 -3.8379
  931MOL0     H25620   4.690   1.256   3.329 -0.9511 -1.9636 -4.6501
  931MOL0     H25621   4.850   1.276   3.254  2.3198 -3.0741 -1.3461
  931MOL0     H25622   4.756   1.069   3.221 -1.1286 -2.3576  0.8868
  931MOL0     H25623   4.769   1.035   3.397  1.6386  1.7960  2.2821
  931MOL0     H25624   5.021   1.111   3.351 -0.6719  2.5501 -2.1164
  931MOL0     H25625   4.978   1.078   3.190 -0.5605 -0.3279 -0.0853
  931MOL0     H25626   4.991   0.887   3.433  2.5967 -0.1758 -0.5209
  931MOL0     H25627   4.874   0.843   3.318  0.8237 -2.0795  0.1146
  931MOL0     H25628   5.078   0.830   3.130  2.0580 -0.9641 -0.9854
  931MOL0     H25629   5.178   0.867   3.272  0.0642 -1.9465 -0.9766
  931MOL0     H25630   5.135   0.668   3.375  2.4303  1.8359 -1.8690
  931MOL0     H25631   4.981   0.636   3.274 -0.7340  0.2322 -0.3043
  931MOL0     H25632   5.241   0.647   3.127 -1.1447  0.3024 -0.7512
  931MOL0     H25633   5.091   0.543   3.101 -1.6402  0.1246  0.9106
  931MOL0     H25634   5.165   0.395   3.280 -1.9110  0.4920 -0.6547
  931MOL0     H25635   5.274   0.413   3.144  2.0476  1.0555  0.2864
  931MOL0     H25636   5.497   0.621   3.181  4.4377  3.7708  3.1031
  931MOL0     H25637   5.653   0.754   3.330 -3.4549  2.1702  1.7672
  931MOL0     H25638   5.640   0.751   3.509 -0.0066 -0.2868 -0.8234
  931MOL0     H25639   5.793   0.594   3.315  1.8759  1.2833 -0.4162
  931MOL0     H25640   5.854   0.680   3.455  2.8900 -2.0779 -2.9457
  931MOL0     H25641   5.704   0.404   3.464  0.3371 -0.2899 -0.1325
  931MOL0     H25642   5.733   0.516   3.601 -0.1397  0.1623  0.1574
  931MOL0     H25643   5.894   0.359   3.617 -2.5051 -3.5184 -1.7524
  931MOL0     H25644   5.987   0.494   3.540 -0.1553  1.2862 -1.2600
  931MOL0     H25645   5.760   0.196   3.572 -0.8344  4.1750 -2.2108
  931MOL0     H25646   5.658  -0.013   3.513 -1.4343  0.6778 -1.4204
  931MOL0     H25647   5.534  -0.198   3.047  0.8747 -0.1931 -2.7218
  931MOL0     H25648   5.424  -0.378   2.957 -0.6592  1.2290  1.0499
  931MOL0     H25649   5.278  -0.694   2.906  1.4068 -0.7334 -1.7710
  931MOL0     H25650   5.290  -0.523   2.963  0.7714  1.3884 -1.2707
  931MOL0     H25651   5.449  -0.493   2.760  0.2637 -0.1926 -0.4682
  931MOL0     H25652   5.395  -0.652   2.695 -0.9651  0.8992 -2.2770
  931MOL0     H25653   5.150  -0.542   2.729 -1.7358  2.4742 -1.9108
  931MOL0     H25654   5.246  -0.401   2.762 -2.4768 -0.8092  2.1016
  931MOL0     H25655   5.236  -0.603   2.523  2.7747 -0.6102 -2.5962
  931MOL0     H25656   5.348  -0.478   2.510 -1.0793  1.8895 -0.0589
  931MOL0     H25657   5.191  -0.308   2.492  1.5109 -1.2330  1.3704
  931MOL0     H25658   5.053  -0.399   2.545 -0.5873 -0.1155 -0.6316
  931MOL0     H25659   5.239  -0.443   2.298 -0.1418 -0.3538 -2.0399
  931MOL0     H25660   5.102  -0.541   2.321  3.5805 -1.7444  1.1938
  931MOL0     H25661   5.083  -0.242   2.257  2.9338 -0.1347 -0.6481
  931MOL0     H25662   4.945  -0.351   2.296 -0.2600 -1.4783 -1.0442
  931MOL0     H25663   5.009  -0.486   2.092  1.4726 -1.3567 -0.0924
  931MOL0     H25664   4.982  -0.327   2.057  1.7137  1.5045  0.8101
  931MOL0     H25665   5.649  -0.677   3.154  0.8585 -0.1020 -0.6706
  931MOL0     H25666   5.789  -0.485   3.256  1.7830 -0.2487 -2.7735
  931MOL0     H25667   5.927  -0.045   3.180  0.8811 -1.5859  0.8158
  931MOL0     H25668   6.013   0.172   3.212  0.5380 -3.1595 -1.9056
  931MOL0     H25669   4.783   1.488   3.559  1.2309  0.4821  0.6747
  931MOL0     H25670   4.668   1.534   3.764  1.7873 -0.9531  0.4425
  931MOL0     H25671   4.594   1.274   4.167  0.4002 -1.0277  1.9373
  931MOL0     H25672   4.564   1.247   4.395  0.4138 -2.4105 -1.7108
  931MOL0     H25673   4.535   1.339   4.613  0.2891 -0.5018  2.4289
  931MOL0     H25674   4.422   1.193   4.605 -2.5806 -0.2534  1.6706
  931MOL0     H25675   4.276   1.291   4.746 -0.3783 -3.5130  0.5721
  931MOL0     H25676   4.408   1.412   4.796  0.4484 -0.1931  0.8114
  931MOL0     H25677   4.548   1.178   4.847 -0.1270  0.3229 -1.8829
  931MOL0     H25678   4.391   1.105   4.831 -1.6724 -0.4771  2.1160
  931MOL0     H25679   4.299   1.280   4.990 -0.2577 -0.7029 -2.1415
  931MOL0     H25680   4.410   1.147   5.065  4.2070  2.6759  2.6784
  931MOL0     H25681   4.633   1.489   5.136  0.6619  0.5469 -3.6929
  931MOL0     H25682   4.239   1.541   4.379 -2.0093 -0.6479  0.1682
  931MOL0     H25683   4.149   1.576   4.167  1.1748 -1.3753  2.9362
  931MOL0     H25684   4.273   1.691   4.187  1.5150  0.5059 -1.6329
  931MOL0     H25685   4.250   1.602   4.026 -1.2725  0.7429 -0.2026
  932MOL0     O25686   3.394   2.328   6.929 -0.0818  0.2831  0.1645
  932MOL0     C25687   3.397   2.321   7.049 -0.6209  0.4158  1.5244
  932MOL0     O25688   3.457   2.413   7.122 -0.1027 -0.8463 -0.0012
  932MOL0     C25689   3.409   2.545   7.100  0.2344 -0.2559 -0.0072
  932MOL0     C25690   3.272   2.588   7.125 -0.0150 -0.2989  0.3399
  932MOL0     C25691   3.221   2.713   7.090 -0.5071 -0.3161  0.0060
  932MOL0     C25692   3.304   2.814   7.050 -0.6419  0.2457 -0.8675
  932MOL0     O25693   3.262   2.935   7.036 -0.2321  0.2877 -0.6454
  932MOL0     C25694   3.338   3.029   6.964  0.4988  0.8572 -0.4470
  932MOL0     C25695   3.281   3.174   6.994  0.1162 -0.3063  0.1119
  932MOL0     C25696   3.351   3.279   6.905 -0.1032 -0.7746  0.2360
  932MOL0     C25697   3.248   3.379   6.856  0.4860 -1.4052 -0.3577
  932MOL0     C25698   3.302   3.521   6.810  0.0116  0.1057  1.4360
  932MOL0     C25699   3.192   3.625   6.792 -0.2659 -0.0546  0.4352
  932MOL0     C25700   3.066   3.589   6.700  0.4756 -0.8030 -0.5600
  932MOL0     C25701   3.105   3.603   6.561 -0.0450 -0.4105 -0.0497
  932MOL0     N25702   3.192   3.493   6.501  0.2518  0.8542  0.1184
  932MOL0     C25703   3.163   3.360   6.500  0.7609  0.6807 -0.2330
  932MOL0     C25704   3.270   3.291   6.448 -0.8079 -0.9184  0.5267
  932MOL0     C25705   3.294   3.136   6.445  0.2634 -1.0021 -0.3679
  932MOL0     C25706   3.258   3.074   6.578  0.1812  0.5416 -0.2462
  932MOL0     C25707   3.334   2.937   6.591  0.4624  0.5844  0.2823
  932MOL0     C25708   3.246   2.828   6.658 -0.1394 -0.7276  0.1171
  932MOL0     O25709   3.149   2.775   6.565  0.8225  0.5605  0.2569
  932MOL0     C25710   3.114   2.648   6.578 -0.2449  0.2752 -0.1514
  932MOL0     C25711   3.180   2.547   6.650  0.5254  0.3618 -1.1836
  932MOL0     C25712   3.116   2.420   6.669 -0.3822 -0.9927 -0.1837
  932MOL0     C25713   3.000   2.389   6.591  0.2671 -0.2683  0.3131
  932MOL0     C25714   2.931   2.251   6.582 -0.1986  0.3525  0.4254
  932MOL0     O25715   3.010   2.141   6.590 -0.1508 -0.2152  1.3754
  932MOL0     C25716   2.931   2.024   6.616 -0.2336 -0.7395 -0.3843
  932MOL0     C25717   2.902   1.946   6.509  0.8371 -0.7007  0.1862
  932MOL0     C25718   2.815   1.841   6.540 -0.0452  0.9857 -0.8816
  932MOL0     C25719   2.766   1.809   6.673  0.4807  0.4015 -0.2584
  932MOL0     O25720   2.690   1.702   6.709  0.3763 -0.5269 -0.6246
  932MOL0     C25721   2.730   1.583   6.641  0.7904  0.0890 -0.1014
  932MOL0     C25722   2.678   1.461   6.723  0.1282 -0.8051 -0.0184
  932MOL0     C25723   2.728   1.330   6.646 -0.8039 -0.5860 -0.4053
  932MOL0     C25724   2.690   1.197   6.723 -0.4276  0.2019 -0.3911
  932MOL0     C25725   2.774   1.083   6.686 -0.3595 -0.3571  0.0759
  932MOL0     C25726   2.737   0.940   6.732 -0.7398 -0.7328 -0.2731
  932MOL0     C25727   2.797   0.831   6.651 -0.1036 -0.5276 -0.0765
  932MOL0     C25728   2.768   0.693   6.713 -0.6666 -0.3481 -0.0734
  932MOL0    Cl25729   2.594   0.670   6.766 -0.0344 -0.1125 -0.3201
  932MOL0     C25730   2.799   1.887   6.779 -0.4430 -0.4911  0.4623
  932MOL0     C25731   2.876   1.997   6.750  0.3499 -0.2961  0.2733
  932MOL0     O25732   2.809   2.243   6.571  1.2049  0.2692  0.0237
  932MOL0     C25733   2.939   2.492   6.522 -0.4274  0.1574 -0.3477
  932MOL0     C25734   2.996   2.616   6.515  1.1834 -0.3542 -0.4973
  932MOL0     N25735   3.367   3.383   6.414 -0.0497  1.4579 -0.0892
  932MOL0     N25736   3.326   3.498   6.457  0.2135  0.2043 -0.6798
  932MOL0     C25737   3.442   2.773   7.021 -0.5123  0.1630  0.0518
  932MOL0     C25738   3.494   2.647   7.052  0.6471 -0.6445  0.6349
  932MOL0     C25739   3.394   2.180   7.092 -0.6241 -0.6293  1.3551
  932MOL0     C25740   3.516   2.123   7.118 -0.9300  1.0235 -0.6553
  932MOL0     C25741   3.528   1.987   7.150 -0.0219  0.4379  0.1137
  932MOL0     C25742   3.407   1.908   7.167 -0.4580 -0.4111 -0.5891
  932MOL0     O25743   3.422   1.774   7.205 -0.3431 -0.1169 -0.2363
  932MOL0     C25744   3.297   1.701   7.232  0.1887  0.2730  1.0999
  932MOL0     C25745   3.317   1.556   7.271 -0.5976  0.2116  0.5651
  932MOL0     C25746   3.193   1.472   7.247 -0.0693  0.2431  0.2094
  932MOL0     C25747   3.086   1.460   7.360 -0.8660  0.7923  0.3831
  932MOL0     C25748   3.032   1.584   7.393  0.2196 -0.2434 -0.2124
  932MOL0     C25749   2.985   1.690   7.423  0.9493  0.5425  0.1655
  932MOL0     C25750   3.290   1.971   7.132  0.1171 -0.5312  0.6443
  932MOL0     C25751   3.280   2.108   7.092 -0.0216 -0.5918 -0.2187
  932MOL0     C25752   3.137   2.153   7.062  1.2560  0.1348 -0.1961
  932MOL0     H25753   3.201   2.510   7.150 -1.4711  0.1400 -2.0147
  932MOL0     H25754   3.113   2.723   7.098 -0.7309  0.3769 -2.9571
  932MOL0     H25755   3.445   3.031   6.988  0.9634  1.6245 -2.3835
  932MOL0     H25756   3.327   3.003   6.858  1.4444  2.0600 -0.8720
  932MOL0     H25757   3.290   3.203   7.100  0.0191  0.7117 -0.1531
  932MOL0     H25758   3.175   3.165   6.971  0.4355  1.2881 -2.3136
  932MOL0     H25759   3.420   3.239   6.831  0.0243  1.4689 -0.9273
  932MOL0     H25760   3.415   3.331   6.977 -0.8188  1.4393 -0.6511
  932MOL0     H25761   3.179   3.336   6.783  1.2304  0.2705 -2.1311
  932MOL0     H25762   3.187   3.399   6.945  2.6620  1.3341  0.6654
  932MOL0     H25763   3.362   3.560   6.893  2.3122 -2.4688  1.0889
  932MOL0     H25764   3.370   3.508   6.725 -1.7953  0.3643 -0.1299
  932MOL0     H25765   3.147   3.651   6.888 -2.0371 -1.6065  0.0938
  932MOL0     H25766   3.249   3.709   6.750 -0.5347 -0.7501 -1.4096
  932MOL0     H25767   2.983   3.651   6.735  3.2174  1.9066  1.8144
  932MOL0     H25768   3.034   3.487   6.723 -1.9479 -0.2076 -1.0416
  932MOL0     H25769   3.020   3.625   6.495 -0.1949 -1.5002 -0.2353
  932MOL0     H25770   3.165   3.694   6.552 -2.6801  1.7001  2.0514
  932MOL0     H25771   3.070   3.331   6.549  1.6727 -1.4669  0.3829
  932MOL0     H25772   3.235   3.095   6.364  0.6532 -2.4709  0.0665
  932MOL0     H25773   3.399   3.122   6.417 -0.0830 -1.8876 -1.2707
  932MOL0     H25774   3.293   3.143   6.656  4.5031 -1.3971 -0.2033
  932MOL0     H25775   3.150   3.056   6.581  0.5841 -2.2074  2.7505
  932MOL0     H25776   3.432   2.954   6.636  0.7647 -0.4568  0.0245
  932MOL0     H25777   3.360   2.907   6.490 -1.0636  0.1045  0.0074
  932MOL0     H25778   3.187   2.860   6.744  1.8101  1.0160  0.9044
  932MOL0     H25779   3.308   2.751   6.704  0.3050 -1.5023 -1.6933
  932MOL0     H25780   3.274   2.561   6.701 -0.0540  0.7261 -0.1726
  932MOL0     H25781   3.163   2.346   6.733 -0.0650  0.8277  1.7943
  932MOL0     H25782   2.931   1.982   6.410 -1.6249 -1.1132 -0.7639
  932MOL0     H25783   2.791   1.776   6.457  0.9060 -2.0923  1.0693
  932MOL0     H25784   2.691   1.574   6.539  0.9147 -0.1004 -0.1320
  932MOL0     H25785   2.839   1.577   6.645  0.6833 -2.6544  0.6295
  932MOL0     H25786   2.715   1.473   6.825  2.1381 -0.2778 -0.7491
  932MOL0     H25787   2.569   1.460   6.732  0.1540 -0.3073  0.3965
  932MOL0     H25788   2.688   1.320   6.545  2.4933  1.5122 -2.0997
  932MOL0     H25789   2.837   1.336   6.632 -0.6730  0.4530  0.8715
  932MOL0     H25790   2.587   1.164   6.708 -0.7810  0.8019  0.5979
  932MOL0     H25791   2.705   1.210   6.831 -2.1182 -0.3131 -0.0646
  932MOL0     H25792   2.881   1.092   6.710 -0.7109  0.3068  1.5090
  932MOL0     H25793   2.767   1.064   6.579  0.2966 -3.2599  0.4457
  932MOL0     H25794   2.757   0.946   6.839 -0.7303  3.8723 -0.3425
  932MOL0     H25795   2.630   0.924   6.716 -0.8467  0.8102 -1.3692
  932MOL0     H25796   2.905   0.839   6.638 -0.0771  2.8373  1.2645
  932MOL0     H25797   2.750   0.835   6.552 -0.8201 -2.1738  0.1658
  932MOL0     H25798   2.800   0.619   6.640  0.0527 -1.1163  0.9971
  932MOL0     H25799   2.834   0.676   6.799  1.1646 -1.0184 -1.5522
  932MOL0     H25800   2.752   1.873   6.876 -1.4415  0.8859  0.2173
  932MOL0     H25801   2.889   2.062   6.837  0.9143 -2.0101  1.5173
  932MOL0     H25802   2.854   2.474   6.457 -0.4818  1.3782 -0.6378
  932MOL0     H25803   2.938   2.693   6.466 -1.8500 -2.2607 -0.2008
  932MOL0     H25804   3.512   2.843   6.978  1.2506  0.4329  3.0431
  932MOL0     H25805   3.596   2.634   7.018  0.5204  1.8921 -1.0634
  932MOL0     H25806   3.608   2.181   7.123 -1.0473  1.1026  1.3214
  932MOL0     H25807   3.624   1.943   7.175  0.8261  0.9627 -2.0225
  932MOL0     H25808   3.248   1.702   7.134  1.6424 -2.4073  0.2649
  932MOL0     H25809   3.225   1.744   7.303  0.9933 -1.1577  2.8667
  932MOL0     H25810   3.341   1.533   7.375 -1.4427 -2.2076  0.2729
  932MOL0     H25811   3.405   1.511   7.224  0.3391  0.6484  1.8491
  932MOL0     H25812   3.232   1.372   7.227  1.5276  0.2320  2.9614
  932MOL0     H25813   3.151   1.496   7.148 -0.9088  5.8493  1.5706
  932MOL0     H25814   3.011   1.385   7.333 -0.8655  1.1948 -0.7700
  932MOL0     H25815   3.127   1.412   7.450 -0.8623  1.2782  0.6433
  932MOL0     H25816   2.939   1.778   7.463 -0.7818  0.9524 -2.4931
  932MOL0     H25817   3.196   1.917   7.131  0.1085 -0.5272 -0.5271
  932MOL0     H25818   3.132   2.260   7.040  0.3356  0.0308 -0.5298
  932MOL0     H25819   3.100   2.088   6.982  2.1080  0.6615 -1.0339
  932MOL0     H25820   3.072   2.133   7.148  2.1728  1.0544  0.7342
  933MOL0     O25821   3.318   8.299   1.207 -0.4164 -0.4349  0.6008
  933MOL0     C25822   3.403   8.368   1.252 -0.9753 -0.4285  0.0597
  933MOL0     O25823   3.418   8.407   1.380  0.3281 -0.1279 -0.0536
  933MOL0     C25824   3.532   8.462   1.418  0.2984 -0.5895 -0.6162
  933MOL0     C25825   3.640   8.380   1.469  0.2125 -0.6867 -0.5258
  933MOL0     C25826   3.756   8.442   1.525  0.2333 -0.4027  0.1904
  933MOL0     C25827   3.772   8.582   1.522 -0.6342  0.0031 -1.2352
  933MOL0     O25828   3.881   8.656   1.560 -0.0953  0.1448  0.2149
  933MOL0     C25829   3.956   8.626   1.687 -0.0751  0.4490  0.8431
  933MOL0     C25830   3.995   8.766   1.730 -0.3451  0.1169 -0.0297
  933MOL0     C25831   4.010   8.779   1.879  0.6247 -0.8645  0.3381
  933MOL0     C25832   4.000   8.923   1.929 -0.4053 -0.7199 -0.4410
  933MOL0     C25833   3.982   8.927   2.077  0.8116 -0.4619 -0.5211
  933MOL0     C25834   3.995   9.070   2.136 -0.5518 -0.1672 -0.2489
  933MOL0     C25835   4.148   9.119   2.144  0.5127  0.0888 -0.6835
  933MOL0     C25836   4.161   9.231   2.250  0.8017  0.7286  0.5486
  933MOL0     N25837   4.304   9.263   2.247  0.7082 -0.0239  0.3234
  933MOL0     C25838   4.349   9.381   2.192 -0.0760  0.3217 -0.0943
  933MOL0     C25839   4.487   9.368   2.189  0.8061  0.3965 -0.2547
  933MOL0     C25840   4.569   9.464   2.102 -0.4018  0.0315 -0.4312
  933MOL0     C25841   4.718   9.466   2.138  0.5530  0.0956 -0.0688
  933MOL0     C25842   4.724   9.548   2.270  0.1320  0.0536  0.2518
  933MOL0     C25843   4.863   9.614   2.296  0.0224 -0.4836 -0.0916
  933MOL0     O25844   4.964   9.529   2.256 -0.1664  0.2536  0.8515
  933MOL0     C25845   5.091   9.566   2.214 -0.2589 -0.2304 -0.0103
  933MOL0     C25846   5.163   9.475   2.135  0.2748 -1.1264  0.0895
  933MOL0     C25847   5.293   9.496   2.097 -1.1827 -0.7600  0.2355
  933MOL0     C25848   5.357   9.622   2.130 -0.4900 -0.5280 -0.1101
  933MOL0     C25849   5.493   9.650   2.082  0.2574 -0.9333  0.3616
  933MOL0     O25850   5.532   9.589   1.973 -0.5051 -0.0716 -0.1103
  933MOL0     C25851   5.649   9.614   1.912  0.3136 -0.1769 -0.6921
  933MOL0     C25852   5.701   9.502   1.852  0.3338  0.0722  0.6898
  933MOL0     C25853   5.830   9.497   1.796 -0.0944  0.3564  0.9116
  933MOL0     C25854   5.902   9.617   1.780 -0.4324  0.1457  0.4488
  933MOL0     O25855   6.036   9.621   1.738  0.2320 -0.4535  0.3634
  933MOL0     C25856   6.089   9.520   1.652 -0.2288 -0.0271  0.2722
  933MOL0     C25857   6.231   9.549   1.604 -0.0673  0.1397  0.5729
  933MOL0     C25858   6.331   9.569   1.727 -0.8313  0.0085  0.3978
  933MOL0     C25859   6.471   9.518   1.681 -0.0358 -0.0621 -0.7106
  933MOL0     C25860   6.583   9.575   1.762 -0.4191 -0.1542 -0.2378
  933MOL0     C25861   6.716   9.510   1.713  0.8551  0.0452 -1.0716
  933MOL0     C25862   6.822   9.545   1.814  0.0279  0.2365 -0.8106
  933MOL0     C25863   6.944   9.454   1.797 -0.6390  0.6430  0.0010
  933MOL0    Cl25864   6.988   9.420   1.616 -0.2017  0.1687 -0.5390
  933MOL0     C25865   5.841   9.733   1.829  0.5641 -0.5217 -0.4872
  933MOL0     C25866   5.712   9.738   1.887 -0.0106 -0.3684  0.0093
  933MOL0     O25867   5.564   9.717   2.158 -0.8034  0.6916  0.3715
  933MOL0     C25868   5.274   9.726   2.185  0.7323  0.2387 -0.0464
  933MOL0     C25869   5.149   9.688   2.242  0.5615  0.6671  0.5557
  933MOL0     N25870   4.517   9.241   2.245 -0.9644 -0.1822 -0.4973
  933MOL0     N25871   4.409   9.178   2.281 -0.9049  0.2360 -0.0661
  933MOL0     C25872   3.666   8.658   1.460 -1.0027 -0.4772  0.5969
  933MOL0     C25873   3.552   8.594   1.415 -1.0232 -0.0617  0.3915
  933MOL0     C25874   3.501   8.410   1.141  0.1078 -0.2009 -1.3703
  933MOL0     C25875   3.493   8.544   1.098 -0.3819  0.7427 -0.3259
  933MOL0     C25876   3.576   8.598   1.002 -1.0338 -0.4424  0.7999
  933MOL0     C25877   3.680   8.518   0.947  0.2061 -0.0942 -0.0291
  933MOL0     O25878   3.767   8.586   0.872 -0.6762  0.0289  0.4487
  933MOL0     C25879   3.875   8.509   0.811 -0.4717  0.4417  0.4080
  933MOL0     C25880   3.962   8.612   0.737 -1.5088 -0.0889 -1.0674
  933MOL0     C25881   4.088   8.548   0.664  0.6264  0.2253  0.4921
  933MOL0     C25882   4.184   8.663   0.635 -0.3183  0.1079 -0.1460
  933MOL0     C25883   4.289   8.621   0.544 -0.0456 -0.4606  0.3444
  933MOL0     C25884   4.364   8.598   0.456  0.2204  0.4121  0.8447
  933MOL0     C25885   3.688   8.377   0.989 -0.0865  0.2020  0.5176
  933MOL0     C25886   3.597   8.330   1.080 -0.7570 -1.2533  0.2493
  933MOL0     C25887   3.613   8.194   1.129  0.1657  0.0486  0.1184
  933MOL0     H25888   3.637   8.271   1.466 -0.4729 -0.7212  0.7176
  933MOL0     H25889   3.838   8.385   1.568  1.5326  0.8248 -0.5748
  933MOL0     H25890   3.880   8.586   1.755 -1.8975 -1.6207 -2.1815
  933MOL0     H25891   4.043   8.561   1.691  0.5653  1.2916  0.9759
  933MOL0     H25892   3.917   8.839   1.704 -0.1197  0.2475 -0.3544
  933MOL0     H25893   4.093   8.791   1.688 -0.6605  2.4062  0.4657
  933MOL0     H25894   4.106   8.740   1.916  1.9119  0.9182 -0.9403
  933MOL0     H25895   3.934   8.721   1.932 -1.3175  2.2095  1.1517
  933MOL0     H25896   4.097   8.965   1.898 -0.4538 -0.3788 -0.1276
  933MOL0     H25897   3.912   8.976   1.893  0.9990  0.7594 -1.8939
  933MOL0     H25898   3.888   8.879   2.104  1.9092 -0.8980  3.1738
  933MOL0     H25899   4.059   8.860   2.117  1.1290 -0.2039 -0.6902
  933MOL0     H25900   3.944   9.140   2.069  1.0802  0.3620 -0.9893
  933MOL0     H25901   3.954   9.071   2.238 -3.4626  4.5681 -1.1608
  933MOL0     H25902   4.174   9.160   2.046  1.6557 -0.3231 -0.5710
  933MOL0     H25903   4.207   9.033   2.178 -0.1231 -0.5237 -1.1067
  933MOL0     H25904   4.105   9.322   2.226  0.1426  0.8360  2.3614
  933MOL0     H25905   4.130   9.192   2.347 -1.4203  2.1905  0.5074
  933MOL0     H25906   4.283   9.459   2.155 -1.8780 -0.8252  0.5539
  933MOL0     H25907   4.544   9.453   1.997 -2.6857 -0.7233  0.1422
  933MOL0     H25908   4.526   9.560   2.133  3.4881  1.2867  1.8710
  933MOL0     H25909   4.759   9.366   2.149  2.0801  0.2273 -3.2895
  933MOL0     H25910   4.766   9.516   2.053 -4.3896  2.2706 -2.0195
  933MOL0     H25911   4.682   9.484   2.348 -1.2852  0.2251 -0.3363
  933MOL0     H25912   4.660   9.637   2.269  0.7593  0.5763 -2.2207
  933MOL0     H25913   4.873   9.623   2.405  1.6875  3.2044 -0.3969
  933MOL0     H25914   4.870   9.713   2.250 -2.0447 -0.0678  0.3942
  933MOL0     H25915   5.113   9.381   2.112  0.5278 -1.6573  1.5873
  933MOL0     H25916   5.343   9.420   2.039 -1.6563  0.3697 -1.7567
  933MOL0     H25917   5.646   9.408   1.852  1.7071 -0.7649  1.8713
  933MOL0     H25918   5.877   9.406   1.760  0.7749  1.3708 -0.6546
  933MOL0     H25919   6.100   9.424   1.703 -1.1610 -0.9542 -1.1822
  933MOL0     H25920   6.031   9.518   1.559  1.2627 -1.3379 -0.6891
  933MOL0     H25921   6.263   9.461   1.547  0.3529  1.0122 -0.5581
  933MOL0     H25922   6.236   9.637   1.540 -1.6869  1.9043  2.7353
  933MOL0     H25923   6.325   9.673   1.760  0.5861  0.5313 -0.8715
  933MOL0     H25924   6.305   9.498   1.806 -1.6541 -1.1876 -0.8995
  933MOL0     H25925   6.473   9.547   1.576 -0.6814 -0.3779 -0.8087
  933MOL0     H25926   6.480   9.410   1.695  2.2834 -0.0605 -1.7773
  933MOL0     H25927   6.556   9.535   1.860 -1.5234 -0.3231 -0.6015
  933MOL0     H25928   6.587   9.685   1.756 -1.5101  0.0240  1.5713
  933MOL0     H25929   6.717   9.401   1.723  2.7574  0.1142 -0.0831
  933MOL0     H25930   6.730   9.542   1.610  0.0240 -2.9874 -2.2652
  933MOL0     H25931   6.781   9.579   1.909 -3.4929 -0.9243 -1.7629
  933MOL0     H25932   6.865   9.641   1.784  1.1410  0.8073  2.2302
  933MOL0     H25933   7.028   9.493   1.854 -0.2263  0.1502 -0.2650
  933MOL0     H25934   6.918   9.355   1.838  0.5321  0.2370 -0.2033
  933MOL0     H25935   5.895   9.825   1.810  0.8776 -1.0775 -2.6162
  933MOL0     H25936   5.675   9.832   1.928 -0.9700 -0.9581  0.5319
  933MOL0     H25937   5.317   9.825   2.194 -0.9730  0.8574  1.9772
  933MOL0     H25938   5.098   9.758   2.307  0.1723  2.7921 -1.8880
  933MOL0     H25939   3.673   8.765   1.442  3.2498 -0.9811 -2.3227
  933MOL0     H25940   3.463   8.649   1.386 -3.7799 -3.0647  2.4026
  933MOL0     H25941   3.434   8.624   1.143  1.2190  2.8313 -1.7477
  933MOL0     H25942   3.566   8.703   0.978 -0.0989 -0.7605 -1.2111
  933MOL0     H25943   3.818   8.439   0.749 -1.1828  1.2098  0.1840
  933MOL0     H25944   3.923   8.445   0.886 -1.9086 -2.6897 -1.1606
  933MOL0     H25945   4.010   8.668   0.819 -1.1225 -0.3430 -1.1175
  933MOL0     H25946   3.902   8.672   0.667 -0.9382  0.8516 -0.7787
  933MOL0     H25947   4.049   8.500   0.573  1.5707  2.1146 -0.9716
  933MOL0     H25948   4.131   8.472   0.730 -2.7165  0.5633  3.3751
  933MOL0     H25949   4.127   8.738   0.581  1.3996  2.3776  1.0060
  933MOL0     H25950   4.225   8.712   0.725  6.3191  0.9755 -3.0276
  933MOL0     H25951   4.424   8.579   0.370  1.1206  3.4333  0.6997
  933MOL0     H25952   3.773   8.322   0.949 -1.5255 -0.1628 -2.2881
  933MOL0     H25953   3.714   8.160   1.101 -0.0971  0.0560 -0.8680
  933MOL0     H25954   3.606   8.194   1.238 -0.2347  0.6524  0.0960
  933MOL0     H25955   3.545   8.124   1.080  0.4498 -0.0965 -0.0755
  934MOL0     O25956   7.518   0.281   1.966  0.5482 -0.7695 -0.4351
  934MOL0     C25957   7.619   0.279   2.030  0.9308 -0.7413  1.0527
  934MOL0     O25958   7.652   0.190   2.132  0.5461 -0.5912  1.2024
  934MOL0     C25959   7.559   0.112   2.184 -0.0754 -0.9386  0.3782
  934MOL0     C25960   7.556  -0.020   2.148  0.6256 -0.1294  1.0227
  934MOL0     C25961   7.447  -0.098   2.190  0.8080 -0.3738 -0.0423
  934MOL0     C25962   7.343  -0.044   2.274  0.0806 -0.2247  0.5434
  934MOL0     O25963   7.222  -0.094   2.306  0.0165  0.9020 -0.4276
  934MOL0     C25964   7.200  -0.221   2.231 -0.1869 -0.2421 -0.9562
  934MOL0     C25965   7.054  -0.274   2.262  0.4069 -0.4039  0.0471
  934MOL0     C25966   7.025  -0.327   2.409 -0.4418  0.5382 -0.0415
  934MOL0     C25967   6.874  -0.346   2.427  0.4808 -0.2127  1.3690
  934MOL0     C25968   6.861  -0.411   2.563 -0.0450 -0.2100 -0.1288
  934MOL0     C25969   6.718  -0.386   2.622 -0.2723  0.6208  0.0939
  934MOL0     C25970   6.697  -0.406   2.783  0.2067 -0.8105 -0.3323
  934MOL0     C25971   6.690  -0.553   2.827 -0.6366  0.6390  0.2738
  934MOL0     N25972   6.609  -0.569   2.944  0.3963  0.4708 -0.9787
  934MOL0     C25973   6.662  -0.589   3.069  0.4491 -0.3965 -1.0276
  934MOL0     C25974   6.566  -0.629   3.148 -0.0030  0.5376 -1.5507
  934MOL0     C25975   6.576  -0.712   3.281 -1.1291  1.2404 -0.3157
  934MOL0     C25976   6.680  -0.822   3.283  0.0538  0.5846 -0.3343
  934MOL0     C25977   6.655  -0.956   3.210 -0.0292 -0.9462 -0.7313
  934MOL0     C25978   6.595  -0.947   3.072  0.7554  0.4378  0.6290
  934MOL0     O25979   6.603  -1.078   3.014 -0.0905  0.0566 -0.1399
  934MOL0     C25980   6.506  -1.166   3.044  0.1026 -0.1886 -1.1702
  934MOL0     C25981   6.391  -1.144   3.125  0.4795 -0.5543  0.0008
  934MOL0     C25982   6.312  -1.254   3.166 -0.3672  0.2294  0.3321
  934MOL0     C25983   6.334  -1.387   3.113 -0.6725  0.5844  0.0009
  934MOL0     C25984   6.240  -1.500   3.139 -0.1630 -0.2631  0.0559
  934MOL0     O25985   6.261  -1.613   3.055 -0.1102 -0.1785 -0.8368
  934MOL0     C25986   6.175  -1.715   3.052 -0.1444 -0.0704  0.2922
  934MOL0     C25987   6.227  -1.841   3.038  0.6046 -0.1676 -0.0552
  934MOL0     C25988   6.139  -1.952   3.027 -0.7272  0.4222 -0.8222
  934MOL0     C25989   6.003  -1.944   3.040 -0.4244 -0.6721  0.5000
  934MOL0     O25990   5.925  -2.056   3.047  0.5318 -0.2190  0.0411
  934MOL0     C25991   5.828  -2.073   2.927 -0.1586  0.7805 -0.0709
  934MOL0     C25992   5.685  -2.078   2.980  0.4583 -0.0454 -0.4357
  934MOL0     C25993   5.673  -2.199   3.072  0.0547 -0.1578 -0.8698
  934MOL0     C25994   5.647  -2.159   3.217 -0.4429 -0.5753 -0.2098
  934MOL0     C25995   5.586  -2.274   3.297  0.5624  0.2078  0.5283
  934MOL0     C25996   5.692  -2.371   3.342 -0.4548  0.0173 -0.1524
  934MOL0     C25997   5.640  -2.484   3.432  0.3289 -0.5486 -0.7313
  934MOL0     C25998   5.757  -2.580   3.465  0.9439  0.7905 -0.3488
  934MOL0    Cl25999   5.709  -2.676   3.606 -0.4760 -0.3073 -0.0286
  934MOL0     C26000   5.951  -1.811   3.062  0.1530 -0.0969  0.1584
  934MOL0     C26001   6.033  -1.693   3.058 -0.6483 -0.3480  0.1194
  934MOL0     O26002   6.150  -1.487   3.220 -1.4761 -0.0960 -0.4837
  934MOL0     C26003   6.438  -1.399   3.026  0.9814  0.3804 -0.2716
  934MOL0     C26004   6.517  -1.291   2.994 -1.0333  0.5131 -0.9962
  934MOL0     N26005   6.446  -0.626   3.076 -0.3693  0.0588 -0.5522
  934MOL0     N26006   6.481  -0.602   2.959 -0.0268  0.3281  0.2699
  934MOL0     C26007   7.358   0.086   2.324  0.3728  0.0060 -0.0186
  934MOL0     C26008   7.469   0.162   2.276  0.9341 -0.5459 -0.2874
  934MOL0     C26009   7.737   0.359   1.990  0.2611  0.4673  0.0542
  934MOL0     C26010   7.793   0.355   1.864 -0.3896  0.3751  0.4037
  934MOL0     C26011   7.905   0.425   1.836 -0.6350 -0.3612  0.2856
  934MOL0     C26012   7.951   0.524   1.922 -0.0569  0.2027 -0.1195
  934MOL0     O26013   8.066   0.603   1.910  0.0786 -0.7681 -0.6822
  934MOL0     C26014   8.159   0.594   1.800 -0.1266  0.8029 -0.4458
  934MOL0     C26015   8.252   0.470   1.818  0.2831 -0.5514 -0.1684
  934MOL0     C26016   8.352   0.507   1.948  0.5031 -0.3281  0.6156
  934MOL0     C26017   8.501   0.458   1.944 -0.3230 -0.8417 -0.0266
  934MOL0     C26018   8.582   0.538   1.850 -0.1942  0.0502 -0.3684
  934MOL0     C26019   8.630   0.608   1.767  0.5780 -0.3485 -0.6193
  934MOL0     C26020   7.887   0.546   2.046  0.1779 -0.6730 -0.3483
  934MOL0     C26021   7.781   0.463   2.077 -0.6345  0.4848 -0.6992
  934MOL0     C26022   7.703   0.492   2.209 -0.2818 -0.0572  0.2055
  934MOL0     H26023   7.639  -0.054   2.087  1.0424 -0.3598  1.7134
  934MOL0     H26024   7.440  -0.199   2.151 -5.0804 -0.1920 -0.2626
  934MOL0     H26025   7.207  -0.200   2.124 -4.7398  1.6273 -1.1241
  934MOL0     H26026   7.258  -0.300   2.279 -1.5153  0.3623  1.8683
  934MOL0     H26027   7.035  -0.363   2.202  1.4857  0.5234 -1.7580
  934MOL0     H26028   6.986  -0.194   2.230  0.8473  0.4185  1.0959
  934MOL0     H26029   7.069  -0.254   2.478 -0.1583  0.1537  0.1932
  934MOL0     H26030   7.071  -0.425   2.430  3.0563  1.7831 -1.1405
  934MOL0     H26031   6.836  -0.244   2.416  1.4280  0.2246  2.0723
  934MOL0     H26032   6.835  -0.417   2.353  0.8391 -1.3722  2.2644
  934MOL0     H26033   6.888  -0.517   2.570 -1.3749 -0.8812 -3.2189
  934MOL0     H26034   6.927  -0.355   2.630 -0.5105  2.1723 -1.5209
  934MOL0     H26035   6.678  -0.286   2.605  0.1973  1.1967  2.0916
  934MOL0     H26036   6.669  -0.467   2.568  3.2412 -0.6221 -1.5112
  934MOL0     H26037   6.599  -0.361   2.803 -0.0679 -1.5228 -0.0478
  934MOL0     H26038   6.769  -0.355   2.847  1.4562 -3.3907  0.4563
  934MOL0     H26039   6.657  -0.616   2.744 -0.1281 -1.6398  1.6994
  934MOL0     H26040   6.791  -0.591   2.848 -0.6781 -0.6687 -1.6394
  934MOL0     H26041   6.768  -0.585   3.092  0.3981 -2.0396 -0.3463
  934MOL0     H26042   6.608  -0.645   3.361 -0.7608  0.9164 -0.1890
  934MOL0     H26043   6.481  -0.758   3.311  1.0129 -1.3732  3.2151
  934MOL0     H26044   6.778  -0.782   3.258  0.8862 -1.5355 -0.6828
  934MOL0     H26045   6.705  -0.849   3.385  1.4385 -1.2438 -1.0963
  934MOL0     H26046   6.592  -1.029   3.262 -0.3313 -0.0026  0.2588
  934MOL0     H26047   6.752  -1.005   3.196 -0.2738 -1.8844  0.6441
  934MOL0     H26048   6.658  -0.885   3.009 -0.7458  0.7975 -0.5699
  934MOL0     H26049   6.492  -0.910   3.069  0.7777  0.4612 -1.7180
  934MOL0     H26050   6.348  -1.051   3.161  1.1853 -0.3441  0.3220
  934MOL0     H26051   6.227  -1.231   3.229 -1.9332  1.5183 -2.0826
  934MOL0     H26052   6.332  -1.863   3.027  1.6112  2.5087  2.8244
  934MOL0     H26053   6.184  -2.050   3.011  3.2297  2.3212 -2.7063
  934MOL0     H26054   5.821  -2.000   2.846  2.1985  0.8209 -0.2922
  934MOL0     H26055   5.857  -2.168   2.883  1.3343  0.2661  1.8905
  934MOL0     H26056   5.656  -1.984   3.028 -0.3313  0.3474 -1.6427
  934MOL0     H26057   5.629  -2.096   2.888  1.0175 -0.3059 -0.7325
  934MOL0     H26058   5.589  -2.261   3.038 -1.7803 -0.5014  3.5839
  934MOL0     H26059   5.763  -2.260   3.060 -1.8073 -2.9077 -1.8831
  934MOL0     H26060   5.566  -2.085   3.219  0.1672  0.1463  2.1878
  934MOL0     H26061   5.739  -2.123   3.263  1.4632 -1.4703 -3.0708
  934MOL0     H26062   5.502  -2.321   3.245  2.3893 -0.2837 -2.1760
  934MOL0     H26063   5.538  -2.234   3.386 -0.4723 -2.4715  1.2786
  934MOL0     H26064   5.733  -2.415   3.250 -0.4405 -0.2008 -0.0436
  934MOL0     H26065   5.778  -2.324   3.390  0.7268  0.2676 -2.3650
  934MOL0     H26066   5.553  -2.529   3.384 -0.5847  0.9574 -0.5476
  934MOL0     H26067   5.604  -2.437   3.525 -1.2027 -0.5740 -1.2779
  934MOL0     H26068   5.765  -2.662   3.393 -0.8308 -0.6404  0.9959
  934MOL0     H26069   5.848  -2.529   3.500 -1.1725  2.9402  2.4694
  934MOL0     H26070   5.845  -1.816   3.085 -0.1985 -2.6172 -1.5176
  934MOL0     H26071   5.987  -1.595   3.071  0.1595 -0.0476  0.8359
  934MOL0     H26072   6.453  -1.492   2.971 -1.0650 -0.2054  0.0742
  934MOL0     H26073   6.586  -1.303   2.912 -1.4391  1.1987 -1.4493
  934MOL0     H26074   7.290   0.115   2.403 -1.9826  2.8483 -2.8077
  934MOL0     H26075   7.473   0.268   2.299  0.4424  0.1158 -2.8883
  934MOL0     H26076   7.736   0.294   1.794  0.5945  1.6320 -1.5617
  934MOL0     H26077   7.962   0.408   1.745 -0.8873  1.2834 -0.2188
  934MOL0     H26078   8.213   0.689   1.802  2.2284 -0.4640 -0.5288
  934MOL0     H26079   8.104   0.587   1.705  1.2230 -0.7147 -1.1648
  934MOL0     H26080   8.304   0.449   1.725 -1.2693 -1.4104 -0.8800
  934MOL0     H26081   8.201   0.376   1.842  2.7369 -1.7967  0.4212
  934MOL0     H26082   8.305   0.459   2.034 -0.8646  0.4046  0.3150
  934MOL0     H26083   8.340   0.615   1.959  0.2450 -0.1844 -0.8573
  934MOL0     H26084   8.544   0.454   2.044  1.3732  1.0103 -0.6075
  934MOL0     H26085   8.503   0.354   1.911  1.6088 -0.7721 -0.2523
  934MOL0     H26086   8.668   0.680   1.699 -0.2002 -0.2496 -0.9672
  934MOL0     H26087   7.926   0.611   2.123  1.3495  0.5411 -1.8784
  934MOL0     H26088   7.611   0.550   2.200 -0.7770 -0.6592  1.2052
  934MOL0     H26089   7.678   0.397   2.257 -0.6506 -0.3032 -0.4445
  934MOL0     H26090   7.771   0.545   2.276  0.5027 -2.2009  1.1947
  935MOL0     O26091   6.930   2.109   5.498  0.3149  0.4321 -0.4135
  935MOL0     C26092   7.046   2.069   5.486  0.2714  0.2419 -0.2423
  935MOL0     O26093   7.098   2.004   5.373 -0.0293 -0.0324 -0.0514
  935MOL0     C26094   7.035   1.955   5.260  0.4833  0.1585  0.7545
  935MOL0     C26095   6.900   1.975   5.229 -0.7054  0.2389  0.0877
  935MOL0     C26096   6.850   1.942   5.099 -0.1098  0.7750 -0.6737
  935MOL0     C26097   6.934   1.877   5.008 -0.1317 -0.5582  0.1311
  935MOL0     O26098   6.900   1.828   4.880  0.5146  0.2356 -0.3575
  935MOL0     C26099   6.779   1.871   4.812 -0.4730 -0.4941  0.1385
  935MOL0     C26100   6.749   1.772   4.704  0.4349 -0.1071 -0.1910
  935MOL0     C26101   6.617   1.786   4.638  0.2173 -0.4564 -0.0797
  935MOL0     C26102   6.583   1.666   4.546 -0.2188  0.0684 -0.9921
  935MOL0     C26103   6.481   1.707   4.433  0.1010  0.8269 -0.6297
  935MOL0     C26104   6.472   1.602   4.323 -0.1819  1.0169  0.1944
  935MOL0     C26105   6.595   1.505   4.297  0.4038 -0.2501 -0.4291
  935MOL0     C26106   6.549   1.388   4.213 -0.5922  0.1812  0.0373
  935MOL0     N26107   6.505   1.439   4.085 -0.6667 -0.4906  0.5553
  935MOL0     C26108   6.600   1.470   3.982  0.9356  0.4240  0.6411
  935MOL0     C26109   6.520   1.485   3.870 -1.0917 -0.4814  0.9933
  935MOL0     C26110   6.565   1.514   3.730 -1.0249 -0.3935 -0.1709
  935MOL0     C26111   6.524   1.401   3.633  0.4577 -0.4345 -0.4434
  935MOL0     C26112   6.570   1.441   3.495 -0.2156  0.0917  0.0686
  935MOL0     C26113   6.464   1.401   3.382 -0.7561  0.6511  0.2511
  935MOL0     O26114   6.508   1.460   3.253 -0.4317 -0.4946  0.2860
  935MOL0     C26115   6.430   1.453   3.136 -0.1408 -0.3013 -0.2730
  935MOL0     C26116   6.477   1.407   3.009  0.0755 -0.1164 -0.0637
  935MOL0     C26117   6.391   1.392   2.902 -0.3291  0.4570  0.4427
  935MOL0     C26118   6.262   1.433   2.909  0.6914  0.0502  1.0893
  935MOL0     C26119   6.174   1.431   2.783 -0.0561  0.7028 -0.2938
  935MOL0     O26120   6.237   1.392   2.671  0.3272 -0.6036 -0.2446
  935MOL0     C26121   6.181   1.420   2.553  1.1910 -0.1371  0.6880
  935MOL0     C26122   6.196   1.540   2.493 -0.0244 -0.5016  0.3533
  935MOL0     C26123   6.121   1.572   2.383 -0.3685  0.1156  0.1412
  935MOL0     C26124   6.018   1.493   2.346  0.5192 -0.0231  0.4170
  935MOL0     O26125   5.937   1.522   2.236 -0.2635  0.5449 -0.1430
  935MOL0     C26126   5.917   1.659   2.191 -0.1667  0.1139  0.7497
  935MOL0     C26127   5.819   1.654   2.078 -0.9235  0.7400  0.2174
  935MOL0     C26128   5.874   1.604   1.948 -0.3822  0.2164 -0.4171
  935MOL0     C26129   5.786   1.617   1.827  0.3841  0.7080  0.5563
  935MOL0     C26130   5.846   1.553   1.701 -0.6052  0.2700 -0.0463
  935MOL0     C26131   5.743   1.542   1.589 -0.3864  0.3807  0.2908
  935MOL0     C26132   5.806   1.509   1.456  0.4889 -0.1705  0.4773
  935MOL0     C26133   5.709   1.442   1.362  0.5477  0.6321  0.1614
  935MOL0    Cl26134   5.794   1.436   1.202  0.0361  0.0044 -0.1347
  935MOL0     C26135   5.986   1.375   2.422  0.2928 -1.4239 -0.5315
  935MOL0     C26136   6.083   1.328   2.504  0.8390  0.1452 -0.0577
  935MOL0     O26137   6.057   1.458   2.784 -0.7902  0.7582  0.3512
  935MOL0     C26138   6.211   1.486   3.028 -0.9994 -0.2417 -0.2253
  935MOL0     C26139   6.297   1.496   3.142  0.1356 -0.4340 -0.8852
  935MOL0     N26140   6.386   1.462   3.904 -0.2362  0.6562  0.6794
  935MOL0     N26141   6.382   1.442   4.032  0.2529  1.0871  0.8767
  935MOL0     C26142   7.069   1.846   5.047 -0.1089  0.8563 -0.7024
  935MOL0     C26143   7.116   1.892   5.166  0.0091  0.0735  0.4043
  935MOL0     C26144   7.133   2.104   5.611 -0.5259  0.3555 -0.7166
  935MOL0     C26145   7.266   2.057   5.602 -0.1733  0.4055 -0.4236
  935MOL0     C26146   7.363   2.091   5.696 -0.7035  0.3803  0.7265
  935MOL0     C26147   7.328   2.169   5.810  1.0727 -0.1735  0.2397
  935MOL0     O26148   7.426   2.219   5.882 -1.0922  0.7415  0.3767
  935MOL0     C26149   7.389   2.293   6.003 -0.1425  0.2553  0.6647
  935MOL0     C26150   7.526   2.335   6.075  0.7214  0.5449  1.5432
  935MOL0     C26151   7.504   2.468   6.155 -0.3631 -0.8827  0.4038
  935MOL0     C26152   7.614   2.511   6.243  0.1941 -1.0612  0.5761
  935MOL0     C26153   7.632   2.406   6.344  1.3920 -0.1119 -0.2346
  935MOL0     C26154   7.656   2.298   6.401 -0.1330 -0.2197  0.7999
  935MOL0     C26155   7.192   2.211   5.821  0.2224 -0.2407 -0.0738
  935MOL0     C26156   7.092   2.177   5.725  0.1530  0.5980 -0.9903
  935MOL0     C26157   6.952   2.221   5.748  0.0560 -0.5271  0.2586
  935MOL0     H26158   6.830   2.018   5.300  0.9440  1.4418  1.0758
  935MOL0     H26159   6.745   1.962   5.083  0.1369  1.0874 -1.9720
  935MOL0     H26160   6.689   1.881   4.874  0.4812 -1.0655  1.6906
  935MOL0     H26161   6.806   1.972   4.782  1.1152 -1.4930 -2.1089
  935MOL0     H26162   6.762   1.669   4.737  3.2111  0.9721  2.6324
  935MOL0     H26163   6.818   1.777   4.620 -0.1130 -0.5482 -0.6738
  935MOL0     H26164   6.615   1.884   4.590 -1.8551 -0.1512  0.5540
  935MOL0     H26165   6.535   1.802   4.709  0.4039 -0.8260  0.2259
  935MOL0     H26166   6.678   1.636   4.501 -1.4294 -1.4255 -2.7162
  935MOL0     H26167   6.555   1.583   4.611  3.9728 -1.5415 -0.9112
  935MOL0     H26168   6.383   1.729   4.477  0.2946  0.7058 -0.1286
  935MOL0     H26169   6.523   1.800   4.393 -0.1048  2.8475  3.3844
  935MOL0     H26170   6.386   1.546   4.362 -1.3746  2.5905 -0.0920
  935MOL0     H26171   6.435   1.636   4.227 -1.5216  0.5646  0.5341
  935MOL0     H26172   6.622   1.468   4.397 -2.0681  1.8955  1.1713
  935MOL0     H26173   6.673   1.558   4.242  0.5088  1.3380  1.1844
  935MOL0     H26174   6.624   1.309   4.200  1.5920  2.4527 -2.3619
  935MOL0     H26175   6.468   1.339   4.268 -0.1498 -2.1434 -1.2139
  935MOL0     H26176   6.709   1.468   3.989  1.2284 -2.3874 -2.5315
  935MOL0     H26177   6.517   1.611   3.715  1.0282  1.2377  2.6830
  935MOL0     H26178   6.670   1.543   3.736 -0.3919 -1.2494 -4.1540
  935MOL0     H26179   6.586   1.319   3.669  0.2951  0.6399  2.5310
  935MOL0     H26180   6.423   1.362   3.642  0.7019 -0.6927  1.5302
  935MOL0     H26181   6.661   1.383   3.474 -0.1788 -1.2013  3.2560
  935MOL0     H26182   6.584   1.547   3.472 -2.5456  0.6920  1.1482
  935MOL0     H26183   6.372   1.448   3.415 -1.1570  1.9109 -2.4184
  935MOL0     H26184   6.481   1.293   3.372  3.5874  1.1311  0.5585
  935MOL0     H26185   6.582   1.380   3.016  0.2828  0.7423  0.2231
  935MOL0     H26186   6.437   1.352   2.813  0.8411  3.1712 -0.2860
  935MOL0     H26187   6.277   1.600   2.534  2.6875 -4.0756  0.6942
  935MOL0     H26188   6.151   1.662   2.330  4.0857 -0.4127  1.3109
  935MOL0     H26189   5.872   1.730   2.261  0.3614  1.9441 -0.7060
  935MOL0     H26190   6.008   1.703   2.150  1.5376 -2.1168  1.8805
  935MOL0     H26191   5.745   1.580   2.109 -0.3605 -0.9604 -2.2002
  935MOL0     H26192   5.789   1.758   2.064  1.2365  1.4523  0.4847
  935MOL0     H26193   5.975   1.636   1.924  0.1334  0.1325  1.5010
  935MOL0     H26194   5.886   1.497   1.966 -1.6544  0.4933  2.5458
  935MOL0     H26195   5.760   1.720   1.804  1.7709  0.7828 -0.9246
  935MOL0     H26196   5.693   1.564   1.848  0.7533 -1.1578 -1.9450
  935MOL0     H26197   5.889   1.453   1.707  0.4711  0.5277 -2.3193
  935MOL0     H26198   5.932   1.614   1.672 -0.9928  1.4753  1.2221
  935MOL0     H26199   5.680   1.454   1.605  2.5351 -2.3042 -1.7541
  935MOL0     H26200   5.682   1.633   1.583  1.8503  1.9870  0.7711
  935MOL0     H26201   5.891   1.444   1.479 -0.2187 -0.7228  1.6374
  935MOL0     H26202   5.854   1.603   1.427  2.0246 -0.2881  2.3979
  935MOL0     H26203   5.688   1.341   1.398  0.4861 -0.6438 -3.1241
  935MOL0     H26204   5.621   1.507   1.356 -0.9001 -1.3796 -2.9017
  935MOL0     H26205   5.897   1.315   2.407 -0.9234  0.2932 -0.3899
  935MOL0     H26206   6.070   1.228   2.544  0.7510  0.2637  0.2074
  935MOL0     H26207   6.108   1.519   3.029 -1.1008 -0.5636  0.2553
  935MOL0     H26208   6.251   1.545   3.227 -1.2121 -0.8594 -1.3393
  935MOL0     H26209   7.134   1.788   4.983  1.0176  1.5351 -0.2162
  935MOL0     H26210   7.223   1.883   5.182  0.2423  0.3577 -0.8479
  935MOL0     H26211   7.285   1.988   5.521  3.1892  0.3555  0.2634
  935MOL0     H26212   7.461   2.049   5.676 -0.7533  2.0194 -4.4414
  935MOL0     H26213   7.309   2.252   6.064 -0.8507 -0.1354 -0.4949
  935MOL0     H26214   7.346   2.390   5.976  0.6459  0.9258  1.7248
  935MOL0     H26215   7.604   2.353   6.000  1.5922 -2.6991  1.5590
  935MOL0     H26216   7.568   2.248   6.125  0.8050 -2.0709 -2.5695
  935MOL0     H26217   7.419   2.462   6.224  0.0280 -2.0892  0.8182
  935MOL0     H26218   7.489   2.556   6.093 -1.4259 -1.7143 -0.5663
  935MOL0     H26219   7.699   2.531   6.177 -0.1714 -1.8661 -0.1652
  935MOL0     H26220   7.586   2.606   6.289  0.4364  0.8551 -2.9111
  935MOL0     H26221   7.690   2.208   6.448 -2.9977 -0.7448  2.0994
  935MOL0     H26222   7.158   2.283   5.894 -3.9250 -0.5951 -1.3966
  935MOL0     H26223   6.879   2.144   5.775  1.9254 -2.4368  0.1416
  935MOL0     H26224   6.947   2.277   5.842 -0.5482 -0.5994  0.2697
  935MOL0     H26225   6.926   2.284   5.663  4.4315 -0.2324 -1.0960
  936MOL0     O26226   6.918   3.078   8.761 -0.6675  0.3913  0.4660
  936MOL0     C26227   7.029   3.114   8.737 -0.5315 -0.7510 -0.1642
  936MOL0     O26228   7.068   3.242   8.684 -0.2915  0.3981 -0.5964
  936MOL0     C26229   6.966   3.333   8.647 -0.2388  0.7414  0.2150
  936MOL0     C26230   6.936   3.352   8.514 -0.1663 -0.4471  0.4457
  936MOL0     C26231   6.839   3.447   8.470 -0.6208 -1.3540 -0.6907
  936MOL0     C26232   6.774   3.532   8.560  0.0147  0.1055  0.7679
  936MOL0     O26233   6.671   3.612   8.537  0.0721  0.2116  0.0664
  936MOL0     C26234   6.672   3.697   8.417  0.4165  0.6607 -1.1136
  936MOL0     C26235   6.732   3.825   8.446  0.4337  0.0027 -0.0021
  936MOL0     C26236   6.652   3.903   8.545 -0.0791  0.9275  0.5912
  936MOL0     C26237   6.747   3.999   8.627 -0.1039  0.9182  0.6272
  936MOL0     C26238   6.673   4.127   8.652 -0.3942 -0.6964 -0.0053
  936MOL0     C26239   6.548   4.111   8.750 -0.7803  0.0367 -0.2473
  936MOL0     C26240   6.500   4.251   8.796  0.3857  0.3391  1.2446
  936MOL0     C26241   6.378   4.251   8.890 -0.4347 -0.2899 -0.2611
  936MOL0     N26242   6.366   4.379   8.956  0.8893  0.3643 -0.0429
  936MOL0     C26243   6.397   4.401   9.085  0.1962  0.3150 -0.3595
  936MOL0     C26244   6.379   4.539   9.103 -0.9015  0.8564  0.4556
  936MOL0     C26245   6.394   4.623   9.229 -0.1171 -0.2085  0.2733
  936MOL0     C26246   6.525   4.695   9.219 -0.5269 -0.5025  0.5630
  936MOL0     C26247   6.554   4.745   9.368 -1.2911 -0.2863  0.5865
  936MOL0     C26248   6.450   4.834   9.417 -0.3273 -1.1046 -0.0415
  936MOL0     O26249   6.491   4.873   9.543 -0.6086 -0.1370  0.3116
  936MOL0     C26250   6.403   4.952   9.613  0.2138  0.5016 -0.3604
  936MOL0     C26251   6.398   4.926   9.744  1.3739  0.8527 -0.1206
  936MOL0     C26252   6.298   4.969   9.831 -0.3663  0.4644  0.6653
  936MOL0     C26253   6.205   5.056   9.784  0.4844 -0.4476  0.0987
  936MOL0     C26254   6.112   5.112   9.883  0.0493 -0.2128 -0.3428
  936MOL0     O26255   6.081   5.038   9.997  0.3476 -0.0931  0.3344
  936MOL0     C26256   6.028   5.101  10.104 -0.6023 -1.1694  1.0000
  936MOL0     C26257   5.923   5.045  10.161  0.7791 -0.2845  0.7905
  936MOL0     C26258   5.874   5.077  10.282 -0.3200  0.0871 -0.2669
  936MOL0     C26259   5.935   5.172  10.366 -0.4571  0.7445 -0.1479
  936MOL0     O26260   5.891   5.191  10.494 -0.1768 -0.1166  0.1022
  936MOL0     C26261   5.984   5.206  10.597 -0.0278 -0.9100  0.8162
  936MOL0     C26262   5.966   5.340  10.662  0.8523  0.8710 -0.2681
  936MOL0     C26263   6.079   5.387  10.753 -0.1825  1.2271  0.8239
  936MOL0     C26264   6.063   5.537  10.772 -0.1885 -0.2462  0.5034
  936MOL0     C26265   6.114   5.573  10.915 -0.4466 -0.0666 -0.2964
  936MOL0     C26266   6.091   5.722  10.956 -0.5917 -0.3352  0.7551
  936MOL0     C26267   6.206   5.756  11.050  0.4330 -0.1235 -0.0395
  936MOL0     C26268   6.207   5.907  11.082 -0.1890  0.0127  0.2211
  936MOL0    Cl26269   6.356   5.941  11.172 -0.4082 -0.1052  0.0573
  936MOL0     C26270   6.042   5.235  10.306 -0.5888  0.6834 -0.4001
  936MOL0     C26271   6.088   5.202  10.172  0.7645 -0.0704  0.7874
  936MOL0     O26272   6.072   5.222   9.861  0.0819  0.4969 -0.8921
  936MOL0     C26273   6.200   5.090   9.649  0.3632 -0.0257 -0.3953
  936MOL0     C26274   6.301   5.038   9.566  0.1808  0.5680  0.1543
  936MOL0     N26275   6.334   4.594   8.981  0.3331  0.9310 -0.2023
  936MOL0     N26276   6.323   4.493   8.897  0.8011 -0.0807  1.4387
  936MOL0     C26277   6.793   3.504   8.696 -0.4774 -0.4384  0.5213
  936MOL0     C26278   6.892   3.409   8.733 -0.2071 -0.7075  0.2502
  936MOL0     C26279   7.145   3.027   8.772 -0.1400  0.9020 -0.3341
  936MOL0     C26280   7.273   3.094   8.765  0.4842  0.0552 -0.2742
  936MOL0     C26281   7.394   3.021   8.766  0.4595 -0.2004 -0.9282
  936MOL0     C26282   7.390   2.882   8.788  0.7651  0.0438 -0.4005
  936MOL0     O26283   7.512   2.815   8.815 -0.2799 -0.3351 -0.0578
  936MOL0     C26284   7.523   2.671   8.845 -0.3488  0.1004 -0.5954
  936MOL0     C26285   7.472   2.626   8.982 -1.1182  0.1530 -0.4418
  936MOL0     C26286   7.573   2.666   9.086  0.6412 -0.4097 -0.1802
  936MOL0     C26287   7.551   2.796   9.153  0.0754 -0.8995  0.4755
  936MOL0     C26288   7.424   2.805   9.217  0.4682  0.4554  0.3617
  936MOL0     C26289   7.312   2.809   9.254  0.2542  0.4921 -0.3127
  936MOL0     C26290   7.270   2.817   8.797  0.3680  0.6905  0.1451
  936MOL0     C26291   7.143   2.884   8.802 -0.5560 -0.9277  0.9165
  936MOL0     C26292   7.017   2.810   8.811  0.6571  0.0171  0.7890
  936MOL0     H26293   6.980   3.293   8.434 -0.0675  0.2562 -0.0387
  936MOL0     H26294   6.832   3.456   8.362  2.6620 -1.5965 -1.0170
  936MOL0     H26295   6.739   3.661   8.339  2.5984 -3.3118  2.1383
  936MOL0     H26296   6.575   3.708   8.368 -0.8844 -0.1199  1.0841
  936MOL0     H26297   6.725   3.885   8.355 -2.6265  0.8105  0.6641
  936MOL0     H26298   6.838   3.805   8.466  0.2859 -0.0004  0.8280
  936MOL0     H26299   6.600   3.825   8.602 -0.2281  0.9398  0.4719
  936MOL0     H26300   6.575   3.957   8.490 -0.9836 -0.9468 -0.0490
  936MOL0     H26301   6.782   3.957   8.722  2.0559 -1.1230 -0.9720
  936MOL0     H26302   6.837   4.040   8.581 -1.0285  3.5779  0.9990
  936MOL0     H26303   6.751   4.198   8.680  1.8706 -2.0155 -2.6231
  936MOL0     H26304   6.630   4.164   8.559  2.6094  0.3040 -1.1046
  936MOL0     H26305   6.471   4.052   8.699 -0.5550 -1.7529  1.3728
  936MOL0     H26306   6.571   4.052   8.839  0.2380 -0.6319 -0.9284
  936MOL0     H26307   6.457   4.294   8.705 -0.8906 -1.1683  1.0883
  936MOL0     H26308   6.583   4.313   8.830 -0.3990  0.7034  2.5526
  936MOL0     H26309   6.284   4.226   8.841 -2.0903  0.9043  2.1199
  936MOL0     H26310   6.395   4.177   8.969 -0.0793  1.3667  1.2901
  936MOL0     H26311   6.400   4.331   9.168 -4.2933  0.9607  0.6341
  936MOL0     H26312   6.304   4.685   9.232 -0.7831 -0.7671 -3.5644
  936MOL0     H26313   6.391   4.559   9.318  0.1489 -0.5180  0.0631
  936MOL0     H26314   6.608   4.630   9.187 -0.3634  0.2848 -0.6822
  936MOL0     H26315   6.523   4.784   9.155  0.3161 -1.0054 -0.1990
  936MOL0     H26316   6.651   4.797   9.373 -1.4451  0.1184 -0.4819
  936MOL0     H26317   6.566   4.663   9.439 -0.1541  0.2402  1.0422
  936MOL0     H26318   6.351   4.787   9.424 -0.9713 -0.2116 -2.3019
  936MOL0     H26319   6.436   4.919   9.350  1.4015  1.0318  2.1420
  936MOL0     H26320   6.470   4.855   9.784 -0.6702  0.1260  2.5394
  936MOL0     H26321   6.311   4.935   9.934  2.5315 -0.6891  0.0030
  936MOL0     H26322   5.870   4.969  10.104 -0.0837  0.4526  0.5864
  936MOL0     H26323   5.789   5.028  10.328  2.0162 -2.4635  1.6657
  936MOL0     H26324   5.983   5.127  10.673  1.5833  0.9964  2.9571
  936MOL0     H26325   6.087   5.200  10.561 -0.4891 -1.3640 -0.4735
  936MOL0     H26326   5.946   5.413  10.583  1.6329  0.2950 -1.0228
  936MOL0     H26327   5.872   5.324  10.716 -2.0805  1.2395 -4.6952
  936MOL0     H26328   6.077   5.345  10.855 -2.1727 -0.8656  0.0020
  936MOL0     H26329   6.174   5.361  10.704 -1.7338  0.6753 -2.1097
  936MOL0     H26330   5.957   5.562  10.766 -0.4619 -1.1829  1.1023
  936MOL0     H26331   6.112   5.594  10.693  0.1641  2.6046  2.6262
  936MOL0     H26332   6.219   5.545  10.900 -0.4820 -0.9475  0.9833
  936MOL0     H26333   6.075   5.507  10.993 -0.6238 -0.0433 -0.3642
  936MOL0     H26334   6.096   5.772  10.858  2.5948 -1.1128  0.3915
  936MOL0     H26335   5.992   5.736  10.999 -0.4427 -2.3252  1.8641
  936MOL0     H26336   6.302   5.734  11.001 -0.4403 -2.0930 -1.0137
  936MOL0     H26337   6.197   5.679  11.128  0.4160 -1.5808 -1.4127
  936MOL0     H26338   6.217   5.960  10.987 -0.3762 -1.4884 -0.6670
  936MOL0     H26339   6.119   5.937  11.139  1.0014 -0.1752  2.2906
  936MOL0     H26340   6.097   5.304  10.369  1.9615 -2.4190  1.1200
  936MOL0     H26341   6.172   5.235  10.111  0.6340 -1.2215 -0.0487
  936MOL0     H26342   6.126   5.155   9.604  2.1504 -0.0250 -3.6480
  936MOL0     H26343   6.289   5.060   9.460  1.2034  2.8817  0.4498
  936MOL0     H26344   6.735   3.550   8.775  3.7465  1.7882  2.6978
  936MOL0     H26345   6.911   3.411   8.840 -2.7204  1.5767  0.7667
  936MOL0     H26346   7.283   3.201   8.760  0.5123  0.0290 -4.8341
  936MOL0     H26347   7.489   3.074   8.766  1.2775 -1.5708  0.5529
  936MOL0     H26348   7.630   2.652   8.839 -0.0031 -0.6971  4.2594
  936MOL0     H26349   7.459   2.620   8.772 -0.9576  0.7541 -0.5243
  936MOL0     H26350   7.460   2.518   8.970 -2.1225  0.5447 -3.8805
  936MOL0     H26351   7.375   2.669   9.008 -0.0663  2.0069  0.6480
  936MOL0     H26352   7.679   2.666   9.058  0.9485 -0.5884  0.9131
  936MOL0     H26353   7.566   2.592   9.167  1.1622  2.2860  2.5195
  936MOL0     H26354   7.628   2.827   9.225 -1.0143  3.9720 -0.0752
  936MOL0     H26355   7.553   2.883   9.087 -1.6936 -0.6253  0.7147
  936MOL0     H26356   7.210   2.808   9.288 -0.4750  0.2661 -2.3561
  936MOL0     H26357   7.279   2.712   8.822 -0.4642  0.5516 -0.0808
  936MOL0     H26358   6.952   2.826   8.724  2.2948  1.0085 -0.2923
  936MOL0     H26359   7.037   2.703   8.809  0.0408 -0.0953  0.3380
  936MOL0     H26360   6.958   2.816   8.903 -1.9998 -2.5646 -0.5913
  937MOL0     O26361   4.269   4.487   5.446 -0.1266 -0.6874  0.4032
  937MOL0     C26362   4.275   4.376   5.497 -1.2536  0.5514  0.0322
  937MOL0     O26363   4.351   4.340   5.604 -0.3526  0.1872  0.4381
  937MOL0     C26364   4.459   4.408   5.665  0.7002 -0.0205 -0.3875
  937MOL0     C26365   4.476   4.544   5.656 -0.2601  0.3064  0.4754
  937MOL0     C26366   4.591   4.609   5.719 -0.7869 -0.7889  0.6674
  937MOL0     C26367   4.686   4.527   5.771  1.0098  0.9484 -0.5076
  937MOL0     O26368   4.802   4.573   5.825  0.7180  0.1818  0.1003
  937MOL0     C26369   4.847   4.714   5.810 -0.4490 -0.4041  0.3943
  937MOL0     C26370   4.978   4.748   5.884  0.1677  0.5679  0.3221
  937MOL0     C26371   5.096   4.709   5.801 -0.0807  0.0456  0.2544
  937MOL0     C26372   5.230   4.742   5.879 -0.2824  0.4405  0.0494
  937MOL0     C26373   5.360   4.676   5.825  0.5318  0.5395 -0.2523
  937MOL0     C26374   5.371   4.675   5.675  0.7483  0.2263  0.6020
  937MOL0     C26375   5.499   4.602   5.639  0.5298 -0.0228 -0.2786
  937MOL0     C26376   5.493   4.565   5.486  0.5142 -0.2469 -0.3924
  937MOL0     N26377   5.624   4.538   5.423 -0.0562 -1.0995 -0.6238
  937MOL0     C26378   5.685   4.621   5.322  1.0177  1.5126 -0.8412
  937MOL0     C26379   5.792   4.554   5.285 -0.2345  0.7787 -0.5778
  937MOL0     C26380   5.892   4.579   5.170 -0.0190 -0.4311 -1.0512
  937MOL0     C26381   5.865   4.502   5.044  0.4337 -0.2374 -0.2476
  937MOL0     C26382   5.720   4.528   4.988  0.1334  0.3225 -0.0067
  937MOL0     C26383   5.682   4.425   4.893 -0.4295 -0.0979 -0.1527
  937MOL0     O26384   5.554   4.473   4.837 -0.2689  0.3645 -0.3446
  937MOL0     C26385   5.496   4.389   4.747 -0.7433 -0.7250  0.1512
  937MOL0     C26386   5.392   4.436   4.664 -0.6027 -0.0455  0.2658
  937MOL0     C26387   5.322   4.355   4.580 -1.2462 -0.1114  0.3765
  937MOL0     C26388   5.360   4.218   4.569  0.3969 -0.6809  0.0052
  937MOL0     C26389   5.293   4.123   4.480 -0.5573 -0.6349 -0.2356
  937MOL0     O26390   5.154   4.127   4.479  0.2227  0.5313  0.2162
  937MOL0     C26391   5.094   4.035   4.394  0.1517  0.0063 -1.4094
  937MOL0     C26392   5.102   4.049   4.260  0.5116 -0.3167 -0.4592
  937MOL0     C26393   5.032   3.962   4.168  0.1372  0.5979 -1.0970
  937MOL0     C26394   4.952   3.855   4.217  0.2557 -0.3499  0.0203
  937MOL0     O26395   4.877   3.771   4.134 -0.3863 -0.7828 -0.6043
  937MOL0     C26396   4.739   3.799   4.156  0.5289 -0.1171 -0.3051
  937MOL0     C26397   4.650   3.697   4.067  0.1016 -0.4134  0.0726
  937MOL0     C26398   4.500   3.737   4.077  0.0464  1.1198 -0.1069
  937MOL0     C26399   4.427   3.659   4.183 -0.7106 -0.6801 -1.2045
  937MOL0     C26400   4.279   3.660   4.189  0.0699 -0.3744  0.3421
  937MOL0     C26401   4.220   3.800   4.160  0.1348  0.9779  0.0646
  937MOL0     C26402   4.194   3.887   4.279 -0.1049 -0.1385 -0.6141
  937MOL0     C26403   4.105   3.812   4.378  0.3369 -0.0725 -0.3434
  937MOL0    Cl26404   4.179   3.697   4.491 -0.3748 -0.2878  0.0489
  937MOL0     C26405   4.953   3.845   4.361  0.3742  0.7495  0.4947
  937MOL0     C26406   5.019   3.929   4.450 -0.0998 -0.3889  0.1699
  937MOL0     O26407   5.365   4.040   4.416  0.2135  0.1800 -0.7598
  937MOL0     C26408   5.462   4.169   4.649 -1.7545  0.8286  1.0275
  937MOL0     C26409   5.538   4.253   4.730  0.0691 -0.2937 -0.2121
  937MOL0     N26410   5.796   4.435   5.361  0.0190  0.0037 -0.4131
  937MOL0     N26411   5.705   4.437   5.454 -0.6847  0.9810 -0.1549
  937MOL0     C26412   4.672   4.387   5.775  0.7633 -0.2840 -0.1812
  937MOL0     C26413   4.553   4.330   5.726  0.6211  0.3011  0.5492
  937MOL0     C26414   4.211   4.260   5.435  0.3648  0.7033 -0.4530
  937MOL0     C26415   4.207   4.136   5.503 -0.6706  0.3597 -0.8710
  937MOL0     C26416   4.161   4.016   5.442  1.2069  0.0636  0.4085
  937MOL0     C26417   4.115   4.011   5.309  0.0048  0.9478  0.2020
  937MOL0     O26418   4.060   3.907   5.252  0.2773  0.2860  0.1798
  937MOL0     C26419   3.925   3.928   5.198  0.8092  0.1167 -0.4158
  937MOL0     C26420   3.831   3.817   5.233  0.8164 -0.4025  0.9403
  937MOL0     C26421   3.848   3.690   5.160  1.4595 -0.4297  0.4921
  937MOL0     C26422   3.753   3.581   5.220 -0.8859 -0.4609 -0.2285
  937MOL0     C26423   3.747   3.464   5.134 -0.1774  0.0429 -0.0275
  937MOL0     C26424   3.717   3.372   5.078  0.1793  0.4292 -0.0874
  937MOL0     C26425   4.104   4.138   5.243 -0.2006 -0.9154 -0.5344
  937MOL0     C26426   4.168   4.254   5.292  0.1722 -1.0237  0.3410
  937MOL0     C26427   4.170   4.379   5.203 -0.2375 -0.2086 -0.1028
  937MOL0     H26428   4.399   4.602   5.605 -0.4619 -0.5856 -0.2624
  937MOL0     H26429   4.593   4.716   5.707 -0.4528 -1.1136 -3.8393
  937MOL0     H26430   4.859   4.737   5.703 -1.8979 -0.3106  0.2353
  937MOL0     H26431   4.774   4.787   5.844  0.1035  1.5537 -2.2637
  937MOL0     H26432   4.986   4.698   5.981  3.3775 -3.7060 -1.7933
  937MOL0     H26433   4.976   4.856   5.898  1.5103  0.7421 -0.6317
  937MOL0     H26434   5.091   4.773   5.713 -1.8861 -0.2274  0.1168
  937MOL0     H26435   5.100   4.608   5.758  2.9848  1.0885 -2.2518
  937MOL0     H26436   5.247   4.850   5.879  1.5244  0.2466 -2.7794
  937MOL0     H26437   5.217   4.719   5.985  1.5926  0.3675  0.3050
  937MOL0     H26438   5.449   4.734   5.852  0.2200  0.5454  0.8171
  937MOL0     H26439   5.371   4.575   5.866  1.9561  1.6728  2.4277
  937MOL0     H26440   5.286   4.627   5.625 -1.8316  2.9351  2.0811
  937MOL0     H26441   5.376   4.781   5.649  0.7038 -0.0781 -0.7247
  937MOL0     H26442   5.510   4.512   5.701  0.8953  1.3988  1.8035
  937MOL0     H26443   5.584   4.664   5.667 -2.3452  4.2135 -0.0544
  937MOL0     H26444   5.438   4.472   5.466  1.3869 -0.7663 -0.4179
  937MOL0     H26445   5.436   4.642   5.433 -0.3347 -1.0208 -0.6323
  937MOL0     H26446   5.640   4.711   5.280  0.2282  1.8234  0.5980
  937MOL0     H26447   5.891   4.687   5.154  0.0442  0.2546  2.6771
  937MOL0     H26448   5.996   4.561   5.197 -0.1942 -0.6786 -0.5168
  937MOL0     H26449   5.942   4.533   4.973 -0.1138 -1.4719 -1.4392
  937MOL0     H26450   5.888   4.397   5.065  1.0340 -0.2844 -1.0743
  937MOL0     H26451   5.707   4.634   4.965 -2.2609  0.5151  1.9008
  937MOL0     H26452   5.654   4.513   5.074  0.6559 -3.7622 -0.1200
  937MOL0     H26453   5.673   4.334   4.953 -1.6999  1.0986  1.5579
  937MOL0     H26454   5.761   4.421   4.817 -0.3227  5.2887 -0.7239
  937MOL0     H26455   5.361   4.539   4.679 -1.6595 -0.2056 -0.6326
  937MOL0     H26456   5.244   4.396   4.517 -1.3832  0.0268  0.6348
  937MOL0     H26457   5.155   4.138   4.227 -3.6187  2.8248  0.5832
  937MOL0     H26458   5.044   3.974   4.060 -0.4580 -0.3672 -1.2894
  937MOL0     H26459   4.715   3.792   4.262 -1.9919  0.9081 -0.7381
  937MOL0     H26460   4.713   3.903   4.132 -0.7549 -0.0621  1.2362
  937MOL0     H26461   4.688   3.690   3.965 -0.3146 -0.7534 -0.0639
  937MOL0     H26462   4.658   3.594   4.104  1.1018 -1.4414 -2.7056
  937MOL0     H26463   4.492   3.842   4.105  2.3101  1.2813  0.1305
  937MOL0     H26464   4.454   3.716   3.979  1.2862 -0.1825 -0.4413
  937MOL0     H26465   4.454   3.705   4.279  1.5282 -4.3090  0.1022
  937MOL0     H26466   4.459   3.555   4.196 -0.1348 -0.3427  0.3528
  937MOL0     H26467   4.248   3.621   4.286 -1.3373  3.0970  1.4585
  937MOL0     H26468   4.242   3.586   4.117 -0.7679  1.0044 -0.7124
  937MOL0     H26469   4.277   3.861   4.089  0.8635 -0.3265 -0.5082
  937MOL0     H26470   4.123   3.782   4.113 -0.0044  0.4536  0.5383
  937MOL0     H26471   4.146   3.976   4.237 -0.5342  0.3121  0.7951
  937MOL0     H26472   4.288   3.910   4.329  0.8090 -1.2682 -1.7378
  937MOL0     H26473   4.064   3.890   4.442  0.7637  1.4808 -1.9100
  937MOL0     H26474   4.022   3.754   4.337  1.8308 -1.7323 -1.1326
  937MOL0     H26475   4.891   3.770   4.409 -0.1257 -1.1256 -2.7700
  937MOL0     H26476   5.005   3.903   4.554  2.4434 -0.1514  0.6149
  937MOL0     H26477   5.497   4.067   4.641  1.7184  2.0022 -1.3572
  937MOL0     H26478   5.618   4.204   4.785  0.6786  0.3816 -0.4880
  937MOL0     H26479   4.760   4.334   5.811  2.2407  3.0767  1.7207
  937MOL0     H26480   4.526   4.225   5.733 -0.6747  0.4285 -1.6829
  937MOL0     H26481   4.238   4.126   5.606 -3.6392 -3.1203 -0.0984
  937MOL0     H26482   4.155   3.927   5.505  0.2659  0.5597  1.0431
  937MOL0     H26483   3.931   3.955   5.092  0.8869  1.9297  0.0133
  937MOL0     H26484   3.873   4.015   5.238 -1.6231 -1.8135  0.9343
  937MOL0     H26485   3.735   3.870   5.231  0.7730 -0.4775  1.0438
  937MOL0     H26486   3.871   3.794   5.332  0.9867  1.7910  1.4338
  937MOL0     H26487   3.952   3.658   5.148  1.1618 -1.0618 -0.5905
  937MOL0     H26488   3.812   3.703   5.057  0.2196 -0.8304  0.8593
  937MOL0     H26489   3.780   3.554   5.322  0.1939  2.8390  0.4924
  937MOL0     H26490   3.649   3.615   5.212 -0.3627  1.3679  0.1359
  937MOL0     H26491   3.687   3.282   5.028  2.5447  0.1724 -1.1768
  937MOL0     H26492   4.062   4.142   5.143 -2.0175 -0.8384  0.1959
  937MOL0     H26493   4.126   4.360   5.105 -4.5243  3.3456  0.8207
  937MOL0     H26494   4.106   4.457   5.246 -0.8892 -0.9174  0.2373
  937MOL0     H26495   4.269   4.424   5.193  1.7586 -3.9759  0.6786
  938MOL0     O26496  11.436   2.402   1.313 -0.2522  0.2510 -0.2564
  938MOL0     C26497  11.333   2.357   1.257  0.0744  0.4595  0.4037
  938MOL0     O26498  11.319   2.239   1.195  0.3375 -0.3201 -0.4556
  938MOL0     C26499  11.389   2.138   1.246  0.7526  0.8118  0.2852
  938MOL0     C26500  11.436   2.119   1.379  0.7759  0.3150  0.4855
  938MOL0     C26501  11.515   2.011   1.411  0.2081 -0.0107 -0.1031
  938MOL0     C26502  11.545   1.915   1.317 -0.5170 -0.0390 -0.4741
  938MOL0     O26503  11.616   1.801   1.357  0.2630 -0.3212 -0.3083
  938MOL0     C26504  11.678   1.705   1.269 -0.1493 -0.1636 -0.0916
  938MOL0     C26505  11.791   1.766   1.195 -0.0446  0.8824  0.3355
  938MOL0     C26506  11.902   1.676   1.143 -0.1455  0.2235  0.1566
  938MOL0     C26507  11.956   1.581   1.241  0.3102  0.3403 -0.2950
  938MOL0     C26508  12.093   1.532   1.189 -0.1809  0.0144 -0.6992
  938MOL0     C26509  12.137   1.390   1.231  0.3728 -0.7725  1.0306
  938MOL0     C26510  12.050   1.291   1.146  0.0753 -0.6020  0.1161
  938MOL0     C26511  12.082   1.263   0.994  0.5948 -0.2257  0.3990
  938MOL0     N26512  12.220   1.222   0.979  0.2371  0.0016  0.9555
  938MOL0     C26513  12.278   1.099   1.021 -0.1615  0.1196  0.3168
  938MOL0     C26514  12.410   1.117   0.983 -0.6527  0.3781  1.1627
  938MOL0     C26515  12.521   1.016   1.012  0.9527  0.4825 -0.2211
  938MOL0     C26516  12.649   1.020   0.937 -0.8976 -0.2011  0.3674
  938MOL0     C26517  12.619   0.953   0.799 -1.6359  0.5586 -0.6649
  938MOL0     C26518  12.758   0.918   0.727 -0.0090 -0.4399 -1.4871
  938MOL0     O26519  12.727   0.906   0.584  0.9317  0.0735  0.3324
  938MOL0     C26520  12.823   0.863   0.502  0.4920  0.6692 -1.0676
  938MOL0     C26521  12.963   0.851   0.533  0.4736  0.4047  0.2173
  938MOL0     C26522  13.059   0.808   0.435 -0.3102 -0.0586 -0.1645
  938MOL0     C26523  13.017   0.811   0.299  0.1998  0.2245 -1.0206
  938MOL0     C26524  13.118   0.799   0.188 -0.1552  0.2150  0.7885
  938MOL0     O26525  13.253   0.813   0.215 -0.4416 -0.1391 -0.9466
  938MOL0     C26526  13.338   0.726   0.153  0.7058  0.3548 -1.2053
  938MOL0     C26527  13.396   0.622   0.232  0.8163 -0.5196 -0.4675
  938MOL0     C26528  13.488   0.534   0.160  1.4450 -0.3037 -1.2230
  938MOL0     C26529  13.506   0.540   0.024  1.3696 -0.5560 -0.2117
  938MOL0     O26530  13.595   0.469  -0.053 -0.0017 -0.5113  0.1865
  938MOL0     C26531  13.686   0.396   0.026  0.0034  0.1766  0.0797
  938MOL0     C26532  13.797   0.344  -0.058 -0.1955 -0.7261 -0.4324
  938MOL0     C26533  13.879   0.235   0.007 -0.0911 -1.0005  0.5462
  938MOL0     C26534  14.005   0.190  -0.071 -0.2284 -0.1993 -0.2688
  938MOL0     C26535  13.985   0.149  -0.212  0.4214  0.6214  1.4314
  938MOL0     C26536  14.118   0.105  -0.274 -0.0490  0.3977  0.0592
  938MOL0     C26537  14.089   0.058  -0.421  0.7907 -0.0661  0.2273
  938MOL0     C26538  14.206  -0.026  -0.469  1.0208 -0.3692  1.0429
  938MOL0    Cl26539  14.226  -0.191  -0.396 -0.3967  0.1535 -0.1320
  938MOL0     C26540  13.435   0.636  -0.050  0.3752  0.2096  0.1677
  938MOL0     C26541  13.346   0.713   0.013 -0.1568 -0.4274 -0.6872
  938MOL0     O26542  13.076   0.768   0.074  0.9953  0.1345 -0.1077
  938MOL0     C26543  12.878   0.831   0.272 -0.0173  0.6072  0.0546
  938MOL0     C26544  12.783   0.848   0.372 -0.7390  0.0540 -0.6748
  938MOL0     N26545  12.418   1.238   0.915 -1.1638 -0.0600 -0.2613
  938MOL0     N26546  12.308   1.300   0.918  0.0216  0.8380  0.2076
  938MOL0     C26547  11.498   1.939   1.182  0.1689  0.4327 -0.1125
  938MOL0     C26548  11.423   2.046   1.148 -0.6206 -0.8269 -0.1693
  938MOL0     C26549  11.217   2.450   1.254  0.1271 -0.2102 -0.2078
  938MOL0     C26550  11.083   2.398   1.277  0.2484 -0.4709  0.5566
  938MOL0     C26551  10.971   2.486   1.270 -0.9034 -0.7858 -0.3335
  938MOL0     C26552  10.991   2.626   1.262 -0.4459 -0.1116 -0.0530
  938MOL0     O26553  10.884   2.710   1.239  0.2248  0.3454 -0.0812
  938MOL0     C26554  10.832   2.789   1.356  0.5428  0.8160 -0.2237
  938MOL0     C26555  10.742   2.910   1.318 -0.7199 -0.1330  0.2829
  938MOL0     C26556  10.801   2.987   1.205  0.9309 -0.3266  0.0685
  938MOL0     C26557  10.944   3.043   1.224 -0.4363 -0.1820  0.0413
  938MOL0     C26558  10.963   3.139   1.338 -0.6969  0.5443  0.0908
  938MOL0     C26559  11.017   3.190   1.434 -0.2722  0.2165 -0.5241
  938MOL0     C26560  11.119   2.670   1.255 -0.5731 -0.1715 -0.0594
  938MOL0     C26561  11.236   2.592   1.244  0.1566  1.0991  0.2655
  938MOL0     C26562  11.359   2.666   1.231 -1.0619  0.1236  0.3041
  938MOL0     H26563  11.421   2.197   1.453  1.6391  0.5771  0.3890
  938MOL0     H26564  11.571   1.995   1.503 -0.2336 -0.2836  0.1222
  938MOL0     H26565  11.730   1.623   1.319  2.6876 -0.5892 -3.3631
  938MOL0     H26566  11.615   1.658   1.193  0.2768 -0.3577 -0.3256
  938MOL0     H26567  11.847   1.836   1.258  0.2991  3.6653 -2.7815
  938MOL0     H26568  11.750   1.835   1.120  0.2195  0.0553 -0.5795
  938MOL0     H26569  11.982   1.750   1.135  1.7868 -1.5163  2.2443
  938MOL0     H26570  11.867   1.634   1.048  0.6619  0.9753 -0.4913
  938MOL0     H26571  11.961   1.637   1.335 -0.2904  0.7689 -0.5094
  938MOL0     H26572  11.894   1.493   1.258  2.0675 -1.4316 -2.5088
  938MOL0     H26573  12.092   1.544   1.080 -1.5663  0.7148 -0.6239
  938MOL0     H26574  12.161   1.609   1.227  1.1474 -1.1147 -0.7078
  938MOL0     H26575  12.244   1.379   1.213  0.2698 -0.4953  0.2058
  938MOL0     H26576  12.116   1.382   1.338 -0.1552  1.8088  1.1754
  938MOL0     H26577  11.941   1.299   1.158  0.2443 -1.2407  2.3503
  938MOL0     H26578  12.052   1.198   1.203 -1.1897 -0.9387 -0.3400
  938MOL0     H26579  12.029   1.171   0.967  3.1903 -2.0333  1.1024
  938MOL0     H26580  12.057   1.350   0.933 -0.4012 -0.8202 -0.0671
  938MOL0     H26581  12.234   1.012   1.067  0.7272  0.4096  1.7808
  938MOL0     H26582  12.545   1.026   1.118  0.5440 -0.2154 -0.0600
  938MOL0     H26583  12.480   0.915   1.008  1.8947  0.0498  0.7185
  938MOL0     H26584  12.692   1.120   0.925 -0.5611 -0.4609 -0.7023
  938MOL0     H26585  12.723   0.955   0.984  0.1244  1.7693  1.6189
  938MOL0     H26586  12.560   1.026   0.742 -0.9013  0.7856 -1.1526
  938MOL0     H26587  12.572   0.855   0.808 -1.3107  0.4405 -0.2247
  938MOL0     H26588  12.815   0.834   0.768 -0.8557  0.7274  2.5409
  938MOL0     H26589  12.822   1.006   0.732  1.7062 -1.6802  2.5913
  938MOL0     H26590  12.995   0.876   0.634  1.7716 -3.2864  0.8882
  938MOL0     H26591  13.166   0.800   0.450  0.0007 -0.5181 -2.2927
  938MOL0     H26592  13.382   0.604   0.338  3.7934  1.5139  0.3828
  938MOL0     H26593  13.528   0.464   0.232 -1.7726  0.0294  1.0883
  938MOL0     H26594  13.723   0.452   0.112 -2.4713  2.1887 -0.0713
  938MOL0     H26595  13.623   0.312   0.059 -0.8464  0.9097  0.3468
  938MOL0     H26596  13.755   0.306  -0.152 -1.6976  1.0354 -0.5191
  938MOL0     H26597  13.866   0.426  -0.080 -0.3840 -1.0243 -2.3222
  938MOL0     H26598  13.908   0.272   0.106  0.6496  0.7725 -0.2921
  938MOL0     H26599  13.812   0.152   0.028  0.6738 -2.0521 -0.9350
  938MOL0     H26600  14.033   0.095  -0.025 -0.1200  0.5220  1.2236
  938MOL0     H26601  14.087   0.259  -0.050  0.6730 -1.5318  0.7738
  938MOL0     H26602  13.945   0.229  -0.275 -0.9217 -3.6876 -3.9545
  938MOL0     H26603  13.904   0.075  -0.212  0.8903  0.1064  1.7903
  938MOL0     H26604  14.196   0.182  -0.272  2.1077 -1.6754  1.1881
  938MOL0     H26605  14.158   0.017  -0.222 -0.6802  0.6584  1.0039
  938MOL0     H26606  14.084   0.139  -0.494  2.8967  0.1540  0.2785
  938MOL0     H26607  13.992   0.008  -0.434  0.0378  1.0385  1.2755
  938MOL0     H26608  14.198  -0.029  -0.578  0.8410  0.1549  1.0383
  938MOL0     H26609  14.299   0.026  -0.443  0.0508 -0.0379  4.3467
  938MOL0     H26610  13.447   0.640  -0.158 -4.0230  3.7230 -0.4800
  938MOL0     H26611  13.288   0.789  -0.038  1.1152 -1.1273 -3.3396
  938MOL0     H26612  12.848   0.828   0.167  3.2410  0.8792 -0.9801
  938MOL0     H26613  12.679   0.862   0.344 -0.9689 -3.0589 -1.8027
  938MOL0     H26614  11.512   1.871   1.099 -2.6919 -0.2456 -0.1404
  938MOL0     H26615  11.386   2.061   1.048  0.5755 -1.8792 -0.8013
  938MOL0     H26616  11.069   2.293   1.301 -1.4655 -0.0980  1.3589
  938MOL0     H26617  10.868   2.453   1.276 -0.9728 -0.3733  1.0740
  938MOL0     H26618  10.918   2.835   1.405  0.5524  0.6535 -0.0887
  938MOL0     H26619  10.793   2.734   1.443  4.4278 -2.3328 -0.1916
  938MOL0     H26620  10.739   2.975   1.406 -1.0802 -0.3178  0.4091
  938MOL0     H26621  10.635   2.897   1.299 -1.1360  0.8677  1.7619
  938MOL0     H26622  10.729   3.067   1.184 -1.2446 -1.8066  1.4303
  938MOL0     H26623  10.818   2.913   1.126  1.1119  0.3031 -0.4901
  938MOL0     H26624  11.013   2.959   1.232  2.1417  1.5257 -2.3161
  938MOL0     H26625  10.974   3.086   1.128  1.5351 -2.5690 -0.5051
  938MOL0     H26626  11.073   3.242   1.508 -0.8984 -0.8899  0.7763
  938MOL0     H26627  11.138   2.777   1.257 -5.2454  0.8634  1.2016
  938MOL0     H26628  11.333   2.731   1.147 -3.4207 -0.4520  0.5445
  938MOL0     H26629  11.377   2.722   1.323 -0.3972 -1.1740  1.0011
  938MOL0     H26630  11.447   2.603   1.209 -1.9102 -1.2698  0.7750
  939MOL0     O26631   0.548   7.879   8.837 -0.3780  0.0571  0.3453
  939MOL0     C26632   0.512   7.902   8.717  0.8516 -0.0552 -0.1155
  939MOL0     O26633   0.444   8.016   8.683  0.4439  0.2455  0.0258
  939MOL0     C26634   0.405   8.110   8.770 -0.6550  0.7288 -0.1367
  939MOL0     C26635   0.268   8.141   8.786  0.4826 -0.0800 -1.0238
  939MOL0     C26636   0.229   8.252   8.863  0.3567 -0.3968 -0.2162
  939MOL0     C26637   0.337   8.339   8.909  1.0116 -0.2279 -0.7424
  939MOL0     O26638   0.301   8.448   8.977  0.7844  0.1239 -0.4784
  939MOL0     C26639   0.380   8.565   8.985 -0.4339 -0.1195  0.5760
  939MOL0     C26640   0.302   8.669   9.075 -1.5459  0.4719 -0.7569
  939MOL0     C26641   0.256   8.789   9.008  0.6255 -1.2893  0.2220
  939MOL0     C26642   0.178   8.873   9.115  0.3340 -0.9915  0.2053
  939MOL0     C26643   0.081   8.965   9.038 -0.5100  0.9666 -0.3874
  939MOL0     C26644  -0.026   9.035   9.118 -0.2687  0.5886  0.0699
  939MOL0     C26645  -0.108   9.117   9.036  0.0910 -0.9161 -0.9325
  939MOL0     C26646  -0.208   9.054   8.939  0.5618 -0.4112 -0.3008
  939MOL0     N26647  -0.283   9.147   8.855 -0.0383 -0.3349 -0.6931
  939MOL0     C26648  -0.415   9.140   8.844  0.3517  0.1774 -1.1141
  939MOL0     C26649  -0.448   9.239   8.765  0.5272 -0.1646  0.0779
  939MOL0     C26650  -0.588   9.261   8.721 -0.0787  0.5008  0.1276
  939MOL0     C26651  -0.677   9.308   8.831  0.8146  0.7892  0.1149
  939MOL0     C26652  -0.663   9.461   8.871 -0.0784 -0.1522  0.4970
  939MOL0     C26653  -0.732   9.498   8.998  0.2560  0.0982  0.1093
  939MOL0     O26654  -0.866   9.444   9.005 -0.1916  0.1501 -0.7348
  939MOL0     C26655  -0.945   9.481   9.112  0.0384 -0.4222  0.1845
  939MOL0     C26656  -0.911   9.580   9.209  0.0241 -0.1924  0.1681
  939MOL0     C26657  -1.000   9.616   9.309  0.0256 -0.1095 -0.2555
  939MOL0     C26658  -1.132   9.562   9.298  0.0431 -0.7298 -0.1546
  939MOL0     C26659  -1.212   9.581   9.417 -0.3184  0.0747  0.7800
  939MOL0     O26660  -1.347   9.559   9.404  0.1110 -0.8741 -0.2568
  939MOL0     C26661  -1.431   9.533   9.509 -0.1720  1.1704 -0.3430
  939MOL0     C26662  -1.422   9.412   9.580 -0.8632  0.2724 -0.0287
  939MOL0     C26663  -1.504   9.400   9.697 -0.2576 -0.2626 -0.5416
  939MOL0     C26664  -1.569   9.516   9.746  0.4571  0.3257 -0.0121
  939MOL0     O26665  -1.657   9.501   9.842  0.5061  0.1564  0.1899
  939MOL0     C26666  -1.579   9.475   9.963  0.5106  0.0029  0.1650
  939MOL0     C26667  -1.609   9.341  10.013 -0.2671  0.6464 -1.4945
  939MOL0     C26668  -1.513   9.305  10.129  0.1627  0.0683  0.6769
  939MOL0     C26669  -1.524   9.390  10.262  1.1794 -0.0281  1.2069
  939MOL0     C26670  -1.479   9.315  10.391  0.4553 -0.1526  1.2132
  939MOL0     C26671  -1.447   9.399  10.514 -0.0507 -0.5223  0.0876
  939MOL0     C26672  -1.296   9.452  10.529  1.0945  0.7740  0.9323
  939MOL0     C26673  -1.289   9.546  10.657 -0.4545  0.1667 -0.3661
  939MOL0    Cl26674  -1.145   9.626  10.662 -0.0158  0.1691  0.2850
  939MOL0     C26675  -1.562   9.640   9.680 -0.5229  0.2469  0.0041
  939MOL0     C26676  -1.509   9.634   9.556 -1.8212 -1.0102 -0.5916
  939MOL0     O26677  -1.160   9.611   9.528  0.2673 -0.5492  0.0409
  939MOL0     C26678  -1.166   9.462   9.201 -0.1903  0.3608 -0.3859
  939MOL0     C26679  -1.075   9.423   9.108 -0.8803  0.1713  0.1923
  939MOL0     N26680  -0.343   9.309   8.727 -0.8226 -0.5424 -0.0875
  939MOL0     N26681  -0.239   9.251   8.778 -0.4478  0.3627  0.4368
  939MOL0     C26682   0.464   8.294   8.904 -0.7870  0.0138  0.2639
  939MOL0     C26683   0.509   8.188   8.832  0.5203 -0.0181 -0.6847
  939MOL0     C26684   0.537   7.813   8.606 -1.0316 -0.5413  0.2774
  939MOL0     C26685   0.540   7.870   8.471  0.0449 -0.3903  0.4044
  939MOL0     C26686   0.575   7.793   8.364  0.6115 -0.6330  0.2219
  939MOL0     C26687   0.607   7.658   8.383  0.0637  0.4702 -0.4712
  939MOL0     O26688   0.657   7.579   8.283  0.3962  0.2689  0.0939
  939MOL0     C26689   0.670   7.632   8.152 -0.4426  0.8878  0.5266
  939MOL0     C26690   0.781   7.558   8.089  0.7460  0.0811 -0.1320
  939MOL0     C26691   0.921   7.565   8.145  0.0808  0.7247  0.0276
  939MOL0     C26692   0.983   7.703   8.161  1.1386  1.1407  0.3101
  939MOL0     C26693   1.114   7.707   8.211 -0.1319  1.1755  0.5584
  939MOL0     C26694   1.234   7.710   8.232  0.8438  0.3723  0.0740
  939MOL0     C26695   0.601   7.601   8.505 -0.4049 -1.0906 -0.0138
  939MOL0     C26696   0.571   7.674   8.618  0.1805 -1.4579  0.2032
  939MOL0     C26697   0.574   7.583   8.750  0.0744 -1.4965  0.1798
  939MOL0     H26698   0.199   8.084   8.724 -2.2623  0.6017  1.1921
  939MOL0     H26699   0.124   8.277   8.867 -0.0264 -1.4358 -2.1926
  939MOL0     H26700   0.480   8.543   9.022  0.2816  1.1452 -0.5178
  939MOL0     H26701   0.379   8.604   8.882 -1.1735 -0.9953  0.2271
  939MOL0     H26702   0.357   8.687   9.168  1.3568 -2.0071 -1.8185
  939MOL0     H26703   0.210   8.618   9.102 -1.2889  0.6527  0.5227
  939MOL0     H26704   0.196   8.754   8.924 -2.1575  2.1627  0.5073
  939MOL0     H26705   0.342   8.851   8.979  0.2830 -0.5885  0.6864
  939MOL0     H26706   0.109   8.814   9.177 -1.6533  1.2778  0.2921
  939MOL0     H26707   0.235   8.935   9.184  4.2702 -2.8571 -1.0907
  939MOL0     H26708   0.133   9.040   8.978  1.5847 -0.3781 -0.3280
  939MOL0     H26709   0.029   8.894   8.973  0.7693  0.1464 -0.5426
  939MOL0     H26710  -0.094   8.960   9.159 -2.7568  3.3099  1.3068
  939MOL0     H26711   0.021   9.096   9.196  1.3027 -2.3162  1.5418
  939MOL0     H26712  -0.046   9.188   8.981  0.8299 -0.8955 -0.1012
  939MOL0     H26713  -0.167   9.185   9.099  1.2992 -1.5020  0.9207
  939MOL0     H26714  -0.151   8.985   8.876  0.5291  0.3748 -1.2137
  939MOL0     H26715  -0.270   8.992   9.004  2.5921 -1.5328  0.6658
  939MOL0     H26716  -0.491   9.070   8.875 -2.1054  1.6972 -3.2962
  939MOL0     H26717  -0.572   9.324   8.633 -0.6756 -1.0453 -1.1366
  939MOL0     H26718  -0.624   9.174   8.664  1.8881  0.1653 -0.7052
  939MOL0     H26719  -0.779   9.296   8.795  0.9988  0.6728 -0.3773
  939MOL0     H26720  -0.664   9.252   8.924  3.2904  0.3247 -0.4265
  939MOL0     H26721  -0.697   9.510   8.780 -3.4932 -2.0475  0.5854
  939MOL0     H26722  -0.560   9.495   8.884 -0.4790  1.0364  0.7256
  939MOL0     H26723  -0.739   9.607   9.001 -2.4348 -0.0233  1.6905
  939MOL0     H26724  -0.671   9.459   9.081 -0.7268  0.2189  0.9012
  939MOL0     H26725  -0.819   9.631   9.232 -0.7027  1.2122  0.0758
  939MOL0     H26726  -0.992   9.706   9.370 -3.0245 -1.1409  1.8789
  939MOL0     H26727  -1.363   9.325   9.551 -2.1593 -0.5244 -0.3747
  939MOL0     H26728  -1.488   9.306   9.750  0.1925 -0.0448 -0.2799
  939MOL0     H26729  -1.475   9.507   9.960 -0.0287  1.8788  0.1373
  939MOL0     H26730  -1.620   9.534  10.046  1.2507 -0.0645  0.5820
  939MOL0     H26731  -1.711   9.332  10.051  0.1772  1.8909  0.1426
  939MOL0     H26732  -1.594   9.268   9.933  0.0362 -0.6267 -0.3086
  939MOL0     H26733  -1.536   9.202  10.161 -0.3436  0.3527  1.2502
  939MOL0     H26734  -1.407   9.310  10.101 -0.1138 -1.4249 -0.8137
  939MOL0     H26735  -1.628   9.412  10.289  0.1688 -4.2127  1.4732
  939MOL0     H26736  -1.470   9.485  10.254  1.8732 -0.4891  0.0487
  939MOL0     H26737  -1.399   9.246  10.361 -0.9297 -0.5910 -1.8666
  939MOL0     H26738  -1.567   9.258  10.422 -0.4279  0.0290 -0.8048
  939MOL0     H26739  -1.503   9.493  10.510 -1.5375 -1.3400  0.6740
  939MOL0     H26740  -1.478   9.336  10.599  3.5635 -1.0366  1.1729
  939MOL0     H26741  -1.277   9.507  10.436  0.2951 -0.7977 -0.2139
  939MOL0     H26742  -1.216   9.378  10.537 -0.1154 -0.9846 -1.7770
  939MOL0     H26743  -1.375   9.614  10.651 -0.1231  0.7580  1.1087
  939MOL0     H26744  -1.302   9.487  10.748  0.3957 -0.2279 -0.4960
  939MOL0     H26745  -1.600   9.732   9.724  2.1392  0.6525  1.7654
  939MOL0     H26746  -1.514   9.723   9.494 -0.8474  1.3989  2.5483
  939MOL0     H26747  -1.263   9.414   9.198 -0.4164  0.8409 -2.9970
  939MOL0     H26748  -1.098   9.343   9.039 -1.4171 -0.5342  1.1707
  939MOL0     H26749   0.538   8.364   8.939 -1.6374  2.2357 -2.0456
  939MOL0     H26750   0.615   8.164   8.831  1.0221  1.7301  1.4115
  939MOL0     H26751   0.523   7.977   8.462  0.5472 -0.3279  0.1381
  939MOL0     H26752   0.580   7.842   8.268 -1.3936  0.0821  0.4271
  939MOL0     H26753   0.705   7.735   8.140 -3.1723  1.6055 -3.4694
  939MOL0     H26754   0.583   7.623   8.086 -2.4462  0.1834  3.0745
  939MOL0     H26755   0.775   7.586   7.983  1.6993  0.9000  0.0139
  939MOL0     H26756   0.761   7.451   8.098  1.1369 -0.2469 -2.5923
  939MOL0     H26757   0.982   7.501   8.080 -2.6754 -2.6506  0.4615
  939MOL0     H26758   0.922   7.513   8.241  0.3613 -1.3786 -1.0589
  939MOL0     H26759   0.975   7.744   8.060  1.6193 -1.7520 -1.0075
  939MOL0     H26760   0.905   7.742   8.228 -1.4223 -0.0591 -1.7875
  939MOL0     H26761   1.341   7.713   8.242  0.6702  2.6222  2.1117
  939MOL0     H26762   0.620   7.495   8.489 -2.7297 -1.4630 -0.6770
  939MOL0     H26763   0.477   7.594   8.800  1.0579  1.3753  1.6574
  939MOL0     H26764   0.598   7.480   8.723 -0.3114 -1.3867 -0.6090
  939MOL0     H26765   0.639   7.632   8.822 -1.5423 -2.6374  2.5647
  940MOL0     O26766  10.710   1.199  11.214 -0.4543 -0.4621  0.5430
  940MOL0     C26767  10.734   1.078  11.226  0.0876 -0.3933  0.2426
  940MOL0     O26768  10.704   1.006  11.342 -0.4607  0.4409  0.0360
  940MOL0     C26769  10.655   1.073  11.453 -0.4998  0.0924 -0.0861
  940MOL0     C26770  10.744   1.138  11.539  0.6478 -0.6371 -0.6429
  940MOL0     C26771  10.686   1.199  11.649 -0.1478 -0.4372  0.3029
  940MOL0     C26772  10.547   1.212  11.663  0.0511  0.6670 -0.4735
  940MOL0     O26773  10.486   1.270  11.775 -0.8869 -0.5423  0.2698
  940MOL0     C26774  10.458   1.181  11.886 -0.5727  0.8591 -0.0242
  940MOL0     C26775  10.454   1.251  12.023  0.0390  0.8548  0.6421
  940MOL0     C26776  10.325   1.341  12.027  0.5747 -0.5197 -0.6781
  940MOL0     C26777  10.317   1.397  12.173  0.5852  0.1291  0.5349
  940MOL0     C26778  10.211   1.515  12.188 -0.3115 -1.0203 -1.0712
  940MOL0     C26779  10.196   1.556  12.340 -0.7728 -0.0314  1.4141
  940MOL0     C26780  10.308   1.633  12.387 -0.4335 -0.4822 -0.2421
  940MOL0     C26781  10.306   1.656  12.532  0.0916 -0.3870 -0.0488
  940MOL0     N26782  10.407   1.743  12.586  0.4081  0.3482 -0.7796
  940MOL0     C26783  10.495   1.690  12.676 -1.4593 -0.4187 -0.5630
  940MOL0     C26784  10.556   1.794  12.739 -0.1100  0.0516  0.0064
  940MOL0     C26785  10.665   1.787  12.834 -0.2168  0.2325  0.2032
  940MOL0     C26786  10.791   1.704  12.784 -0.6848 -0.2341 -0.3362
  940MOL0     C26787  10.835   1.743  12.645  0.3963 -0.0692  0.1398
  940MOL0     C26788  10.974   1.712  12.590  0.5614  0.4643 -0.5083
  940MOL0     O26789  10.990   1.770  12.465 -0.2172 -0.3463  0.3440
  940MOL0     C26790  11.042   1.897  12.438  0.9311 -0.0071  0.8517
  940MOL0     C26791  11.054   2.001  12.523 -0.9285  0.1115  0.5018
  940MOL0     C26792  11.106   2.126  12.477  0.2482 -0.1002 -0.3738
  940MOL0     C26793  11.145   2.144  12.345  0.7567 -0.1046 -0.6339
  940MOL0     C26794  11.201   2.280  12.294 -0.6478  0.4611  0.4492
  940MOL0     O26795  11.248   2.362  12.395 -0.4534 -0.6900  0.3023
  940MOL0     C26796  11.320   2.476  12.359  0.4030  0.0213 -0.1803
  940MOL0     C26797  11.294   2.551  12.245 -0.9224  0.1026 -0.4015
  940MOL0     C26798  11.364   2.668  12.216 -0.1509  0.3610 -0.2831
  940MOL0     C26799  11.474   2.705  12.301  0.1083 -0.4311  0.3320
  940MOL0     O26800  11.530   2.822  12.262  0.9120  0.0522 -0.2785
  940MOL0     C26801  11.604   2.894  12.362  0.5350 -0.5547  0.3098
  940MOL0     C26802  11.648   3.030  12.293  0.1889  0.4347 -0.2461
  940MOL0     C26803  11.537   3.126  12.295 -0.0252  0.1323 -0.8593
  940MOL0     C26804  11.579   3.251  12.218 -0.7787  0.3021  0.0215
  940MOL0     C26805  11.516   3.375  12.280 -0.5782  0.3575  0.0519
  940MOL0     C26806  11.555   3.508  12.208  0.1097  1.4541 -0.4816
  940MOL0     C26807  11.482   3.520  12.072  0.0306  0.1974 -0.1883
  940MOL0     C26808  11.527   3.644  11.994 -0.0390  0.3255 -0.4720
  940MOL0    Cl26809  11.678   3.594  11.913  0.2240  0.1334 -0.3395
  940MOL0     C26810  11.495   2.630  12.422 -0.1960  0.2511 -0.3588
  940MOL0     C26811  11.411   2.520  12.453  0.6378  0.0045 -1.4794
  940MOL0     O26812  11.196   2.301  12.170 -0.4776 -0.3817 -0.5088
  940MOL0     C26813  11.136   2.033  12.258  0.1832 -0.0950  0.0755
  940MOL0     C26814  11.089   1.914  12.301 -0.2164 -1.0636 -0.8719
  940MOL0     N26815  10.512   1.911  12.680  0.4951  0.9687  0.4501
  940MOL0     N26816  10.424   1.876  12.590 -0.1149  0.0512  0.1432
  940MOL0     C26817  10.464   1.148  11.569  0.2429  0.2272 -0.3435
  940MOL0     C26818  10.522   1.086  11.465 -0.0517 -0.0442  0.8073
  940MOL0     C26819  10.787   1.015  11.106 -0.3444  0.5246  0.3453
  940MOL0     C26820  10.807   1.090  10.985 -0.1508  0.1868  0.3497
  940MOL0     C26821  10.872   1.038  10.871  0.1308  0.2587  0.4502
  940MOL0     C26822  10.932   0.912  10.871 -1.1071  1.4774  0.2557
  940MOL0     O26823  11.025   0.857  10.780 -0.1222  0.4082 -0.1410
  940MOL0     C26824  11.042   0.933  10.665  0.2310 -0.1189 -0.3644
  940MOL0     C26825  11.101   0.847  10.552 -0.3664  1.1870  0.3132
  940MOL0     C26826  11.159   0.951  10.442 -0.4210  0.6547  0.2256
  940MOL0     C26827  11.204   0.892  10.309 -0.7243  0.6577  0.1559
  940MOL0     C26828  11.335   0.821  10.346  0.6947  0.0813  0.5371
  940MOL0     C26829  11.424   0.741  10.374 -0.9659  0.2683 -0.4303
  940MOL0     C26830  10.907   0.825  10.984  0.2651 -0.0785 -0.4233
  940MOL0     C26831  10.835   0.878  11.093 -0.8700  0.2376  0.0796
  940MOL0     C26832  10.800   0.779  11.202  0.3150 -0.5104  0.3020
  940MOL0     H26833  10.852   1.127  11.537  0.7586 -0.2848 -4.4523
  940MOL0     H26834  10.741   1.240  11.734  0.4376 -0.3032 -0.1371
  940MOL0     H26835  10.365   1.125  11.873 -1.7646  1.8435  3.2218
  940MOL0     H26836  10.532   1.102  11.901 -1.0332  0.8152  2.3170
  940MOL0     H26837  10.547   1.307  12.039 -0.7670  2.6304 -0.5511
  940MOL0     H26838  10.453   1.175  12.101 -0.7053  0.7036  0.4930
  940MOL0     H26839  10.233   1.285  12.005 -0.1590 -0.6421  2.3035
  940MOL0     H26840  10.331   1.424  11.957 -0.8279  0.0688 -0.1423
  940MOL0     H26841  10.280   1.312  12.231  3.5472 -0.8751  1.1225
  940MOL0     H26842  10.416   1.431  12.204  1.4080 -0.0891 -1.6801
  940MOL0     H26843  10.237   1.608  12.136  1.7571 -1.7548 -1.4243
  940MOL0     H26844  10.117   1.477  12.148 -1.8263  2.1513 -0.8497
  940MOL0     H26845  10.112   1.625  12.350 -1.1477  0.1955 -1.9651
  940MOL0     H26846  10.181   1.466  12.400 -1.8069  0.7340  2.3381
  940MOL0     H26847  10.309   1.733  12.342 -1.0810 -0.1693  0.4186
  940MOL0     H26848  10.400   1.577  12.370 -1.9815 -3.5004  0.7229
  940MOL0     H26849  10.205   1.689  12.556  0.5582  0.3492  0.9728
  940MOL0     H26850  10.318   1.564  12.590 -3.6885  0.4820  2.4559
  940MOL0     H26851  10.503   1.585  12.703  2.2150 -0.2723 -0.5763
  940MOL0     H26852  10.695   1.888  12.862  2.3871 -0.8795  1.7699
  940MOL0     H26853  10.616   1.746  12.923 -3.3234 -0.7945 -1.8014
  940MOL0     H26854  10.871   1.723  12.857 -2.1854 -2.5651  2.1160
  940MOL0     H26855  10.776   1.596  12.790  0.1564 -0.2968  1.7414
  940MOL0     H26856  10.836   1.852  12.637  0.8680 -0.1348 -0.8694
  940MOL0     H26857  10.765   1.712  12.567  0.4863  0.1766 -0.0394
  940MOL0     H26858  10.989   1.604  12.584 -2.6940 -0.1554  0.5050
  940MOL0     H26859  11.050   1.747  12.660 -2.2903  2.9578  1.6559
  940MOL0     H26860  11.028   1.990  12.628 -1.5462 -0.9005  0.2572
  940MOL0     H26861  11.109   2.213  12.542 -2.6742  0.2164 -0.5275
  940MOL0     H26862  11.213   2.527  12.177 -1.1580 -0.3607  0.0366
  940MOL0     H26863  11.327   2.720  12.128 -1.6036  2.3576  1.3971
  940MOL0     H26864  11.540   2.922  12.446 -0.5078  1.5599 -1.1102
  940MOL0     H26865  11.687   2.831  12.398  0.6253 -2.2110 -2.4716
  940MOL0     H26866  11.739   3.070  12.338  2.2967 -2.5828 -1.4717
  940MOL0     H26867  11.674   2.992  12.193  0.8791 -5.0177  1.6780
  940MOL0     H26868  11.450   3.083  12.245  0.2954  0.7121 -1.9719
  940MOL0     H26869  11.496   3.154  12.392 -3.5492  1.3059 -2.5358
  940MOL0     H26870  11.555   3.234  12.113  3.3606 -0.0371 -1.0245
  940MOL0     H26871  11.688   3.262  12.216 -0.4343 -1.8953  2.1523
  940MOL0     H26872  11.561   3.382  12.379 -0.5815 -1.6041  0.2321
  940MOL0     H26873  11.408   3.359  12.288 -0.5471  0.0578 -0.0883
  940MOL0     H26874  11.536   3.597  12.268  0.0521  1.1684 -0.0694
  940MOL0     H26875  11.662   3.510  12.183 -0.3157 -3.1754 -4.1415
  940MOL0     H26876  11.379   3.536  12.106  0.7823  1.0825  1.8384
  940MOL0     H26877  11.496   3.427  12.016 -0.1539  1.0012 -1.6112
  940MOL0     H26878  11.452   3.678  11.922 -0.5756 -0.0024 -0.0713
  940MOL0     H26879  11.550   3.725  12.064  0.3520  0.1291 -0.3721
  940MOL0     H26880  11.581   2.659  12.483  2.1755 -3.1368 -1.7402
  940MOL0     H26881  11.421   2.459  12.542  3.4208  1.6223 -0.5476
  940MOL0     H26882  11.165   2.060  12.157 -1.6802  2.3507  0.1127
  940MOL0     H26883  11.064   1.835  12.232 -1.0805 -1.0440 -0.5925
  940MOL0     H26884  10.357   1.162  11.571  0.4748  2.1972  0.6621
  940MOL0     H26885  10.469   1.043  11.380  0.7694  0.7590 -0.1215
  940MOL0     H26886  10.761   1.188  10.989 -0.7496 -0.1232  2.4876
  940MOL0     H26887  10.889   1.103  10.786  3.7805 -2.0634 -0.8031
  940MOL0     H26888  11.094   1.028  10.679  0.2368 -0.1678 -0.0300
  940MOL0     H26889  10.946   0.967  10.623  0.4723 -0.1529 -0.9435
  940MOL0     H26890  11.022   0.781  10.514 -1.8106  2.0370  1.7040
  940MOL0     H26891  11.185   0.790  10.594  0.0902  2.0444  0.5821
  940MOL0     H26892  11.244   0.986  10.500 -0.5732  1.6708 -0.1545
  940MOL0     H26893  11.096   1.035  10.413  1.0997  1.5570 -0.5810
  940MOL0     H26894  11.127   0.821  10.280 -1.5522  1.2545  0.8311
  940MOL0     H26895  11.210   0.974  10.236 -0.2535  1.4039  1.0045
  940MOL0     H26896  11.498   0.667  10.397 -1.0882 -0.1061 -1.1995
  940MOL0     H26897  10.945   0.723  10.983 -1.8198 -0.9097  0.4525
  940MOL0     H26898  10.693   0.755  11.202 -0.1528  1.0699 -2.5026
  940MOL0     H26899  10.855   0.685  11.189  0.0196 -1.2867  3.6622
  940MOL0     H26900  10.824   0.818  11.301 -1.5005  1.5111  0.0062
  941MOL0     O26901   4.970   5.098   3.102  1.1993 -1.0687  0.7969
  941MOL0     C26902   4.877   5.017   3.091  0.3940 -0.4951 -0.2335
  941MOL0     O26903   4.751   5.052   3.041 -0.6784 -0.2212  0.2186
  941MOL0     C26904   4.737   5.185   3.001 -0.1797  0.7940  0.0526
  941MOL0     C26905   4.760   5.221   2.866  0.3651  0.0465  0.1769
  941MOL0     C26906   4.752   5.354   2.831 -0.3458 -0.7917  0.8160
  941MOL0     C26907   4.719   5.452   2.922 -1.4504  0.8360  0.2757
  941MOL0     O26908   4.729   5.578   2.870 -0.0626 -0.5160 -0.5172
  941MOL0     C26909   4.752   5.676   2.965 -0.9397  0.0049  0.1898
  941MOL0     C26910   4.764   5.814   2.900  0.4510  0.2398  0.3567
  941MOL0     C26911   4.640   5.846   2.822  0.0391  0.3249  0.0308
  941MOL0     C26912   4.664   6.001   2.780  0.5743  0.2748 -0.5169
  941MOL0     C26913   4.574   6.052   2.664 -0.4555  0.0700 -0.8502
  941MOL0     C26914   4.426   6.039   2.704 -0.5600  0.9383 -0.4209
  941MOL0     C26915   4.337   6.106   2.606  0.5279  0.3566 -0.2387
  941MOL0     C26916   4.190   6.113   2.650  0.0150  0.1649  0.1354
  941MOL0     N26917   4.105   6.141   2.531  0.4326  0.2424 -0.2338
  941MOL0     C26918   3.997   6.062   2.488 -0.4946 -0.0621  0.1453
  941MOL0     C26919   3.944   6.140   2.388  0.1117 -0.4054  0.4336
  941MOL0     C26920   3.821   6.095   2.315  0.3805  0.2614  0.2280
  941MOL0     C26921   3.761   6.219   2.237  0.5309 -0.0291 -0.4219
  941MOL0     C26922   3.844   6.255   2.113  0.0237  0.7124  0.3948
  941MOL0     C26923   3.814   6.399   2.074  0.4838 -0.9222  0.2140
  941MOL0     O26924   3.676   6.428   2.065 -0.0684  0.1050 -0.2884
  941MOL0     C26925   3.602   6.382   1.962  0.3084  0.5809 -1.1301
  941MOL0     C26926   3.634   6.299   1.851 -0.1202 -0.2604 -0.0788
  941MOL0     C26927   3.541   6.259   1.758 -0.0940 -0.1607 -0.4966
  941MOL0     C26928   3.409   6.307   1.757 -0.4434 -0.4331 -1.4000
  941MOL0     C26929   3.311   6.277   1.661  0.5367  1.2395 -0.1103
  941MOL0     O26930   3.350   6.203   1.554 -0.0476  0.4570  0.0029
  941MOL0     C26931   3.283   6.198   1.438  0.9480 -0.1516  0.6462
  941MOL0     C26932   3.185   6.095   1.421  0.3247  0.1105 -0.2430
  941MOL0     C26933   3.094   6.108   1.311 -0.3235  0.4507  0.3837
  941MOL0     C26934   3.101   6.212   1.230  0.5815  0.3199  0.4615
  941MOL0     O26935   3.014   6.197   1.123 -0.2388  0.1738 -0.5166
  941MOL0     C26936   2.882   6.246   1.135  0.5991  1.0609  0.1434
  941MOL0     C26937   2.824   6.231   1.011 -0.7871 -0.1530  0.1613
  941MOL0     C26938   2.790   6.089   0.977 -0.4012  0.3556  0.4240
  941MOL0     C26939   2.733   6.070   0.833 -1.3472 -0.4511  0.0754
  941MOL0     C26940   2.700   5.933   0.790  0.3795  0.6920  0.3574
  941MOL0     C26941   2.589   5.873   0.879  0.1683 -0.1353  0.0890
  941MOL0     C26942   2.498   5.761   0.814  0.6063 -0.0922  0.3855
  941MOL0     C26943   2.381   5.713   0.906  0.2179  0.0758  0.1282
  941MOL0    Cl26944   2.458   5.612   1.049  0.4526 -0.0420 -0.1672
  941MOL0     C26945   3.205   6.304   1.227  0.0196  0.3006  0.8870
  941MOL0     C26946   3.294   6.294   1.331 -0.0395 -0.0076  0.1003
  941MOL0     O26947   3.198   6.333   1.675 -0.1213  0.3147 -0.3476
  941MOL0     C26948   3.374   6.397   1.861 -0.4951 -0.2394  0.2632
  941MOL0     C26949   3.465   6.421   1.967  0.5178  0.0030 -0.6359
  941MOL0     N26950   4.001   6.264   2.393 -0.5621 -0.8603  0.0305
  941MOL0     N26951   4.097   6.268   2.472 -0.1053 -0.6331  0.1621
  941MOL0     C26952   4.694   5.415   3.056 -0.2595  0.7562 -0.2044
  941MOL0     C26953   4.698   5.278   3.096  0.3836  0.1221 -0.1194
  941MOL0     C26954   4.880   4.889   3.155  0.2700  0.1325 -0.4057
  941MOL0     C26955   4.761   4.846   3.218 -0.4311 -1.6836  0.0254
  941MOL0     C26956   4.763   4.738   3.304  0.2868 -0.0214  0.0187
  941MOL0     C26957   4.869   4.645   3.294  0.3280 -0.4562  0.2638
  941MOL0     O26958   4.876   4.510   3.345 -0.0506 -0.3816 -0.2351
  941MOL0     C26959   4.767   4.466   3.435  1.0425 -0.4403 -0.2914
  941MOL0     C26960   4.782   4.330   3.497 -0.0129  0.3964 -0.5060
  941MOL0     C26961   4.778   4.211   3.397 -0.0278 -0.7642  0.1337
  941MOL0     C26962   4.913   4.188   3.325 -0.2338  0.1911 -0.3436
  941MOL0     C26963   4.896   4.057   3.252 -0.2027  0.5411  0.2444
  941MOL0     C26964   4.893   3.949   3.194  0.0023  0.9528  0.7051
  941MOL0     C26965   4.986   4.690   3.233 -0.7050 -0.1335  0.6064
  941MOL0     C26966   4.995   4.806   3.155 -0.0019  0.1175  0.3431
  941MOL0     C26967   5.123   4.830   3.089 -0.4402 -0.0287  0.9208
  941MOL0     H26968   4.794   5.149   2.791  0.4555 -0.4966  0.7319
  941MOL0     H26969   4.777   5.397   2.734 -3.2109  2.5074  1.3303
  941MOL0     H26970   4.671   5.675   3.037 -2.1201  0.5080 -1.0851
  941MOL0     H26971   4.846   5.659   3.019 -0.6445 -0.9920 -0.5995
  941MOL0     H26972   4.842   5.807   2.824  0.1015  0.0887  0.0085
  941MOL0     H26973   4.794   5.899   2.963  0.4843  0.6684 -0.2332
  941MOL0     H26974   4.557   5.827   2.890  0.9935 -3.0853  0.4420
  941MOL0     H26975   4.632   5.782   2.734 -0.9853  0.0235  0.3353
  941MOL0     H26976   4.642   6.060   2.870 -1.2108  2.7484 -2.3983
  941MOL0     H26977   4.770   6.014   2.757  0.5784 -1.8448 -2.0480
  941MOL0     H26978   4.599   6.156   2.642  1.4466  0.3876  2.2106
  941MOL0     H26979   4.597   5.992   2.575 -0.6213 -1.4793  0.1113
  941MOL0     H26980   4.408   5.932   2.717  0.5675  0.5166 -2.0274
  941MOL0     H26981   4.420   6.103   2.792 -0.0771 -0.7608  0.8907
  941MOL0     H26982   4.360   6.059   2.510  1.6886  1.4281 -0.5180
  941MOL0     H26983   4.371   6.206   2.580  1.9450 -0.5524 -2.1686
  941MOL0     H26984   4.155   6.015   2.684  0.4927  0.4834  1.6362
  941MOL0     H26985   4.190   6.189   2.728 -2.3335  2.2878 -1.7988
  941MOL0     H26986   3.968   5.959   2.503  0.1655 -0.3618 -0.5402
  941MOL0     H26987   3.844   6.015   2.243 -2.4481  0.1923 -0.7260
  941MOL0     H26988   3.741   6.059   2.380  0.0022  0.4002 -0.1553
  941MOL0     H26989   3.654   6.213   2.216  0.6774  2.1336 -2.0856
  941MOL0     H26990   3.757   6.303   2.307 -0.4179  1.4196 -2.1567
  941MOL0     H26991   3.825   6.186   2.030  0.0390 -0.6940  1.5272
  941MOL0     H26992   3.950   6.251   2.137  0.0257  3.1779  1.1008
  941MOL0     H26993   3.860   6.406   1.975 -0.7439  1.5536 -0.2368
  941MOL0     H26994   3.865   6.467   2.142  0.1142  0.7796 -1.1462
  941MOL0     H26995   3.736   6.270   1.828 -0.2134 -0.6677  0.0029
  941MOL0     H26996   3.586   6.196   1.682 -0.3386  0.2184 -0.9690
  941MOL0     H26997   3.186   6.008   1.486 -0.6019  2.5338  3.3207
  941MOL0     H26998   3.012   6.041   1.290 -0.8291  1.0238  0.5109
  941MOL0     H26999   2.830   6.183   1.208 -0.3283 -0.0425 -1.4126
  941MOL0     H27000   2.894   6.351   1.162  1.1597  1.3332 -1.1256
  941MOL0     H27001   2.735   6.294   1.004  0.2794  1.4798  0.6391
  941MOL0     H27002   2.895   6.268   0.937  1.4317  1.1188  2.7313
  941MOL0     H27003   2.875   6.022   0.996 -3.5662 -3.5295  2.2880
  941MOL0     H27004   2.719   6.058   1.053 -1.7858  2.3641  0.0364
  941MOL0     H27005   2.799   6.127   0.767 -2.5842  0.8557 -0.0800
  941MOL0     H27006   2.643   6.128   0.817 -0.7404  0.7549  0.8700
  941MOL0     H27007   2.788   5.868   0.797 -0.9028 -1.0226  1.4661
  941MOL0     H27008   2.669   5.943   0.686  1.7611 -1.8425 -0.3677
  941MOL0     H27009   2.643   5.835   0.966  0.2505  1.0657  0.5813
  941MOL0     H27010   2.537   5.954   0.930 -0.4761 -1.6701  2.0073
  941MOL0     H27011   2.567   5.683   0.781 -0.8404 -0.2153 -2.7257
  941MOL0     H27012   2.450   5.794   0.721 -0.5701 -1.8216  0.3355
  941MOL0     H27013   2.328   5.797   0.951  0.4827  0.1251  0.3565
  941MOL0     H27014   2.309   5.646   0.859 -0.5820 -0.8622  2.5211
  941MOL0     H27015   3.211   6.378   1.148 -1.3133 -1.6411 -1.1433
  941MOL0     H27016   3.375   6.365   1.342  0.5958 -0.5631 -0.8600
  941MOL0     H27017   3.272   6.434   1.866  0.8112  4.0003 -0.7737
  941MOL0     H27018   3.428   6.480   2.050  3.5866  1.3871 -0.1122
  941MOL0     H27019   4.665   5.486   3.133 -0.2420 -0.1290  0.6332
  941MOL0     H27020   4.692   5.242   3.198 -3.6872 -1.8338 -0.8058
  941MOL0     H27021   4.677   4.914   3.211  0.5277 -0.1667  2.3081
  941MOL0     H27022   4.678   4.705   3.363 -0.0408 -1.4279 -1.1612
  941MOL0     H27023   4.680   4.457   3.369  1.4841  2.2707 -1.3627
  941MOL0     H27024   4.763   4.536   3.519 -1.1947 -1.7456  0.7861
  941MOL0     H27025   4.699   4.321   3.568 -0.0344  1.2199 -0.4059
  941MOL0     H27026   4.870   4.327   3.562 -0.3977  0.8763  0.0627
  941MOL0     H27027   4.707   4.221   3.314  0.2118 -1.6422 -0.2006
  941MOL0     H27028   4.761   4.124   3.461  5.5169 -2.1446  0.2424
  941MOL0     H27029   4.940   4.257   3.245 -0.4911 -0.1249 -0.7066
  941MOL0     H27030   4.994   4.184   3.399  0.7555  0.3482 -1.4005
  941MOL0     H27031   4.893   3.855   3.144 -2.0819  1.0667  0.3835
  941MOL0     H27032   5.070   4.622   3.243 -1.5387 -1.5627 -1.3618
  941MOL0     H27033   5.142   4.750   3.017  0.6545  1.5100 -0.5542
  941MOL0     H27034   5.128   4.930   3.045  1.0848 -0.3044  0.4292
  941MOL0     H27035   5.191   4.840   3.174 -1.5092  3.9499  1.4867
  942MOL0     O27036   9.076   9.590   7.069  0.0390 -0.1519 -0.0310
  942MOL0     C27037   9.127   9.665   7.153  0.6661  0.4757  0.4265
  942MOL0     O27038   9.248   9.646   7.207  0.2879 -0.4649  0.1702
  942MOL0     C27039   9.283   9.515   7.210  0.5326  1.1522  0.2871
  942MOL0     C27040   9.226   9.414   7.294  0.9989 -0.4042  0.2244
  942MOL0     C27041   9.275   9.290   7.304  0.4000  1.2541  0.0459
  942MOL0     C27042   9.375   9.248   7.209  0.5038  1.1061  0.9932
  942MOL0     O27043   9.418   9.116   7.203  0.0449 -0.2738 -0.1056
  942MOL0     C27044   9.359   9.018   7.294  0.5375 -0.7792  0.1567
  942MOL0     C27045   9.386   8.876   7.240  0.6272 -0.2833 -1.2377
  942MOL0     C27046   9.380   8.763   7.356  0.1531  0.1940  0.5712
  942MOL0     C27047   9.517   8.716   7.386  0.0298 -0.2299  0.0910
  942MOL0     C27048   9.516   8.585   7.466  0.6001  0.1410 -0.9689
  942MOL0     C27049   9.655   8.562   7.541  0.1408  0.4517  0.2774
  942MOL0     C27050   9.780   8.546   7.457 -0.1107  0.2528  0.5465
  942MOL0     C27051   9.896   8.461   7.503 -0.6916 -0.5200 -0.4681
  942MOL0     N27052  10.021   8.486   7.429  0.1412 -0.7864  0.4590
  942MOL0     C27053  10.077   8.420   7.316  0.6224  0.3447  0.1700
  942MOL0     C27054  10.199   8.464   7.294  0.1274  0.1085  0.5319
  942MOL0     C27055  10.284   8.412   7.182  0.9133 -0.1345 -0.2399
  942MOL0     C27056  10.424   8.448   7.215  0.5407 -0.5265 -0.2524
  942MOL0     C27057  10.520   8.434   7.095  0.6743  0.4133  0.6287
  942MOL0     C27058  10.519   8.299   7.028  0.7800  0.3916 -1.6889
  942MOL0     O27059  10.598   8.323   6.909  0.5851 -0.2035  0.0816
  942MOL0     C27060  10.652   8.227   6.825  0.4661 -0.1030 -0.2061
  942MOL0     C27061  10.642   8.248   6.686 -0.1544  0.0653 -0.5272
  942MOL0     C27062  10.700   8.162   6.594  0.3873 -1.1045 -0.5417
  942MOL0     C27063  10.774   8.055   6.634 -0.3304 -0.2403  0.0579
  942MOL0     C27064  10.844   7.967   6.540  0.5576 -0.5022 -0.1050
  942MOL0     O27065  10.848   7.834   6.573  0.3014  0.1455  0.3303
  942MOL0     C27066  10.869   7.732   6.488 -0.2855  0.7639  0.5287
  942MOL0     C27067  10.855   7.735   6.349  0.7886  0.4092 -0.4562
  942MOL0     C27068  10.870   7.624   6.272  1.0068 -0.1882 -0.0018
  942MOL0     C27069  10.900   7.495   6.319 -0.6444  0.2035 -0.8319
  942MOL0     O27070  10.885   7.384   6.242 -0.6343  0.2301  0.5851
  942MOL0     C27071  10.851   7.261   6.302  0.2246  1.3106  0.1855
  942MOL0     C27072  10.785   7.178   6.194 -0.5112 -0.3097  0.2566
  942MOL0     C27073  10.684   7.261   6.104 -0.4786  1.2042  0.9704
  942MOL0     C27074  10.589   7.152   6.029  0.4728 -0.2481 -0.2849
  942MOL0     C27075  10.499   7.211   5.924  0.3275  0.0871  0.1084
  942MOL0     C27076  10.402   7.310   5.984  1.0691  0.8775  0.4671
  942MOL0     C27077  10.323   7.392   5.887  0.0763 -0.6812  0.5884
  942MOL0     C27078  10.186   7.347   5.872 -0.7850  0.6030 -0.3223
  942MOL0    Cl27079  10.125   7.485   5.767  0.1352  0.0542 -0.0297
  942MOL0     C27080  10.947   7.494   6.453 -0.4448 -0.6831  0.4754
  942MOL0     C27081  10.927   7.605   6.535  0.2175 -0.0583 -0.3645
  942MOL0     O27082  10.877   8.015   6.428 -0.3642  0.3132  0.1655
  942MOL0     C27083  10.764   8.026   6.765 -0.1297 -0.2868  0.6877
  942MOL0     C27084  10.708   8.105   6.866  0.7092  0.2092  0.2197
  942MOL0     N27085  10.213   8.571   7.387  0.6146  0.5117  0.2090
  942MOL0     N27086  10.111   8.584   7.462  0.3716 -0.3531  0.7977
  942MOL0     C27087   9.435   9.339   7.122 -0.1485 -0.9833 -0.2942
  942MOL0     C27088   9.384   9.470   7.127 -0.2488  0.2339 -0.4451
  942MOL0     C27089   9.048   9.781   7.190  0.5113 -0.2606 -0.1207
  942MOL0     C27090   9.126   9.890   7.240 -0.2145 -0.5076 -0.2048
  942MOL0     C27091   9.071  10.006   7.282 -0.1033 -0.6298 -1.0059
  942MOL0     C27092   8.936  10.023   7.297 -0.1294  0.6385 -0.7707
  942MOL0     O27093   8.886  10.130   7.373 -0.3058  0.6501  0.1665
  942MOL0     C27094   8.767  10.110   7.448 -0.3603 -0.3941  0.5803
  942MOL0     C27095   8.725  10.245   7.505 -0.2754 -0.3322  0.2447
  942MOL0     C27096   8.823  10.288   7.623 -0.6068 -0.4408  0.2743
  942MOL0     C27097   8.774  10.239   7.755  0.7518  0.7680 -0.6990
  942MOL0     C27098   8.782  10.095   7.788  1.1595 -1.2267 -0.2760
  942MOL0     C27099   8.774   9.975   7.797 -0.2553  0.0876 -0.6716
  942MOL0     C27100   8.854   9.919   7.252  0.2386  0.7535 -0.2245
  942MOL0     C27101   8.909   9.803   7.205  0.3534  0.4986  0.5500
  942MOL0     C27102   8.818   9.681   7.175 -0.1771 -0.0081 -0.5625
  942MOL0     H27103   9.147   9.446   7.360  0.3246  1.0326 -1.2233
  942MOL0     H27104   9.220   9.230   7.375 -0.6377 -0.6592 -2.2230
  942MOL0     H27105   9.390   9.030   7.398 -0.4926 -1.3599  0.5417
  942MOL0     H27106   9.250   9.029   7.301  0.7638  1.4562  0.9205
  942MOL0     H27107   9.480   8.869   7.186  1.3643 -2.6516  0.2029
  942MOL0     H27108   9.306   8.852   7.169 -0.3824 -1.3230  0.1754
  942MOL0     H27109   9.322   8.682   7.310 -0.6081  0.9116  0.2471
  942MOL0     H27110   9.323   8.802   7.440 -1.3383  0.6854 -0.6226
  942MOL0     H27111   9.581   8.688   7.302 -0.2799 -1.2208  0.1625
  942MOL0     H27112   9.563   8.796   7.443  0.0025  0.4152 -0.7709
  942MOL0     H27113   9.440   8.608   7.541  2.1879  1.5898  0.2607
  942MOL0     H27114   9.491   8.502   7.399 -1.9953 -0.4867  0.6340
  942MOL0     H27115   9.664   8.640   7.617 -1.0487 -1.7814  2.8938
  942MOL0     H27116   9.624   8.467   7.586 -1.9544  1.8160  1.9004
  942MOL0     H27117   9.831   8.641   7.440  0.3267 -0.4304 -2.4740
  942MOL0     H27118   9.759   8.509   7.356  1.8665 -1.7318  0.7832
  942MOL0     H27119   9.896   8.468   7.612 -0.3896 -1.9314 -0.3476
  942MOL0     H27120   9.869   8.356   7.488  1.9570 -1.2745 -0.4517
  942MOL0     H27121  10.047   8.329   7.265  1.9980  0.7198 -1.3844
  942MOL0     H27122  10.273   8.305   7.167 -1.5894  0.0261 -0.1095
  942MOL0     H27123  10.250   8.465   7.093  0.6401  1.1483  0.5948
  942MOL0     H27124  10.428   8.552   7.249  3.0953 -0.4531 -0.5542
  942MOL0     H27125  10.457   8.381   7.295 -1.1673 -0.5425  0.4791
  942MOL0     H27126  10.625   8.443   7.124  0.6922 -1.0740  1.1213
  942MOL0     H27127  10.489   8.514   7.027  0.8159  1.7360  2.0556
  942MOL0     H27128  10.418   8.268   7.002  1.4916 -1.7453 -2.1783
  942MOL0     H27129  10.557   8.223   7.098  1.8555  2.3404 -0.0590
  942MOL0     H27130  10.595   8.337   6.646  0.0051  0.7535  0.7672
  942MOL0     H27131  10.688   8.185   6.488 -1.4514 -0.2968 -0.1845
  942MOL0     H27132  10.835   7.831   6.303  3.5519  0.3716 -1.9127
  942MOL0     H27133  10.848   7.640   6.167  4.3869  0.9388 -0.6485
  942MOL0     H27134  10.931   7.204   6.349 -1.5084 -0.8646  0.6770
  942MOL0     H27135  10.779   7.267   6.385  0.0303 -0.9434  0.2286
  942MOL0     H27136  10.866   7.138   6.132  0.6147  2.9710 -0.5657
  942MOL0     H27137  10.724   7.093   6.226  0.4637 -1.4984 -0.9090
  942MOL0     H27138  10.616   7.333   6.150 -3.0390  1.2417 -2.5339
  942MOL0     H27139  10.744   7.307   6.025 -1.2020 -1.7109 -1.4709
  942MOL0     H27140  10.524   7.114   6.108 -0.1534  1.9700  0.3323
  942MOL0     H27141  10.646   7.079   5.971 -1.8462 -1.2488 -1.3897
  942MOL0     H27142  10.457   7.124   5.871 -1.7472 -0.8026  2.9876
  942MOL0     H27143  10.549   7.274   5.849 -1.8182  1.8306  0.0580
  942MOL0     H27144  10.341   7.257   6.058 -0.4440  1.8650 -0.0246
  942MOL0     H27145  10.459   7.382   6.043  0.4380 -2.1362  5.3645
  942MOL0     H27146  10.374   7.382   5.791  0.5465 -1.0477  0.8752
  942MOL0     H27147  10.332   7.498   5.912  1.5372 -0.5948 -0.2304
  942MOL0     H27148  10.180   7.250   5.822  1.3240  0.3062 -0.0825
  942MOL0     H27149  10.134   7.345   5.968  0.2978  0.2796  0.2704
  942MOL0     H27150  10.974   7.398   6.496 -2.5615 -2.0797 -1.0585
  942MOL0     H27151  10.947   7.600   6.641  2.8492 -2.5433 -0.8485
  942MOL0     H27152  10.808   7.936   6.807  1.7870  0.8850  1.3301
  942MOL0     H27153  10.740   8.082   6.967 -0.0082  0.0596  0.4140
  942MOL0     H27154   9.501   9.306   7.043 -1.2733 -0.0395 -1.6629
  942MOL0     H27155   9.425   9.537   7.052 -2.2957  1.2221 -0.7617
  942MOL0     H27156   9.233   9.888   7.260 -0.3774  0.8708  0.9990
  942MOL0     H27157   9.129  10.094   7.307 -2.6482  0.9223 -0.1920
  942MOL0     H27158   8.789  10.034   7.524  0.8396 -1.5185 -0.8372
  942MOL0     H27159   8.687  10.065   7.390 -1.9547  0.0133  2.3497
  942MOL0     H27160   8.623  10.230   7.543  0.5439 -0.4231  2.5764
  942MOL0     H27161   8.717  10.325   7.432 -2.0888 -0.3516  0.3756
  942MOL0     H27162   8.829  10.397   7.616 -3.2611 -0.1658  1.1579
  942MOL0     H27163   8.922  10.246   7.603 -1.0396 -0.6349 -1.6825
  942MOL0     H27164   8.831  10.285   7.836  0.6174 -4.8130  3.0613
  942MOL0     H27165   8.673  10.274   7.777  0.0913 -1.7854  0.6857
  942MOL0     H27166   8.763   9.869   7.802  1.1549 -0.0932 -0.8144
  942MOL0     H27167   8.746   9.922   7.254  0.0008 -2.6158 -1.0186
  942MOL0     H27168   8.832   9.602   7.250  2.1481 -1.4305 -2.3472
  942MOL0     H27169   8.719   9.718   7.150  0.1651 -0.0686 -2.1067
  942MOL0     H27170   8.853   9.645   7.078 -0.2021  1.1096 -0.9976
  943MOL0     O27171  11.477   8.969   2.497  0.7725  0.1617 -0.0972
  943MOL0     C27172  11.466   9.001   2.612 -0.0935 -0.4889 -0.6790
  943MOL0     O27173  11.557   9.073   2.676 -0.2991 -0.5323 -0.3687
  943MOL0     C27174  11.648   9.166   2.628  0.5652 -0.2005 -0.1408
  943MOL0     C27175  11.655   9.212   2.498  0.2664 -0.7739 -0.1374
  943MOL0     C27176  11.760   9.305   2.461 -0.6539  0.3764  0.0207
  943MOL0     C27177  11.862   9.337   2.557  0.2175 -0.3495 -0.0829
  943MOL0     O27178  11.969   9.399   2.505 -0.5406  0.2240  0.3352
  943MOL0     C27179  12.000   9.536   2.546  0.2891  0.0719  0.6293
  943MOL0     C27180  11.950   9.640   2.442  0.1512  0.6423 -0.4778
  943MOL0     C27181  11.984   9.576   2.307  0.6890  0.7299  0.3433
  943MOL0     C27182  11.999   9.685   2.197 -0.2848 -1.0992  0.9967
  943MOL0     C27183  12.126   9.658   2.107 -0.3858 -0.1137 -0.7769
  943MOL0     C27184  12.125   9.547   2.001  0.2449  0.1612 -0.3164
  943MOL0     C27185  12.035   9.570   1.887  1.0859  0.6996 -0.0826
  943MOL0     C27186  11.901   9.484   1.891  0.5613 -0.3919  0.3485
  943MOL0     N27187  11.802   9.541   1.795 -0.1961 -1.3944  0.0567
  943MOL0     C27188  11.820   9.552   1.660 -0.4261 -0.5067 -0.0224
  943MOL0     C27189  11.704   9.587   1.608  0.3121  0.4893  0.6677
  943MOL0     C27190  11.666   9.630   1.471 -0.7912 -0.4378  0.1404
  943MOL0     C27191  11.737   9.541   1.368 -0.1821  0.4857  0.9672
  943MOL0     C27192  11.725   9.380   1.367 -1.0384  0.6876  0.8248
  943MOL0     C27193  11.597   9.319   1.417 -0.3260 -0.1538  0.1459
  943MOL0     O27194  11.499   9.325   1.317  0.0444  0.6276 -0.5759
  943MOL0     C27195  11.444   9.230   1.240  0.5951  0.9834  0.1458
  943MOL0     C27196  11.470   9.089   1.259  0.5053 -0.0468 -0.6440
  943MOL0     C27197  11.415   8.993   1.182 -0.3847 -1.1958 -0.1773
  943MOL0     C27198  11.321   9.024   1.083 -0.1443 -0.2444  0.6464
  943MOL0     C27199  11.245   8.918   1.012  0.1984 -0.0064 -0.6351
  943MOL0     O27200  11.290   8.796   1.051 -0.3023  0.5818  0.1026
  943MOL0     C27201  11.238   8.685   0.988 -0.0339 -0.3923  0.2824
  943MOL0     C27202  11.268   8.671   0.845 -0.4727 -1.0356  0.1447
  943MOL0     C27203  11.245   8.554   0.784 -0.4573 -0.5251  0.2052
  943MOL0     C27204  11.194   8.447   0.854  1.1753 -0.2237 -0.8569
  943MOL0     O27205  11.156   8.343   0.779  0.5596  0.3395  0.0875
  943MOL0     C27206  11.018   8.336   0.753 -0.7700 -0.4751 -0.4801
  943MOL0     C27207  11.003   8.212   0.668 -0.2642 -0.4491 -0.0730
  943MOL0     C27208  10.866   8.221   0.591  0.4360 -1.3631 -0.1466
  943MOL0     C27209  10.831   8.081   0.534  0.6135  0.4167 -0.1038
  943MOL0     C27210  10.697   8.082   0.455 -0.2296  0.6185 -0.6743
  943MOL0     C27211  10.572   8.091   0.545  0.7567  0.3806 -0.0005
  943MOL0     C27212  10.525   7.969   0.627 -0.2588  0.4160 -0.0217
  943MOL0     C27213  10.554   7.998   0.782  0.3665  0.1784  0.0353
  943MOL0    Cl27214  10.495   8.155   0.843  0.4290  0.0757  0.4424
  943MOL0     C27215  11.155   8.461   0.994 -0.8683 -0.1781  0.0288
  943MOL0     C27216  11.183   8.575   1.063 -0.9368  0.6182  0.1357
  943MOL0     O27217  11.169   8.937   0.919 -0.0930  0.0447  0.0583
  943MOL0     C27218  11.299   9.165   1.063  0.5544  0.7770 -0.2148
  943MOL0     C27219  11.366   9.255   1.142  0.8546 -1.0684  0.0976
  943MOL0     N27220  11.630   9.612   1.722  0.6190 -0.1848  0.3218
  943MOL0     N27221  11.680   9.589   1.837 -0.5522  0.3087 -0.5421
  943MOL0     C27222  11.841   9.303   2.692  0.4195 -0.5066  0.2577
  943MOL0     C27223  11.743   9.218   2.720 -0.0966 -0.3948 -0.2324
  943MOL0     C27224  11.363   8.923   2.692  0.5024 -0.3418 -0.0648
  943MOL0     C27225  11.349   8.968   2.825 -0.0155  0.3393  0.9628
  943MOL0     C27226  11.257   8.913   2.918 -0.2556  0.6490 -0.3265
  943MOL0     C27227  11.152   8.824   2.871  0.0448 -1.0986  0.3966
  943MOL0     O27228  11.058   8.792   2.955  0.5699  0.2082  0.6813
  943MOL0     C27229  10.983   8.676   2.936 -0.3150  0.1040 -0.6140
  943MOL0     C27230  10.954   8.610   3.079 -0.5980  0.5169 -0.8791
  943MOL0     C27231  10.822   8.528   3.079  0.2697 -0.2228  0.2370
  943MOL0     C27232  10.831   8.389   3.141 -0.3130 -0.0082  0.3409
  943MOL0     C27233  10.797   8.293   3.037 -0.1034  0.3050  0.5024
  943MOL0     C27234  10.759   8.208   2.956 -0.3066  0.8420 -0.8967
  943MOL0     C27235  11.155   8.789   2.731  1.4301 -0.2544  0.5743
  943MOL0     C27236  11.254   8.843   2.641 -1.1084  0.5189  0.4230
  943MOL0     C27237  11.229   8.806   2.498  0.5032 -0.2581 -0.6460
  943MOL0     H27238  11.575   9.183   2.431  2.4175  0.1954 -3.3658
  943MOL0     H27239  11.755   9.353   2.364  1.8990 -1.2055 -0.9832
  943MOL0     H27240  11.955   9.549   2.645 -0.1065 -0.3590  0.5124
  943MOL0     H27241  12.109   9.539   2.547  0.4269 -1.7876  3.5673
  943MOL0     H27242  12.001   9.735   2.462 -0.9158  0.4086  4.6890
  943MOL0     H27243  11.846   9.674   2.445  0.5853  1.9981 -0.1677
  943MOL0     H27244  11.901   9.510   2.279  0.9723  1.2404 -1.8758
  943MOL0     H27245  12.076   9.518   2.317 -1.3483 -2.2837  3.5446
  943MOL0     H27246  11.921   9.677   2.121  0.7136  0.9108 -0.3187
  943MOL0     H27247  11.996   9.790   2.227 -0.4531  0.0586 -2.5861
  943MOL0     H27248  12.144   9.752   2.054 -0.7645  0.8936  0.8069
  943MOL0     H27249  12.212   9.649   2.174 -0.9459 -2.5909 -0.2874
  943MOL0     H27250  12.227   9.548   1.963  0.5807 -0.7294  0.5433
  943MOL0     H27251  12.110   9.448   2.045 -1.7827  0.9100  0.8149
  943MOL0     H27252  12.086   9.551   1.792  0.2512  2.5362 -0.9686
  943MOL0     H27253  12.017   9.678   1.873 -0.3338  0.7051  1.4521
  943MOL0     H27254  11.921   9.377   1.878  2.8763  0.0340  0.1188
  943MOL0     H27255  11.853   9.501   1.988  0.2738 -0.0787  0.1530
  943MOL0     H27256  11.914   9.548   1.606  0.4226  4.8778  0.5657
  943MOL0     H27257  11.558   9.629   1.455 -0.7635  0.3951 -0.1340
  943MOL0     H27258  11.678   9.738   1.457  3.1973 -0.2831  2.9683
  943MOL0     H27259  11.708   9.577   1.269 -0.1394  1.5690  1.3409
  943MOL0     H27260  11.844   9.563   1.371  0.1789  0.0285 -2.8265
  943MOL0     H27261  11.813   9.346   1.422  1.4938  0.3438 -3.0446
  943MOL0     H27262  11.746   9.340   1.267 -1.7270 -0.6592  1.1960
  943MOL0     H27263  11.580   9.380   1.507  0.2845  0.8354 -0.3894
  943MOL0     H27264  11.611   9.220   1.461  2.0815 -0.2882 -0.7724
  943MOL0     H27265  11.536   9.041   1.330 -1.3763  0.7522  1.7926
  943MOL0     H27266  11.442   8.895   1.220  1.0442  0.2089  2.7163
  943MOL0     H27267  11.318   8.755   0.799  0.2888 -1.5733 -0.0332
  943MOL0     H27268  11.264   8.540   0.678 -0.1307 -0.1536  0.2125
  943MOL0     H27269  10.970   8.330   0.851 -0.1401  0.9832 -0.0589
  943MOL0     H27270  10.989   8.424   0.696  2.7737  0.8117 -0.5300
  943MOL0     H27271  11.081   8.211   0.590  1.5540 -0.6146  1.6742
  943MOL0     H27272  11.008   8.116   0.719  0.0878 -0.9390 -0.9914
  943MOL0     H27273  10.798   8.243   0.674  1.4371  0.9789  0.1297
  943MOL0     H27274  10.867   8.296   0.512  0.3354 -3.3109 -2.0905
  943MOL0     H27275  10.844   7.998   0.605 -0.3267 -1.5391 -2.0730
  943MOL0     H27276  10.906   8.055   0.458  0.0036  0.1085 -0.6218
  943MOL0     H27277  10.682   7.988   0.401 -0.7578  0.4124 -0.1808
  943MOL0     H27278  10.704   8.171   0.392 -0.6254  0.7158 -0.5846
  943MOL0     H27279  10.574   8.178   0.612  4.2065 -0.0008  0.5752
  943MOL0     H27280  10.490   8.096   0.473  0.2545 -0.1763  0.5176
  943MOL0     H27281  10.578   7.878   0.599  2.4147  1.3340  1.6469
  943MOL0     H27282  10.417   7.962   0.611 -0.5857  1.8097  1.2880
  943MOL0     H27283  10.518   7.914   0.842  0.7875  0.9480  1.3902
  943MOL0     H27284  10.662   8.010   0.786  0.6999 -1.6279 -1.7631
  943MOL0     H27285  11.114   8.376   1.048  1.2493 -0.4719  1.2934
  943MOL0     H27286  11.153   8.595   1.165 -2.9044  3.5718 -0.8826
  943MOL0     H27287  11.219   9.196   0.996  1.2580  3.4596  0.0799
  943MOL0     H27288  11.343   9.356   1.110 -1.5185 -1.5108  0.2292
  943MOL0     H27289  11.907   9.340   2.770  0.9354  3.0714 -1.6594
  943MOL0     H27290  11.749   9.166   2.815 -0.1609  0.5008  0.2635
  943MOL0     H27291  11.419   9.041   2.864 -0.3311  2.0532 -1.5022
  943MOL0     H27292  11.256   8.956   3.017  0.6815  2.0293 -0.8731
  943MOL0     H27293  11.034   8.606   2.870 -0.0753  0.8736 -1.2645
  943MOL0     H27294  10.892   8.707   2.885 -1.3126  0.4129  1.2411
  943MOL0     H27295  10.942   8.691   3.150  5.0052 -0.1488  1.3335
  943MOL0     H27296  11.035   8.550   3.124  0.1632  3.1055  1.4540
  943MOL0     H27297  10.790   8.514   2.975  0.5484 -1.0453  0.2603
  943MOL0     H27298  10.740   8.584   3.125  0.7910 -1.0360  2.2515
  943MOL0     H27299  10.938   8.375   3.162  0.2039  1.2729 -1.1814
  943MOL0     H27300  10.765   8.388   3.227 -1.7586  1.5028 -0.6787
  943MOL0     H27301  10.721   8.132   2.892 -0.6921 -0.1448  0.4712
  943MOL0     H27302  11.085   8.718   2.690  2.2196 -0.3332 -0.6872
  943MOL0     H27303  11.271   8.707   2.476  1.5091 -0.0317  0.1457
  943MOL0     H27304  11.122   8.802   2.478  0.6487 -1.3766 -1.3063
  943MOL0     H27305  11.269   8.872   2.420 -1.6060  2.8887  0.7459
  944MOL0     O27306   7.701   0.513   5.712  0.3607  0.1512 -0.4891
  944MOL0     C27307   7.775   0.452   5.634  0.1603  0.7101 -0.3682
  944MOL0     O27308   7.890   0.384   5.665  0.5807 -0.0119  0.0518
  944MOL0     C27309   7.924   0.406   5.791 -0.4967  0.9947 -0.9431
  944MOL0     C27310   7.967   0.529   5.840  0.0414  0.5250 -0.2442
  944MOL0     C27311   8.015   0.534   5.972  0.3962 -1.2856  0.8340
  944MOL0     C27312   8.013   0.424   6.050  0.8466  0.4525 -0.3245
  944MOL0     O27313   8.034   0.433   6.186  0.0380 -0.4465  0.2255
  944MOL0     C27314   8.151   0.501   6.235 -1.2581  0.2659 -1.3969
  944MOL0     C27315   8.257   0.397   6.270 -0.4667  0.8471  0.1366
  944MOL0     C27316   8.187   0.279   6.348 -0.1928  0.4003 -1.1023
  944MOL0     C27317   8.298   0.197   6.410  0.3642  0.1623  0.3602
  944MOL0     C27318   8.372   0.118   6.300 -0.5868  0.3505 -0.0976
  944MOL0     C27319   8.474   0.020   6.362 -0.0369 -0.4631 -0.1075
  944MOL0     C27320   8.561  -0.042   6.240  0.0457 -0.7006 -0.4623
  944MOL0     C27321   8.672  -0.130   6.296  0.1301 -0.2761  0.3072
  944MOL0     N27322   8.782  -0.062   6.366  0.4059 -0.5124  0.2303
  944MOL0     C27323   8.822  -0.072   6.492 -0.4175 -0.3290 -0.5367
  944MOL0     C27324   8.919   0.016   6.517  0.4289 -1.3647  0.6353
  944MOL0     C27325   9.003   0.023   6.643 -0.8008  0.2540  1.2868
  944MOL0     C27326   9.109  -0.091   6.627 -0.1565 -0.2477 -0.9286
  944MOL0     C27327   9.179  -0.110   6.760 -0.1148 -0.5235 -0.2530
  944MOL0     C27328   9.296  -0.213   6.746  0.4608  0.2274  0.0283
  944MOL0     O27329   9.355  -0.219   6.874  0.0775  0.1157 -0.2522
  944MOL0     C27330   9.472  -0.292   6.883  0.8528 -0.4032 -0.0754
  944MOL0     C27331   9.542  -0.318   7.002  0.1979 -0.5003 -0.1953
  944MOL0     C27332   9.672  -0.371   7.009 -0.1962  0.2818  1.2331
  944MOL0     C27333   9.734  -0.412   6.891 -0.1732  0.9766 -0.4837
  944MOL0     C27334   9.864  -0.486   6.898 -1.0638  0.0448 -0.4789
  944MOL0     O27335   9.886  -0.557   6.782  0.0367  0.0316 -0.4384
  944MOL0     C27336   9.965  -0.663   6.772  1.1098 -0.1534  0.5187
  944MOL0     C27337  10.044  -0.717   6.872 -1.0227  0.5081  0.6637
  944MOL0     C27338  10.133  -0.819   6.838 -0.7750 -0.4181 -0.1695
  944MOL0     C27339  10.130  -0.883   6.713  0.0315  0.0552 -0.8494
  944MOL0     O27340  10.218  -0.986   6.681  1.1386  0.1531  0.3311
  944MOL0     C27341  10.176  -1.086   6.584  0.6729 -1.1450 -0.0625
  944MOL0     C27342  10.273  -1.187   6.571 -0.4791  0.8235 -0.2070
  944MOL0     C27343  10.281  -1.245   6.428  0.6303  0.4313  0.8562
  944MOL0     C27344  10.400  -1.340   6.401  0.1083 -0.7065  0.4415
  944MOL0     C27345  10.397  -1.388   6.248  0.7652 -1.4214 -0.6983
  944MOL0     C27346  10.522  -1.474   6.227 -0.0450  0.0535 -0.7082
  944MOL0     C27347  10.534  -1.519   6.078  0.6049 -0.3379 -0.5603
  944MOL0     C27348  10.452  -1.644   6.059 -0.0305 -0.3957 -0.5066
  944MOL0    Cl27349  10.471  -1.686   5.889  0.3506 -0.0177  0.1619
  944MOL0     C27350  10.041  -0.836   6.619 -0.3872  0.7714  0.2725
  944MOL0     C27351   9.968  -0.719   6.648 -0.0673 -0.8817 -0.1273
  944MOL0     O27352   9.932  -0.481   7.000  0.1518 -0.4618  0.1818
  944MOL0     C27353   9.659  -0.418   6.773  0.0302 -0.1805  0.1417
  944MOL0     C27354   9.529  -0.362   6.767 -0.7334  0.5988 -0.7607
  944MOL0     N27355   8.936   0.091   6.403  0.3330  0.3530 -0.4724
  944MOL0     N27356   8.848   0.051   6.315  0.7675  0.0745  0.2985
  944MOL0     C27357   7.982   0.298   5.996  0.0706  0.0978  0.6298
  944MOL0     C27358   7.936   0.287   5.868 -0.7487  0.2009 -0.1396
  944MOL0     C27359   7.730   0.434   5.489 -0.9371 -0.5269  0.4482
  944MOL0     C27360   7.693   0.556   5.422  1.2197  0.3785 -0.7703
  944MOL0     C27361   7.658   0.558   5.284  0.0226 -0.5411 -1.3737
  944MOL0     C27362   7.644   0.434   5.220  0.2312  0.5831  0.4895
  944MOL0     O27363   7.606   0.445   5.087 -0.2634  0.2097 -0.4986
  944MOL0     C27364   7.561   0.326   5.017  0.2404 -0.1411 -0.7754
  944MOL0     C27365   7.415   0.320   4.977 -0.7331  0.1536  0.4648
  944MOL0     C27366   7.385   0.204   4.881  0.6674 -1.2851  0.4895
  944MOL0     C27367   7.243   0.213   4.818  1.2357 -0.2911 -0.2186
  944MOL0     C27368   7.204   0.102   4.731  0.2764  0.0295 -0.1367
  944MOL0     C27369   7.171   0.013   4.652 -0.2561 -0.3935 -0.7825
  944MOL0     C27370   7.666   0.313   5.290  0.3975  0.2971 -0.3363
  944MOL0     C27371   7.717   0.315   5.427  0.1557 -0.4089  0.2249
  944MOL0     C27372   7.730   0.195   5.506 -0.9504  0.0205  0.1893
  944MOL0     H27373   7.970   0.611   5.769 -1.4521 -0.5625 -1.6563
  944MOL0     H27374   8.050   0.628   6.014  2.9621 -0.9542 -1.8084
  944MOL0     H27375   8.204   0.560   6.160 -0.8492  2.0692  0.2453
  944MOL0     H27376   8.116   0.558   6.321 -3.2932 -2.5958 -0.1621
  944MOL0     H27377   8.327   0.465   6.321 -0.8961 -0.9088  3.3986
  944MOL0     H27378   8.297   0.357   6.176 -0.6201 -1.2822  0.9174
  944MOL0     H27379   8.123   0.219   6.283 -1.4860  0.8358 -0.2656
  944MOL0     H27380   8.116   0.312   6.424 -0.6706 -0.4371 -1.1771
  944MOL0     H27381   8.372   0.259   6.462 -0.2657  1.1835  0.0790
  944MOL0     H27382   8.249   0.147   6.495  0.8958  0.8478  1.0860
  944MOL0     H27383   8.296   0.060   6.248  0.1504  0.7160 -1.6411
  944MOL0     H27384   8.422   0.190   6.235 -2.6252  0.9863 -1.0436
  944MOL0     H27385   8.549   0.067   6.427  0.4951 -0.1565 -0.9205
  944MOL0     H27386   8.437  -0.074   6.404  0.5646 -2.2170 -3.2011
  944MOL0     H27387   8.606   0.047   6.194  2.2673 -0.3594  2.1141
  944MOL0     H27388   8.493  -0.099   6.176 -0.3861  0.0868 -0.7233
  944MOL0     H27389   8.623  -0.202   6.363 -1.7770  1.6338  1.1090
  944MOL0     H27390   8.715  -0.183   6.211  0.0061 -1.7796  1.1559
  944MOL0     H27391   8.792  -0.150   6.561 -0.6721 -0.3825 -0.7047
  944MOL0     H27392   9.051   0.117   6.669 -2.1751  0.7866  2.0403
  944MOL0     H27393   8.945  -0.006   6.731 -0.9719 -4.0678  0.0054
  944MOL0     H27394   9.060  -0.179   6.585  1.7625  0.1695 -4.4107
  944MOL0     H27395   9.188  -0.064   6.556  1.5061 -6.1132 -1.8725
  944MOL0     H27396   9.108  -0.156   6.829 -0.5837  0.0140 -0.3683
  944MOL0     H27397   9.214  -0.014   6.800 -0.4630  0.3912 -2.0233
  944MOL0     H27398   9.369  -0.189   6.668 -0.9949  2.1611 -0.8225
  944MOL0     H27399   9.250  -0.309   6.722  1.9988 -0.2930 -0.9612
  944MOL0     H27400   9.490  -0.273   7.085 -0.3499  1.0012 -1.3017
  944MOL0     H27401   9.724  -0.376   7.105  0.2128 -0.8083  0.9624
  944MOL0     H27402  10.044  -0.688   6.976  0.2274 -2.4689  1.5920
  944MOL0     H27403  10.208  -0.837   6.914 -0.4260 -0.3709 -0.5022
  944MOL0     H27404  10.076  -1.122   6.613  1.0147 -1.4237  0.8083
  944MOL0     H27405  10.160  -1.046   6.484 -0.3426 -2.8191 -0.6033
  944MOL0     H27406  10.368  -1.153   6.613 -0.1237  1.2562 -1.3163
  944MOL0     H27407  10.243  -1.268   6.638  1.5475 -1.3363 -1.7129
  944MOL0     H27408  10.191  -1.305   6.413  1.7899 -1.4897  1.2413
  944MOL0     H27409  10.263  -1.167   6.353 -0.2213 -1.0945 -0.5877
  944MOL0     H27410  10.387  -1.431   6.460  1.2013 -0.1442  1.6239
  944MOL0     H27411  10.498  -1.293   6.417 -1.8936  4.0683  0.2788
  944MOL0     H27412  10.391  -1.299   6.184 -3.0051 -0.0736  1.2145
  944MOL0     H27413  10.318  -1.457   6.219  1.1267 -1.2066 -2.3283
  944MOL0     H27414  10.606  -1.413   6.260 -0.3212 -1.1158  2.4184
  944MOL0     H27415  10.528  -1.558   6.296  1.0014 -0.6329 -1.6067
  944MOL0     H27416  10.638  -1.533   6.045  1.8649  1.2863  2.3769
  944MOL0     H27417  10.499  -1.440   6.010  2.2886 -1.1463 -2.4570
  944MOL0     H27418  10.484  -1.726   6.124  1.9295  2.2987  2.2344
  944MOL0     H27419  10.345  -1.627   6.073  0.6070  3.3814  0.8610
  944MOL0     H27420  10.044  -0.870   6.516  1.8825  0.5935  0.3477
  944MOL0     H27421   9.911  -0.660   6.577 -1.0167  0.5474  1.7228
  944MOL0     H27422   9.705  -0.455   6.682 -2.3972 -1.9872 -0.4544
  944MOL0     H27423   9.484  -0.358   6.669  0.4756  1.2528 -1.3066
  944MOL0     H27424   7.973   0.211   6.061  1.6393 -2.6146 -2.4788
  944MOL0     H27425   7.916   0.193   5.818 -0.1123  1.5140 -3.0231
  944MOL0     H27426   7.699   0.649   5.479 -0.9677  0.4711 -0.5972
  944MOL0     H27427   7.656   0.658   5.242  1.4173  1.7538  3.3676
  944MOL0     H27428   7.567   0.235   5.077  0.8403 -1.5814 -2.8929
  944MOL0     H27429   7.631   0.319   4.932  2.9134  2.8558  0.9525
  944MOL0     H27430   7.393   0.413   4.924 -3.1726 -0.3189  0.5344
  944MOL0     H27431   7.346   0.314   5.061 -1.3073 -2.3494 -0.0913
  944MOL0     H27432   7.394   0.107   4.931  1.8980 -1.1181  0.6354
  944MOL0     H27433   7.451   0.206   4.794 -1.2971 -0.2633 -1.0460
  944MOL0     H27434   7.178   0.207   4.905  0.2086  2.2651 -0.7028
  944MOL0     H27435   7.228   0.308   4.764 -0.1171 -0.4613 -0.1780
  944MOL0     H27436   7.154  -0.072   4.590 -1.9661 -0.1109 -0.7661
  944MOL0     H27437   7.654   0.212   5.252 -2.9498  1.3041 -2.3910
  944MOL0     H27438   7.824   0.187   5.561 -1.7012 -1.4918  1.3170
  944MOL0     H27439   7.646   0.171   5.571  0.0273 -2.7565  0.5588
  944MOL0     H27440   7.729   0.113   5.433 -1.5352  0.0493  0.1556
  945MOL0     O27441   8.518  10.373   5.491 -0.0967  0.4943 -0.1058
  945MOL0     C27442   8.564  10.281   5.559  0.1307 -0.5819 -0.0701
  945MOL0     O27443   8.632  10.170   5.508  0.7974  0.1517  0.8114
  945MOL0     C27444   8.631  10.165   5.366  0.0834  0.3945  0.2416
  945MOL0     C27445   8.730  10.223   5.286 -0.4979  0.3850 -0.9128
  945MOL0     C27446   8.711  10.221   5.151 -0.0125  0.0393  0.1250
  945MOL0     C27447   8.599  10.161   5.091 -0.7243  1.1525 -0.3051
  945MOL0     O27448   8.588  10.128   4.958  1.4618  0.2929  0.0437
  945MOL0     C27449   8.627  10.215   4.852  0.1867  0.2687 -0.2932
  945MOL0     C27450   8.622  10.129   4.724 -0.1012  0.3686 -0.6627
  945MOL0     C27451   8.668  10.242   4.618  0.0057  1.0989  0.8111
  945MOL0     C27452   8.558  10.287   4.523 -0.7647 -0.2842  2.0732
  945MOL0     C27453   8.577  10.429   4.466 -0.3109  0.5135  0.8955
  945MOL0     C27454   8.462  10.463   4.361 -0.0997  1.4377  0.0575
  945MOL0     C27455   8.482  10.598   4.307  0.4657  0.7225  1.0952
  945MOL0     C27456   8.547  10.605   4.161  0.2539  0.5084 -0.8555
  945MOL0     N27457   8.685  10.538   4.153  0.2662 -0.4028 -0.6890
  945MOL0     C27458   8.802  10.608   4.162 -0.8914  0.3127  0.6697
  945MOL0     C27459   8.897  10.534   4.104 -0.1084 -0.9717  1.3701
  945MOL0     C27460   9.038  10.596   4.076  0.2095 -0.0368 -0.4501
  945MOL0     C27461   9.068  10.631   3.934  0.2820  0.1009 -0.8849
  945MOL0     C27462   9.210  10.686   3.935 -0.4909 -0.8638  0.3198
  945MOL0     C27463   9.253  10.781   3.822  0.2616 -0.2407 -0.0737
  945MOL0     O27464   9.235  10.705   3.700 -0.0936  0.1139  0.6400
  945MOL0     C27465   9.228  10.780   3.586 -0.3942  0.2222 -0.6526
  945MOL0     C27466   9.280  10.908   3.577  0.3998 -0.6730  1.0662
  945MOL0     C27467   9.274  10.985   3.460 -0.0438 -0.1828  0.2062
  945MOL0     C27468   9.229  10.923   3.343  0.9566  0.3320  0.2838
  945MOL0     C27469   9.222  11.015   3.223  0.4986 -0.0242  0.5274
  945MOL0     O27470   9.224  11.145   3.258  0.1546 -0.3046  0.2393
  945MOL0     C27471   9.220  11.252   3.179  0.6193  0.3630 -0.5337
  945MOL0     C27472   9.190  11.374   3.232 -0.0239 -0.0338  0.0339
  945MOL0     C27473   9.199  11.489   3.150 -0.9583 -0.1444  0.0691
  945MOL0     C27474   9.235  11.487   3.012 -1.2343 -0.2167 -0.1647
  945MOL0     O27475   9.273  11.602   2.948 -0.0470  0.3565 -0.2024
  945MOL0     C27476   9.401  11.590   2.889 -0.0978 -0.3942 -0.4941
  945MOL0     C27477   9.424  11.726   2.820 -0.1229  0.7283  0.3895
  945MOL0     C27478   9.325  11.771   2.710 -0.4189  0.6690  0.4521
  945MOL0     C27479   9.347  11.908   2.653  0.3794 -0.2800 -0.7952
  945MOL0     C27480   9.270  11.966   2.532  0.3033  1.4144 -0.6093
  945MOL0     C27481   9.290  11.894   2.398 -0.3803 -0.3536 -0.1248
  945MOL0     C27482   9.433  11.876   2.372 -0.1150 -1.1023 -0.0491
  945MOL0     C27483   9.466  11.843   2.237 -0.8330  0.5281 -0.2268
  945MOL0    Cl27484   9.643  11.821   2.226  0.3340  0.3856  0.1264
  945MOL0     C27485   9.245  11.361   2.960 -1.2268 -0.3258  0.1330
  945MOL0     C27486   9.236  11.244   3.035 -0.1092  0.2043  0.0786
  945MOL0     O27487   9.220  10.971   3.106 -0.6380  0.2750  0.2661
  945MOL0     C27488   9.173  10.797   3.344 -0.3018  1.0376 -0.8814
  945MOL0     C27489   9.175  10.722   3.469  0.3480  0.3123  0.0864
  945MOL0     N27490   8.843  10.414   4.058 -1.2861 -0.1216 -0.2372
  945MOL0     N27491   8.715  10.417   4.096 -0.2886 -0.7538  0.0354
  945MOL0     C27492   8.497  10.103   5.175 -0.8472  0.0832 -0.3874
  945MOL0     C27493   8.510  10.108   5.310  0.4351  0.4994 -0.7427
  945MOL0     C27494   8.541  10.287   5.705 -0.3888  0.2086  0.1474
  945MOL0     C27495   8.587  10.173   5.782 -0.4218 -0.3285 -1.1686
  945MOL0     C27496   8.573  10.184   5.923 -0.1467  0.6954 -0.8590
  945MOL0     C27497   8.512  10.290   5.991  1.2305 -0.5005 -0.0895
  945MOL0     O27498   8.511  10.302   6.128  0.4876  0.0344  0.9234
  945MOL0     C27499   8.448  10.204   6.205 -0.7774 -0.0464  0.1307
  945MOL0     C27500   8.507  10.213   6.342  0.5594  0.9936  0.0727
  945MOL0     C27501   8.448  10.097   6.438 -0.5694 -0.7782  0.1158
  945MOL0     C27502   8.415  10.138   6.574  0.8736  0.3753 -0.3853
  945MOL0     C27503   8.292  10.223   6.574 -0.3705  0.3283  0.1461
  945MOL0     C27504   8.195  10.287   6.604 -0.9896  0.1449 -0.4244
  945MOL0     C27505   8.463  10.389   5.918 -0.7152 -0.8433  0.3763
  945MOL0     C27506   8.478  10.400   5.774  0.7154 -1.3315 -1.0358
  945MOL0     C27507   8.419  10.535   5.718 -0.3003  0.3622  0.8476
  945MOL0     H27508   8.818  10.265   5.334  0.8146 -1.7259 -1.3299
  945MOL0     H27509   8.790  10.261   5.089 -0.9235 -0.4988 -1.4323
  945MOL0     H27510   8.557  10.298   4.840 -0.0390 -0.1281 -1.9537
  945MOL0     H27511   8.730  10.248   4.871  0.2012  0.6725 -1.0323
  945MOL0     H27512   8.519  10.099   4.700 -0.1759  0.9195 -1.0393
  945MOL0     H27513   8.696  10.049   4.738 -2.8488 -2.6047 -1.8791
  945MOL0     H27514   8.746  10.181   4.571 -2.1333 -4.8090  3.8916
  945MOL0     H27515   8.721  10.324   4.667  1.8751 -0.5164  1.6264
  945MOL0     H27516   8.560  10.219   4.437 -0.3607  2.8200 -0.6064
  945MOL0     H27517   8.466  10.290   4.581 -2.5458  1.2426 -0.5726
  945MOL0     H27518   8.575  10.501   4.548  1.4022  2.3499 -0.5834
  945MOL0     H27519   8.672  10.435   4.413  0.2007 -0.2773  1.6948
  945MOL0     H27520   8.442  10.384   4.288 -2.1212  1.9742 -0.0447
  945MOL0     H27521   8.366  10.463   4.414 -0.6873 -0.1988 -0.9260
  945MOL0     H27522   8.553  10.643   4.377  2.6671 -0.3538 -0.3374
  945MOL0     H27523   8.385  10.649   4.307 -1.3820 -2.2809 -2.7027
  945MOL0     H27524   8.494  10.546   4.086  1.6535  0.1671 -1.6065
  945MOL0     H27525   8.545  10.712   4.137  1.9265  0.7857  0.0546
  945MOL0     H27526   8.793  10.705   4.210 -3.4363 -1.1347  3.4584
  945MOL0     H27527   9.048  10.689   4.133  1.6913 -0.5209  0.1463
  945MOL0     H27528   9.125  10.537   4.108 -0.5514 -0.6808  0.5010
  945MOL0     H27529   9.046  10.544   3.872 -3.5324  0.6163 -0.4700
  945MOL0     H27530   8.990  10.701   3.904 -1.8201 -2.6313 -2.2346
  945MOL0     H27531   9.279  10.601   3.942  1.6527  0.8909  1.6137
  945MOL0     H27532   9.227  10.751   4.021 -0.9600  0.5369 -0.6054
  945MOL0     H27533   9.353  10.820   3.839  0.3291  0.6998 -2.2099
  945MOL0     H27534   9.182  10.864   3.822 -0.1812 -0.4307  4.0719
  945MOL0     H27535   9.350  10.947   3.650  1.2553  1.1639 -0.6530
  945MOL0     H27536   9.316  11.084   3.475 -0.3472 -0.2741  1.8922
  945MOL0     H27537   9.166  11.376   3.338  2.7328  0.0351  0.7265
  945MOL0     H27538   9.176  11.587   3.190 -0.1375 -0.2397  0.7991
  945MOL0     H27539   9.477  11.580   2.967  0.3783  0.8536 -0.7693
  945MOL0     H27540   9.418  11.508   2.819 -0.4997 -0.4414 -0.5418
  945MOL0     H27541   9.420  11.802   2.898  0.8956 -0.2672  1.4474
  945MOL0     H27542   9.519  11.719   2.766 -1.9924 -0.3573 -3.1381
  945MOL0     H27543   9.337  11.699   2.628  1.1759  2.1403 -0.6784
  945MOL0     H27544   9.222  11.764   2.747 -1.0687 -1.5661 -1.4785
  945MOL0     H27545   9.455  11.923   2.640  0.7405  2.1248  3.3365
  945MOL0     H27546   9.329  11.977   2.736 -0.9284 -0.5795 -0.8058
  945MOL0     H27547   9.274  12.074   2.519 -0.1134  1.1731 -3.4526
  945MOL0     H27548   9.163  11.954   2.552 -0.2248  1.6377 -3.0173
  945MOL0     H27549   9.245  11.794   2.403 -0.5483 -0.3433 -1.1167
  945MOL0     H27550   9.232  11.942   2.318 -2.7719  1.6296  2.6025
  945MOL0     H27551   9.477  11.797   2.435  0.5293 -1.2758 -0.7078
  945MOL0     H27552   9.496  11.964   2.387  0.4342 -1.1327 -1.9240
  945MOL0     H27553   9.433  11.743   2.209 -0.1904 -0.2561  1.7059
  945MOL0     H27554   9.442  11.913   2.156  0.8201 -0.7565 -1.9251
  945MOL0     H27555   9.263  11.352   2.853 -0.5384 -0.5071  0.2621
  945MOL0     H27556   9.261  11.154   2.979 -2.4281  1.0313 -2.5507
  945MOL0     H27557   9.127  10.738   3.266  3.5674 -1.0742 -1.8200
  945MOL0     H27558   9.139  10.621   3.485  0.7009  0.7296  4.5592
  945MOL0     H27559   8.418  10.046   5.126  0.5041 -1.2978 -1.0483
  945MOL0     H27560   8.429  10.067   5.370  0.3314  1.0976 -0.4665
  945MOL0     H27561   8.635  10.083   5.744  3.3176  0.7239  0.6595
  945MOL0     H27562   8.623  10.107   5.981 -0.8851 -0.4761 -1.7344
  945MOL0     H27563   8.476  10.107   6.164 -1.9965 -0.2408 -0.2625
  945MOL0     H27564   8.341  10.214   6.222 -1.2552  0.1579 -2.6451
  945MOL0     H27565   8.472  10.300   6.399 -0.9776  1.2461 -1.1824
  945MOL0     H27566   8.615  10.198   6.347  0.5042  0.5152 -0.1068
  945MOL0     H27567   8.534  10.030   6.436  3.8737  4.2684 -0.6555
  945MOL0     H27568   8.362  10.042   6.396 -1.1261 -1.0535  1.5373
  945MOL0     H27569   8.396  10.051   6.638 -0.9366 -1.2607 -2.9791
  945MOL0     H27570   8.500  10.193   6.616  0.6923  1.2188 -1.0941
  945MOL0     H27571   8.110  10.344   6.634 -1.5373 -1.3429  0.9833
  945MOL0     H27572   8.419  10.478   5.962  1.8939 -0.4999  2.4789
  945MOL0     H27573   8.381  10.550   5.616 -0.1221 -1.6534  0.4627
  945MOL0     H27574   8.336  10.578   5.775  0.3346  2.3327  0.3791
  945MOL0     H27575   8.496  10.613   5.729 -1.0459  2.1075 -3.8485
  946MOL0     O27576   6.004   9.249   4.536 -0.7217 -0.6660 -0.3430
  946MOL0     C27577   5.892   9.257   4.513 -0.0422  0.0855  1.2684
  946MOL0     O27578   5.806   9.168   4.553  0.3339 -0.1503 -0.3562
  946MOL0     C27579   5.849   9.058   4.621 -0.9026  0.6898  0.4923
  946MOL0     C27580   5.873   9.060   4.760  0.7466 -0.3769  0.3226
  946MOL0     C27581   5.902   8.942   4.829  0.6228 -0.5229  1.0211
  946MOL0     C27582   5.910   8.819   4.751 -0.0531 -0.1645  0.4571
  946MOL0     O27583   5.943   8.701   4.806 -0.3399  0.2886 -0.3406
  946MOL0     C27584   5.834   8.609   4.843 -0.1581 -0.5879 -0.3689
  946MOL0     C27585   5.881   8.532   4.975  0.0646  0.3478  1.0289
  946MOL0     C27586   5.805   8.399   4.996  0.0839 -0.7410 -0.3064
  946MOL0     C27587   5.661   8.435   5.023 -1.3186 -0.0115  1.0447
  946MOL0     C27588   5.574   8.320   5.090 -0.2016  0.0920  0.3447
  946MOL0     C27589   5.541   8.225   4.973  0.0761  0.6601 -0.2773
  946MOL0     C27590   5.529   8.078   5.022 -0.7411 -0.3416  0.8056
  946MOL0     C27591   5.382   8.047   5.071 -0.4996  0.3141  0.0686
  946MOL0     N27592   5.334   8.108   5.197 -0.0440 -0.7238 -0.3620
  946MOL0     C27593   5.236   8.207   5.203 -0.3222  0.0364  0.2966
  946MOL0     C27594   5.205   8.200   5.328  1.0918  0.4829 -0.2774
  946MOL0     C27595   5.098   8.287   5.382 -0.0337 -0.4927  0.2767
  946MOL0     C27596   4.988   8.206   5.446 -0.3550  0.0240 -0.9089
  946MOL0     C27597   4.848   8.249   5.411 -0.0617  0.0162 -0.2734
  946MOL0     C27598   4.806   8.394   5.451 -0.4870  0.2579  0.0446
  946MOL0     O27599   4.674   8.425   5.403 -0.5301  0.9467 -0.6896
  946MOL0     C27600   4.622   8.553   5.439  0.5207 -0.1105 -0.2624
  946MOL0     C27601   4.669   8.636   5.542 -1.0245  0.1241  0.6178
  946MOL0     C27602   4.601   8.761   5.557 -0.8857 -1.1841 -0.6493
  946MOL0     C27603   4.498   8.805   5.465  0.5542  0.3112 -0.8683
  946MOL0     C27604   4.437   8.944   5.488  0.8366  1.1878  0.1031
  946MOL0     O27605   4.319   8.972   5.425  0.2644  0.3138 -0.2613
  946MOL0     C27606   4.239   9.083   5.444 -0.6124  0.3969  0.9434
  946MOL0     C27607   4.288   9.214   5.478 -0.4494  0.6200  0.6803
  946MOL0     C27608   4.195   9.321   5.491 -0.0729 -0.0264  0.0141
  946MOL0     C27609   4.058   9.306   5.476  0.2479  0.2602  0.2644
  946MOL0     O27610   3.974   9.413   5.481  1.4584  0.8435  0.1083
  946MOL0     C27611   4.006   9.526   5.551  0.3930  0.7570  0.1302
  946MOL0     C27612   3.881   9.618   5.549  0.3914 -0.3898  1.0118
  946MOL0     C27613   3.844   9.656   5.403 -0.0410 -0.0799 -0.6840
  946MOL0     C27614   3.727   9.760   5.408  0.0916  1.1911  0.4564
  946MOL0     C27615   3.656   9.760   5.271  0.3212 -0.4503  0.6374
  946MOL0     C27616   3.750   9.834   5.172 -0.1145 -0.2318 -0.3135
  946MOL0     C27617   3.677   9.843   5.041  0.6710  0.5299  0.2262
  946MOL0     C27618   3.750   9.949   4.954 -0.0012 -0.2159  0.4428
  946MOL0    Cl27619   3.908   9.899   4.896 -0.3634 -0.2837  0.1426
  946MOL0     C27620   4.011   9.177   5.455 -0.6221  0.3225 -0.4311
  946MOL0     C27621   4.096   9.060   5.445  0.1210  0.1623  0.0581
  946MOL0     O27622   4.486   9.006   5.588 -0.7963 -0.2447 -0.1292
  946MOL0     C27623   4.454   8.713   5.372  0.0350 -0.3123  0.0991
  946MOL0     C27624   4.514   8.587   5.354 -0.9805 -0.8760  0.8189
  946MOL0     N27625   5.291   8.134   5.411 -0.3746  0.1141 -0.6464
  946MOL0     N27626   5.374   8.080   5.326 -0.5455  0.4895  0.7120
  946MOL0     C27627   5.878   8.813   4.621 -1.0338  0.0079  0.1725
  946MOL0     C27628   5.862   8.928   4.551 -0.4370 -0.1227  0.8525
  946MOL0     C27629   5.843   9.367   4.434 -0.1661 -0.1318  0.7987
  946MOL0     C27630   5.707   9.355   4.398  0.4786 -0.8113 -0.5995
  946MOL0     C27631   5.647   9.454   4.324  0.4852  0.1405  0.1041
  946MOL0     C27632   5.726   9.556   4.273  0.4570  0.9156 -0.3408
  946MOL0     O27633   5.675   9.666   4.204 -0.0247  0.3937 -0.2575
  946MOL0     C27634   5.675   9.650   4.053 -0.9177  0.7398 -0.0253
  946MOL0     C27635   5.804   9.701   3.987  0.5055 -0.1754  0.0867
  946MOL0     C27636   5.829   9.845   4.037 -0.1854 -0.5878  0.0417
  946MOL0     C27637   5.949   9.899   3.953  0.6440  0.1380 -0.7024
  946MOL0     C27638   6.078   9.837   3.979 -0.3169 -0.1933  0.3004
  946MOL0     C27639   6.180   9.780   3.995 -0.4500  0.3312 -1.1070
  946MOL0     C27640   5.857   9.566   4.309  0.0526  0.0371  0.1412
  946MOL0     C27641   5.923   9.472   4.387 -0.1943 -0.1234 -0.5107
  946MOL0     C27642   6.066   9.488   4.411 -0.6358 -0.8302 -0.6471
  946MOL0     H27643   5.861   9.163   4.791  0.0518 -0.0095 -1.1049
  946MOL0     H27644   5.907   8.946   4.937  1.0352 -0.9568  1.0204
  946MOL0     H27645   5.745   8.667   4.870  0.0991 -0.0064 -0.7517
  946MOL0     H27646   5.816   8.553   4.752  2.0909  2.1609 -2.6970
  946MOL0     H27647   5.876   8.603   5.059 -2.2814  1.2520  0.2360
  946MOL0     H27648   5.987   8.509   4.962 -0.1275  0.4634 -1.0312
  946MOL0     H27649   5.842   8.362   5.092  0.1692 -0.0676 -0.0705
  946MOL0     H27650   5.813   8.322   4.919  0.3844 -1.5415  0.5083
  946MOL0     H27651   5.677   8.517   5.094 -0.0247 -0.6038  1.4812
  946MOL0     H27652   5.612   8.469   4.931  0.1936 -1.7766 -0.5253
  946MOL0     H27653   5.637   8.264   5.159  1.8366 -3.0247 -3.6300
  946MOL0     H27654   5.482   8.357   5.136 -0.9200  4.3020 -3.7818
  946MOL0     H27655   5.453   8.268   4.923  0.5317  2.3221  0.2892
  946MOL0     H27656   5.624   8.217   4.902 -0.3093 -1.4283 -0.5603
  946MOL0     H27657   5.608   8.036   5.085  0.2571 -1.4585 -1.0610
  946MOL0     H27658   5.530   8.019   4.929  3.2451  0.9805 -0.2187
  946MOL0     H27659   5.301   8.074   5.003  0.5351  2.5199 -0.3725
  946MOL0     H27660   5.372   7.945   5.110  0.7114  0.4427  0.7719
  946MOL0     H27661   5.201   8.261   5.116  0.4674 -4.6347 -3.3508
  946MOL0     H27662   5.135   8.358   5.456 -0.3550 -0.9381  0.8766
  946MOL0     H27663   5.065   8.349   5.298 -2.9013 -0.1649  1.5216
  946MOL0     H27664   5.005   8.100   5.422 -2.0444 -0.7207  0.8808
  946MOL0     H27665   5.017   8.206   5.551  0.0635 -3.3502 -0.9111
  946MOL0     H27666   4.775   8.183   5.459 -1.8094  0.7997 -1.7180
  946MOL0     H27667   4.840   8.239   5.302 -2.9387 -2.9437  0.0390
  946MOL0     H27668   4.868   8.475   5.412 -1.5323  1.4170  0.7249
  946MOL0     H27669   4.803   8.402   5.560  0.0763  1.4086 -0.0118
  946MOL0     H27670   4.747   8.607   5.611  1.1495 -1.6377 -2.3370
  946MOL0     H27671   4.642   8.831   5.629  1.1763 -1.1492 -1.7912
  946MOL0     H27672   4.394   9.235   5.485 -0.4101  1.1893 -1.0406
  946MOL0     H27673   4.245   9.410   5.527 -0.2274 -0.9528  2.7817
  946MOL0     H27674   4.038   9.495   5.651 -1.0329 -1.4767 -0.0340
  946MOL0     H27675   4.091   9.574   5.501 -2.9807  5.2728 -1.9955
  946MOL0     H27676   3.791   9.586   5.602 -0.7175  1.6854  0.4930
  946MOL0     H27677   3.902   9.710   5.604 -0.8876 -1.7234  3.8789
  946MOL0     H27678   3.929   9.689   5.342 -0.7816  0.4248 -1.4652
  946MOL0     H27679   3.810   9.564   5.355  0.9219 -0.9355  0.2135
  946MOL0     H27680   3.778   9.852   5.436  1.9936  0.7056 -1.1812
  946MOL0     H27681   3.660   9.729   5.489  0.5154  1.8665  1.0725
  946MOL0     H27682   3.563   9.816   5.276  2.0869  2.7496  0.4451
  946MOL0     H27683   3.629   9.660   5.234 -2.5589  0.7714 -0.8473
  946MOL0     H27684   3.775   9.934   5.208  2.6778 -1.4637  1.4581
  946MOL0     H27685   3.845   9.781   5.160  1.1122  2.1782 -1.9822
  946MOL0     H27686   3.572   9.867   5.062  0.9927  1.0039  1.3620
  946MOL0     H27687   3.682   9.744   4.996 -0.8093  1.0814 -1.2785
  946MOL0     H27688   3.688   9.980   4.869 -1.2594  1.0148  1.7457
  946MOL0     H27689   3.761  10.037   5.018  1.7917 -0.3202  0.3066
  946MOL0     H27690   3.905   9.157   5.461  0.2772 -6.0139  3.4991
  946MOL0     H27691   4.056   8.961   5.426  2.4449 -0.5042 -1.7661
  946MOL0     H27692   4.383   8.758   5.303  1.2903  0.7260 -0.5548
  946MOL0     H27693   4.481   8.515   5.280  2.3792 -2.3449  0.5457
  946MOL0     H27694   5.881   8.716   4.572  1.7926  1.0744 -2.0067
  946MOL0     H27695   5.844   8.916   4.445  0.2290 -0.8560  0.8169
  946MOL0     H27696   5.636   9.287   4.443  0.3858  1.4873  3.2482
  946MOL0     H27697   5.539   9.449   4.326  0.3836 -0.9283  5.2024
  946MOL0     H27698   5.586   9.707   4.024 -3.1414 -2.6157 -0.3533
  946MOL0     H27699   5.650   9.547   4.026  0.3530 -0.7164  3.7286
  946MOL0     H27700   5.788   9.700   3.879 -2.6813 -1.1975  0.4717
  946MOL0     H27701   5.887   9.633   4.008 -0.4616 -1.0102  1.3646
  946MOL0     H27702   5.851   9.840   4.144  2.6253 -2.4815 -0.5309
  946MOL0     H27703   5.739   9.905   4.021  0.3657 -0.0541 -1.1630
  946MOL0     H27704   5.935   9.889   3.845  3.1118  3.9366 -1.5675
  946MOL0     H27705   5.951  10.008   3.961  0.4518  0.0627  0.5736
  946MOL0     H27706   6.266   9.722   4.023 -0.3017  0.7517 -0.6832
  946MOL0     H27707   5.917   9.651   4.278  1.7317 -0.4980  1.7106
  946MOL0     H27708   6.106   9.581   4.369  1.7726 -1.8726 -0.7944
  946MOL0     H27709   6.081   9.489   4.520  0.0205 -1.4361 -0.7290
  946MOL0     H27710   6.122   9.399   4.383 -2.2689 -2.0361 -0.2110
  947MOL0     O27711   9.150   8.750   1.868  0.1560  0.3336 -0.2004
  947MOL0     C27712   9.066   8.663   1.914 -0.3547  0.3361  0.5486
  947MOL0     O27713   8.953   8.612   1.851  0.5006  0.9419 -0.0101
  947MOL0     C27714   8.936   8.639   1.718  0.5401 -0.5582  0.9252
  947MOL0     C27715   8.973   8.559   1.613 -0.1059  0.1793  0.2421
  947MOL0     C27716   8.958   8.598   1.478  0.1251  0.5565  0.5321
  947MOL0     C27717   8.894   8.714   1.445  0.3730  0.7701 -0.1417
  947MOL0     O27718   8.865   8.731   1.308  0.0036  0.0381 -0.4398
  947MOL0     C27719   8.774   8.847   1.275 -0.4956  0.4941 -0.3973
  947MOL0     C27720   8.864   8.967   1.233  0.6647  0.4236 -1.0934
  947MOL0     C27721   8.956   8.926   1.127  0.7947  0.4636  0.1757
  947MOL0     C27722   8.869   8.889   0.991 -0.7650 -0.9572 -0.0395
  947MOL0     C27723   8.950   8.810   0.891  0.3252  0.3180 -0.3486
  947MOL0     C27724   9.059   8.886   0.812 -0.3157 -0.4033 -0.1663
  947MOL0     C27725   9.140   8.802   0.712  0.5827  1.0995  0.5559
  947MOL0     C27726   9.089   8.658   0.693 -0.0613 -0.1741 -0.4597
  947MOL0     N27727   9.148   8.591   0.572 -0.3596 -0.1670  0.4563
  947MOL0     C27728   9.282   8.580   0.531 -0.1738  0.4620  0.1413
  947MOL0     C27729   9.281   8.524   0.405  0.7351  0.4867  1.0168
  947MOL0     C27730   9.400   8.489   0.320 -0.1808 -0.2278  0.8966
  947MOL0     C27731   9.372   8.525   0.180 -0.1553 -0.6503  0.7233
  947MOL0     C27732   9.495   8.493   0.081  1.2327 -0.2683 -2.3922
  947MOL0     C27733   9.539   8.614  -0.004 -0.0320  0.5988 -0.9532
  947MOL0     O27734   9.649   8.692   0.060  0.4288  0.1620  0.2974
  947MOL0     C27735   9.630   8.717   0.192  0.0238  1.1847 -0.3499
  947MOL0     C27736   9.538   8.816   0.228  0.3698  0.7588 -0.5179
  947MOL0     C27737   9.512   8.844   0.362  0.1011  0.4328 -0.4519
  947MOL0     C27738   9.591   8.772   0.455 -0.0735 -0.4905  0.0232
  947MOL0     C27739   9.583   8.815   0.594  0.5343  0.3018  0.3749
  947MOL0     O27740   9.692   8.808   0.670 -0.4883  0.0681  0.2121
  947MOL0     C27741   9.703   8.880   0.786  0.3350 -0.7532  0.4056
  947MOL0     C27742   9.766   8.825   0.897 -0.0940 -0.3239  0.0266
  947MOL0     C27743   9.785   8.906   1.009  0.3933  0.2302 -0.3522
  947MOL0     C27744   9.756   9.044   1.010 -0.1410 -0.7297 -0.3419
  947MOL0     O27745   9.780   9.118   1.119 -0.0810  0.2100 -0.3848
  947MOL0     C27746   9.853   9.066   1.236 -0.8393  0.3222 -0.4940
  947MOL0     C27747   9.890   9.175   1.336 -0.1230 -1.4423  0.4501
  947MOL0     C27748   9.954   9.134   1.467  0.9994  0.0771  0.5034
  947MOL0     C27749   9.861   9.146   1.584  0.0956 -0.3916  0.2108
  947MOL0     C27750   9.932   9.093   1.702 -0.1701 -0.0514  0.0028
  947MOL0     C27751  10.049   9.172   1.755 -0.4457 -1.1845  0.0781
  947MOL0     C27752  10.099   9.128   1.898  0.7390  0.6512 -0.5844
  947MOL0     C27753  10.190   9.006   1.879  0.1857  0.0657  0.1856
  947MOL0    Cl27754  10.184   8.916   2.029  0.3051 -0.0812  0.0260
  947MOL0     C27755   9.693   9.096   0.895 -0.2491 -0.0956 -0.1285
  947MOL0     C27756   9.662   9.014   0.785 -0.8466 -0.2295  0.0430
  947MOL0     O27757   9.476   8.868   0.623 -0.0220  0.0402 -0.2105
  947MOL0     C27758   9.692   8.681   0.418 -0.4264 -1.1419  0.9562
  947MOL0     C27759   9.712   8.648   0.286  0.3204  0.2986  0.6333
  947MOL0     N27760   9.147   8.485   0.378  0.6768 -0.6636  0.3366
  947MOL0     N27761   9.068   8.527   0.480 -0.2227  0.2635  0.6312
  947MOL0     C27762   8.849   8.797   1.546 -0.3111 -0.3276  0.3484
  947MOL0     C27763   8.874   8.754   1.680 -0.1799 -0.4522 -0.5002
  947MOL0     C27764   9.069   8.632   2.055 -0.9287  0.0334  0.4285
  947MOL0     C27765   8.948   8.598   2.114 -0.3999  0.5567  0.2216
  947MOL0     C27766   8.947   8.548   2.247 -0.8516  0.6478  0.4178
  947MOL0     C27767   9.062   8.517   2.322  0.0967 -0.1290  1.0225
  947MOL0     O27768   9.074   8.460   2.438 -0.3357  0.2434  0.4742
  947MOL0     C27769   8.956   8.425   2.516  0.6883  0.1618 -0.0514
  947MOL0     C27770   8.979   8.288   2.569  0.8599  0.3674 -0.0483
  947MOL0     C27771   8.965   8.168   2.473 -0.6316  0.5812 -0.1265
  947MOL0     C27772   8.817   8.127   2.438 -0.1301  0.0095  0.3870
  947MOL0     C27773   8.774   8.058   2.556 -0.9163 -0.3647  0.5124
  947MOL0     C27774   8.737   7.990   2.641 -0.5383  0.5534 -0.3118
  947MOL0     C27775   9.180   8.534   2.249 -0.8499  0.2260  0.7159
  947MOL0     C27776   9.188   8.590   2.118  0.0073  1.0076  0.5436
  947MOL0     C27777   9.322   8.585   2.048  0.4505 -0.5930 -0.7893
  947MOL0     H27778   9.008   8.459   1.636  0.2679  0.4632  0.9419
  947MOL0     H27779   8.998   8.537   1.397 -0.1694  0.1014  0.7255
  947MOL0     H27780   8.706   8.806   1.199 -1.1374 -1.8447  1.3249
  947MOL0     H27781   8.704   8.877   1.354 -0.0307 -4.3275  2.1968
  947MOL0     H27782   8.924   9.003   1.317  0.8683 -1.1026 -0.5507
  947MOL0     H27783   8.801   9.048   1.197 -2.7065 -1.6209 -0.2061
  947MOL0     H27784   9.018   8.844   1.166  2.0790  1.7872  1.0047
  947MOL0     H27785   9.026   9.008   1.108 -1.3749  2.3112 -0.1985
  947MOL0     H27786   8.780   8.834   1.021 -0.9843 -0.6362 -0.0998
  947MOL0     H27787   8.837   8.981   0.941 -0.7678 -2.1205 -2.3209
  947MOL0     H27788   8.992   8.735   0.959 -1.9256  1.7535  2.9323
  947MOL0     H27789   8.879   8.773   0.816  1.1274  2.2220 -2.1235
  947MOL0     H27790   9.006   8.971   0.766  3.0462  0.0491 -3.7918
  947MOL0     H27791   9.128   8.933   0.883 -1.3503  1.5028 -0.3314
  947MOL0     H27792   9.246   8.799   0.742  0.6900 -3.0228  0.3601
  947MOL0     H27793   9.146   8.860   0.620 -0.6741  0.4934  0.0738
  947MOL0     H27794   9.113   8.590   0.775  1.7453  2.3548  1.2378
  947MOL0     H27795   8.981   8.651   0.681 -0.4970  0.2648  2.5580
  947MOL0     H27796   9.372   8.609   0.583 -0.0356  0.5975 -0.1691
  947MOL0     H27797   9.484   8.554   0.347  1.5629 -1.4114 -1.3623
  947MOL0     H27798   9.439   8.389   0.337  2.4594  0.3506 -1.1127
  947MOL0     H27799   9.295   8.464   0.131  2.9512 -2.9969 -1.6827
  947MOL0     H27800   9.334   8.626   0.165  1.6925 -0.2856 -2.4134
  947MOL0     H27801   9.488   8.397   0.027 -1.2873 -2.0460  0.7418
  947MOL0     H27802   9.572   8.458   0.151 -1.1731  0.3736  0.7800
  947MOL0     H27803   9.462   8.693  -0.002  1.7868  2.4335  0.7587
  947MOL0     H27804   9.556   8.590  -0.109 -0.1494  0.4302 -0.9348
  947MOL0     H27805   9.498   8.873   0.145 -0.9501 -0.5058 -0.7861
  947MOL0     H27806   9.431   8.911   0.388  0.8703  0.8820  0.8158
  947MOL0     H27807   9.796   8.722   0.912 -0.1538 -0.8579 -2.8097
  947MOL0     H27808   9.833   8.853   1.091  0.8388 -0.3907 -0.9935
  947MOL0     H27809   9.789   8.997   1.292 -2.3491  1.9752 -0.1028
  947MOL0     H27810   9.948   9.024   1.201 -0.5036  1.9852 -1.6713
  947MOL0     H27811   9.964   9.240   1.288 -1.1329  1.4845  2.5493
  947MOL0     H27812   9.803   9.241   1.346  1.3367  1.3336 -2.8363
  947MOL0     H27813   9.980   9.029   1.450  1.4905  0.1336  0.9034
  947MOL0     H27814  10.043   9.193   1.489  1.1891 -0.3627  0.9474
  947MOL0     H27815   9.776   9.080   1.564 -0.9106  1.1366 -0.7532
  947MOL0     H27816   9.826   9.250   1.590  0.8646 -0.1234  0.1509
  947MOL0     H27817   9.958   8.988   1.688 -2.7656 -0.6654 -0.6325
  947MOL0     H27818   9.859   9.102   1.782  0.5887 -0.1855  0.7263
  947MOL0     H27819  10.130   9.154   1.684  0.0122  0.7992  0.0525
  947MOL0     H27820  10.034   9.280   1.759  1.1455 -0.9800  1.7997
  947MOL0     H27821  10.010   9.111   1.959  0.9880  0.0821 -0.3788
  947MOL0     H27822  10.166   9.205   1.939 -1.7845  1.8731  1.5506
  947MOL0     H27823  10.159   8.943   1.795 -1.3829  0.1668  0.6576
  947MOL0     H27824  10.291   9.042   1.858  0.3670 -0.1609  0.6685
  947MOL0     H27825   9.664   9.201   0.898  4.1740  1.3391 -0.5345
  947MOL0     H27826   9.619   9.065   0.699  2.7038 -0.4745 -2.0770
  947MOL0     H27827   9.744   8.642   0.504  0.9806  1.5110  1.4044
  947MOL0     H27828   9.783   8.569   0.264 -1.6949 -1.4455  0.1247
  947MOL0     H27829   8.798   8.891   1.526 -1.5349 -1.2113 -0.9933
  947MOL0     H27830   8.851   8.822   1.761  0.9137  0.9451 -1.2975
  947MOL0     H27831   8.857   8.622   2.060 -1.3016 -0.4788  1.2249
  947MOL0     H27832   8.846   8.527   2.280 -2.4078  1.1101 -3.4741
  947MOL0     H27833   8.868   8.436   2.451  0.5084  0.5001  0.2473
  947MOL0     H27834   8.942   8.501   2.593 -1.0311  2.0870 -2.1116
  947MOL0     H27835   8.905   8.273   2.648 -0.9120  0.4228 -1.6394
  947MOL0     H27836   9.082   8.291   2.606  0.9363  0.6492 -0.2797
  947MOL0     H27837   9.009   8.075   2.509 -1.4627 -0.6750 -2.1736
  947MOL0     H27838   9.009   8.188   2.374  1.5840 -2.7771  0.0251
  947MOL0     H27839   8.754   8.213   2.414 -1.9172 -1.6092 -0.9315
  947MOL0     H27840   8.808   8.055   2.356  0.1661 -0.4393  0.7404
  947MOL0     H27841   8.701   7.927   2.720 -0.4663 -1.3285 -1.7046
  947MOL0     H27842   9.270   8.510   2.303 -0.3954  0.8481  0.2451
  947MOL0     H27843   9.362   8.686   2.035 -0.9898 -0.0441 -1.2118
  947MOL0     H27844   9.390   8.538   2.119 -0.9062  1.2513  1.9200
  947MOL0     H27845   9.316   8.523   1.958  0.8465 -1.5716 -0.1476
  948MOL0     O27846   8.951   1.853   4.847 -0.2947  0.2914 -0.1092
  948MOL0     C27847   9.038   1.878   4.926 -0.6931 -0.8575  0.3017
  948MOL0     O27848   9.063   1.813   5.042 -0.7618 -0.1203 -0.3342
  948MOL0     C27849   8.971   1.727   5.097  0.0219 -0.0031 -0.2219
  948MOL0     C27850   8.869   1.770   5.186 -0.5575  0.6000  0.6256
  948MOL0     C27851   8.781   1.680   5.246 -0.1478 -0.7336  0.0958
  948MOL0     C27852   8.778   1.547   5.214 -0.0066 -0.9601 -0.5669
  948MOL0     O27853   8.682   1.466   5.273 -1.0957 -0.3797  0.1081
  948MOL0     C27854   8.670   1.329   5.218  0.7730  0.3579  0.2267
  948MOL0     C27855   8.570   1.252   5.301  0.0498 -0.1408 -0.3934
  948MOL0     C27856   8.433   1.311   5.270  0.5710 -0.2233 -0.1556
  948MOL0     C27857   8.379   1.366   5.403 -0.1469 -0.6023 -0.7680
  948MOL0     C27858   8.236   1.433   5.392  0.7167 -0.2450 -0.0656
  948MOL0     C27859   8.128   1.342   5.339  0.2318  0.4447  0.7769
  948MOL0     C27860   8.092   1.226   5.430  0.1812  0.3665 -0.7431
  948MOL0     C27861   7.969   1.150   5.365 -0.0676  0.7902 -1.2781
  948MOL0     N27862   7.934   1.039   5.462 -0.5096  0.2904  0.2160
  948MOL0     C27863   7.823   1.032   5.539 -0.2400  0.0027  0.6647
  948MOL0     C27864   7.800   0.906   5.582  0.0364  0.4285 -0.1950
  948MOL0     C27865   7.705   0.857   5.673 -0.4327 -0.1349  0.3537
  948MOL0     C27866   7.768   0.831   5.804 -0.3998  0.4556  0.0217
  948MOL0     C27867   7.789   0.965   5.882 -0.9890  0.4831  0.9736
  948MOL0     C27868   7.853   0.950   6.014  0.6067  0.8340  0.7029
  948MOL0     O27869   7.979   0.887   6.004  0.0269 -0.1757  0.1110
  948MOL0     C27870   8.075   0.881   6.094 -0.7167  0.3161 -0.4747
  948MOL0     C27871   8.063   0.954   6.214 -0.3185 -1.5923  0.6700
  948MOL0     C27872   8.177   0.967   6.298 -0.2074 -0.4365  0.7969
  948MOL0     C27873   8.301   0.905   6.256  0.5930  0.5540 -0.1980
  948MOL0     C27874   8.423   0.913   6.340 -1.3959  0.2073  0.4870
  948MOL0     O27875   8.413   0.962   6.469  0.2889 -0.0931  0.4136
  948MOL0     C27876   8.532   0.971   6.537 -0.0858  1.0652  0.6874
  948MOL0     C27877   8.629   1.064   6.499  0.4007 -0.1736  0.2818
  948MOL0     C27878   8.755   1.060   6.555 -0.1324  0.1797 -0.0028
  948MOL0     C27879   8.792   0.950   6.644  0.0995  0.4469  1.1637
  948MOL0     O27880   8.923   0.944   6.689 -0.4247 -0.7177 -0.0521
  948MOL0     C27881   8.960   0.838   6.769 -0.3858  0.5632 -0.0077
  948MOL0     C27882   9.105   0.845   6.803  0.5619 -0.3540  0.1249
  948MOL0     C27883   9.190   0.777   6.686 -0.1198 -0.4818 -0.0905
  948MOL0     C27884   9.201   0.627   6.708  0.8988  0.4938 -0.1838
  948MOL0     C27885   9.240   0.562   6.570  0.6525 -0.7249 -0.0185
  948MOL0     C27886   9.181   0.420   6.581 -0.1220  0.5602 -0.4423
  948MOL0     C27887   9.222   0.323   6.468  0.0618  0.0521  0.7727
  948MOL0     C27888   9.200   0.388   6.329  0.0979  0.7509  0.0997
  948MOL0    Cl27889   9.187   0.254   6.213 -0.4706  0.0501 -0.1007
  948MOL0     C27890   8.695   0.861   6.679  0.5418 -0.5582 -0.4187
  948MOL0     C27891   8.559   0.875   6.638  0.4844  0.6937 -1.0154
  948MOL0     O27892   8.530   0.888   6.284 -0.3053  0.2670 -0.1270
  948MOL0     C27893   8.307   0.829   6.137 -0.1998  0.6961  0.0785
  948MOL0     C27894   8.197   0.825   6.053  0.3821 -0.7898 -0.3255
  948MOL0     N27895   7.911   0.836   5.523  0.6436  0.2425 -0.3264
  948MOL0     N27896   7.985   0.917   5.452  0.5164  0.9543 -0.0236
  948MOL0     C27897   8.880   1.500   5.133  0.4086 -0.1203  0.6776
  948MOL0     C27898   8.983   1.590   5.078 -0.6531 -0.4133  0.7196
  948MOL0     C27899   9.148   1.968   4.881  0.1277  0.2841 -0.1627
  948MOL0     C27900   9.288   1.945   4.908 -0.2215 -0.0632  1.3063
  948MOL0     C27901   9.381   2.048   4.871  0.2659 -0.8779 -0.6691
  948MOL0     C27902   9.340   2.165   4.807 -0.4335 -0.7612 -0.6948
  948MOL0     O27903   9.441   2.253   4.755 -0.2478 -0.3178  0.0338
  948MOL0     C27904   9.424   2.399   4.755 -0.0296 -0.5852 -0.4949
  948MOL0     C27905   9.463   2.469   4.891 -0.6316  0.4993 -0.0730
  948MOL0     C27906   9.618   2.484   4.908  0.2495  0.3979 -0.1603
  948MOL0     C27907   9.654   2.557   5.039  0.5427 -0.2686  0.3213
  948MOL0     C27908   9.606   2.695   5.035  0.6897  0.1525  0.2110
  948MOL0     C27909   9.573   2.813   5.020  0.0598  0.5924 -0.2562
  948MOL0     C27910   9.206   2.186   4.785 -0.3971  0.4994  0.1317
  948MOL0     C27911   9.112   2.092   4.816 -0.9607  0.0544 -0.4578
  948MOL0     C27912   8.978   2.139   4.783  0.2615  0.1444  0.0911
  948MOL0     H27913   8.849   1.874   5.207  0.7473  0.9339  0.3090
  948MOL0     H27914   8.722   1.725   5.326 -0.2123  1.1158 -0.9308
  948MOL0     H27915   8.639   1.324   5.114  1.6823 -1.6957  0.0113
  948MOL0     H27916   8.767   1.279   5.220  0.6827  0.1767  0.1061
  948MOL0     H27917   8.598   1.263   5.407 -3.9712 -1.5485  0.9992
  948MOL0     H27918   8.572   1.148   5.267 -1.5986  0.0533 -1.1644
  948MOL0     H27919   8.367   1.235   5.227  0.7736  0.0309 -0.9344
  948MOL0     H27920   8.444   1.396   5.201 -2.2763 -1.9313 -3.0029
  948MOL0     H27921   8.376   1.284   5.475  2.4344 -1.6497 -1.7544
  948MOL0     H27922   8.447   1.443   5.438  0.5138  0.5681 -4.2707
  948MOL0     H27923   8.199   1.455   5.492  1.5296  1.4292 -0.0915
  948MOL0     H27924   8.248   1.527   5.338  1.7711  1.0572  2.2923
  948MOL0     H27925   8.042   1.400   5.306 -1.6993 -2.7991 -0.4134
  948MOL0     H27926   8.161   1.301   5.243 -1.1422  4.0571 -1.4378
  948MOL0     H27927   8.074   1.249   5.535 -0.9579  0.0263 -0.8548
  948MOL0     H27928   8.173   1.154   5.416  1.8518  2.1542 -0.8030
  948MOL0     H27929   7.878   1.210   5.355 -1.2625 -0.8213 -0.5333
  948MOL0     H27930   8.005   1.104   5.272 -2.6528 -2.7707 -0.7035
  948MOL0     H27931   7.773   1.118   5.583  0.1982 -0.1106  1.4005
  948MOL0     H27932   7.616   0.920   5.689 -3.1900 -3.8319  0.7901
  948MOL0     H27933   7.659   0.768   5.630 -0.6381  0.1202  0.0295
  948MOL0     H27934   7.702   0.763   5.857  1.0172 -0.0083  1.2875
  948MOL0     H27935   7.865   0.783   5.785 -0.9934 -0.8054  0.0973
  948MOL0     H27936   7.695   1.018   5.902 -0.9064  0.9196  0.2316
  948MOL0     H27937   7.845   1.033   5.817  1.2746 -1.4031  0.8221
  948MOL0     H27938   7.787   0.885   6.072  0.0808  1.6026  0.9869
  948MOL0     H27939   7.863   1.049   6.060  0.5557  0.0023  2.6027
  948MOL0     H27940   7.972   1.001   6.250  1.0652  0.9334  1.1354
  948MOL0     H27941   8.177   1.015   6.396 -1.0336 -0.1560  0.6654
  948MOL0     H27942   8.598   1.132   6.420  0.2668  1.4072  1.6522
  948MOL0     H27943   8.833   1.123   6.513 -0.3370  2.0391  2.1587
  948MOL0     H27944   8.900   0.845   6.859 -0.1132  2.8398  0.0548
  948MOL0     H27945   8.942   0.743   6.718  3.9983  1.1361 -3.2759
  948MOL0     H27946   9.135   0.945   6.833  6.1781 -1.7928  0.4970
  948MOL0     H27947   9.141   0.799   6.895  1.2111 -0.1337 -0.0121
  948MOL0     H27948   9.149   0.796   6.587  1.1852 -1.1379 -0.7837
  948MOL0     H27949   9.292   0.814   6.695  0.7779 -3.1786  2.3776
  948MOL0     H27950   9.106   0.586   6.743  1.7076 -1.0403  0.3177
  948MOL0     H27951   9.273   0.610   6.789 -0.3159 -0.4081  0.7628
  948MOL0     H27952   9.350   0.560   6.567  0.6695 -1.4494  0.7335
  948MOL0     H27953   9.202   0.613   6.481  1.9129 -0.3551 -0.3776
  948MOL0     H27954   9.211   0.377   6.677 -3.4442 -1.5435 -0.1940
  948MOL0     H27955   9.073   0.430   6.592 -0.3387 -0.6509 -1.2832
  948MOL0     H27956   9.158   0.235   6.482 -2.3801  1.7178  0.6663
  948MOL0     H27957   9.326   0.293   6.479  1.1129  1.7632 -2.9046
  948MOL0     H27958   9.112   0.452   6.332  0.0677  0.6716  1.0090
  948MOL0     H27959   9.282   0.456   6.302 -1.6876  1.6060 -3.8985
  948MOL0     H27960   8.708   0.795   6.764 -0.5819 -0.3600 -0.0712
  948MOL0     H27961   8.483   0.803   6.666 -0.2613  0.5504 -3.1697
  948MOL0     H27962   8.400   0.783   6.104 -0.8328 -2.3485  2.1315
  948MOL0     H27963   8.196   0.784   5.952 -0.6338  0.8857 -1.0450
  948MOL0     H27964   8.898   1.393   5.130 -0.0645 -0.4342  4.2423
  948MOL0     H27965   9.077   1.567   5.028 -2.0024 -0.9859 -1.7063
  948MOL0     H27966   9.321   1.854   4.957  0.7506 -0.4721 -0.0479
  948MOL0     H27967   9.486   2.030   4.895  0.2105 -1.6587 -0.9778
  948MOL0     H27968   9.321   2.421   4.726  0.2362  0.4713 -0.7095
  948MOL0     H27969   9.489   2.451   4.683 -1.0794  3.2582  1.0764
  948MOL0     H27970   9.431   2.420   4.983 -0.3721 -2.3043 -1.3999
  948MOL0     H27971   9.420   2.570   4.888  0.6754  1.0540 -1.7948
  948MOL0     H27972   9.672   2.532   4.825 -2.0621  3.0908 -0.2651
  948MOL0     H27973   9.648   2.379   4.915 -2.1182 -0.4228 -1.3788
  948MOL0     H27974   9.602   2.523   5.129 -2.7481  3.7157  0.2615
  948MOL0     H27975   9.762   2.558   5.057  1.2547  3.2828 -2.8556
  948MOL0     H27976   9.555   2.918   5.012 -0.5003  0.6327  1.2318
  948MOL0     H27977   9.182   2.271   4.722 -1.3855 -1.5541 -2.4367
  948MOL0     H27978   8.892   2.110   4.843  0.0064 -1.9206 -1.1977
  948MOL0     H27979   8.981   2.248   4.798  2.7707  0.0557  0.6817
  948MOL0     H27980   8.964   2.118   4.677  1.3000 -1.8193  0.3053
  949MOL0     O27981   2.313   0.222  10.091 -0.3168  0.2788 -0.3134
  949MOL0     C27982   2.280   0.103  10.112 -0.5136 -0.0654  1.1926
  949MOL0     O27983   2.164   0.062  10.171 -0.2777 -0.8745 -0.2077
  949MOL0     C27984   2.069   0.160  10.174  0.3877 -0.8607  0.5569
  949MOL0     C27985   2.008   0.175  10.044  0.0557 -0.7907 -0.2336
  949MOL0     C27986   1.892   0.256  10.024  0.4903 -0.4846  0.8565
  949MOL0     C27987   1.845   0.336  10.129  0.5628  0.0462  0.7100
  949MOL0     O27988   1.730   0.417  10.122 -0.5905  0.0010  0.0472
  949MOL0     C27989   1.741   0.521  10.017 -0.1524 -0.0461 -0.0266
  949MOL0     C27990   1.639   0.632  10.025  0.9040 -0.3679 -0.3204
  949MOL0     C27991   1.629   0.741   9.918 -0.2810 -0.4020  1.1192
  949MOL0     C27992   1.532   0.701   9.807 -0.3745 -0.7250 -0.3594
  949MOL0     C27993   1.486   0.811   9.718 -0.4672 -1.0629  0.1752
  949MOL0     C27994   1.598   0.862   9.624 -0.0259  0.2884 -0.3570
  949MOL0     C27995   1.592   0.783   9.490  0.5472 -0.2895  0.9462
  949MOL0     C27996   1.460   0.783   9.414 -0.6398 -0.0308  1.2893
  949MOL0     N27997   1.455   0.745   9.274 -1.2646  0.4660 -0.1798
  949MOL0     C27998   1.560   0.727   9.187  0.1986  1.0910  0.0899
  949MOL0     C27999   1.507   0.696   9.063 -0.2290 -0.9117 -0.3035
  949MOL0     C28000   1.593   0.671   8.946  0.5909  0.3656  0.2465
  949MOL0     C28001   1.576   0.527   8.890 -0.0046  1.0806 -0.4600
  949MOL0     C28002   1.624   0.515   8.734  0.0736 -0.0843 -0.2708
  949MOL0     C28003   1.663   0.373   8.709 -1.3492 -0.2446  0.1473
  949MOL0     O28004   1.552   0.282   8.712  0.1389  0.0023 -0.0018
  949MOL0     C28005   1.475   0.264   8.598 -1.0715  0.0751 -0.1993
  949MOL0     C28006   1.335   0.246   8.603 -0.3453  0.1609  0.5307
  949MOL0     C28007   1.251   0.239   8.496  1.1331 -0.6053 -0.3080
  949MOL0     C28008   1.314   0.240   8.362  0.2060 -0.2818  0.0378
  949MOL0     C28009   1.234   0.242   8.242  0.3595 -0.3357  0.7431
  949MOL0     O28010   1.300   0.267   8.123  0.2759  0.5344  0.7616
  949MOL0     C28011   1.240   0.261   7.999 -0.3931 -0.4064 -0.2921
  949MOL0     C28012   1.331   0.246   7.897  0.4284  0.1898 -0.4720
  949MOL0     C28013   1.285   0.229   7.764 -0.7286  0.2172  0.0772
  949MOL0     C28014   1.145   0.240   7.734 -0.2042 -0.1247  1.2541
  949MOL0     O28015   1.092   0.218   7.607 -0.0380 -0.4025 -0.0416
  949MOL0     C28016   1.180   0.148   7.510  0.5191 -0.0062 -0.4331
  949MOL0     C28017   1.106   0.126   7.381 -0.7848  0.6053  0.7775
  949MOL0     C28018   1.177   0.026   7.295  0.2822 -1.0321 -0.3241
  949MOL0     C28019   1.149   0.023   7.145 -0.2795  0.6958 -0.2443
  949MOL0     C28020   1.260  -0.065   7.083 -0.4199  0.1342 -1.0277
  949MOL0     C28021   1.264  -0.061   6.926  0.1510 -0.9571 -0.2290
  949MOL0     C28022   1.381  -0.151   6.878 -0.1154 -0.2889 -0.3339
  949MOL0     C28023   1.422  -0.139   6.733  0.3563 -0.2450 -0.0075
  949MOL0    Cl28024   1.476   0.017   6.676 -0.1734 -0.0898 -0.3800
  949MOL0     C28025   1.061   0.279   7.837 -0.4891  0.1935  0.5028
  949MOL0     C28026   1.111   0.284   7.965 -0.1043 -0.3629  0.1982
  949MOL0     O28027   1.115   0.194   8.248  0.1613 -0.8438 -0.3135
  949MOL0     C28028   1.451   0.241   8.357 -0.6713 -0.3004 -0.4994
  949MOL0     C28029   1.531   0.251   8.468  0.5416 -0.5747 -0.0834
  949MOL0     N28030   1.369   0.694   9.082  0.1926 -0.2946  0.0126
  949MOL0     N28031   1.337   0.733   9.204 -0.0486  0.8097  1.0221
  949MOL0     C28032   1.902   0.315  10.250  0.5401  0.7619  0.1925
  949MOL0     C28033   2.015   0.236  10.273  0.0975 -0.3438  0.3388
  949MOL0     C28034   2.368  -0.004  10.093 -0.4534 -0.2874  0.7408
  949MOL0     C28035   2.506   0.035  10.108  0.0702 -1.0385 -0.1298
  949MOL0     C28036   2.607  -0.056  10.092 -0.0052  0.1273 -0.2063
  949MOL0     C28037   2.581  -0.186  10.073 -1.2269  0.6350  0.0409
  949MOL0     O28038   2.699  -0.263  10.068 -0.0563  0.2508 -0.3671
  949MOL0     C28039   2.689  -0.388  10.012 -0.4321 -0.5429  0.1895
  949MOL0     C28040   2.706  -0.490  10.116  0.1154  0.2652  0.2068
  949MOL0     C28041   2.726  -0.622  10.048 -0.5598  0.2327 -0.6883
  949MOL0     C28042   2.766  -0.738  10.141  0.1871  0.0495 -0.3133
  949MOL0     C28043   2.889  -0.710  10.216  0.8917 -0.3829  0.1723
  949MOL0     C28044   2.985  -0.678  10.289  0.4461 -0.0131 -0.0141
  949MOL0     C28045   2.450  -0.226  10.065  0.1574  0.0680 -0.1675
  949MOL0     C28046   2.344  -0.139  10.080 -0.0546 -0.5889  0.1262
  949MOL0     C28047   2.210  -0.195  10.063  0.1450 -0.4618 -0.0689
  949MOL0     H28048   2.041   0.119   9.956 -1.0121 -0.8261 -0.6254
  949MOL0     H28049   1.830   0.257   9.935 -1.8826  1.9931  2.3684
  949MOL0     H28050   1.834   0.576  10.033 -0.4860  0.1762  1.2774
  949MOL0     H28051   1.738   0.481   9.915  2.0433  1.4633 -0.7585
  949MOL0     H28052   1.665   0.686  10.117  0.2732 -1.3731  0.4658
  949MOL0     H28053   1.539   0.591  10.042  0.8503  0.7756  2.7158
  949MOL0     H28054   1.725   0.762   9.871 -1.0149  1.2965  0.2866
  949MOL0     H28055   1.587   0.836   9.952 -2.9850 -1.1234  0.0422
  949MOL0     H28056   1.581   0.615   9.760  0.3302 -0.4769 -0.1038
  949MOL0     H28057   1.437   0.664   9.847 -1.2479  0.3400 -1.3648
  949MOL0     H28058   1.392   0.774   9.676 -0.9369 -2.1693  2.0770
  949MOL0     H28059   1.450   0.893   9.781  0.9573 -0.8308  0.7220
  949MOL0     H28060   1.588   0.970   9.609  2.7545  1.2685  3.4254
  949MOL0     H28061   1.698   0.841   9.664 -0.8327 -5.0807 -0.3317
  949MOL0     H28062   1.616   0.676   9.497 -0.4351 -0.8215 -2.0906
  949MOL0     H28063   1.666   0.830   9.425 -2.4344 -0.3179 -2.8317
  949MOL0     H28064   1.397   0.715   9.473  1.2604 -1.9498  1.2506
  949MOL0     H28065   1.419   0.884   9.410 -0.2430  0.0927 -1.6851
  949MOL0     H28066   1.665   0.749   9.201  0.5047 -0.9533  1.4407
  949MOL0     H28067   1.559   0.739   8.867  0.0856 -2.3356 -2.0553
  949MOL0     H28068   1.698   0.695   8.964  0.1082  1.7129  1.4513
  949MOL0     H28069   1.637   0.463   8.953  0.8065  2.0618 -0.2263
  949MOL0     H28070   1.471   0.496   8.892  0.5416 -0.7971  0.8176
  949MOL0     H28071   1.714   0.578   8.730  2.5654 -3.4510 -1.9547
  949MOL0     H28072   1.545   0.536   8.662  0.0816 -1.8414 -0.8241
  949MOL0     H28073   1.734   0.359   8.791 -0.2209  3.4169 -0.0379
  949MOL0     H28074   1.720   0.379   8.615 -0.3113  1.5695  0.8585
  949MOL0     H28075   1.286   0.237   8.699 -1.1369 -0.3252  0.0941
  949MOL0     H28076   1.143   0.232   8.499  0.8116  2.6110 -0.9048
  949MOL0     H28077   1.435   0.230   7.925  0.5416 -0.2842 -1.1552
  949MOL0     H28078   1.354   0.199   7.686 -1.5330 -1.2937 -0.0868
  949MOL0     H28079   1.261   0.220   7.497 -1.0029  2.0461  0.8413
  949MOL0     H28080   1.205   0.051   7.554 -1.6861 -0.2689  0.3565
  949MOL0     H28081   1.015   0.067   7.396 -0.1299 -1.2533 -1.7676
  949MOL0     H28082   1.085   0.224   7.336 -1.1822  0.0561 -0.2638
  949MOL0     H28083   1.284   0.035   7.312 -0.1312  0.1049  2.1781
  949MOL0     H28084   1.150  -0.073   7.333 -1.3590 -1.3288 -2.0868
  949MOL0     H28085   1.153   0.127   7.110  1.9017  1.0357  0.8166
  949MOL0     H28086   1.049  -0.004   7.111  0.3991 -0.6211 -1.2829
  949MOL0     H28087   1.241  -0.169   7.111  0.5400  0.5368  1.4046
  949MOL0     H28088   1.362  -0.038   7.114 -0.2728  0.4143 -1.7323
  949MOL0     H28089   1.180  -0.121   6.889 -0.8994  0.0810  0.4189
  949MOL0     H28090   1.262   0.041   6.887 -0.7726 -1.4318 -1.4732
  949MOL0     H28091   1.362  -0.256   6.901  2.2548 -0.2539  2.4100
  949MOL0     H28092   1.471  -0.116   6.931 -0.4339  0.8995 -0.5437
  949MOL0     H28093   1.497  -0.211   6.699  0.4287 -1.3528  2.2768
  949MOL0     H28094   1.331  -0.166   6.678 -0.0961  1.8334 -0.3460
  949MOL0     H28095   0.956   0.286   7.808 -0.9824  0.7792  2.2940
  949MOL0     H28096   1.042   0.306   8.045  1.2863  0.8633  1.1134
  949MOL0     H28097   1.500   0.240   8.261 -4.6209  1.6175 -2.7826
  949MOL0     H28098   1.639   0.257   8.455  1.4106  3.4416  5.3294
  949MOL0     H28099   1.853   0.363  10.334 -2.1826  1.6164 -1.7475
  949MOL0     H28100   2.051   0.246  10.375  2.6932  0.4905 -0.5796
  949MOL0     H28101   2.529   0.138  10.135 -3.5341  0.1272 -0.9247
  949MOL0     H28102   2.711  -0.025  10.106  0.0275 -0.6840  1.6824
  949MOL0     H28103   2.768  -0.402   9.938  2.2871 -2.1837  3.1348
  949MOL0     H28104   2.595  -0.404   9.959  0.3559 -1.5682 -0.9498
  949MOL0     H28105   2.614  -0.484  10.175 -1.3736  2.4698 -2.1819
  949MOL0     H28106   2.790  -0.462  10.180 -0.6475 -0.4768  1.6028
  949MOL0     H28107   2.794  -0.619   9.962 -3.8871  2.2292 -3.4923
  949MOL0     H28108   2.627  -0.657  10.015 -2.5329  0.5990  4.0301
  949MOL0     H28109   2.681  -0.769  10.203 -0.4404  0.2170 -1.0704
  949MOL0     H28110   2.805  -0.816  10.075  4.1846  1.9258 -0.4606
  949MOL0     H28111   3.074  -0.664  10.347  0.3362 -0.1600  0.1897
  949MOL0     H28112   2.437  -0.333  10.051  1.6273 -0.2784  0.8784
  949MOL0     H28113   2.212  -0.283   9.997 -1.5426  0.5178 -1.5332
  949MOL0     H28114   2.158  -0.228  10.153 -0.1424  1.0540  0.3454
  949MOL0     H28115   2.145  -0.123  10.013 -0.3120 -1.7007 -1.3366
  950MOL0     O28116   2.992   2.834  10.690  0.4395  0.8297 -0.1584
  950MOL0     C28117   3.049   2.923  10.752  0.1771  0.0504 -0.0264
  950MOL0     O28118   2.992   3.042  10.768 -0.3974 -0.4423 -0.1790
  950MOL0     C28119   2.857   3.052  10.753 -0.4899 -0.5721 -0.0859
  950MOL0     C28120   2.766   3.004  10.851  0.1033  0.0507 -0.1769
  950MOL0     C28121   2.628   3.022  10.826  0.3166  0.3408 -0.3262
  950MOL0     C28122   2.581   3.096  10.713  0.4230  0.2316 -0.0128
  950MOL0     O28123   2.441   3.110  10.704  0.8933 -0.8383  0.0630
  950MOL0     C28124   2.398   3.252  10.706  0.2120  0.4098  0.1934
  950MOL0     C28125   2.460   3.346  10.810  0.7800 -0.5274 -0.6157
  950MOL0     C28126   2.351   3.452  10.833  0.2973  0.5197 -0.1487
  950MOL0     C28127   2.401   3.559  10.934  0.1138  0.3652 -0.5150
  950MOL0     C28128   2.273   3.637  10.978  0.1505  1.0217  0.5254
  950MOL0     C28129   2.273   3.766  11.050  0.4374  0.8061 -0.7269
  950MOL0     C28130   2.127   3.798  11.095 -0.1445  0.1374  0.8258
  950MOL0     C28131   2.114   3.935  11.155  0.0890 -0.3763 -0.3650
  950MOL0     N28132   1.982   3.941  11.220  0.0007 -0.3837 -0.1056
  950MOL0     C28133   1.936   3.878  11.337  0.1265 -0.5705 -0.2481
  950MOL0     C28134   1.829   3.957  11.383 -0.4611 -0.1534  0.7101
  950MOL0     C28135   1.739   3.912  11.483 -0.0329 -0.8090  0.4232
  950MOL0     C28136   1.662   3.785  11.441  0.0386 -0.3593  0.3852
  950MOL0     C28137   1.562   3.741  11.541 -0.6517 -0.6919 -0.2880
  950MOL0     C28138   1.496   3.614  11.500 -0.2757 -0.1394  0.2536
  950MOL0     O28139   1.402   3.622  11.389  0.4279 -0.8054  0.0593
  950MOL0     C28140   1.343   3.506  11.351 -0.1371 -0.7616 -0.1447
  950MOL0     C28141   1.379   3.381  11.400  0.9676  0.3584 -0.0589
  950MOL0     C28142   1.318   3.264  11.338 -0.4641  0.0516  0.6915
  950MOL0     C28143   1.230   3.270  11.225  0.1778  0.6963 -0.5635
  950MOL0     C28144   1.171   3.149  11.157 -0.1417 -0.7375  0.6096
  950MOL0     O28145   1.079   3.163  11.057  0.0001  0.2571  0.4204
  950MOL0     C28146   1.031   3.050  10.994  0.9022 -1.0097 -0.4619
  950MOL0     C28147   0.892   3.032  10.992 -0.1338 -0.4427  0.9706
  950MOL0     C28148   0.837   2.928  10.915 -0.5083  0.4142  0.1892
  950MOL0     C28149   0.918   2.842  10.833 -0.0689 -0.5325  0.2183
  950MOL0     O28150   0.862   2.731  10.768 -0.5119  0.1265 -0.7196
  950MOL0     C28151   0.945   2.615  10.746 -1.0281  1.1446 -0.6985
  950MOL0     C28152   0.870   2.499  10.819 -0.1606 -0.5212 -0.5816
  950MOL0     C28153   0.749   2.459  10.737  0.3209 -0.3640  0.5620
  950MOL0     C28154   0.673   2.355  10.805 -0.0980 -0.5330 -0.7104
  950MOL0     C28155   0.531   2.312  10.748  0.0022 -0.5564 -0.2745
  950MOL0     C28156   0.544   2.294  10.595 -0.9533 -0.3586 -0.6753
  950MOL0     C28157   0.423   2.328  10.507  0.8253 -0.3018 -0.0782
  950MOL0     C28158   0.411   2.477  10.474 -0.4892 -0.1476 -0.3183
  950MOL0    Cl28159   0.559   2.553  10.400  0.1148 -0.4146 -0.1893
  950MOL0     C28160   1.056   2.876  10.835  0.4231 -0.8608  0.4188
  950MOL0     C28161   1.115   2.979  10.914  0.2435  0.7350 -1.0061
  950MOL0     O28162   1.197   3.047  11.213 -0.4120 -0.0194 -0.2936
  950MOL0     C28163   1.201   3.400  11.173 -0.2354 -0.1228 -0.7023
  950MOL0     C28164   1.261   3.514  11.240  0.2453  0.0177 -1.5980
  950MOL0     N28165   1.813   4.061  11.293 -0.0327  0.2083 -0.9978
  950MOL0     N28166   1.909   4.056  11.209 -0.3783  0.0287  0.2215
  950MOL0     C28167   2.670   3.147  10.631 -0.1852 -0.0739  0.7409
  950MOL0     C28168   2.805   3.125  10.646 -0.5193 -0.6926  0.6159
  950MOL0     C28169   3.156   2.890  10.854  0.0238  0.6292  0.8412
  950MOL0     C28170   3.113   2.824  10.968  1.1346  0.7609 -0.5045
  950MOL0     C28171   3.195   2.780  11.064  0.8544  0.2493  0.4031
  950MOL0     C28172   3.336   2.787  11.043 -0.9547 -0.8305 -0.2798
  950MOL0     O28173   3.443   2.776  11.129  0.3066 -0.4504 -0.4561
  950MOL0     C28174   3.412   2.796  11.264 -0.9952 -1.1078 -0.2021
  950MOL0     C28175   3.540   2.829  11.339 -0.1904 -0.9485 -0.2044
  950MOL0     C28176   3.637   2.712  11.349 -0.6294  0.2421 -0.2227
  950MOL0     C28177   3.707   2.732  11.492  0.2650  0.1544  1.0007
  950MOL0     C28178   3.645   2.673  11.606 -0.6051  0.8925 -0.9256
  950MOL0     C28179   3.590   2.593  11.676  0.9198 -0.5247 -1.0244
  950MOL0     C28180   3.384   2.844  10.923  0.7960  0.2519 -0.8765
  950MOL0     C28181   3.292   2.895  10.828  0.1032 -0.4945 -0.2228
  950MOL0     C28182   3.347   2.966  10.707 -0.4595 -0.1593  0.1622
  950MOL0     H28183   2.819   2.957  10.933  2.2550  2.8152  0.1941
  950MOL0     H28184   2.550   2.988  10.893 -0.9042 -1.3859 -2.5005
  950MOL0     H28185   2.416   3.293  10.606  1.4553 -2.8375 -1.0647
  950MOL0     H28186   2.290   3.251  10.721 -0.2446 -3.2651 -1.9387
  950MOL0     H28187   2.559   3.383  10.778  0.0363  0.7403 -1.5634
  950MOL0     H28188   2.479   3.293  10.904 -0.8171  2.1493  1.3500
  950MOL0     H28189   2.265   3.409  10.884  1.3046 -0.2326  0.9532
  950MOL0     H28190   2.314   3.489  10.737 -0.3319  0.3315  0.0137
  950MOL0     H28191   2.452   3.514  11.019  0.3303 -1.5413 -1.6090
  950MOL0     H28192   2.465   3.638  10.892 -2.0865  2.6195  0.0945
  950MOL0     H28193   2.229   3.667  10.882  3.9647  2.3622 -0.9829
  950MOL0     H28194   2.213   3.565  11.035  0.6086  0.0065 -0.2341
  950MOL0     H28195   2.329   3.750  11.142 -2.5266 -0.3638  0.9993
  950MOL0     H28196   2.316   3.853  10.999  3.7450 -0.4372 -0.3001
  950MOL0     H28197   2.100   3.708  11.151 -1.1979 -0.8936 -1.2082
  950MOL0     H28198   2.058   3.805  11.010  2.8591  0.5331 -1.7556
  950MOL0     H28199   2.197   3.964  11.221 -0.5072  2.6015 -0.8238
  950MOL0     H28200   2.121   4.015  11.081 -0.7388  0.9025  0.9051
  950MOL0     H28201   1.972   3.790  11.390 -0.0565 -0.7818 -0.4730
  950MOL0     H28202   1.795   3.896  11.576  2.0627  1.7899 -0.2863
  950MOL0     H28203   1.674   3.997  11.507  0.4599  0.0836 -1.2626
  950MOL0     H28204   1.611   3.812  11.348  0.1417 -0.9359  0.1560
  950MOL0     H28205   1.728   3.701  11.419  0.3301 -0.1889  0.5966
  950MOL0     H28206   1.491   3.824  11.547  0.8999  0.6036  0.7470
  950MOL0     H28207   1.605   3.722  11.640 -3.1138  0.5267  1.1120
  950MOL0     H28208   1.447   3.567  11.586  1.6140  2.6815  3.0863
  950MOL0     H28209   1.575   3.541  11.479  0.5764  0.7440  0.3041
  950MOL0     H28210   1.445   3.370  11.485  2.4309 -1.2614 -1.3114
  950MOL0     H28211   1.349   3.172  11.385 -4.1546 -2.7039 -1.7554
  950MOL0     H28212   0.836   3.099  11.057  1.7443  0.3503  1.8475
  950MOL0     H28213   0.729   2.916  10.918 -0.3824 -1.0555 -0.1965
  950MOL0     H28214   0.961   2.594  10.640  2.3503 -2.9308  0.3727
  950MOL0     H28215   1.044   2.623  10.791 -1.2084  1.7166 -0.3766
  950MOL0     H28216   0.930   2.407  10.824  0.4759 -0.1043 -0.3329
  950MOL0     H28217   0.841   2.525  10.921 -0.0139  1.1893 -0.9492
  950MOL0     H28218   0.687   2.549  10.731 -2.2086 -1.9819  1.0978
  950MOL0     H28219   0.783   2.420  10.641 -3.9366 -1.6362 -0.6431
  950MOL0     H28220   0.654   2.397  10.905 -0.6198  0.5577 -1.2572
  950MOL0     H28221   0.739   2.268  10.816 -2.0184 -1.7530  3.0507
  950MOL0     H28222   0.448   2.376  10.779  1.3016  1.3534 -0.5180
  950MOL0     H28223   0.502   2.220  10.799 -3.5041  1.8582  2.6625
  950MOL0     H28224   0.638   2.335  10.558 -0.6896  1.4955  1.7518
  950MOL0     H28225   0.556   2.186  10.592 -0.0468 -0.4477  2.3633
  950MOL0     H28226   0.340   2.287  10.565  2.1522 -1.0898  1.3558
  950MOL0     H28227   0.418   2.274  10.412 -2.2948  0.3610 -0.4118
  950MOL0     H28228   0.327   2.500  10.407  2.5268 -1.8299 -5.2395
  950MOL0     H28229   0.384   2.532  10.565  0.2867 -0.1035 -0.1094
  950MOL0     H28230   1.121   2.826  10.764  1.6581  3.6751 -2.0106
  950MOL0     H28231   1.222   2.995  10.920  0.4981 -1.1626  1.9908
  950MOL0     H28232   1.141   3.426  11.086 -2.2057  0.2200  0.6811
  950MOL0     H28233   1.251   3.615  11.201 -1.8630  0.0506 -1.1075
  950MOL0     H28234   2.643   3.191  10.536 -0.3190 -0.5169  0.5689
  950MOL0     H28235   2.864   3.155  10.560 -0.8447 -0.1756  0.5724
  950MOL0     H28236   3.007   2.809  10.981  1.1875  2.1637  2.0186
  950MOL0     H28237   3.166   2.729  11.156  2.9197 -0.9396  0.4677
  950MOL0     H28238   3.348   2.719  11.309 -0.9376  1.2106  4.3966
  950MOL0     H28239   3.344   2.881  11.278  0.2925 -0.4219  2.6611
  950MOL0     H28240   3.524   2.884  11.431  0.8709  0.2778 -0.7203
  950MOL0     H28241   3.596   2.899  11.276  1.5403 -1.2926  0.8907
  950MOL0     H28242   3.710   2.708  11.267  1.1884  1.1491  1.2571
  950MOL0     H28243   3.587   2.615  11.351  2.2927 -1.4290 -1.0471
  950MOL0     H28244   3.802   2.677  11.485 -0.2634 -0.5567 -1.2149
  950MOL0     H28245   3.734   2.837  11.508 -1.9292  0.7050  1.4148
  950MOL0     H28246   3.539   2.531  11.747  1.1953 -1.0101 -1.2459
  950MOL0     H28247   3.492   2.836  10.921  1.0553  2.6576  0.0947
  950MOL0     H28248   3.262   3.013  10.657  1.2429  3.3169  0.2129
  950MOL0     H28249   3.415   3.048  10.733 -2.3114  1.5294 -0.0956
  950MOL0     H28250   3.402   2.900  10.639  1.7917  1.7184  0.0096
  951MOL0     O28251   9.459   5.266   5.844 -0.0624  0.4035  0.1462
  951MOL0     C28252   9.522   5.346   5.775 -1.1054 -1.2570  0.0551
  951MOL0     O28253   9.620   5.436   5.821  0.3105  0.0861  0.0370
  951MOL0     C28254   9.637   5.469   5.949  0.1467  0.0725  0.7531
  951MOL0     C28255   9.643   5.607   5.984  0.1503 -0.3056  0.2920
  951MOL0     C28256   9.662   5.639   6.122 -0.8198 -0.2352 -0.1871
  951MOL0     C28257   9.653   5.544   6.223  0.4401 -0.3129  0.4789
  951MOL0     O28258   9.668   5.592   6.350 -0.0320 -0.2903  0.6511
  951MOL0     C28259   9.666   5.503   6.462  0.7328 -0.8527 -0.6595
  951MOL0     C28260   9.670   5.596   6.591 -0.0536 -0.3167  0.8043
  951MOL0     C28261   9.618   5.547   6.722  0.2585 -0.9564 -0.1758
  951MOL0     C28262   9.667   5.632   6.839 -0.6456 -0.4930 -1.2162
  951MOL0     C28263   9.614   5.778   6.838 -0.2249  0.1632 -0.1596
  951MOL0     C28264   9.724   5.885   6.859  0.0690 -0.8194 -0.2056
  951MOL0     C28265   9.675   6.028   6.864 -0.9926  0.8257 -0.1459
  951MOL0     C28266   9.782   6.141   6.878 -0.9389  0.2054  0.4560
  951MOL0     N28267   9.854   6.134   7.004  0.4479  0.3502  0.0641
  951MOL0     C28268   9.788   6.167   7.117 -0.1662 -0.1530  0.2416
  951MOL0     C28269   9.855   6.121   7.224 -0.1147 -0.2344 -0.2513
  951MOL0     C28270   9.832   6.144   7.367 -0.6267  1.4157 -0.8962
  951MOL0     C28271   9.877   6.287   7.415  0.5820 -0.6766 -0.1813
  951MOL0     C28272  10.007   6.284   7.487 -0.7059 -0.2886 -0.1520
  951MOL0     C28273   9.988   6.228   7.629 -0.1505 -0.6622 -0.4025
  951MOL0     O28274  10.114   6.240   7.704  0.1141 -0.3708  0.3778
  951MOL0     C28275  10.168   6.358   7.732 -0.7803  0.7603  0.2860
  951MOL0     C28276  10.122   6.441   7.833 -0.1857  0.0074  0.9486
  951MOL0     C28277  10.187   6.561   7.872 -0.0018  1.1421  0.1873
  951MOL0     C28278  10.309   6.600   7.811 -0.5926 -0.4661 -0.4880
  951MOL0     C28279  10.381   6.719   7.865  0.0159 -0.1713  0.6337
  951MOL0     O28280  10.480   6.764   7.778 -0.2838 -0.1066 -0.0803
  951MOL0     C28281  10.554   6.868   7.825  0.3696 -0.2984  1.7687
  951MOL0     C28282  10.513   7.004   7.832 -0.8338 -0.5244 -0.4210
  951MOL0     C28283  10.597   7.108   7.874  0.2803 -0.2073 -0.6312
  951MOL0     C28284  10.730   7.082   7.911  0.2288  0.6921  0.2753
  951MOL0     O28285  10.813   7.183   7.953 -0.8292  0.0125 -0.5285
  951MOL0     C28286  10.943   7.187   7.909 -1.3490  0.4760  1.0072
  951MOL0     C28287  10.999   7.325   7.920  0.0613 -0.0088 -0.6326
  951MOL0     C28288  11.122   7.354   7.828  0.0207  0.0806 -0.5250
  951MOL0     C28289  11.129   7.503   7.799 -0.1673 -0.1308  0.0589
  951MOL0     C28290  11.275   7.555   7.789  0.7049 -0.0585  0.1463
  951MOL0     C28291  11.334   7.499   7.669 -0.1135  1.0540  0.6252
  951MOL0     C28292  11.486   7.536   7.655 -0.4132 -0.2862 -0.1281
  951MOL0     C28293  11.555   7.458   7.538  0.3650  0.0108 -0.6102
  951MOL0    Cl28294  11.565   7.276   7.556  0.1488 -0.1516 -0.2777
  951MOL0     C28295  10.780   6.947   7.900  0.0939 -0.7485 -1.0508
  951MOL0     C28296  10.684   6.843   7.871 -0.3628  0.3181 -0.1780
  951MOL0     O28297  10.360   6.754   7.983  0.5677 -0.0055  0.1368
  951MOL0     C28298  10.368   6.517   7.713  0.7124 -0.4993  0.3417
  951MOL0     C28299  10.287   6.402   7.679 -0.5395  0.1701  0.6516
  951MOL0     N28300   9.966   6.057   7.171 -0.1114  0.8116  0.2073
  951MOL0     N28301   9.964   6.065   7.041  0.0074 -0.3316  0.2767
  951MOL0     C28302   9.643   5.409   6.184 -0.1203 -0.7902 -1.0898
  951MOL0     C28303   9.639   5.379   6.056  0.2525  0.5605 -0.1618
  951MOL0     C28304   9.475   5.376   5.629  1.0305  0.2678 -0.4203
  951MOL0     C28305   9.511   5.491   5.564 -0.5655 -0.4278 -0.8530
  951MOL0     C28306   9.485   5.517   5.431  0.7443 -0.6843  0.1347
  951MOL0     C28307   9.420   5.426   5.355  0.2124  0.1829  0.2813
  951MOL0     O28308   9.410   5.461   5.220  0.9835 -0.1293  0.0811
  951MOL0     C28309   9.355   5.364   5.130 -0.1220 -0.0571 -0.2869
  951MOL0     C28310   9.356   5.416   4.986  0.0895  0.1315 -0.3884
  951MOL0     C28311   9.243   5.527   4.970  0.2529  0.1846 -1.1415
  951MOL0     C28312   9.281   5.669   4.958  1.4667 -0.4172 -0.6834
  951MOL0     C28313   9.166   5.756   4.928 -0.2150  0.0002 -0.2142
  951MOL0     C28314   9.072   5.837   4.899 -0.1909  0.0506  0.7099
  951MOL0     C28315   9.367   5.316   5.420  0.2995  0.2607 -0.4642
  951MOL0     C28316   9.405   5.278   5.547  0.1644 -0.9845 -0.5028
  951MOL0     C28317   9.339   5.154   5.602  0.1327  0.6452 -0.5402
  951MOL0     H28318   9.639   5.685   5.909 -0.9185  0.7562  1.4108
  951MOL0     H28319   9.675   5.736   6.168 -1.3685 -0.7219  1.0564
  951MOL0     H28320   9.569   5.453   6.458  1.2630 -2.4430  2.7896
  951MOL0     H28321   9.744   5.425   6.461  0.1676 -1.4211 -1.5459
  951MOL0     H28322   9.603   5.678   6.565 -0.1830 -0.2949  1.1939
  951MOL0     H28323   9.768   5.641   6.607 -0.1722  0.9390 -1.6014
  951MOL0     H28324   9.651   5.444   6.729 -0.9733 -1.4283 -0.9009
  951MOL0     H28325   9.509   5.539   6.715  0.0071  1.7465 -0.4638
  951MOL0     H28326   9.631   5.587   6.932 -0.2913  0.7848 -0.4422
  951MOL0     H28327   9.775   5.624   6.859 -0.9921  1.5776  2.1296
  951MOL0     H28328   9.567   5.812   6.745 -1.2738  0.7831  0.5809
  951MOL0     H28329   9.533   5.773   6.911  1.9302 -2.5596  2.2604
  951MOL0     H28330   9.770   5.858   6.955 -1.9758 -3.0149  0.2409
  951MOL0     H28331   9.811   5.886   6.793  2.0447  0.1208  2.2534
  951MOL0     H28332   9.603   6.045   6.945 -0.9026  1.7362 -0.2387
  951MOL0     H28333   9.619   6.050   6.773 -1.5756  0.1917  0.0510
  951MOL0     H28334   9.855   6.127   6.798  0.4766 -0.3796  1.7924
  951MOL0     H28335   9.730   6.237   6.870 -2.0341 -0.5006 -1.6767
  951MOL0     H28336   9.689   6.211   7.126 -0.3562 -0.9075  3.0364
  951MOL0     H28337   9.734   6.110   7.403  0.9606 -1.5415  1.0902
  951MOL0     H28338   9.897   6.074   7.421 -2.7856  0.6416  0.8525
  951MOL0     H28339   9.878   6.357   7.331  1.0822 -2.2138 -1.4918
  951MOL0     H28340   9.795   6.317   7.482 -1.7085  0.0952 -3.0961
  951MOL0     H28341  10.054   6.383   7.486  0.3556 -0.7068  1.7777
  951MOL0     H28342  10.082   6.230   7.428  0.2442 -0.5574  1.2445
  951MOL0     H28343   9.950   6.126   7.622 -1.4866 -0.3578  1.8002
  951MOL0     H28344   9.906   6.278   7.680 -2.3049  1.4104 -5.2087
  951MOL0     H28345  10.035   6.408   7.888 -0.9674  4.1761  2.5843
  951MOL0     H28346  10.142   6.619   7.952 -0.5655  0.5683  0.2916
  951MOL0     H28347  10.410   7.026   7.806 -1.8140 -1.8464  2.0861
  951MOL0     H28348  10.553   7.207   7.872 -2.5358 -1.3357  0.2176
  951MOL0     H28349  11.008   7.112   7.955  0.6440  0.8218 -1.0497
  951MOL0     H28350  10.946   7.162   7.802  4.3990  1.7078  0.5176
  951MOL0     H28351  10.910   7.386   7.898  1.5146  2.5763  0.2330
  951MOL0     H28352  11.037   7.344   8.021  1.6775 -1.3046 -0.9587
  951MOL0     H28353  11.209   7.329   7.889 -0.1722 -0.2018 -0.3636
  951MOL0     H28354  11.110   7.303   7.732 -0.9679  2.0704 -1.5333
  951MOL0     H28355  11.084   7.564   7.878  2.7754  1.9805  0.2584
  951MOL0     H28356  11.071   7.515   7.706  1.2963 -0.2779 -0.9064
  951MOL0     H28357  11.314   7.510   7.880 -1.4753 -2.9177 -0.1895
  951MOL0     H28358  11.285   7.664   7.796 -1.6267  0.2484 -0.2973
  951MOL0     H28359  11.334   7.389   7.664  1.2967  0.9542  1.7682
  951MOL0     H28360  11.280   7.553   7.592  2.7807  1.8691 -0.9699
  951MOL0     H28361  11.534   7.523   7.753  2.0186  1.8450 -0.9407
  951MOL0     H28362  11.502   7.639   7.621 -2.3407 -0.4859 -1.8268
  951MOL0     H28363  11.498   7.460   7.445 -1.0855 -2.8669  0.1043
  951MOL0     H28364  11.657   7.490   7.516  0.9067  0.2086  1.8723
  951MOL0     H28365  10.883   6.927   7.927  0.0967 -0.9956 -1.2351
  951MOL0     H28366  10.714   6.741   7.894  3.5524  1.5013  0.7588
  951MOL0     H28367  10.466   6.527   7.668  0.7273  0.2960  0.5392
  951MOL0     H28368  10.338   6.338   7.608  0.5856  2.1857 -0.4613
  951MOL0     H28369   9.650   5.328   6.256 -2.7232  1.1486  1.5738
  951MOL0     H28370   9.637   5.277   6.019 -0.3095 -0.2101  1.8514
  951MOL0     H28371   9.559   5.568   5.624 -0.5800 -2.2707  1.6672
  951MOL0     H28372   9.512   5.614   5.390 -2.2618  0.8174  1.3490
  951MOL0     H28373   9.254   5.336   5.161  0.6694 -2.3601  0.4201
  951MOL0     H28374   9.417   5.274   5.134  2.9502  1.8694 -1.1526
  951MOL0     H28375   9.331   5.342   4.910 -1.5658  2.6150 -2.4120
  951MOL0     H28376   9.458   5.446   4.959 -0.0821  1.1249 -0.0061
  951MOL0     H28377   9.184   5.530   5.063 -0.8678  1.7662 -1.8397
  951MOL0     H28378   9.168   5.508   4.892 -0.6131 -1.1325 -0.0241
  951MOL0     H28379   9.337   5.699   5.047  4.7221 -2.0988 -1.9836
  951MOL0     H28380   9.355   5.663   4.877  0.7640 -1.6193 -1.2571
  951MOL0     H28381   8.995   5.909   4.885 -0.2787 -0.5903 -3.6282
  951MOL0     H28382   9.314   5.239   5.365  2.4531 -1.4835 -0.2439
  951MOL0     H28383   9.415   5.088   5.642 -1.0758  0.3730  1.4402
  951MOL0     H28384   9.261   5.165   5.678  0.4189 -0.0174 -0.1484
  951MOL0     H28385   9.295   5.100   5.518 -0.5922  0.1892  0.1255
  952MOL0     O28386  10.840  11.225  11.478 -0.1929 -1.0122  0.0726
  952MOL0     C28387  10.905  11.178  11.379  1.2967  0.3753 -0.9306
  952MOL0     O28388  10.917  11.044  11.363 -0.3536  0.2190  0.5619
  952MOL0     C28389  10.848  10.952  11.427 -0.4365 -0.6283 -0.5261
  952MOL0     C28390  10.849  10.951  11.571  0.0083  0.0743  0.3462
  952MOL0     C28391  10.789  10.851  11.643  0.6585 -0.5216 -0.0960
  952MOL0     C28392  10.708  10.761  11.574 -0.2148  0.7320  0.5021
  952MOL0     O28393  10.646  10.664  11.647  0.4085 -0.5937  0.0516
  952MOL0     C28394  10.515  10.623  11.600 -0.7355  0.0350  0.0498
  952MOL0     C28395  10.450  10.543  11.714 -0.0974  1.7155 -0.1758
  952MOL0     C28396  10.438  10.601  11.853  0.8681 -0.0707  0.6577
  952MOL0     C28397  10.359  10.499  11.931 -0.4991  0.2347 -0.9719
  952MOL0     C28398  10.365  10.511  12.091 -0.0964 -0.2385  0.3188
  952MOL0     C28399  10.311  10.398  12.161 -0.1240  0.7826 -1.0209
  952MOL0     C28400  10.160  10.374  12.147 -1.0197  0.2358  0.2356
  952MOL0     C28401  10.115  10.237  12.194 -0.9539  0.8469  0.1098
  952MOL0     N28402   9.971  10.231  12.179  0.0982 -0.1683  0.1465
  952MOL0     C28403   9.872  10.292  12.259 -0.6321  0.6073  0.6042
  952MOL0     C28404   9.762  10.230  12.224  0.6250  0.2403  0.7917
  952MOL0     C28405   9.612  10.243  12.265 -0.3495 -0.1376 -0.1169
  952MOL0     C28406   9.510  10.201  12.163 -0.1987  0.2173 -0.8365
  952MOL0     C28407   9.353  10.210  12.190 -0.2611 -1.0251 -0.3229
  952MOL0     C28408   9.291  10.360  12.184 -0.8861  0.1290 -0.2463
  952MOL0     O28409   9.274  10.403  12.048 -0.2318  0.5773 -0.6884
  952MOL0     C28410   9.241  10.532  12.053  1.2328  0.4600  0.1841
  952MOL0     C28411   9.340  10.628  12.000 -0.6862  0.5594 -0.3388
  952MOL0     C28412   9.313  10.760  11.993 -1.1809 -0.6382  1.0183
  952MOL0     C28413   9.204  10.814  12.051 -0.7768  0.3660  0.0115
  952MOL0     C28414   9.173  10.956  12.054 -0.1378  0.0558 -0.3417
  952MOL0     O28415   9.275  11.044  12.006  0.1047  0.3012 -0.2751
  952MOL0     C28416   9.255  11.182  12.000  0.5480  0.5713 -1.0602
  952MOL0     C28417   9.132  11.246  11.971 -0.3395  1.3864 -0.5823
  952MOL0     C28418   9.123  11.385  11.969 -0.3753 -0.3069  0.2348
  952MOL0     C28419   9.241  11.469  11.987  0.0127  0.0035  0.0428
  952MOL0     O28420   9.247  11.601  11.959  0.5816  0.0256  0.0757
  952MOL0     C28421   9.127  11.667  11.920  0.6533  0.4384  0.2624
  952MOL0     C28422   9.146  11.818  11.923  0.0303  0.8528  0.3375
  952MOL0     C28423   9.158  11.862  12.062  0.0082  0.2967 -0.8539
  952MOL0     C28424   9.143  12.017  12.076  0.4696 -0.0238  0.0649
  952MOL0     C28425   9.146  12.073  12.216 -0.5681  0.4424 -0.9101
  952MOL0     C28426   9.174  12.231  12.214  0.5418  0.9002 -0.5208
  952MOL0     C28427   9.244  12.275  12.348 -0.4885  0.1460  0.0407
  952MOL0     C28428   9.287  12.420  12.336  0.4597 -0.0015  0.6948
  952MOL0    Cl28429   9.424  12.486  12.443  0.5078 -0.0469  0.2657
  952MOL0     C28430   9.363  11.405  12.033 -0.6135  0.7319 -0.4455
  952MOL0     C28431   9.366  11.262  12.044 -0.2314 -0.2033  0.7778
  952MOL0     O28432   9.068  10.992  12.101  0.1260 -0.2966 -0.3731
  952MOL0     C28433   9.108  10.720  12.097  1.3270 -0.5187  0.7567
  952MOL0     C28434   9.118  10.579  12.093 -0.4717  0.5329 -0.4984
  952MOL0     N28435   9.791  10.139  12.125 -0.1373 -0.0403 -0.2168
  952MOL0     N28436   9.913  10.147  12.092  0.0866  1.0463 -0.2970
  952MOL0     C28437  10.701  10.767  11.434 -0.2774  0.5050  0.0205
  952MOL0     C28438  10.771  10.867  11.356 -0.1342  0.4540  0.2548
  952MOL0     C28439  10.996  11.256  11.297 -0.6174 -0.8359  0.7245
  952MOL0     C28440  11.021  11.204  11.170 -0.6005  0.2350  1.0755
  952MOL0     C28441  11.114  11.269  11.086  0.3087  0.8129 -0.6678
  952MOL0     C28442  11.173  11.386  11.123 -1.2675 -0.7578 -0.0275
  952MOL0     O28443  11.244  11.458  11.026 -0.5188 -0.2692 -0.2238
  952MOL0     C28444  11.155  11.510  10.926  0.7167 -0.2807 -0.3733
  952MOL0     C28445  11.042  11.612  10.980 -0.7827  0.0857  0.3617
  952MOL0     C28446  10.966  11.681  10.865 -1.9111 -0.2718  0.2100
  952MOL0     C28447  10.886  11.791  10.931  0.6826  0.1417  0.2030
  952MOL0     C28448  10.968  11.912  10.936  1.0304 -0.3622  0.0239
  952MOL0     C28449  11.042  12.009  10.938 -0.0261 -0.3974  0.8741
  952MOL0     C28450  11.152  11.435  11.249  0.2037  0.4115 -0.3550
  952MOL0     C28451  11.063  11.374  11.344 -0.1814  1.1006  0.1376
  952MOL0     C28452  11.045  11.435  11.475 -0.6844 -0.0876 -0.2457
  952MOL0     H28453  10.920  11.023  11.613  0.5211 -1.3337  2.0024
  952MOL0     H28454  10.779  10.865  11.750  0.0743  0.9146 -0.3263
  952MOL0     H28455  10.443  10.701  11.574 -0.6620 -0.5610 -2.0859
  952MOL0     H28456  10.528  10.566  11.507  2.3019 -1.7348  1.4056
  952MOL0     H28457  10.515  10.456  11.729 -0.2270  1.7959  0.9586
  952MOL0     H28458  10.354  10.506  11.675  0.9463 -0.7828 -0.5743
  952MOL0     H28459  10.385  10.697  11.843  2.5542  0.7755 -0.9538
  952MOL0     H28460  10.536  10.614  11.901  0.6203  2.5002  0.6060
  952MOL0     H28461  10.255  10.499  11.899 -0.9569 -3.7040 -0.0178
  952MOL0     H28462  10.403  10.400  11.913  1.6660  0.9366  0.1336
  952MOL0     H28463  10.474  10.504  12.102 -0.2830 -3.1639  1.2554
  952MOL0     H28464  10.323  10.606  12.124  3.5032  1.3289  0.9448
  952MOL0     H28465  10.354  10.304  12.125 -0.4831  1.0702 -2.2504
  952MOL0     H28466  10.329  10.421  12.267 -1.9229 -1.0007 -0.2802
  952MOL0     H28467  10.123  10.380  12.044 -3.6110 -2.3314  0.8982
  952MOL0     H28468  10.108  10.447  12.210 -0.4142 -1.2701  2.5912
  952MOL0     H28469  10.163  10.153  12.143 -1.5428  2.2226 -2.9690
  952MOL0     H28470  10.148  10.216  12.296 -0.3113 -2.5445 -0.6595
  952MOL0     H28471   9.885  10.365  12.339  2.5185 -0.7000  1.4186
  952MOL0     H28472   9.599  10.194  12.362  3.1577  0.3265  0.7362
  952MOL0     H28473   9.607  10.350  12.287 -0.2668  0.0382 -0.9389
  952MOL0     H28474   9.535  10.262  12.076 -0.9179 -0.7203 -1.7176
  952MOL0     H28475   9.516  10.093  12.145 -1.8059 -0.3557  1.4650
  952MOL0     H28476   9.328  10.167  12.287  2.5559  0.5441  1.2317
  952MOL0     H28477   9.307  10.145  12.115 -2.1711 -0.3978  0.2440
  952MOL0     H28478   9.360  10.427  12.237 -0.1051 -0.7231 -0.1646
  952MOL0     H28479   9.187  10.362  12.217 -0.9971  0.0523 -0.5906
  952MOL0     H28480   9.444  10.602  11.984 -0.9749  0.4432 -2.2542
  952MOL0     H28481   9.385  10.822  11.941 -1.0717  1.3224  3.3679
  952MOL0     H28482   9.040  11.194  11.944  2.2557 -2.8971 -2.2517
  952MOL0     H28483   9.024  11.421  11.941  0.7581  2.2491 -0.7681
  952MOL0     H28484   9.112  11.645  11.814  2.6370  3.5929 -0.8081
  952MOL0     H28485   9.049  11.624  11.984  2.0019 -1.0402  0.9677
  952MOL0     H28486   9.235  11.838  11.862 -0.2953  1.8750  0.1643
  952MOL0     H28487   9.058  11.872  11.886  0.2474  0.7874 -0.2834
  952MOL0     H28488   9.082  11.819  12.127  2.8219  0.1827  2.6554
  952MOL0     H28489   9.258  11.841  12.102 -0.4659  3.6182  2.6872
  952MOL0     H28490   9.050  12.050  12.029  0.7864 -2.2049 -2.2693
  952MOL0     H28491   9.228  12.065  12.027  0.4424 -0.0863 -0.0439
  952MOL0     H28492   9.225  12.024  12.272 -0.3901 -1.3120 -2.6158
  952MOL0     H28493   9.052  12.046  12.266  0.2580 -4.3685 -1.5155
  952MOL0     H28494   9.240  12.258  12.131 -1.0873  0.1144 -2.1445
  952MOL0     H28495   9.080  12.282  12.193 -0.7733 -2.2170 -3.0496
  952MOL0     H28496   9.336  12.217  12.358 -0.2877  0.7606  2.4063
  952MOL0     H28497   9.177  12.257  12.433  2.4478 -1.9014  2.1163
  952MOL0     H28498   9.328  12.436  12.236 -0.9947  1.4021  0.2700
  952MOL0     H28499   9.193  12.474  12.352 -0.1910 -0.7638 -0.4078
  952MOL0     H28500   9.457  11.455  12.051  0.2173 -0.2930 -1.7396
  952MOL0     H28501   9.463  11.216  12.061  0.6622  0.1707 -2.5444
  952MOL0     H28502   9.022  10.751  12.155  1.4305  1.0848  0.1062
  952MOL0     H28503   9.044  10.523  12.150  0.4824  1.4305  1.7613
  952MOL0     H28504  10.642  10.694  11.381  1.0203  0.5620 -1.5948
  952MOL0     H28505  10.758  10.880  11.249 -1.3096  2.0008  0.5419
  952MOL0     H28506  10.972  11.112  11.138 -1.8455  1.1387  0.3350
  952MOL0     H28507  11.137  11.239  10.984  0.6882  3.2832 -1.3649
  952MOL0     H28508  11.108  11.424  10.877 -2.6231  2.1176 -1.7292
  952MOL0     H28509  11.205  11.573  10.852 -0.0206  1.9473  0.9342
  952MOL0     H28510  11.081  11.695  11.038 -3.5226  4.1425 -2.9849
  952MOL0     H28511  10.966  11.549  11.027 -0.0768 -1.4920 -0.5135
  952MOL0     H28512  10.895  11.619  10.809 -1.7643 -0.1076 -0.1646
  952MOL0     H28513  11.038  11.715  10.790 -0.9202 -0.1337  1.2041
  952MOL0     H28514  10.803  11.806  10.862  1.1255 -0.6781 -0.5386
  952MOL0     H28515  10.851  11.762  11.030 -0.6088  0.9013 -0.0148
  952MOL0     H28516  11.101  12.098  10.932 -3.5577  2.0634 -0.5081
  952MOL0     H28517  11.197  11.533  11.265  0.6370  0.2287 -0.4282
  952MOL0     H28518  10.949  11.487  11.475  0.6520  2.5686 -1.6804
  952MOL0     H28519  11.043  11.360  11.555 -0.0066 -3.6145 -3.2318
  952MOL0     H28520  11.115  11.517  11.493 -1.5651  0.5410  0.4081
  953MOL0     O28521   8.247   7.803   2.274 -0.1780 -0.1423 -1.0793
  953MOL0     C28522   8.299   7.751   2.175  0.4432  0.3983  0.4216
  953MOL0     O28523   8.218   7.701   2.075  0.0229 -0.4671 -0.1088
  953MOL0     C28524   8.084   7.689   2.088 -0.4198 -0.0624 -0.4928
  953MOL0     C28525   7.992   7.792   2.070 -0.9767 -0.0734 -0.4722
  953MOL0     C28526   7.856   7.771   2.109 -0.2635  0.3300 -0.1942
  953MOL0     C28527   7.812   7.642   2.155 -0.2516 -0.0618 -0.4921
  953MOL0     O28528   7.676   7.633   2.203 -0.5115  0.4805  0.4137
  953MOL0     C28529   7.635   7.532   2.299 -0.3717  0.5734  0.4962
  953MOL0     C28530   7.488   7.511   2.271  0.1114 -0.2760  0.4580
  953MOL0     C28531   7.427   7.405   2.365  0.1005  0.3511 -0.0434
  953MOL0     C28532   7.269   7.404   2.343 -0.7504  0.5924  0.4553
  953MOL0     C28533   7.191   7.298   2.420 -0.5302 -0.1932 -0.2686
  953MOL0     C28534   7.037   7.323   2.415  0.2490  0.3495  0.7438
  953MOL0     C28535   6.953   7.215   2.472 -0.1428 -0.5091 -0.7933
  953MOL0     C28536   6.915   7.106   2.375  1.4897  0.1296  0.5257
  953MOL0     N28537   7.035   7.043   2.320 -0.3569  0.0405  0.5648
  953MOL0     C28538   7.106   6.947   2.388 -1.4712 -0.1675  0.2850
  953MOL0     C28539   7.208   6.917   2.298 -0.2881 -0.5432  0.6897
  953MOL0     C28540   7.318   6.817   2.301 -0.2802  0.8652  0.0004
  953MOL0     C28541   7.372   6.792   2.442  0.0741  0.1848 -0.1209
  953MOL0     C28542   7.505   6.724   2.448 -1.2973  0.3157  1.0393
  953MOL0     C28543   7.521   6.586   2.392  0.4587  0.7965  0.6343
  953MOL0     O28544   7.547   6.596   2.253 -0.1500 -0.6366 -0.4163
  953MOL0     C28545   7.676   6.603   2.208  0.2861  0.0136 -0.0684
  953MOL0     C28546   7.792   6.636   2.287 -0.3495  0.5358 -0.3857
  953MOL0     C28547   7.915   6.649   2.229  0.2777  0.7260  0.3501
  953MOL0     C28548   7.934   6.615   2.089  1.1189 -0.2985 -0.1597
  953MOL0     C28549   8.068   6.630   2.022  0.5645  0.5481  1.0570
  953MOL0     O28550   8.071   6.568   1.896  0.3268 -0.5422 -0.6485
  953MOL0     C28551   8.193   6.581   1.836  0.0226  0.6570  0.9336
  953MOL0     C28552   8.297   6.502   1.884 -0.9771 -0.2350 -1.1705
  953MOL0     C28553   8.423   6.510   1.823 -1.3687  0.5684 -0.0629
  953MOL0     C28554   8.429   6.578   1.702  0.2858 -0.2381 -0.0463
  953MOL0     O28555   8.528   6.558   1.625 -0.8278  0.2449 -0.1191
  953MOL0     C28556   8.633   6.649   1.644 -0.1910  0.3123  0.4627
  953MOL0     C28557   8.744   6.596   1.735  0.1031 -0.1859  0.6655
  953MOL0     C28558   8.820   6.480   1.672  0.4644 -0.7451  0.2020
  953MOL0     C28559   8.928   6.423   1.765  0.3813 -0.3189  0.3988
  953MOL0     C28560   9.044   6.523   1.775  0.1129 -0.3000  0.0789
  953MOL0     C28561   9.159   6.453   1.848  0.1686 -0.0789  0.3498
  953MOL0     C28562   9.257   6.556   1.896  0.2505  0.2613  0.3329
  953MOL0     C28563   9.330   6.623   1.777 -0.1869  1.1319  0.9456
  953MOL0    Cl28564   9.385   6.505   1.644 -0.0519 -0.2857 -0.1849
  953MOL0     C28565   8.326   6.645   1.647 -0.2070  1.2537  0.0238
  953MOL0     C28566   8.205   6.649   1.715  0.0996  0.0270  0.8316
  953MOL0     O28567   8.151   6.706   2.068  0.1854 -0.8735  0.4109
  953MOL0     C28568   7.821   6.570   2.016 -0.8335  0.2297 -0.3194
  953MOL0     C28569   7.690   6.566   2.074  0.3462  0.0314 -1.0515
  953MOL0     N28570   7.201   7.004   2.190  0.0898 -0.4440 -0.2493
  953MOL0     N28571   7.093   7.074   2.204  0.7807  0.6481  1.0867
  953MOL0     C28572   7.906   7.541   2.152  0.4605  0.3101  0.2279
  953MOL0     C28573   8.042   7.566   2.126  0.6795  0.6763 -0.2990
  953MOL0     C28574   8.443   7.776   2.138 -0.5403  0.1645  0.8020
  953MOL0     C28575   8.476   7.775   2.002  0.2154 -0.1409  0.0536
  953MOL0     C28576   8.602   7.795   1.945 -0.3764  0.1503 -0.5483
  953MOL0     C28577   8.702   7.836   2.031 -0.3141  0.5441  0.7976
  953MOL0     O28578   8.822   7.877   1.973  0.8759  0.2225 -0.4525
  953MOL0     C28579   8.937   7.892   2.057 -0.4269  0.5306 -0.1971
  953MOL0     C28580   8.997   7.750   2.100  0.6406  1.0017 -0.3695
  953MOL0     C28581   9.126   7.744   2.174 -0.0323  0.4922 -0.3639
  953MOL0     C28582   9.139   7.800   2.325 -0.0224 -0.1426  0.0730
  953MOL0     C28583   9.046   7.721   2.407  0.2845  0.0872  0.4962
  953MOL0     C28584   8.963   7.669   2.475 -0.2684  0.5098 -0.1978
  953MOL0     C28585   8.674   7.849   2.163  0.8041 -0.2666  0.1628
  953MOL0     C28586   8.551   7.810   2.229  0.8580 -0.4518  0.5590
  953MOL0     C28587   8.524   7.830   2.378  0.1920 -0.0869  0.8095
  953MOL0     H28588   8.043   7.886   2.054  1.6044 -1.3977 -0.6165
  953MOL0     H28589   7.796   7.859   2.085  1.8640  2.6672  2.2666
  953MOL0     H28590   7.685   7.435   2.293 -0.9385  0.2249  1.2469
  953MOL0     H28591   7.660   7.569   2.399 -0.9275 -1.7951  1.5662
  953MOL0     H28592   7.480   7.488   2.164  0.9197  0.7950  0.1452
  953MOL0     H28593   7.437   7.608   2.276 -0.3636 -0.0716 -3.8017
  953MOL0     H28594   7.453   7.433   2.468  1.4487 -0.9556  0.0113
  953MOL0     H28595   7.464   7.307   2.335  3.3968  0.7300  2.1737
  953MOL0     H28596   7.241   7.502   2.380 -0.8992  0.3562  0.9715
  953MOL0     H28597   7.257   7.394   2.234  1.4939  0.8391  0.1306
  953MOL0     H28598   7.213   7.209   2.360 -0.0743 -0.1889 -0.1065
  953MOL0     H28599   7.234   7.272   2.517 -0.4594  4.4312  1.1744
  953MOL0     H28600   7.020   7.420   2.463  1.9756  0.7062  0.6893
  953MOL0     H28601   7.007   7.338   2.311  0.2863 -0.6740  0.5794
  953MOL0     H28602   6.858   7.259   2.503  0.0690  1.6914 -2.9267
  953MOL0     H28603   7.005   7.175   2.559 -0.4604  1.9022  0.5944
  953MOL0     H28604   6.845   7.041   2.428 -1.8381  3.9390  1.2579
  953MOL0     H28605   6.872   7.153   2.286  0.7903  2.6794  2.0936
  953MOL0     H28606   7.104   6.910   2.490  0.5764 -0.9791  0.0649
  953MOL0     H28607   7.293   6.719   2.261  1.0399 -0.9553  3.2633
  953MOL0     H28608   7.391   6.860   2.233 -0.5793  1.8567  0.2863
  953MOL0     H28609   7.394   6.885   2.496 -0.4511 -0.6412  1.5747
  953MOL0     H28610   7.304   6.739   2.508  0.8020 -1.3711 -0.5740
  953MOL0     H28611   7.531   6.724   2.555 -5.2594 -0.3772  2.1535
  953MOL0     H28612   7.565   6.798   2.395 -1.8705  1.3521  1.7969
  953MOL0     H28613   7.423   6.537   2.399 -0.2353  1.6292 -2.0631
  953MOL0     H28614   7.593   6.527   2.450  4.2250  3.6086 -0.7928
  953MOL0     H28615   7.782   6.648   2.394  2.4997  3.4449 -0.2897
  953MOL0     H28616   7.999   6.694   2.281  0.4207 -1.0392  1.7271
  953MOL0     H28617   8.277   6.441   1.971  0.4312 -0.3676 -0.9158
  953MOL0     H28618   8.512   6.466   1.868 -0.4873  3.5283  1.3504
  953MOL0     H28619   8.685   6.668   1.550  1.7226  0.3734  1.4827
  953MOL0     H28620   8.596   6.746   1.677  1.8569  0.3240  3.0969
  953MOL0     H28621   8.816   6.678   1.746 -1.7725  1.6512 -0.0200
  953MOL0     H28622   8.709   6.568   1.834  1.1826  1.5450  1.5776
  953MOL0     H28623   8.752   6.396   1.662  0.2734 -0.7734  1.5223
  953MOL0     H28624   8.863   6.500   1.573 -0.5235 -1.2497 -0.3464
  953MOL0     H28625   8.969   6.338   1.710  2.0601  2.7414 -3.6408
  953MOL0     H28626   8.885   6.398   1.862  2.8624 -1.8588  1.1815
  953MOL0     H28627   9.013   6.616   1.823  2.7429  1.3845 -1.2399
  953MOL0     H28628   9.089   6.532   1.676  0.8760 -2.0996  0.2098
  953MOL0     H28629   9.116   6.400   1.933  2.0662 -1.6078  0.4100
  953MOL0     H28630   9.205   6.385   1.775  0.0213  0.3175 -0.1235
  953MOL0     H28631   9.329   6.503   1.959 -0.9439 -0.3312  1.2755
  953MOL0     H28632   9.215   6.638   1.956  0.3363  3.0541 -3.1294
  953MOL0     H28633   9.266   6.700   1.734 -0.8746 -0.3317 -0.8096
  953MOL0     H28634   9.426   6.667   1.807  0.8749 -0.1347 -0.3828
  953MOL0     H28635   8.353   6.686   1.550 -1.1786 -2.2496 -1.9025
  953MOL0     H28636   8.128   6.717   1.681 -0.2677  0.8280  3.0817
  953MOL0     H28637   7.827   6.548   1.910  0.3877 -0.6079 -0.0944
  953MOL0     H28638   7.599   6.531   2.027  2.3907 -0.7912 -4.8785
  953MOL0     H28639   7.867   7.441   2.163  3.7415 -0.9790  1.4954
  953MOL0     H28640   8.117   7.487   2.119  1.6244  1.6826 -2.4984
  953MOL0     H28641   8.391   7.745   1.942 -1.9106  4.0056  0.6396
  953MOL0     H28642   8.602   7.790   1.836 -1.7356 -0.7728 -0.5443
  953MOL0     H28643   8.928   7.959   2.143 -0.5252  2.8583 -1.9382
  953MOL0     H28644   9.013   7.929   1.988  0.8052 -2.5994 -0.6989
  953MOL0     H28645   9.016   7.697   2.006 -1.1628 -1.6033  0.6101
  953MOL0     H28646   8.920   7.704   2.164  1.4474 -1.0768 -0.7981
  953MOL0     H28647   9.192   7.800   2.107  0.5872  0.4543  0.2183
  953MOL0     H28648   9.172   7.646   2.168 -0.0107  0.5005 -0.3337
  953MOL0     H28649   9.244   7.781   2.352  1.2914  3.2488 -2.0159
  953MOL0     H28650   9.115   7.906   2.318 -0.5934 -0.1965  1.0523
  953MOL0     H28651   8.885   7.630   2.537 -0.6722 -1.5646 -1.9017
  953MOL0     H28652   8.743   7.899   2.231  0.5100  0.6322 -0.1829
  953MOL0     H28653   8.619   7.810   2.428  0.6632 -0.7050 -0.2976
  953MOL0     H28654   8.483   7.930   2.397 -0.6452 -0.8320  3.2859
  953MOL0     H28655   8.458   7.757   2.425 -0.8718  0.3175  0.0124
  954MOL0     O28656  10.383   3.650   5.179  0.0152  0.0996  0.0910
  954MOL0     C28657  10.304   3.565   5.127 -0.3862 -0.4829 -0.2206
  954MOL0     O28658  10.300   3.432   5.152 -0.3401  0.2518  0.3783
  954MOL0     C28659  10.414   3.364   5.144  0.1664  0.6462 -0.2119
  954MOL0     C28660  10.537   3.416   5.091  0.7823  0.4125  0.3274
  954MOL0     C28661  10.647   3.331   5.082  0.5995  0.0101 -0.2683
  954MOL0     C28662  10.641   3.188   5.110  0.1373 -0.7002 -1.2276
  954MOL0     O28663  10.730   3.096   5.084 -0.2130  0.2336  0.7511
  954MOL0     C28664  10.859   3.126   5.034 -0.2433  0.6083 -0.6867
  954MOL0     C28665  10.950   3.009   5.075 -0.0647  0.9286 -0.3612
  954MOL0     C28666  10.945   2.992   5.224  0.6650 -0.2912 -0.5242
  954MOL0     C28667  11.044   2.887   5.260  0.6047  0.6377 -0.6144
  954MOL0     C28668  11.123   2.920   5.389 -0.1197  0.0908  0.1230
  954MOL0     C28669  11.233   3.020   5.357  0.0147 -0.1590 -0.3294
  954MOL0     C28670  11.296   3.076   5.486  0.3885 -0.4119 -0.2734
  954MOL0     C28671  11.444   3.132   5.466  0.6494 -0.4061  0.1269
  954MOL0     N28672  11.462   3.257   5.391 -1.4032  0.3014 -0.3381
  954MOL0     C28673  11.465   3.380   5.444  0.0676 -0.4024  0.1698
  954MOL0     C28674  11.491   3.460   5.332 -0.1591 -0.5971 -0.3977
  954MOL0     C28675  11.478   3.619   5.327 -0.2463  0.4378  0.1332
  954MOL0     C28676  11.613   3.681   5.353  0.7623 -0.3030  1.1017
  954MOL0     C28677  11.618   3.836   5.370  0.1806  0.5790 -0.0444
  954MOL0     C28678  11.752   3.881   5.428  1.0371  0.4546  0.3401
  954MOL0     O28679  11.780   3.870   5.568  0.7455 -0.4901 -0.5458
  954MOL0     C28680  11.907   3.879   5.590  0.0607  1.0337 -0.4078
  954MOL0     C28681  11.977   3.758   5.592 -0.5525 -0.3655  0.1117
  954MOL0     C28682  12.111   3.753   5.631  0.5892 -0.0291  0.6643
  954MOL0     C28683  12.174   3.867   5.674 -0.0314  1.2433  0.6891
  954MOL0     C28684  12.307   3.855   5.707  0.4792  0.0619 -1.2610
  954MOL0     O28685  12.372   3.966   5.745 -0.5633  0.0473 -0.0167
  954MOL0     C28686  12.505   3.966   5.741  0.3599 -0.2655  0.0788
  954MOL0     C28687  12.584   3.939   5.846 -0.3615  0.4764  0.3778
  954MOL0     C28688  12.722   3.937   5.833  0.8124  0.8894  0.4356
  954MOL0     C28689  12.778   3.991   5.714  0.6596 -0.3641  0.8333
  954MOL0     O28690  12.915   4.001   5.698 -0.4641  0.5783  0.1550
  954MOL0     C28691  12.957   3.913   5.592 -0.0297 -1.0615 -0.5149
  954MOL0     C28692  12.995   3.999   5.465 -0.0334  0.2480 -0.3774
  954MOL0     C28693  13.058   3.907   5.362  1.1645  0.6132  0.6316
  954MOL0     C28694  13.083   3.985   5.227 -0.5097  0.2331 -0.4019
  954MOL0     C28695  13.122   3.887   5.118 -0.7199  0.2317  0.4034
  954MOL0     C28696  13.160   3.953   4.988 -0.2312 -0.0669  1.0699
  954MOL0     C28697  13.204   3.834   4.890  0.2360 -0.1395 -0.8816
  954MOL0     C28698  13.274   3.891   4.763  0.2018 -0.0225 -0.6047
  954MOL0    Cl28699  13.442   3.949   4.814  0.0049  0.1438 -0.0846
  954MOL0     C28700  12.697   4.034   5.611  0.1426  0.5956  0.6225
  954MOL0     C28701  12.562   4.016   5.628 -0.3276 -0.3822  0.3341
  954MOL0     O28702  12.351   3.740   5.714 -0.0699 -0.2169  0.4240
  954MOL0     C28703  12.101   3.988   5.677 -0.6330 -0.1767 -0.4389
  954MOL0     C28704  11.971   3.997   5.640  0.6129  0.1687  0.1114
  954MOL0     N28705  11.497   3.390   5.215  0.2560  1.5916 -0.8633
  954MOL0     N28706  11.483   3.269   5.257 -0.1716 -0.3467 -0.4736
  954MOL0     C28707  10.518   3.141   5.159 -0.2879 -0.2846 -0.2360
  954MOL0     C28708  10.404   3.229   5.172 -0.9960 -0.6471 -0.0711
  954MOL0     C28709  10.190   3.603   5.037 -0.3874  0.9965 -0.2709
  954MOL0     C28710  10.102   3.508   4.979  0.4392 -0.3072 -0.4733
  954MOL0     C28711  10.004   3.539   4.883  0.2204  0.3738 -0.5278
  954MOL0     C28712   9.998   3.668   4.839 -0.0894  0.5148 -0.4868
  954MOL0     O28713   9.910   3.695   4.736 -0.2363 -0.5999  1.0533
  954MOL0     C28714   9.919   3.794   4.636 -0.1410 -0.6427 -0.7430
  954MOL0     C28715  10.052   3.786   4.555 -0.8931 -0.3091 -0.9974
  954MOL0     C28716  10.042   3.664   4.475  0.3838  0.3126  0.1922
  954MOL0     C28717  10.151   3.652   4.363 -0.2630  0.3139  0.8246
  954MOL0     C28718  10.100   3.737   4.248  0.0956  0.1915 -0.4426
  954MOL0     C28719  10.048   3.792   4.165  0.1940 -0.7290  0.5265
  954MOL0     C28720  10.079   3.768   4.894  0.5118 -0.0239  0.8388
  954MOL0     C28721  10.178   3.740   4.994  0.7761  0.6360 -0.5575
  954MOL0     C28722  10.257   3.861   5.036  0.2672 -0.6606  0.3664
  954MOL0     H28723  10.559   3.519   5.064 -1.1038  1.2045  1.5387
  954MOL0     H28724  10.747   3.367   5.059  0.9824 -0.2308  0.9623
  954MOL0     H28725  10.872   3.134   4.926  3.2806  5.3372 -0.2226
  954MOL0     H28726  10.881   3.222   5.082  3.5303  0.7454 -2.3376
  954MOL0     H28727  11.052   3.034   5.043  0.3779 -1.3269 -0.9162
  954MOL0     H28728  10.914   2.914   5.036 -1.0616  1.0124  0.3205
  954MOL0     H28729  10.848   2.959   5.262  1.9699 -0.3532  3.2880
  954MOL0     H28730  10.953   3.092   5.268 -2.8606 -0.6349  1.2432
  954MOL0     H28731  10.990   2.793   5.277  1.7581  0.3802  2.3783
  954MOL0     H28732  11.117   2.871   5.180  0.4218 -2.4643 -0.3002
  954MOL0     H28733  11.069   2.962   5.474 -0.6056 -0.7632  0.2478
  954MOL0     H28734  11.166   2.826   5.426 -1.1399  0.5445  2.6890
  954MOL0     H28735  11.314   2.973   5.298  0.1320 -1.3996  0.7717
  954MOL0     H28736  11.194   3.104   5.299 -0.8564 -1.3283 -1.5136
  954MOL0     H28737  11.316   2.992   5.553 -0.6348  1.6424  2.7660
  954MOL0     H28738  11.239   3.155   5.534 -0.2353 -0.5357 -0.7952
  954MOL0     H28739  11.502   3.124   5.559  1.8073  0.8067 -0.4524
  954MOL0     H28740  11.491   3.059   5.399  0.8418  0.7842 -1.0840
  954MOL0     H28741  11.434   3.414   5.543 -1.0684  2.6185 -1.1041
  954MOL0     H28742  11.437   3.649   5.230 -0.6989  1.0655  0.5113
  954MOL0     H28743  11.410   3.659   5.402 -0.5863  1.9399 -0.9268
  954MOL0     H28744  11.652   3.626   5.440  2.5178 -1.4943 -0.3573
  954MOL0     H28745  11.667   3.649   5.263 -3.4252 -1.0154 -1.3837
  954MOL0     H28746  11.544   3.867   5.445 -1.9388 -1.2247 -1.2747
  954MOL0     H28747  11.596   3.885   5.275  0.5180  0.9015  0.0406
  954MOL0     H28748  11.751   3.989   5.412 -3.5005  0.7907  1.5519
  954MOL0     H28749  11.837   3.833   5.379  0.4146 -0.3437  0.0257
  954MOL0     H28750  11.947   3.660   5.557  4.6563 -1.9829 -0.7381
  954MOL0     H28751  12.151   3.652   5.628 -1.8981 -1.1175  1.3474
  954MOL0     H28752  12.546   3.893   5.937  0.7766 -0.1794  0.5445
  954MOL0     H28753  12.786   3.927   5.920 -0.2482  0.3166  1.1810
  954MOL0     H28754  13.056   3.871   5.614  0.6349  0.9372  0.5543
  954MOL0     H28755  12.899   3.824   5.568 -3.2415  1.1991 -1.9174
  954MOL0     H28756  12.903   4.042   5.424 -2.3084 -2.7208  1.2106
  954MOL0     H28757  13.070   4.074   5.493 -0.6127  0.1997  1.3766
  954MOL0     H28758  13.139   3.845   5.398  2.5834  0.0297 -3.0750
  954MOL0     H28759  12.976   3.836   5.347  0.8676  1.4424 -2.3441
  954MOL0     H28760  13.161   4.061   5.237 -1.3678  0.9421  1.4077
  954MOL0     H28761  13.000   4.046   5.192 -0.9215  2.3628  3.6483
  954MOL0     H28762  13.050   3.807   5.098 -1.0132  0.6611 -0.3131
  954MOL0     H28763  13.212   3.835   5.152 -1.0632 -0.2944  0.5101
  954MOL0     H28764  13.074   4.004   4.944 -0.0923 -0.4015  0.4047
  954MOL0     H28765  13.237   4.029   5.003 -0.0255 -0.0005 -0.2320
  954MOL0     H28766  13.115   3.778   4.861  0.4438  0.0962 -2.0387
  954MOL0     H28767  13.272   3.772   4.948 -0.7885  1.5471  2.3536
  954MOL0     H28768  13.291   3.809   4.692  0.8716  0.5049 -1.0596
  954MOL0     H28769  13.211   3.966   4.715  0.9491  1.8391  1.1888
  954MOL0     H28770  12.729   4.074   5.515 -2.7798 -1.1021 -1.1947
  954MOL0     H28771  12.494   4.047   5.550  0.6644 -0.0030 -0.3967
  954MOL0     H28772  12.166   4.074   5.687 -1.5534  0.8895 -2.8457
  954MOL0     H28773  11.911   4.085   5.663  0.3187  0.0069 -0.0385
  954MOL0     H28774  10.484   3.039   5.171 -2.9116  0.7123  1.6504
  954MOL0     H28775  10.307   3.193   5.206 -1.2083  0.2196  0.2908
  954MOL0     H28776  10.098   3.405   5.014 -2.0650  0.6615  2.6747
  954MOL0     H28777   9.947   3.453   4.850 -0.3781  0.2626  0.7485
  954MOL0     H28778   9.919   3.893   4.682 -1.9246 -0.2051 -1.6165
  954MOL0     H28779   9.833   3.791   4.569 -0.0552  0.0150 -0.8886
  954MOL0     H28780  10.138   3.774   4.621 -1.5898  0.8569  0.1616
  954MOL0     H28781  10.041   3.874   4.491  0.7992  0.4581 -0.2635
  954MOL0     H28782   9.943   3.661   4.430 -0.0875 -3.1220  1.1182
  954MOL0     H28783  10.049   3.580   4.545  0.0508  0.8888  0.9271
  954MOL0     H28784  10.248   3.679   4.403  0.5695  0.8248 -1.3731
  954MOL0     H28785  10.159   3.546   4.334 -0.7152  1.1421 -2.9582
  954MOL0     H28786  10.003   3.855   4.091  0.2520 -2.9947 -1.5576
  954MOL0     H28787  10.073   3.869   4.854  1.9646 -0.2614 -0.0508
  954MOL0     H28788  10.351   3.873   4.980  2.8053  0.4184  4.4284
  954MOL0     H28789  10.193   3.950   5.030  0.7913 -0.3052 -0.0603
  954MOL0     H28790  10.274   3.840   5.141  2.4892 -1.1562 -0.0438
  955MOL0     O28791   5.618   2.945   5.939  0.3431  0.2137  0.4320
  955MOL0     C28792   5.586   3.065   5.951 -0.9728  0.5133  0.0771
  955MOL0     O28793   5.573   3.157   5.846  0.4316 -0.2706 -0.6211
  955MOL0     C28794   5.595   3.111   5.721  0.5861 -0.1085 -0.6057
  955MOL0     C28795   5.481   3.141   5.640 -0.1453  0.0163 -0.0017
  955MOL0     C28796   5.476   3.065   5.518  0.2518 -0.0112 -0.3855
  955MOL0     C28797   5.584   2.988   5.466 -0.4444  0.4706 -0.1464
  955MOL0     O28798   5.568   2.936   5.339 -0.0261 -0.4603  0.7696
  955MOL0     C28799   5.682   2.861   5.285  0.1367  0.1870  0.2115
  955MOL0     C28800   5.683   2.865   5.130 -0.4756 -0.6139  0.2646
  955MOL0     C28801   5.737   3.002   5.093 -0.3080 -0.2108 -0.9574
  955MOL0     C28802   5.758   3.004   4.938 -0.2272 -0.3688 -0.1990
  955MOL0     C28803   5.823   3.133   4.888  0.7405  0.6592 -0.3398
  955MOL0     C28804   5.730   3.246   4.887 -0.3124 -0.0608  0.9596
  955MOL0     C28805   5.646   3.254   4.756 -0.7669 -1.1909  0.3384
  955MOL0     C28806   5.703   3.358   4.660  0.4459  0.5867 -0.4155
  955MOL0     N28807   5.601   3.415   4.559 -0.8615 -0.8814  0.8327
  955MOL0     C28808   5.482   3.472   4.592  0.0326  0.4062  1.0912
  955MOL0     C28809   5.429   3.522   4.475  0.0172 -0.3081  0.1844
  955MOL0     C28810   5.312   3.612   4.469 -0.4392  0.6238  0.5226
  955MOL0     C28811   5.203   3.538   4.372 -0.2610 -0.9783  0.0510
  955MOL0     C28812   5.250   3.575   4.220  0.4292  0.0452 -0.4212
  955MOL0     C28813   5.145   3.513   4.124  0.6803 -0.2325 -0.0812
  955MOL0     O28814   5.170   3.566   3.994 -0.0507 -0.5286  0.7760
  955MOL0     C28815   5.050   3.567   3.915  0.0846 -0.0361 -0.1640
  955MOL0     C28816   4.938   3.484   3.937 -0.4079  0.1675  0.1871
  955MOL0     C28817   4.840   3.477   3.837  0.2113 -0.9189 -0.4570
  955MOL0     C28818   4.849   3.561   3.720 -0.2270  0.9968 -0.2197
  955MOL0     C28819   4.740   3.542   3.607 -0.2912 -0.0991  0.1910
  955MOL0     O28820   4.753   3.629   3.505 -0.4024  0.6799  0.3246
  955MOL0     C28821   4.687   3.594   3.387  0.8606 -0.6009  0.0325
  955MOL0     C28822   4.623   3.697   3.313 -0.5508 -0.2979  0.7919
  955MOL0     C28823   4.570   3.670   3.190 -0.3621  0.0929  0.8329
  955MOL0     C28824   4.566   3.536   3.135 -0.5837  0.0523 -0.3419
  955MOL0     O28825   4.503   3.515   3.017 -0.2683 -0.1577  0.1022
  955MOL0     C28826   4.435   3.384   2.998  0.5486 -1.1367 -0.4837
  955MOL0     C28827   4.303   3.386   3.077 -0.0971 -0.2324  0.6475
  955MOL0     C28828   4.233   3.263   3.041  0.2521  0.0712  0.5385
  955MOL0     C28829   4.286   3.138   3.124  1.0270 -0.8417 -0.0817
  955MOL0     C28830   4.170   3.030   3.133 -0.0229  0.4252  0.8520
  955MOL0     C28831   4.170   2.952   3.255  0.7142  0.1017  0.4395
  955MOL0     C28832   4.039   2.877   3.249  0.6124  0.0180  0.5063
  955MOL0     C28833   4.045   2.751   3.166 -0.5994  0.1720 -0.5840
  955MOL0    Cl28834   4.179   2.634   3.209 -0.2397 -0.1918  0.2617
  955MOL0     C28835   4.631   3.444   3.214 -0.1004 -0.1017 -0.7608
  955MOL0     C28836   4.686   3.471   3.333 -0.4273 -0.2955 -0.2762
  955MOL0     O28837   4.641   3.473   3.632  0.0130  0.6719  0.6759
  955MOL0     C28838   4.960   3.648   3.704  0.6727  0.6569  0.2696
  955MOL0     C28839   5.050   3.655   3.808  0.8840 -0.5274  0.5485
  955MOL0     N28840   5.521   3.491   4.376 -0.7844 -0.6205  0.4912
  955MOL0     N28841   5.619   3.427   4.423  1.0483  0.2747  0.2231
  955MOL0     C28842   5.691   2.963   5.560  0.0239 -0.5762  0.2091
  955MOL0     C28843   5.699   3.028   5.680  0.0659 -0.8289  0.2348
  955MOL0     C28844   5.581   3.116   6.089 -0.2066  0.4701 -0.8358
  955MOL0     C28845   5.593   3.251   6.105 -0.1742 -1.1518 -0.1611
  955MOL0     C28846   5.597   3.319   6.232  0.5007  1.1478  0.0723
  955MOL0     C28847   5.562   3.237   6.342 -0.9426 -0.1377  0.8411
  955MOL0     O28848   5.527   3.292   6.466 -0.0355  0.5915  0.4907
  955MOL0     C28849   5.400   3.332   6.496  0.3547 -0.4446 -0.5768
  955MOL0     C28850   5.379   3.468   6.431  0.8809 -1.0671 -0.2672
  955MOL0     C28851   5.486   3.572   6.471  0.0979 -0.3281 -0.4379
  955MOL0     C28852   5.427   3.711   6.494  0.3288 -0.4747 -0.8992
  955MOL0     C28853   5.388   3.758   6.359  0.7394 -0.3499  0.5975
  955MOL0     C28854   5.355   3.800   6.254 -0.4625 -0.6556  0.0390
  955MOL0     C28855   5.546   3.100   6.329 -0.0518  0.4135  0.1192
  955MOL0     C28856   5.572   3.035   6.204 -0.7709  1.0146 -0.6599
  955MOL0     C28857   5.570   2.886   6.211 -0.9171 -0.4092 -0.7426
  955MOL0     H28858   5.387   3.178   5.678 -0.4403 -0.7405  0.0254
  955MOL0     H28859   5.403   3.085   5.440  1.0300 -3.7393 -2.3381
  955MOL0     H28860   5.783   2.892   5.312 -0.2385  0.0280  1.8820
  955MOL0     H28861   5.663   2.760   5.323 -0.6289  0.5607  0.8387
  955MOL0     H28862   5.586   2.846   5.083  0.4842 -2.2390 -1.1931
  955MOL0     H28863   5.756   2.795   5.088 -1.0130 -1.7485  1.1592
  955MOL0     H28864   5.834   3.025   5.138 -1.2057  0.7568  0.5705
  955MOL0     H28865   5.666   3.078   5.129  0.4495 -0.8351  2.1199
  955MOL0     H28866   5.818   2.916   4.916 -0.3982 -0.8420  1.0893
  955MOL0     H28867   5.660   2.991   4.891  1.4252 -2.0481 -3.5102
  955MOL0     H28868   5.909   3.156   4.953  1.1112 -1.8738  0.1694
  955MOL0     H28869   5.858   3.116   4.786 -0.5856  3.9955 -1.4874
  955MOL0     H28870   5.662   3.225   4.970 -0.9163 -1.0967  0.2210
  955MOL0     H28871   5.773   3.343   4.913  0.0437  0.6426 -1.8628
  955MOL0     H28872   5.551   3.292   4.793  1.0270  1.0881  3.1134
  955MOL0     H28873   5.628   3.158   4.708 -1.7372 -1.7045  1.6561
  955MOL0     H28874   5.738   3.444   4.718 -2.0442  2.0254 -0.8896
  955MOL0     H28875   5.782   3.312   4.601  0.9021  0.7770  0.0399
  955MOL0     H28876   5.435   3.478   4.690 -1.3978  1.2015  0.3857
  955MOL0     H28877   5.272   3.628   4.570 -0.9048 -1.5909  0.7319
  955MOL0     H28878   5.335   3.713   4.434 -4.8084  0.9902 -2.0731
  955MOL0     H28879   5.211   3.430   4.386  0.6514 -0.6994  2.1402
  955MOL0     H28880   5.098   3.565   4.393  0.3633  2.2785 -0.3925
  955MOL0     H28881   5.353   3.542   4.203  0.3416 -2.7664  3.1364
  955MOL0     H28882   5.244   3.683   4.204  5.4359  0.8242  1.3463
  955MOL0     H28883   5.039   3.532   4.142  0.8347  0.0767  0.5250
  955MOL0     H28884   5.155   3.404   4.119 -1.1039 -0.3990 -0.5147
  955MOL0     H28885   4.934   3.410   4.017 -3.7297  1.4952  1.4427
  955MOL0     H28886   4.766   3.399   3.849  1.4585 -1.8122  2.2541
  955MOL0     H28887   4.619   3.801   3.343 -1.7026  0.3593 -1.3783
  955MOL0     H28888   4.506   3.744   3.143 -1.0393 -1.2570 -0.4460
  955MOL0     H28889   4.402   3.376   2.895 -1.6205 -1.1500  0.1673
  955MOL0     H28890   4.504   3.302   3.022 -0.0326 -1.0250  1.8160
  955MOL0     H28891   4.311   3.390   3.186 -0.0184  0.0167  0.6337
  955MOL0     H28892   4.254   3.473   3.031  0.3155 -0.2605  0.1420
  955MOL0     H28893   4.128   3.291   3.052  0.6056  2.7774 -1.8801
  955MOL0     H28894   4.251   3.244   2.935  2.1641  4.4997 -0.1430
  955MOL0     H28895   4.319   3.173   3.222 -1.1333 -1.3507  0.8698
  955MOL0     H28896   4.371   3.097   3.069  1.6127  0.4984 -0.2212
  955MOL0     H28897   4.169   2.966   3.044 -0.6780  0.8862  0.5228
  955MOL0     H28898   4.069   3.072   3.127 -0.8449 -0.6355  4.4379
  955MOL0     H28899   4.258   2.888   3.251  2.4588  2.4291 -1.4358
  955MOL0     H28900   4.181   3.024   3.336  2.9528 -2.2354  2.3745
  955MOL0     H28901   3.954   2.934   3.211  0.1902  0.0903  1.5223
  955MOL0     H28902   4.025   2.848   3.353  0.3438 -2.1151 -0.0958
  955MOL0     H28903   3.949   2.699   3.163 -0.0151 -1.5062  3.4096
  955MOL0     H28904   4.053   2.776   3.060  1.3746  0.6071 -0.3858
  955MOL0     H28905   4.642   3.340   3.186  2.9905  0.4051 -1.9380
  955MOL0     H28906   4.728   3.384   3.382 -1.6875 -0.5516  0.4090
  955MOL0     H28907   4.980   3.704   3.613  3.3427  0.3992  0.6112
  955MOL0     H28908   5.134   3.723   3.801  1.7394 -1.7368 -2.5936
  955MOL0     H28909   5.778   2.905   5.533 -0.2285 -1.5945  1.5044
  955MOL0     H28910   5.788   3.010   5.739  3.1305 -3.7858 -4.5744
  955MOL0     H28911   5.596   3.305   6.010 -1.1840 -1.2344 -0.2546
  955MOL0     H28912   5.595   3.426   6.248 -3.6386  1.2828 -0.2080
  955MOL0     H28913   5.392   3.339   6.605  0.5801  0.2497 -0.5970
  955MOL0     H28914   5.325   3.260   6.464  0.3006  0.4582 -2.6412
  955MOL0     H28915   5.283   3.509   6.463  0.6044 -0.9995 -1.1564
  955MOL0     H28916   5.382   3.472   6.322  1.5813  4.0466 -0.3229
  955MOL0     H28917   5.561   3.584   6.393 -2.0177  0.8556 -2.4450
  955MOL0     H28918   5.542   3.544   6.560  1.1129  0.1648 -0.9043
  955MOL0     H28919   5.340   3.715   6.560  2.9815 -0.7608  2.9222
  955MOL0     H28920   5.510   3.767   6.537  0.4617  0.7675 -2.6526
  955MOL0     H28921   5.319   3.835   6.159  0.1255 -1.7002 -0.5973
  955MOL0     H28922   5.539   3.046   6.423  4.3896 -1.5115 -0.4221
  955MOL0     H28923   5.579   2.852   6.314  2.2391 -3.3518 -1.8326
  955MOL0     H28924   5.485   2.834   6.167 -0.4157 -0.7508 -1.3150
  955MOL0     H28925   5.660   2.854   6.159 -1.5157 -0.1969 -1.9639
  956MOL0     O28926   6.683   2.696   9.736 -0.0349 -0.6060 -0.6420
  956MOL0     C28927   6.695   2.603   9.655  0.2239  0.5028  0.0531
  956MOL0     O28928   6.603   2.565   9.575 -0.4563 -0.3379  0.2121
  956MOL0     C28929   6.480   2.619   9.592 -0.2205 -0.5435 -0.1591
  956MOL0     C28930   6.447   2.745   9.562  0.4897 -0.2349 -0.1218
  956MOL0     C28931   6.314   2.786   9.592 -0.0205 -0.3514 -0.2139
  956MOL0     C28932   6.226   2.700   9.653  0.3305 -0.9140 -0.4570
  956MOL0     O28933   6.103   2.750   9.692  0.2202  0.0318 -0.7343
  956MOL0     C28934   5.985   2.675   9.668 -0.6498 -0.2874  0.7436
  956MOL0     C28935   5.937   2.714   9.528 -0.4787  0.0463  0.8619
  956MOL0     C28936   5.790   2.737   9.495  0.2166 -0.1804 -0.9127
  956MOL0     C28937   5.724   2.604   9.467 -0.1209  0.1512 -1.1184
  956MOL0     C28938   5.696   2.506   9.581  0.6419  0.3697 -1.1464
  956MOL0     C28939   5.607   2.556   9.693 -0.2131 -0.0621 -0.6761
  956MOL0     C28940   5.585   2.446   9.787 -0.1068  1.0550 -0.1514
  956MOL0     C28941   5.496   2.478   9.910  0.4580 -0.0151 -0.3550
  956MOL0     N28942   5.535   2.608   9.959  0.2840  0.4196 -0.2399
  956MOL0     C28943   5.579   2.619  10.090 -0.0949  0.3381  0.4052
  956MOL0     C28944   5.545   2.743  10.124 -0.2716 -0.0305 -0.8604
  956MOL0     C28945   5.584   2.789  10.266 -0.8341 -0.5842 -0.4471
  956MOL0     C28946   5.731   2.826  10.257  0.0638 -0.3315 -1.0974
  956MOL0     C28947   5.735   2.977  10.240  0.2808  0.3211  1.2703
  956MOL0     C28948   5.873   3.032  10.206  0.7400 -0.6222 -0.7557
  956MOL0     O28949   5.983   2.963  10.280  0.1860 -0.9409  0.3123
  956MOL0     C28950   6.062   2.875  10.223  0.1446 -0.3920  0.2132
  956MOL0     C28951   6.026   2.796  10.111  0.4631 -0.0631 -1.1585
  956MOL0     C28952   6.097   2.689  10.064  0.1231  0.3694 -0.2256
  956MOL0     C28953   6.205   2.650  10.143  0.0307 -1.3103 -0.4692
  956MOL0     C28954   6.296   2.537  10.110  0.0415 -0.0517 -0.8326
  956MOL0     O28955   6.429   2.557  10.122 -0.0979 -0.2930 -0.2368
  956MOL0     C28956   6.506   2.449  10.077 -0.3779  0.2710 -0.3006
  956MOL0     C28957   6.559   2.455   9.947  0.0336  1.1969 -0.4519
  956MOL0     C28958   6.646   2.360   9.902 -0.0675 -0.5201 -0.6687
  956MOL0     C28959   6.675   2.252   9.988  0.6801  0.2633 -0.4570
  956MOL0     O28960   6.758   2.147   9.945 -0.1726 -0.0850 -0.0911
  956MOL0     C28961   6.843   2.176   9.828  0.1993  0.5295  0.1191
  956MOL0     C28962   6.977   2.103   9.862 -0.0584  1.0313  1.0163
  956MOL0     C28963   7.053   2.072   9.727  0.0556 -0.0165 -0.1311
  956MOL0     C28964   7.001   1.950   9.641 -0.5105 -0.3065  0.2230
  956MOL0     C28965   7.115   1.929   9.533 -0.0416  0.2453  0.1203
  956MOL0     C28966   7.218   1.835   9.576 -0.4502  0.5392  0.3187
  956MOL0     C28967   7.350   1.863   9.501 -0.7976 -0.1093 -0.8157
  956MOL0     C28968   7.351   1.813   9.363 -0.3102  0.3226 -0.3312
  956MOL0    Cl28969   7.503   1.827   9.276 -0.0613  0.3471  0.2003
  956MOL0     C28970   6.620   2.247  10.119 -0.6492 -0.5490 -0.5815
  956MOL0     C28971   6.532   2.346  10.162 -0.4110 -0.3022 -0.1047
  956MOL0     O28972   6.250   2.424  10.102  0.2278  0.8200  0.3876
  956MOL0     C28973   6.256   2.745  10.247  0.5244 -0.1351 -0.3147
  956MOL0     C28974   6.178   2.848  10.290 -0.3078  0.2932  0.3578
  956MOL0     N28975   5.501   2.815  10.016  0.0669  0.0054 -0.2497
  956MOL0     N28976   5.479   2.726   9.924 -0.1454  0.3820 -0.1444
  956MOL0     C28977   6.267   2.570   9.689  1.2670  0.5782  0.1401
  956MOL0     C28978   6.383   2.529   9.653  0.1513 -0.5051 -1.0301
  956MOL0     C28979   6.826   2.535   9.641 -0.4070  1.5114  0.1466
  956MOL0     C28980   6.857   2.456   9.530  0.2153 -0.2695 -0.3757
  956MOL0     C28981   6.979   2.392   9.522  0.1702  0.4600  0.4348
  956MOL0     C28982   7.080   2.413   9.610 -0.3813 -0.7008 -1.2301
  956MOL0     O28983   7.202   2.341   9.582 -0.3784  0.6609  1.1881
  956MOL0     C28984   7.312   2.427   9.590  0.2786 -0.8073  0.2912
  956MOL0     C28985   7.423   2.371   9.500  1.0332 -0.5262  0.3580
  956MOL0     C28986   7.438   2.459   9.378 -0.1193 -0.2857  0.5358
  956MOL0     C28987   7.325   2.440   9.279  0.4327 -0.8666 -0.5207
  956MOL0     C28988   7.293   2.303   9.237 -0.0663 -0.4943  0.1633
  956MOL0     C28989   7.249   2.185   9.216 -0.3634 -0.2966  0.2627
  956MOL0     C28990   7.053   2.483   9.726 -0.4815  0.2425  0.2353
  956MOL0     C28991   6.924   2.535   9.747 -0.3323 -1.0279 -0.7962
  956MOL0     C28992   6.910   2.605   9.881  0.2919 -0.2177  0.6311
  956MOL0     H28993   6.508   2.823   9.519  1.9892 -0.3844  1.6450
  956MOL0     H28994   6.282   2.888   9.571  3.7890  0.6984 -1.7527
  956MOL0     H28995   6.016   2.571   9.681  2.7473  0.0687 -2.8313
  956MOL0     H28996   5.903   2.689   9.740  0.8501  0.6817  2.3408
  956MOL0     H28997   5.984   2.644   9.458 -1.8040  2.1370 -2.3692
  956MOL0     H28998   5.991   2.805   9.499  2.2086 -0.9381  2.4131
  956MOL0     H28999   5.771   2.807   9.414 -1.3134 -0.2506 -0.6423
  956MOL0     H29000   5.749   2.794   9.579  1.3746 -2.0879  1.0490
  956MOL0     H29001   5.634   2.617   9.407 -1.1673  0.6461  0.4962
  956MOL0     H29002   5.776   2.552   9.386  3.1046  3.1136 -1.1926
  956MOL0     H29003   5.634   2.425   9.543 -1.4522  0.3735  1.9082
  956MOL0     H29004   5.795   2.467   9.606 -0.5489 -1.2312  1.5441
  956MOL0     H29005   5.653   2.645   9.738  0.0118 -0.4748 -0.0718
  956MOL0     H29006   5.513   2.587   9.646  0.1924 -1.2056 -2.3390
  956MOL0     H29007   5.686   2.424   9.819  0.4338  3.7459  0.2823
  956MOL0     H29008   5.529   2.365   9.739  0.4713 -0.3794  1.5088
  956MOL0     H29009   5.391   2.479   9.878 -0.2225 -1.1043  1.7167
  956MOL0     H29010   5.504   2.400   9.985 -1.5074  0.8608  0.8384
  956MOL0     H29011   5.610   2.539  10.157 -0.5064  0.9107  1.3046
  956MOL0     H29012   5.519   2.871  10.298 -1.7368 -2.2103  2.1432
  956MOL0     H29013   5.567   2.710  10.340  2.7330  0.7215  2.0370
  956MOL0     H29014   5.775   2.792  10.351 -0.1290  0.4547 -0.7121
  956MOL0     H29015   5.776   2.770  10.175  1.1455 -2.2881  0.7477
  956MOL0     H29016   5.689   3.024  10.327  0.9834 -1.7439  2.8354
  956MOL0     H29017   5.674   2.990  10.150  2.6859 -1.3601 -0.7509
  956MOL0     H29018   5.871   3.131  10.252 -2.3542 -0.3960 -1.2152
  956MOL0     H29019   5.891   3.044  10.099 -1.5796  1.0755 -1.0139
  956MOL0     H29020   5.941   2.832  10.054  0.2034  0.0110 -0.7276
  956MOL0     H29021   6.078   2.628   9.977 -0.0455  0.5737 -0.3331
  956MOL0     H29022   6.537   2.542   9.885  0.2565  0.0922 -2.1512
  956MOL0     H29023   6.667   2.356   9.796  1.3421 -0.4645 -0.4118
  956MOL0     H29024   6.801   2.144   9.733  1.4163 -1.3590  0.1791
  956MOL0     H29025   6.874   2.281   9.824  1.6362  0.2396  2.0468
  956MOL0     H29026   7.024   2.171   9.934 -0.9216  3.2143 -0.3693
  956MOL0     H29027   6.953   2.011   9.915 -1.2810 -0.8325 -2.5093
  956MOL0     H29028   7.041   2.158   9.661 -0.3268 -0.6453 -0.8971
  956MOL0     H29029   7.156   2.054   9.758  0.2722 -1.6591 -1.6354
  956MOL0     H29030   6.911   1.982   9.588 -0.1469 -0.3603 -0.4462
  956MOL0     H29031   6.995   1.855   9.695  3.4450  0.2485  2.0140
  956MOL0     H29032   7.164   2.021   9.498  0.1031 -0.8023 -2.7014
  956MOL0     H29033   7.069   1.874   9.450 -0.1901 -0.7777  0.8650
  956MOL0     H29034   7.230   1.859   9.683 -0.7434 -0.3707  0.5675
  956MOL0     H29035   7.190   1.732   9.555  0.3142  0.6468 -1.3489
  956MOL0     H29036   7.441   1.829   9.553  0.7648  2.3872 -1.7626
  956MOL0     H29037   7.360   1.972   9.497 -2.2931  0.2940  2.5835
  956MOL0     H29038   7.333   1.706   9.377  3.4447 -0.2207  1.3160
  956MOL0     H29039   7.275   1.857   9.297  0.2459  3.7591  1.0632
  956MOL0     H29040   6.631   2.163  10.187 -3.0127 -1.2540 -1.0014
  956MOL0     H29041   6.472   2.343  10.253 -1.3490  0.9112 -0.6579
  956MOL0     H29042   6.340   2.699  10.298  0.3121 -1.3576 -1.0208
  956MOL0     H29043   6.204   2.908  10.377 -0.7727 -0.0049  0.7055
  956MOL0     H29044   6.203   2.498   9.739  0.8569  0.7257 -0.1708
  956MOL0     H29045   6.413   2.425   9.660 -1.8141 -1.1343 -1.2705
  956MOL0     H29046   6.780   2.420   9.463 -0.5683  1.9501 -0.7352
  956MOL0     H29047   6.989   2.326   9.436 -0.5952  1.6074 -0.5767
  956MOL0     H29048   7.358   2.430   9.690  0.9408  1.3788 -0.0232
  956MOL0     H29049   7.292   2.531   9.563 -0.0562 -0.7753  0.6522
  956MOL0     H29050   7.418   2.265   9.476 -0.1223 -0.1822 -1.0495
  956MOL0     H29051   7.519   2.378   9.552  2.3529  0.1275 -2.0035
  956MOL0     H29052   7.533   2.435   9.328  0.4289  3.3787 -0.4488
  956MOL0     H29053   7.435   2.565   9.404 -0.5874  0.6601 -2.8530
  956MOL0     H29054   7.233   2.488   9.316 -1.3752 -2.0497 -3.2080
  956MOL0     H29055   7.349   2.512   9.200  2.1624  2.8248  2.9417
  956MOL0     H29056   7.211   2.086   9.202  0.0136 -0.1187 -2.5920
  956MOL0     H29057   7.113   2.486   9.816 -3.1522  0.6577  2.1042
  956MOL0     H29058   6.918   2.713   9.868  0.9545 -0.3157  0.1566
  956MOL0     H29059   6.810   2.588   9.923 -0.3613  1.8925  0.0471
  956MOL0     H29060   6.976   2.571   9.961 -1.4989  0.4333  2.4674
  957MOL0     O29061   7.433   1.352  11.243  0.0367  0.4681  0.7224
  957MOL0     C29062   7.471   1.242  11.253 -0.8181  0.7730 -0.1579
  957MOL0     O29063   7.499   1.175  11.372 -0.1854 -0.4055 -0.4037
  957MOL0     C29064   7.462   1.244  11.487 -0.9399  1.2474 -1.0936
  957MOL0     C29065   7.554   1.305  11.571 -0.4410 -0.2052 -0.3786
  957MOL0     C29066   7.519   1.362  11.688 -0.4671 -0.3830 -0.0954
  957MOL0     C29067   7.388   1.366  11.733 -0.0186  0.4091  0.6225
  957MOL0     O29068   7.344   1.421  11.850  0.4763  0.1528  0.5596
  957MOL0     C29069   7.424   1.501  11.944 -0.4309 -0.1994 -0.1151
  957MOL0     C29070   7.479   1.415  12.065  0.1418  0.1901 -0.2110
  957MOL0     C29071   7.608   1.471  12.130  0.3651  0.3158 -0.6494
  957MOL0     C29072   7.572   1.607  12.208 -0.4661 -0.3775  0.6942
  957MOL0     C29073   7.687   1.660  12.279  0.0603 -0.0690  0.7201
  957MOL0     C29074   7.672   1.790  12.360 -0.3925 -0.4674 -0.2343
  957MOL0     C29075   7.785   1.794  12.474  0.9135  0.8656  0.1077
  957MOL0     C29076   7.745   1.909  12.577  0.4785  0.6893  0.0911
  957MOL0     N29077   7.744   2.046  12.523 -0.2199 -0.8719 -0.4448
  957MOL0     C29078   7.676   2.153  12.581 -0.3696 -0.0053 -0.6663
  957MOL0     C29079   7.687   2.258  12.499 -0.0331  0.1703 -0.6631
  957MOL0     C29080   7.604   2.382  12.492 -0.7570 -0.5323 -0.5459
  957MOL0     C29081   7.464   2.380  12.544 -0.5704 -0.3081  0.7848
  957MOL0     C29082   7.385   2.259  12.494 -0.2807  0.7167 -0.1578
  957MOL0     C29083   7.418   2.183  12.361 -0.2601  0.7532  0.6555
  957MOL0     O29084   7.307   2.117  12.313  0.2637 -0.1800  0.0869
  957MOL0     C29085   7.314   2.076  12.183  0.5098  0.6140  0.3000
  957MOL0     C29086   7.193   2.037  12.119  0.0529 -0.5532  1.2398
  957MOL0     C29087   7.184   1.995  11.988 -0.4603 -0.0154 -0.2988
  957MOL0     C29088   7.298   1.986  11.914  0.6671 -0.4184  0.2549
  957MOL0     C29089   7.294   1.908  11.785  0.8110 -0.2744  0.6396
  957MOL0     O29090   7.170   1.884  11.728  0.2089  0.7273  0.0874
  957MOL0     C29091   7.155   1.799  11.615  0.9352 -0.1576 -0.1416
  957MOL0     C29092   7.248   1.708  11.559 -0.5102  0.2973 -0.1192
  957MOL0     C29093   7.214   1.619  11.464  0.3086  0.5358  0.7059
  957MOL0     C29094   7.092   1.616  11.408  0.0699  0.2567  0.6093
  957MOL0     O29095   7.076   1.547  11.290 -0.1608 -0.9042  0.1522
  957MOL0     C29096   7.126   1.612  11.172  0.8678  1.2222 -0.1665
  957MOL0     C29097   7.026   1.725  11.111  0.3020 -0.1990 -1.4310
  957MOL0     C29098   7.085   1.800  10.988 -0.5753  0.2009 -0.9449
  957MOL0     C29099   7.006   1.926  10.948 -0.7078 -0.9789  0.5940
  957MOL0     C29100   7.093   2.019  10.850  0.2990 -0.0861 -0.3829
  957MOL0     C29101   7.164   1.947  10.739 -0.0348  0.7788 -0.7334
  957MOL0     C29102   7.258   2.042  10.669  0.0674  0.9822  0.1707
  957MOL0     C29103   7.282   1.987  10.530 -0.2440  0.1315  0.0225
  957MOL0    Cl29104   7.380   2.098  10.432 -0.8879 -0.1657  0.1551
  957MOL0     C29105   6.993   1.704  11.454 -0.8455 -0.5545 -0.6668
  957MOL0     C29106   7.029   1.798  11.554 -0.7964 -0.6791  0.5524
  957MOL0     O29107   7.400   1.896  11.720  1.1150  0.0616  0.2784
  957MOL0     C29108   7.429   2.018  11.975  1.9962 -0.1757  0.6178
  957MOL0     C29109   7.433   2.066  12.102  0.9337  0.8362 -0.4172
  957MOL0     N29110   7.776   2.223  12.402 -0.0942 -0.0247  0.1519
  957MOL0     N29111   7.805   2.097  12.412  0.2713  0.0575 -0.2503
  957MOL0     C29112   7.288   1.318  11.647  0.2363  0.7346 -0.2861
  957MOL0     C29113   7.324   1.258  11.522  0.1156 -0.2614 -0.1432
  957MOL0     C29114   7.484   1.150  11.141  0.8183 -0.6587  0.3996
  957MOL0     C29115   7.429   1.021  11.157  0.2877 -1.2482  0.0060
  957MOL0     C29116   7.444   0.926  11.057 -1.9516 -0.1142 -0.2164
  957MOL0     C29117   7.499   0.960  10.937  0.6127 -0.6295 -0.5508
  957MOL0     O29118   7.509   0.863  10.847  0.0987 -0.1640  0.2000
  957MOL0     C29119   7.639   0.863  10.775 -0.3149 -0.0523 -0.0961
  957MOL0     C29120   7.771   0.845  10.854 -1.3155 -0.0186 -0.0836
  957MOL0     C29121   7.803   0.706  10.908  0.4043  0.5951 -0.4790
  957MOL0     C29122   7.933   0.729  10.980 -0.4885  0.3364 -0.5193
  957MOL0     C29123   7.992   0.618  11.052 -0.9323  0.5525  0.2678
  957MOL0     C29124   8.064   0.519  11.083 -0.8768 -0.2600  0.8107
  957MOL0     C29125   7.529   1.098  10.914 -1.1695  0.4738  0.8777
  957MOL0     C29126   7.526   1.192  11.016 -0.4316 -0.6537 -0.0135
  957MOL0     C29127   7.578   1.328  10.975 -0.8586 -0.2325 -0.5077
  957MOL0     H29128   7.660   1.313  11.551 -0.1202 -2.1544  0.3379
  957MOL0     H29129   7.596   1.407  11.749 -0.3942 -1.3630  0.5653
  957MOL0     H29130   7.502   1.551  11.885 -1.4724  1.8639  0.1466
  957MOL0     H29131   7.362   1.584  11.980  0.1324 -0.7384  2.2670
  957MOL0     H29132   7.499   1.313  12.029  3.0043  0.4658  0.4075
  957MOL0     H29133   7.393   1.402  12.131 -0.1454  0.7382 -0.4718
  957MOL0     H29134   7.690   1.492  12.060  0.9514 -0.4198 -0.2037
  957MOL0     H29135   7.668   1.399  12.188  3.0537  1.3602 -1.9447
  957MOL0     H29136   7.537   1.686  12.141  0.7805  0.0513  0.5266
  957MOL0     H29137   7.495   1.593  12.285 -0.7261 -0.5294  0.4077
  957MOL0     H29138   7.702   1.593  12.364  1.6924  1.5421  1.7698
  957MOL0     H29139   7.777   1.662  12.217 -0.5928  3.6482 -0.3451
  957MOL0     H29140   7.682   1.877  12.295 -1.9252  0.6241  0.9137
  957MOL0     H29141   7.575   1.810  12.406  0.9071 -0.8443  2.9847
  957MOL0     H29142   7.875   1.809  12.414  0.4812  1.2857 -0.4494
  957MOL0     H29143   7.797   1.701  12.529 -1.1904  1.0028  0.8971
  957MOL0     H29144   7.644   1.889  12.616  1.4829 -1.1765  1.9491
  957MOL0     H29145   7.825   1.915  12.651  0.7398 -1.4234  0.0255
  957MOL0     H29146   7.603   2.153  12.661  0.7982 -2.0326  0.4632
  957MOL0     H29147   7.664   2.464  12.531 -0.7280  0.0812 -1.8442
  957MOL0     H29148   7.586   2.407  12.388  0.0402 -0.8959 -0.7762
  957MOL0     H29149   7.473   2.376  12.652  0.1371  2.0285  0.8735
  957MOL0     H29150   7.414   2.475  12.522 -2.0811 -1.6445 -2.2271
  957MOL0     H29151   7.279   2.283  12.486 -1.0168 -2.4762 -1.2546
  957MOL0     H29152   7.391   2.195  12.583 -1.8454  1.7785  0.7484
  957MOL0     H29153   7.500   2.111  12.369  1.4369  2.1308 -2.3570
  957MOL0     H29154   7.451   2.256  12.286  2.1575 -0.1611  0.7434
  957MOL0     H29155   7.098   2.041  12.171 -1.1368  3.1756 -0.8838
  957MOL0     H29156   7.095   1.947  11.948 -2.3166  0.5245  2.8484
  957MOL0     H29157   7.350   1.702  11.595  0.5642  0.3133 -2.9169
  957MOL0     H29158   7.292   1.556  11.422 -1.5119 -2.1960  1.1761
  957MOL0     H29159   7.225   1.657  11.180  2.4141 -1.8034 -0.8831
  957MOL0     H29160   7.147   1.530  11.102  2.3239  0.0276  1.5964
  957MOL0     H29161   6.937   1.674  11.074 -0.4831  1.7186 -2.3005
  957MOL0     H29162   6.986   1.789  11.190 -0.0777 -3.3873  1.1776
  957MOL0     H29163   7.179   1.846  11.018 -1.1165  1.9559 -1.8127
  957MOL0     H29164   7.099   1.720  10.915  0.2877 -2.2938  1.7551
  957MOL0     H29165   6.982   1.985  11.038  0.7662  0.5084  0.0869
  957MOL0     H29166   6.916   1.895  10.895  0.9573 -1.9077 -1.8608
  957MOL0     H29167   7.171   2.061  10.914 -1.2843 -0.4485  1.9053
  957MOL0     H29168   7.033   2.105  10.820  1.5650  1.4875  1.3998
  957MOL0     H29169   7.222   1.872  10.793 -1.6259  1.2742  1.7948
  957MOL0     H29170   7.087   1.908  10.673 -1.1686  2.1238 -0.2593
  957MOL0     H29171   7.352   2.063  10.722  1.5188 -1.8122 -1.1042
  957MOL0     H29172   7.209   2.140  10.666  2.9167  2.5135  0.3922
  957MOL0     H29173   7.325   1.888  10.548  0.5048  0.6988  1.6029
  957MOL0     H29174   7.183   1.976  10.485  0.1918 -0.0194 -0.9330
  957MOL0     H29175   6.893   1.706  11.412 -0.9532 -0.2544 -0.4025
  957MOL0     H29176   6.965   1.878  11.589 -0.6665 -1.4873  2.7652
  957MOL0     H29177   7.517   2.016  11.911  1.7624  0.5028  0.2639
  957MOL0     H29178   7.529   2.098  12.139  1.3244  0.7163 -1.2895
  957MOL0     H29179   7.183   1.333  11.672 -0.7388 -3.9156 -0.5586
  957MOL0     H29180   7.239   1.238  11.457  1.0578 -0.2133 -1.4218
  957MOL0     H29181   7.381   0.998  11.251  2.6418 -0.3960  1.4893
  957MOL0     H29182   7.416   0.821  11.066 -1.1482 -0.2790  0.5725
  957MOL0     H29183   7.643   0.950  10.709 -2.2859  2.8798  3.3175
  957MOL0     H29184   7.639   0.777  10.707 -0.8173 -1.2444  1.3678
  957MOL0     H29185   7.763   0.919  10.935  2.1055 -0.4312  0.7705
  957MOL0     H29186   7.850   0.863  10.781 -3.4684 -0.7354 -2.7739
  957MOL0     H29187   7.811   0.638  10.822  2.0401  0.8568 -0.5597
  957MOL0     H29188   7.727   0.660  10.973 -2.6496 -1.0056 -4.7284
  957MOL0     H29189   8.016   0.759  10.916  1.8948 -1.4635  1.5380
  957MOL0     H29190   7.919   0.812  11.051  3.3725  1.8414 -1.2513
  957MOL0     H29191   8.109   0.428  11.116 -1.4944 -1.6302 -1.8844
  957MOL0     H29192   7.557   1.126  10.813  0.4308  4.0398  2.1440
  957MOL0     H29193   7.621   1.338  10.875  2.9102 -3.2283  0.5640
  957MOL0     H29194   7.494   1.398  10.975 -1.4753 -0.8706 -2.9847
  957MOL0     H29195   7.658   1.361  11.042  0.8799 -1.1039 -2.0480
  958MOL0     O29196   1.639   4.644   0.554  0.0429 -0.6591 -0.3357
  958MOL0     C29197   1.661   4.666   0.436  0.0426 -0.6962  0.3554
  958MOL0     O29198   1.746   4.773   0.396 -0.4131  0.3637 -0.4298
  958MOL0     C29199   1.784   4.864   0.502  0.5551 -0.2463  0.2096
  958MOL0     C29200   1.918   4.898   0.504 -0.6762 -0.3244 -0.3116
  958MOL0     C29201   1.962   4.985   0.603  0.0467 -0.5643 -1.2744
  958MOL0     C29202   1.867   5.052   0.687 -0.2150  0.3195 -1.0673
  958MOL0     O29203   1.902   5.135   0.795  0.1241  0.0813 -0.5522
  958MOL0     C29204   2.036   5.118   0.851  0.1393  0.2771 -0.1526
  958MOL0     C29205   2.048   5.207   0.978  0.2486  0.3191 -0.1093
  958MOL0     C29206   2.041   5.357   0.958  0.0679 -0.0831  0.2563
  958MOL0     C29207   2.013   5.438   1.085  0.2915  0.6261 -0.6080
  958MOL0     C29208   2.025   5.587   1.070 -0.0642 -0.2042  0.1020
  958MOL0     C29209   2.016   5.667   1.205 -0.1030  0.0808  0.0216
  958MOL0     C29210   1.874   5.672   1.277 -0.1341  0.4032  0.2617
  958MOL0     C29211   1.869   5.762   1.405  0.7080  0.5290  0.1552
  958MOL0     N29212   1.731   5.796   1.443  0.2848  0.0467 -0.4716
  958MOL0     C29213   1.647   5.697   1.494  0.3789 -0.1059 -0.3639
  958MOL0     C29214   1.530   5.770   1.529  0.1440  0.3909 -0.1436
  958MOL0     C29215   1.401   5.725   1.583 -0.2395  0.5560  0.3987
  958MOL0     C29216   1.289   5.720   1.471  0.1323  0.0996  0.3095
  958MOL0     C29217   1.202   5.845   1.454  0.9082  0.3117 -0.9031
  958MOL0     C29218   1.133   5.880   1.595 -0.1774 -0.8605  0.3252
  958MOL0     O29219   1.063   5.777   1.653 -0.0660  0.2299  0.4032
  958MOL0     C29220   0.956   5.722   1.579  0.1076  0.3218 -0.3781
  958MOL0     C29221   0.856   5.799   1.512 -0.0651  0.1349 -0.2322
  958MOL0     C29222   0.737   5.736   1.472 -0.3311 -0.2215 -0.1084
  958MOL0     C29223   0.724   5.596   1.477  0.2226 -1.2695  0.6229
  958MOL0     C29224   0.600   5.525   1.434 -0.4667 -1.2991  0.3718
  958MOL0     O29225   0.492   5.599   1.391 -0.0403  0.2223  0.2797
  958MOL0     C29226   0.370   5.561   1.354  0.2725  0.4702  0.3534
  958MOL0     C29227   0.324   5.424   1.355 -0.4598  0.7034  0.4128
  958MOL0     C29228   0.188   5.402   1.319 -1.2295 -0.5759  0.2128
  958MOL0     C29229   0.101   5.494   1.278 -0.5115  0.4219 -1.4552
  958MOL0     O29230  -0.029   5.453   1.263 -0.1487  0.2152  0.3296
  958MOL0     C29231  -0.135   5.548   1.254 -1.1393  0.7520 -0.3282
  958MOL0     C29232  -0.261   5.463   1.247  0.2476 -0.1856 -0.2528
  958MOL0     C29233  -0.384   5.539   1.194 -0.5286  0.2697  0.5325
  958MOL0     C29234  -0.449   5.637   1.302 -0.2360 -0.1801 -0.5513
  958MOL0     C29235  -0.535   5.748   1.227 -0.5414 -0.1911  0.3120
  958MOL0     C29236  -0.635   5.822   1.319 -0.3326  0.8913  0.0383
  958MOL0     C29237  -0.740   5.909   1.244  0.4563  0.3646  0.2826
  958MOL0     C29238  -0.848   5.969   1.339 -0.5576 -0.2538  1.0350
  958MOL0    Cl29239  -0.948   5.826   1.402  0.1190  0.4621  0.0324
  958MOL0     C29240   0.159   5.616   1.253  0.1761 -0.2706 -0.1660
  958MOL0     C29241   0.292   5.647   1.279  1.0942 -1.0267  1.1111
  958MOL0     O29242   0.593   5.408   1.467 -0.0880 -0.0779 -0.9104
  958MOL0     C29243   0.822   5.522   1.537 -0.7874  0.6504 -0.1188
  958MOL0     C29244   0.938   5.583   1.592  0.2160 -0.0642  0.2833
  958MOL0     N29245   1.546   5.897   1.498 -0.0612  0.4240  0.0898
  958MOL0     N29246   1.670   5.920   1.451 -0.0130  0.4320  0.7383
  958MOL0     C29247   1.735   5.027   0.669  0.2218 -0.1262 -0.1229
  958MOL0     C29248   1.695   4.927   0.590 -0.6467  0.7131  0.5161
  958MOL0     C29249   1.606   4.570   0.335 -0.0712  0.0436 -0.5292
  958MOL0     C29250   1.553   4.446   0.391  0.2480  0.1272  0.6289
  958MOL0     C29251   1.505   4.345   0.309 -0.5201 -0.5665  0.4575
  958MOL0     C29252   1.497   4.362   0.169  0.4975 -1.2725 -0.6643
  958MOL0     O29253   1.445   4.251   0.112 -0.0137 -0.2953 -0.0122
  958MOL0     C29254   1.478   4.234  -0.022 -0.2917 -0.1370  0.2546
  958MOL0     C29255   1.415   4.095  -0.064 -0.5203  0.1725  0.3356
  958MOL0     C29256   1.261   4.110  -0.094 -0.0056  0.0822 -0.1245
  958MOL0     C29257   1.224   4.015  -0.210 -0.0154 -0.0281 -0.2324
  958MOL0     C29258   1.076   4.007  -0.226  0.2105  0.1472  0.4049
  958MOL0     C29259   0.954   3.993  -0.255  0.8870 -0.3340  0.5282
  958MOL0     C29260   1.534   4.483   0.109 -0.3464  0.7575  0.0553
  958MOL0     C29261   1.589   4.583   0.193 -0.9136  0.2321 -0.2247
  958MOL0     C29262   1.613   4.713   0.112  0.0450  0.4302 -0.3418
  958MOL0     H29263   1.999   4.863   0.440  1.5736  3.1641  0.3110
  958MOL0     H29264   2.069   4.998   0.613  0.1099 -1.8373 -0.0460
  958MOL0     H29265   2.052   5.012   0.872  1.9243  1.0014  2.7001
  958MOL0     H29266   2.116   5.147   0.781  0.7744 -3.0966 -1.0216
  958MOL0     H29267   2.143   5.175   1.023  0.4145  1.5455  0.4392
  958MOL0     H29268   1.967   5.171   1.042  0.5374  1.2698  0.8058
  958MOL0     H29269   1.970   5.382   0.878 -0.9303 -0.6623  0.9295
  958MOL0     H29270   2.138   5.382   0.915 -0.4759 -1.0899 -1.6705
  958MOL0     H29271   1.912   5.417   1.123  1.5939 -0.2789  2.6868
  958MOL0     H29272   2.087   5.393   1.151  0.7391  0.5437 -1.1613
  958MOL0     H29273   2.121   5.608   1.023 -1.1992  0.9247 -1.8114
  958MOL0     H29274   1.960   5.625   0.991  0.5234 -2.2803 -1.4992
  958MOL0     H29275   2.085   5.627   1.279  0.3346 -0.0996 -0.4755
  958MOL0     H29276   2.047   5.764   1.166 -1.1044  0.2515 -0.3703
  958MOL0     H29277   1.840   5.570   1.299  3.6148 -1.0076  0.2420
  958MOL0     H29278   1.795   5.711   1.213 -1.5351 -0.1839  1.5476
  958MOL0     H29279   1.919   5.714   1.490 -0.5423 -2.1803 -0.5029
  958MOL0     H29280   1.906   5.862   1.380 -0.5479  1.1473  0.6952
  958MOL0     H29281   1.658   5.590   1.499 -1.3178 -0.2864  2.6255
  958MOL0     H29282   1.411   5.620   1.612 -0.5731 -0.0199 -1.4306
  958MOL0     H29283   1.387   5.782   1.675  0.2091  1.6236 -0.1758
  958MOL0     H29284   1.336   5.691   1.376 -0.8979 -2.2339  0.4496
  958MOL0     H29285   1.219   5.640   1.495 -1.2469  0.4733 -2.1738
  958MOL0     H29286   1.124   5.815   1.384 -1.4498  0.9259  1.2865
  958MOL0     H29287   1.250   5.929   1.403  2.0254 -0.7514 -1.6640
  958MOL0     H29288   1.071   5.966   1.569 -2.1345 -1.9226  1.2758
  958MOL0     H29289   1.214   5.924   1.654  0.9059 -1.1849 -0.8643
  958MOL0     H29290   0.871   5.906   1.508  0.6561  0.1157  1.1716
  958MOL0     H29291   0.654   5.798   1.439  0.0496  0.2601 -0.1783
  958MOL0     H29292   0.383   5.346   1.403 -1.4017 -1.0663 -1.1653
  958MOL0     H29293   0.149   5.310   1.361  1.9294 -0.6589  3.3954
  958MOL0     H29294  -0.144   5.614   1.341  0.5484 -0.5737  0.9105
  958MOL0     H29295  -0.134   5.600   1.157 -0.6961 -0.5666 -1.0549
  958MOL0     H29296  -0.246   5.369   1.193 -0.8838 -1.6763  1.8960
  958MOL0     H29297  -0.278   5.424   1.348  0.9980  0.7063  0.2406
  958MOL0     H29298  -0.349   5.595   1.107  1.6717  0.9262  1.7762
  958MOL0     H29299  -0.462   5.466   1.170 -0.7220  0.5069  0.4336
  958MOL0     H29300  -0.368   5.689   1.354 -1.6545  1.4997  0.0878
  958MOL0     H29301  -0.511   5.589   1.377 -2.0099 -0.7778 -2.3100
  958MOL0     H29302  -0.591   5.705   1.143 -3.6526 -1.3271  2.7500
  958MOL0     H29303  -0.462   5.817   1.185  0.6560 -2.5905 -1.8027
  958MOL0     H29304  -0.690   5.741   1.368 -1.8642  1.2687 -0.9841
  958MOL0     H29305  -0.588   5.879   1.400  0.0121 -0.5642  0.8958
  958MOL0     H29306  -0.797   5.837   1.185 -1.6444  2.7088 -0.7191
  958MOL0     H29307  -0.692   5.980   1.176  0.8137 -1.2356 -1.1931
  958MOL0     H29308  -0.795   6.017   1.421  1.2181 -1.3408  0.6015
  958MOL0     H29309  -0.919   6.034   1.288  0.1064  1.1995  1.9220
  958MOL0     H29310   0.097   5.693   1.207  1.2707  0.6250 -0.1764
  958MOL0     H29311   0.314   5.751   1.257 -0.6322 -0.7017  0.7803
  958MOL0     H29312   0.820   5.414   1.549  0.7892  0.3152 -2.3304
  958MOL0     H29313   1.019   5.530   1.641 -0.1931  1.6442  3.0363
  958MOL0     H29314   1.661   5.074   0.732 -0.6389 -0.4780 -0.8518
  958MOL0     H29315   1.588   4.915   0.581 -0.7487  2.0804 -0.2431
  958MOL0     H29316   1.542   4.438   0.499  2.3620  1.4339  0.9970
  958MOL0     H29317   1.467   4.246   0.333 -0.8787 -1.0107 -1.7162
  958MOL0     H29318   1.584   4.242  -0.046  0.2750  3.0910  3.1260
  958MOL0     H29319   1.424   4.315  -0.072  0.0706 -0.0225  0.0474
  958MOL0     H29320   1.424   4.010   0.005  4.3845 -2.3076 -2.7904
  958MOL0     H29321   1.463   4.049  -0.151 -3.3656 -2.2113 -0.1134
  958MOL0     H29322   1.226   4.213  -0.112 -0.8308  0.4312  2.9038
  958MOL0     H29323   1.212   4.082  -0.000  0.1430 -0.5145 -0.2198
  958MOL0     H29324   1.275   4.040  -0.304  2.8319 -0.8701  0.9843
  958MOL0     H29325   1.253   3.913  -0.183 -2.5185 -0.0215  3.2170
  958MOL0     H29326   0.849   3.987  -0.276  0.8098 -1.8871  1.1407
  958MOL0     H29327   1.526   4.500   0.002 -0.2152 -1.5404 -0.3607
  958MOL0     H29328   1.627   4.689   0.006 -0.9858 -0.9327 -0.1997
  958MOL0     H29329   1.518   4.766   0.128  0.8315  1.3523  1.5223
  958MOL0     H29330   1.696   4.771   0.152 -3.3875  2.6375  4.6439
  959MOL0     O29331   9.190   9.262   2.534  0.9700 -0.8842  0.2091
  959MOL0     C29332   9.095   9.275   2.611 -0.8520 -0.6985  1.3356
  959MOL0     O29333   9.107   9.329   2.737 -0.6240  0.0888  0.1530
  959MOL0     C29334   9.207   9.286   2.830  1.3507  0.6977  0.0353
  959MOL0     C29335   9.274   9.163   2.820 -0.8873  0.2780  0.9146
  959MOL0     C29336   9.365   9.123   2.913  0.0740 -0.8429  0.5831
  959MOL0     C29337   9.369   9.186   3.042  0.8119 -0.3511 -0.1506
  959MOL0     O29338   9.430   9.129   3.151 -0.3073  0.0511  0.6558
  959MOL0     C29339   9.468   8.990   3.136 -0.3419 -0.2641  0.5154
  959MOL0     C29340   9.514   8.922   3.264 -0.1209 -0.7901 -0.4138
  959MOL0     C29341   9.408   8.878   3.361 -0.2403 -0.3497 -0.2933
  959MOL0     C29342   9.317   8.994   3.402  0.7711  0.5952  0.0827
  959MOL0     C29343   9.190   8.945   3.480 -0.1364 -0.3001  0.1046
  959MOL0     C29344   9.088   9.042   3.492  0.7343 -0.2962  0.5347
  959MOL0     C29345   8.964   8.983   3.554  0.1094  0.2306  0.2071
  959MOL0     C29346   8.862   9.089   3.604  0.4886 -0.4219 -0.6616
  959MOL0     N29347   8.726   9.026   3.622 -0.4971  0.1223 -0.5362
  959MOL0     C29348   8.687   8.936   3.723  0.2465  0.4982 -0.0282
  959MOL0     C29349   8.555   8.900   3.688  0.3303 -0.2748  0.5347
  959MOL0     C29350   8.457   8.841   3.788 -0.9504  0.3520 -0.7506
  959MOL0     C29351   8.497   8.701   3.847  0.2664 -0.6376  0.2089
  959MOL0     C29352   8.375   8.622   3.863  0.0862  0.3705 -0.4834
  959MOL0     C29353   8.340   8.556   3.731  0.6412 -0.7501 -0.6631
  959MOL0     O29354   8.226   8.469   3.747 -0.2884  0.8248  0.6863
  959MOL0     C29355   8.161   8.415   3.641 -1.0016 -0.4498  0.2110
  959MOL0     C29356   8.041   8.352   3.652 -0.3257  0.1707 -1.4518
  959MOL0     C29357   7.964   8.301   3.550  0.1672 -0.6468 -0.7624
  959MOL0     C29358   8.013   8.317   3.419 -0.5681 -0.0644  0.4078
  959MOL0     C29359   7.922   8.301   3.312  0.7326 -0.9951 -0.3265
  959MOL0     O29360   7.787   8.338   3.330 -1.1206  0.2662 -0.1130
  959MOL0     C29361   7.698   8.355   3.230 -0.9315 -0.1817  0.2456
  959MOL0     C29362   7.731   8.367   3.091 -0.8665 -0.2533  0.0364
  959MOL0     C29363   7.634   8.383   2.995  1.1421 -0.4230  0.3919
  959MOL0     C29364   7.499   8.392   3.029 -0.1412 -1.1592  0.4578
  959MOL0     O29365   7.411   8.417   2.929 -0.0846 -0.2332  0.9483
  959MOL0     C29366   7.316   8.318   2.904  0.6332  0.3541 -1.0194
  959MOL0     C29367   7.391   8.196   2.851 -0.4136 -0.3097 -0.0613
  959MOL0     C29368   7.322   8.062   2.877  0.1822 -0.1319  0.3362
  959MOL0     C29369   7.201   8.056   2.787 -0.4852 -1.3549  0.4047
  959MOL0     C29370   7.104   7.936   2.796  0.5175  0.1368 -0.1588
  959MOL0     C29371   7.178   7.804   2.804 -0.2513 -0.0678 -0.7814
  959MOL0     C29372   7.068   7.690   2.809 -0.4139 -0.7109 -1.1836
  959MOL0     C29373   7.103   7.583   2.708 -0.7365 -0.8850  0.6523
  959MOL0    Cl29374   6.988   7.458   2.704  0.6489  0.1633  0.2411
  959MOL0     C29375   7.461   8.381   3.161 -0.3513 -0.1394  0.4725
  959MOL0     C29376   7.563   8.370   3.266  1.1688 -0.0830  0.1173
  959MOL0     O29377   7.967   8.248   3.217  0.3496 -0.2887  0.6211
  959MOL0     C29378   8.137   8.385   3.396  0.0656  0.1181  0.2124
  959MOL0     C29379   8.207   8.434   3.509  0.1359 -0.2372 -0.4047
  959MOL0     N29380   8.523   8.965   3.566 -0.3546  0.1456  0.0783
  959MOL0     N29381   8.627   9.031   3.522 -1.0372  0.4942  0.8790
  959MOL0     C29382   9.289   9.307   3.058  0.3540 -0.0418 -0.4199
  959MOL0     C29383   9.212   9.353   2.953  0.3129 -0.2022 -0.4825
  959MOL0     C29384   8.954   9.248   2.576  0.5571  1.0916  0.8817
  959MOL0     C29385   8.890   9.155   2.664  0.1789 -0.7058  0.6337
  959MOL0     C29386   8.756   9.121   2.648  0.0137  0.4795 -0.2614
  959MOL0     C29387   8.690   9.180   2.542 -0.0136  0.0824  0.6923
  959MOL0     O29388   8.554   9.147   2.523 -0.0739  0.0472 -0.7675
  959MOL0     C29389   8.482   9.130   2.395 -0.0587 -0.0150  0.2738
  959MOL0     C29390   8.346   9.085   2.410  0.1354  0.1946  0.5584
  959MOL0     C29391   8.251   9.077   2.288 -0.3705  0.0323  0.2489
  959MOL0     C29392   8.112   9.103   2.336  0.0920 -0.2206  0.0971
  959MOL0     C29393   8.046   8.984   2.403 -0.5269  1.2579 -0.4749
  959MOL0     C29394   7.987   8.894   2.467 -0.7782  0.3228  1.1546
  959MOL0     C29395   8.751   9.266   2.453  0.2711  0.0991 -0.0201
  959MOL0     C29396   8.883   9.296   2.469  0.5743 -1.0471  0.6280
  959MOL0     C29397   8.947   9.401   2.370  0.2358  0.6248 -0.0831
  959MOL0     H29398   9.254   9.089   2.744  1.5813 -2.7379  2.9669
  959MOL0     H29399   9.427   9.038   2.886  0.6826  0.1873 -1.4359
  959MOL0     H29400   9.386   8.925   3.103 -0.3612 -2.1829  3.9572
  959MOL0     H29401   9.546   8.981   3.060  0.1591  0.2696  0.9618
  959MOL0     H29402   9.583   8.992   3.311  3.1289 -1.7016 -3.4431
  959MOL0     H29403   9.555   8.826   3.234  1.2786 -0.0956 -0.8078
  959MOL0     H29404   9.448   8.849   3.459 -1.8784  0.1151  0.5652
  959MOL0     H29405   9.349   8.795   3.320  0.0382 -1.7216  1.8962
  959MOL0     H29406   9.375   9.069   3.458  0.0351  0.6780  0.7589
  959MOL0     H29407   9.285   9.043   3.309  1.2277  2.5303  0.8818
  959MOL0     H29408   9.148   8.856   3.431 -0.3215  0.6463 -1.5178
  959MOL0     H29409   9.211   8.914   3.582  0.9702 -1.2765 -0.3926
  959MOL0     H29410   9.120   9.117   3.565 -0.7789  0.4256  0.5187
  959MOL0     H29411   9.065   9.086   3.394  0.3692  1.2407  1.2682
  959MOL0     H29412   8.991   8.921   3.639 -2.6012  1.0675  1.7954
  959MOL0     H29413   8.917   8.911   3.487  1.0706 -0.4644  0.2731
  959MOL0     H29414   8.888   9.142   3.696 -3.5285  2.2120 -0.7951
  959MOL0     H29415   8.841   9.172   3.535  2.4638  0.9936  0.3282
  959MOL0     H29416   8.739   8.912   3.815  1.9822 -1.1450 -1.3657
  959MOL0     H29417   8.424   8.904   3.871  0.6543 -0.7898  0.8343
  959MOL0     H29418   8.369   8.817   3.728 -2.0676 -1.3028  1.4224
  959MOL0     H29419   8.571   8.650   3.784  0.3449  0.2538 -0.4345
  959MOL0     H29420   8.548   8.711   3.943 -0.2411 -1.4887  0.5845
  959MOL0     H29421   8.294   8.676   3.913  1.3322  0.4173  1.6110
  959MOL0     H29422   8.388   8.550   3.944 -2.9483  1.6892  1.3657
  959MOL0     H29423   8.429   8.506   3.691  0.6836 -0.9323 -0.3482
  959MOL0     H29424   8.300   8.636   3.668  3.1980 -0.5823 -2.1939
  959MOL0     H29425   7.997   8.348   3.752  1.1652 -3.5541 -0.7775
  959MOL0     H29426   7.864   8.266   3.576  0.2674 -0.5934 -0.2788
  959MOL0     H29427   7.830   8.337   3.060 -0.6179  0.8658 -0.2685
  959MOL0     H29428   7.658   8.391   2.890 -2.8960  0.0710 -0.6540
  959MOL0     H29429   7.272   8.281   2.998 -2.0497  2.1521 -1.4701
  959MOL0     H29430   7.238   8.353   2.836 -0.6920 -1.8984 -0.7646
  959MOL0     H29431   7.399   8.214   2.743  2.0205 -1.6204 -0.1852
  959MOL0     H29432   7.497   8.194   2.879 -0.7326  1.7831  1.5568
  959MOL0     H29433   7.386   7.976   2.855 -0.8313 -0.8686  0.1928
  959MOL0     H29434   7.296   8.055   2.983  2.4293  1.4179  1.0461
  959MOL0     H29435   7.233   8.065   2.682 -0.4319  0.9186  0.5780
  959MOL0     H29436   7.152   8.153   2.801  1.5098 -0.4695  1.7137
  959MOL0     H29437   7.032   7.946   2.714  1.2552 -0.0346 -0.8378
  959MOL0     H29438   7.055   7.938   2.894  3.4196 -0.1974  1.4217
  959MOL0     H29439   7.238   7.793   2.713 -2.0196 -0.3766 -1.9667
  959MOL0     H29440   7.245   7.797   2.890 -0.3142 -0.1494 -0.7392
  959MOL0     H29441   6.967   7.728   2.794 -0.5891  0.2924  1.8729
  959MOL0     H29442   7.069   7.647   2.910  0.6373  0.4325 -0.6839
  959MOL0     H29443   7.100   7.639   2.615 -1.7038  1.0324  1.7773
  959MOL0     H29444   7.194   7.532   2.739 -1.7923 -2.0555  2.0168
  959MOL0     H29445   7.359   8.408   3.189 -1.1795 -0.4048 -2.0044
  959MOL0     H29446   7.521   8.356   3.365 -1.3417  2.3451 -0.4885
  959MOL0     H29447   8.150   8.405   3.290 -3.0279 -0.7947 -0.4614
  959MOL0     H29448   8.295   8.498   3.499  0.8416 -1.3811 -2.0246
  959MOL0     H29449   9.308   9.362   3.150  4.6721  1.1296 -1.7836
  959MOL0     H29450   9.139   9.432   2.972  1.1420  0.6568 -0.7952
  959MOL0     H29451   8.940   9.113   2.750 -0.1952  2.8476  2.7805
  959MOL0     H29452   8.707   9.056   2.719  3.4982 -0.4986  1.4449
  959MOL0     H29453   8.542   9.058   2.338  0.7133 -2.0610  3.4547
  959MOL0     H29454   8.488   9.224   2.339  0.0031 -0.3749 -0.3322
  959MOL0     H29455   8.297   9.150   2.483 -2.8749 -0.9727 -0.3068
  959MOL0     H29456   8.349   8.981   2.444 -0.5620  0.3952  1.2742
  959MOL0     H29457   8.256   8.972   2.257  0.0169  0.2978 -0.6195
  959MOL0     H29458   8.281   9.136   2.201  1.8629 -2.9063 -1.1612
  959MOL0     H29459   8.113   9.201   2.384  0.4396  0.6024 -1.5168
  959MOL0     H29460   8.048   9.112   2.248 -3.0657  0.4580  2.2960
  959MOL0     H29461   7.930   8.820   2.520  1.0453 -0.7829  1.6520
  959MOL0     H29462   8.707   9.303   2.361  3.5628  1.8718 -1.0408
  959MOL0     H29463   8.871   9.455   2.312 -0.3012  4.8943  3.9932
  959MOL0     H29464   9.001   9.478   2.426  0.9477 -1.1147  1.7247
  959MOL0     H29465   9.023   9.358   2.304 -0.1894  0.9849 -0.8134
  960MOL0     O29466   9.946   2.674   8.346 -0.1969  0.0013  0.3856
  960MOL0     C29467   9.927   2.671   8.468  0.3937  0.5532 -0.0128
  960MOL0     O29468   9.924   2.563   8.559 -0.8798 -0.0525  0.1826
  960MOL0     C29469   9.966   2.448   8.500 -0.3211 -0.3638 -0.1574
  960MOL0     C29470  10.092   2.440   8.443  0.1481 -0.3678 -0.3206
  960MOL0     C29471  10.145   2.315   8.417 -0.1106  0.2105  0.6832
  960MOL0     C29472  10.075   2.197   8.433 -0.6324 -0.3325  0.6132
  960MOL0     O29473  10.152   2.085   8.396  0.2366  0.8243  0.0676
  960MOL0     C29474  10.123   1.960   8.457 -0.1140  0.1608 -0.1131
  960MOL0     C29475  10.222   1.837   8.437  0.3266 -0.2011 -0.2808
  960MOL0     C29476  10.362   1.867   8.495  0.2590 -0.8977  0.3044
  960MOL0     C29477  10.427   1.730   8.535 -0.1473 -0.2294  0.3947
  960MOL0     C29478  10.570   1.753   8.562  0.0948 -0.2750 -0.0038
  960MOL0     C29479  10.637   1.626   8.611 -0.3602 -0.6229 -1.3921
  960MOL0     C29480  10.785   1.639   8.609  0.0107 -0.7503  1.1095
  960MOL0     C29481  10.851   1.500   8.653  0.3947  0.3286 -0.0321
  960MOL0     N29482  10.992   1.503   8.644  1.2209 -0.1104 -0.4207
  960MOL0     C29483  11.081   1.561   8.733 -0.5021  0.5288 -0.8240
  960MOL0     C29484  11.199   1.515   8.681  0.1478  0.5274  0.9789
  960MOL0     C29485  11.326   1.554   8.748 -0.1217  0.3090  0.7538
  960MOL0     C29486  11.420   1.611   8.641  0.0537  0.1318  0.1020
  960MOL0     C29487  11.530   1.696   8.716 -1.1320 -0.1775  0.7076
  960MOL0     C29488  11.661   1.682   8.645  0.2887  0.3791 -0.7549
  960MOL0     O29489  11.648   1.745   8.524 -0.3764  0.3020  0.9345
  960MOL0     C29490  11.746   1.720   8.427  0.1188  0.0897  1.0307
  960MOL0     C29491  11.850   1.625   8.436 -0.5256  0.0510  0.1116
  960MOL0     C29492  11.971   1.636   8.360  0.0761 -0.2291  0.0720
  960MOL0     C29493  11.971   1.726   8.246 -0.0116 -0.2873 -0.3833
  960MOL0     C29494  12.090   1.746   8.164  0.9342 -0.1031  1.5436
  960MOL0     O29495  12.088   1.839   8.067 -0.2408 -0.0345  0.6285
  960MOL0     C29496  12.205   1.851   7.999  0.2105 -0.3983 -0.4042
  960MOL0     C29497  12.199   1.848   7.860 -0.2485  0.7891 -0.0865
  960MOL0     C29498  12.314   1.854   7.774 -1.0490 -0.5425 -0.8356
  960MOL0     C29499  12.445   1.876   7.825 -0.1603 -0.7433 -1.1818
  960MOL0     O29500  12.561   1.861   7.761 -0.1951 -0.3170  0.1298
  960MOL0     C29501  12.566   1.833   7.624  0.6198  0.0537 -0.0493
  960MOL0     C29502  12.703   1.802   7.580  0.3017 -0.3808 -0.4822
  960MOL0     C29503  12.731   1.664   7.642 -0.5931  0.0363  0.4141
  960MOL0     C29504  12.856   1.613   7.576 -0.5932  1.0860 -0.3523
  960MOL0     C29505  12.879   1.465   7.617 -0.5453  0.0457  0.3709
  960MOL0     C29506  13.015   1.415   7.574  0.0977 -0.1936  0.0941
  960MOL0     C29507  13.116   1.462   7.676 -0.1580 -1.0753  0.3197
  960MOL0     C29508  13.229   1.359   7.677 -0.2329  0.2524 -0.5247
  960MOL0    Cl29509  13.287   1.374   7.513 -0.1890 -0.0166  0.1199
  960MOL0     C29510  12.451   1.883   7.973 -0.2803 -0.5663 -0.1936
  960MOL0     C29511  12.332   1.885   8.053  0.6210  0.4648  0.4547
  960MOL0     O29512  12.186   1.677   8.191  0.2300  0.0136 -0.0769
  960MOL0     C29513  11.865   1.805   8.223  0.3346 -0.2022 -0.4269
  960MOL0     C29514  11.751   1.797   8.310 -0.1139  0.3493  1.3185
  960MOL0     N29515  11.180   1.441   8.560 -0.9132  0.3415 -0.0116
  960MOL0     N29516  11.062   1.445   8.542  0.2198 -0.8259 -1.0765
  960MOL0     C29517   9.943   2.208   8.486 -0.6888 -0.1922  0.0771
  960MOL0     C29518   9.894   2.334   8.526  0.1532 -0.1233 -0.2767
  960MOL0     C29519   9.925   2.804   8.527  0.0414  0.2448  0.0027
  960MOL0     C29520   9.990   2.821   8.643  0.0322 -0.3596 -0.3914
  960MOL0     C29521   9.995   2.939   8.719 -0.5227  0.4870  0.0439
  960MOL0     C29522   9.911   3.039   8.669 -0.1620 -0.0794  0.6295
  960MOL0     O29523   9.898   3.150   8.747 -0.1418  0.6029  0.5971
  960MOL0     C29524  10.011   3.239   8.742  0.5197  0.1186 -0.0149
  960MOL0     C29525  10.069   3.277   8.604 -0.8149 -0.1707  0.5933
  960MOL0     C29526   9.968   3.336   8.507 -0.7104  0.5055 -0.0555
  960MOL0     C29527   9.985   3.479   8.465  1.1525  0.0721  0.5839
  960MOL0     C29528  10.096   3.500   8.377  0.1563 -0.6809  0.6358
  960MOL0     C29529  10.192   3.522   8.312 -0.2188  0.7495  0.4845
  960MOL0     C29530   9.844   3.023   8.543 -0.7104 -0.6016 -0.6723
  960MOL0     C29531   9.854   2.907   8.467  0.0215 -0.4713 -0.0978
  960MOL0     C29532   9.765   2.902   8.345  0.0702 -0.7694 -0.6792
  960MOL0     H29533  10.146   2.534   8.437 -2.1474  0.9716 -1.9232
  960MOL0     H29534  10.246   2.310   8.378 -0.5028 -1.3415 -0.2638
  960MOL0     H29535  10.116   1.980   8.564 -1.0371 -0.4074 -0.0499
  960MOL0     H29536  10.021   1.923   8.441  0.4130 -1.1531 -0.4974
  960MOL0     H29537  10.231   1.813   8.331 -1.0552 -0.9703 -0.2551
  960MOL0     H29538  10.183   1.745   8.482  1.1857 -0.3928  0.0907
  960MOL0     H29539  10.356   1.927   8.587  2.9740  1.6912 -1.0163
  960MOL0     H29540  10.415   1.939   8.432 -1.2393  2.1826  2.3038
  960MOL0     H29541  10.373   1.683   8.617  1.9476  0.3668  2.2158
  960MOL0     H29542  10.418   1.657   8.454 -2.7088  1.7466 -1.2857
  960MOL0     H29543  10.620   1.778   8.468  1.4209 -1.6842  0.2962
  960MOL0     H29544  10.592   1.836   8.631  1.3924 -0.3191 -0.3392
  960MOL0     H29545  10.611   1.610   8.716 -0.4673  0.2011 -1.2836
  960MOL0     H29546  10.598   1.542   8.554 -0.1373 -0.9756 -1.0324
  960MOL0     H29547  10.818   1.723   8.671 -0.7773  0.5174 -0.1529
  960MOL0     H29548  10.809   1.661   8.505 -2.2565 -3.2964 -0.0926
  960MOL0     H29549  10.816   1.467   8.752 -1.8172  0.8175 -0.5837
  960MOL0     H29550  10.810   1.438   8.573  0.4957 -1.3301  1.1680
  960MOL0     H29551  11.061   1.617   8.823  0.4106 -0.8203  0.2613
  960MOL0     H29552  11.306   1.625   8.829  1.2364  0.6807  0.7818
  960MOL0     H29553  11.381   1.470   8.791  0.1875 -0.3369 -0.8309
  960MOL0     H29554  11.461   1.530   8.581 -1.7370 -1.0102  0.3407
  960MOL0     H29555  11.372   1.685   8.576  1.7266  2.1366  1.0263
  960MOL0     H29556  11.530   1.654   8.818 -0.2757 -3.0600 -0.3763
  960MOL0     H29557  11.512   1.804   8.716 -0.7664  0.1767 -4.9910
  960MOL0     H29558  11.681   1.575   8.633 -1.0997  0.4110 -5.2047
  960MOL0     H29559  11.748   1.722   8.697  1.3977  0.2607 -2.4644
  960MOL0     H29560  11.845   1.555   8.520 -2.5038  0.1570  0.1326
  960MOL0     H29561  12.051   1.565   8.377  0.8405 -0.0746 -2.4894
  960MOL0     H29562  12.100   1.831   7.817 -0.0664 -0.3657 -0.0962
  960MOL0     H29563  12.291   1.842   7.669 -0.9075  1.8480 -1.1922
  960MOL0     H29564  12.503   1.748   7.597  2.2311 -2.3424  3.0793
  960MOL0     H29565  12.526   1.926   7.582  0.6508  0.9190  1.7551
  960MOL0     H29566  12.707   1.809   7.471 -1.5321 -1.8460 -0.7065
  960MOL0     H29567  12.774   1.872   7.624 -3.3058  2.3439  1.5316
  960MOL0     H29568  12.736   1.661   7.751 -0.9860 -2.8694  0.4073
  960MOL0     H29569  12.651   1.595   7.614 -1.0798  0.3619  0.9840
  960MOL0     H29570  12.929   1.682   7.620  0.4129  0.0893 -0.4161
  960MOL0     H29571  12.861   1.612   7.467 -1.4162  0.3811 -0.3890
  960MOL0     H29572  12.805   1.409   7.558  0.9543 -2.5184  0.7484
  960MOL0     H29573  12.847   1.454   7.721 -2.8688  0.3286 -0.2618
  960MOL0     H29574  13.013   1.307   7.563 -1.5851 -0.5261  2.7703
  960MOL0     H29575  13.037   1.466   7.479 -1.5852 -1.5457 -1.0776
  960MOL0     H29576  13.088   1.466   7.781  1.1935 -2.3535  0.7749
  960MOL0     H29577  13.161   1.559   7.651 -1.2511 -0.1337  1.8629
  960MOL0     H29578  13.310   1.391   7.743 -0.9301  0.1463  0.4131
  960MOL0     H29579  13.202   1.255   7.699  0.6399 -0.1647 -1.3375
  960MOL0     H29580  12.548   1.906   8.015  0.3854 -1.4126 -1.2233
  960MOL0     H29581  12.335   1.901   8.160  0.7760  3.5602  0.0873
  960MOL0     H29582  11.841   1.870   8.140 -0.4446 -0.0124 -0.0630
  960MOL0     H29583  11.669   1.867   8.297  2.0963  3.0095  0.5819
  960MOL0     H29584   9.880   2.126   8.520 -1.3952 -0.1715 -1.1270
  960MOL0     H29585   9.805   2.342   8.587  0.2058  2.6507 -0.4317
  960MOL0     H29586  10.053   2.741   8.682  4.1903  2.9297  0.2766
  960MOL0     H29587  10.023   2.953   8.823  1.1296 -1.9139 -0.0070
  960MOL0     H29588  10.094   3.202   8.804 -2.1696 -2.2356  2.4889
  960MOL0     H29589   9.972   3.328   8.792 -1.1157  0.4759 -1.8007
  960MOL0     H29590  10.119   3.187   8.567 -0.0346 -0.6229  2.5859
  960MOL0     H29591  10.142   3.357   8.619  0.3722 -1.2022  0.5243
  960MOL0     H29592   9.864   3.320   8.538 -0.4936 -2.0453 -0.4679
  960MOL0     H29593   9.973   3.283   8.411  2.5328 -1.7365  1.1997
  960MOL0     H29594   9.899   3.525   8.417  0.9463  2.3298  2.9166
  960MOL0     H29595   9.996   3.539   8.556 -2.5643  2.9325 -0.6158
  960MOL0     H29596  10.272   3.543   8.244 -1.8667  0.9351 -1.4809
  960MOL0     H29597   9.787   3.112   8.517 -0.2937  0.2997  1.3442
  960MOL0     H29598   9.696   2.822   8.377  3.7139 -4.8357 -1.9782
  960MOL0     H29599   9.719   2.997   8.318  1.0454 -0.2106 -0.3920
  960MOL0     H29600   9.831   2.859   8.269  2.4161 -0.8246  1.2590
  961MOL0     O29601   0.717   4.918   6.767  0.2689  0.1416  0.5819
  961MOL0     C29602   0.724   5.036   6.816 -0.0452 -0.2019  0.8329
  961MOL0     O29603   0.826   5.091   6.899 -0.4269 -0.2407  0.1695
  961MOL0     C29604   0.890   5.004   6.985  0.4694 -0.5767 -0.2246
  961MOL0     C29605   1.028   5.015   6.991 -0.7270 -0.1852  0.7018
  961MOL0     C29606   1.107   4.921   7.062  0.6532  0.2362 -0.4621
  961MOL0     C29607   1.047   4.813   7.129  0.1511 -0.5844  0.6938
  961MOL0     O29608   1.116   4.717   7.197  0.9309 -0.5933 -0.4052
  961MOL0     C29609   1.088   4.702   7.341  0.6047  0.2294  0.5845
  961MOL0     C29610   1.198   4.639   7.418 -0.9992 -0.0575  0.6082
  961MOL0     C29611   1.318   4.744   7.447  0.1373 -0.4536  0.1297
  961MOL0     C29612   1.396   4.713   7.579 -0.9310 -0.7102  0.7095
  961MOL0     C29613   1.553   4.743   7.567 -0.2663 -0.3006  0.6544
  961MOL0     C29614   1.587   4.894   7.558  0.0859  0.3808 -0.1937
  961MOL0     C29615   1.728   4.909   7.518  0.3712 -0.2506  0.0417
  961MOL0     C29616   1.793   5.050   7.503  0.3785 -0.1660 -0.2854
  961MOL0     N29617   1.769   5.133   7.617 -0.5714  0.8779  0.4856
  961MOL0     C29618   1.670   5.220   7.641  0.9685  1.0623 -0.0904
  961MOL0     C29619   1.703   5.283   7.756 -0.4721  0.9266  0.1957
  961MOL0     C29620   1.618   5.380   7.836  0.3196 -0.3207 -0.0292
  961MOL0     C29621   1.564   5.337   7.981  0.1525  0.4848  0.6876
  961MOL0     C29622   1.665   5.237   8.046  0.6854 -1.0315  0.4748
  961MOL0     C29623   1.639   5.205   8.193  0.7641  0.4119 -0.0141
  961MOL0     O29624   1.672   5.320   8.275  1.0299 -0.6233  0.0103
  961MOL0     C29625   1.648   5.327   8.410  0.6206  0.3893 -0.5926
  961MOL0     C29626   1.577   5.221   8.473  0.3765 -0.0235  0.0343
  961MOL0     C29627   1.534   5.253   8.602  0.2756 -0.2564 -1.2418
  961MOL0     C29628   1.554   5.372   8.677 -0.1136 -0.5489 -0.0663
  961MOL0     C29629   1.504   5.400   8.816 -0.2936  0.0537  0.1960
  961MOL0     O29630   1.530   5.311   8.913 -0.0688 -0.6506 -0.2223
  961MOL0     C29631   1.451   5.312   9.024  0.0224  0.1707 -0.1757
  961MOL0     C29632   1.311   5.341   9.031 -0.1303  0.3183  0.0676
  961MOL0     C29633   1.251   5.327   9.154  0.2014  0.6873  0.1944
  961MOL0     C29634   1.318   5.288   9.270  0.4536  1.0035  0.1712
  961MOL0     O29635   1.239   5.294   9.383  0.2202  0.6065  0.3180
  961MOL0     C29636   1.269   5.221   9.503  0.0405 -0.2610  0.1982
  961MOL0     C29637   1.154   5.245   9.602  0.7978  0.5449 -0.6811
  961MOL0     C29638   1.026   5.175   9.560  0.0443 -0.0854  0.5888
  961MOL0     C29639   0.906   5.220   9.651  1.0614  0.4942  0.2854
  961MOL0     C29640   0.775   5.132   9.626  0.0403 -0.4308 -0.2426
  961MOL0     C29641   0.707   5.147   9.488  0.4839  0.9674  0.3106
  961MOL0     C29642   0.596   5.053   9.453  0.5032  0.2318 -0.2947
  961MOL0     C29643   0.622   4.908   9.470 -0.2716  0.1350  0.6748
  961MOL0    Cl29644   0.782   4.851   9.401  0.0694  0.2735  0.1302
  961MOL0     C29645   1.456   5.264   9.269  0.5314  1.2730 -0.7452
  961MOL0     C29646   1.519   5.271   9.145 -0.3560  0.1387  0.9937
  961MOL0     O29647   1.427   5.495   8.819  0.1217  0.3307 -0.3313
  961MOL0     C29648   1.644   5.464   8.615 -0.0033  0.4593 -1.0265
  961MOL0     C29649   1.680   5.443   8.483  0.5088  0.6165  0.7900
  961MOL0     N29650   1.828   5.230   7.788  0.4638  0.1424  0.6099
  961MOL0     N29651   1.873   5.147   7.697  0.9494  0.9889 -0.5340
  961MOL0     C29652   0.913   4.793   7.116  0.6601 -0.3231  0.0591
  961MOL0     C29653   0.834   4.887   7.048 -0.0844 -0.2181 -0.5607
  961MOL0     C29654   0.618   5.137   6.763  0.0961  0.5541 -0.0423
  961MOL0     C29655   0.562   5.114   6.635  0.1706 -0.3017 -0.9337
  961MOL0     C29656   0.453   5.177   6.587  0.1512 -0.7157  0.3660
  961MOL0     C29657   0.394   5.282   6.649 -0.6098 -0.2549  0.0541
  961MOL0     O29658   0.290   5.354   6.589  0.2447  0.0465  0.3701
  961MOL0     C29659   0.250   5.469   6.653 -0.9052 -0.5069 -0.7503
  961MOL0     C29660   0.151   5.555   6.573 -0.4624  0.0331 -0.8724
  961MOL0     C29661   0.218   5.615   6.446  0.4104 -0.2432 -0.0891
  961MOL0     C29662   0.361   5.682   6.470  0.8699  0.3802 -0.7737
  961MOL0     C29663   0.483   5.591   6.446  0.5357  0.4182  0.3473
  961MOL0     C29664   0.590   5.543   6.407  0.3652 -0.6700 -0.4584
  961MOL0     C29665   0.452   5.315   6.776 -0.5418 -0.3030  0.0307
  961MOL0     C29666   0.557   5.247   6.829 -1.2546 -0.4402  0.4054
  961MOL0     C29667   0.605   5.303   6.957 -0.8389 -0.4236  1.6289
  961MOL0     H29668   1.067   5.111   6.956  0.8168 -0.4940  1.4965
  961MOL0     H29669   1.215   4.929   7.064  1.0945 -3.7998  2.1014
  961MOL0     H29670   1.068   4.802   7.381  0.4980  0.4736 -0.0749
  961MOL0     H29671   0.990   4.654   7.354  0.3722  0.6223  0.3338
  961MOL0     H29672   1.226   4.546   7.368  1.3517  1.5546 -1.3547
  961MOL0     H29673   1.164   4.605   7.517 -0.6599  1.1232  1.1547
  961MOL0     H29674   1.256   4.831   7.469  1.2512 -0.0397  1.8228
  961MOL0     H29675   1.381   4.756   7.357  1.5203  0.0369  1.1213
  961MOL0     H29676   1.359   4.784   7.654 -0.1305  0.9267 -0.3902
  961MOL0     H29677   1.401   4.609   7.611 -0.5662 -1.5193 -1.7619
  961MOL0     H29678   1.606   4.701   7.653  0.5854 -2.4018 -0.8070
  961MOL0     H29679   1.590   4.691   7.478  0.3831 -2.4222  2.0893
  961MOL0     H29680   1.520   4.950   7.492  0.3923 -1.9382 -2.5970
  961MOL0     H29681   1.583   4.936   7.659 -0.5793 -1.9873  0.8388
  961MOL0     H29682   1.747   4.839   7.436  0.3738 -1.3608  0.9675
  961MOL0     H29683   1.786   4.869   7.602 -0.0423  2.4796  1.7901
  961MOL0     H29684   1.901   5.041   7.497  0.7213  2.7335  0.3236
  961MOL0     H29685   1.765   5.100   7.410  0.1301 -0.4959 -0.3911
  961MOL0     H29686   1.571   5.232   7.600  0.1210  1.1580  1.8750
  961MOL0     H29687   1.689   5.462   7.848 -1.0911  0.9057  0.2766
  961MOL0     H29688   1.534   5.411   7.773  0.1572  1.8473  1.1521
  961MOL0     H29689   1.546   5.422   8.047  3.2537  2.4595 -0.8136
  961MOL0     H29690   1.469   5.283   7.971  2.0261 -2.6201 -3.4829
  961MOL0     H29691   1.770   5.266   8.037  1.0757 -2.8880 -2.6933
  961MOL0     H29692   1.660   5.139   7.997  0.8715 -1.2427  0.8775
  961MOL0     H29693   1.716   5.131   8.211  2.9731  2.2523 -1.3706
  961MOL0     H29694   1.535   5.174   8.210  0.7199  1.3544  1.6465
  961MOL0     H29695   1.560   5.119   8.440 -0.6222  0.5306 -1.2214
  961MOL0     H29696   1.488   5.166   8.650 -1.4718  0.8546 -0.8275
  961MOL0     H29697   1.256   5.384   8.948 -1.7049  1.2354  1.5168
  961MOL0     H29698   1.145   5.352   9.148 -0.0362 -0.2127  0.5673
  961MOL0     H29699   1.275   5.114   9.479  0.2599 -0.1837 -0.0994
  961MOL0     H29700   1.366   5.248   9.547 -0.5754  2.7754 -0.1123
  961MOL0     H29701   1.183   5.219   9.704 -3.3004 -0.9003  0.3071
  961MOL0     H29702   1.133   5.352   9.600 -2.1598  0.0384 -2.6175
  961MOL0     H29703   0.995   5.207   9.460  0.7391  2.4327  1.0915
  961MOL0     H29704   1.021   5.067   9.569 -1.0920 -0.0857  0.1167
  961MOL0     H29705   0.889   5.325   9.626  0.4658  0.8049  1.8960
  961MOL0     H29706   0.948   5.200   9.750  0.5480 -0.6309  0.2972
  961MOL0     H29707   0.703   5.161   9.703  1.6665 -0.1570  1.2409
  961MOL0     H29708   0.819   5.033   9.642 -0.7404 -0.7313  0.0738
  961MOL0     H29709   0.693   5.251   9.458  3.9589  1.9801  1.6225
  961MOL0     H29710   0.788   5.123   9.419 -0.0156  0.1753 -0.0022
  961MOL0     H29711   0.572   5.079   9.350 -0.4518 -0.8632 -0.3701
  961MOL0     H29712   0.516   5.079   9.523 -0.6019 -1.8260 -0.6966
  961MOL0     H29713   0.621   4.883   9.576 -0.1450  3.5626  1.5817
  961MOL0     H29714   0.541   4.854   9.421  1.1485 -0.6639 -0.9215
  961MOL0     H29715   1.522   5.250   9.354 -0.8562 -0.6593  0.0921
  961MOL0     H29716   1.624   5.246   9.133 -0.0616  1.3310  0.9612
  961MOL0     H29717   1.663   5.559   8.663 -2.9682 -0.5505  2.6481
  961MOL0     H29718   1.738   5.517   8.429 -0.4414  0.1758 -0.9268
  961MOL0     H29719   0.869   4.708   7.165  1.6502 -1.8337 -1.5542
  961MOL0     H29720   0.729   4.863   7.043 -0.7490  0.0518  5.2298
  961MOL0     H29721   0.604   5.032   6.577  0.7855 -0.0937 -0.7920
  961MOL0     H29722   0.416   5.148   6.490  0.6103 -1.5479  0.4346
  961MOL0     H29723   0.339   5.527   6.678 -1.5681  0.0145  0.5475
  961MOL0     H29724   0.200   5.445   6.748 -2.5483  4.2930 -0.0685
  961MOL0     H29725   0.119   5.644   6.628 -1.1901 -0.8310  0.1363
  961MOL0     H29726   0.064   5.499   6.537  0.5207 -0.6923 -2.2112
  961MOL0     H29727   0.154   5.689   6.398  0.5182  1.0838  1.7182
  961MOL0     H29728   0.241   5.524   6.389 -0.4809 -2.4032  2.7382
  961MOL0     H29729   0.379   5.754   6.389  2.6045  1.6621  0.6583
  961MOL0     H29730   0.365   5.730   6.568 -0.3130  1.1048 -1.0529
  961MOL0     H29731   0.688   5.525   6.367  0.6276 -2.3699  0.8565
  961MOL0     H29732   0.410   5.398   6.831 -2.0630 -0.1887 -1.2183
  961MOL0     H29733   0.586   5.243   7.046  2.7361 -1.4909  1.8268
  961MOL0     H29734   0.714   5.311   6.946 -0.5932 -3.3091  1.1924
  961MOL0     H29735   0.574   5.407   6.968 -0.6946  0.1654 -2.0529
  962MOL0     O29736   4.125   6.980   4.622 -0.4547 -0.1930  0.1796
  962MOL0     C29737   4.043   6.919   4.549 -0.2755 -0.6081 -0.1216
  962MOL0     O29738   3.995   6.977   4.433 -0.3980 -0.1457 -0.4615
  962MOL0     C29739   4.058   7.090   4.379 -0.6514 -0.1049 -0.0653
  962MOL0     C29740   4.059   7.218   4.443  0.1795  0.1692  0.7776
  962MOL0     C29741   4.122   7.328   4.382  0.0345  0.1852 -0.2319
  962MOL0     C29742   4.201   7.301   4.269  0.6125 -0.9641  0.6314
  962MOL0     O29743   4.275   7.403   4.213  0.8393  0.1992  0.2190
  962MOL0     C29744   4.316   7.520   4.284 -0.1241 -0.2282  0.0924
  962MOL0     C29745   4.440   7.582   4.211 -0.0825  0.5677 -0.5435
  962MOL0     C29746   4.463   7.722   4.276 -0.0863  0.0262  0.2104
  962MOL0     C29747   4.596   7.781   4.239 -0.4340  0.5257 -0.6436
  962MOL0     C29748   4.636   7.907   4.319 -0.0997 -0.4266 -0.6247
  962MOL0     C29749   4.735   7.990   4.242  0.4308  0.3545 -0.0352
  962MOL0     C29750   4.744   8.132   4.294 -0.6015  0.5869  1.3287
  962MOL0     C29751   4.607   8.218   4.275  0.4648 -0.1095 -0.5569
  962MOL0     N29752   4.546   8.195   4.145 -0.2526 -0.3275 -0.4183
  962MOL0     C29753   4.418   8.141   4.130 -0.0835  0.1786 -0.0341
  962MOL0     C29754   4.390   8.152   4.001 -0.0274  0.5592 -0.0831
  962MOL0     C29755   4.247   8.128   3.960  0.2305 -0.5865 -0.2296
  962MOL0     C29756   4.237   7.986   3.926  0.3125 -0.2576 -0.3189
  962MOL0     C29757   4.107   7.958   3.864 -1.3656  1.0652 -0.3912
  962MOL0     C29758   4.082   7.811   3.856 -0.7675  0.3838 -0.1180
  962MOL0     O29759   3.944   7.774   3.838 -0.9291 -0.2073 -0.5969
  962MOL0     C29760   3.919   7.635   3.845 -0.4262  0.0542  0.2446
  962MOL0     C29761   3.792   7.598   3.795  0.1897 -0.7456  0.8085
  962MOL0     C29762   3.751   7.461   3.799  0.1150  1.0942  1.0699
  962MOL0     C29763   3.835   7.355   3.844  0.1574  0.4771  0.1949
  962MOL0     C29764   3.799   7.207   3.836 -0.1429  0.1519 -0.1984
  962MOL0     O29765   3.717   7.169   3.729  0.5082 -0.4131  0.6268
  962MOL0     C29766   3.687   7.033   3.716  0.7210  0.3460  0.4561
  962MOL0     C29767   3.793   6.940   3.708 -0.4257  0.2944 -0.4628
  962MOL0     C29768   3.761   6.804   3.701 -0.1024  1.2298  0.9268
  962MOL0     C29769   3.631   6.748   3.699 -0.2271  0.2630 -0.2307
  962MOL0     O29770   3.617   6.613   3.692 -0.2646  0.1141  0.1362
  962MOL0     C29771   3.495   6.548   3.666 -0.0730  0.0392  0.2746
  962MOL0     C29772   3.463   6.417   3.738  0.4420  0.7950 -1.3568
  962MOL0     C29773   3.582   6.322   3.751  0.6366 -0.6273  0.2841
  962MOL0     C29774   3.612   6.273   3.612 -0.5752  1.2124 -0.5511
  962MOL0     C29775   3.547   6.136   3.579 -0.9394 -1.2402  0.0094
  962MOL0     C29776   3.638   6.066   3.485  0.1735  0.8990 -0.6241
  962MOL0     C29777   3.701   6.139   3.364  1.0373 -1.0275  0.2757
  962MOL0     C29778   3.595   6.178   3.256  0.0621  0.2532 -0.2320
  962MOL0    Cl29779   3.640   6.331   3.180 -0.2988 -0.2993 -0.5773
  962MOL0     C29780   3.524   6.844   3.703  0.2519 -0.0930 -0.9234
  962MOL0     C29781   3.558   6.983   3.705  0.3983  0.3651 -0.9837
  962MOL0     O29782   3.848   7.137   3.922  0.3550  0.1353  0.9430
  962MOL0     C29783   3.967   7.393   3.879 -0.3947  0.4470  0.2474
  962MOL0     C29784   4.005   7.529   3.880  0.6995  0.3515  0.1456
  962MOL0     N29785   4.497   8.215   3.932  0.4022 -0.0223 -0.0052
  962MOL0     N29786   4.590   8.231   4.022 -0.3758 -0.6983 -0.5541
  962MOL0     C29787   4.206   7.172   4.212  0.7967 -0.5362  0.3921
  962MOL0     C29788   4.130   7.068   4.259 -1.5205  1.0179  0.0198
  962MOL0     C29789   3.983   6.789   4.582  0.4712 -0.8179 -0.8374
  962MOL0     C29790   3.906   6.726   4.477 -0.4595 -0.3451 -0.5151
  962MOL0     C29791   3.866   6.598   4.491 -0.2665 -1.0366  0.0933
  962MOL0     C29792   3.896   6.520   4.602 -0.4901  0.2447 -0.0911
  962MOL0     O29793   3.872   6.385   4.610 -0.9286 -0.2638 -1.0090
  962MOL0     C29794   3.941   6.306   4.510  0.1995  0.3830 -0.1106
  962MOL0     C29795   3.833   6.227   4.430 -0.4238  0.9106 -0.2319
  962MOL0     C29796   3.892   6.158   4.303 -0.2753  0.6047 -0.2711
  962MOL0     C29797   3.794   6.092   4.210 -0.3318  0.1430 -0.2255
  962MOL0     C29798   3.853   6.080   4.076 -0.0019 -0.6612  0.2532
  962MOL0     C29799   3.909   6.059   3.972 -0.8142 -0.3488 -0.7743
  962MOL0     C29800   3.955   6.586   4.711  0.2921  0.4213  0.1815
  962MOL0     C29801   4.001   6.722   4.706 -0.6431  0.4467  0.1836
  962MOL0     C29802   4.097   6.756   4.811 -1.3896  0.7381 -0.5154
  962MOL0     H29803   4.001   7.229   4.534  1.2345 -2.8294  1.9248
  962MOL0     H29804   4.128   7.424   4.431 -0.4716  0.4628 -0.7097
  962MOL0     H29805   4.228   7.585   4.280 -0.2227 -0.0687  2.6711
  962MOL0     H29806   4.334   7.483   4.386 -0.4789 -3.2735 -0.8746
  962MOL0     H29807   4.418   7.593   4.105  2.3768  2.4290 -0.9456
  962MOL0     H29808   4.518   7.510   4.236 -0.8529  0.7016  2.8218
  962MOL0     H29809   4.445   7.709   4.383 -3.6277 -1.4106 -0.4429
  962MOL0     H29810   4.380   7.786   4.245 -0.0114 -0.6093 -1.3696
  962MOL0     H29811   4.680   7.710   4.243  0.9079  2.0391 -0.8920
  962MOL0     H29812   4.583   7.805   4.133 -1.2974 -0.3573 -0.7496
  962MOL0     H29813   4.553   7.970   4.351  2.0890  2.4869 -0.2053
  962MOL0     H29814   4.690   7.867   4.406  0.9560  1.0483 -0.5580
  962MOL0     H29815   4.827   7.931   4.245  0.2249 -0.0383  3.4805
  962MOL0     H29816   4.694   8.008   4.143 -1.0472  3.0779  0.9636
  962MOL0     H29817   4.829   8.183   4.248  0.9682 -2.7638  0.1941
  962MOL0     H29818   4.762   8.131   4.402 -6.0104  1.5673  2.5269
  962MOL0     H29819   4.533   8.200   4.354  1.0158 -1.4490 -0.3129
  962MOL0     H29820   4.642   8.321   4.280 -0.1912  0.0984  0.0235
  962MOL0     H29821   4.358   8.092   4.205 -1.5633  0.1002 -1.2193
  962MOL0     H29822   4.177   8.158   4.038  2.9307  2.3766  1.2643
  962MOL0     H29823   4.218   8.182   3.869  3.2558 -0.5289 -1.2910
  962MOL0     H29824   4.320   7.954   3.863 -0.3328 -0.3130 -1.1586
  962MOL0     H29825   4.240   7.920   4.013 -1.4239  0.5625  0.4108
  962MOL0     H29826   4.100   7.992   3.761 -1.3839  0.0103 -0.7500
  962MOL0     H29827   4.026   7.993   3.930 -1.4487 -0.6180  0.4451
  962MOL0     H29828   4.115   7.760   3.947 -0.4133  0.6762 -0.0771
  962MOL0     H29829   4.146   7.769   3.777 -1.4000 -1.8178  0.4880
  962MOL0     H29830   3.731   7.677   3.754 -0.4727  0.5193  3.9252
  962MOL0     H29831   3.649   7.437   3.768 -0.2886  1.6701  1.9174
  962MOL0     H29832   3.893   6.975   3.734 -0.6774 -0.2329  1.3561
  962MOL0     H29833   3.848   6.738   3.700 -1.6743 -1.1559 -3.2288
  962MOL0     H29834   3.412   6.611   3.699 -0.3352  1.4077 -2.6572
  962MOL0     H29835   3.492   6.531   3.558  1.3217  1.4301 -0.0241
  962MOL0     H29836   3.433   6.438   3.841 -3.0405 -0.7825 -1.9479
  962MOL0     H29837   3.377   6.371   3.690  1.5247 -1.1696 -1.5125
  962MOL0     H29838   3.669   6.383   3.779 -1.3433  2.8350 -0.4439
  962MOL0     H29839   3.554   6.240   3.817  0.3809  0.4401  1.5495
  962MOL0     H29840   3.718   6.246   3.610  0.5573  3.9583  4.6681
  962MOL0     H29841   3.589   6.349   3.538 -0.0491  0.0495 -1.9581
  962MOL0     H29842   3.448   6.146   3.534 -2.1190 -1.7498  2.3335
  962MOL0     H29843   3.548   6.077   3.671  3.4643 -0.6644  0.5314
  962MOL0     H29844   3.714   6.020   3.549 -1.6594 -0.7729  0.4607
  962MOL0     H29845   3.578   5.979   3.460  0.6481 -0.5087  2.6694
  962MOL0     H29846   3.770   6.068   3.317  1.1828 -0.4429 -0.3899
  962MOL0     H29847   3.755   6.225   3.405 -1.8252  0.5579  1.0045
  962MOL0     H29848   3.583   6.093   3.189  2.7713 -1.4351  1.2168
  962MOL0     H29849   3.501   6.194   3.309  2.3728 -1.5534  5.1941
  962MOL0     H29850   3.419   6.818   3.692 -0.1125 -1.3091  3.5757
  962MOL0     H29851   3.479   7.058   3.704 -1.1489 -1.2049 -0.6059
  962MOL0     H29852   4.037   7.313   3.902 -1.7712 -0.4082  1.6378
  962MOL0     H29853   4.112   7.547   3.892  0.6852  2.8537 -2.5920
  962MOL0     H29854   4.271   7.164   4.125 -0.4936  1.1849 -0.8140
  962MOL0     H29855   4.143   6.968   4.217 -3.3416  0.0670  1.5513
  962MOL0     H29856   3.868   6.788   4.396  0.7790 -1.0477 -1.6668
  962MOL0     H29857   3.822   6.553   4.403  0.1272  0.1832 -0.7438
  962MOL0     H29858   3.999   6.223   4.552 -0.2320 -1.1669 -2.4119
  962MOL0     H29859   4.007   6.370   4.450 -0.1823  1.4202  0.5479
  962MOL0     H29860   3.765   6.307   4.398  1.0522  2.3415  0.0855
  962MOL0     H29861   3.781   6.160   4.499  0.3500  2.6649  2.1717
  962MOL0     H29862   3.971   6.090   4.335 -1.8757 -0.9506  0.5393
  962MOL0     H29863   3.949   6.234   4.249  1.3246 -0.1287  0.3205
  962MOL0     H29864   3.758   5.994   4.242 -0.5031 -1.7822 -5.4242
  962MOL0     H29865   3.703   6.152   4.203 -0.4736  0.2778  1.9558
  962MOL0     H29866   3.967   6.035   3.885  0.0830 -0.3581 -0.1893
  962MOL0     H29867   3.973   6.522   4.797  0.5013 -1.6495 -1.3013
  962MOL0     H29868   4.091   6.862   4.837 -0.3866  0.8095 -0.5139
  962MOL0     H29869   4.048   6.724   4.903 -0.8735  1.2062 -0.0676
  962MOL0     H29870   4.195   6.714   4.785 -2.0641  0.0405 -1.9965
  963MOL0     O29871   4.811   6.523  11.439  0.0072 -0.4756  0.0965
  963MOL0     C29872   4.769   6.635  11.404 -0.1547 -0.0888 -1.2711
  963MOL0     O29873   4.791   6.745  11.472  0.7455  0.5939 -0.3133
  963MOL0     C29874   4.887   6.745  11.570  0.6836  0.7913  0.3950
  963MOL0     C29875   4.824   6.744  11.701 -0.9234 -0.4003 -0.3494
  963MOL0     C29876   4.913   6.738  11.815 -0.8467  0.1691 -0.0276
  963MOL0     C29877   5.052   6.730  11.800 -0.4144  0.1686 -0.1681
  963MOL0     O29878   5.120   6.715  11.917  1.0732  0.0859  0.3951
  963MOL0     C29879   5.265   6.727  11.933  0.7310 -1.4882 -0.9202
  963MOL0     C29880   5.334   6.594  11.918  0.2831  0.2310 -0.4291
  963MOL0     C29881   5.363   6.570  11.773 -0.0441 -0.7706  0.6072
  963MOL0     C29882   5.436   6.434  11.745 -0.2431  0.0886  1.1765
  963MOL0     C29883   5.435   6.392  11.601  0.0804 -0.1469 -0.5818
  963MOL0     C29884   5.515   6.256  11.595  0.0507 -0.2279  0.5271
  963MOL0     C29885   5.502   6.178  11.461 -0.6073  0.8226  0.0703
  963MOL0     C29886   5.558   6.248  11.338 -1.0095 -0.2886  0.3872
  963MOL0     N29887   5.557   6.159  11.218 -0.7322 -0.8290  0.5207
  963MOL0     C29888   5.448   6.083  11.178 -0.8399  0.1476  1.0801
  963MOL0     C29889   5.511   6.006  11.077 -0.3284 -0.1613 -0.2182
  963MOL0     C29890   5.444   5.910  10.981  0.5273  0.7639 -0.1032
  963MOL0     C29891   5.541   5.853  10.884 -0.7126 -0.3966 -0.1436
  963MOL0     C29892   5.469   5.759  10.783 -0.4629 -1.4830 -0.1660
  963MOL0     C29893   5.454   5.615  10.839 -0.8918  0.2029  0.9385
  963MOL0     O29894   5.544   5.531  10.764 -0.0988 -0.3447 -0.3901
  963MOL0     C29895   5.487   5.423  10.694  0.3169 -0.9466  0.1499
  963MOL0     C29896   5.547   5.299  10.715 -0.8327  0.8556  1.1196
  963MOL0     C29897   5.486   5.188  10.661 -0.7242 -0.7924  0.3838
  963MOL0     C29898   5.365   5.194  10.589 -0.0732  0.2142 -0.3517
  963MOL0     C29899   5.297   5.087  10.532  0.0079 -0.5814 -1.1326
  963MOL0     O29900   5.181   5.108  10.454 -0.4487  0.3836 -0.5729
  963MOL0     C29901   5.121   4.998  10.401 -0.9814 -0.1962  0.5582
  963MOL0     C29902   5.156   4.955  10.274  0.8651  0.4261 -0.2603
  963MOL0     C29903   5.092   4.849  10.209 -0.5258  0.0817 -0.5835
  963MOL0     C29904   4.996   4.776  10.285  0.5413 -0.1990 -0.7001
  963MOL0     O29905   4.930   4.672  10.224  0.0361  0.3051  1.4827
  963MOL0     C29906   4.799   4.632  10.265 -0.4705 -0.7098 -0.5572
  963MOL0     C29907   4.755   4.497  10.205 -0.1553 -0.6042 -0.2446
  963MOL0     C29908   4.641   4.429  10.286  0.1104 -0.8700  0.3083
  963MOL0     C29909   4.607   4.285  10.253  1.1162 -0.7934 -0.9823
  963MOL0     C29910   4.487   4.240  10.339  0.3010  0.1286  0.0541
  963MOL0     C29911   4.526   4.126  10.433 -0.6860  1.2718  0.1367
  963MOL0     C29912   4.404   4.039  10.475  0.3869  0.3534 -0.5471
  963MOL0     C29913   4.424   3.964  10.605  0.7184 -0.4978 -0.0463
  963MOL0    Cl29914   4.562   3.849  10.586  0.1170 -0.0927  0.0479
  963MOL0     C29915   4.967   4.808  10.419 -0.1512  0.5701  0.6339
  963MOL0     C29916   5.024   4.915  10.473  0.1189 -0.3329 -0.1272
  963MOL0     O29917   5.362   4.980  10.547  0.4773 -0.9107 -0.2732
  963MOL0     C29918   5.306   5.320  10.574  0.4057  0.1571 -0.5262
  963MOL0     C29919   5.364   5.433  10.624 -0.7722  0.2575  0.1868
  963MOL0     N29920   5.644   6.031  11.068 -0.6665 -0.0549 -0.7883
  963MOL0     N29921   5.670   6.134  11.145 -0.7708 -0.3932 -0.1727
  963MOL0     C29922   5.104   6.753  11.672  0.1509 -1.2509 -0.1073
  963MOL0     C29923   5.024   6.771  11.553 -0.7383  0.2916 -0.5002
  963MOL0     C29924   4.685   6.656  11.285 -0.7780 -0.1059 -0.3657
  963MOL0     C29925   4.683   6.790  11.239 -0.2970 -0.0286  0.7522
  963MOL0     C29926   4.623   6.818  11.124  0.0027  0.6856  0.6641
  963MOL0     C29927   4.547   6.722  11.053 -0.0890  0.1553  0.5525
  963MOL0     O29928   4.476   6.771  10.942 -0.7296 -0.2701 -0.2858
  963MOL0     C29929   4.375   6.709  10.885  0.3502 -1.0717  0.1899
  963MOL0     C29930   4.238   6.766  10.917 -0.3634 -0.7733 -0.3259
  963MOL0     C29931   4.234   6.922  10.906  0.5249 -0.6486  0.1348
  963MOL0     C29932   4.097   6.973  10.950  0.0215 -0.7688 -0.8441
  963MOL0     C29933   3.996   6.953  10.846 -0.3381  0.0309 -0.0271
  963MOL0     C29934   3.912   6.913  10.766 -1.1943 -0.4477  0.1462
  963MOL0     C29935   4.541   6.600  11.105  0.0626  1.0817  0.4987
  963MOL0     C29936   4.615   6.560  11.210 -0.4000 -0.4368  0.0123
  963MOL0     C29937   4.618   6.419  11.265  0.5527  0.4948  0.2074
  963MOL0     H29938   4.717   6.735  11.717 -1.2230 -1.0020 -2.4583
  963MOL0     H29939   4.867   6.731  11.913  1.6789  1.3898  1.3786
  963MOL0     H29940   5.304   6.798  11.860 -0.5183  0.4793  0.2433
  963MOL0     H29941   5.290   6.775  12.028  0.4913  1.7807 -2.3988
  963MOL0     H29942   5.278   6.503  11.937  0.3581  0.2715 -0.0039
  963MOL0     H29943   5.427   6.577  11.973  1.3521 -2.2854 -2.7905
  963MOL0     H29944   5.425   6.651  11.733 -0.8290 -0.8248 -0.7484
  963MOL0     H29945   5.271   6.570  11.715  1.5766  1.5850 -2.2184
  963MOL0     H29946   5.540   6.458  11.770  0.0319  2.8796 -1.8498
  963MOL0     H29947   5.403   6.352  11.809  0.5669 -0.1806  1.2540
  963MOL0     H29948   5.327   6.384  11.581 -0.1429  1.5854 -0.2348
  963MOL0     H29949   5.466   6.462  11.523 -2.9705  4.0522  1.4962
  963MOL0     H29950   5.619   6.275  11.622 -0.0637 -2.3602  2.8365
  963MOL0     H29951   5.463   6.197  11.670  0.7241 -0.0137  1.1724
  963MOL0     H29952   5.400   6.144  11.444 -0.2940 -0.0852 -0.0377
  963MOL0     H29953   5.552   6.084  11.487  0.1867  1.8191  2.3710
  963MOL0     H29954   5.506   6.343  11.327 -4.0789 -1.8483  0.3760
  963MOL0     H29955   5.660   6.279  11.364 -1.4026  3.0956 -1.6193
  963MOL0     H29956   5.346   6.077  11.216 -1.1567 -3.1269  0.0621
  963MOL0     H29957   5.394   5.828  11.035  2.4150 -1.1607 -1.1366
  963MOL0     H29958   5.375   5.968  10.919  0.8206 -0.9175 -2.1093
  963MOL0     H29959   5.586   5.938  10.832 -1.7807  0.4935  0.3539
  963MOL0     H29960   5.612   5.791  10.941 -1.0750  0.3415  1.1501
  963MOL0     H29961   5.525   5.749  10.689  1.3008  3.2528  0.1160
  963MOL0     H29962   5.370   5.799  10.759  1.4840  2.8544 -1.9380
  963MOL0     H29963   5.354   5.576  10.817 -1.3501  2.6511 -1.8661
  963MOL0     H29964   5.479   5.602  10.945 -0.5838  0.3281  0.8825
  963MOL0     H29965   5.636   5.281  10.775 -2.7176 -4.8221  2.8233
  963MOL0     H29966   5.545   5.098  10.675  0.4344  0.1065  1.4804
  963MOL0     H29967   5.243   4.994  10.222  3.0053 -1.0805  1.9940
  963MOL0     H29968   5.107   4.839  10.102 -1.5879  0.2072 -0.7567
  963MOL0     H29969   4.784   4.625  10.373 -0.6113 -0.8405 -0.5845
  963MOL0     H29970   4.730   4.703  10.218 -0.6479 -1.7061 -1.8824
  963MOL0     H29971   4.719   4.509  10.103 -0.9364  0.3478  0.1341
  963MOL0     H29972   4.837   4.425  10.204 -1.1535 -1.8797  2.0342
  963MOL0     H29973   4.668   4.420  10.391 -0.6678  0.6283  0.6595
  963MOL0     H29974   4.559   4.500  10.275  2.3212  1.5959 -1.6264
  963MOL0     H29975   4.694   4.223  10.279  0.7254 -0.0867  2.6566
  963MOL0     H29976   4.582   4.283  10.147  1.2155  3.2864 -1.2333
  963MOL0     H29977   4.419   4.200  10.263  3.8987 -1.3511 -2.6637
  963MOL0     H29978   4.434   4.324  10.386 -2.6012 -2.4484  1.7736
  963MOL0     H29979   4.596   4.053  10.390 -0.4550  0.4074  1.8926
  963MOL0     H29980   4.565   4.166  10.527 -2.2897  0.6091  1.1293
  963MOL0     H29981   4.399   3.958  10.402 -0.1406  1.2635 -1.5344
  963MOL0     H29982   4.316   4.104  10.473  0.1752  0.0568 -0.9985
  963MOL0     H29983   4.454   4.034  10.683  3.0868 -1.6119  0.1292
  963MOL0     H29984   4.329   3.911  10.621  1.9993 -2.6880  0.7301
  963MOL0     H29985   4.905   4.755  10.491 -1.5569  2.1883  0.6721
  963MOL0     H29986   4.995   4.938  10.575 -2.4207  1.4272 -1.1429
  963MOL0     H29987   5.216   5.337  10.516  0.1813  2.1520  0.3374
  963MOL0     H29988   5.328   5.529  10.588  0.7748  0.1578 -1.7872
  963MOL0     H29989   5.212   6.753  11.669  0.1393 -2.1759 -1.0783
  963MOL0     H29990   5.067   6.787  11.454  3.2125 -0.6071  0.8810
  963MOL0     H29991   4.750   6.865  11.280  0.9514  0.0094 -1.2010
  963MOL0     H29992   4.627   6.922  11.093 -1.2721  0.2522 -1.1460
  963MOL0     H29993   4.367   6.602  10.909  0.8044 -0.9667  0.7986
  963MOL0     H29994   4.388   6.707  10.776  1.3414  4.2127 -0.0457
  963MOL0     H29995   4.232   6.741  11.024 -0.0738 -2.4072 -0.6634
  963MOL0     H29996   4.156   6.704  10.880 -1.2617 -1.3554  2.3829
  963MOL0     H29997   4.250   6.951  10.802  1.7390 -1.1177  0.1769
  963MOL0     H29998   4.315   6.974  10.958  0.8817 -1.3160  0.2564
  963MOL0     H29999   4.064   6.918  11.039  0.1132  3.1175  1.8174
  963MOL0     H30000   4.110   7.075  10.985 -1.5195 -1.6475  2.8773
  963MOL0     H30001   3.832   6.868  10.711 -1.7415 -2.3900  2.3858
  963MOL0     H30002   4.483   6.521  11.057 -0.5124  0.2886  2.4089
  963MOL0     H30003   4.558   6.346  11.211  0.4061 -0.7548  2.0081
  963MOL0     H30004   4.717   6.373  11.276  0.2609  0.2916  2.1755
  963MOL0     H30005   4.580   6.425  11.367  0.9339 -1.4400  0.4911
  964MOL0     O30006   2.144   5.615   5.125  0.3368 -0.1716 -0.1741
  964MOL0     C30007   2.099   5.729   5.123 -0.6491 -1.4447 -0.0269
  964MOL0     O30008   2.182   5.837   5.136  0.1028 -0.5713  0.1045
  964MOL0     C30009   2.151   5.930   5.232  0.1628  1.0006  0.5464
  964MOL0     C30010   2.043   5.918   5.322 -0.5689  0.5358 -1.0029
  964MOL0     C30011   2.023   6.018   5.413 -0.0045 -0.0606 -0.4437
  964MOL0     C30012   2.116   6.123   5.432  0.0393 -0.6888 -0.1255
  964MOL0     O30013   2.113   6.224   5.527  1.1334  0.0451 -0.1520
  964MOL0     C30014   2.018   6.213   5.634  0.2890 -0.1948 -0.5434
  964MOL0     C30015   2.017   6.347   5.710 -0.4646 -0.7364  0.1131
  964MOL0     C30016   1.929   6.449   5.638 -0.2354  0.6666 -0.0352
  964MOL0     C30017   1.955   6.589   5.701  0.8256 -0.8421 -0.4874
  964MOL0     C30018   1.855   6.688   5.643  1.3313 -0.3188  0.6613
  964MOL0     C30019   1.846   6.817   5.729  0.0399  0.1320 -0.3781
  964MOL0     C30020   1.711   6.890   5.730 -0.6741  0.2769  0.4484
  964MOL0     C30021   1.671   6.938   5.589  0.5625  1.1400  0.2697
  964MOL0     N30022   1.533   6.984   5.578 -0.1144 -0.0412  0.1369
  964MOL0     C30023   1.494   7.104   5.628 -0.1479  0.2307 -0.6474
  964MOL0     C30024   1.361   7.105   5.633 -1.0081  0.5488  0.1193
  964MOL0     C30025   1.276   7.231   5.666  0.8189 -0.2683  0.3488
  964MOL0     C30026   1.209   7.278   5.530 -0.4945 -0.1047  0.2561
  964MOL0     C30027   1.092   7.378   5.559 -0.0360  0.2215  0.3114
  964MOL0     C30028   1.012   7.419   5.433  0.7637  0.2487  0.3460
  964MOL0     O30029   1.092   7.489   5.343  0.0022  0.0307  0.3282
  964MOL0     C30030   1.048   7.475   5.211  0.0844  0.7072 -0.2562
  964MOL0     C30031   0.937   7.529   5.162 -0.1369  0.3547 -0.2747
  964MOL0     C30032   0.891   7.511   5.032  0.0043  0.0910 -0.0608
  964MOL0     C30033   0.969   7.428   4.946 -0.6444  0.4484  0.9133
  964MOL0     C30034   0.931   7.429   4.808 -0.6260  0.1763 -0.4586
  964MOL0     O30035   0.835   7.521   4.769  0.6329 -0.0288 -0.0110
  964MOL0     C30036   0.798   7.523   4.639  0.0994  0.5257  0.9640
  964MOL0     C30037   0.733   7.413   4.572  0.9165 -1.0657 -0.4766
  964MOL0     C30038   0.692   7.419   4.439 -0.8719 -0.2212  0.3575
  964MOL0     C30039   0.727   7.534   4.364 -0.8421  0.0714  0.0303
  964MOL0     O30040   0.706   7.532   4.228  0.0336 -0.0189  0.3393
  964MOL0     C30041   0.581   7.490   4.176  0.7703  0.6693  0.0492
  964MOL0     C30042   0.576   7.534   4.031  0.2378  0.6365 -0.3263
  964MOL0     C30043   0.686   7.466   3.951 -0.0551  0.0959  0.0085
  964MOL0     C30044   0.666   7.466   3.801 -0.1595 -0.1475  0.9876
  964MOL0     C30045   0.544   7.387   3.761 -0.1003  0.5664  0.6631
  964MOL0     C30046   0.528   7.373   3.604  0.3043 -0.6774 -0.2691
  964MOL0     C30047   0.561   7.226   3.567  0.0121 -0.7249 -0.8855
  964MOL0     C30048   0.697   7.191   3.611  0.5364  0.8346  0.4136
  964MOL0    Cl30049   0.750   7.062   3.495  0.0372  0.2836 -0.4674
  964MOL0     C30050   0.806   7.640   4.421 -0.5670  0.4110  0.3592
  964MOL0     C30051   0.821   7.641   4.556 -0.5045  1.0036  0.1904
  964MOL0     O30052   0.992   7.353   4.736 -0.2111 -0.1368  0.7789
  964MOL0     C30053   1.079   7.361   4.998 -0.5265  0.1238 -0.1855
  964MOL0     C30054   1.124   7.381   5.132  0.6119 -0.6377 -0.6400
  964MOL0     N30055   1.318   6.987   5.584 -0.2176  0.6146  0.4266
  964MOL0     N30056   1.423   6.912   5.549 -0.2690  0.2054 -0.7486
  964MOL0     C30057   2.227   6.136   5.341 -0.4361  0.1650 -0.9017
  964MOL0     C30058   2.245   6.037   5.253 -0.8504 -0.0583 -0.3703
  964MOL0     C30059   1.948   5.742   5.099  0.1491  0.2554 -0.4606
  964MOL0     C30060   1.883   5.865   5.055  0.0888 -0.1962 -0.3487
  964MOL0     C30061   1.748   5.873   5.028 -0.5951 -0.4171  0.9825
  964MOL0     C30062   1.667   5.765   5.046  0.5738  0.3627  0.4969
  964MOL0     O30063   1.530   5.774   5.031  0.2883 -0.2554  0.2135
  964MOL0     C30064   1.459   5.897   4.999 -0.1147 -0.3358  1.0733
  964MOL0     C30065   1.305   5.892   5.026  0.8151  0.1923  0.4966
  964MOL0     C30066   1.226   5.760   5.028 -0.1489  0.0800 -0.9644
  964MOL0     C30067   1.232   5.692   5.164 -0.4617 -0.4031 -0.7692
  964MOL0     C30068   1.106   5.634   5.205  0.0675 -0.8917  0.7083
  964MOL0     C30069   0.998   5.586   5.215  0.1161  0.3877  0.3438
  964MOL0     C30070   1.725   5.647   5.095  0.0157 -0.7825 -0.0542
  964MOL0     C30071   1.860   5.629   5.118 -0.8148  0.2424 -0.3955
  964MOL0     C30072   1.886   5.502   5.198  0.7825 -0.8630 -0.7518
  964MOL0     H30073   1.979   5.831   5.330  0.6928 -0.3711 -0.4084
  964MOL0     H30074   1.943   6.001   5.484  0.7809  0.6967  0.6549
  964MOL0     H30075   1.918   6.192   5.594  0.3542  1.7145 -1.8257
  964MOL0     H30076   2.034   6.139   5.714 -2.9707  0.2280  0.6490
  964MOL0     H30077   2.122   6.373   5.724  0.2186 -3.3705  0.3876
  964MOL0     H30078   1.976   6.326   5.809  0.6800  2.5156  1.4397
  964MOL0     H30079   1.823   6.425   5.654 -1.4380  4.3315 -1.4801
  964MOL0     H30080   1.948   6.468   5.531 -2.2652  1.7131 -0.2651
  964MOL0     H30081   1.942   6.588   5.809  1.5399 -1.6380 -0.3962
  964MOL0     H30082   2.057   6.620   5.678  1.0327  0.0880  1.5502
  964MOL0     H30083   1.869   6.708   5.537  0.6601  0.1073  0.6403
  964MOL0     H30084   1.750   6.657   5.649  1.0205  0.8757  2.3158
  964MOL0     H30085   1.872   6.789   5.831 -0.5005 -0.6026 -0.4319
  964MOL0     H30086   1.921   6.891   5.699 -1.8057  1.5125 -1.8880
  964MOL0     H30087   1.709   6.981   5.791 -0.4321 -1.0433  2.5179
  964MOL0     H30088   1.650   6.819   5.787  1.5643  1.3333  4.5425
  964MOL0     H30089   1.741   7.012   5.548 -0.9123  1.3665 -1.9954
  964MOL0     H30090   1.672   6.853   5.521  2.4634 -0.1575  1.8080
  964MOL0     H30091   1.556   7.192   5.636 -1.3268  1.1851 -1.5832
  964MOL0     H30092   1.196   7.199   5.733  1.0250 -1.4240  0.0683
  964MOL0     H30093   1.331   7.317   5.707  1.0415  0.0575 -0.6023
  964MOL0     H30094   1.279   7.338   5.471 -0.4081  1.3449  1.7505
  964MOL0     H30095   1.173   7.197   5.466  0.2564  1.2580 -1.9753
  964MOL0     H30096   1.139   7.470   5.594  1.4252  0.2058 -1.4952
  964MOL0     H30097   1.017   7.333   5.625 -1.0765 -1.5896 -1.9505
  964MOL0     H30098   0.920   7.473   5.458 -0.1676 -1.8746  1.8284
  964MOL0     H30099   0.962   7.333   5.388  0.6202  1.1459 -1.2744
  964MOL0     H30100   0.884   7.595   5.229  0.0158  0.2949 -0.0958
  964MOL0     H30101   0.805   7.562   4.991 -0.1582 -2.6486 -3.5690
  964MOL0     H30102   0.709   7.315   4.613  2.3876 -1.1400  0.2829
  964MOL0     H30103   0.661   7.327   4.391 -0.8796 -0.0693  0.0671
  964MOL0     H30104   0.558   7.384   4.191 -0.0073  0.9327  0.8156
  964MOL0     H30105   0.513   7.547   4.240  2.9515  4.8533 -1.0468
  964MOL0     H30106   0.477   7.524   3.985 -0.8463  1.7574  1.6280
  964MOL0     H30107   0.596   7.642   4.025  0.6768  0.5252 -0.9643
  964MOL0     H30108   0.781   7.513   3.979 -0.7854  2.2735 -1.0092
  964MOL0     H30109   0.695   7.362   3.983  2.7539 -0.2951 -1.6793
  964MOL0     H30110   0.760   7.437   3.752 -1.0619 -1.5400  0.0059
  964MOL0     H30111   0.658   7.565   3.756  0.7108 -0.8788 -0.8852
  964MOL0     H30112   0.459   7.445   3.797 -1.1159  0.9234 -2.0744
  964MOL0     H30113   0.550   7.289   3.809  1.2751  0.9213  1.2818
  964MOL0     H30114   0.423   7.387   3.578  0.9353  0.9359 -2.1807
  964MOL0     H30115   0.594   7.447   3.558  1.0885 -0.4972  1.0811
  964MOL0     H30116   0.551   7.223   3.458  1.1768 -0.2460 -1.0191
  964MOL0     H30117   0.476   7.174   3.612  0.6785  1.6185  3.5838
  964MOL0     H30118   0.760   7.280   3.603 -0.6349  1.6661  0.0094
  964MOL0     H30119   0.703   7.152   3.713  1.2282 -3.9972 -1.2102
  964MOL0     H30120   0.851   7.717   4.359  2.4768 -2.4048 -1.2487
  964MOL0     H30121   0.852   7.732   4.606 -1.9792  0.0811  2.9952
  964MOL0     H30122   1.149   7.310   4.933  1.2802 -1.0319  2.4982
  964MOL0     H30123   1.216   7.349   5.181  0.2551  1.8305  1.8655
  964MOL0     H30124   2.292   6.223   5.342  1.8043 -1.4118  0.9786
  964MOL0     H30125   2.336   6.045   5.195  0.3984  1.3720  1.6525
  964MOL0     H30126   1.942   5.955   5.047 -0.6150  0.1800 -1.4652
  964MOL0     H30127   1.721   5.972   4.994  2.9021 -0.4542 -2.5992
  964MOL0     H30128   1.457   5.913   4.891  1.0410  1.1978  1.2456
  964MOL0     H30129   1.498   5.990   5.042 -0.7318  0.8045 -0.7262
  964MOL0     H30130   1.261   5.955   4.948  0.1377 -1.0451 -0.1392
  964MOL0     H30131   1.292   5.939   5.124  1.6964 -0.6659  1.0456
  964MOL0     H30132   1.264   5.691   4.953  0.7732 -1.2935  0.7000
  964MOL0     H30133   1.119   5.776   5.006 -0.0396 -1.4498 -2.8327
  964MOL0     H30134   1.313   5.619   5.168 -1.2966 -1.3421  2.8661
  964MOL0     H30135   1.239   5.765   5.246 -4.5511 -0.7344  0.0951
  964MOL0     H30136   0.895   5.559   5.212  0.5442 -1.3001 -1.2372
  964MOL0     H30137   1.652   5.569   5.114  0.2768 -0.8261  0.8142
  964MOL0     H30138   1.946   5.510   5.289 -1.5041 -2.8828  1.0811
  964MOL0     H30139   1.794   5.456   5.235  0.4901 -0.0716 -0.4667
  964MOL0     H30140   1.937   5.427   5.137  1.2788  0.2975 -1.8088
  965MOL0     O30141   1.552   1.250   5.374 -0.5038  0.1368 -0.2992
  965MOL0     C30142   1.480   1.309   5.288 -0.1289  0.6201  0.8161
  965MOL0     O30143   1.388   1.423   5.315 -0.1192  0.8873 -0.1341
  965MOL0     C30144   1.359   1.469   5.441  0.2832 -0.0393 -0.2601
  965MOL0     C30145   1.457   1.470   5.542 -0.3194  0.4693 -1.4227
  965MOL0     C30146   1.432   1.530   5.677 -0.9407 -0.2531  0.4368
  965MOL0     C30147   1.302   1.588   5.692  0.0014  0.6894 -0.0251
  965MOL0     O30148   1.262   1.652   5.810  0.0048 -0.3832  0.2443
  965MOL0     C30149   1.346   1.632   5.932  0.4840 -0.1268  1.0631
  965MOL0     C30150   1.271   1.675   6.053  0.9661 -0.2926  0.3937
  965MOL0     C30151   1.367   1.655   6.164 -0.7535 -0.3691 -0.4870
  965MOL0     C30152   1.305   1.699   6.288 -0.5264 -0.2614 -0.9972
  965MOL0     C30153   1.388   1.650   6.410 -0.3783 -0.4925  1.5475
  965MOL0     C30154   1.350   1.721   6.534 -0.4449 -0.4966 -0.6678
  965MOL0     C30155   1.438   1.672   6.648 -0.1107  0.0732 -0.4239
  965MOL0     C30156   1.400   1.717   6.783  0.2794  0.1340 -0.2001
  965MOL0     N30157   1.478   1.663   6.898 -0.0529  0.6121 -0.3350
  965MOL0     C30158   1.601   1.697   6.953 -0.3982  0.0647 -0.3665
  965MOL0     C30159   1.649   1.588   7.027  0.8139 -0.0183 -0.0795
  965MOL0     C30160   1.781   1.596   7.117 -0.9019 -0.4427  0.4230
  965MOL0     C30161   1.749   1.604   7.272 -0.3068 -0.1305  0.8155
  965MOL0     C30162   1.692   1.732   7.320 -1.1470 -0.2818 -0.4473
  965MOL0     C30163   1.786   1.761   7.438 -0.2949  0.0280 -0.8750
  965MOL0     O30164   1.929   1.764   7.391 -0.4867  0.3351 -0.1137
  965MOL0     C30165   2.017   1.796   7.495 -0.6476 -0.7473  0.0068
  965MOL0     C30166   2.013   1.754   7.624  0.2317  0.3171  0.5818
  965MOL0     C30167   2.106   1.779   7.719  0.4751  0.2385 -0.1727
  965MOL0     C30168   2.201   1.877   7.695 -0.3617  0.7856  0.1038
  965MOL0     C30169   2.284   1.922   7.809  0.0291  0.3544 -0.0230
  965MOL0     O30170   2.226   1.921   7.936 -0.6100 -0.4563  0.4867
  965MOL0     C30171   2.289   1.981   8.045  0.2566 -1.4469  0.0144
  965MOL0     C30172   2.359   1.909   8.137  0.4957  0.0407 -0.1208
  965MOL0     C30173   2.423   1.965   8.254  0.4425  0.0368 -1.3373
  965MOL0     C30174   2.412   2.101   8.280 -0.3259  0.5685 -0.9373
  965MOL0     O30175   2.448   2.160   8.397  0.7278  0.4072 -0.4689
  965MOL0     C30176   2.590   2.140   8.431  0.0068 -0.4684  0.2909
  965MOL0     C30177   2.704   2.171   8.322  0.9519  0.0032  0.3481
  965MOL0     C30178   2.767   2.309   8.350  0.4461 -0.1660  0.0511
  965MOL0     C30179   2.656   2.412   8.357 -0.6160 -0.3393  0.4362
  965MOL0     C30180   2.727   2.554   8.365  0.9134  0.5870 -0.4495
  965MOL0     C30181   2.796   2.566   8.505  0.8325  0.3003  1.1650
  965MOL0     C30182   2.811   2.705   8.545  0.1152  0.0557  0.9182
  965MOL0     C30183   2.804   2.732   8.688  0.1813  0.2106 -0.6244
  965MOL0    Cl30184   2.926   2.634   8.773 -0.2153 -0.5574 -0.2584
  965MOL0     C30185   2.348   2.178   8.180  0.1337  1.0778  0.6242
  965MOL0     C30186   2.297   2.124   8.053  0.1222  0.8809  0.3279
  965MOL0     O30187   2.393   1.963   7.781 -0.7537 -0.3424  0.1462
  965MOL0     C30188   2.218   1.916   7.561  0.9738 -0.5456 -0.0057
  965MOL0     C30189   2.119   1.884   7.463 -0.9017 -1.3426 -0.1220
  965MOL0     N30190   1.544   1.496   7.036  0.0533  0.2742  0.4544
  965MOL0     N30191   1.450   1.545   6.967 -1.1722 -0.3700  0.2925
  965MOL0     C30192   1.206   1.594   5.587 -0.6763  0.2428 -0.4181
  965MOL0     C30193   1.237   1.531   5.467  0.3401 -1.0474  0.2892
  965MOL0     C30194   1.486   1.261   5.150 -0.2741 -0.1550  0.0467
  965MOL0     C30195   1.366   1.251   5.083  0.2366  0.4774  0.9792
  965MOL0     C30196   1.363   1.215   4.948 -0.3599 -0.0211  0.0728
  965MOL0     C30197   1.484   1.180   4.879  0.5337 -0.8631  0.3567
  965MOL0     O30198   1.457   1.157   4.744 -0.1064  0.5184  0.3487
  965MOL0     C30199   1.569   1.104   4.662  0.7644 -0.3743  0.0057
  965MOL0     C30200   1.668   1.207   4.617 -0.6857 -0.2444  0.4442
  965MOL0     C30201   1.727   1.150   4.477  0.0726 -0.5192 -0.3888
  965MOL0     C30202   1.841   1.249   4.441 -0.0064  0.2173 -0.0959
  965MOL0     C30203   1.910   1.191   4.326 -0.0051  0.5443  0.4092
  965MOL0     C30204   1.970   1.165   4.224  0.0433 -1.9098 -0.0875
  965MOL0     C30205   1.607   1.184   4.950  0.4981  0.5809 -0.4267
  965MOL0     C30206   1.610   1.231   5.083  0.2643 -0.2349 -0.3862
  965MOL0     C30207   1.746   1.249   5.147  0.2731 -0.1362  0.1482
  965MOL0     H30208   1.558   1.431   5.529  0.2304  0.2513  2.3400
  965MOL0     H30209   1.518   1.545   5.743 -0.2171 -2.1762 -0.0010
  965MOL0     H30210   1.372   1.526   5.932  1.3063  0.0546  2.2063
  965MOL0     H30211   1.438   1.691   5.924 -1.4094  2.9450 -0.2662
  965MOL0     H30212   1.183   1.610   6.056  0.2707  0.6406  0.3447
  965MOL0     H30213   1.236   1.778   6.054  0.1738 -0.5507  0.1119
  965MOL0     H30214   1.461   1.709   6.152 -1.2488  0.0694 -2.7204
  965MOL0     H30215   1.397   1.550   6.178  1.4500  0.1558 -0.8907
  965MOL0     H30216   1.296   1.808   6.287  1.8064  0.0189  0.4288
  965MOL0     H30217   1.203   1.660   6.294 -0.7836  0.5981  1.6417
  965MOL0     H30218   1.394   1.541   6.419  1.4388 -0.6031 -0.1224
  965MOL0     H30219   1.490   1.682   6.383  0.2512 -3.1258  0.4548
  965MOL0     H30220   1.360   1.829   6.523  0.8732 -0.7631 -2.4730
  965MOL0     H30221   1.250   1.693   6.569  0.6520 -1.2572  2.2163
  965MOL0     H30222   1.534   1.720   6.631  0.3704  0.2458  2.3454
  965MOL0     H30223   1.445   1.564   6.628  0.6172  0.1038 -0.3472
  965MOL0     H30224   1.422   1.825   6.788  0.1926  0.0904  1.9511
  965MOL0     H30225   1.294   1.692   6.790  0.2602 -0.2025 -1.4673
  965MOL0     H30226   1.647   1.795   6.948 -0.4083  0.0900  0.0043
  965MOL0     H30227   1.840   1.507   7.094 -2.4777 -1.5180  0.4263
  965MOL0     H30228   1.838   1.686   7.092 -3.4841  0.5950 -2.2571
  965MOL0     H30229   1.686   1.516   7.290 -1.9454  0.6848 -0.6195
  965MOL0     H30230   1.837   1.567   7.325  0.3157 -1.0733 -0.7965
  965MOL0     H30231   1.589   1.724   7.356 -0.6515 -0.9027  0.8986
  965MOL0     H30232   1.683   1.809   7.242  0.3469 -1.3250 -1.7112
  965MOL0     H30233   1.771   1.687   7.517 -0.1490  0.6745 -0.2314
  965MOL0     H30234   1.757   1.858   7.480 -4.3859 -1.5129  0.3451
  965MOL0     H30235   1.950   1.679   7.671  3.5636 -0.5349  4.1970
  965MOL0     H30236   2.088   1.751   7.822  0.4724  2.2203  0.4132
  965MOL0     H30237   2.358   1.801   8.125 -1.6103  0.1102 -0.9653
  965MOL0     H30238   2.469   1.903   8.330 -0.9583 -2.1890 -2.2151
  965MOL0     H30239   2.613   2.196   8.522 -0.3629 -1.4482  1.0040
  965MOL0     H30240   2.595   2.035   8.460 -4.6446 -1.0316 -0.2527
  965MOL0     H30241   2.782   2.094   8.319  0.2645 -0.6987  0.2491
  965MOL0     H30242   2.659   2.185   8.223  1.7013 -0.1737 -0.0288
  965MOL0     H30243   2.813   2.300   8.449 -1.3386 -5.6415  0.7343
  965MOL0     H30244   2.839   2.340   8.274  0.3719 -1.2812 -0.4863
  965MOL0     H30245   2.603   2.395   8.451 -0.2870 -3.4668  0.1619
  965MOL0     H30246   2.603   2.413   8.261 -1.2168  3.9530  0.6136
  965MOL0     H30247   2.648   2.627   8.345  0.2452 -0.8165 -3.3307
  965MOL0     H30248   2.798   2.572   8.284 -0.1544 -0.0472 -1.5607
  965MOL0     H30249   2.737   2.507   8.575 -0.3600 -2.4452 -1.8861
  965MOL0     H30250   2.893   2.515   8.509  0.8090 -0.2601 -2.1591
  965MOL0     H30251   2.734   2.771   8.506  0.6598  0.4179  0.4342
  965MOL0     H30252   2.901   2.740   8.493 -1.0117 -0.6365 -1.7071
  965MOL0     H30253   2.826   2.837   8.709 -0.6787  0.3980 -0.6208
  965MOL0     H30254   2.715   2.697   8.742 -0.0223  1.3382 -0.2048
  965MOL0     H30255   2.326   2.280   8.210 -1.9559  0.4142  1.4845
  965MOL0     H30256   2.241   2.192   7.989  0.3666  0.5339 -0.2638
  965MOL0     H30257   2.289   1.998   7.548  0.4691  0.0002  0.6068
  965MOL0     H30258   2.122   1.927   7.364  2.8680  0.4009  0.5988
  965MOL0     H30259   1.110   1.641   5.608 -0.7282 -1.2068  3.2550
  965MOL0     H30260   1.165   1.535   5.385 -0.8851  0.0025  1.3687
  965MOL0     H30261   1.269   1.271   5.125 -2.0944 -3.6831 -1.6900
  965MOL0     H30262   1.270   1.218   4.892  1.0622  1.7067 -2.4048
  965MOL0     H30263   1.531   1.051   4.574  1.7199 -0.7695 -0.1884
  965MOL0     H30264   1.628   1.028   4.714  1.5005  1.1606  1.5098
  965MOL0     H30265   1.747   1.219   4.691  0.4610 -2.6032 -0.2974
  965MOL0     H30266   1.617   1.303   4.603 -0.5817  0.2391  2.9127
  965MOL0     H30267   1.649   1.158   4.401 -1.5552  0.1787  1.2676
  965MOL0     H30268   1.764   1.048   4.492 -1.0858 -0.7800  0.9685
  965MOL0     H30269   1.795   1.347   4.434 -0.7117 -0.0950  0.1413
  965MOL0     H30270   1.913   1.269   4.521 -0.7096 -0.6266  0.7705
  965MOL0     H30271   2.016   1.136   4.132  4.1444  0.0889  1.0790
  965MOL0     H30272   1.699   1.145   4.906 -0.1925 -0.2716 -1.1685
  965MOL0     H30273   1.761   1.334   5.214 -0.8011 -0.4663  0.8232
  965MOL0     H30274   1.776   1.167   5.213  0.4930  1.7329  2.4977
  965MOL0     H30275   1.826   1.254   5.072  2.8530  0.0557  2.7208
  966MOL0     O30276   6.004   2.968   7.154  0.3377  0.9099  0.1900
  966MOL0     C30277   6.014   2.848   7.140 -0.0283 -0.2140  1.1001
  966MOL0     O30278   5.971   2.751   7.233  0.2207 -0.3730 -0.2474
  966MOL0     C30279   5.893   2.796   7.334  0.2769  0.2335  1.2332
  966MOL0     C30280   5.945   2.863   7.440 -0.5166 -0.3515 -1.0179
  966MOL0     C30281   5.873   2.898   7.550  0.1637  0.0169  0.1458
  966MOL0     C30282   5.736   2.877   7.548  1.3683  0.5878 -1.4686
  966MOL0     O30283   5.652   2.905   7.652 -0.4049  0.8664 -0.6491
  966MOL0     C30284   5.701   2.956   7.776  0.0617  0.5111 -0.4745
  966MOL0     C30285   5.600   3.009   7.880  0.3735  0.0723 -0.7301
  966MOL0     C30286   5.501   2.889   7.942  0.1504 -1.5931 -0.2273
  966MOL0     C30287   5.361   2.946   7.970  0.4060  0.4318  0.3603
  966MOL0     C30288   5.262   2.838   7.975  0.6925  0.1154  0.2736
  966MOL0     C30289   5.214   2.805   7.831 -0.2598  0.8265  0.3336
  966MOL0     C30290   5.084   2.720   7.826  0.3610  0.5743  0.7465
  966MOL0     C30291   5.064   2.677   7.683  0.4300  0.2924  0.0608
  966MOL0     N30292   4.928   2.655   7.650  0.4949  0.0979  0.1364
  966MOL0     C30293   4.833   2.740   7.594  0.5696  0.5398 -0.1768
  966MOL0     C30294   4.711   2.681   7.632 -0.1520 -0.1910 -0.6567
  966MOL0     C30295   4.586   2.756   7.629  1.1792 -1.2655  0.8736
  966MOL0     C30296   4.561   2.826   7.769 -0.6959  0.0898  0.4847
  966MOL0     C30297   4.626   2.962   7.788  0.4952 -0.2094 -0.6391
  966MOL0     C30298   4.552   3.039   7.895  0.4161  1.2308 -0.6704
  966MOL0     O30299   4.551   2.965   8.010 -0.1990  0.1227  0.6205
  966MOL0     C30300   4.498   3.039   8.113  0.2505  0.2048  0.2643
  966MOL0     C30301   4.461   2.953   8.224  0.5958 -0.6996  0.3523
  966MOL0     C30302   4.404   3.013   8.334 -0.2448 -0.6986 -0.1338
  966MOL0     C30303   4.393   3.153   8.348 -0.1881 -0.5404  0.6797
  966MOL0     C30304   4.326   3.210   8.470 -0.2429  0.4220  0.1878
  966MOL0     O30305   4.371   3.331   8.518  1.5016  0.0497  0.0709
  966MOL0     C30306   4.288   3.393   8.597 -0.2982 -0.3934 -0.1685
  966MOL0     C30307   4.330   3.451   8.715  0.1797  0.6061 -0.7545
  966MOL0     C30308   4.249   3.530   8.798  0.6070  0.1257  0.5539
  966MOL0     C30309   4.107   3.555   8.763 -0.9692  0.5782 -0.3119
  966MOL0     O30310   4.014   3.621   8.832  0.8110 -0.3902 -0.2420
  966MOL0     C30311   4.045   3.668   8.971  0.9127  0.4387 -0.0138
  966MOL0     C30312   3.925   3.664   9.066  0.1319 -0.3521  0.0692
  966MOL0     C30313   3.988   3.645   9.204 -0.0571 -0.5338  0.0152
  966MOL0     C30314   3.890   3.657   9.330  0.0934  0.0759 -0.1068
  966MOL0     C30315   3.829   3.802   9.349 -0.2704 -0.0123  0.1705
  966MOL0     C30316   3.930   3.919   9.356 -0.2668 -0.4885  0.2691
  966MOL0     C30317   4.028   3.891   9.478 -0.1430 -0.2601  0.2457
  966MOL0     C30318   4.112   4.016   9.489  0.7389 -0.9698  0.5141
  966MOL0    Cl30319   4.253   4.000   9.386  0.0723 -0.2221 -0.0259
  966MOL0     C30320   4.061   3.487   8.650 -0.1210 -0.0787  0.3192
  966MOL0     C30321   4.151   3.410   8.565 -0.3042 -0.2036 -1.1089
  966MOL0     O30322   4.251   3.137   8.523  0.4708  0.6163  0.3287
  966MOL0     C30323   4.422   3.235   8.232  1.1440  0.1006  0.9009
  966MOL0     C30324   4.464   3.174   8.115  0.4415  0.8064 -0.1948
  966MOL0     N30325   4.729   2.559   7.697  0.1931 -0.3585  0.1476
  966MOL0     N30326   4.861   2.544   7.700 -0.2955  1.0557 -0.3075
  966MOL0     C30327   5.682   2.810   7.438 -0.4820 -0.0929 -0.3072
  966MOL0     C30328   5.762   2.761   7.336  0.1600 -1.1637  0.3284
  966MOL0     C30329   6.064   2.799   7.005 -0.4790 -0.9913 -0.6115
  966MOL0     C30330   6.098   2.664   7.002 -0.3853 -0.4690  0.3465
  966MOL0     C30331   6.148   2.616   6.883 -0.3427  0.1638 -0.4026
  966MOL0     C30332   6.151   2.692   6.770  0.4574  0.3447  0.1305
  966MOL0     O30333   6.198   2.639   6.654  0.3887  0.5707 -0.4596
  966MOL0     C30334   6.146   2.685   6.529 -0.3546 -0.0189  0.2757
  966MOL0     C30335   6.151   2.570   6.441 -0.9936  0.8326 -0.7237
  966MOL0     C30336   6.069   2.453   6.494  0.0105  0.8579  0.9129
  966MOL0     C30337   5.916   2.485   6.488 -1.3918 -0.5006 -0.1022
  966MOL0     C30338   5.872   2.492   6.356  0.2734  0.7346  0.2174
  966MOL0     C30339   5.842   2.481   6.244 -0.0784 -0.2225  0.0567
  966MOL0     C30340   6.123   2.825   6.770 -0.4450 -0.1853  0.2104
  966MOL0     C30341   6.076   2.886   6.891 -0.7042 -1.0991 -0.2628
  966MOL0     C30342   6.042   3.031   6.891 -0.4169 -0.9162  0.9713
  966MOL0     H30343   6.052   2.883   7.437 -0.4096 -0.8722 -0.7748
  966MOL0     H30344   5.931   2.936   7.633  1.0395 -0.7629 -0.0820
  966MOL0     H30345   5.767   2.886   7.830  1.0997  1.6743 -0.1808
  966MOL0     H30346   5.766   3.041   7.752 -2.4448  2.3387 -1.2442
  966MOL0     H30347   5.545   3.094   7.838 -1.8504  0.1368  2.0472
  966MOL0     H30348   5.649   3.048   7.969 -1.3835  0.0087  0.3087
  966MOL0     H30349   5.543   2.860   8.039 -0.4872  2.7277  1.5637
  966MOL0     H30350   5.489   2.807   7.871 -2.5964 -1.7580  0.3226
  966MOL0     H30351   5.353   3.007   8.061 -4.9727 -1.1487  1.3399
  966MOL0     H30352   5.345   3.016   7.888  3.3919  0.7408 -0.0441
  966MOL0     H30353   5.286   2.744   8.025  1.6639  1.1445  1.8260
  966MOL0     H30354   5.172   2.884   8.019 -1.3888  0.0921 -3.5170
  966MOL0     H30355   5.193   2.902   7.786 -4.6350  0.3137  0.7651
  966MOL0     H30356   5.287   2.742   7.779 -1.8980  0.1744 -1.2987
  966MOL0     H30357   4.995   2.774   7.862 -1.1741 -0.7647 -0.8458
  966MOL0     H30358   5.091   2.632   7.891 -0.2145  0.0775  0.1532
  966MOL0     H30359   5.108   2.764   7.633  2.8410 -0.9028 -0.0389
  966MOL0     H30360   5.124   2.586   7.670 -1.4640 -0.9564 -0.4136
  966MOL0     H30361   4.854   2.838   7.552 -0.8739  0.5730 -0.8587
  966MOL0     H30362   4.608   2.831   7.552  2.5569 -1.4477  1.0654
  966MOL0     H30363   4.506   2.689   7.596 -0.2097 -0.9912  3.4166
  966MOL0     H30364   4.453   2.840   7.781 -0.4286  1.2504  1.7415
  966MOL0     H30365   4.598   2.761   7.849  1.1385 -1.0023 -1.1653
  966MOL0     H30366   4.615   3.025   7.699 -1.9037  0.2638 -0.0651
  966MOL0     H30367   4.729   2.944   7.819  0.1265 -1.8584 -0.2863
  966MOL0     H30368   4.451   3.061   7.859 -1.6824 -3.9914  0.9329
  966MOL0     H30369   4.601   3.136   7.901 -0.0138  1.4691 -0.9473
  966MOL0     H30370   4.479   2.846   8.229 -2.2615 -1.3101 -0.9000
  966MOL0     H30371   4.392   2.942   8.415  3.4487 -2.8194 -1.2159
  966MOL0     H30372   4.433   3.435   8.745  0.3022  1.2909 -0.7816
  966MOL0     H30373   4.282   3.582   8.887 -1.5893 -1.0999  2.1564
  966MOL0     H30374   4.119   3.601   9.017 -0.8075  0.3614  2.8141
  966MOL0     H30375   4.083   3.770   8.976 -2.7570  1.9149  0.6790
  966MOL0     H30376   3.863   3.754   9.062 -1.4048 -1.3837 -0.1967
  966MOL0     H30377   3.860   3.577   9.057  0.2158 -0.8660  3.1339
  966MOL0     H30378   4.026   3.543   9.197  0.8245 -0.2327  0.1680
  966MOL0     H30379   4.067   3.721   9.213 -0.1063  0.0767 -3.4024
  966MOL0     H30380   3.951   3.622   9.414  4.0995 -3.8798 -4.0742
  966MOL0     H30381   3.815   3.577   9.329  1.6067 -1.4248  0.9085
  966MOL0     H30382   3.781   3.796   9.447  1.6885 -0.4041  1.1421
  966MOL0     H30383   3.755   3.823   9.271 -1.2210  0.3647  1.1444
  966MOL0     H30384   3.980   3.915   9.259 -0.3410  0.5906  0.1710
  966MOL0     H30385   3.876   4.015   9.360  0.6994  0.0577  0.4763
  966MOL0     H30386   4.083   3.796   9.473  4.8598  2.3221 -0.0604
  966MOL0     H30387   3.975   3.881   9.573  0.5678 -2.9079  0.4518
  966MOL0     H30388   4.062   4.112   9.472 -0.0053 -1.2156  1.2252
  966MOL0     H30389   4.152   4.033   9.590  0.6650  0.6933  0.2986
  966MOL0     H30390   3.957   3.492   8.620  0.0642 -2.5130 -0.9962
  966MOL0     H30391   4.104   3.358   8.482  0.3929 -0.6831 -1.2090
  966MOL0     H30392   4.391   3.339   8.222  0.9872  0.0332  0.6920
  966MOL0     H30393   4.458   3.225   8.019 -2.0413  0.1722 -0.4500
  966MOL0     H30394   5.574   2.799   7.445 -0.5545  0.4591 -0.4809
  966MOL0     H30395   5.718   2.700   7.257 -2.3122 -1.8510  2.1266
  966MOL0     H30396   6.089   2.593   7.084 -4.7374  0.3966  0.8596
  966MOL0     H30397   6.173   2.511   6.875  3.3302  0.9790 -1.4681
  966MOL0     H30398   6.206   2.773   6.503  0.2730 -0.6272 -0.3694
  966MOL0     H30399   6.044   2.722   6.540 -0.3825  0.2629 -0.7960
  966MOL0     H30400   6.253   2.529   6.435 -1.2529  0.2677 -1.3059
  966MOL0     H30401   6.113   2.609   6.347 -1.8033  0.0530 -0.7304
  966MOL0     H30402   6.098   2.435   6.598  0.8672  4.5443  1.4320
  966MOL0     H30403   6.072   2.361   6.434 -3.1180  1.5487 -0.4636
  966MOL0     H30404   5.868   2.402   6.541  1.7495 -1.5423  1.3645
  966MOL0     H30405   5.893   2.583   6.530 -1.6646 -1.2450  1.5607
  966MOL0     H30406   5.811   2.479   6.142  0.3181  2.3526 -0.1854
  966MOL0     H30407   6.146   2.878   6.678 -2.0243 -0.2181 -0.2303
  966MOL0     H30408   6.092   3.094   6.965 -0.2551  0.7156 -0.4645
  966MOL0     H30409   6.061   3.078   6.794  0.4344 -0.7985  1.1905
  966MOL0     H30410   5.936   3.038   6.917 -0.7369 -0.6799 -0.3407
  967MOL0     O30411   9.169   6.876  10.824 -0.9670  0.4320  0.2606
  967MOL0     C30412   9.291   6.892  10.838 -0.0416  0.3106  0.2518
  967MOL0     O30413   9.358   7.005  10.884 -0.2906 -0.1538 -0.4224
  967MOL0     C30414   9.307   7.107  10.962  0.6805  0.2521  0.2301
  967MOL0     C30415   9.371   7.228  10.962  0.8717 -0.3843  0.2130
  967MOL0     C30416   9.318   7.340  11.015  0.9533 -0.3445  0.0590
  967MOL0     C30417   9.190   7.332  11.075  0.1777  0.4133 -0.5474
  967MOL0     O30418   9.141   7.426  11.167  0.0408 -0.0745 -0.0772
  967MOL0     C30419   9.209   7.548  11.203 -0.3752  0.0117  1.0160
  967MOL0     C30420   9.141   7.617  11.330 -0.7871 -0.4114  0.6145
  967MOL0     C30421   9.202   7.546  11.449 -0.0903 -0.0773  0.7306
  967MOL0     C30422   9.097   7.544  11.566 -0.2791 -0.2403  0.3392
  967MOL0     C30423   9.165   7.469  11.689  0.2420 -0.3138  0.3499
  967MOL0     C30424   9.085   7.489  11.823 -0.6643 -0.8827  0.5307
  967MOL0     C30425   8.938   7.479  11.816 -0.0481 -0.1228 -0.0440
  967MOL0     C30426   8.865   7.467  11.947 -0.0088 -0.9688 -0.8575
  967MOL0     N30427   8.781   7.351  11.947 -0.7185  0.5187 -0.4070
  967MOL0     C30428   8.820   7.221  11.998  0.5659 -2.2523  0.1216
  967MOL0     C30429   8.710   7.148  11.987 -0.6235  0.6605  0.0521
  967MOL0     C30430   8.695   7.016  12.052  0.2200  1.2479 -1.1425
  967MOL0     C30431   8.592   6.926  11.984 -0.3001 -0.3071 -0.4500
  967MOL0     C30432   8.552   6.810  12.065  0.3267 -0.4327  0.0856
  967MOL0     C30433   8.400   6.817  12.087 -0.1467 -0.1446 -0.4621
  967MOL0     O30434   8.382   6.915  12.185  0.0752 -0.3039  0.1880
  967MOL0     C30435   8.294   7.013  12.150 -0.7988  0.0626 -0.0281
  967MOL0     C30436   8.151   6.995  12.117 -0.8762 -0.0262  0.3967
  967MOL0     C30437   8.072   7.111  12.101 -0.5835 -0.3982 -0.0980
  967MOL0     C30438   8.127   7.244  12.110  0.5492 -0.2044  0.3656
  967MOL0     C30439   8.035   7.354  12.087  0.0892  0.1796  0.7608
  967MOL0     O30440   7.954   7.329  11.980  0.0809  0.6878  0.9245
  967MOL0     C30441   7.857   7.418  11.926 -0.7591 -0.0785 -0.2558
  967MOL0     C30442   7.748   7.366  11.863 -0.2589 -0.3056  0.5026
  967MOL0     C30443   7.657   7.451  11.810  0.3273 -0.1635  0.5719
  967MOL0     C30444   7.666   7.593  11.812  0.7480 -0.0406 -0.5784
  967MOL0     O30445   7.585   7.676  11.736 -0.3576 -0.3953 -0.1532
  967MOL0     C30446   7.499   7.614  11.647 -0.3185 -0.0984  0.6818
  967MOL0     C30447   7.358   7.563  11.688  0.2172 -0.1734 -1.0659
  967MOL0     C30448   7.301   7.629  11.818  0.4014  1.2064 -1.0995
  967MOL0     C30449   7.172   7.550  11.876  0.4023 -0.6199  0.0536
  967MOL0     C30450   7.106   7.636  11.996 -0.0726  0.7270 -0.4967
  967MOL0     C30451   6.978   7.568  12.055 -0.4484 -0.1053  0.3212
  967MOL0     C30452   6.998   7.434  12.114 -0.3631 -0.3020  0.9152
  967MOL0     C30453   6.865   7.385  12.166  0.8077 -0.4681 -0.4215
  967MOL0    Cl30454   6.825   7.458  12.323 -0.0216  0.1231 -0.0343
  967MOL0     C30455   7.772   7.646  11.877  0.4536 -0.3542  0.1175
  967MOL0     C30456   7.869   7.561  11.936 -0.1338 -0.6099  0.6282
  967MOL0     O30457   8.056   7.453  12.152 -0.4390  0.1331 -0.1706
  967MOL0     C30458   8.262   7.251  12.136  0.7994  0.3422  0.3125
  967MOL0     C30459   8.343   7.143  12.150 -0.9445 -0.2829  0.4615
  967MOL0     N30460   8.609   7.228  11.928 -0.1890  0.5416 -0.2060
  967MOL0     N30461   8.667   7.338  11.893  0.1193 -0.1518  0.0782
  967MOL0     C30462   9.116   7.216  11.074  0.3368 -0.1896  0.1078
  967MOL0     C30463   9.176   7.106  11.013  0.5510 -0.5861 -0.5840
  967MOL0     C30464   9.366   6.785  10.771 -0.1020 -0.1121  0.5660
  967MOL0     C30465   9.307   6.718  10.659  0.4273 -0.3360 -0.9056
  967MOL0     C30466   9.366   6.615  10.594 -0.8142  0.0352  0.6966
  967MOL0     C30467   9.497   6.574  10.635  0.4521 -0.2208 -0.1891
  967MOL0     O30468   9.544   6.467  10.556  0.2435 -0.6034  0.1192
  967MOL0     C30469   9.681   6.446  10.537  0.0373 -0.6197 -0.2115
  967MOL0     C30470   9.732   6.321  10.596  0.3561 -0.1352  0.5653
  967MOL0     C30471   9.715   6.325  10.751  0.5572  0.3657  0.2285
  967MOL0     C30472   9.775   6.191  10.801 -0.5593  0.3698 -0.0536
  967MOL0     C30473   9.704   6.131  10.914  0.6754 -0.8079 -0.2501
  967MOL0     C30474   9.633   6.102  11.015  1.4192 -0.4285 -0.2890
  967MOL0     C30475   9.555   6.646  10.741  0.2514  1.1730 -0.2384
  967MOL0     C30476   9.489   6.745  10.812 -0.7572 -0.8904 -0.1793
  967MOL0     C30477   9.559   6.799  10.931 -0.1904  0.4261  0.3790
  967MOL0     H30478   9.471   7.234  10.921  1.2780 -1.6801  0.9887
  967MOL0     H30479   9.371   7.434  11.024 -2.7017  1.9457 -0.1184
  967MOL0     H30480   9.314   7.524  11.221  0.0346  0.7521 -0.2847
  967MOL0     H30481   9.208   7.608  11.111  0.7938 -0.2403  0.8250
  967MOL0     H30482   9.034   7.607  11.311 -0.5553 -1.5098 -0.1803
  967MOL0     H30483   9.173   7.722  11.330  1.9307 -1.0469 -2.4084
  967MOL0     H30484   9.292   7.601  11.478  1.2810 -2.3707  1.1294
  967MOL0     H30485   9.235   7.442  11.440  0.3188 -0.4832  4.8164
  967MOL0     H30486   9.066   7.645  11.593  0.0779  0.2897 -1.1424
  967MOL0     H30487   9.007   7.492  11.531 -1.0252  0.4508  1.1773
  967MOL0     H30488   9.195   7.364  11.679  1.9413  0.1945 -0.2040
  967MOL0     H30489   9.260   7.524  11.687 -0.8839  1.7353 -1.7251
  967MOL0     H30490   9.126   7.412  11.889  1.2434 -0.7052 -0.3688
  967MOL0     H30491   9.104   7.596  11.841 -1.3205 -1.2238  3.9111
  967MOL0     H30492   8.911   7.391  11.757 -3.2202 -2.3833  4.1829
  967MOL0     H30493   8.904   7.566  11.759 -2.1432 -2.4490 -2.6505
  967MOL0     H30494   8.942   7.461  12.024 -0.0967  1.2425 -0.5376
  967MOL0     H30495   8.805   7.558  11.949  2.0555  0.4345  0.7542
  967MOL0     H30496   8.915   7.185  12.036  2.0473  0.0608 -1.1411
  967MOL0     H30497   8.782   6.951  12.039 -2.8359 -3.1501 -1.7762
  967MOL0     H30498   8.667   7.044  12.154 -0.5061  0.5565 -1.1446
  967MOL0     H30499   8.501   6.980  11.955 -1.3269 -0.4648  2.1574
  967MOL0     H30500   8.622   6.886  11.887 -0.4018  0.3013 -0.7371
  967MOL0     H30501   8.600   6.801  12.162  0.7030 -2.1204 -0.2284
  967MOL0     H30502   8.576   6.722  12.005 -0.1543  0.2563 -1.1623
  967MOL0     H30503   8.355   6.727  12.129 -0.3568 -0.7597 -1.9718
  967MOL0     H30504   8.348   6.833  11.992  0.9228  0.2928 -0.9874
  967MOL0     H30505   8.106   6.897  12.106 -1.1073  0.2937 -1.9696
  967MOL0     H30506   7.970   7.101  12.064 -0.8901 -3.7031  1.3238
  967MOL0     H30507   7.726   7.261  11.875 -1.7798 -0.2043 -1.0617
  967MOL0     H30508   7.581   7.404  11.749  0.4860  0.9571 -0.5101
  967MOL0     H30509   7.497   7.697  11.575 -0.1865 -0.7890 -0.1345
  967MOL0     H30510   7.545   7.535  11.588 -0.0216 -0.5315  1.4750
  967MOL0     H30511   7.297   7.577  11.599  4.1481  2.6246 -3.6551
  967MOL0     H30512   7.372   7.456  11.706 -1.4479 -0.5454 -1.8125
  967MOL0     H30513   7.379   7.630  11.894  1.1095  5.0213 -1.7055
  967MOL0     H30514   7.264   7.731  11.806 -0.7011  0.7794 -1.4416
  967MOL0     H30515   7.193   7.447  11.908 -0.2802 -1.1242 -1.0491
  967MOL0     H30516   7.100   7.541  11.795 -1.5946 -2.2013  1.8916
  967MOL0     H30517   7.077   7.735  11.960  0.9411  1.4928  0.6944
  967MOL0     H30518   7.178   7.642  12.079  0.6081  0.2189 -1.0407
  967MOL0     H30519   6.953   7.643  12.131  0.6628 -0.2870  0.8754
  967MOL0     H30520   6.894   7.566  11.984 -2.0165  1.7789  1.9835
  967MOL0     H30521   7.077   7.446  12.188  1.9151 -0.7028 -1.3013
  967MOL0     H30522   7.028   7.370  12.030  0.0580  0.8897  0.1480
  967MOL0     H30523   6.789   7.412  12.091  1.3621 -2.0795 -1.6217
  967MOL0     H30524   6.859   7.277  12.182  0.5492 -0.8742 -2.8705
  967MOL0     H30525   7.783   7.754  11.879  0.1848 -0.3316  0.3514
  967MOL0     H30526   7.965   7.592  11.975  0.0403  0.4113 -0.5697
  967MOL0     H30527   8.300   7.351  12.150 -0.0960  1.1323 -2.4081
  967MOL0     H30528   8.447   7.167  12.169 -0.2957 -0.1745 -2.7730
  967MOL0     H30529   9.017   7.226  11.117 -0.0009  2.9622 -1.1267
  967MOL0     H30530   9.116   7.016  11.014 -1.3111  0.6203  0.0704
  967MOL0     H30531   9.210   6.757  10.629 -0.1961 -1.5544 -0.5166
  967MOL0     H30532   9.316   6.565  10.512  2.1958  0.5980 -1.6964
  967MOL0     H30533   9.736   6.528  10.584  0.5898 -0.5047 -1.0266
  967MOL0     H30534   9.715   6.448  10.433  1.6697  3.5908  0.1937
  967MOL0     H30535   9.837   6.310  10.569  0.2174 -0.6768  0.2360
  967MOL0     H30536   9.673   6.245  10.545  2.6341 -0.6668 -1.4510
  967MOL0     H30537   9.611   6.338  10.784  1.4136  2.4068  2.3740
  967MOL0     H30538   9.768   6.412  10.790 -1.1604  1.6894 -0.2490
  967MOL0     H30539   9.782   6.114  10.724 -2.6939 -0.4303  0.4862
  967MOL0     H30540   9.877   6.223  10.826 -0.2836 -0.0569 -0.6175
  967MOL0     H30541   9.576   6.064  11.098 -1.3964  2.7523 -0.5467
  967MOL0     H30542   9.650   6.616  10.785  0.3279  2.3730  0.4794
  967MOL0     H30543   9.596   6.901  10.918  2.5005 -0.3111  1.5581
  967MOL0     H30544   9.485   6.793  11.011 -0.3947  2.7617  0.4467
  967MOL0     H30545   9.645   6.733  10.946  2.3819  3.1374 -1.4732
  968MOL0     O30546   8.994   4.911   1.519  0.5469 -0.3993 -0.3351
  968MOL0     C30547   8.962   4.982   1.612 -0.8034 -0.8696 -0.5611
  968MOL0     O30548   8.842   5.046   1.618  0.5937 -0.0453  0.6048
  968MOL0     C30549   8.752   5.035   1.512  0.5097  0.3144  0.3675
  968MOL0     C30550   8.798   5.055   1.378 -0.0636  0.8538 -0.3307
  968MOL0     C30551   8.711   5.037   1.274  0.3809  0.2928  0.8545
  968MOL0     C30552   8.579   5.010   1.298  0.1704  0.5239  0.6149
  968MOL0     O30553   8.484   4.992   1.201  0.9555 -0.4178  0.2243
  968MOL0     C30554   8.503   4.883   1.121  0.6278  1.0434  0.1234
  968MOL0     C30555   8.453   4.750   1.192  0.1314  1.1133  0.8593
  968MOL0     C30556   8.303   4.752   1.241  0.5533 -0.3733  0.7140
  968MOL0     C30557   8.228   4.623   1.253  0.4413 -0.2189 -0.3233
  968MOL0     C30558   8.075   4.631   1.278  0.5026 -0.5962 -0.1336
  968MOL0     C30559   8.023   4.501   1.345  0.6057  0.0658 -0.0655
  968MOL0     C30560   7.880   4.477   1.373  0.2998 -0.8100 -0.6934
  968MOL0     C30561   7.842   4.335   1.385  0.2854  0.4314  0.1331
  968MOL0     N30562   7.847   4.274   1.252  0.8037  0.1218  0.8242
  968MOL0     C30563   7.745   4.286   1.162  0.2675  0.8235  1.4553
  968MOL0     C30564   7.783   4.214   1.051  0.8943  0.0474 -0.1969
  968MOL0     C30565   7.729   4.215   0.913  0.6710 -0.6153 -0.8257
  968MOL0     C30566   7.570   4.198   0.920  0.0233 -1.5626  0.9978
  968MOL0     C30567   7.522   4.159   0.776  0.8243  0.2872 -0.1937
  968MOL0     C30568   7.368   4.133   0.773  0.1421  0.3503  0.4049
  968MOL0     O30569   7.327   4.090   0.640  0.2169  0.4995  0.0726
  968MOL0     C30570   7.209   4.022   0.642  0.6823 -0.6878 -0.1373
  968MOL0     C30571   7.094   4.103   0.661  0.8396  0.3825 -0.5488
  968MOL0     C30572   6.967   4.043   0.673 -0.4448 -0.3086  1.1527
  968MOL0     C30573   6.945   3.908   0.652 -1.2703  0.1703 -0.3111
  968MOL0     C30574   6.805   3.859   0.656  0.3000  0.9250 -0.4284
  968MOL0     O30575   6.706   3.955   0.665  0.1061 -0.2829  0.3975
  968MOL0     C30576   6.568   3.917   0.658 -0.5142 -0.9473  0.0501
  968MOL0     C30577   6.492   3.977   0.561 -0.5582  0.8992 -0.7753
  968MOL0     C30578   6.355   3.950   0.564  0.3602  0.4880  0.6550
  968MOL0     C30579   6.293   3.873   0.662  0.1659 -0.0376 -0.4341
  968MOL0     O30580   6.155   3.867   0.671  0.0034 -0.8356  0.2867
  968MOL0     C30581   6.091   3.795   0.776 -0.8151  0.6189  0.0990
  968MOL0     C30582   5.935   3.802   0.780  0.1762 -0.5602  0.3906
  968MOL0     C30583   5.881   3.953   0.755 -0.5468  0.2086 -0.1993
  968MOL0     C30584   5.724   3.978   0.758  0.4145  0.0737  0.2278
  968MOL0     C30585   5.694   4.110   0.690  0.1315 -0.5449 -0.7032
  968MOL0     C30586   5.655   4.220   0.796  0.1509  0.2145  0.2825
  968MOL0     C30587   5.764   4.267   0.890 -0.2328 -0.6050 -0.1658
  968MOL0     C30588   5.722   4.396   0.953  0.9988 -0.5067  0.0304
  968MOL0    Cl30589   5.789   4.529   0.849 -0.0235  0.0621 -0.2586
  968MOL0     C30590   6.378   3.811   0.756 -0.6042 -0.5826  0.1968
  968MOL0     C30591   6.514   3.834   0.759  0.0478  0.6144  0.3490
  968MOL0     O30592   6.782   3.741   0.657 -0.3799  0.1339 -0.0226
  968MOL0     C30593   7.058   3.826   0.630 -0.2695  0.3068  0.6141
  968MOL0     C30594   7.190   3.883   0.627  0.2650 -0.7640 -0.5643
  968MOL0     N30595   7.904   4.149   1.082  0.3942  0.0832 -0.7713
  968MOL0     N30596   7.937   4.176   1.203 -0.1459  0.5248 -0.3712
  968MOL0     C30597   8.527   5.023   1.428 -0.1742 -0.2784 -0.2325
  968MOL0     C30598   8.616   5.017   1.536 -0.2811 -0.3053  0.2611
  968MOL0     C30599   9.063   5.026   1.717 -0.7399  0.6280  0.5071
  968MOL0     C30600   9.047   5.145   1.787  0.4949  0.3209  0.4798
  968MOL0     C30601   9.132   5.181   1.886 -0.5883  0.9200  0.1598
  968MOL0     C30602   9.247   5.111   1.913  0.1570  0.8121 -0.2326
  968MOL0     O30603   9.340   5.135   2.016  1.0571 -0.5756  0.0313
  968MOL0     C30604   9.358   5.273   2.053 -0.7969 -0.2498 -0.4249
  968MOL0     C30605   9.477   5.309   2.143 -0.1100 -0.3514 -0.1710
  968MOL0     C30606   9.609   5.288   2.074 -1.1917 -0.2753 -0.1157
  968MOL0     C30607   9.736   5.354   2.135 -0.2285 -0.5118 -0.7025
  968MOL0     C30608   9.789   5.305   2.261  1.1817 -0.7457 -0.7652
  968MOL0     C30609   9.802   5.284   2.381  0.0411  1.3556  0.1369
  968MOL0     C30610   9.257   4.986   1.863 -0.0669  0.3075  0.2827
  968MOL0     C30611   9.170   4.942   1.757  0.1803 -0.5326 -0.3878
  968MOL0     C30612   9.193   4.800   1.716 -0.3439  0.7939 -0.3562
  968MOL0     H30613   8.904   5.075   1.363 -0.2726  1.1445 -1.5258
  968MOL0     H30614   8.738   5.044   1.169  3.2638 -2.0878  1.3059
  968MOL0     H30615   8.452   4.893   1.025 -2.5874  0.5416  1.6260
  968MOL0     H30616   8.608   4.889   1.091 -0.1796  4.9525 -2.6387
  968MOL0     H30617   8.515   4.729   1.279  1.4456  3.1197  0.4620
  968MOL0     H30618   8.448   4.672   1.115 -2.2693  1.0555  0.9766
  968MOL0     H30619   8.234   4.806   1.174 -0.1466  0.6839  2.2392
  968MOL0     H30620   8.293   4.798   1.339 -1.6906 -0.4613  0.5847
  968MOL0     H30621   8.245   4.563   1.163  0.7640 -0.8018  0.1205
  968MOL0     H30622   8.268   4.579   1.345 -1.1322 -0.1660  0.4306
  968MOL0     H30623   8.058   4.723   1.334  1.0037  0.9347 -2.3328
  968MOL0     H30624   8.033   4.645   1.177  0.5432 -2.4009 -0.4334
  968MOL0     H30625   8.054   4.415   1.284  0.2592 -0.6373  0.7297
  968MOL0     H30626   8.075   4.486   1.440  0.4621 -0.6446 -0.0885
  968MOL0     H30627   7.821   4.538   1.304  2.0406  2.5658  0.5548
  968MOL0     H30628   7.870   4.529   1.469  2.9427  1.1171 -1.3652
  968MOL0     H30629   7.921   4.292   1.448  1.6577  1.7717 -0.5793
  968MOL0     H30630   7.740   4.321   1.421  0.7601 -1.9747  0.6947
  968MOL0     H30631   7.657   4.348   1.174 -2.3934 -2.3181  0.1206
  968MOL0     H30632   7.747   4.306   0.855 -1.7545 -0.4659 -1.4776
  968MOL0     H30633   7.776   4.134   0.856  1.6803  1.6101 -3.4107
  968MOL0     H30634   7.550   4.123   0.997  0.7354 -0.2484  2.5438
  968MOL0     H30635   7.522   4.288   0.958  1.0071 -0.4673 -0.2230
  968MOL0     H30636   7.566   4.063   0.749 -0.9877 -1.2233  1.8089
  968MOL0     H30637   7.541   4.238   0.703 -1.3550 -1.5554 -2.9451
  968MOL0     H30638   7.312   4.224   0.796 -2.4703 -1.7158  3.1152
  968MOL0     H30639   7.346   4.055   0.846 -1.3211 -1.8810 -2.1972
  968MOL0     H30640   7.108   4.210   0.663  0.8055  0.4681 -2.9153
  968MOL0     H30641   6.880   4.105   0.688  1.1812  2.0951  1.2267
  968MOL0     H30642   6.542   4.053   0.502  2.1689 -0.4127 -0.3076
  968MOL0     H30643   6.300   3.982   0.476 -1.6499 -1.3419  1.1836
  968MOL0     H30644   6.122   3.691   0.760  0.4264  0.7904  1.2429
  968MOL0     H30645   6.137   3.825   0.870 -1.2001  2.4900 -0.2765
  968MOL0     H30646   5.902   3.740   0.696  1.3919 -0.1767 -0.4012
  968MOL0     H30647   5.895   3.763   0.874  1.0500  1.5834  1.7186
  968MOL0     H30648   5.922   4.020   0.831 -0.6113 -0.5962  0.5524
  968MOL0     H30649   5.923   3.980   0.657 -0.6701  2.0590  0.2070
  968MOL0     H30650   5.687   3.970   0.861 -2.4666 -1.7926 -0.8348
  968MOL0     H30651   5.689   3.894   0.697  2.1617 -1.1522  0.8308
  968MOL0     H30652   5.609   4.086   0.625 -1.2463  0.0252  0.8218
  968MOL0     H30653   5.779   4.132   0.625  1.3608 -0.4366  0.8754
  968MOL0     H30654   5.594   4.297   0.748 -1.7321 -1.5212 -0.2635
  968MOL0     H30655   5.573   4.170   0.849 -0.9380  1.4983 -0.1294
  968MOL0     H30656   5.850   4.280   0.824 -0.8694  0.2374 -0.8453
  968MOL0     H30657   5.779   4.195   0.971  3.6694 -1.1016 -1.1279
  968MOL0     H30658   5.614   4.403   0.965  0.9111  0.8811 -1.2747
  968MOL0     H30659   5.770   4.399   1.051  2.3562  0.7862 -0.6261
  968MOL0     H30660   6.347   3.734   0.826 -0.6426 -0.1589  0.6438
  968MOL0     H30661   6.572   3.788   0.839  2.8180 -0.0278 -1.8514
  968MOL0     H30662   7.058   3.720   0.606  4.7267  0.1017  0.3002
  968MOL0     H30663   7.287   3.837   0.608  0.5807 -0.6115  0.5812
  968MOL0     H30664   8.420   5.015   1.447 -0.2004  0.7887  0.1719
  968MOL0     H30665   8.580   5.044   1.635 -0.5002  2.0228 -0.3943
  968MOL0     H30666   8.958   5.207   1.778  0.8106  1.1545  2.6927
  968MOL0     H30667   9.124   5.274   1.941 -1.5412  0.8807  0.1057
  968MOL0     H30668   9.267   5.317   2.095 -1.1492 -0.5376 -0.8791
  968MOL0     H30669   9.381   5.329   1.962  1.9104 -0.2733  0.1478
  968MOL0     H30670   9.471   5.234   2.224 -0.9717 -0.0368  0.0716
  968MOL0     H30671   9.470   5.412   2.179  0.6615 -0.1136 -0.6853
  968MOL0     H30672   9.619   5.328   1.973 -1.0922  1.9140  0.7208
  968MOL0     H30673   9.639   5.183   2.085  0.0596  0.1694  0.9788
  968MOL0     H30674   9.815   5.336   2.061  1.9444 -0.1145  1.3868
  968MOL0     H30675   9.721   5.461   2.148 -0.8152 -0.8379  1.8151
  968MOL0     H30676   9.813   5.247   2.481  1.9643 -1.0227 -0.8310
  968MOL0     H30677   9.342   4.933   1.905 -0.5520 -0.7412 -0.0301
  968MOL0     H30678   9.211   4.788   1.608 -0.0644  1.7659 -0.4247
  968MOL0     H30679   9.267   4.750   1.779 -1.4413  0.2399  0.5191
  968MOL0     H30680   9.101   4.743   1.732 -0.6014  1.4791  0.6723
  969MOL0     O30681   1.788   4.407   7.890 -0.1291 -0.4357  0.0525
  969MOL0     C30682   1.901   4.410   7.845  0.2170 -0.1946  0.3099
  969MOL0     O30683   1.973   4.296   7.810  0.2285 -0.2919 -0.0541
  969MOL0     C30684   1.931   4.233   7.699  0.2605  0.5221 -0.3411
  969MOL0     C30685   1.819   4.267   7.619 -0.2446 -0.0288 -0.3450
  969MOL0     C30686   1.783   4.183   7.513  0.2582 -0.0732 -0.4422
  969MOL0     C30687   1.849   4.057   7.492  0.7682 -0.4180 -0.4346
  969MOL0     O30688   1.818   3.979   7.384 -0.3491  0.1172  0.8588
  969MOL0     C30689   1.678   3.949   7.359 -0.1452  0.5144 -0.4165
  969MOL0     C30690   1.658   3.841   7.254  0.1998 -0.1037 -1.1499
  969MOL0     C30691   1.731   3.866   7.133  0.2523 -0.5231 -0.8835
  969MOL0     C30692   1.718   3.745   7.045  0.9026  0.5331 -0.0323
  969MOL0     C30693   1.593   3.742   6.961 -0.2538 -0.3077 -1.4116
  969MOL0     C30694   1.597   3.602   6.898 -0.7248 -0.4157 -0.0185
  969MOL0     C30695   1.727   3.583   6.810 -0.4715 -0.4496 -0.2468
  969MOL0     C30696   1.701   3.475   6.695  0.1210  0.2450 -0.9502
  969MOL0     N30697   1.608   3.525   6.593 -0.0159  0.4596  0.1921
  969MOL0     C30698   1.627   3.641   6.519  0.8948 -0.1074 -0.4977
  969MOL0     C30699   1.516   3.650   6.452  0.1160 -0.5600  0.2227
  969MOL0     C30700   1.480   3.745   6.345  0.2618  0.0960  1.2929
  969MOL0     C30701   1.535   3.697   6.211  0.6482 -0.8395 -0.5595
  969MOL0     C30702   1.481   3.769   6.091 -0.0575 -0.6399  0.1023
  969MOL0     C30703   1.504   3.703   5.969 -0.5548  0.8676  0.2531
  969MOL0     O30704   1.397   3.611   5.940  0.1898  0.1996  0.2643
  969MOL0     C30705   1.397   3.562   5.812 -0.2169  0.6434  0.3643
  969MOL0     C30706   1.279   3.561   5.741 -0.4869 -0.1190  0.0379
  969MOL0     C30707   1.260   3.510   5.616 -0.2927 -0.5253 -0.7090
  969MOL0     C30708   1.374   3.456   5.554  0.8700  0.1087  0.9336
  969MOL0     C30709   1.372   3.409   5.412 -0.2690 -0.3096  0.2137
  969MOL0     O30710   1.247   3.419   5.354 -0.5208 -0.2992 -0.5734
  969MOL0     C30711   1.223   3.424   5.216  0.1256 -0.9340  0.3382
  969MOL0     C30712   1.322   3.438   5.118  0.5566  0.1471 -0.7659
  969MOL0     C30713   1.281   3.477   4.996 -0.3868 -0.8090  0.9520
  969MOL0     C30714   1.153   3.490   4.953  0.5988 -0.9325 -0.0056
  969MOL0     O30715   1.126   3.518   4.821  0.0055 -0.1531 -0.1106
  969MOL0     C30716   1.038   3.417   4.765 -0.1600 -0.7072  1.5245
  969MOL0     C30717   0.983   3.462   4.626 -0.3162 -0.3120 -0.1659
  969MOL0     C30718   0.938   3.602   4.613  0.5083  0.4300  0.0139
  969MOL0     C30719   0.859   3.649   4.732 -0.3288 -0.9266  0.2890
  969MOL0     C30720   0.800   3.786   4.702  0.4100  0.1127  0.1246
  969MOL0     C30721   0.758   3.866   4.817  0.6306  0.7352 -0.4726
  969MOL0     C30722   0.693   3.992   4.758  0.1411  0.8180 -0.1074
  969MOL0     C30723   0.633   4.060   4.881  0.1618  0.9648  0.0188
  969MOL0    Cl30724   0.552   4.216   4.846  0.0269  0.7638  0.0536
  969MOL0     C30725   1.056   3.466   5.048 -0.5163 -0.0826 -0.0879
  969MOL0     C30726   1.093   3.426   5.175  0.2888  0.1291  0.8952
  969MOL0     O30727   1.468   3.365   5.357 -0.0729  0.3581 -0.3075
  969MOL0     C30728   1.501   3.465   5.617  0.7785 -1.2331 -0.2351
  969MOL0     C30729   1.515   3.516   5.749 -0.1334 -0.4870  0.7471
  969MOL0     N30730   1.422   3.550   6.478 -0.3655  0.7368  0.2842
  969MOL0     N30731   1.484   3.475   6.564  0.0503 -0.2289  0.2665
  969MOL0     C30732   1.962   4.028   7.575 -0.3761 -0.3438 -0.4956
  969MOL0     C30733   2.004   4.117   7.672  0.5261 -0.3826  0.4852
  969MOL0     C30734   1.974   4.543   7.834  0.6784  0.7880  0.8947
  969MOL0     C30735   1.899   4.663   7.801  0.0440 -0.4682  0.9989
  969MOL0     C30736   1.962   4.783   7.807 -0.5288 -0.2448 -0.6458
  969MOL0     C30737   2.103   4.792   7.820  0.5986 -0.6322  0.7245
  969MOL0     O30738   2.176   4.907   7.792  0.2001  0.0355  0.9232
  969MOL0     C30739   2.136   5.034   7.837  0.4156 -0.3560  0.0302
  969MOL0     C30740   2.266   5.091   7.894 -0.3799 -0.5657  0.0147
  969MOL0     C30741   2.385   5.086   7.796 -0.5573 -0.1975 -0.0003
  969MOL0     C30742   2.365   5.151   7.656 -0.4151  0.5258  0.6041
  969MOL0     C30743   2.278   5.274   7.645  0.3452 -1.0504 -0.7377
  969MOL0     C30744   2.215   5.379   7.629  0.2106  0.3491  0.1953
  969MOL0     C30745   2.174   4.682   7.850  0.4714 -0.8607 -1.1858
  969MOL0     C30746   2.114   4.552   7.857  0.5677 -0.2667  0.7058
  969MOL0     C30747   2.215   4.446   7.877  0.1660 -0.6757  1.2306
  969MOL0     H30748   1.742   4.341   7.637 -1.3414 -1.4198  0.9380
  969MOL0     H30749   1.696   4.213   7.455  1.7904  1.1654 -2.2066
  969MOL0     H30750   1.657   3.910   7.459  2.3551 -0.6039 -0.2389
  969MOL0     H30751   1.638   4.049   7.341  1.9516  1.7161  1.0555
  969MOL0     H30752   1.550   3.847   7.239  0.1182 -0.7075 -0.8531
  969MOL0     H30753   1.692   3.744   7.292  0.9038  0.2093 -0.9709
  969MOL0     H30754   1.833   3.885   7.167 -0.4980  1.8406  0.3081
  969MOL0     H30755   1.691   3.957   7.086  0.5837  0.8356  1.2934
  969MOL0     H30756   1.810   3.750   6.986  1.6879  1.6464  1.2315
  969MOL0     H30757   1.730   3.660   7.113 -0.2735 -0.1974 -0.7057
  969MOL0     H30758   1.507   3.764   7.025 -0.9320 -1.2836 -1.9759
  969MOL0     H30759   1.596   3.821   6.885 -4.3688 -2.0406 -3.6630
  969MOL0     H30760   1.595   3.518   6.968  1.4108 -0.4236  0.0920
  969MOL0     H30761   1.505   3.585   6.841 -0.8286 -0.6030  0.2011
  969MOL0     H30762   1.801   3.548   6.882 -1.9563  1.3177  2.3041
  969MOL0     H30763   1.774   3.671   6.764  0.8510  0.8585  3.2645
  969MOL0     H30764   1.788   3.428   6.649  0.0032 -1.1181  0.1594
  969MOL0     H30765   1.649   3.391   6.741 -1.8070  0.8620 -1.9100
  969MOL0     H30766   1.713   3.708   6.519  0.2268  0.9646  3.1250
  969MOL0     H30767   1.371   3.732   6.349  0.3804 -0.7084  2.0282
  969MOL0     H30768   1.497   3.851   6.369  1.4354  1.1691 -3.3213
  969MOL0     H30769   1.642   3.719   6.213 -0.0786  3.5071  0.0926
  969MOL0     H30770   1.527   3.588   6.200  2.3376 -0.8828 -1.7803
  969MOL0     H30771   1.540   3.861   6.085  1.7665 -1.6679  1.3284
  969MOL0     H30772   1.374   3.787   6.106  0.0887 -0.5664  1.1216
  969MOL0     H30773   1.603   3.656   5.971  0.1278  2.2020 -0.7220
  969MOL0     H30774   1.504   3.781   5.892  1.5976  0.7021  0.0306
  969MOL0     H30775   1.185   3.599   5.780  0.6824 -0.0832  3.0236
  969MOL0     H30776   1.161   3.525   5.573 -0.0203 -0.1263 -1.2113
  969MOL0     H30777   1.425   3.424   5.152 -0.1514  0.2869  1.5930
  969MOL0     H30778   1.355   3.481   4.917 -2.6234  0.7463 -1.2456
  969MOL0     H30779   1.106   3.331   4.760  0.4182 -0.2085 -0.8375
  969MOL0     H30780   0.954   3.380   4.823 -1.5210 -3.4258 -1.8075
  969MOL0     H30781   1.057   3.439   4.548 -0.2216 -0.8709  0.0773
  969MOL0     H30782   0.896   3.403   4.595 -1.5147  1.2702  0.0558
  969MOL0     H30783   1.025   3.660   4.580  0.4858 -1.3618 -3.6979
  969MOL0     H30784   0.877   3.606   4.522 -0.8745 -1.3747  0.8081
  969MOL0     H30785   0.923   3.651   4.821 -2.4518 -3.7377  2.0555
  969MOL0     H30786   0.774   3.587   4.763 -1.4901  0.4672  0.0079
  969MOL0     H30787   0.710   3.770   4.641 -2.2647 -1.9323  4.1130
  969MOL0     H30788   0.880   3.844   4.656 -1.4942  0.8946 -2.4592
  969MOL0     H30789   0.688   3.812   4.881  3.0365  0.8575  2.5056
  969MOL0     H30790   0.848   3.892   4.873  2.1728 -1.7298 -1.6134
  969MOL0     H30791   0.613   3.966   4.688  0.2168 -0.2781  0.1936
  969MOL0     H30792   0.771   4.051   4.709  0.8984 -0.9287 -1.1387
  969MOL0     H30793   0.558   3.994   4.925 -2.0885  4.4610  1.8456
  969MOL0     H30794   0.704   4.069   4.963  1.4578  0.2103 -0.9644
  969MOL0     H30795   0.954   3.479   5.013 -0.3323  1.8551  0.0140
  969MOL0     H30796   1.024   3.397   5.254 -0.4333 -0.7554 -0.0260
  969MOL0     H30797   1.591   3.415   5.581  1.7936 -0.4904  1.1830
  969MOL0     H30798   1.609   3.507   5.802 -0.3037 -1.5782  0.8862
  969MOL0     H30799   2.014   3.933   7.560 -0.1829 -0.7812  2.3432
  969MOL0     H30800   2.089   4.094   7.734  1.2849 -0.7947 -0.6669
  969MOL0     H30801   1.792   4.657   7.784 -0.0565 -1.8411  1.9304
  969MOL0     H30802   1.905   4.873   7.786  1.9555  1.8305  0.9424
  969MOL0     H30803   2.060   5.030   7.915  0.0702 -0.2577 -0.3005
  969MOL0     H30804   2.100   5.085   7.747  2.2672 -2.1295 -1.8240
  969MOL0     H30805   2.276   5.026   7.981  0.5104  0.8997  1.0569
  969MOL0     H30806   2.251   5.192   7.932  0.0161 -0.7028  0.5398
  969MOL0     H30807   2.398   4.979   7.775 -0.7676 -1.4336  4.9456
  969MOL0     H30808   2.472   5.139   7.835  0.4759 -0.6493 -1.5684
  969MOL0     H30809   2.464   5.167   7.613 -0.9521 -1.0236 -1.3674
  969MOL0     H30810   2.305   5.090   7.587 -0.6966  3.5524 -2.0634
  969MOL0     H30811   2.147   5.461   7.613  1.8709  1.7760  0.0658
  969MOL0     H30812   2.280   4.692   7.869  0.5403 -2.2236 -0.7676
  969MOL0     H30813   2.312   4.474   7.921 -0.4297  0.3651  1.9099
  969MOL0     H30814   2.173   4.382   7.955  0.9666 -1.6826  0.8680
  969MOL0     H30815   2.230   4.382   7.790 -3.5219  0.3290 -0.3041
  970MOL0     O30816  10.663   8.134  11.019 -0.8638 -0.5295  0.3817
  970MOL0     C30817  10.617   8.128  10.908 -0.3268 -0.1781 -0.5375
  970MOL0     O30818  10.606   8.237  10.824  0.0327 -0.2182  0.1629
  970MOL0     C30819  10.613   8.370  10.865  0.3526 -0.0546  0.4926
  970MOL0     C30820  10.559   8.416  10.982  0.2448  0.8023 -0.1123
  970MOL0     C30821  10.551   8.562  11.006  0.7123  0.1119 -0.3066
  970MOL0     C30822  10.606   8.654  10.918  0.2730  0.0109  0.4697
  970MOL0     O30823  10.585   8.790  10.927 -0.0265 -0.4579 -0.4940
  970MOL0     C30824  10.531   8.846  11.041  0.5933 -0.3285  0.0808
  970MOL0     C30825  10.560   8.999  11.051  0.1761 -0.1924 -0.6084
  970MOL0     C30826  10.473   9.074  11.159 -0.0940 -0.0470 -0.1988
  970MOL0     C30827  10.521   9.059  11.304  0.0280  0.5356 -0.2311
  970MOL0     C30828  10.438   9.139  11.402  0.8016 -0.0714  0.4003
  970MOL0     C30829  10.297   9.094  11.430 -0.0323 -1.2885  0.6055
  970MOL0     C30830  10.255   9.146  11.575 -0.3442 -1.0928  0.1991
  970MOL0     C30831  10.245   9.307  11.585 -0.1156 -0.0755  0.6286
  970MOL0     N30832  10.155   9.350  11.477 -0.4483  0.1380  0.7301
  970MOL0     C30833  10.176   9.410  11.355  0.3342  0.1419  0.0667
  970MOL0     C30834  10.055   9.429  11.299  0.5969 -0.4909 -1.8147
  970MOL0     C30835  10.015   9.481  11.168  0.0707  0.8606 -0.5904
  970MOL0     C30836   9.866   9.529  11.175 -0.2372  0.5430 -0.3885
  970MOL0     C30837   9.832   9.627  11.068 -1.3251  0.0413  0.5836
  970MOL0     C30838   9.832   9.579  10.922  0.4044  0.5912  0.9597
  970MOL0     O30839   9.782   9.684  10.836 -0.4757  0.4277 -0.5604
  970MOL0     C30840   9.749   9.655  10.706 -0.4109  0.2380 -0.6220
  970MOL0     C30841   9.762   9.530  10.642  0.2257  0.3302  0.1544
  970MOL0     C30842   9.726   9.501  10.514  0.8387  0.4181 -0.1503
  970MOL0     C30843   9.659   9.604  10.441 -1.2260  0.7350  0.4919
  970MOL0     C30844   9.623   9.584  10.298 -0.0261  0.5957  0.3389
  970MOL0     O30845   9.562   9.698  10.239  0.1214  0.0488 -0.5576
  970MOL0     C30846   9.479   9.667  10.132  0.0597 -0.3627  0.0153
  970MOL0     C30847   9.350   9.719  10.128 -0.5360  0.3198 -0.1159
  970MOL0     C30848   9.259   9.712  10.015 -1.0102 -0.2345  0.1487
  970MOL0     C30849   9.310   9.670   9.895 -0.5436  0.4589 -0.5419
  970MOL0     O30850   9.221   9.683   9.788 -0.2319 -0.2422  0.0648
  970MOL0     C30851   9.272   9.653   9.652  0.7744 -1.5931  1.1681
  970MOL0     C30852   9.171   9.716   9.547  0.0609 -0.3109  0.2605
  970MOL0     C30853   9.236   9.741   9.414 -0.2566  0.1239  0.0113
  970MOL0     C30854   9.134   9.807   9.316 -0.4251 -0.3403  0.2925
  970MOL0     C30855   9.131   9.952   9.345 -0.1800  0.9135  0.6291
  970MOL0     C30856   8.984   9.999   9.322 -0.0290 -0.4599  0.8723
  970MOL0     C30857   8.950  10.155   9.307 -0.0134 -0.4559 -0.0658
  970MOL0     C30858   8.991  10.227   9.434 -0.6842  0.1311  0.5368
  970MOL0    Cl30859   9.095  10.376   9.387  0.5319 -0.5110  0.4384
  970MOL0     C30860   9.430   9.620   9.888  0.0874  0.0521  0.3783
  970MOL0     C30861   9.519   9.624  10.005  0.2980 -0.0884  0.2284
  970MOL0     O30862   9.644   9.473  10.245  0.1909  0.0676 -0.1103
  970MOL0     C30863   9.641   9.724  10.495  0.1546 -1.2994  0.0571
  970MOL0     C30864   9.691   9.760  10.623  0.0182 -0.0400 -0.7697
  970MOL0     N30865   9.957   9.381  11.385  0.2764 -0.1535 -0.2429
  970MOL0     N30866  10.020   9.342  11.484  0.2671 -0.5936  0.9450
  970MOL0     C30867  10.663   8.607  10.803 -1.4761  1.5727  0.3942
  970MOL0     C30868  10.672   8.462  10.778 -0.0847 -0.0403  0.0379
  970MOL0     C30869  10.591   7.999  10.842 -0.7606 -0.0375  0.0994
  970MOL0     C30870  10.533   7.991  10.711  0.4597 -1.0152  0.4369
  970MOL0     C30871  10.508   7.859  10.656 -0.3248  0.1974  0.5487
  970MOL0     C30872  10.525   7.737  10.730 -0.1880 -0.6923 -0.5934
  970MOL0     O30873  10.488   7.605  10.692 -0.2766  0.4472  0.6564
  970MOL0     C30874  10.347   7.603  10.690 -0.0166 -0.4795  0.2468
  970MOL0     C30875  10.280   7.474  10.642  0.4409  0.6568  0.2763
  970MOL0     C30876  10.339   7.416  10.518  0.3661  0.7210  0.3089
  970MOL0     C30877  10.280   7.285  10.473  0.7826 -0.3693  0.2276
  970MOL0     C30878  10.220   7.193  10.575 -0.1933 -0.2804  0.1304
  970MOL0     C30879  10.179   7.130  10.661  0.0694  0.0317  0.6158
  970MOL0     C30880  10.588   7.753  10.852  0.8999  0.4156 -0.5998
  970MOL0     C30881  10.614   7.877  10.906  1.0267 -0.5105 -0.4349
  970MOL0     C30882  10.646   7.862  11.052 -0.4534 -0.7294  0.9264
  970MOL0     H30883  10.504   8.348  11.046 -0.2725  2.2290  1.0306
  970MOL0     H30884  10.498   8.605  11.090 -0.8433  0.0176 -1.2087
  970MOL0     H30885  10.424   8.827  11.049  0.1482  2.2621  1.5598
  970MOL0     H30886  10.576   8.788  11.123  0.0188 -0.3616  0.3794
  970MOL0     H30887  10.546   9.048  10.954  0.5827  1.3121  0.0610
  970MOL0     H30888  10.666   9.021  11.068  0.1029  1.7176 -2.2370
  970MOL0     H30889  10.370   9.038  11.158 -0.1250 -0.5405  3.5695
  970MOL0     H30890  10.471   9.180  11.133  2.3056 -0.2181 -1.3175
  970MOL0     H30891  10.526   8.957  11.342 -3.0674 -0.2174 -1.5897
  970MOL0     H30892  10.623   9.099  11.306 -0.0885  0.8233  0.3029
  970MOL0     H30893  10.488   9.135  11.500  0.3765 -1.6062  0.5835
  970MOL0     H30894  10.439   9.241  11.363  2.6130 -0.5599 -1.0244
  970MOL0     H30895  10.232   9.137  11.353  2.2390  1.4506  0.0133
  970MOL0     H30896  10.294   8.985  11.430  3.4516 -1.5186 -0.6077
  970MOL0     H30897  10.322   9.098  11.647 -1.8930 -1.5316  1.4004
  970MOL0     H30898  10.156   9.113  11.607 -0.7412  1.0435  1.3715
  970MOL0     H30899  10.205   9.334  11.683 -0.8510 -0.1095  0.3470
  970MOL0     H30900  10.343   9.355  11.579 -1.5613  3.0274 -0.2601
  970MOL0     H30901  10.268   9.436  11.303  1.7073 -3.6564  0.2795
  970MOL0     H30902  10.081   9.556  11.124 -1.7560  0.2500 -4.8176
  970MOL0     H30903  10.031   9.411  11.086 -1.6398  0.3075 -0.4946
  970MOL0     H30904   9.800   9.443  11.162  1.5348 -0.9230 -0.1681
  970MOL0     H30905   9.843   9.589  11.264 -1.9288 -1.2748  0.4796
  970MOL0     H30906   9.893   9.717  11.071  0.3872 -0.8279 -2.6031
  970MOL0     H30907   9.731   9.660  11.093 -1.0014  1.1929  0.4189
  970MOL0     H30908   9.775   9.486  10.922 -0.4278  1.0806  1.6321
  970MOL0     H30909   9.932   9.543  10.898 -0.7193 -0.8225 -2.2790
  970MOL0     H30910   9.815   9.452  10.696 -2.0852  0.1067  2.2519
  970MOL0     H30911   9.756   9.408  10.468  4.1287  1.4573 -0.3191
  970MOL0     H30912   9.312   9.751  10.225 -0.7269  2.1388 -0.7571
  970MOL0     H30913   9.159   9.752  10.024  0.0154  3.0061 -1.2531
  970MOL0     H30914   9.372   9.684   9.620 -0.6761 -0.1970 -2.6268
  970MOL0     H30915   9.275   9.544   9.645  0.6739 -1.7478  3.0318
  970MOL0     H30916   9.094   9.643   9.525  1.3968 -1.3370 -1.2619
  970MOL0     H30917   9.122   9.805   9.588  0.9457 -0.0236  0.7304
  970MOL0     H30918   9.328   9.798   9.430  0.7227 -1.7619  1.4356
  970MOL0     H30919   9.261   9.644   9.371 -1.9265 -0.0351 -0.6553
  970MOL0     H30920   9.037   9.757   9.313  0.1033 -1.4561 -3.2001
  970MOL0     H30921   9.163   9.798   9.211  0.8094  2.2964  0.3403
  970MOL0     H30922   9.202   9.998   9.276  3.2267 -2.7966  1.2492
  970MOL0     H30923   9.185   9.968   9.438  2.2289  1.4125 -0.7796
  970MOL0     H30924   8.940   9.941   9.240 -1.0191  2.9965 -1.2261
  970MOL0     H30925   8.925   9.959   9.405 -0.3144  2.4367  2.1994
  970MOL0     H30926   8.843  10.176   9.301 -0.1792 -0.5551  1.8353
  970MOL0     H30927   9.005  10.197   9.223  0.1601  0.1656  0.3500
  970MOL0     H30928   8.896  10.256   9.481 -2.0533 -2.6044 -0.2869
  970MOL0     H30929   9.047  10.166   9.504  0.4936  0.4372 -0.1183
  970MOL0     H30930   9.481   9.589   9.798 -1.4001 -0.7086 -0.2431
  970MOL0     H30931   9.621   9.600   9.976  0.5830  1.6326 -0.3482
  970MOL0     H30932   9.595   9.810  10.447  1.2912 -1.0317 -0.5844
  970MOL0     H30933   9.703   9.861  10.661 -0.7573 -0.5525  0.9595
  970MOL0     H30934  10.692   8.675  10.723 -2.5147  1.2660 -0.2637
  970MOL0     H30935  10.712   8.423  10.685  0.6944 -1.0413  0.7691
  970MOL0     H30936  10.517   8.078  10.647 -0.7942  1.2240  3.5190
  970MOL0     H30937  10.472   7.845  10.554 -0.1955  0.6718  0.4349
  970MOL0     H30938  10.298   7.690  10.646  0.8161  1.3734  2.7598
  970MOL0     H30939  10.315   7.626  10.792 -2.5783  1.8570 -0.9479
  970MOL0     H30940  10.171   7.475  10.630  0.1181  1.3002  2.6487
  970MOL0     H30941  10.291   7.391  10.714  0.7313  1.0329  0.6705
  970MOL0     H30942  10.445   7.398  10.535  0.3312  0.1910 -0.0130
  970MOL0     H30943  10.327   7.492  10.440 -1.4707  1.1947  0.9964
  970MOL0     H30944  10.205   7.313  10.399  0.0044  0.3793  1.2594
  970MOL0     H30945  10.358   7.222  10.431 -0.4571 -3.1772  1.8132
  970MOL0     H30946  10.141   7.049  10.721 -0.9908  0.0217 -0.0465
  970MOL0     H30947  10.611   7.660  10.903  0.5879 -0.2257 -1.5796
  970MOL0     H30948  10.623   7.764  11.094  0.0783 -1.3147 -0.1244
  970MOL0     H30949  10.752   7.870  11.077 -0.4966  0.4667  0.7673
  970MOL0     H30950  10.598   7.942  11.110 -0.0660 -0.4194  0.8279
  971MOL0     O30951   4.228   9.285   0.684 -0.0603 -0.1956  0.4900
  971MOL0     C30952   4.298   9.269   0.587  0.0917  0.6033  0.8306
  971MOL0     O30953   4.268   9.185   0.484 -0.4999  0.4894  0.3066
  971MOL0     C30954   4.134   9.150   0.467 -0.2471  0.5909  0.5188
  971MOL0     C30955   4.099   9.006   0.481 -1.0219 -0.1406  0.4171
  971MOL0     C30956   3.968   8.972   0.451 -1.0911  1.2728 -0.4737
  971MOL0     C30957   3.872   9.060   0.406 -0.0040  0.3103  0.8181
  971MOL0     O30958   3.748   9.000   0.373  0.6421 -0.6598  0.0469
  971MOL0     C30959   3.760   8.935   0.249  0.0946  0.2957 -0.1217
  971MOL0     C30960   3.639   8.873   0.186  1.2161 -0.3857  0.5000
  971MOL0     C30961   3.532   8.972   0.132 -0.1129  0.0012  0.1870
  971MOL0     C30962   3.511   9.104   0.210  0.0883  0.4295  0.8417
  971MOL0     C30963   3.388   9.196   0.166  0.5807  0.1842 -0.0571
  971MOL0     C30964   3.396   9.248   0.022 -0.2699 -0.3390 -0.0725
  971MOL0     C30965   3.258   9.298  -0.042  0.0284 -0.9933  0.2498
  971MOL0     C30966   3.155   9.201  -0.045 -0.5299 -0.3315 -0.3327
  971MOL0     N30967   3.174   9.103  -0.151 -0.1552  0.4844  1.0011
  971MOL0     C30968   3.239   9.125  -0.274 -0.1371 -0.6283 -0.1360
  971MOL0     C30969   3.278   9.002  -0.313  0.8742 -0.3881 -0.6681
  971MOL0     C30970   3.339   8.967  -0.434  0.0047  0.0727 -0.9005
  971MOL0     C30971   3.497   8.988  -0.422  0.7352  0.1308  1.0778
  971MOL0     C30972   3.539   9.014  -0.569  0.9487  0.1461  0.0614
  971MOL0     C30973   3.546   8.901  -0.663 -0.0336 -0.6638  0.1090
  971MOL0     O30974   3.632   8.817  -0.596 -0.1396 -0.5557 -0.7136
  971MOL0     C30975   3.661   8.685  -0.632 -0.0099  0.7038 -0.1369
  971MOL0     C30976   3.602   8.622  -0.736  0.4468  0.5861  0.9916
  971MOL0     C30977   3.647   8.489  -0.770  0.4421 -0.1744  1.2334
  971MOL0     C30978   3.733   8.425  -0.683 -0.5422 -0.0673  0.5624
  971MOL0     C30979   3.770   8.280  -0.697 -0.2421  0.0518  0.4420
  971MOL0     O30980   3.714   8.220  -0.813  0.5165 -0.0412  0.0904
  971MOL0     C30981   3.767   8.101  -0.850  0.1058  0.4583  0.7180
  971MOL0     C30982   3.675   8.014  -0.907  0.3895 -0.4825 -0.0267
  971MOL0     C30983   3.711   7.889  -0.953  0.3287 -0.4169  0.1014
  971MOL0     C30984   3.844   7.851  -0.940  0.5693  0.3751 -0.8539
  971MOL0     O30985   3.896   7.732  -0.983  0.5158  0.2323 -0.4864
  971MOL0     C30986   3.808   7.630  -1.017 -0.0721  0.7535  1.0186
  971MOL0     C30987   3.899   7.518  -1.069 -0.1242  0.4326  0.4672
  971MOL0     C30988   3.979   7.553  -1.193  0.4533 -0.1952  0.7991
  971MOL0     C30989   3.926   7.498  -1.326  0.5350  0.0756  0.7701
  971MOL0     C30990   3.976   7.568  -1.459  0.1156 -0.5229  0.0791
  971MOL0     C30991   4.075   7.481  -1.535  0.0207  0.6416  0.3703
  971MOL0     C30992   4.027   7.345  -1.592 -0.1227 -0.4483  0.1015
  971MOL0     C30993   4.143   7.268  -1.647 -1.0563 -0.7791  0.5450
  971MOL0    Cl30994   4.291   7.358  -1.697  0.3603 -0.1414 -0.4033
  971MOL0     C30995   3.937   7.941  -0.902  0.3144 -0.4898 -0.2078
  971MOL0     C30996   3.906   8.063  -0.842 -0.9007 -0.2180 -0.1619
  971MOL0     O30997   3.832   8.220  -0.606  0.4827 -0.8450  1.0613
  971MOL0     C30998   3.798   8.501  -0.581  0.3088 -0.8581  1.3295
  971MOL0     C30999   3.767   8.634  -0.564  0.4353  0.0080 -0.3656
  971MOL0     N31000   3.238   8.904  -0.216 -0.1563  0.0090 -0.0309
  971MOL0     N31001   3.173   8.971  -0.122  0.2790  0.3182 -0.3921
  971MOL0     C31002   3.905   9.197   0.400  1.6794  0.3067 -0.1992
  971MOL0     C31003   4.032   9.244   0.438 -0.4449  0.0576 -1.6379
  971MOL0     C31004   4.441   9.318   0.595 -0.6915  0.4831  0.1384
  971MOL0     C31005   4.522   9.344   0.486 -0.9953  0.1173 -0.3985
  971MOL0     C31006   4.652   9.395   0.501 -0.2260  0.3190 -0.0310
  971MOL0     C31007   4.703   9.423   0.622  0.2877  0.1515 -0.2140
  971MOL0     O31008   4.830   9.476   0.645  0.1690 -0.7288 -0.2150
  971MOL0     C31009   4.934   9.491   0.548 -0.0080  0.4180  0.6030
  971MOL0     C31010   4.990   9.351   0.525 -0.1428  0.1720 -0.8351
  971MOL0     C31011   5.116   9.345   0.433  0.1418  0.1987 -0.5609
  971MOL0     C31012   5.091   9.383   0.289 -0.7576  0.0099  0.4675
  971MOL0     C31013   4.994   9.309   0.215 -0.4653 -0.2244 -0.4499
  971MOL0     C31014   4.922   9.241   0.151  1.4486  0.2978 -0.1390
  971MOL0     C31015   4.624   9.402   0.735 -0.1998  1.0860 -0.7053
  971MOL0     C31016   4.502   9.338   0.724  0.6894 -0.1368 -0.0701
  971MOL0     C31017   4.456   9.278   0.855  0.6753  0.3135 -0.6668
  971MOL0     H31018   4.172   8.930   0.508 -0.4733  0.2392  0.0252
  971MOL0     H31019   3.945   8.865   0.450  1.5205  0.5815 -2.9966
  971MOL0     H31020   3.806   9.006   0.179  0.4433  2.9549  2.5529
  971MOL0     H31021   3.827   8.849   0.255  1.8122  1.6281  1.8204
  971MOL0     H31022   3.586   8.811   0.259 -2.2973 -1.0803 -2.3876
  971MOL0     H31023   3.665   8.804   0.106  1.5866  2.9109 -2.4923
  971MOL0     H31024   3.429   8.935   0.127 -0.6563  1.5551 -1.5802
  971MOL0     H31025   3.569   8.998   0.032  0.4472  0.6229  0.5521
  971MOL0     H31026   3.479   9.086   0.313 -1.8399 -2.2803 -0.0949
  971MOL0     H31027   3.607   9.154   0.198  0.5133 -0.9477 -3.3345
  971MOL0     H31028   3.294   9.143   0.183 -0.0410  0.7840 -1.4402
  971MOL0     H31029   3.384   9.291   0.221  1.3548  2.9122 -4.2331
  971MOL0     H31030   3.485   9.306  -0.002 -0.3503 -0.7929 -1.5520
  971MOL0     H31031   3.417   9.159  -0.038  0.9906  0.4149 -0.8041
  971MOL0     H31032   3.273   9.330  -0.146  1.7482 -2.5091 -0.0291
  971MOL0     H31033   3.236   9.379   0.028  2.2190  2.6294 -2.8643
  971MOL0     H31034   3.146   9.152   0.052  5.1168 -2.8062 -0.6300
  971MOL0     H31035   3.060   9.256  -0.048 -0.9041 -1.0142 -1.2523
  971MOL0     H31036   3.255   9.215  -0.332  0.2416 -1.7873 -1.9053
  971MOL0     H31037   3.302   8.865  -0.449  2.5185 -0.7055 -2.5353
  971MOL0     H31038   3.285   9.018  -0.514 -0.6062 -1.1459 -1.2885
  971MOL0     H31039   3.521   9.064  -0.347 -1.1504  1.1189  0.7612
  971MOL0     H31040   3.538   8.893  -0.386 -0.8698 -0.0472  2.5858
  971MOL0     H31041   3.641   9.050  -0.559  0.7085  0.1856  3.6869
  971MOL0     H31042   3.482   9.099  -0.607  0.9334 -0.5417 -1.5548
  971MOL0     H31043   3.589   8.942  -0.755  0.4476 -2.7820 -0.6641
  971MOL0     H31044   3.447   8.860  -0.686  0.3993 -1.4717 -0.3635
  971MOL0     H31045   3.518   8.665  -0.789 -0.7214 -0.6305  1.7892
  971MOL0     H31046   3.603   8.450  -0.861 -1.2034 -2.4399  2.9031
  971MOL0     H31047   3.570   8.036  -0.891  0.8991  0.5635  2.3372
  971MOL0     H31048   3.636   7.824  -0.997  0.9664 -0.3685 -1.0902
  971MOL0     H31049   3.747   7.600  -0.932 -1.6086  1.0876  0.0800
  971MOL0     H31050   3.742   7.653  -1.102 -0.2414  0.3591  1.0420
  971MOL0     H31051   3.964   7.485  -0.988  0.3966 -1.8918 -0.7874
  971MOL0     H31052   3.840   7.428  -1.091 -0.7521  0.9702 -0.0818
  971MOL0     H31053   4.012   7.657  -1.203  1.8905 -0.8372 -2.1762
  971MOL0     H31054   4.076   7.508  -1.171  0.0099 -0.2602  2.8277
  971MOL0     H31055   3.819   7.487  -1.343  0.9447 -1.8798 -0.8523
  971MOL0     H31056   3.954   7.393  -1.327  0.5858  0.0863  1.0254
  971MOL0     H31057   4.016   7.665  -1.430  0.9537 -0.7265 -0.3424
  971MOL0     H31058   3.893   7.575  -1.529  2.9932 -0.8915 -3.7199
  971MOL0     H31059   4.114   7.538  -1.620 -1.0484  0.4920 -0.2373
  971MOL0     H31060   4.163   7.457  -1.475 -0.0961 -0.6134  0.0687
  971MOL0     H31061   3.959   7.367  -1.674  0.1659  0.2985  0.0610
  971MOL0     H31062   3.965   7.302  -1.513 -0.7876 -0.4535 -0.4158
  971MOL0     H31063   4.176   7.214  -1.557 -1.2674  3.2292  3.2969
  971MOL0     H31064   4.109   7.189  -1.715 -0.3700 -1.3892  0.8946
  971MOL0     H31065   4.038   7.902  -0.902  1.2596  1.7616  1.5620
  971MOL0     H31066   3.986   8.131  -0.814 -1.0518  2.6775 -5.5677
  971MOL0     H31067   3.877   8.458  -0.520  0.5857 -0.4174  1.2827
  971MOL0     H31068   3.812   8.693  -0.485  1.8316 -1.0058 -0.3669
  971MOL0     H31069   3.824   9.263   0.372  1.5882  0.1402 -0.3273
  971MOL0     H31070   4.048   9.350   0.452  1.1646 -0.3808  0.3247
  971MOL0     H31071   4.477   9.316   0.392  0.0246 -2.3526 -0.2005
  971MOL0     H31072   4.705   9.398   0.406 -3.5403 -1.9426 -2.1568
  971MOL0     H31073   5.024   9.545   0.579 -0.1753  1.6930 -0.9921
  971MOL0     H31074   4.883   9.527   0.458  1.9246 -1.9105 -1.5659
  971MOL0     H31075   4.919   9.287   0.473  0.3552 -0.4572 -0.7561
  971MOL0     H31076   5.012   9.311   0.625  0.7794  1.3508 -0.5444
  971MOL0     H31077   5.150   9.241   0.439  0.0755  0.2374  0.8426
  971MOL0     H31078   5.189   9.407   0.485  0.5300 -0.1362 -0.7072
  971MOL0     H31079   5.058   9.486   0.275 -0.9803 -0.2196 -0.8676
  971MOL0     H31080   5.186   9.371   0.235 -0.6723 -0.4658  0.7152
  971MOL0     H31081   4.841   9.187   0.108 -0.1130  0.7673  2.0441
  971MOL0     H31082   4.676   9.422   0.828  0.4915 -3.1094 -0.0049
  971MOL0     H31083   4.526   9.311   0.932 -0.1421 -0.1285  0.2821
  971MOL0     H31084   4.358   9.318   0.883  1.5757  2.1626 -0.0190
  971MOL0     H31085   4.436   9.170   0.855 -0.2528  0.4588 -1.9010
  972MOL0     O31086   7.305   8.498   1.812 -1.0062 -0.5254  0.1041
  972MOL0     C31087   7.339   8.407   1.730 -0.0262 -0.8201  0.3129
  972MOL0     O31088   7.251   8.318   1.681 -0.1157 -0.4416  0.4812
  972MOL0     C31089   7.114   8.330   1.685  0.4253 -1.1679  0.0067
  972MOL0     C31090   7.043   8.452   1.681 -1.5985 -0.6064 -0.5097
  972MOL0     C31091   6.907   8.465   1.647 -0.0919 -0.0885  0.2692
  972MOL0     C31092   6.832   8.355   1.612 -1.0283  0.5865  0.4816
  972MOL0     O31093   6.707   8.375   1.566  0.1177  0.5973 -0.0576
  972MOL0     C31094   6.619   8.464   1.636  0.1566  1.1719 -0.0533
  972MOL0     C31095   6.479   8.398   1.657  0.3391  0.4289 -0.0265
  972MOL0     C31096   6.402   8.397   1.513 -0.5074  0.0888 -0.7997
  972MOL0     C31097   6.282   8.305   1.515  0.6338  0.4012  0.2658
  972MOL0     C31098   6.171   8.352   1.620  1.1742  0.6321 -0.6520
  972MOL0     C31099   6.170   8.262   1.740  0.5982 -0.0509  0.2757
  972MOL0     C31100   6.082   8.323   1.850 -0.2073  0.6054 -0.1005
  972MOL0     C31101   5.937   8.336   1.809 -0.4686 -0.2164 -0.4069
  972MOL0     N31102   5.875   8.206   1.836  0.6559 -0.7206  0.9960
  972MOL0     C31103   5.863   8.105   1.743 -0.3878 -0.0476  0.7040
  972MOL0     C31104   5.826   8.001   1.813 -0.1885  0.4858 -0.1016
  972MOL0     C31105   5.795   7.870   1.753  0.6359 -0.2485  0.7368
  972MOL0     C31106   5.899   7.764   1.795  0.1101  0.4292  0.3690
  972MOL0     C31107   5.907   7.752   1.943 -0.5132  0.1236 -0.9137
  972MOL0     C31108   5.963   7.615   1.984 -0.8829 -0.6522  0.1812
  972MOL0     O31109   5.961   7.507   1.887  0.1241  1.0437 -1.0481
  972MOL0     C31110   6.068   7.496   1.802 -0.6306 -0.0268 -0.3373
  972MOL0     C31111   6.190   7.564   1.797 -1.2253 -0.0296  0.0253
  972MOL0     C31112   6.289   7.529   1.708 -0.3296  0.8385  0.7847
  972MOL0     C31113   6.270   7.424   1.620 -1.4580 -0.0819  1.1478
  972MOL0     C31114   6.380   7.380   1.530  0.3485 -0.9550 -1.0918
  972MOL0     O31115   6.495   7.464   1.528  0.2756  0.0544 -0.2445
  972MOL0     C31116   6.610   7.431   1.461 -0.5594 -0.2091  0.7417
  972MOL0     C31117   6.735   7.484   1.509  0.3236  0.6288  0.5313
  972MOL0     C31118   6.858   7.456   1.444  0.4651 -0.5082 -0.1695
  972MOL0     C31119   6.868   7.380   1.339 -0.8060 -0.7266  0.1697
  972MOL0     O31120   6.994   7.368   1.281  0.6498 -0.2273  0.0775
  972MOL0     C31121   7.023   7.267   1.186  0.8907  0.2902  0.1986
  972MOL0     C31122   7.173   7.240   1.171  0.0302  0.0359 -0.3715
  972MOL0     C31123   7.247   7.353   1.117 -1.8396  0.2506 -0.8811
  972MOL0     C31124   7.397   7.309   1.088  0.2117 -1.0632 -0.7763
  972MOL0     C31125   7.472   7.323   1.217 -0.3740  0.5498 -0.0720
  972MOL0     C31126   7.590   7.223   1.249  0.5803 -0.5074  0.4496
  972MOL0     C31127   7.714   7.251   1.170  0.3672 -0.7509 -0.4438
  972MOL0     C31128   7.800   7.133   1.177 -0.3816  0.2507 -1.0703
  972MOL0    Cl31129   7.898   7.129   1.022 -0.0915 -0.4916 -0.7830
  972MOL0     C31130   6.752   7.341   1.279 -0.5720  0.1326 -0.8988
  972MOL0     C31131   6.627   7.363   1.338 -0.1769  0.0345 -0.9510
  972MOL0     O31132   6.370   7.276   1.464 -0.8592  0.4267 -0.0388
  972MOL0     C31133   6.149   7.358   1.618 -0.7577  0.0095  1.1123
  972MOL0     C31134   6.045   7.401   1.701 -0.0331  1.1566  0.9183
  972MOL0     N31135   5.806   8.045   1.948  0.1451 -0.4726 -0.0292
  972MOL0     N31136   5.845   8.169   1.957 -0.5637 -0.5613  0.3551
  972MOL0     C31137   6.898   8.228   1.632  0.1257 -0.1988  1.5648
  972MOL0     C31138   7.029   8.221   1.672  0.8627 -0.4243  0.3959
  972MOL0     C31139   7.490   8.389   1.716 -0.5887  0.4758 -0.8200
  972MOL0     C31140   7.578   8.438   1.809  0.1017 -0.3772 -0.3925
  972MOL0     C31141   7.718   8.423   1.792  0.6144  0.4419 -0.1441
  972MOL0     C31142   7.759   8.370   1.677 -0.4731 -1.1203  0.3590
  972MOL0     O31143   7.889   8.331   1.646  0.3448 -0.3516 -0.1958
  972MOL0     C31144   7.961   8.263   1.751  0.7098 -0.0859 -0.2952
  972MOL0     C31145   8.039   8.151   1.675  0.4472  0.4448 -0.4432
  972MOL0     C31146   8.106   8.056   1.771 -0.0548 -0.3906  0.0691
  972MOL0     C31147   8.240   8.111   1.828  0.2494 -1.0269 -0.1149
  972MOL0     C31148   8.352   8.100   1.729  0.8907 -0.0953  0.7095
  972MOL0     C31149   8.438   8.070   1.642 -0.2811 -0.9161 -0.6412
  972MOL0     C31150   7.668   8.319   1.583  0.1386  0.3267  0.1357
  972MOL0     C31151   7.535   8.325   1.603 -0.5577 -0.0058  0.3442
  972MOL0     C31152   7.444   8.276   1.490 -1.3264 -0.2868  0.2938
  972MOL0     H31153   7.100   8.543   1.695 -2.6917 -0.2997  2.7071
  972MOL0     H31154   6.872   8.567   1.640  0.0535 -0.1103 -1.2514
  972MOL0     H31155   6.655   8.485   1.737  1.3638  2.1009 -0.6513
  972MOL0     H31156   6.594   8.560   1.590 -2.8875  0.5085 -0.0020
  972MOL0     H31157   6.421   8.453   1.731 -1.5733 -1.8224  0.2922
  972MOL0     H31158   6.497   8.297   1.696  0.5282  1.4856  2.8760
  972MOL0     H31159   6.478   8.365   1.441  0.8446 -1.1769  1.0913
  972MOL0     H31160   6.370   8.496   1.482 -3.5166 -1.2237 -2.3165
  972MOL0     H31161   6.226   8.305   1.420  0.1896 -1.4150  0.4845
  972MOL0     H31162   6.306   8.201   1.539 -0.4567  0.0126 -0.2446
  972MOL0     H31163   6.185   8.453   1.660 -0.9068  0.1974  1.3899
  972MOL0     H31164   6.077   8.356   1.564  1.4413  0.6988 -1.0997
  972MOL0     H31165   6.138   8.163   1.705 -1.5952 -0.0548  2.0433
  972MOL0     H31166   6.272   8.254   1.779  0.9137  0.2009 -0.4978
  972MOL0     H31167   6.125   8.420   1.877  0.6107  1.0675 -2.7674
  972MOL0     H31168   6.088   8.257   1.937  3.0788  0.7326 -0.1165
  972MOL0     H31169   5.899   8.424   1.862  2.5141  1.8296 -1.4116
  972MOL0     H31170   5.930   8.361   1.702  3.8573 -1.0304 -1.0546
  972MOL0     H31171   5.886   8.102   1.637 -3.5752 -0.0590 -0.0855
  972MOL0     H31172   5.694   7.844   1.784  1.1786 -2.2371  0.9970
  972MOL0     H31173   5.799   7.886   1.645  0.0473  4.2898  1.1924
  972MOL0     H31174   5.877   7.663   1.758  4.2677  0.6332 -3.3852
  972MOL0     H31175   5.992   7.785   1.743 -1.8633  1.1474 -3.1837
  972MOL0     H31176   5.810   7.767   1.990 -0.2733  1.2616 -0.7388
  972MOL0     H31177   5.966   7.829   1.993 -1.5851  1.3551 -1.4789
  972MOL0     H31178   5.910   7.581   2.074  2.5248 -3.0141  1.4890
  972MOL0     H31179   6.067   7.620   2.016 -0.1905 -0.1210 -1.9896
  972MOL0     H31180   6.218   7.629   1.880 -0.8480  0.5255 -0.5218
  972MOL0     H31181   6.384   7.580   1.719  0.4535 -1.0759  5.0589
  972MOL0     H31182   6.745   7.542   1.601 -1.4575  1.1157  0.4585
  972MOL0     H31183   6.944   7.506   1.486  0.4852 -0.8790  0.2392
  972MOL0     H31184   6.970   7.173   1.206 -1.6714  1.2395 -1.6344
  972MOL0     H31185   6.992   7.305   1.089  1.2714 -2.6785 -1.1978
  972MOL0     H31186   7.217   7.200   1.263 -0.2443  2.3941  0.8575
  972MOL0     H31187   7.186   7.158   1.099  2.4653  0.6516 -0.7186
  972MOL0     H31188   7.211   7.372   1.016  1.3863  2.0823 -1.8475
  972MOL0     H31189   7.237   7.444   1.177  1.5067 -0.3761  0.9078
  972MOL0     H31190   7.449   7.359   1.006 -1.6101  0.3873 -1.0961
  972MOL0     H31191   7.404   7.203   1.062 -0.1410 -1.1631 -0.4698
  972MOL0     H31192   7.400   7.305   1.297  0.5663 -1.9740  0.2984
  972MOL0     H31193   7.506   7.427   1.223  0.0941  0.4099 -0.2591
  972MOL0     H31194   7.612   7.237   1.355  0.3184  1.2443  0.3069
  972MOL0     H31195   7.555   7.121   1.229  0.4805 -0.6096  1.1255
  972MOL0     H31196   7.761   7.338   1.217  1.4386 -1.6266  0.1474
  972MOL0     H31197   7.686   7.266   1.065  0.9217  0.1277 -0.4742
  972MOL0     H31198   7.867   7.154   1.260 -0.6811  3.1037 -1.4541
  972MOL0     H31199   7.746   7.038   1.188  1.3275 -0.7174 -0.6702
  972MOL0     H31200   6.751   7.275   1.193 -0.1502 -0.1267 -0.7059
  972MOL0     H31201   6.537   7.341   1.281 -0.3418  0.4607 -0.8621
  972MOL0     H31202   6.122   7.273   1.555  0.8568  1.1284 -1.2245
  972MOL0     H31203   5.947   7.354   1.712 -0.6352  2.2764  0.5238
  972MOL0     H31204   6.849   8.134   1.608 -0.9596  0.4954  1.0091
  972MOL0     H31205   7.078   8.124   1.674  2.1471  0.1931  2.8312
  972MOL0     H31206   7.543   8.492   1.896  0.6233  1.9885 -1.5728
  972MOL0     H31207   7.793   8.459   1.862  2.0512 -1.1633 -0.7759
  972MOL0     H31208   7.908   8.217   1.835  0.8320  1.9961  0.9780
  972MOL0     H31209   8.034   8.334   1.791  0.0551 -0.0391  0.8723
  972MOL0     H31210   8.117   8.197   1.613 -0.3813  1.4109 -0.7950
  972MOL0     H31211   7.975   8.094   1.607  0.0034 -1.6167  1.5826
  972MOL0     H31212   8.133   7.964   1.719  0.0632 -0.3920  0.1332
  972MOL0     H31213   8.027   8.032   1.842 -1.9418 -1.8355 -2.3669
  972MOL0     H31214   8.222   8.212   1.866  0.7557 -0.1189 -2.1554
  972MOL0     H31215   8.255   8.053   1.919  1.0142 -0.0785  0.3812
  972MOL0     H31216   8.514   8.022   1.585 -0.9599 -0.2356 -2.1849
  972MOL0     H31217   7.708   8.274   1.492  2.0491  1.7106  0.2071
  972MOL0     H31218   7.501   8.239   1.404  3.5022  1.2398  2.4816
  972MOL0     H31219   7.379   8.193   1.518 -2.1041  0.7234  1.6088
  972MOL0     H31220   7.385   8.365   1.466 -0.1036  1.2037  2.4813
  973MOL0     O31221   7.921   2.137   1.607  0.8998  0.2914 -0.4335
  973MOL0     C31222   7.868   2.247   1.596 -0.4581  0.2007 -0.0872
  973MOL0     O31223   7.794   2.317   1.690  0.2138 -0.9038  0.3076
  973MOL0     C31224   7.752   2.258   1.804 -0.1666  0.3545  0.1652
  973MOL0     C31225   7.618   2.219   1.797 -0.8620 -0.5904 -0.7077
  973MOL0     C31226   7.565   2.136   1.898 -0.0489  0.0968 -0.0841
  973MOL0     C31227   7.641   2.127   2.018  1.5602  0.2993 -0.3886
  973MOL0     O31228   7.598   2.031   2.113  0.6773 -0.2658  0.3798
  973MOL0     C31229   7.496   1.929   2.090 -0.2039 -0.2241  0.9214
  973MOL0     C31230   7.507   1.810   2.187 -1.9415  0.7579 -0.2755
  973MOL0     C31231   7.643   1.724   2.192 -0.4683  0.0264 -0.1490
  973MOL0     C31232   7.648   1.593   2.277 -0.3056 -0.0716 -0.8634
  973MOL0     C31233   7.581   1.472   2.193 -0.5830 -0.5571 -0.1944
  973MOL0     C31234   7.580   1.333   2.274  0.7892 -0.0399 -0.7394
  973MOL0     C31235   7.501   1.330   2.413  0.0388 -0.0346 -0.5380
  973MOL0     C31236   7.347   1.322   2.401  0.4498  0.0301  0.8684
  973MOL0     N31237   7.297   1.188   2.361 -0.7349 -1.0801 -0.2013
  973MOL0     C31238   7.329   1.069   2.410 -0.0212  0.0716  0.0868
  973MOL0     C31239   7.270   0.988   2.329  0.6686  0.2210  0.0180
  973MOL0     C31240   7.285   0.838   2.327  0.7918  0.0845 -0.1959
  973MOL0     C31241   7.312   0.784   2.186  0.8615  0.0100  0.3229
  973MOL0     C31242   7.317   0.632   2.177  0.3936  0.7628  0.0505
  973MOL0     C31243   7.178   0.587   2.163  0.7572  0.5652 -0.5768
  973MOL0     O31244   7.199   0.446   2.161 -0.5026 -0.0100 -0.3094
  973MOL0     C31245   7.093   0.370   2.147  0.4647  0.2098 -0.0836
  973MOL0     C31246   7.112   0.241   2.099 -0.2457 -0.6282  0.0157
  973MOL0     C31247   7.011   0.140   2.096 -0.7723  0.2751  1.3688
  973MOL0     C31248   6.893   0.166   2.140 -0.6868  0.2725 -0.6489
  973MOL0     C31249   6.794   0.060   2.142 -0.5170  0.6586  0.0141
  973MOL0     O31250   6.808  -0.061   2.083 -0.0075  0.4608  0.5488
  973MOL0     C31251   6.718  -0.166   2.083 -0.3300 -0.4201 -0.0005
  973MOL0     C31252   6.576  -0.168   2.092 -0.1578 -1.5082 -1.5721
  973MOL0     C31253   6.495  -0.285   2.090 -0.2473  0.0232  0.6322
  973MOL0     C31254   6.552  -0.408   2.061 -0.3257  0.7109 -0.5843
  973MOL0     O31255   6.469  -0.521   2.046 -0.2980 -0.7869 -0.1683
  973MOL0     C31256   6.544  -0.647   2.042  0.5133  0.7120 -0.8081
  973MOL0     C31257   6.467  -0.765   1.999 -0.0632  1.0028  0.0921
  973MOL0     C31258   6.546  -0.899   1.999 -0.4665  0.4002  0.5821
  973MOL0     C31259   6.640  -0.896   1.879  0.7723 -0.8199 -0.2872
  973MOL0     C31260   6.712  -1.030   1.848 -0.6566 -0.0100  0.0388
  973MOL0     C31261   6.842  -1.006   1.776 -0.0425  0.0072  0.6476
  973MOL0     C31262   6.937  -1.127   1.749  0.2096 -0.7443 -0.9529
  973MOL0     C31263   7.015  -1.160   1.875  0.8648 -0.3677  0.0242
  973MOL0    Cl31264   7.150  -1.045   1.895 -0.0554 -0.1155  0.2480
  973MOL0     C31265   6.698  -0.409   2.039  0.5772 -0.5853 -0.4470
  973MOL0     C31266   6.776  -0.292   2.062 -0.5535 -0.0299 -0.6180
  973MOL0     O31267   6.686   0.099   2.196  0.2208  0.8147  0.0414
  973MOL0     C31268   6.861   0.303   2.184 -0.1639  0.5844  1.3465
  973MOL0     C31269   6.965   0.399   2.184 -0.0181 -0.3960  0.4120
  973MOL0     N31270   7.202   1.053   2.235 -0.4103  0.5589 -0.4675
  973MOL0     N31271   7.228   1.173   2.251 -0.3078  0.1236  0.5566
  973MOL0     C31272   7.772   2.180   2.031  0.5926  0.1076  0.1089
  973MOL0     C31273   7.835   2.235   1.918 -0.5413 -0.2809 -0.4383
  973MOL0     C31274   7.881   2.314   1.462  0.1458 -0.5660  0.1952
  973MOL0     C31275   7.841   2.447   1.452 -0.0570 -0.2350  0.1331
  973MOL0     C31276   7.852   2.519   1.334  0.6811  0.5920 -0.3372
  973MOL0     C31277   7.906   2.459   1.218 -0.5286  0.4781 -0.5265
  973MOL0     O31278   7.927   2.549   1.119 -1.2454 -0.0984  0.3222
  973MOL0     C31279   8.002   2.507   1.000 -0.9193  0.2155 -0.5480
  973MOL0     C31280   7.994   2.629   0.908 -1.2724 -0.8846 -0.3376
  973MOL0     C31281   7.922   2.590   0.777 -0.2321  0.1304 -0.5784
  973MOL0     C31282   7.922   2.701   0.678  0.4115  0.1133  0.0242
  973MOL0     C31283   7.904   2.643   0.541  0.2358 -0.5811  0.3343
  973MOL0     C31284   7.875   2.609   0.430  0.3348 -0.9822  0.6654
  973MOL0     C31285   7.941   2.324   1.224 -0.0235 -0.2619 -1.4236
  973MOL0     C31286   7.933   2.251   1.350  0.9528 -0.1713  1.0351
  973MOL0     C31287   7.985   2.110   1.342  0.6844  0.1155 -0.7660
  973MOL0     H31288   7.548   2.240   1.717 -1.4422  1.1403  0.1871
  973MOL0     H31289   7.467   2.090   1.885  1.1138 -3.0417  1.2767
  973MOL0     H31290   7.395   1.964   2.111 -0.5961 -1.3473  1.0124
  973MOL0     H31291   7.503   1.893   1.987  1.1173  1.1224  0.5066
  973MOL0     H31292   7.419   1.747   2.196 -0.3308 -1.6669 -0.6626
  973MOL0     H31293   7.497   1.862   2.283  0.3631 -1.8896  1.5469
  973MOL0     H31294   7.723   1.792   2.222 -1.0214  1.3122 -1.4839
  973MOL0     H31295   7.665   1.698   2.088 -1.7736 -1.5119 -0.0803
  973MOL0     H31296   7.745   1.566   2.319 -1.1715 -2.0170  0.0336
  973MOL0     H31297   7.589   1.614   2.366  2.0002  3.8604 -0.0026
  973MOL0     H31298   7.484   1.502   2.154 -0.4807 -0.3555 -0.2980
  973MOL0     H31299   7.651   1.452   2.111  1.8940 -0.7081  1.8306
  973MOL0     H31300   7.542   1.259   2.203  2.6028  1.7696 -3.8269
  973MOL0     H31301   7.684   1.307   2.294 -0.2643 -2.3736  2.7733
  973MOL0     H31302   7.531   1.419   2.468  1.7651  0.5515 -2.3061
  973MOL0     H31303   7.536   1.242   2.469  2.4177  1.2918  0.2160
  973MOL0     H31304   7.299   1.355   2.494 -0.2608  2.1072 -0.1567
  973MOL0     H31305   7.314   1.393   2.325  1.3660  0.3512  0.7603
  973MOL0     H31306   7.401   1.036   2.484  2.1364  2.9085 -0.5851
  973MOL0     H31307   7.356   0.794   2.398 -0.5747  0.3421  1.3915
  973MOL0     H31308   7.197   0.797   2.378  0.2177  0.8277 -0.5759
  973MOL0     H31309   7.221   0.815   2.134 -1.4990 -3.7471  1.7701
  973MOL0     H31310   7.394   0.837   2.136 -0.2042  2.2974  0.8974
  973MOL0     H31311   7.366   0.589   2.264  2.8655 -0.7767 -1.9437
  973MOL0     H31312   7.377   0.608   2.089  3.6088  3.5923  1.2470
  973MOL0     H31313   7.132   0.613   2.068  0.9291 -3.8483 -2.0812
  973MOL0     H31314   7.117   0.621   2.248 -0.6957 -1.6235 -0.6638
  973MOL0     H31315   7.212   0.221   2.064 -0.1703 -2.1165  0.9726
  973MOL0     H31316   7.049   0.046   2.058 -1.2540  1.7272 -3.4694
  973MOL0     H31317   6.525  -0.073   2.107  1.6341 -0.7284  0.0663
  973MOL0     H31318   6.390  -0.257   2.096  0.1827  1.7527  0.8809
  973MOL0     H31319   6.630  -0.640   1.974 -0.2144 -0.0116 -1.8390
  973MOL0     H31320   6.565  -0.669   2.147  0.4932 -1.3639 -1.1843
  973MOL0     H31321   6.385  -0.774   2.071 -0.3366 -0.5987 -0.4007
  973MOL0     H31322   6.411  -0.764   1.905 -2.0151 -2.8637  0.9889
  973MOL0     H31323   6.616  -0.903   2.083 -0.2672 -1.0904  0.3734
  973MOL0     H31324   6.478  -0.985   2.006  0.0546 -0.2182 -1.4262
  973MOL0     H31325   6.711  -0.823   1.918  0.9241 -2.4748  2.9059
  973MOL0     H31326   6.592  -0.870   1.784  1.7077 -1.6432 -1.0054
  973MOL0     H31327   6.640  -1.088   1.789  0.2308 -3.0290  1.7455
  973MOL0     H31328   6.719  -1.080   1.945 -3.1216  1.1225  0.8886
  973MOL0     H31329   6.813  -0.964   1.679 -1.6781  2.7248  2.1937
  973MOL0     H31330   6.899  -0.923   1.819  2.0687  0.1440 -2.1142
  973MOL0     H31331   6.999  -1.116   1.660  0.7575  0.9489 -0.4097
  973MOL0     H31332   6.876  -1.217   1.735 -1.8030  0.0778  1.6154
  973MOL0     H31333   6.971  -1.150   1.975  1.6482 -0.2111  0.3593
  973MOL0     H31334   7.045  -1.265   1.874 -0.4200 -0.8237  1.9827
  973MOL0     H31335   6.764  -0.492   2.017 -1.2889 -2.1695 -0.3268
  973MOL0     H31336   6.882  -0.281   2.044 -0.7679  1.6159 -1.0203
  973MOL0     H31337   6.759   0.330   2.208 -0.8672  0.3382 -1.0353
  973MOL0     H31338   6.941   0.501   2.212  2.3351  1.3882 -3.2621
  973MOL0     H31339   7.838   2.143   2.109 -2.7717  0.3477  3.3260
  973MOL0     H31340   7.941   2.253   1.903 -0.7202 -1.5062 -4.5948
  973MOL0     H31341   7.809   2.495   1.544  0.2575  2.5610 -1.1189
  973MOL0     H31342   7.837   2.627   1.340 -1.4969  0.2749  0.7564
  973MOL0     H31343   7.949   2.419   0.963 -3.4688  1.5240 -0.2128
  973MOL0     H31344   8.106   2.486   1.026 -1.4807 -0.5812  1.2273
  973MOL0     H31345   8.091   2.680   0.906 -1.3329 -0.6611  1.3642
  973MOL0     H31346   7.925   2.704   0.947 -1.0232 -0.2832 -1.0267
  973MOL0     H31347   7.820   2.554   0.796  0.5463 -2.2949 -0.6898
  973MOL0     H31348   7.961   2.497   0.737 -0.0777  0.7369 -1.8806
  973MOL0     H31349   7.842   2.773   0.701 -1.2536 -0.9898 -1.9529
  973MOL0     H31350   8.020   2.750   0.674  0.9879 -1.0536 -1.1432
  973MOL0     H31351   7.848   2.573   0.332  1.5928 -3.6121  1.2017
  973MOL0     H31352   7.974   2.271   1.136 -0.1399 -1.7516 -0.6136
  973MOL0     H31353   7.893   2.058   1.367 -1.3943  4.1623  0.9710
  973MOL0     H31354   8.016   2.074   1.244  1.1755 -2.0579  0.1216
  973MOL0     H31355   8.070   2.090   1.409  0.2151 -0.4773 -0.3404
  974MOL0     O31356   8.782   2.902   6.151  0.4973  0.7003 -0.1425
  974MOL0     C31357   8.696   2.818   6.108 -0.1543  0.1269 -0.3996
  974MOL0     O31358   8.698   2.768   5.982 -0.6858 -0.2172  0.8385
  974MOL0     C31359   8.728   2.857   5.880  0.4423  0.2396 -0.4508
  974MOL0     C31360   8.623   2.910   5.819 -0.1492  0.4382  0.9694
  974MOL0     C31361   8.647   3.009   5.718  0.3208 -0.1047 -0.3447
  974MOL0     C31362   8.778   3.034   5.678  0.0881  0.0168  1.0127
  974MOL0     O31363   8.788   3.118   5.572  0.1904  0.5181 -0.1859
  974MOL0     C31364   8.909   3.171   5.547 -0.3004  0.6224  0.2165
  974MOL0     C31365   8.969   3.135   5.415  0.4312  0.8196 -0.5761
  974MOL0     C31366   9.004   2.990   5.416 -0.7697  0.4976  0.5952
  974MOL0     C31367   9.045   2.948   5.277  0.2122  0.2777 -0.1731
  974MOL0     C31368   9.109   2.807   5.276  0.3212  1.2340  0.0140
  974MOL0     C31369   9.140   2.743   5.140 -0.8946 -0.3576 -0.4763
  974MOL0     C31370   9.010   2.722   5.050  0.8767  0.4181 -0.7027
  974MOL0     C31371   9.046   2.635   4.927  0.9663 -0.1699 -0.6890
  974MOL0     N31372   8.951   2.663   4.821  0.0362 -0.0708 -1.1046
  974MOL0     C31373   8.954   2.774   4.748 -0.4405 -0.5429  0.6315
  974MOL0     C31374   8.853   2.769   4.660  0.2875 -0.5344 -0.5637
  974MOL0     C31375   8.803   2.867   4.555 -0.3143 -0.1062  0.1227
  974MOL0     C31376   8.881   2.825   4.432  0.0346  0.1853  1.1785
  974MOL0     C31377   8.816   2.705   4.352  0.3121 -0.9745  0.6771
  974MOL0     C31378   8.682   2.739   4.273 -1.0083  0.8681  0.0844
  974MOL0     O31379   8.629   2.629   4.201 -0.3946  1.0136  0.7026
  974MOL0     C31380   8.660   2.614   4.070 -0.6177 -0.5452 -0.0776
  974MOL0     C31381   8.761   2.683   4.003  0.3864 -0.6772  0.0428
  974MOL0     C31382   8.771   2.672   3.860 -1.1298  0.1591  1.1796
  974MOL0     C31383   8.698   2.575   3.783  0.6282 -0.2005  0.2173
  974MOL0     C31384   8.710   2.537   3.644  0.0342  0.7947  0.2503
  974MOL0     O31385   8.802   2.606   3.569  0.1777  0.0921  0.0957
  974MOL0     C31386   8.809   2.557   3.432  0.6873 -0.4648  0.7258
  974MOL0     C31387   8.911   2.466   3.396  1.0144  1.2535  0.0063
  974MOL0     C31388   8.912   2.396   3.274  0.4478 -0.6983 -0.1989
  974MOL0     C31389   8.826   2.438   3.170  1.1833  0.9647  0.0783
  974MOL0     O31390   8.853   2.399   3.045 -0.2589 -0.1268  0.6484
  974MOL0     C31391   8.827   2.264   3.004  0.2846  0.1697 -0.8231
  974MOL0     C31392   8.744   2.247   2.880 -1.4399 -0.7865  0.3417
  974MOL0     C31393   8.751   2.097   2.848  0.4792 -0.1012 -0.1540
  974MOL0     C31394   8.664   2.052   2.727 -1.0167  0.0305  0.6173
  974MOL0     C31395   8.514   2.026   2.760 -0.8061  0.3145 -0.0067
  974MOL0     C31396   8.436   2.153   2.716 -0.5204  0.3029 -0.0302
  974MOL0     C31397   8.289   2.125   2.752  0.6859  0.1259 -0.7381
  974MOL0     C31398   8.208   2.239   2.693 -0.9097 -0.2398  0.0736
  974MOL0    Cl31399   8.035   2.229   2.732 -0.3020  0.3654 -0.1854
  974MOL0     C31400   8.725   2.534   3.199 -0.2475  0.0982  0.1608
  974MOL0     C31401   8.717   2.585   3.327  0.5506 -0.1329 -0.5749
  974MOL0     O31402   8.664   2.433   3.605  0.0408 -0.4818  0.2376
  974MOL0     C31403   8.599   2.507   3.860 -0.3268  0.4424 -0.5067
  974MOL0     C31404   8.582   2.522   3.996  0.4236  0.1933  0.5989
  974MOL0     N31405   8.792   2.652   4.684  0.4097  0.4879  0.5038
  974MOL0     N31406   8.844   2.591   4.787 -0.3578  0.2121  0.4648
  974MOL0     C31407   8.885   2.965   5.731 -0.4416  0.4850 -0.4056
  974MOL0     C31408   8.864   2.880   5.844 -0.1071 -0.4990 -0.7964
  974MOL0     C31409   8.598   2.746   6.193  0.5840 -0.1266  0.2377
  974MOL0     C31410   8.520   2.643   6.132 -0.7070 -1.5341  0.0524
  974MOL0     C31411   8.410   2.586   6.195  0.1728 -0.4679 -0.0422
  974MOL0     C31412   8.368   2.623   6.323 -0.0405 -0.2403  0.4251
  974MOL0     O31413   8.253   2.578   6.379  0.4904  0.6235  0.5550
  974MOL0     C31414   8.156   2.685   6.406 -0.4077  1.5678  0.5199
  974MOL0     C31415   8.096   2.671   6.545  0.1365 -0.3792  0.6103
  974MOL0     C31416   8.027   2.535   6.577  0.1908  0.8131  0.5671
  974MOL0     C31417   7.885   2.516   6.519 -1.9582 -0.0743  0.0343
  974MOL0     C31418   7.769   2.573   6.595  0.5993  0.3905  0.1736
  974MOL0     C31419   7.668   2.612   6.652 -0.7669 -0.1686 -0.2325
  974MOL0     C31420   8.447   2.715   6.394 -0.7472 -0.4748 -0.7339
  974MOL0     C31421   8.557   2.782   6.325 -0.4877 -0.7033  0.1898
  974MOL0     C31422   8.629   2.890   6.395 -0.6861  0.0011 -0.0706
  974MOL0     H31423   8.522   2.915   5.858 -1.3062  1.7511 -1.9622
  974MOL0     H31424   8.575   3.064   5.659  0.1674  1.4164  1.1753
  974MOL0     H31425   8.911   3.280   5.546  2.9486  0.6519 -0.2672
  974MOL0     H31426   8.983   3.149   5.624 -1.1420 -0.6006  0.7081
  974MOL0     H31427   9.057   3.197   5.394  1.5444 -0.6221 -0.3573
  974MOL0     H31428   8.890   3.146   5.341 -0.8243  0.4997  0.6765
  974MOL0     H31429   8.927   2.921   5.451 -1.0565  0.4465 -0.1206
  974MOL0     H31430   9.087   2.966   5.483  0.3908  3.6085  0.4317
  974MOL0     H31431   8.960   2.956   5.209  0.5436 -0.5922 -0.7030
  974MOL0     H31432   9.115   3.019   5.233  1.0756 -0.5051 -0.0853
  974MOL0     H31433   9.198   2.825   5.336  1.0338  3.2768 -1.5188
  974MOL0     H31434   9.046   2.734   5.327  0.4690  0.1883 -1.2448
  974MOL0     H31435   9.214   2.811   5.097  0.0474 -0.8798  0.3029
  974MOL0     H31436   9.196   2.651   5.159 -0.1861  0.3133  0.8612
  974MOL0     H31437   8.982   2.826   5.029 -0.6549  0.8857  2.9217
  974MOL0     H31438   8.929   2.666   5.097  2.0803  0.9198  2.1770
  974MOL0     H31439   9.144   2.678   4.902  1.2634  0.0430  0.7422
  974MOL0     H31440   9.046   2.527   4.942  1.0017 -0.0120  0.6018
  974MOL0     H31441   9.017   2.861   4.757 -1.5483  0.8886 -3.2508
  974MOL0     H31442   8.695   2.853   4.554 -0.0687 -2.2527 -0.1601
  974MOL0     H31443   8.829   2.965   4.595 -1.5599  1.3143 -2.3137
  974MOL0     H31444   8.880   2.911   4.364  0.5528 -0.4271  0.3763
  974MOL0     H31445   8.986   2.803   4.452  0.2035  0.3284  0.4786
  974MOL0     H31446   8.791   2.622   4.419  0.8678 -1.1683  0.6496
  974MOL0     H31447   8.895   2.670   4.284  0.0758  0.3707 -0.3276
  974MOL0     H31448   8.687   2.827   4.208  0.5795  2.8349  2.6884
  974MOL0     H31449   8.614   2.772   4.352 -1.8919 -0.9430  0.1532
  974MOL0     H31450   8.826   2.762   4.040 -0.7187  1.6253 -2.6144
  974MOL0     H31451   8.826   2.740   3.795 -1.0269  0.4077  1.5207
  974MOL0     H31452   8.993   2.438   3.462  0.2590 -0.2277  0.3513
  974MOL0     H31453   8.985   2.316   3.265  1.1382 -0.3982  2.1860
  974MOL0     H31454   8.921   2.212   2.983  2.4662  3.5653 -0.2912
  974MOL0     H31455   8.776   2.208   3.082  4.0422 -1.3506  0.7910
  974MOL0     H31456   8.647   2.298   2.882 -0.6945  0.8576 -1.5707
  974MOL0     H31457   8.798   2.292   2.796  0.7713 -0.1050  2.0199
  974MOL0     H31458   8.851   2.055   2.834  0.1830 -0.7152 -0.4735
  974MOL0     H31459   8.709   2.046   2.935  0.4278 -0.3965 -0.3494
  974MOL0     H31460   8.698   1.951   2.702  0.9523 -0.6676  5.1088
  974MOL0     H31461   8.686   2.118   2.643 -4.2859 -2.0581 -2.1945
  974MOL0     H31462   8.498   2.027   2.868  1.0737  4.3113  0.4012
  974MOL0     H31463   8.468   1.932   2.728 -0.0867  0.2345 -0.8328
  974MOL0     H31464   8.469   2.242   2.771 -2.9718 -0.5559  3.0764
  974MOL0     H31465   8.461   2.174   2.611 -0.4041 -1.3411 -0.3516
  974MOL0     H31466   8.274   2.134   2.860 -2.7191  0.6107 -1.1463
  974MOL0     H31467   8.240   2.038   2.707 -2.0095  0.2678  1.6061
  974MOL0     H31468   8.239   2.337   2.731 -2.7445 -0.3995  2.1686
  974MOL0     H31469   8.227   2.238   2.585  0.3304  2.4890  0.1955
  974MOL0     H31470   8.651   2.565   3.126 -0.2826 -0.6454 -0.1325
  974MOL0     H31471   8.635   2.654   3.339 -1.2089 -1.9532 -1.6299
  974MOL0     H31472   8.545   2.427   3.810 -2.4212  0.7791  1.0614
  974MOL0     H31473   8.518   2.447   4.041 -1.1848 -0.2948 -2.2811
  974MOL0     H31474   8.986   2.971   5.691 -0.5828 -0.4218 -0.9151
  974MOL0     H31475   8.940   2.832   5.906 -0.1171 -2.5171 -2.2499
  974MOL0     H31476   8.545   2.614   6.030  1.2314  0.4158 -0.1103
  974MOL0     H31477   8.352   2.514   6.137 -1.2490  0.8015 -0.2655
  974MOL0     H31478   8.082   2.681   6.325  1.6651 -1.8856 -1.4524
  974MOL0     H31479   8.197   2.787   6.406 -1.1340  1.9652  3.7353
  974MOL0     H31480   8.038   2.764   6.555  1.4647  0.2816  2.6895
  974MOL0     H31481   8.177   2.687   6.616 -0.3190  1.1004  0.8345
  974MOL0     H31482   8.031   2.498   6.680  0.3940 -2.5013 -0.5186
  974MOL0     H31483   8.094   2.466   6.526  3.3795  2.7413  1.7965
  974MOL0     H31484   7.880   2.547   6.414 -1.5770  0.2908  0.1203
  974MOL0     H31485   7.882   2.407   6.508  0.6494 -0.1057 -1.1155
  974MOL0     H31486   7.576   2.613   6.708 -0.0900  0.0231  0.9171
  974MOL0     H31487   8.416   2.749   6.492 -0.5728 -3.6908  0.5405
  974MOL0     H31488   8.733   2.859   6.410 -0.4902  0.8222  0.3585
  974MOL0     H31489   8.613   2.982   6.338 -1.6913  1.4618  2.4219
  974MOL0     H31490   8.579   2.919   6.488 -0.2778 -1.1335  0.5244
  975MOL0     O31491   8.426   1.053   5.877 -0.4047  0.7112 -0.0270
  975MOL0     C31492   8.523   1.052   5.795  0.4167  0.0330 -0.2585
  975MOL0     O31493   8.642   1.107   5.828  0.3822  0.3560  0.3173
  975MOL0     C31494   8.693   1.081   5.952 -0.0504 -0.5362  0.5367
  975MOL0     C31495   8.680   0.963   6.021 -0.1824  0.6591 -0.1714
  975MOL0     C31496   8.763   0.931   6.126 -0.3679 -0.0324 -0.8557
  975MOL0     C31497   8.860   1.024   6.166 -0.6927 -0.6781  0.0582
  975MOL0     O31498   8.941   1.004   6.273 -0.1210 -0.0108 -0.6972
  975MOL0     C31499   8.966   0.873   6.334  0.5925 -0.3102 -0.3119
  975MOL0     C31500   9.046   0.779   6.234  0.6658  0.1203 -0.4053
  975MOL0     C31501   9.174   0.838   6.189  1.2879  0.1933 -0.5020
  975MOL0     C31502   9.244   0.737   6.102 -0.2247 -0.0170  0.0272
  975MOL0     C31503   9.397   0.783   6.089 -0.6091  0.8972 -0.3200
  975MOL0     C31504   9.452   0.734   5.949  0.1941 -0.2843 -0.1230
  975MOL0     C31505   9.423   0.828   5.836 -0.5855 -0.2637  0.3738
  975MOL0     C31506   9.503   0.789   5.712  0.8863  0.1181  0.1700
  975MOL0     N31507   9.643   0.801   5.738  0.3980  0.6557  0.8313
  975MOL0     C31508   9.713   0.918   5.767  0.9668 -0.1996  0.1798
  975MOL0     C31509   9.843   0.884   5.786  0.9166 -0.9090 -0.5928
  975MOL0     C31510   9.957   0.984   5.815 -0.6430  1.2742  0.0421
  975MOL0     C31511  10.017   0.950   5.954  0.1813 -0.8448  0.5907
  975MOL0     C31512   9.952   1.002   6.076  0.1165 -0.1201  0.1023
  975MOL0     C31513   9.839   0.915   6.123  0.3779  0.6695  0.7365
  975MOL0     O31514   9.806   0.977   6.246  0.2298  0.3500 -0.2920
  975MOL0     C31515   9.746   0.895   6.343 -0.6148  0.2492 -0.0776
  975MOL0     C31516   9.736   0.751   6.346 -0.9498  0.1307  0.5812
  975MOL0     C31517   9.683   0.673   6.459 -0.6004 -0.0793  0.1537
  975MOL0     C31518   9.633   0.747   6.569 -0.4205  0.1457  0.7841
  975MOL0     C31519   9.573   0.672   6.680 -0.9380 -0.5159 -0.8729
  975MOL0     O31520   9.580   0.536   6.677 -0.1019 -0.8581  0.3668
  975MOL0     C31521   9.557   0.461   6.789  0.3005 -0.4751  0.4761
  975MOL0     C31522   9.509   0.333   6.764  0.9340 -1.1475  0.6794
  975MOL0     C31523   9.479   0.236   6.863 -0.2579 -1.3148 -0.0415
  975MOL0     C31524   9.504   0.267   6.996  0.3422 -0.5944 -0.3512
  975MOL0     O31525   9.485   0.184   7.100 -0.2079  0.7500  0.8352
  975MOL0     C31526   9.521   0.049   7.072  0.4198 -0.4686 -0.0666
  975MOL0     C31527   9.640   0.018   7.163  0.0538  0.4117  0.3141
  975MOL0     C31528   9.772   0.055   7.095  0.0581 -0.3770 -0.2236
  975MOL0     C31529   9.824  -0.058   7.007  0.3739  0.3945 -0.6987
  975MOL0     C31530   9.964  -0.011   6.952 -0.2970 -0.5341 -0.0808
  975MOL0     C31531  10.007  -0.125   6.856  1.5024 -0.1240 -0.2633
  975MOL0     C31532  10.155  -0.151   6.864 -0.6381 -0.3770 -0.6910
  975MOL0     C31533  10.228  -0.031   6.781 -0.3902  0.5852 -0.1615
  975MOL0    Cl31534  10.212  -0.032   6.609 -0.3035 -0.2534  0.1867
  975MOL0     C31535   9.550   0.395   7.022  0.0607  0.7234  0.2810
  975MOL0     C31536   9.578   0.496   6.927 -0.3737  0.7276  0.7346
  975MOL0     O31537   9.548   0.742   6.778 -0.4258 -0.3878 -0.6019
  975MOL0     C31538   9.628   0.885   6.553 -0.8129 -0.3820  0.1924
  975MOL0     C31539   9.685   0.960   6.455  0.3742 -0.6165 -0.5362
  975MOL0     N31540   9.854   0.750   5.792  0.1386 -0.6229  0.5165
  975MOL0     N31541   9.734   0.704   5.758  0.1681 -0.4500 -0.2847
  975MOL0     C31542   8.870   1.148   6.102  0.0066 -0.7301 -0.0058
  975MOL0     C31543   8.788   1.176   5.987  0.6650 -0.0343 -0.2357
  975MOL0     C31544   8.504   1.001   5.654 -0.2104 -0.5771 -0.3252
  975MOL0     C31545   8.615   0.962   5.584  0.2796  0.0680 -0.5628
  975MOL0     C31546   8.594   0.910   5.457 -0.4071 -0.0716  0.5945
  975MOL0     C31547   8.472   0.898   5.395  1.2528  0.1430  0.3951
  975MOL0     O31548   8.465   0.831   5.276  0.0424  1.1420  0.1598
  975MOL0     C31549   8.458   0.915   5.158 -0.4507 -0.0782 -0.9117
  975MOL0     C31550   8.430   0.838   5.025 -0.5465  0.2853  0.6027
  975MOL0     C31551   8.340   0.705   5.011 -0.5502 -0.4865  0.2601
  975MOL0     C31552   8.362   0.621   4.883  0.1263 -1.0437 -1.0309
  975MOL0     C31553   8.323   0.682   4.765  1.2364  0.6255  0.3252
  975MOL0     C31554   8.296   0.732   4.655  1.0403 -0.0011 -0.8687
  975MOL0     C31555   8.356   0.929   5.472  0.2523 -0.0597  0.7201
  975MOL0     C31556   8.372   0.986   5.599 -0.1170  0.6500  0.6402
  975MOL0     C31557   8.242   1.023   5.677  0.0878 -0.4166  1.0532
  975MOL0     H31558   8.594   0.896   6.015 -0.9829  1.5971  0.5110
  975MOL0     H31559   8.743   0.840   6.182  0.8272  0.7514  0.9168
  975MOL0     H31560   9.011   0.888   6.432 -0.0380 -1.9051  0.2481
  975MOL0     H31561   8.866   0.831   6.345 -0.7355  1.9615 -2.4667
  975MOL0     H31562   8.978   0.755   6.151 -0.4571 -0.9790  0.7729
  975MOL0     H31563   9.060   0.683   6.285  0.6545  0.3152 -0.0387
  975MOL0     H31564   9.246   0.864   6.267  1.9983  0.9729 -1.3884
  975MOL0     H31565   9.155   0.927   6.129  0.6454 -0.0363 -0.6460
  975MOL0     H31566   9.242   0.642   6.156 -1.7852 -0.3223 -0.5000
  975MOL0     H31567   9.198   0.721   6.004 -0.7803  1.9214 -0.0574
  975MOL0     H31568   9.414   0.890   6.102  1.1942  0.4878  1.1076
  975MOL0     H31569   9.460   0.737   6.166 -1.3323  0.0397 -0.2371
  975MOL0     H31570   9.558   0.709   5.962 -0.3409 -2.0932  1.0683
  975MOL0     H31571   9.402   0.638   5.934 -4.1939  2.2030 -4.1014
  975MOL0     H31572   9.443   0.932   5.862 -2.0570  1.1201 -3.4143
  975MOL0     H31573   9.317   0.826   5.809 -0.5244 -0.3923  0.1476
  975MOL0     H31574   9.478   0.686   5.684  1.0510 -0.1005  0.7975
  975MOL0     H31575   9.488   0.857   5.628 -1.1768  0.7636  1.0075
  975MOL0     H31576   9.670   1.018   5.768  2.3765  0.4227  0.3352
  975MOL0     H31577  10.038   0.958   5.747  3.2387 -4.0502  5.5840
  975MOL0     H31578   9.937   1.090   5.800  1.1013  1.4782 -1.1098
  975MOL0     H31579  10.047   0.846   5.959  0.8757 -0.6876 -0.2312
  975MOL0     H31580  10.113   1.002   5.960 -0.2718  0.7385 -3.0359
  975MOL0     H31581   9.921   1.103   6.047  0.7530 -0.1282 -0.6264
  975MOL0     H31582  10.024   1.021   6.156 -2.3770  0.9445  2.2549
  975MOL0     H31583   9.874   0.812   6.129 -2.9218 -0.6273 -0.0744
  975MOL0     H31584   9.752   0.932   6.058  0.1396 -0.7610  0.6614
  975MOL0     H31585   9.766   0.692   6.260 -0.2542  0.1872  0.7770
  975MOL0     H31586   9.687   0.566   6.442  1.4558 -0.3578  2.0689
  975MOL0     H31587   9.492   0.301   6.661  1.0063 -3.7696  1.4138
  975MOL0     H31588   9.428   0.142   6.846 -2.6354 -0.7933  3.3050
  975MOL0     H31589   9.443  -0.024   7.097  0.3674  0.4609  2.8284
  975MOL0     H31590   9.560   0.016   6.975  0.3427 -2.6453  0.5958
  975MOL0     H31591   9.626   0.069   7.258 -2.2688 -0.1340  0.3263
  975MOL0     H31592   9.640  -0.090   7.183 -1.4501  0.5422  1.1062
  975MOL0     H31593   9.759   0.139   7.027  4.6330  1.0520  0.3562
  975MOL0     H31594   9.840   0.096   7.170 -0.8379  1.0068 -0.1206
  975MOL0     H31595   9.755  -0.081   6.925 -2.5056 -2.6962  2.2887
  975MOL0     H31596   9.832  -0.142   7.077  2.5442  0.0927 -1.2465
  975MOL0     H31597  10.036   0.006   7.032  2.3843 -1.0419 -2.2413
  975MOL0     H31598   9.952   0.081   6.894 -3.0916 -0.9768 -0.3295
  975MOL0     H31599   9.948  -0.213   6.881 -0.5930  1.4340  0.6076
  975MOL0     H31600   9.979  -0.080   6.760  1.9085  4.4213  1.4908
  975MOL0     H31601  10.179  -0.242   6.809 -1.2608 -0.1883 -1.2876
  975MOL0     H31602  10.186  -0.161   6.969 -1.7533 -2.9712 -0.5399
  975MOL0     H31603  10.190   0.063   6.820 -2.3080  0.2014 -0.9688
  975MOL0     H31604  10.336  -0.040   6.800 -0.0862 -2.0062 -2.3496
  975MOL0     H31605   9.563   0.415   7.127 -2.3525  0.2544  0.7351
  975MOL0     H31606   9.613   0.595   6.954  2.5431  0.9774 -3.0794
  975MOL0     H31607   9.601   0.947   6.638 -2.4203  0.5880 -0.9632
  975MOL0     H31608   9.680   1.068   6.469 -0.9648 -0.8048  0.6826
  975MOL0     H31609   8.941   1.220   6.142 -1.9620  0.8657  0.8056
  975MOL0     H31610   8.809   1.272   5.940  3.4939  0.3512  1.5904
  975MOL0     H31611   8.715   0.966   5.624  0.7983 -0.9563 -1.6845
  975MOL0     H31612   8.683   0.878   5.405 -0.2960 -0.0167  0.7509
  975MOL0     H31613   8.548   0.977   5.148  0.2089 -0.9424 -0.4745
  975MOL0     H31614   8.365   0.970   5.177  0.3073  1.1891 -0.7154
  975MOL0     H31615   8.529   0.802   4.996 -0.2824 -0.3576  2.2033
  975MOL0     H31616   8.401   0.900   4.940  1.1220  0.1249 -0.1159
  975MOL0     H31617   8.236   0.739   5.006 -1.4637 -2.9211  1.3965
  975MOL0     H31618   8.366   0.651   5.102  3.3643  3.1317  1.6598
  975MOL0     H31619   8.464   0.584   4.876 -0.5590 -3.2006 -0.4063
  975MOL0     H31620   8.289   0.541   4.894 -2.8350  1.4411 -1.2415
  975MOL0     H31621   8.277   0.787   4.565 -0.3076 -0.6029 -0.9797
  975MOL0     H31622   8.256   0.917   5.433  1.3951 -2.3594 -1.7661
  975MOL0     H31623   8.247   1.112   5.741 -0.8654  0.4424 -0.0112
  975MOL0     H31624   8.165   1.059   5.608  1.2466 -1.2181 -0.7208
  975MOL0     H31625   8.214   0.935   5.735 -0.7603 -1.1044 -0.3463
  976MOL0     O31626   3.062   9.710   6.344 -0.7608 -0.3970 -1.0034
  976MOL0     C31627   3.041   9.749   6.227  0.7148  0.9302  0.3134
  976MOL0     O31628   2.955   9.684   6.136 -0.1314  0.0759 -0.0348
  976MOL0     C31629   2.898   9.561   6.155 -0.3472 -0.5842 -0.6034
  976MOL0     C31630   2.856   9.500   6.037  0.5670 -0.3034  0.2330
  976MOL0     C31631   2.796   9.367   6.042 -0.2058  0.4737  0.2237
  976MOL0     C31632   2.763   9.307   6.165 -0.5859  0.1521 -0.5798
  976MOL0     O31633   2.666   9.204   6.167 -0.0734  0.5962  0.4868
  976MOL0     C31634   2.658   9.128   6.048 -0.9566  0.2629 -0.7974
  976MOL0     C31635   2.576   8.995   6.065  0.1619 -0.2143  0.5748
  976MOL0     C31636   2.422   9.002   6.042 -0.0343  0.7835 -1.0121
  976MOL0     C31637   2.373   8.938   5.916 -0.0083  0.4697  0.8533
  976MOL0     C31638   2.227   8.882   5.940  0.2656 -0.3469  0.5995
  976MOL0     C31639   2.143   8.866   5.811  0.2183  0.0672 -0.1668
  976MOL0     C31640   2.202   8.768   5.712  0.2972  0.2782  0.3981
  976MOL0     C31641   2.163   8.789   5.561 -0.9009  0.0420  0.0643
  976MOL0     N31642   2.015   8.807   5.548 -0.1727  0.5142  0.1535
  976MOL0     C31643   1.954   8.929   5.566  0.3078  0.6409  0.5729
  976MOL0     C31644   1.835   8.917   5.505 -0.6631 -0.4898  0.1786
  976MOL0     C31645   1.716   9.020   5.503  0.6141 -0.3524  0.6225
  976MOL0     C31646   1.599   8.982   5.585  0.0990  0.1590  0.5048
  976MOL0     C31647   1.614   8.942   5.733  1.4032 -0.2710 -0.0391
  976MOL0     C31648   1.632   9.057   5.822  0.0677  0.2592 -0.3761
  976MOL0     O31649   1.506   9.128   5.861 -0.2011 -0.0667  0.1042
  976MOL0     C31650   1.434   9.069   5.967 -0.7519 -0.6265 -0.4518
  976MOL0     C31651   1.317   9.132   5.994  0.3751 -0.0258 -0.9055
  976MOL0     C31652   1.234   9.086   6.087  0.5172  1.0755 -0.3875
  976MOL0     C31653   1.255   8.970   6.166 -0.0661 -0.4769  0.2211
  976MOL0     C31654   1.171   8.936   6.278 -0.3858  0.0454  0.0987
  976MOL0     O31655   1.201   8.825   6.352  0.2568 -0.0635  0.4933
  976MOL0     C31656   1.103   8.788   6.452  0.3868  0.4024 -0.0013
  976MOL0     C31657   1.115   8.847   6.583  0.2500 -0.0990 -0.4824
  976MOL0     C31658   1.012   8.834   6.672  1.0835 -0.4290  0.0725
  976MOL0     C31659   0.900   8.754   6.627  0.0878 -0.0686  0.0198
  976MOL0     O31660   0.786   8.732   6.696  0.3397  0.7205 -0.2168
  976MOL0     C31661   0.790   8.764   6.834  0.4531  0.6727  0.0657
  976MOL0     C31662   0.735   8.902   6.857  1.2471 -0.6300  0.4692
  976MOL0     C31663   0.580   8.914   6.854  0.2621  0.3890 -0.1523
  976MOL0     C31664   0.521   8.935   6.719  0.5305 -0.2335 -0.4279
  976MOL0     C31665   0.370   8.967   6.740  0.2498  0.3338  0.1909
  976MOL0     C31666   0.323   9.060   6.856  0.4256 -0.5864 -0.4855
  976MOL0     C31667   0.179   9.113   6.860  0.2959 -0.1029 -0.0335
  976MOL0     C31668   0.095   9.009   6.918  0.1476  0.4379 -0.2487
  976MOL0    Cl31669  -0.082   9.048   6.910  0.1394  0.5763  0.0601
  976MOL0     C31670   0.890   8.698   6.500 -0.2849  0.0444  0.2346
  976MOL0     C31671   0.985   8.722   6.408 -0.5516 -0.4188  0.0816
  976MOL0     O31672   1.076   9.012   6.305  0.1427  0.7028  0.1900
  976MOL0     C31673   1.378   8.903   6.142 -0.4069 -1.0815 -0.3689
  976MOL0     C31674   1.469   8.952   6.039 -1.1209  0.6960 -1.0930
  976MOL0     N31675   1.844   8.790   5.449  0.2447 -0.2320  0.2328
  976MOL0     N31676   1.954   8.729   5.463  0.3713  1.0169  0.3334
  976MOL0     C31677   2.792   9.382   6.284  0.0648 -0.3115  0.3488
  976MOL0     C31678   2.870   9.504   6.280 -0.2070 -0.3134  0.1707
  976MOL0     C31679   3.085   9.885   6.186 -0.3963  0.1627  0.3949
  976MOL0     C31680   3.076   9.997   6.282  0.8622  0.4844  0.4947
  976MOL0     C31681   3.098  10.126   6.241 -0.4166 -0.1795  0.1227
  976MOL0     C31682   3.148  10.160   6.118 -0.2754  0.0669  0.1130
  976MOL0     O31683   3.184  10.298   6.108 -0.8622  0.1796 -0.4496
  976MOL0     C31684   3.197  10.354   5.979 -0.3320  0.8475  0.4770
  976MOL0     C31685   3.212  10.503   5.999 -0.6315  0.1340  0.0797
  976MOL0     C31686   3.080  10.565   6.049 -0.0336  0.6911 -0.0185
  976MOL0     C31687   3.106  10.684   6.147  1.0628  0.4660  0.5605
  976MOL0     C31688   3.147  10.811   6.080 -0.5533 -0.1012  0.6671
  976MOL0     C31689   3.170  10.895   5.998 -0.9943  1.0443  0.8879
  976MOL0     C31690   3.153  10.062   6.026  0.4122  0.8007  0.4804
  976MOL0     C31691   3.114   9.923   6.054  0.3957 -0.1489  0.1527
  976MOL0     C31692   3.122   9.829   5.944  0.8864 -0.1523 -0.1027
  976MOL0     H31693   2.876   9.548   5.941 -1.4049 -1.9442 -1.0921
  976MOL0     H31694   2.771   9.313   5.951  1.9441  0.7362 -0.5792
  976MOL0     H31695   2.619   9.178   5.960  1.6578 -2.3374 -3.6839
  976MOL0     H31696   2.759   9.100   6.016 -0.3100  4.3175 -2.9876
  976MOL0     H31697   2.574   8.962   6.169 -2.6532 -3.3126 -0.2813
  976MOL0     H31698   2.629   8.923   6.002  1.1086  0.1119  0.9715
  976MOL0     H31699   2.411   9.111   6.044 -2.5024  0.5956 -0.6890
  976MOL0     H31700   2.382   8.951   6.130  1.4861  0.1810 -0.6429
  976MOL0     H31701   2.382   9.017   5.842  2.5806 -0.8773 -0.3907
  976MOL0     H31702   2.437   8.854   5.887  0.3321  2.1466 -4.2342
  976MOL0     H31703   2.236   8.783   5.987  3.4900  0.7674  2.6256
  976MOL0     H31704   2.176   8.945   6.014 -1.5019  0.6001 -1.3228
  976MOL0     H31705   2.042   8.843   5.847  0.5913 -1.1212  0.1702
  976MOL0     H31706   2.151   8.969   5.775 -3.5993  0.3656 -0.6441
  976MOL0     H31707   2.168   8.670   5.747  1.8430  0.2664  1.9656
  976MOL0     H31708   2.310   8.766   5.728  0.1255 -1.0811  1.5978
  976MOL0     H31709   2.210   8.871   5.505  1.1408 -2.1167 -1.5775
  976MOL0     H31710   2.189   8.702   5.500 -1.5868  0.3667 -0.7100
  976MOL0     H31711   2.006   9.012   5.613  3.0783 -0.9208  0.5061
  976MOL0     H31712   1.751   9.122   5.525  2.5747 -0.6210 -0.9433
  976MOL0     H31713   1.678   9.030   5.401  1.0731  0.0342  0.4819
  976MOL0     H31714   1.518   9.055   5.576 -0.1699 -0.3776 -2.3604
  976MOL0     H31715   1.569   8.890   5.534 -3.6381  1.3281  0.3048
  976MOL0     H31716   1.707   8.886   5.744  2.3896  1.5992  1.9760
  976MOL0     H31717   1.534   8.877   5.769 -0.0103  0.9204 -0.9314
  976MOL0     H31718   1.700   9.125   5.771  2.3097  0.8166  3.0166
  976MOL0     H31719   1.687   9.021   5.909  0.4741  2.9806  0.5949
  976MOL0     H31720   1.299   9.228   5.948 -0.9782  0.4515  0.5386
  976MOL0     H31721   1.155   9.156   6.112  1.6718  2.1069  0.4358
  976MOL0     H31722   1.201   8.913   6.595 -1.6113  2.3036  0.4079
  976MOL0     H31723   1.011   8.890   6.765  0.7552 -2.0390  1.0938
  976MOL0     H31724   0.729   8.687   6.883  0.4439  1.3197  1.1101
  976MOL0     H31725   0.889   8.762   6.880  1.0272  3.9730 -0.7867
  976MOL0     H31726   0.777   8.938   6.952 -0.8177  2.3593  0.3899
  976MOL0     H31727   0.771   8.980   6.790 -1.0859  3.2975  3.3527
  976MOL0     H31728   0.529   8.831   6.902  4.6152 -3.3654 -1.2947
  976MOL0     H31729   0.577   9.005   6.915  4.1386 -0.5125  1.7115
  976MOL0     H31730   0.542   8.855   6.647 -1.6920  0.0078 -1.4365
  976MOL0     H31731   0.573   9.019   6.674 -1.3134  2.2579  1.7793
  976MOL0     H31732   0.313   8.876   6.763 -0.0970  1.0228  2.3569
  976MOL0     H31733   0.333   9.009   6.646  0.2293  1.3027  0.6237
  976MOL0     H31734   0.328   9.003   6.949 -2.4492 -2.5478 -1.4069
  976MOL0     H31735   0.399   9.139   6.865 -0.3386  0.1145  0.0035
  976MOL0     H31736   0.143   9.158   6.767 -0.0268  0.8087  0.5240
  976MOL0     H31737   0.183   9.194   6.933 -0.8445  0.8781 -1.0242
  976MOL0     H31738   0.120   8.910   6.880  0.8510 -0.4604  2.3834
  976MOL0     H31739   0.118   8.989   7.023 -3.1764 -1.8333  0.2097
  976MOL0     H31740   0.794   8.653   6.476  0.8421 -1.9151 -0.8191
  976MOL0     H31741   0.961   8.703   6.304  1.2705  0.5439 -0.5601
  976MOL0     H31742   1.392   8.811   6.197  0.2154 -0.5624  0.3557
  976MOL0     H31743   1.564   8.905   6.019  2.1387  6.7119 -1.9938
  976MOL0     H31744   2.736   9.382   6.377  0.2582 -1.6576  0.4798
  976MOL0     H31745   2.883   9.568   6.367  0.0107  2.6962 -1.9029
  976MOL0     H31746   3.054   9.974   6.385  2.9418 -0.0974  0.8497
  976MOL0     H31747   3.086  10.199   6.320  3.1759 -0.2431  0.8721
  976MOL0     H31748   3.105  10.331   5.925  0.4948  2.7113 -1.8908
  976MOL0     H31749   3.286  10.320   5.924  0.9325  1.5841  1.9760
  976MOL0     H31750   3.231  10.542   5.898  2.0082 -1.3527 -0.0852
  976MOL0     H31751   3.300  10.532   6.057 -0.0412 -1.8187  0.2293
  976MOL0     H31752   3.012  10.498   6.103 -1.0202  1.7316  0.0758
  976MOL0     H31753   3.016  10.601   5.968 -1.8996  0.4406  1.2768
  976MOL0     H31754   3.013  10.706   6.200  1.8676 -1.5664  3.0360
  976MOL0     H31755   3.188  10.667   6.218  2.6653  0.7038 -1.1557
  976MOL0     H31756   3.191  10.972   5.927  2.3019 -1.1264 -0.7092
  976MOL0     H31757   3.187  10.089   5.926 -1.1072  2.0831  0.2551
  976MOL0     H31758   3.207   9.844   5.877  0.2053 -0.5667 -1.0853
  976MOL0     H31759   3.131   9.725   5.976  0.2589 -0.3308 -0.4835
  976MOL0     H31760   3.034   9.832   5.879 -1.8207  1.5588  3.2651
  977MOL0     O31761   9.550   9.502   0.945 -0.0128 -0.1345  0.3202
  977MOL0     C31762   9.598   9.581   0.865  1.1325  0.2364  0.0856
  977MOL0     O31763   9.563   9.576   0.734 -0.4031 -0.3209 -0.6495
  977MOL0     C31764   9.470   9.489   0.676 -0.2996 -0.2679 -0.1538
  977MOL0     C31765   9.410   9.539   0.563  0.5300  0.2977 -0.2839
  977MOL0     C31766   9.317   9.467   0.490 -0.3237  0.3631 -0.0046
  977MOL0     C31767   9.288   9.337   0.530 -0.2000  0.6066  0.4210
  977MOL0     O31768   9.220   9.256   0.446  0.2020  0.1535 -0.0691
  977MOL0     C31769   9.084   9.218   0.494  0.0607  0.0468 -0.1620
  977MOL0     C31770   8.981   9.326   0.460 -0.5635 -1.2040  0.5416
  977MOL0     C31771   8.836   9.298   0.491  0.0345 -0.0409  0.0909
  977MOL0     C31772   8.759   9.420   0.548  0.1037  0.0580  0.5977
  977MOL0     C31773   8.725   9.511   0.424 -1.4314  0.1769 -0.1701
  977MOL0     C31774   8.627   9.615   0.471 -0.0547 -0.9444  0.4255
  977MOL0     C31775   8.627   9.727   0.363 -0.1130  0.7601 -0.4094
  977MOL0     C31776   8.724   9.840   0.394  0.1149  0.1602  0.3913
  977MOL0     N31777   8.742   9.934   0.277 -0.3566 -0.2994 -0.4485
  977MOL0     C31778   8.657  10.034   0.234  0.1580 -0.0427  0.1788
  977MOL0     C31779   8.708  10.069   0.111  0.4653  0.1127 -1.1280
  977MOL0     C31780   8.637  10.165   0.016  0.0212 -0.2756  0.4085
  977MOL0     C31781   8.714  10.295   0.027 -0.6722  0.2871 -0.4985
  977MOL0     C31782   8.656  10.410  -0.062  0.2177 -0.1858 -1.3834
  977MOL0     C31783   8.506  10.417  -0.042  0.0456  0.0265 -0.2711
  977MOL0     O31784   8.458  10.473   0.084  0.3629  0.0960 -1.0380
  977MOL0     C31785   8.460  10.610   0.101 -0.3877 -0.2547 -0.6764
  977MOL0     C31786   8.370  10.688   0.023 -0.8497  0.5561 -1.2971
  977MOL0     C31787   8.383  10.823   0.028  1.6037 -0.1004  0.0238
  977MOL0     C31788   8.468  10.889   0.113 -0.2040  0.8105  0.1621
  977MOL0     C31789   8.474  11.041   0.127  0.0764 -0.4333 -0.4140
  977MOL0     O31790   8.374  11.113   0.063  0.5743 -0.1875  0.0548
  977MOL0     C31791   8.407  11.239   0.036  0.3225  0.3895 -0.3454
  977MOL0     C31792   8.410  11.280  -0.093  0.0272  0.0675 -0.3998
  977MOL0     C31793   8.409  11.417  -0.130 -0.0279  0.3841 -0.5091
  977MOL0     C31794   8.399  11.517  -0.029  0.4992 -0.5531 -0.5694
  977MOL0     O31795   8.388  11.648  -0.074  0.3396 -0.7569 -0.3110
  977MOL0     C31796   8.342  11.761   0.009 -0.6392 -1.0535 -0.2905
  977MOL0     C31797   8.387  11.895  -0.056  0.3866 -0.5941  0.9026
  977MOL0     C31798   8.344  11.932  -0.202  0.4492  0.0833  0.1357
  977MOL0     C31799   8.433  12.055  -0.238 -0.7604 -1.5847 -0.5880
  977MOL0     C31800   8.399  12.107  -0.381  1.1269 -0.7553  0.1614
  977MOL0     C31801   8.447  12.252  -0.397  0.1523 -0.8370  0.2250
  977MOL0     C31802   8.401  12.361  -0.301  1.1484 -0.9650 -0.1895
  977MOL0     C31803   8.269  12.436  -0.341 -0.5965 -0.2047 -0.3412
  977MOL0    Cl31804   8.293  12.525  -0.480  0.5570  0.3444  0.1479
  977MOL0     C31805   8.398  11.476   0.105  0.1919 -0.4753 -0.6755
  977MOL0     C31806   8.413  11.337   0.143  0.1110  0.4448  0.6910
  977MOL0     O31807   8.567  11.092   0.198 -0.6637  0.1991  0.3062
  977MOL0     C31808   8.548  10.803   0.191 -1.2860 -0.5305  0.1270
  977MOL0     C31809   8.552  10.669   0.179  0.2865  0.1052 -0.2021
  977MOL0     N31810   8.818   9.994   0.086  0.1805 -0.4681  0.2828
  977MOL0     N31811   8.834   9.915   0.186 -0.6175 -0.7936 -0.2593
  977MOL0     C31812   9.348   9.281   0.650 -0.1745  0.9495 -1.4019
  977MOL0     C31813   9.436   9.363   0.718 -0.3111  0.1997 -0.5724
  977MOL0     C31814   9.674   9.696   0.921 -0.2169  0.4090  1.1655
  977MOL0     C31815   9.733   9.790   0.828  0.8808  0.0068 -0.4249
  977MOL0     C31816   9.810   9.897   0.880 -0.3925  0.3415  0.5644
  977MOL0     C31817   9.851   9.907   1.015  0.6766  0.4995 -1.3903
  977MOL0     O31818   9.929  10.013   1.053 -0.1284  0.1891 -0.1594
  977MOL0     C31819  10.043  10.055   0.982 -0.1292 -0.6943 -0.3861
  977MOL0     C31820  10.157  10.108   1.078 -0.5502 -0.2619 -0.0690
  977MOL0     C31821  10.199   9.976   1.158  1.0143  0.0418  0.1851
  977MOL0     C31822  10.220   9.989   1.311 -0.3374 -0.5561  0.3024
  977MOL0     C31823  10.326  10.089   1.340  0.0668 -0.6086 -0.3225
  977MOL0     C31824  10.401  10.186   1.348 -0.0369  0.5934  0.4225
  977MOL0     C31825   9.797   9.818   1.101 -0.3284 -0.0400 -0.0266
  977MOL0     C31826   9.705   9.718   1.058 -0.9262  0.5499  0.0982
  977MOL0     C31827   9.653   9.630   1.181  0.0841  0.3512  0.4260
  977MOL0     H31828   9.441   9.633   0.519  1.1319  0.0217 -0.4562
  977MOL0     H31829   9.275   9.505   0.397 -0.0518 -1.8084 -1.0802
  977MOL0     H31830   9.053   9.131   0.434 -2.7948  0.7779  0.0756
  977MOL0     H31831   9.081   9.186   0.599  0.1645 -0.5133 -0.3255
  977MOL0     H31832   8.958   9.334   0.353 -3.2766 -1.2552  1.0553
  977MOL0     H31833   9.026   9.418   0.500 -2.6372  1.2070 -2.2427
  977MOL0     H31834   8.815   9.229   0.574  0.7816  2.6357  2.7147
  977MOL0     H31835   8.790   9.247   0.406  2.1147 -1.1749 -0.4295
  977MOL0     H31836   8.662   9.393   0.590 -1.8183  1.6343 -2.4999
  977MOL0     H31837   8.825   9.470   0.620  4.4019 -1.0481 -2.1483
  977MOL0     H31838   8.817   9.559   0.392 -1.7177  0.3894 -0.6913
  977MOL0     H31839   8.694   9.446   0.341  3.3440 -2.9704  0.1268
  977MOL0     H31840   8.527   9.572   0.481 -0.2513 -0.1501  2.1984
  977MOL0     H31841   8.653   9.654   0.569  2.0646 -3.9927  1.1953
  977MOL0     H31842   8.524   9.766   0.357 -0.7761 -1.0835 -2.6705
  977MOL0     H31843   8.643   9.673   0.269 -1.7420  0.9600 -0.8381
  977MOL0     H31844   8.700   9.890   0.488 -4.7375 -1.9434  0.5381
  977MOL0     H31845   8.827   9.804   0.396  1.1134  2.6459 -1.4431
  977MOL0     H31846   8.561  10.063   0.276  0.5153  2.6018 -0.6155
  977MOL0     H31847   8.638  10.136  -0.090 -1.9338  1.1516 -0.0648
  977MOL0     H31848   8.531  10.173   0.044 -0.4755  3.5295 -1.8262
  977MOL0     H31849   8.721  10.337   0.128 -0.6336 -1.3217  0.1925
  977MOL0     H31850   8.817  10.277  -0.004 -0.0339 -0.0507  1.6845
  977MOL0     H31851   8.678  10.376  -0.164  2.6837  1.1148 -1.3447
  977MOL0     H31852   8.710  10.504  -0.048  1.6699 -1.2108  0.1809
  977MOL0     H31853   8.458  10.322  -0.068 -0.0903  0.5050 -1.8620
  977MOL0     H31854   8.463  10.484  -0.116  0.6253  1.1906  0.4183
  977MOL0     H31855   8.298  10.637  -0.041 -1.1926  1.4052 -1.6084
  977MOL0     H31856   8.316  10.876  -0.039  0.0837  1.6403  2.7089
  977MOL0     H31857   8.418  11.202  -0.168 -0.8252  0.6907 -1.1582
  977MOL0     H31858   8.414  11.454  -0.232  3.2075  2.4380  0.2674
  977MOL0     H31859   8.235  11.750   0.031 -0.7342  1.2498  0.7276
  977MOL0     H31860   8.401  11.765   0.101  0.7285  1.7654 -1.1842
  977MOL0     H31861   8.356  11.980   0.006  4.1031  1.8981 -0.2586
  977MOL0     H31862   8.494  11.902  -0.037  0.2631 -0.1933  1.4777
  977MOL0     H31863   8.361  11.857  -0.279  1.0739 -0.6697  0.9873
  977MOL0     H31864   8.240  11.965  -0.193  0.4916  0.1050  0.5383
  977MOL0     H31865   8.542  12.047  -0.227 -0.5752  1.4070  0.5793
  977MOL0     H31866   8.407  12.119  -0.153 -1.4412  1.2315 -2.7850
  977MOL0     H31867   8.291  12.095  -0.393  1.3130 -0.6475 -1.9288
  977MOL0     H31868   8.451  12.050  -0.457  1.1355  2.7380 -2.7452
  977MOL0     H31869   8.555  12.233  -0.390 -0.1569 -2.1255  2.6659
  977MOL0     H31870   8.425  12.284  -0.500 -0.4979 -2.7037 -0.2642
  977MOL0     H31871   8.473  12.444  -0.293 -0.0598 -0.0294  1.6940
  977MOL0     H31872   8.389  12.316  -0.202  0.8959 -1.3500 -0.3943
  977MOL0     H31873   8.202  12.349  -0.348  0.5721 -1.3718  1.9219
  977MOL0     H31874   8.235  12.501  -0.260  2.6095  1.9545 -0.5387
  977MOL0     H31875   8.402  11.549   0.184  1.6566  1.2134 -2.2200
  977MOL0     H31876   8.416  11.300   0.245  1.1501 -0.8581  0.2114
  977MOL0     H31877   8.605  10.855   0.267 -2.4313 -0.1825  0.7755
  977MOL0     H31878   8.609  10.611   0.251 -2.3496  0.4808  2.3745
  977MOL0     H31879   9.321   9.178   0.669 -0.6380  1.0554 -1.4502
  977MOL0     H31880   9.485   9.315   0.801  2.1636  2.6587 -0.4767
  977MOL0     H31881   9.703   9.793   0.724 -2.4619  0.2807  0.4419
  977MOL0     H31882   9.837   9.978   0.814  0.5092 -0.5725 -0.2170
  977MOL0     H31883  10.020  10.142   0.920  1.1585  0.4174  0.6297
  977MOL0     H31884  10.075   9.971   0.919 -1.0830  0.7671 -2.9806
  977MOL0     H31885  10.126  10.191   1.142  0.8381  2.1836 -2.4000
  977MOL0     H31886  10.232  10.158   1.017  0.0178  0.2679  1.0360
  977MOL0     H31887  10.290   9.941   1.109 -0.0440 -1.5556 -0.7411
  977MOL0     H31888  10.122   9.900   1.143  2.3711 -0.8118 -3.6938
  977MOL0     H31889  10.120  10.017   1.345  0.0825  0.9697  0.3509
  977MOL0     H31890  10.237   9.887   1.349  3.7358 -0.0624  0.2640
  977MOL0     H31891  10.482  10.256   1.341  3.0522 -2.7512 -1.1723
  977MOL0     H31892   9.833   9.823   1.203  3.2562  0.6021 -1.1854
  977MOL0     H31893   9.704   9.534   1.175 -2.2591 -1.0428  1.3868
  977MOL0     H31894   9.678   9.667   1.281 -0.3638 -1.4614  1.2533
  977MOL0     H31895   9.544   9.625   1.176  0.0846  1.0191 -0.4070
  978MOL0     O31896   4.771  10.784   8.997  0.3283  0.1096  0.3601
  978MOL0     C31897   4.698  10.708   8.929 -0.2388 -0.1298 -0.7127
  978MOL0     O31898   4.583  10.652   8.981 -0.0717  0.1523  0.2970
  978MOL0     C31899   4.525  10.706   9.091 -0.7041  0.9387  0.2150
  978MOL0     C31900   4.545  10.652   9.215  0.2473 -0.4654 -0.7053
  978MOL0     C31901   4.465  10.687   9.322 -0.3657 -0.9499  0.5910
  978MOL0     C31902   4.352  10.776   9.296 -0.6290 -1.4300  1.0437
  978MOL0     O31903   4.268  10.811   9.400 -0.7491 -0.0402  0.4186
  978MOL0     C31904   4.222  10.944   9.399  0.5122 -0.5100  0.5282
  978MOL0     C31905   4.338  11.040   9.411 -0.1229  0.6667 -0.2857
  978MOL0     C31906   4.426  11.013   9.530 -0.9924  0.5955 -1.3165
  978MOL0     C31907   4.552  11.103   9.555  0.1554 -0.2843  0.3317
  978MOL0     C31908   4.630  11.079   9.684 -0.2497 -0.3794  0.2356
  978MOL0     C31909   4.754  11.169   9.692 -0.1464  0.4930 -0.1566
  978MOL0     C31910   4.815  11.174   9.832 -0.3483  0.4009 -0.6946
  978MOL0     C31911   4.944  11.262   9.819  1.2606 -0.3302 -0.3653
  978MOL0     N31912   5.039  11.195   9.741 -0.4523  0.1201  0.0885
  978MOL0     C31913   5.079  11.065   9.750 -0.8723  0.0861 -0.0566
  978MOL0     C31914   5.174  11.047   9.649 -0.7027 -0.3181 -0.0754
  978MOL0     C31915   5.252  10.920   9.632 -0.0939  0.1316 -0.1042
  978MOL0     C31916   5.162  10.789   9.632  0.6331  1.7968  0.2728
  978MOL0     C31917   5.082  10.778   9.499 -0.4471  0.0312 -0.4586
  978MOL0     C31918   4.958  10.857   9.486 -0.8675 -0.1914 -0.7674
  978MOL0     O31919   4.888  10.848   9.611 -0.4201 -0.3741  0.2710
  978MOL0     C31920   4.816  10.734   9.652  0.3657  0.2603 -1.0881
  978MOL0     C31921   4.767  10.638   9.556 -1.3668 -0.2886 -1.4206
  978MOL0     C31922   4.694  10.528   9.596  0.2262  0.0364  0.6324
  978MOL0     C31923   4.647  10.513   9.730  0.4491 -0.7629  1.0038
  978MOL0     C31924   4.567  10.384   9.770  0.0628  0.0037  0.6229
  978MOL0     O31925   4.545  10.294   9.665 -0.3677 -0.3435  0.0106
  978MOL0     C31926   4.509  10.165   9.692 -0.5508  1.3412 -0.8193
  978MOL0     C31927   4.530  10.066   9.599 -0.5513 -0.4461 -0.4447
  978MOL0     C31928   4.489   9.931   9.596  0.2297  0.3427 -1.0775
  978MOL0     C31929   4.417   9.895   9.719 -0.2602 -0.8209 -0.1106
  978MOL0     O31930   4.377   9.769   9.746  0.5669  0.3182  0.1568
  978MOL0     C31931   4.384   9.654   9.666  0.3490  0.2307 -1.0697
  978MOL0     C31932   4.501   9.578   9.721 -0.9460 -0.7471 -1.1550
  978MOL0     C31933   4.527   9.442   9.641  0.1673  0.2166 -0.4822
  978MOL0     C31934   4.510   9.444   9.479  0.3455 -0.4001 -0.0025
  978MOL0     C31935   4.507   9.303   9.413  0.3294  1.0962 -0.6449
  978MOL0     C31936   4.646   9.243   9.389 -0.3417  0.1873  0.6319
  978MOL0     C31937   4.669   9.123   9.293  0.5975 -0.4067  0.2700
  978MOL0     C31938   4.590   8.996   9.339 -0.3019  0.1193  0.4950
  978MOL0    Cl31939   4.577   8.958   9.515  0.1211 -0.0342  0.1879
  978MOL0     C31940   4.390   9.995   9.816 -0.1807 -0.1672 -0.2501
  978MOL0     C31941   4.441  10.119   9.806 -0.5018  0.0708 -0.1782
  978MOL0     O31942   4.548  10.374   9.890  0.1864 -0.0407 -0.2100
  978MOL0     C31943   4.679  10.621   9.820 -0.1958 -0.0552  0.6408
  978MOL0     C31944   4.754  10.735   9.780 -0.9361 -0.3680  0.0578
  978MOL0     N31945   5.185  11.160   9.581 -0.2989 -0.8439  0.6158
  978MOL0     N31946   5.110  11.250   9.631 -0.5822  0.2095 -0.9757
  978MOL0     C31947   4.330  10.826   9.163 -0.2793  0.0702 -0.2789
  978MOL0     C31948   4.422  10.794   9.062  0.9555 -0.5226 -0.2664
  978MOL0     C31949   4.739  10.674   8.790  0.5955 -0.4856  0.6939
  978MOL0     C31950   4.696  10.553   8.728  0.2279  0.2043  0.2184
  978MOL0     C31951   4.753  10.507   8.612  0.0641 -0.1943  0.0432
  978MOL0     C31952   4.851  10.575   8.545  0.0559  0.1100 -0.1206
  978MOL0     O31953   4.911  10.543   8.429  0.6743 -0.0740  0.7805
  978MOL0     C31954   4.872  10.432   8.345  0.7411  0.0259 -0.6164
  978MOL0     C31955   4.955  10.421   8.214  0.2294 -0.8698  0.2560
  978MOL0     C31956   4.927  10.299   8.131 -0.3528 -0.2801  0.3193
  978MOL0     C31957   4.800  10.321   8.037  0.2497 -0.5442  0.5612
  978MOL0     C31958   4.759  10.197   7.976 -0.6926  0.1510  0.1064
  978MOL0     C31959   4.754  10.086   7.918  1.2584 -0.3408 -0.9077
  978MOL0     C31960   4.893  10.698   8.599  0.4669  0.0141  0.1935
  978MOL0     C31961   4.829  10.755   8.711  1.0977  0.0993 -0.4414
  978MOL0     C31962   4.864  10.895   8.735 -0.2193  0.3060 -0.9547
  978MOL0     H31963   4.611  10.566   9.212  1.2871  0.3377 -2.0853
  978MOL0     H31964   4.481  10.647   9.422  2.2763 -0.4590  0.4541
  978MOL0     H31965   4.156  10.976   9.318  1.3400  1.7865  0.6860
  978MOL0     H31966   4.160  10.945   9.490 -0.0001  2.6161  0.2773
  978MOL0     H31967   4.309  11.144   9.425  0.7113  0.7322  1.2720
  978MOL0     H31968   4.405  11.020   9.327 -1.0455  1.0533 -1.1206
  978MOL0     H31969   4.469  10.914   9.515  1.0667  1.2408 -0.1669
  978MOL0     H31970   4.373  11.009   9.625  3.4567 -2.3602  1.4229
  978MOL0     H31971   4.623  11.073   9.477 -0.5663  1.6109 -1.1226
  978MOL0     H31972   4.524  11.206   9.533 -0.9631 -0.7690 -0.6265
  978MOL0     H31973   4.568  11.094   9.773 -1.0144 -1.7436 -0.0452
  978MOL0     H31974   4.671  10.978   9.690  3.1918  0.8713  0.1514
  978MOL0     H31975   4.833  11.139   9.623 -0.4383 -0.0600 -0.2591
  978MOL0     H31976   4.735  11.272   9.659 -1.3637  0.1298 -0.6441
  978MOL0     H31977   4.834  11.080   9.885  1.2513  1.1889  0.2132
  978MOL0     H31978   4.743  11.229   9.892 -1.0574 -0.4178 -0.7818
  978MOL0     H31979   4.914  11.359   9.778  0.5921  0.2086  1.3075
  978MOL0     H31980   4.987  11.290   9.916  0.0350  3.9611 -0.8394
  978MOL0     H31981   5.036  10.989   9.815 -3.1234  0.6716 -0.7752
  978MOL0     H31982   5.295  10.920   9.532  1.4908 -1.8268  0.5128
  978MOL0     H31983   5.331  10.912   9.708  0.3948  1.2999 -0.4704
  978MOL0     H31984   5.222  10.698   9.629 -0.4879  1.0378  0.2735
  978MOL0     H31985   5.094  10.781   9.718  3.5149  1.8612  2.7378
  978MOL0     H31986   5.044  10.675   9.502  0.1137 -0.1661  1.1066
  978MOL0     H31987   5.159  10.793   9.423  0.0212 -0.0796 -0.0099
  978MOL0     H31988   4.896  10.827   9.402 -0.6997  0.7144 -1.2330
  978MOL0     H31989   4.985  10.961   9.464  0.3631 -0.6350 -1.4300
  978MOL0     H31990   4.807  10.661   9.458  1.3492 -0.9738 -0.5570
  978MOL0     H31991   4.668  10.453   9.523 -4.0384  0.4684  1.4767
  978MOL0     H31992   4.570  10.092   9.501 -1.1744  1.6789 -0.1801
  978MOL0     H31993   4.508   9.863   9.514 -2.0639 -1.2343 -0.3869
  978MOL0     H31994   4.299   9.588   9.681  1.4765 -1.0451  0.0129
  978MOL0     H31995   4.389   9.682   9.560  0.6998  0.0995 -1.0893
  978MOL0     H31996   4.589   9.641   9.705 -0.7728 -0.9365 -0.9466
  978MOL0     H31997   4.495   9.568   9.829  2.4360 -0.5275 -0.8555
  978MOL0     H31998   4.626   9.403   9.669  0.5935  0.5308 -1.5300
  978MOL0     H31999   4.459   9.374   9.692 -0.3195  0.9186 -0.1832
  978MOL0     H32000   4.579   9.519   9.439 -2.8963  2.4588 -0.7054
  978MOL0     H32001   4.416   9.492   9.452 -0.2447 -1.9680 -0.8431
  978MOL0     H32002   4.453   9.313   9.318 -1.6602 -1.2028  0.1471
  978MOL0     H32003   4.445   9.232   9.468  3.5723 -0.8708  0.8028
  978MOL0     H32004   4.723   9.317   9.365  2.0013 -1.3344  2.9532
  978MOL0     H32005   4.684   9.211   9.486  0.9450 -0.0101  0.0924
  978MOL0     H32006   4.777   9.106   9.303  0.5079  0.2686  4.5709
  978MOL0     H32007   4.637   9.156   9.194 -2.4150  0.7912  1.5347
  978MOL0     H32008   4.487   8.989   9.300 -0.2232  0.3370  0.2474
  978MOL0     H32009   4.642   8.919   9.281 -0.2047  0.7536 -0.2741
  978MOL0     H32010   4.328   9.961   9.899 -1.5368  0.1934 -1.0924
  978MOL0     H32011   4.405  10.193   9.877  0.6337  1.7788 -1.3037
  978MOL0     H32012   4.640  10.624   9.921  1.9494  0.7551  1.5114
  978MOL0     H32013   4.771  10.820   9.846 -0.3904 -1.3307  1.1995
  978MOL0     H32014   4.249  10.894   9.136  0.4308  0.7233 -0.7979
  978MOL0     H32015   4.401  10.821   8.958 -1.6186 -2.2131 -0.2664
  978MOL0     H32016   4.623  10.490   8.780 -1.9204 -1.5023 -4.3518
  978MOL0     H32017   4.710  10.415   8.573 -1.6381 -0.9444  3.3645
  978MOL0     H32018   4.767  10.430   8.314  0.7213  0.6944 -0.6257
  978MOL0     H32019   4.892  10.346   8.409 -2.2421  2.0738  3.5566
  978MOL0     H32020   5.060  10.411   8.242  0.1012  1.2708  1.7656
  978MOL0     H32021   4.945  10.516   8.159  1.5327  1.2424  3.3672
  978MOL0     H32022   4.909  10.206   8.187 -0.6355 -0.7581 -0.5459
  978MOL0     H32023   5.013  10.290   8.064  0.3469  4.4461  0.2756
  978MOL0     H32024   4.716  10.352   8.099  1.3053 -0.9721  2.2890
  978MOL0     H32025   4.808  10.399   7.961 -3.6974 -0.0827  0.4233
  978MOL0     H32026   4.744   9.988   7.877 -5.0939 -0.8456  0.8125
  978MOL0     H32027   4.983  10.742   8.558  0.5786  2.0103  2.4030
  978MOL0     H32028   4.881  10.914   8.841 -2.3923  3.3985 -1.0483
  978MOL0     H32029   4.953  10.926   8.678 -0.5009 -0.9057 -2.1138
  978MOL0     H32030   4.773  10.947   8.705 -1.3851 -1.2542 -0.2563
  979MOL0     O32031   0.060   1.089   7.544 -0.2352 -0.9485 -0.4787
  979MOL0     C32032  -0.018   1.155   7.617 -2.0645  1.1313 -0.1473
  979MOL0     O32033  -0.092   1.101   7.715  0.9960  0.5364  0.0431
  979MOL0     C32034  -0.083   0.973   7.747  0.3693 -0.1500 -0.8426
  979MOL0     C32035  -0.076   0.937   7.890 -0.3315  0.1379 -0.0922
  979MOL0     C32036  -0.071   0.802   7.921  0.6748 -1.1632 -0.0903
  979MOL0     C32037  -0.087   0.704   7.827  0.2351 -0.8344 -0.1930
  979MOL0     O32038  -0.093   0.585   7.891  1.0253 -0.2342  0.3744
  979MOL0     C32039  -0.113   0.472   7.805  0.2654 -0.2176 -0.3334
  979MOL0     C32040  -0.140   0.353   7.900  0.5479  0.4725  0.2693
  979MOL0     C32041  -0.007   0.298   7.954  0.8147 -0.4781  0.5229
  979MOL0     C32042  -0.004   0.278   8.095 -0.0341 -0.4863  0.1455
  979MOL0     C32043   0.133   0.245   8.134  0.6782 -0.2277 -0.4846
  979MOL0     C32044   0.122   0.183   8.282  0.0165 -0.2927 -0.3863
  979MOL0     C32045   0.262   0.146   8.337  0.7352 -0.7443 -0.6199
  979MOL0     C32046   0.260   0.116   8.485 -0.0113  0.0146  0.2499
  979MOL0     N32047   0.215  -0.023   8.525 -0.6155 -1.0512  0.4599
  979MOL0     C32048   0.299  -0.127   8.514 -0.0832  0.4280  0.0620
  979MOL0     C32049   0.230  -0.232   8.567 -0.6259  0.1542  0.8315
  979MOL0     C32050   0.272  -0.371   8.558 -0.9278 -1.0563  0.3090
  979MOL0     C32051   0.385  -0.400   8.674  0.3610  0.0636  1.3699
  979MOL0     C32052   0.340  -0.346   8.811 -0.3038 -0.2343  0.3060
  979MOL0     C32053   0.412  -0.368   8.941  0.7431 -0.7207  0.5092
  979MOL0     O32054   0.386  -0.503   8.983 -0.1111  0.1319  0.1170
  979MOL0     C32055   0.417  -0.533   9.116 -0.9006  0.1062 -0.1137
  979MOL0     C32056   0.476  -0.452   9.213  0.0164 -0.5193 -0.5200
  979MOL0     C32057   0.502  -0.503   9.341 -0.8267 -0.1497 -0.0649
  979MOL0     C32058   0.482  -0.640   9.373  0.5198 -1.5222 -0.0824
  979MOL0     C32059   0.520  -0.696   9.504  0.2633  0.1664  0.9884
  979MOL0     O32060   0.492  -0.828   9.529 -0.6384  0.2639 -0.4829
  979MOL0     C32061   0.542  -0.880   9.648 -0.2690 -0.1839 -0.5205
  979MOL0     C32062   0.642  -0.821   9.731  0.8360 -0.5944  0.2298
  979MOL0     C32063   0.660  -0.876   9.864  0.2688  0.4880 -0.5761
  979MOL0     C32064   0.590  -0.981   9.917  0.3237 -1.8174  0.0388
  979MOL0     O32065   0.609  -1.007  10.041 -0.2358 -0.1721  1.2972
  979MOL0     C32066   0.497  -1.014  10.130 -0.0553 -0.7100 -0.1641
  979MOL0     C32067   0.466  -0.869  10.171  0.6881  0.5149  0.2115
  979MOL0     C32068   0.355  -0.854  10.277 -0.2127 -0.2610  0.2574
  979MOL0     C32069   0.393  -0.902  10.411 -0.5798 -0.6124  0.4486
  979MOL0     C32070   0.309  -0.834  10.510 -0.9624  0.3979 -0.5408
  979MOL0     C32071   0.320  -0.892  10.649 -0.3234 -0.3499  0.2752
  979MOL0     C32072   0.223  -0.829  10.756  1.3568  0.3704 -0.6431
  979MOL0     C32073   0.254  -0.685  10.785  0.2524  0.8017 -0.3305
  979MOL0    Cl32074   0.120  -0.633  10.894  0.0311  0.1550 -0.3406
  979MOL0     C32075   0.495  -1.037   9.829 -0.3347 -0.2291  0.1798
  979MOL0     C32076   0.470  -0.988   9.702 -0.4876 -0.4703  0.5911
  979MOL0     O32077   0.560  -0.618   9.587 -0.3497  0.5203  0.3363
  979MOL0     C32078   0.419  -0.725   9.269  0.3112 -0.7362 -0.9723
  979MOL0     C32079   0.389  -0.666   9.149  0.1576 -0.7872 -0.3421
  979MOL0     N32080   0.108  -0.186   8.620 -0.1296 -0.4208 -0.2734
  979MOL0     N32081   0.104  -0.056   8.594 -0.2919  0.1837  0.0102
  979MOL0     C32082  -0.097   0.735   7.694  0.8112 -0.2889  0.1608
  979MOL0     C32083  -0.097   0.864   7.652  0.0263 -0.7567 -0.2983
  979MOL0     C32084  -0.030   1.300   7.585 -0.7602  0.6243 -0.1849
  979MOL0     C32085  -0.140   1.369   7.625 -0.7397 -0.1633  0.8102
  979MOL0     C32086  -0.150   1.506   7.604 -0.6478 -0.1633 -0.0514
  979MOL0     C32087  -0.064   1.579   7.537 -0.0985  0.4936 -0.5604
  979MOL0     O32088  -0.093   1.709   7.543  0.7636 -0.0662  0.7162
  979MOL0     C32089   0.009   1.806   7.520 -0.5970  0.1265 -0.0892
  979MOL0     C32090  -0.054   1.932   7.445 -0.3890  0.4652  0.6133
  979MOL0     C32091  -0.161   2.002   7.532 -0.1717 -0.6457  0.6446
  979MOL0     C32092  -0.197   2.133   7.472  1.1602  0.6218  0.0840
  979MOL0     C32093  -0.301   2.206   7.556  0.1285  0.7283 -0.1287
  979MOL0     C32094  -0.358   2.291   7.619 -0.5630  0.3166  0.1936
  979MOL0     C32095   0.045   1.508   7.493 -0.1770  0.7620  0.5921
  979MOL0     C32096   0.067   1.373   7.514  0.6001  0.2907 -0.0729
  979MOL0     C32097   0.194   1.323   7.462 -0.1790  1.1739 -0.5866
  979MOL0     H32098  -0.079   1.003   7.975  2.9505  1.4478 -0.8577
  979MOL0     H32099  -0.055   0.775   8.025  2.1880  3.0072  0.9354
  979MOL0     H32100  -0.206   0.476   7.747 -1.0504 -0.5657  1.6622
  979MOL0     H32101  -0.027   0.458   7.740  1.0155  1.8401  0.1407
  979MOL0     H32102  -0.184   0.275   7.838 -1.1844  1.5799  0.0372
  979MOL0     H32103  -0.210   0.387   7.976  0.8554 -1.7891  1.6555
  979MOL0     H32104   0.056   0.381   7.922  1.2134 -0.9182  0.1540
  979MOL0     H32105   0.024   0.212   7.894 -0.2853 -0.0041 -0.7879
  979MOL0     H32106  -0.047   0.365   8.145 -0.9324 -1.7220  1.5813
  979MOL0     H32107  -0.071   0.198   8.128 -0.8907 -0.0372 -0.4354
  979MOL0     H32108   0.193   0.193   8.060  0.2164 -0.3873 -0.7537
  979MOL0     H32109   0.187   0.337   8.157 -2.2853  1.0860  1.9104
  979MOL0     H32110   0.052   0.239   8.344 -2.1026 -1.9846 -1.1376
  979MOL0     H32111   0.075   0.086   8.265 -0.4445 -0.0863 -0.2830
  979MOL0     H32112   0.337   0.225   8.331  2.5055 -2.3608 -0.9845
  979MOL0     H32113   0.300   0.061   8.279  1.6356 -1.1489  0.5123
  979MOL0     H32114   0.363   0.121   8.521  0.5417 -0.2207 -1.2396
  979MOL0     H32115   0.190   0.190   8.525 -1.5081 -0.4907 -1.3026
  979MOL0     H32116   0.401  -0.137   8.478 -0.6223  0.2292 -1.4659
  979MOL0     H32117   0.182  -0.432   8.572 -1.9847 -0.1208 -1.9116
  979MOL0     H32118   0.299  -0.416   8.463  2.7786  0.6287  0.4108
  979MOL0     H32119   0.400  -0.508   8.686  1.2339 -0.0404 -0.4174
  979MOL0     H32120   0.481  -0.357   8.646 -0.7629  2.5536  1.1168
  979MOL0     H32121   0.239  -0.379   8.834  1.2478 -4.7017  1.8222
  979MOL0     H32122   0.338  -0.238   8.794  0.1676 -0.3792 -0.7823
  979MOL0     H32123   0.370  -0.304   9.019 -0.8340  2.5671 -2.6585
  979MOL0     H32124   0.519  -0.349   8.940  0.5995  0.2885 -1.1824
  979MOL0     H32125   0.502  -0.347   9.207  0.4041 -0.6104 -0.4874
  979MOL0     H32126   0.546  -0.429   9.407 -2.2777  0.8890 -0.2210
  979MOL0     H32127   0.706  -0.743   9.692 -1.8562 -0.1097 -3.9338
  979MOL0     H32128   0.729  -0.832   9.935  0.9431 -0.2105 -0.7839
  979MOL0     H32129   0.414  -1.067  10.082  1.7783 -3.4956 -0.4993
  979MOL0     H32130   0.524  -1.069  10.220  1.9105 -1.9820 -1.4570
  979MOL0     H32131   0.560  -0.824  10.203 -0.6863  1.1444  3.8335
  979MOL0     H32132   0.440  -0.807  10.084  0.2319  1.0143  0.6971
  979MOL0     H32133   0.329  -0.748  10.263 -0.2919 -0.7017 -4.9464
  979MOL0     H32134   0.269  -0.913  10.244 -0.4456 -0.2165  0.7714
  979MOL0     H32135   0.496  -0.874  10.431 -1.0026  0.2425  1.5147
  979MOL0     H32136   0.384  -1.011  10.418  0.4083 -0.7951 -0.7281
  979MOL0     H32137   0.204  -0.840  10.479 -1.2741 -1.8243  0.7460
  979MOL0     H32138   0.328  -0.727  10.516 -3.7835  0.9848 -0.6998
  979MOL0     H32139   0.308  -1.001  10.647  1.7391 -0.6619  1.8543
  979MOL0     H32140   0.420  -0.878  10.692 -0.1812 -3.2159  1.0874
  979MOL0     H32141   0.232  -0.889  10.847  0.4293 -1.1134 -1.4988
  979MOL0     H32142   0.124  -0.835  10.709  0.8140 -1.2297  0.6310
  979MOL0     H32143   0.346  -0.697  10.843 -1.7932  0.2471  3.0229
  979MOL0     H32144   0.257  -0.620  10.697 -4.3672 -0.8148 -1.9632
  979MOL0     H32145   0.427  -1.106   9.878  0.9334  0.0130  2.4069
  979MOL0     H32146   0.381  -1.020   9.649 -1.9851  0.8683  2.1626
  979MOL0     H32147   0.399  -0.831   9.280 -2.9984 -0.2914 -1.7242
  979MOL0     H32148   0.341  -0.723   9.069 -0.9194  4.3132 -3.8378
  979MOL0     H32149  -0.108   0.651   7.626 -0.9323 -0.8035  1.0132
  979MOL0     H32150  -0.098   0.886   7.546 -2.4801  0.5919 -0.0712
  979MOL0     H32151  -0.221   1.327   7.684 -0.7612 -0.4792  0.5626
  979MOL0     H32152  -0.227   1.563   7.654  1.8818  3.7264 -0.1947
  979MOL0     H32153   0.091   1.760   7.464 -0.7627 -0.3161  0.0227
  979MOL0     H32154   0.037   1.835   7.622 -0.2890  1.0719 -0.4331
  979MOL0     H32155  -0.101   1.898   7.352  1.0937  0.9518 -0.3474
  979MOL0     H32156   0.038   1.989   7.426  1.7033 -2.0354  2.5218
  979MOL0     H32157  -0.107   2.032   7.622  3.2021  2.6044 -2.1360
  979MOL0     H32158  -0.247   1.934   7.539 -1.6998  0.9078 -1.7635
  979MOL0     H32159  -0.106   2.194   7.471  2.6558 -1.4023  2.1482
  979MOL0     H32160  -0.236   2.126   7.370  3.3993  0.2027 -0.7889
  979MOL0     H32161  -0.403   2.356   7.691 -1.3696  1.8098 -1.5869
  979MOL0     H32162   0.123   1.556   7.434  0.7789  0.1149  1.2859
  979MOL0     H32163   0.253   1.280   7.544 -1.6057 -0.7693 -0.5176
  979MOL0     H32164   0.174   1.255   7.380 -1.2335  0.5139  0.1990
  979MOL0     H32165   0.263   1.403   7.430  3.4920 -0.3186  2.7050
  980MOL0     O32166   5.101   3.916   2.580 -0.3306  0.2802 -0.5122
  980MOL0     C32167   5.030   4.011   2.549  0.6037  0.8229  1.0918
  980MOL0     O32168   4.983   4.029   2.423 -0.3952 -0.6434  0.2989
  980MOL0     C32169   5.038   3.970   2.321  0.0727  0.1373 -0.0119
  980MOL0     C32170   5.181   3.971   2.303 -0.1199  0.6971 -0.1062
  980MOL0     C32171   5.232   3.893   2.203  0.4319  0.0968  0.3243
  980MOL0     C32172   5.138   3.841   2.111 -0.0391 -0.9039  0.0160
  980MOL0     O32173   5.176   3.793   1.990  0.1060  0.2514 -0.8976
  980MOL0     C32174   5.207   3.651   1.993 -1.1983  0.7487  0.8969
  980MOL0     C32175   5.176   3.592   1.853 -0.3303  0.4845 -0.9914
  980MOL0     C32176   5.244   3.657   1.735 -0.1360 -0.8242 -0.4427
  980MOL0     C32177   5.208   3.578   1.605  0.0451 -0.2874 -0.3906
  980MOL0     C32178   5.336   3.572   1.519  0.1797 -1.1725  0.9059
  980MOL0     C32179   5.322   3.484   1.377  0.2123 -0.1692 -0.0449
  980MOL0     C32180   5.445   3.393   1.343  0.6107 -0.2934  0.0325
  980MOL0     C32181   5.429   3.331   1.210  0.2645 -0.0655  0.8304
  980MOL0     N32182   5.493   3.198   1.214 -0.7753  0.6832 -0.7876
  980MOL0     C32183   5.436   3.075   1.262 -0.3277 -0.2535  0.3703
  980MOL0     C32184   5.530   2.984   1.219  0.5218  0.7025  0.0720
  980MOL0     C32185   5.513   2.845   1.263  0.2438  0.2445  0.9875
  980MOL0     C32186   5.642   2.768   1.244  0.2032  0.4510  0.1701
  980MOL0     C32187   5.626   2.624   1.305  0.7186 -0.4808  0.7617
  980MOL0     C32188   5.731   2.521   1.252  0.0184  0.3723 -0.0629
  980MOL0     O32189   5.686   2.478   1.118 -0.5903  0.1300  0.1395
  980MOL0     C32190   5.765   2.380   1.056 -0.1084  1.0292  0.0535
  980MOL0     C32191   5.716   2.314   0.942 -0.8710  0.1238 -1.1553
  980MOL0     C32192   5.790   2.211   0.877 -0.2079  0.8232  0.4813
  980MOL0     C32193   5.904   2.161   0.940 -0.2104 -1.1464 -0.4354
  980MOL0     C32194   5.977   2.048   0.890 -1.5015  0.5815 -0.6519
  980MOL0     O32195   5.977   2.036   0.754 -0.6416  0.3697 -0.1059
  980MOL0     C32196   6.039   1.937   0.679  0.2226  0.5757 -0.1474
  980MOL0     C32197   5.969   1.907   0.564  0.2715  0.7959  0.4007
  980MOL0     C32198   5.998   1.797   0.482  0.9448 -0.1440 -0.2313
  980MOL0     C32199   6.101   1.711   0.514 -0.3157 -0.3231  0.5830
  980MOL0     O32200   6.140   1.611   0.426 -0.0172 -0.0205 -0.6495
  980MOL0     C32201   6.154   1.479   0.471 -0.0877 -0.0670  0.0507
  980MOL0     C32202   6.280   1.421   0.394 -0.1392  0.0442 -0.0200
  980MOL0     C32203   6.413   1.497   0.420 -0.6697  0.7956 -0.1208
  980MOL0     C32204   6.454   1.462   0.567 -0.1067 -0.3507 -0.4546
  980MOL0     C32205   6.573   1.562   0.599  0.1063 -0.1728  0.1285
  980MOL0     C32206   6.616   1.596   0.742  0.5925  0.2581  0.3872
  980MOL0     C32207   6.526   1.699   0.809  0.1367 -0.0426  0.3197
  980MOL0     C32208   6.596   1.753   0.926 -0.1238 -1.4453  0.2191
  980MOL0    Cl32209   6.471   1.860   1.001 -0.2259  0.3272  0.3143
  980MOL0     C32210   6.180   1.738   0.634  0.2414 -0.0963  0.4834
  980MOL0     C32211   6.142   1.843   0.709  0.9025  0.9008 -0.2116
  980MOL0     O32212   6.053   1.981   0.970 -0.1408 -0.0559  0.0049
  980MOL0     C32213   5.948   2.234   1.055  0.2556 -0.8956  0.9218
  980MOL0     C32214   5.886   2.344   1.112 -0.6589  0.0548 -0.1772
  980MOL0     N32215   5.635   3.047   1.162  0.4264 -0.6756  0.5447
  980MOL0     N32216   5.616   3.174   1.157  0.0362 -0.4474  0.1718
  980MOL0     C32217   4.997   3.847   2.118  0.1833 -0.1993  0.1918
  980MOL0     C32218   4.944   3.919   2.222  0.5953  0.2130 -0.9680
  980MOL0     C32219   4.973   4.095   2.658  0.6800  0.8376  0.5424
  980MOL0     C32220   4.913   4.038   2.774 -0.5261  0.4897 -0.1534
  980MOL0     C32221   4.865   4.125   2.881 -0.1783  0.5144 -0.2823
  980MOL0     C32222   4.868   4.268   2.874  0.1885 -0.4260  0.6322
  980MOL0     O32223   4.808   4.338   2.978  0.3330 -0.3461 -0.3769
  980MOL0     C32224   4.661   4.353   2.964 -0.4252  0.1070 -0.3139
  980MOL0     C32225   4.626   4.495   2.900  0.4196 -0.0759  0.2183
  980MOL0     C32226   4.702   4.614   2.959 -0.2828 -0.6707  0.1642
  980MOL0     C32227   4.675   4.750   2.883  0.7956 -0.1258  0.0872
  980MOL0     C32228   4.744   4.748   2.755 -0.4205  0.5728  0.6661
  980MOL0     C32229   4.798   4.738   2.649 -0.7394 -0.0180  0.7166
  980MOL0     C32230   4.920   4.320   2.758 -0.6317  0.4238 -0.0693
  980MOL0     C32231   4.965   4.238   2.652 -0.2053  0.1237  0.7384
  980MOL0     C32232   5.016   4.321   2.541 -0.3624  0.4662 -0.1075
  980MOL0     H32233   5.239   4.028   2.377 -4.2140  3.1022  1.5878
  980MOL0     H32234   5.338   3.877   2.183  0.4362  1.9652 -1.4843
  980MOL0     H32235   5.315   3.650   2.011 -0.8661  3.3510 -0.4005
  980MOL0     H32236   5.158   3.594   2.072  0.7154  0.0879  1.6716
  980MOL0     H32237   5.069   3.607   1.840 -0.4980  0.3317  0.1043
  980MOL0     H32238   5.184   3.483   1.858  0.6524  0.5819 -0.0735
  980MOL0     H32239   5.352   3.672   1.744 -0.3303  0.3064  0.2081
  980MOL0     H32240   5.206   3.760   1.729  1.0085 -0.3581  0.0666
  980MOL0     H32241   5.182   3.476   1.636  1.1428  0.2807  2.8266
  980MOL0     H32242   5.128   3.625   1.548 -1.2275 -0.2650  1.3100
  980MOL0     H32243   5.360   3.676   1.495 -3.7008 -0.4168 -0.4606
  980MOL0     H32244   5.418   3.536   1.581  0.8439 -0.9485  0.1664
  980MOL0     H32245   5.239   3.417   1.399 -0.7095  0.8361 -0.3857
  980MOL0     H32246   5.300   3.553   1.296 -0.6723 -0.7024 -0.2691
  980MOL0     H32247   5.462   3.334   1.434  1.0588 -0.7833 -0.3669
  980MOL0     H32248   5.528   3.464   1.336 -1.9083  2.7838 -1.0365
  980MOL0     H32249   5.324   3.313   1.186 -0.1252 -0.1336  2.4326
  980MOL0     H32250   5.475   3.395   1.134 -1.9071 -2.0742 -2.4323
  980MOL0     H32251   5.353   3.048   1.327 -0.3930  0.2718  0.5095
  980MOL0     H32252   5.471   2.837   1.364  0.4256 -2.7102  0.9247
  980MOL0     H32253   5.452   2.791   1.190  3.4005 -2.0655 -0.1666
  980MOL0     H32254   5.655   2.760   1.136 -1.9638  0.4824 -0.1319
  980MOL0     H32255   5.728   2.818   1.290  2.3675 -0.0470 -3.0266
  980MOL0     H32256   5.530   2.579   1.278  0.0074  0.6755  1.2851
  980MOL0     H32257   5.637   2.630   1.413  0.2176 -1.2903  0.8595
  980MOL0     H32258   5.740   2.434   1.318  2.0912  0.1284 -0.6102
  980MOL0     H32259   5.829   2.568   1.239  1.0189 -1.5584  0.0583
  980MOL0     H32260   5.619   2.344   0.903  0.5204 -0.1217 -5.3223
  980MOL0     H32261   5.738   2.150   0.804 -2.1755 -1.0763  3.2379
  980MOL0     H32262   5.885   1.968   0.531  0.7314 -0.1823 -3.0373
  980MOL0     H32263   5.952   1.761   0.390  3.3312 -2.8186 -0.5304
  980MOL0     H32264   6.148   1.460   0.578 -2.3901  1.6966  0.3118
  980MOL0     H32265   6.066   1.423   0.435  0.5502 -0.6098 -0.7058
  980MOL0     H32266   6.304   1.316   0.409  0.7910 -0.2784 -3.1189
  980MOL0     H32267   6.261   1.431   0.287  1.9820  4.1295 -0.2137
  980MOL0     H32268   6.492   1.475   0.349  1.6272  2.0896  1.8814
  980MOL0     H32269   6.399   1.605   0.410  0.1237  0.7800 -1.5248
  980MOL0     H32270   6.481   1.359   0.590 -1.2990 -0.4557  0.6064
  980MOL0     H32271   6.370   1.499   0.628  1.8158  0.7357  1.6854
  980MOL0     H32272   6.542   1.661   0.563 -0.8775  0.3826  2.3250
  980MOL0     H32273   6.657   1.533   0.536  0.3088 -2.3741  1.3080
  980MOL0     H32274   6.625   1.509   0.808  2.9343 -0.1268 -0.3369
  980MOL0     H32275   6.718   1.635   0.739 -0.4062  3.1319  0.9400
  980MOL0     H32276   6.427   1.663   0.835  0.9157 -0.4923  2.9103
  980MOL0     H32277   6.508   1.782   0.740  2.0962 -0.1109 -0.3634
  980MOL0     H32278   6.632   1.683   1.002 -1.4323 -0.5878  1.6984
  980MOL0     H32279   6.678   1.813   0.887  1.1193 -0.0799  4.4496
  980MOL0     H32280   6.263   1.677   0.668  1.5302  1.7411  0.8054
  980MOL0     H32281   6.184   1.854   0.808  4.1585 -0.4823 -1.2908
  980MOL0     H32282   6.049   2.214   1.089  1.9279 -1.0894 -3.4875
  980MOL0     H32283   5.938   2.378   1.201 -0.3798  1.1245 -0.7323
  980MOL0     H32284   4.938   3.804   2.038 -1.3072 -0.6086  1.4593
  980MOL0     H32285   4.839   3.931   2.246  1.1338 -1.0109  2.4336
  980MOL0     H32286   4.901   3.931   2.792  1.2232  0.2206 -0.3843
  980MOL0     H32287   4.826   4.091   2.976 -0.2037  2.2111  0.3321
  980MOL0     H32288   4.613   4.348   3.063  2.9521 -0.8636  1.4097
  980MOL0     H32289   4.612   4.274   2.906 -4.2106 -0.0508  2.6142
  980MOL0     H32290   4.519   4.517   2.913 -0.1501 -1.7585 -1.2653
  980MOL0     H32291   4.637   4.486   2.791  1.8594  3.8094 -0.1171
  980MOL0     H32292   4.808   4.589   2.958  0.7371  3.0444 -0.0478
  980MOL0     H32293   4.670   4.620   3.064 -2.2657  1.6999 -0.4795
  980MOL0     H32294   4.566   4.747   2.877  0.6604 -0.3163  1.9378
  980MOL0     H32295   4.697   4.844   2.935 -0.2562 -0.5406  1.3523
  980MOL0     H32296   4.850   4.736   2.556 -3.5561 -2.9818 -0.9915
  980MOL0     H32297   4.924   4.427   2.738 -2.5390  0.6438  0.5700
  980MOL0     H32298   5.121   4.341   2.567 -0.0623 -0.5853 -0.4460
  980MOL0     H32299   5.005   4.279   2.440 -2.0725 -1.6255  0.8775
  980MOL0     H32300   4.961   4.416   2.538 -0.3561  0.4468 -1.5841
  981MOL0     O32301   3.865   6.724   1.971  0.7058  0.5124  0.9297
  981MOL0     C32302   3.795   6.822   1.941 -0.0568 -0.4200  0.1100
  981MOL0     O32303   3.759   6.864   1.812 -0.1354 -0.3033 -0.1095
  981MOL0     C32304   3.731   6.768   1.706  0.2249 -1.3022  0.3112
  981MOL0     C32305   3.615   6.692   1.692 -0.7237  0.1809 -0.0707
  981MOL0     C32306   3.602   6.602   1.587 -0.0623 -0.2429  0.0079
  981MOL0     C32307   3.696   6.568   1.497 -0.1608  1.1023 -0.3843
  981MOL0     O32308   3.662   6.467   1.409  0.0364 -0.4881  0.2435
  981MOL0     C32309   3.770   6.408   1.337  0.0119 -0.8887 -0.2596
  981MOL0     C32310   3.722   6.279   1.264 -0.0604 -0.0342  0.1824
  981MOL0     C32311   3.650   6.326   1.145  0.1809 -0.3904  1.2382
  981MOL0     C32312   3.579   6.205   1.084 -0.3203 -0.5324 -0.0429
  981MOL0     C32313   3.497   6.258   0.959  1.0132  0.0809 -0.4321
  981MOL0     C32314   3.400   6.146   0.913  0.0546  0.2528 -0.1262
  981MOL0     C32315   3.295   6.196   0.807 -0.0055 -0.0763  0.0261
  981MOL0     C32316   3.151   6.143   0.822  0.9641  0.4233  0.3461
  981MOL0     N32317   3.125   6.040   0.726  0.2863  0.8936  0.1000
  981MOL0     C32318   3.079   6.081   0.608  0.5772  1.2584  0.0173
  981MOL0     C32319   3.028   5.960   0.554 -0.3618  0.5489 -0.5866
  981MOL0     C32320   2.962   5.916   0.423 -0.8708  0.7892  0.6859
  981MOL0     C32321   2.814   5.951   0.408 -0.4098 -0.0704 -0.1646
  981MOL0     C32322   2.792   6.102   0.392  0.1710  0.2401 -0.0366
  981MOL0     C32323   2.659   6.143   0.347  0.6158  0.1067 -0.2964
  981MOL0     O32324   2.665   6.273   0.278  0.0933  0.9554 -1.5408
  981MOL0     C32325   2.665   6.376   0.367 -0.4497 -1.1270  1.0476
  981MOL0     C32326   2.725   6.498   0.326  0.1764 -0.2156 -0.6388
  981MOL0     C32327   2.735   6.604   0.426  1.0105  0.0156  0.8918
  981MOL0     C32328   2.681   6.599   0.554  1.3681 -0.7931  0.6611
  981MOL0     C32329   2.683   6.715   0.646  0.8654  0.7415  0.1262
  981MOL0     O32330   2.691   6.687   0.787 -0.0849 -0.2013  0.5948
  981MOL0     C32331   2.731   6.786   0.872  1.2264 -0.1153  0.7431
  981MOL0     C32332   2.863   6.810   0.890 -0.9447 -0.1079 -0.8003
  981MOL0     C32333   2.900   6.924   0.964 -1.0254  0.4514  0.7916
  981MOL0     C32334   2.810   7.000   1.034 -0.0283 -0.1495 -0.0353
  981MOL0     O32335   2.855   7.097   1.122  0.5491 -0.4542  0.9917
  981MOL0     C32336   2.810   7.098   1.259 -0.7019  0.0461 -0.3978
  981MOL0     C32337   2.911   7.158   1.358  0.5632  0.3098 -0.0306
  981MOL0     C32338   3.031   7.067   1.369  0.6485 -0.8695 -0.3430
  981MOL0     C32339   3.146   7.150   1.435 -0.1389  0.5237  0.6161
  981MOL0     C32340   3.269   7.060   1.466 -0.6731 -0.5834 -0.2871
  981MOL0     C32341   3.385   7.160   1.470  0.7071 -0.4537  0.4044
  981MOL0     C32342   3.517   7.096   1.465 -0.1987  0.7215 -0.3914
  981MOL0     C32343   3.582   7.061   1.609 -0.6030  0.7179 -0.3900
  981MOL0    Cl32344   3.633   7.218   1.682  0.4403 -0.1833  0.1519
  981MOL0     C32345   2.681   6.979   1.007  0.2395  0.0985  0.2919
  981MOL0     C32346   2.635   6.878   0.919 -0.3795  0.4961 -0.6754
  981MOL0     O32347   2.697   6.832   0.594  0.4598 -0.4363  0.2548
  981MOL0     C32348   2.616   6.477   0.585 -0.3014 -0.5592 -0.3842
  981MOL0     C32349   2.606   6.372   0.494 -0.1869  0.1394  0.2517
  981MOL0     N32350   3.053   5.854   0.635  0.4472  0.0681 -0.3444
  981MOL0     N32351   3.111   5.909   0.740 -0.9758 -0.1196 -0.7368
  981MOL0     C32352   3.810   6.632   1.515 -0.3442 -0.5423 -0.5220
  981MOL0     C32353   3.831   6.728   1.620 -0.5211 -0.4854  0.2290
  981MOL0     C32354   3.753   6.894   2.059  0.1528  0.2398 -1.1939
  981MOL0     C32355   3.644   6.984   2.045  0.3611 -0.7279 -0.2865
  981MOL0     C32356   3.587   7.053   2.150  0.7927 -0.1183 -0.1146
  981MOL0     C32357   3.632   7.035   2.277 -0.1544 -0.1959 -0.6207
  981MOL0     O32358   3.566   7.090   2.384  0.5289  0.3261 -0.6590
  981MOL0     C32359   3.636   7.120   2.505 -0.0600  0.1635 -0.5354
  981MOL0     C32360   3.586   7.257   2.557  0.2247 -0.0017  0.7498
  981MOL0     C32361   3.640   7.371   2.469 -0.2472 -0.4560 -0.2274
  981MOL0     C32362   3.536   7.479   2.451  0.2010  0.7765  0.2816
  981MOL0     C32363   3.613   7.604   2.421  1.3702  0.5361 -0.4274
  981MOL0     C32364   3.689   7.695   2.394  0.5705  0.0486 -0.1594
  981MOL0     C32365   3.738   6.954   2.292 -0.9626  0.2975 -0.1780
  981MOL0     C32366   3.800   6.876   2.192 -0.3908 -0.1861 -0.7668
  981MOL0     C32367   3.912   6.793   2.229 -0.6209 -0.5452 -0.0688
  981MOL0     H32368   3.538   6.703   1.767  2.0644  1.6275  2.8188
  981MOL0     H32369   3.506   6.553   1.577 -0.6528  1.0431 -0.9557
  981MOL0     H32370   3.812   6.487   1.274 -1.0535  0.2066  0.3663
  981MOL0     H32371   3.841   6.382   1.415  0.8249  0.7262 -0.4139
  981MOL0     H32372   3.659   6.215   1.325 -2.5534 -0.9975 -3.1246
  981MOL0     H32373   3.809   6.223   1.229 -1.0964 -1.1202 -0.7288
  981MOL0     H32374   3.717   6.385   1.082 -2.0395 -0.0220 -0.9653
  981MOL0     H32375   3.575   6.395   1.185  0.8251 -0.0498  1.8737
  981MOL0     H32376   3.651   6.124   1.064  0.1505 -0.1214 -0.0451
  981MOL0     H32377   3.515   6.167   1.163 -3.0618 -0.3829 -2.0706
  981MOL0     H32378   3.450   6.352   0.987  0.4163 -0.7114  1.3293
  981MOL0     H32379   3.554   6.285   0.869  1.2590  1.7407  0.1948
  981MOL0     H32380   3.443   6.057   0.864  1.6688  1.4788 -1.0563
  981MOL0     H32381   3.347   6.114   1.002  0.6597  2.8597  1.2705
  981MOL0     H32382   3.341   6.177   0.709 -2.3638 -2.5757 -0.7137
  981MOL0     H32383   3.279   6.302   0.828 -2.5839 -0.6643  1.3594
  981MOL0     H32384   3.142   6.086   0.916  1.4375 -1.4995 -0.7189
  981MOL0     H32385   3.081   6.226   0.813  0.1344 -0.1234  1.4248
  981MOL0     H32386   3.065   6.180   0.565  0.2071  0.9179 -0.6565
  981MOL0     H32387   3.021   5.966   0.345  0.3230  0.1152  1.1177
  981MOL0     H32388   2.963   5.807   0.413  2.5011  0.7990 -0.3997
  981MOL0     H32389   2.787   5.901   0.314 -4.6650  0.3083  0.6848
  981MOL0     H32390   2.764   5.899   0.490  1.2852  0.4124  1.2338
  981MOL0     H32391   2.864   6.150   0.326  2.3160 -0.2975  1.8086
  981MOL0     H32392   2.805   6.136   0.495 -0.5084 -0.9154  0.4619
  981MOL0     H32393   2.578   6.124   0.418 -1.6003 -0.6621 -2.8555
  981MOL0     H32394   2.634   6.077   0.263  0.0623  1.4031 -1.1921
  981MOL0     H32395   2.780   6.509   0.234  2.1389  1.5637  0.6409
  981MOL0     H32396   2.781   6.692   0.383  2.2982 -2.3401 -3.0448
  981MOL0     H32397   2.934   6.761   0.825 -1.4923 -0.5793 -1.0503
  981MOL0     H32398   3.007   6.942   0.960 -0.5668 -1.4186  2.7402
  981MOL0     H32399   2.718   7.158   1.267 -0.8614 -0.3668  1.2020
  981MOL0     H32400   2.783   7.000   1.298  0.5440 -0.4155 -0.6529
  981MOL0     H32401   2.925   7.256   1.312 -1.3505  0.8572  0.4664
  981MOL0     H32402   2.880   7.187   1.459  0.1721  0.7465 -0.2723
  981MOL0     H32403   3.000   6.985   1.434  0.0446 -1.7729 -1.7240
  981MOL0     H32404   3.053   7.019   1.273  1.9643 -0.0057 -0.5098
  981MOL0     H32405   3.089   7.171   1.526  1.3872  0.8600  1.5266
  981MOL0     H32406   3.184   7.234   1.375  2.9519 -1.3655 -0.3088
  981MOL0     H32407   3.281   6.979   1.393  1.6206  0.5734 -1.2821
  981MOL0     H32408   3.263   7.016   1.566 -0.9441 -2.5301 -1.1143
  981MOL0     H32409   3.384   7.237   1.392  1.3059  2.3950  2.9996
  981MOL0     H32410   3.372   7.215   1.564 -0.5184  0.1362 -0.0906
  981MOL0     H32411   3.584   7.155   1.402 -1.3622  1.0038 -1.3712
  981MOL0     H32412   3.502   7.000   1.415  1.1650 -0.1836  0.8365
  981MOL0     H32413   3.517   6.998   1.671  0.1171  1.3943  1.0961
  981MOL0     H32414   3.665   7.000   1.574 -2.7624 -0.6540 -3.6050
  981MOL0     H32415   2.605   7.039   1.055 -0.3825  0.1986 -0.7876
  981MOL0     H32416   2.531   6.848   0.919 -0.1915 -0.3398 -2.7491
  981MOL0     H32417   2.562   6.459   0.677 -0.2350 -0.4063 -0.3167
  981MOL0     H32418   2.543   6.293   0.533  2.2599 -1.4498  1.1952
  981MOL0     H32419   3.901   6.611   1.459  1.1524  1.6035  0.9636
  981MOL0     H32420   3.927   6.774   1.642 -0.6672  0.0122 -0.1347
  981MOL0     H32421   3.595   7.013   1.953 -1.9252  2.5522  1.7396
  981MOL0     H32422   3.498   7.114   2.136 -1.3440 -2.7179  1.3574
  981MOL0     H32423   3.742   7.139   2.487  0.0010  1.7191  1.2667
  981MOL0     H32424   3.644   7.038   2.576  0.0320 -0.0422 -0.7801
  981MOL0     H32425   3.608   7.256   2.664  1.6057  0.2251  0.4891
  981MOL0     H32426   3.479   7.243   2.543  0.7939 -3.2956 -1.7050
  981MOL0     H32427   3.677   7.346   2.369 -0.8971 -3.2128  0.1571
  981MOL0     H32428   3.717   7.417   2.531  0.0664  1.0873 -1.6764
  981MOL0     H32429   3.467   7.462   2.368  2.4920 -0.7501 -1.4214
  981MOL0     H32430   3.472   7.502   2.537  0.2484  0.7148  0.3325
  981MOL0     H32431   3.780   7.746   2.372  1.5703 -1.1466  1.0247
  981MOL0     H32432   3.767   6.940   2.396 -0.3463 -0.3380 -0.4268
  981MOL0     H32433   3.995   6.788   2.158 -1.1330  1.5945 -0.8780
  981MOL0     H32434   3.951   6.840   2.320 -3.8088  2.5055 -0.0442
  981MOL0     H32435   3.872   6.698   2.266 -0.7666 -0.6246 -0.4316
  982MOL0     O32436   2.622   3.630   3.074  0.4013 -0.6700  0.2944
  982MOL0     C32437   2.666   3.745   3.088  0.1839 -0.0431 -0.1208
  982MOL0     O32438   2.781   3.777   3.165  1.1473  0.2606 -0.1758
  982MOL0     C32439   2.815   3.695   3.270  0.2383 -0.9023 -0.1363
  982MOL0     C32440   2.720   3.624   3.344  0.0953  0.5419  0.3421
  982MOL0     C32441   2.766   3.566   3.464 -0.1706  0.5813 -0.0747
  982MOL0     C32442   2.904   3.564   3.499 -0.5213  0.0809 -0.3009
  982MOL0     O32443   2.932   3.491   3.613  0.3502 -0.8003  0.8280
  982MOL0     C32444   3.058   3.494   3.675 -0.3334  0.2993  0.0956
  982MOL0     C32445   3.048   3.418   3.807  1.2438  0.3341 -0.2610
  982MOL0     C32446   2.993   3.274   3.787  1.2495  0.6194  0.4087
  982MOL0     C32447   3.028   3.187   3.921 -0.1445 -0.0144  0.4038
  982MOL0     C32448   2.985   3.044   3.885 -0.4577 -0.4018 -0.2275
  982MOL0     C32449   2.823   3.043   3.869 -0.1746 -0.4030 -0.4379
  982MOL0     C32450   2.781   2.899   3.883  0.2594 -0.4741 -0.1524
  982MOL0     C32451   2.631   2.884   3.844  0.3622  0.2181 -0.2143
  982MOL0     N32452   2.583   2.745   3.865  0.3271  0.1994 -0.1758
  982MOL0     C32453   2.510   2.684   3.964  0.7103  0.3902 -0.5850
  982MOL0     C32454   2.516   2.551   3.940  0.0131  0.7485 -0.4558
  982MOL0     C32455   2.466   2.452   4.040 -0.6343  0.0638  0.1246
  982MOL0     C32456   2.327   2.488   4.080 -0.6514  0.1026 -0.2865
  982MOL0     C32457   2.214   2.483   3.970 -0.4684  0.9192 -0.8954
  982MOL0     C32458   2.083   2.541   4.019  0.2828 -0.5042 -0.5478
  982MOL0     O32459   2.101   2.660   4.092  0.0924 -0.3208 -0.0575
  982MOL0     C32460   2.132   2.775   4.027 -0.5540  0.1018 -0.3326
  982MOL0     C32461   2.128   2.811   3.898  0.3396  0.4989  0.9206
  982MOL0     C32462   2.176   2.934   3.854 -0.8544 -0.6813  0.0033
  982MOL0     C32463   2.239   3.030   3.947  0.5635  0.8809 -0.2565
  982MOL0     C32464   2.302   3.153   3.899  0.1326  0.1062  0.2238
  982MOL0     O32465   2.380   3.216   3.987 -0.5117 -0.3060 -0.1764
  982MOL0     C32466   2.427   3.333   3.938 -0.3619  0.2055  1.5034
  982MOL0     C32467   2.353   3.446   3.895  0.3798 -0.1768  0.4285
  982MOL0     C32468   2.413   3.560   3.836  0.0676 -0.0542  1.4115
  982MOL0     C32469   2.551   3.573   3.827 -1.2912 -1.3475  0.6448
  982MOL0     O32470   2.623   3.675   3.757  0.4854  0.0258 -0.6198
  982MOL0     C32471   2.543   3.789   3.721 -0.1407 -0.4530  0.2569
  982MOL0     C32472   2.649   3.898   3.678  0.6217 -0.7579 -0.1742
  982MOL0     C32473   2.575   4.008   3.597 -0.7243  0.3878 -0.2084
  982MOL0     C32474   2.621   4.140   3.651 -0.2201 -0.2006  0.4465
  982MOL0     C32475   2.589   4.259   3.564  0.2541  0.0577 -1.1502
  982MOL0     C32476   2.478   4.350   3.629 -1.0368  0.4727  0.8371
  982MOL0     C32477   2.338   4.282   3.661 -0.1302  0.1846 -0.3475
  982MOL0     C32478   2.268   4.246   3.534 -0.3760  0.6269  0.6809
  982MOL0    Cl32479   2.122   4.149   3.548  0.5523  0.6469 -0.1146
  982MOL0     C32480   2.629   3.469   3.890  0.6720  0.5808  0.0874
  982MOL0     C32481   2.568   3.348   3.936  0.2580  0.2673 -0.6064
  982MOL0     O32482   2.275   3.185   3.780  0.1362 -1.0215 -0.1101
  982MOL0     C32483   2.238   2.987   4.079  0.3248  0.3446  0.1675
  982MOL0     C32484   2.181   2.864   4.121 -0.9216  0.0309 -0.2454
  982MOL0     N32485   2.593   2.536   3.829 -0.3137  0.3491  0.3818
  982MOL0     N32486   2.624   2.652   3.775 -0.0512  1.0091 -0.0369
  982MOL0     C32487   3.006   3.634   3.427  1.3371  0.8609 -0.0376
  982MOL0     C32488   2.955   3.695   3.314 -0.2949 -1.2519  0.3277
  982MOL0     C32489   2.597   3.861   3.017  0.3567 -0.1667 -0.1921
  982MOL0     C32490   2.676   3.982   3.007 -0.3196  0.4310  0.0970
  982MOL0     C32491   2.627   4.085   2.929 -0.7852 -0.6677 -0.2284
  982MOL0     C32492   2.501   4.087   2.864  0.1440 -0.1365 -0.2914
  982MOL0     O32493   2.449   4.185   2.786 -1.2941 -0.0014  0.2676
  982MOL0     C32494   2.512   4.312   2.778 -0.5640 -0.0391 -0.8864
  982MOL0     C32495   2.563   4.337   2.633 -0.4084  0.2074 -0.3758
  982MOL0     C32496   2.669   4.456   2.623  0.3732  0.7920 -0.0878
  982MOL0     C32497   2.713   4.467   2.474 -0.6587  1.2147  0.4076
  982MOL0     C32498   2.803   4.579   2.455 -0.1894  0.2916 -0.4524
  982MOL0     C32499   2.901   4.644   2.445 -0.4024 -0.7169 -0.3866
  982MOL0     C32500   2.427   3.972   2.872  0.7986 -0.1572 -0.1383
  982MOL0     C32501   2.475   3.855   2.944  0.8890 -0.4302  0.0415
  982MOL0     C32502   2.378   3.735   2.937 -0.5083 -0.8316 -0.1812
  982MOL0     H32503   2.613   3.627   3.325 -0.1342  0.4268  1.5314
  982MOL0     H32504   2.699   3.506   3.526  0.3006 -2.0377 -1.9018
  982MOL0     H32505   3.145   3.473   3.612  1.1963  2.0986  1.4945
  982MOL0     H32506   3.087   3.594   3.707  0.8583  0.4634 -1.3974
  982MOL0     H32507   2.975   3.468   3.871 -0.8110 -0.7551 -1.6398
  982MOL0     H32508   3.147   3.405   3.852  0.6848 -0.6211  0.7540
  982MOL0     H32509   3.053   3.226   3.709  1.6417  0.6749  0.6748
  982MOL0     H32510   2.886   3.279   3.763  1.5673 -1.5686 -1.8903
  982MOL0     H32511   3.136   3.193   3.932 -0.0229  1.1562 -1.0803
  982MOL0     H32512   2.985   3.229   4.013  1.5479  0.6785  0.9225
  982MOL0     H32513   3.034   2.994   3.801  1.4398  0.9067  0.0270
  982MOL0     H32514   3.003   2.989   3.978  1.3448  1.1061  0.3852
  982MOL0     H32515   2.766   3.089   3.950 -1.7855 -2.2630 -0.4270
  982MOL0     H32516   2.792   3.088   3.774  0.7444 -0.1474 -0.6206
  982MOL0     H32517   2.804   2.873   3.987 -0.1158  0.3224  0.1306
  982MOL0     H32518   2.837   2.832   3.818  0.0117  0.0378 -0.8997
  982MOL0     H32519   2.573   2.964   3.891  0.6294 -0.2579  0.9527
  982MOL0     H32520   2.614   2.919   3.742  0.0773  1.2498  0.1740
  982MOL0     H32521   2.473   2.728   4.057  2.3946 -2.4499  1.5959
  982MOL0     H32522   2.471   2.352   3.994 -0.3807 -0.1584  0.6345
  982MOL0     H32523   2.534   2.434   4.123 -0.7165 -4.4709 -0.4958
  982MOL0     H32524   2.298   2.426   4.166  0.7114  0.2991  0.3522
  982MOL0     H32525   2.335   2.589   4.121 -0.0737 -0.1114  0.1489
  982MOL0     H32526   2.208   2.377   3.941 -2.9254  0.9485 -0.7383
  982MOL0     H32527   2.243   2.545   3.885 -1.6720  2.1812 -0.4139
  982MOL0     H32528   2.027   2.473   4.085  0.0514 -0.4764 -0.7166
  982MOL0     H32529   2.010   2.558   3.940 -0.7410  2.0058  0.8309
  982MOL0     H32530   2.071   2.751   3.828 -1.3340  1.3391  1.5123
  982MOL0     H32531   2.157   2.962   3.751 -3.4969  2.3889  1.1452
  982MOL0     H32532   2.247   3.429   3.911  0.6034 -1.1791  0.9415
  982MOL0     H32533   2.357   3.640   3.789 -0.4600 -1.1593  0.0911
  982MOL0     H32534   2.473   3.768   3.639 -1.3749 -1.2687  1.4694
  982MOL0     H32535   2.472   3.825   3.795  0.4876  0.4856  0.4130
  982MOL0     H32536   2.712   3.919   3.765  1.3278 -2.1162 -0.3167
  982MOL0     H32537   2.712   3.853   3.600 -0.7425  3.6212 -4.2886
  982MOL0     H32538   2.595   3.995   3.491  2.0563 -1.0979  0.4069
  982MOL0     H32539   2.468   4.004   3.618 -0.9151 -3.0449 -1.3925
  982MOL0     H32540   2.730   4.140   3.654 -0.2293  0.3078  2.4767
  982MOL0     H32541   2.578   4.147   3.751 -1.6522 -2.3861  0.0377
  982MOL0     H32542   2.556   4.238   3.462 -2.5705 -1.4860 -0.0444
  982MOL0     H32543   2.681   4.319   3.558 -0.6596  1.8202  1.0872
  982MOL0     H32544   2.522   4.411   3.709 -0.0219  2.2296 -0.9724
  982MOL0     H32545   2.474   4.430   3.554  3.3441  1.2198  1.1334
  982MOL0     H32546   2.274   4.351   3.715  0.8131  0.6676  0.1798
  982MOL0     H32547   2.343   4.189   3.719  3.4211  0.7810  0.5346
  982MOL0     H32548   2.265   4.336   3.471  1.1678 -0.2862 -0.7792
  982MOL0     H32549   2.342   4.185   3.481 -2.0996 -0.1572 -0.9758
  982MOL0     H32550   2.736   3.484   3.886  0.4524  2.2951 -0.8401
  982MOL0     H32551   2.639   3.278   3.976  1.0436  2.3643  1.9587
  982MOL0     H32552   2.268   3.060   4.154 -2.2438  1.4156  0.2694
  982MOL0     H32553   2.186   2.851   4.229  0.6545  2.3739  0.0430
  982MOL0     H32554   3.108   3.648   3.460  1.0571  0.7128  0.9306
  982MOL0     H32555   3.021   3.765   3.263 -1.2212  0.3566  1.2294
  982MOL0     H32556   2.758   4.000   3.076 -0.2055  1.6569 -0.3261
  982MOL0     H32557   2.691   4.171   2.910 -1.9337 -0.1066 -1.8108
  982MOL0     H32558   2.599   4.324   2.844 -1.9713 -1.0710  1.2782
  982MOL0     H32559   2.441   4.393   2.798  1.6266  1.6254  0.6827
  982MOL0     H32560   2.489   4.354   2.554  0.5504 -3.2690 -2.2337
  982MOL0     H32561   2.619   4.248   2.602  2.0519  0.4910  2.7611
  982MOL0     H32562   2.752   4.440   2.692  0.1847 -0.9137 -0.2176
  982MOL0     H32563   2.625   4.551   2.654  2.7416  1.7025  0.7495
  982MOL0     H32564   2.764   4.375   2.444  1.9693  1.0858  4.4579
  982MOL0     H32565   2.618   4.487   2.422 -1.4418 -1.8581  0.4619
  982MOL0     H32566   2.985   4.710   2.437 -0.9646  0.0869  0.2274
  982MOL0     H32567   2.341   3.961   2.806  0.6265  0.5277 -0.0346
  982MOL0     H32568   2.432   3.642   2.917  1.4995  0.3764 -0.7009
  982MOL0     H32569   2.331   3.719   3.035  1.8601  0.9916  1.3623
  982MOL0     H32570   2.299   3.759   2.866  0.1825  1.9016 -0.1210
  983MOL0     O32571   0.852  11.318   2.988 -0.7902 -0.8317 -0.1034
  983MOL0     C32572   0.806  11.289   2.884 -0.1751  0.0631  0.9821
  983MOL0     O32573   0.818  11.360   2.771 -0.4144 -0.0681  0.2165
  983MOL0     C32574   0.900  11.476   2.759  0.3847 -0.5899 -0.8229
  983MOL0     C32575   0.995  11.521   2.853  0.3851  0.2136 -0.6252
  983MOL0     C32576   1.081  11.627   2.816 -0.2786  0.0021 -0.5301
  983MOL0     C32577   1.073  11.684   2.692  0.2149  0.4392  0.0175
  983MOL0     O32578   1.159  11.788   2.678  0.6778  0.7664 -0.9549
  983MOL0     C32579   1.218  11.816   2.553 -0.4070  1.1565  0.9738
  983MOL0     C32580   1.351  11.884   2.584 -0.0339 -0.2948  0.2410
  983MOL0     C32581   1.429  11.888   2.441 -0.1661  0.8218 -0.8389
  983MOL0     C32582   1.571  11.927   2.472  0.1700  0.5338 -0.9741
  983MOL0     C32583   1.641  11.973   2.338 -0.0799  0.6995 -0.6198
  983MOL0     C32584   1.796  11.988   2.353  0.1685 -0.2897 -0.2554
  983MOL0     C32585   1.865  12.063   2.224  0.1949 -0.7076  0.1033
  983MOL0     C32586   1.912  11.980   2.111 -0.5323 -0.2631 -0.2065
  983MOL0     N32587   2.032  11.904   2.154 -0.0065  0.6961  0.2236
  983MOL0     C32588   2.159  11.930   2.113  0.4154 -0.3668 -0.7007
  983MOL0     C32589   2.229  11.829   2.159 -0.3044  0.5222  0.1778
  983MOL0     C32590   2.379  11.816   2.145 -0.2376  0.3477  0.4278
  983MOL0     C32591   2.413  11.686   2.080 -0.4490  0.2666 -0.1822
  983MOL0     C32592   2.345  11.662   1.944 -0.1383  0.1421 -0.5017
  983MOL0     C32593   2.436  11.567   1.854 -0.1485 -0.0835 -0.1960
  983MOL0     O32594   2.468  11.446   1.925  0.4991  0.1835 -0.0283
  983MOL0     C32595   2.556  11.357   1.876  0.1554  0.2619  0.1047
  983MOL0     C32596   2.598  11.242   1.953 -0.7818 -0.2694 -0.4652
  983MOL0     C32597   2.676  11.146   1.891  0.1882 -0.6935 -0.1615
  983MOL0     C32598   2.682  11.138   1.755 -0.4248  0.9180 -0.8281
  983MOL0     C32599   2.753  11.015   1.693 -0.2467 -0.4117  0.5559
  983MOL0     O32600   2.815  11.039   1.562  0.4905 -0.2421 -0.2820
  983MOL0     C32601   2.858  10.924   1.496 -1.2636 -0.3499 -0.0724
  983MOL0     C32602   2.766  10.826   1.449  0.1933  0.5783  1.1420
  983MOL0     C32603   2.812  10.698   1.397  0.3081  0.3868  0.5652
  983MOL0     C32604   2.948  10.685   1.380 -1.1630  0.2884  0.3878
  983MOL0     O32605   3.014  10.573   1.321  0.4196 -0.4367 -0.1127
  983MOL0     C32606   2.936  10.475   1.241 -0.4643 -0.9472  1.2199
  983MOL0     C32607   2.998  10.336   1.251  0.2652 -0.8596  0.3759
  983MOL0     C32608   3.010  10.310   1.396  0.6188 -0.4448  0.3788
  983MOL0     C32609   3.044  10.155   1.405  0.0586 -0.7736  0.6193
  983MOL0     C32610   3.092  10.113   1.546  0.1248  0.3272  0.1599
  983MOL0     C32611   3.128   9.966   1.537  0.3418 -0.1445  0.1633
  983MOL0     C32612   3.181   9.929   1.674 -0.0094  1.4046 -0.2234
  983MOL0     C32613   3.318   9.877   1.670 -0.3566  0.3834  0.2236
  983MOL0    Cl32614   3.345   9.734   1.562 -0.4778  0.2707 -0.0607
  983MOL0     C32615   3.036  10.777   1.430 -1.2720 -0.8958  0.4462
  983MOL0     C32616   2.997  10.897   1.489  0.7296  0.7989  0.3531
  983MOL0     O32617   2.763  10.908   1.753  0.2602 -0.7088  0.1277
  983MOL0     C32618   2.642  11.244   1.675  0.0658 -0.4412 -0.6672
  983MOL0     C32619   2.582  11.357   1.739  0.9077  0.3867 -0.6228
  983MOL0     N32620   2.150  11.737   2.224 -0.0846 -0.1672  0.6911
  983MOL0     N32621   2.037  11.784   2.228 -1.1516 -0.0085 -0.1087
  983MOL0     C32622   0.981  11.642   2.597 -0.1236  0.1104  0.4186
  983MOL0     C32623   0.891  11.541   2.633 -0.2977  0.6497 -0.7042
  983MOL0     C32624   0.726  11.168   2.880 -0.2808 -1.1679 -0.8567
  983MOL0     C32625   0.635  11.154   2.775 -0.4573  0.0045 -0.0898
  983MOL0     C32626   0.556  11.041   2.744 -1.0127  0.7035  0.3694
  983MOL0     C32627   0.570  10.941   2.839 -0.0902  0.9743  0.2357
  983MOL0     O32628   0.502  10.819   2.840 -0.5590  0.1849  0.2659
  983MOL0     C32629   0.401  10.786   2.737 -0.0625 -0.0632  0.0491
  983MOL0     C32630   0.267  10.837   2.778 -0.6318  0.8648  0.2191
  983MOL0     C32631   0.204  10.765   2.906  0.0843  0.4390  0.3360
  983MOL0     C32632   0.097  10.662   2.859  0.0517 -0.2292  0.4471
  983MOL0     C32633   0.151  10.536   2.807 -1.4324  0.5814 -0.1395
  983MOL0     C32634   0.191  10.430   2.766 -0.5684  0.1424 -0.9431
  983MOL0     C32635   0.666  10.945   2.942 -0.6319 -0.5855  0.1164
  983MOL0     C32636   0.741  11.059   2.970  0.3530 -0.5024 -0.9617
  983MOL0     C32637   0.823  11.042   3.090 -1.2995 -0.7881  0.4209
  983MOL0     H32638   1.009  11.483   2.954 -1.4475 -0.9460 -0.7641
  983MOL0     H32639   1.140  11.677   2.892 -5.9369 -0.9605  5.3406
  983MOL0     H32640   1.228  11.719   2.504 -3.0478  0.3175  1.9168
  983MOL0     H32641   1.160  11.883   2.489 -1.3556  1.6524  2.3051
  983MOL0     H32642   1.415  11.843   2.664 -1.5575  1.8342  2.7012
  983MOL0     H32643   1.353  11.987   2.619 -0.7987 -0.4646  0.8163
  983MOL0     H32644   1.397  11.970   2.376  2.6310  0.4612 -2.8716
  983MOL0     H32645   1.431  11.804   2.370  0.6805  1.4110 -1.5416
  983MOL0     H32646   1.581  11.998   2.555  2.0123 -1.5118  0.6858
  983MOL0     H32647   1.623  11.835   2.500 -2.0092 -1.2852 -2.5494
  983MOL0     H32648   1.627  11.890   2.268  0.3680 -1.3900  1.6294
  983MOL0     H32649   1.602  12.071   2.311 -0.5699  0.7089  0.1073
  983MOL0     H32650   1.816  12.053   2.439 -1.4761  0.5543 -0.4589
  983MOL0     H32651   1.844  11.894   2.379 -1.9598 -0.4063  4.0928
  983MOL0     H32652   1.960  12.111   2.252 -0.0108  0.0297 -0.4334
  983MOL0     H32653   1.810  12.146   2.179  1.3207  0.0302  0.0436
  983MOL0     H32654   1.828  11.918   2.080  0.7627 -1.0221 -2.4310
  983MOL0     H32655   1.943  12.039   2.024 -1.4837 -1.9429 -1.7477
  983MOL0     H32656   2.209  12.010   2.059  0.4636  0.4967  0.5647
  983MOL0     H32657   2.421  11.897   2.084  1.8034 -2.6152 -2.4426
  983MOL0     H32658   2.436  11.822   2.239 -1.4682 -0.1171  1.2271
  983MOL0     H32659   2.517  11.688   2.047 -0.1624 -0.0051  0.6670
  983MOL0     H32660   2.394  11.596   2.140 -4.4405  1.1075  0.0849
  983MOL0     H32661   2.327  11.764   1.908 -2.3343 -0.8499 -2.5000
  983MOL0     H32662   2.243  11.625   1.962 -1.7527  3.6382 -1.5451
  983MOL0     H32663   2.521  11.624   1.816 -1.0450  0.8749 -0.8157
  983MOL0     H32664   2.380  11.554   1.761 -1.9148  3.5110  0.1796
  983MOL0     H32665   2.596  11.239   2.061 -1.6030  0.2031 -0.4626
  983MOL0     H32666   2.718  11.072   1.958 -1.5803 -0.0260  1.7932
  983MOL0     H32667   2.663  10.844   1.477  0.4427 -2.1067  4.4981
  983MOL0     H32668   2.738  10.620   1.376 -1.1028  2.0638 -0.9553
  983MOL0     H32669   2.838  10.463   1.288  0.3900 -2.9752  2.6360
  983MOL0     H32670   2.931  10.507   1.137  2.3210 -2.1866  0.6102
  983MOL0     H32671   2.922  10.265   1.219 -0.0043 -2.2825  3.7334
  983MOL0     H32672   3.094  10.324   1.200  2.8891 -3.6043  5.1673
  983MOL0     H32673   3.093  10.370   1.434  0.4378  0.9510 -1.2794
  983MOL0     H32674   2.919  10.339   1.450  0.5345 -1.8766  1.0509
  983MOL0     H32675   3.124  10.131   1.335  2.7375  1.0631  2.8229
  983MOL0     H32676   2.954  10.094   1.394  0.1268 -0.6765 -0.5786
  983MOL0     H32677   3.025  10.121   1.632  1.2379 -0.1026  1.0878
  983MOL0     H32678   3.179  10.174   1.568  0.1187  1.1591 -1.9130
  983MOL0     H32679   3.032   9.916   1.521 -0.1900  0.5786  0.9772
  983MOL0     H32680   3.198   9.948   1.455  0.7890  0.3165  0.4326
  983MOL0     H32681   3.125   9.842   1.711  0.0171  1.3444 -0.3237
  983MOL0     H32682   3.168  10.006   1.751  3.4100  1.7488  0.1658
  983MOL0     H32683   3.383   9.957   1.635  1.6781 -1.7270 -1.1509
  983MOL0     H32684   3.346   9.843   1.771 -2.2549 -4.8805 -0.7212
  983MOL0     H32685   3.138  10.739   1.423 -0.5503 -0.6681  5.5577
  983MOL0     H32686   3.059  10.968   1.544 -1.8719  2.4140  1.3879
  983MOL0     H32687   2.666  11.256   1.570  1.5964  3.0150 -0.0707
  983MOL0     H32688   2.553  11.437   1.672  2.9000  1.1706 -0.6387
  983MOL0     H32689   0.970  11.685   2.498 -0.7691 -0.4964  0.2103
  983MOL0     H32690   0.814  11.486   2.579 -0.6497 -1.2033  1.5211
  983MOL0     H32691   0.621  11.237   2.706  0.0776  0.4019  0.2723
  983MOL0     H32692   0.496  11.047   2.654 -1.6030  0.0710  0.7115
  983MOL0     H32693   0.408  10.679   2.719 -1.0999 -0.1256 -0.0038
  983MOL0     H32694   0.437  10.824   2.641 -0.9983 -3.3329 -1.7415
  983MOL0     H32695   0.207  10.822   2.688 -0.4893 -3.2904  0.6280
  983MOL0     H32696   0.275  10.945   2.788  1.1073  0.7073  0.8623
  983MOL0     H32697   0.156  10.834   2.975 -2.2182 -3.6553  3.3097
  983MOL0     H32698   0.283  10.726   2.971  1.7718  2.5478 -0.3363
  983MOL0     H32699   0.033  10.646   2.946  2.1956 -2.0769  1.7927
  983MOL0     H32700   0.031  10.704   2.783 -2.5912 -1.7969  1.7628
  983MOL0     H32701   0.222  10.334   2.729  0.5365  0.3445 -0.5850
  983MOL0     H32702   0.679  10.861   3.009  2.8503  1.5006  2.4086
  983MOL0     H32703   0.830  10.936   3.115 -2.3485 -0.9012  0.3020
  983MOL0     H32704   0.928  11.067   3.074 -0.9740 -2.3405 -0.0581
  983MOL0     H32705   0.782  11.104   3.171 -0.2538  1.8369 -0.9436
  984MOL0     O32706   4.617   9.935   6.767  0.3795  0.0609  0.3203
  984MOL0     C32707   4.567   9.925   6.880 -0.0379  0.9758  0.0030
  984MOL0     O32708   4.640   9.893   6.996 -0.2344 -0.0042 -0.4993
  984MOL0     C32709   4.773   9.852   6.985 -0.5319 -0.0360  0.3334
  984MOL0     C32710   4.819   9.747   6.915  0.2558 -0.1111 -0.1201
  984MOL0     C32711   4.957   9.724   6.915 -0.1487 -0.6930  0.2272
  984MOL0     C32712   5.047   9.814   6.987  0.4372  0.0817 -0.4255
  984MOL0     O32713   5.189   9.806   6.978 -0.7062 -0.3542 -0.7702
  984MOL0     C32714   5.260   9.779   6.860  0.5941 -1.1908  0.9357
  984MOL0     C32715   5.351   9.893   6.806 -0.8584 -0.1059 -0.5726
  984MOL0     C32716   5.451   9.836   6.706  0.7356 -0.3783  0.3741
  984MOL0     C32717   5.580   9.788   6.765  0.7079  0.4099 -0.1624
  984MOL0     C32718   5.673   9.763   6.636 -0.3784 -0.4418  0.2854
  984MOL0     C32719   5.825   9.724   6.663 -0.6778  0.1748  0.7760
  984MOL0     C32720   5.909   9.846   6.707 -0.0392 -0.3829 -0.7262
  984MOL0     C32721   6.057   9.814   6.722 -0.8585 -0.8095  0.0287
  984MOL0     N32722   6.108   9.748   6.596  1.0773 -0.1959 -0.4544
  984MOL0     C32723   6.133   9.808   6.476  0.0189 -0.1616 -0.8531
  984MOL0     C32724   6.188   9.708   6.398 -0.1107 -0.8884 -1.0055
  984MOL0     C32725   6.239   9.738   6.262 -0.0799  0.6439  1.3516
  984MOL0     C32726   6.125   9.772   6.166  0.3856 -0.3290 -0.0696
  984MOL0     C32727   6.137   9.917   6.145 -0.1067  1.1145  1.5917
  984MOL0     C32728   6.022   9.969   6.064  0.0860 -0.2134  0.3432
  984MOL0     O32729   5.888   9.948   6.111 -0.3206 -0.5565 -0.3851
  984MOL0     C32730   5.795   9.965   6.010  0.0755 -0.3363 -0.3603
  984MOL0     C32731   5.742   9.849   5.968 -0.1298 -0.0892 -0.6835
  984MOL0     C32732   5.645   9.852   5.871 -0.2781 -0.3281 -0.7410
  984MOL0     C32733   5.613   9.975   5.808  0.1412  0.5097  0.0276
  984MOL0     C32734   5.516   9.985   5.697 -0.5776 -0.6126 -0.2391
  984MOL0     O32735   5.460  10.106   5.681 -0.2013  0.2801  0.2621
  984MOL0     C32736   5.339  10.128   5.627  0.1729 -0.1714 -0.7584
  984MOL0     C32737   5.230  10.031   5.609 -0.6102 -0.5481 -0.9593
  984MOL0     C32738   5.105  10.066   5.548  0.3080 -0.7614 -0.4682
  984MOL0     C32739   5.085  10.198   5.511  0.8134  0.4257  0.8585
  984MOL0     O32740   4.966  10.227   5.446  0.3418 -0.1369 -0.3173
  984MOL0     C32741   4.923  10.366   5.463  0.5240 -0.1934 -0.2308
  984MOL0     C32742   4.770  10.363   5.427  0.4628 -0.1825  0.2124
  984MOL0     C32743   4.676  10.353   5.542  0.3252 -0.4963 -0.3682
  984MOL0     C32744   4.534  10.311   5.497  0.6845  0.0050  0.5286
  984MOL0     C32745   4.449  10.276   5.614  0.9107  0.5637 -0.3891
  984MOL0     C32746   4.316  10.219   5.575 -0.1738 -1.0809 -0.3304
  984MOL0     C32747   4.217  10.244   5.682  0.9366  0.7113  0.1041
  984MOL0     C32748   4.081  10.180   5.639 -0.9062 -0.2809  1.0266
  984MOL0    Cl32749   4.098  10.024   5.567  0.3848 -0.0152 -0.7631
  984MOL0     C32750   5.190  10.288   5.534 -0.2051 -0.0184 -1.0093
  984MOL0     C32751   5.318  10.258   5.580 -0.1611  0.1179 -0.6208
  984MOL0     O32752   5.492   9.886   5.626 -0.3890  0.1544 -0.1685
  984MOL0     C32753   5.675  10.084   5.853 -0.6340 -0.3257  0.1216
  984MOL0     C32754   5.763  10.092   5.954 -0.4832  1.2576 -0.4532
  984MOL0     N32755   6.180   9.592   6.464  0.0931  0.3640  0.9233
  984MOL0     N32756   6.127   9.616   6.577 -0.5178 -0.8839  0.0328
  984MOL0     C32757   4.999   9.913   7.056 -0.6705 -0.6353 -0.6105
  984MOL0     C32758   4.858   9.940   7.057 -0.2813 -0.1720 -0.6849
  984MOL0     C32759   4.421   9.933   6.903 -2.1043  0.5949  1.8741
  984MOL0     C32760   4.379   9.872   7.022  0.2932  0.8927  0.3843
  984MOL0     C32761   4.244   9.893   7.062 -0.8337  0.8835 -0.0831
  984MOL0     C32762   4.146   9.962   6.973 -0.0249 -0.2628  0.5011
  984MOL0     O32763   4.015   9.985   7.011  0.2716  0.1262 -0.1036
  984MOL0     C32764   3.972  10.122   7.021 -0.5620 -1.2093  1.0028
  984MOL0     C32765   3.882  10.132   7.146  0.5896  0.5062 -0.7938
  984MOL0     C32766   3.943  10.067   7.271  0.6656  0.0135  0.0718
  984MOL0     C32767   3.967  10.162   7.383  0.0247  0.8129  0.9643
  984MOL0     C32768   4.072  10.269   7.368  0.8024  0.5286  0.3567
  984MOL0     C32769   4.121  10.377   7.344  0.2262 -0.0490 -0.3315
  984MOL0     C32770   4.198  10.017   6.858  1.0695 -0.0316  0.5265
  984MOL0     C32771   4.328   9.993   6.813  0.1388 -0.1193  0.6959
  984MOL0     C32772   4.353  10.035   6.671 -0.6180 -0.8022 -0.0063
  984MOL0     H32773   4.750   9.685   6.860 -0.9161  0.6051  0.5072
  984MOL0     H32774   5.001   9.639   6.864  2.9397  1.5480 -1.1621
  984MOL0     H32775   5.318   9.687   6.873  2.4454 -0.2312 -0.1721
  984MOL0     H32776   5.184   9.772   6.782  1.6866  1.8200 -0.5775
  984MOL0     H32777   5.409   9.927   6.892  1.8076 -3.7319 -0.7012
  984MOL0     H32778   5.293   9.976   6.766  0.3965  1.1878  0.1986
  984MOL0     H32779   5.471   9.929   6.653 -0.4287 -0.1820  0.2544
  984MOL0     H32780   5.409   9.756   6.644  0.9983 -2.6031  2.8368
  984MOL0     H32781   5.619   9.866   6.832  0.5559 -1.6259  2.4968
  984MOL0     H32782   5.566   9.695   6.821  3.8722 -1.2882 -1.8980
  984MOL0     H32783   5.634   9.679   6.578  1.6457  0.5114 -2.6462
  984MOL0     H32784   5.681   9.848   6.568  0.6418 -2.1280 -1.8122
  984MOL0     H32785   5.838   9.647   6.740  0.2155  0.7770  1.2483
  984MOL0     H32786   5.860   9.681   6.569  0.1269  1.0604  0.6581
  984MOL0     H32787   5.876   9.872   6.808  0.5011 -2.6130  0.0893
  984MOL0     H32788   5.911   9.923   6.630 -0.9163 -0.5740 -0.9484
  984MOL0     H32789   6.127   9.894   6.749  1.4804 -1.5721 -3.1166
  984MOL0     H32790   6.071   9.749   6.808  0.1682  2.5352  2.6094
  984MOL0     H32791   6.110   9.911   6.449 -0.3008  0.2742  0.9375
  984MOL0     H32792   6.317   9.815   6.258 -0.1167  0.7003  1.6864
  984MOL0     H32793   6.294   9.646   6.239 -0.7115  0.3007  1.2142
  984MOL0     H32794   6.138   9.707   6.079  2.6480 -4.0269  2.7451
  984MOL0     H32795   6.031   9.758   6.219 -1.0614  4.2365 -0.9925
  984MOL0     H32796   6.225   9.940   6.085 -1.4808  1.2396 -0.5123
  984MOL0     H32797   6.149   9.972   6.239  0.7312  1.7627  1.1124
  984MOL0     H32798   6.022   9.915   5.968 -0.4743  1.4149 -0.6181
  984MOL0     H32799   6.033  10.076   6.043  0.5191 -0.0609  1.3264
  984MOL0     H32800   5.777   9.765   6.027  2.9971  0.1123 -2.1037
  984MOL0     H32801   5.600   9.758   5.840 -1.4830 -0.0449  0.0456
  984MOL0     H32802   5.255   9.937   5.656 -0.1353 -0.4254 -0.9572
  984MOL0     H32803   5.042   9.980   5.526  0.3598 -1.1696  0.8677
  984MOL0     H32804   4.941  10.421   5.556 -1.1071 -0.4846  0.2827
  984MOL0     H32805   4.969  10.431   5.387  0.3843  1.0391  0.6959
  984MOL0     H32806   4.739  10.460   5.389  0.8614  0.0206  0.4041
  984MOL0     H32807   4.729  10.286   5.359 -2.0909  1.6822 -0.5102
  984MOL0     H32808   4.710  10.285   5.621 -1.6316  1.4895  2.3912
  984MOL0     H32809   4.662  10.449   5.594  1.5238 -0.7429  0.4659
  984MOL0     H32810   4.534  10.226   5.429 -1.4381  0.9581 -0.7799
  984MOL0     H32811   4.487  10.392   5.441 -0.6693 -0.8599  0.3542
  984MOL0     H32812   4.430  10.365   5.675 -1.0044 -0.1932  0.1972
  984MOL0     H32813   4.479  10.186   5.668 -2.4079 -2.6433 -3.2972
  984MOL0     H32814   4.283  10.275   5.488  4.3940  3.7410  0.5146
  984MOL0     H32815   4.318  10.116   5.539 -0.3613 -0.7742 -1.2249
  984MOL0     H32816   4.197  10.351   5.689 -0.8541  0.3972  0.4185
  984MOL0     H32817   4.243  10.189   5.773 -2.2811 -1.4531 -0.0911
  984MOL0     H32818   4.018  10.178   5.728 -2.6124  0.0679 -0.1352
  984MOL0     H32819   4.028  10.243   5.568 -0.1982 -0.3751  0.4026
  984MOL0     H32820   5.181  10.389   5.493  0.0627  1.3519  2.0160
  984MOL0     H32821   5.394  10.334   5.565 -0.6849  0.6950 -0.4008
  984MOL0     H32822   5.647  10.180   5.809  0.6152  1.7129  3.3893
  984MOL0     H32823   5.807  10.190   5.967  0.6017  0.9487 -1.5538
  984MOL0     H32824   5.071   9.987   7.089 -2.0473  0.9515 -1.0068
  984MOL0     H32825   4.811  10.023   7.108 -3.0951  0.1805 -3.5755
  984MOL0     H32826   4.455   9.839   7.092  1.2674  4.2370  1.0767
  984MOL0     H32827   4.209   9.850   7.156  0.3184 -0.5549 -0.2827
  984MOL0     H32828   3.918  10.148   6.929  0.4534 -0.5632  0.5808
  984MOL0     H32829   4.057  10.190   7.033  1.0656 -1.9388 -3.8556
  984MOL0     H32830   3.787  10.090   7.110  0.3534 -0.3410  0.7087
  984MOL0     H32831   3.870  10.239   7.163  2.6589  0.9323 -1.6900
  984MOL0     H32832   4.038  10.014   7.262  1.2339  0.2430  3.5263
  984MOL0     H32833   3.860  10.003   7.304 -0.1391  1.0127  0.0484
  984MOL0     H32834   3.874  10.215   7.408  1.6013  3.2817  1.9848
  984MOL0     H32835   4.003  10.105   7.469 -0.7476 -1.3357 -0.0527
  984MOL0     H32836   4.174  10.470   7.339  2.3296 -1.1410  0.3112
  984MOL0     H32837   4.121  10.062   6.796 -0.5429 -0.0998  2.3956
  984MOL0     H32838   4.345   9.946   6.609  1.5418 -0.7714 -0.4300
  984MOL0     H32839   4.283  10.110   6.633  0.6923  1.2482  1.3989
  984MOL0     H32840   4.455  10.076   6.662 -0.9756 -0.2912 -2.9931
  985MOL0     O32841   1.941   6.762   4.063  0.3711 -0.1651 -0.2526
  985MOL0     C32842   1.842   6.806   4.123  0.8309  0.1120 -0.3045
  985MOL0     O32843   1.838   6.911   4.212  0.1842 -0.7009  0.1006
  985MOL0     C32844   1.944   6.974   4.256  0.2858  0.2763  0.1979
  985MOL0     C32845   2.079   6.933   4.254  0.0599 -0.1044  1.4903
  985MOL0     C32846   2.178   7.028   4.294  0.2811  0.3813  0.0925
  985MOL0     C32847   2.139   7.129   4.374  0.3247 -0.3849  1.2985
  985MOL0     O32848   2.218   7.218   4.448 -0.6039 -0.3784  0.2835
  985MOL0     C32849   2.359   7.194   4.437 -0.5333  0.3976 -0.2819
  985MOL0     C32850   2.437   7.284   4.525  0.9901 -0.0693 -0.0823
  985MOL0     C32851   2.389   7.297   4.670  0.6879 -0.4251 -0.3054
  985MOL0     C32852   2.503   7.365   4.749 -0.4549  0.6615  0.1477
  985MOL0     C32853   2.481   7.515   4.786 -0.7001 -0.4609  0.7701
  985MOL0     C32854   2.351   7.545   4.863  0.6251  0.6519 -0.2309
  985MOL0     C32855   2.385   7.527   5.014  0.3251 -0.3987 -0.3740
  985MOL0     C32856   2.266   7.539   5.115 -0.6020  0.2251  0.1454
  985MOL0     N32857   2.162   7.439   5.085 -0.1832  0.1742  0.6586
  985MOL0     C32858   2.179   7.307   5.041  0.3271 -0.4174  0.4004
  985MOL0     C32859   2.048   7.262   5.015  0.0117 -0.2512  0.4906
  985MOL0     C32860   2.002   7.141   4.948  0.6709 -0.6089  0.6768
  985MOL0     C32861   1.941   7.173   4.807 -0.5478  0.4827  0.7306
  985MOL0     C32862   1.799   7.233   4.804  0.6154 -0.7423  0.3813
  985MOL0     C32863   1.692   7.152   4.884  0.1922  0.9761  0.9006
  985MOL0     O32864   1.557   7.186   4.848 -0.1417  0.1989 -0.2740
  985MOL0     C32865   1.485   7.162   4.736  0.3706  0.0863  0.2194
  985MOL0     C32866   1.508   7.046   4.664  0.2381 -0.4801  0.0956
  985MOL0     C32867   1.416   7.015   4.558  0.1188 -0.6991 -0.9267
  985MOL0     C32868   1.305   7.105   4.530 -0.0622  0.6682 -1.2384
  985MOL0     C32869   1.206   7.063   4.432 -0.0331 -0.0691  0.4389
  985MOL0     O32870   1.105   7.151   4.403 -0.5639  0.2759 -0.0715
  985MOL0     C32871   0.996   7.108   4.325  0.0113 -0.2812 -0.2247
  985MOL0     C32872   0.952   6.969   4.328  0.4513 -0.4818  0.5957
  985MOL0     C32873   0.852   6.927   4.251  0.8076 -0.5622  0.5175
  985MOL0     C32874   0.783   7.014   4.163  0.0567  0.4381  0.2138
  985MOL0     O32875   0.676   6.968   4.091  0.4312 -0.1899  0.1217
  985MOL0     C32876   0.637   7.040   3.978  0.0372  0.8610 -0.0960
  985MOL0     C32877   0.526   6.966   3.895 -0.3220  0.1376 -0.4995
  985MOL0     C32878   0.572   6.823   3.854 -0.4101  1.1117  0.5563
  985MOL0     C32879   0.450   6.726   3.830  0.9733 -0.6986 -0.7576
  985MOL0     C32880   0.500   6.583   3.818  0.4133 -0.7176 -0.4807
  985MOL0     C32881   0.375   6.503   3.807  0.9895  0.1723  0.3447
  985MOL0     C32882   0.405   6.354   3.812 -0.7387 -0.2628  0.3666
  985MOL0     C32883   0.499   6.309   3.704  0.6975  0.1749  0.1569
  985MOL0    Cl32884   0.424   6.307   3.543 -0.3095 -0.3738 -0.0343
  985MOL0     C32885   0.824   7.147   4.164 -0.2750 -0.2063  1.0359
  985MOL0     C32886   0.936   7.197   4.239  1.1498 -0.5537  0.0276
  985MOL0     O32887   1.222   6.953   4.368  0.3890  0.5782  0.0373
  985MOL0     C32888   1.287   7.217   4.613 -0.3717 -0.7251  0.6257
  985MOL0     C32889   1.379   7.245   4.712 -0.2436 -0.6731 -0.3272
  985MOL0     N32890   1.963   7.364   5.054  0.1217 -0.5318 -0.7760
  985MOL0     N32891   2.028   7.467   5.090 -0.1172  0.5382 -0.0779
  985MOL0     C32892   2.005   7.165   4.388 -0.2073  0.3875 -0.0845
  985MOL0     C32893   1.910   7.093   4.326  0.2625  0.4225 -0.1047
  985MOL0     C32894   1.709   6.747   4.106  0.0136  1.0420  0.4321
  985MOL0     C32895   1.596   6.825   4.153 -0.3892 -0.1802 -0.0282
  985MOL0     C32896   1.462   6.782   4.170 -0.3706 -0.6017 -0.5268
  985MOL0     C32897   1.443   6.657   4.124  0.4676  0.6640  0.7674
  985MOL0     O32898   1.322   6.599   4.106 -0.4927 -0.3155 -0.1424
  985MOL0     C32899   1.208   6.661   4.170  0.4695  0.5832  0.5508
  985MOL0     C32900   1.089   6.568   4.118  0.3053  0.3898 -0.2698
  985MOL0     C32901   1.070   6.587   3.970 -0.0196  0.6841  0.2075
  985MOL0     C32902   0.925   6.625   3.941 -0.2510  0.5051  0.4704
  985MOL0     C32903   0.914   6.648   3.789 -0.8298  0.3943 -1.2445
  985MOL0     C32904   0.898   6.688   3.676 -0.9537 -0.5931  0.8610
  985MOL0     C32905   1.550   6.576   4.071  0.6760  0.2886  0.5748
  985MOL0     C32906   1.682   6.613   4.062 -0.2577 -0.0036 -0.0301
  985MOL0     C32907   1.784   6.518   3.986  0.8475 -1.1806  0.1033
  985MOL0     H32908   2.112   6.843   4.203  1.6434 -0.0967  2.4378
  985MOL0     H32909   2.283   7.010   4.277  0.1192  0.8582 -1.5270
  985MOL0     H32910   2.368   7.087   4.459 -3.3965  0.1183 -0.0345
  985MOL0     H32911   2.392   7.209   4.334  3.2322 -2.2865  0.3381
  985MOL0     H32912   2.450   7.385   4.485  2.1736  0.1170  0.7094
  985MOL0     H32913   2.541   7.249   4.527  0.8107 -0.5924  1.4888
  985MOL0     H32914   2.393   7.194   4.705  1.1391 -0.0970  0.6366
  985MOL0     H32915   2.290   7.343   4.676 -0.9786 -3.3629 -2.5821
  985MOL0     H32916   2.507   7.312   4.844 -2.3307  2.2280  1.1540
  985MOL0     H32917   2.599   7.345   4.700 -1.4421  0.7069 -1.9445
  985MOL0     H32918   2.568   7.558   4.835 -1.6142  1.2987  0.9176
  985MOL0     H32919   2.484   7.568   4.690 -2.0332  0.7758  1.3705
  985MOL0     H32920   2.322   7.649   4.844  3.2124  1.3697 -0.6711
  985MOL0     H32921   2.268   7.484   4.828 -0.6527  1.3368  1.4732
  985MOL0     H32922   2.462   7.601   5.035 -0.0661 -0.6230  2.2121
  985MOL0     H32923   2.418   7.423   5.016 -2.7431 -1.4805  0.4742
  985MOL0     H32924   2.300   7.523   5.218  0.4719 -0.8115 -0.3563
  985MOL0     H32925   2.230   7.642   5.107  0.0915  0.3277 -2.1464
  985MOL0     H32926   2.263   7.247   5.006  0.3179  0.9217 -2.1130
  985MOL0     H32927   2.088   7.076   4.925 -0.6833 -2.4982  0.7228
  985MOL0     H32928   1.933   7.087   5.012 -2.3250  1.1303 -0.8716
  985MOL0     H32929   2.006   7.247   4.760  1.1589 -1.2341  0.2540
  985MOL0     H32930   1.926   7.082   4.749 -2.6079 -0.4564  2.5929
  985MOL0     H32931   1.775   7.227   4.698  5.1617 -1.6175 -0.8279
  985MOL0     H32932   1.800   7.338   4.833  0.6943 -0.8724  0.8731
  985MOL0     H32933   1.704   7.155   4.992  1.1928 -1.9151  0.9619
  985MOL0     H32934   1.697   7.047   4.853  1.8380  1.9197 -2.5248
  985MOL0     H32935   1.594   6.981   4.677 -1.0261 -2.3853 -0.7472
  985MOL0     H32936   1.436   6.925   4.500  0.7753 -0.4884 -1.0428
  985MOL0     H32937   1.002   6.902   4.397 -1.6057 -0.0732  2.5700
  985MOL0     H32938   0.816   6.825   4.237  0.6650 -0.4401 -0.0095
  985MOL0     H32939   0.599   7.133   4.021 -0.8145  0.5901 -0.2441
  985MOL0     H32940   0.724   7.046   3.913 -1.6545  0.3299 -2.5541
  985MOL0     H32941   0.445   6.949   3.966  1.8925  0.5040  2.3127
  985MOL0     H32942   0.506   7.022   3.803  3.1084  0.9527 -0.8794
  985MOL0     H32943   0.626   6.826   3.760 -0.4292  1.1996  0.5479
  985MOL0     H32944   0.642   6.775   3.923  1.7874  1.6050 -1.2462
  985MOL0     H32945   0.407   6.765   3.737  2.8671  1.4343 -0.8317
  985MOL0     H32946   0.378   6.734   3.912 -1.2600 -1.6254 -2.5330
  985MOL0     H32947   0.547   6.543   3.909 -1.4823 -0.5815  0.6074
  985MOL0     H32948   0.575   6.562   3.741  1.5061 -0.6506  0.5492
  985MOL0     H32949   0.304   6.530   3.885 -1.4204  0.0149 -1.6756
  985MOL0     H32950   0.330   6.527   3.710  4.0385 -0.8033 -1.4552
  985MOL0     H32951   0.313   6.297   3.798 -1.2312  0.6287 -0.1725
  985MOL0     H32952   0.446   6.340   3.913  0.3514  2.0536  0.3190
  985MOL0     H32953   0.589   6.371   3.695  1.1308 -0.5393 -0.6090
  985MOL0     H32954   0.537   6.208   3.723 -2.7231 -1.0169  1.5780
  985MOL0     H32955   0.789   7.211   4.084 -2.0298 -3.2809 -0.8890
  985MOL0     H32956   0.970   7.298   4.222 -1.7923  0.6001  0.5074
  985MOL0     H32957   1.197   7.278   4.611  0.4726  0.6515  2.0780
  985MOL0     H32958   1.369   7.332   4.776 -2.8108 -2.2942  1.6963
  985MOL0     H32959   1.980   7.246   4.455  1.7165 -1.4860  3.1659
  985MOL0     H32960   1.805   7.116   4.339  0.3034  0.5964 -0.0737
  985MOL0     H32961   1.603   6.923   4.199 -2.6844  0.7700 -1.5004
  985MOL0     H32962   1.384   6.848   4.206  3.3125  2.7600  2.1996
  985MOL0     H32963   1.193   6.762   4.133  2.0991  0.4629 -0.5675
  985MOL0     H32964   1.207   6.683   4.277 -0.5626  0.7430  0.5147
  985MOL0     H32965   1.003   6.601   4.177  1.5305 -0.6704  2.2658
  985MOL0     H32966   1.121   6.465   4.134  1.5161  0.8178  0.1493
  985MOL0     H32967   1.102   6.497   3.917 -2.3746 -1.3631  2.0100
  985MOL0     H32968   1.126   6.674   3.934 -2.8552  2.9028  0.8085
  985MOL0     H32969   0.861   6.544   3.978 -0.2928  0.9268  1.3361
  985MOL0     H32970   0.901   6.716   3.996 -0.4184 -1.2586  3.5153
  985MOL0     H32971   0.886   6.714   3.573 -2.5463  0.3502  1.2513
  985MOL0     H32972   1.513   6.483   4.028  0.0337 -0.5241  2.7180
  985MOL0     H32973   1.802   6.552   3.884  1.8576 -1.7698  0.0716
  985MOL0     H32974   1.877   6.519   4.042 -0.8718  1.0713  3.2726
  985MOL0     H32975   1.740   6.418   3.985 -1.9298 -0.1209  2.0349
  986MOL0     O32976   9.222   5.568   7.562  0.0310  0.0199 -0.1041
  986MOL0     C32977   9.153   5.530   7.656 -0.5783 -0.3899 -0.5627
  986MOL0     O32978   9.021   5.548   7.668  0.1234 -0.5184  1.1748
  986MOL0     C32979   8.952   5.581   7.548 -0.1160 -0.6068 -0.5001
  986MOL0     C32980   8.853   5.507   7.493  0.0894  0.7166  0.6082
  986MOL0     C32981   8.785   5.545   7.372  0.1654  0.2428 -0.7927
  986MOL0     C32982   8.798   5.671   7.329 -0.3326  0.8897 -0.4103
  986MOL0     O32983   8.720   5.705   7.229 -0.3811  0.4557  0.2486
  986MOL0     C32984   8.784   5.802   7.137  0.2620 -0.4372  0.7507
  986MOL0     C32985   8.695   5.816   7.009 -0.1536 -1.1523  0.2137
  986MOL0     C32986   8.718   5.940   6.929 -0.1831 -0.2380 -0.2751
  986MOL0     C32987   8.647   5.935   6.789 -0.1777  0.1268 -0.0165
  986MOL0     C32988   8.637   6.081   6.733 -0.2465  0.8078 -0.1073
  986MOL0     C32989   8.547   6.066   6.610  0.4194  0.1625 -0.0517
  986MOL0     C32990   8.549   6.193   6.526  0.9235  0.4783 -0.4440
  986MOL0     C32991   8.452   6.192   6.412 -0.1854  0.5501  0.1126
  986MOL0     N32992   8.310   6.173   6.459 -0.2491  0.2983  0.1233
  986MOL0     C32993   8.220   6.104   6.386  0.6123  1.4695  0.4326
  986MOL0     C32994   8.103   6.134   6.450 -0.4957 -1.3188 -0.2517
  986MOL0     C32995   7.970   6.085   6.408 -0.5523 -0.0267 -0.5379
  986MOL0     C32996   7.965   5.928   6.428 -0.3530  0.4105 -0.1299
  986MOL0     C32997   7.833   5.867   6.379  0.1803 -0.4444  0.7311
  986MOL0     C32998   7.826   5.721   6.436 -0.1554  0.2076  0.5257
  986MOL0     O32999   7.693   5.685   6.468 -0.8526  0.2924 -0.2226
  986MOL0     C33000   7.586   5.685   6.382 -0.2302 -0.4017  0.8404
  986MOL0     C33001   7.455   5.658   6.431 -0.5208 -0.8090  0.1048
  986MOL0     C33002   7.351   5.675   6.338  0.5765  0.6994  0.1524
  986MOL0     C33003   7.363   5.710   6.197 -0.8775 -0.4381 -0.3306
  986MOL0     C33004   7.255   5.743   6.107 -0.6254  0.4455 -0.2061
  986MOL0     O33005   7.148   5.799   6.171 -0.0296  0.6070  0.5327
  986MOL0     C33006   7.042   5.831   6.103  1.4814  0.4163 -0.1815
  986MOL0     C33007   6.953   5.741   6.042  0.2659 -0.1354 -0.0615
  986MOL0     C33008   6.845   5.781   5.964  0.3485  0.1712 -0.0054
  986MOL0     C33009   6.801   5.917   5.971 -0.8462 -0.0937 -0.3883
  986MOL0     O33010   6.695   5.964   5.904 -0.2563  0.0490  0.5090
  986MOL0     C33011   6.672   5.930   5.765 -0.2118 -0.2110 -0.1664
  986MOL0     C33012   6.754   6.015   5.671 -0.1933  1.4272 -0.5065
  986MOL0     C33013   6.760   6.173   5.704  0.2309  0.1104 -0.0611
  986MOL0     C33014   6.624   6.235   5.700  0.2206  1.0350  0.4827
  986MOL0     C33015   6.573   6.257   5.557 -0.0103  0.1998 -0.0101
  986MOL0     C33016   6.437   6.330   5.552  0.1900 -0.6798 -0.3233
  986MOL0     C33017   6.396   6.353   5.411  0.7971 -0.6517 -0.5634
  986MOL0     C33018   6.270   6.431   5.404  0.2675  0.1810 -0.7216
  986MOL0    Cl33019   6.138   6.310   5.399 -0.3373 -0.2293 -0.5214
  986MOL0     C33020   6.872   6.007   6.050 -0.0835 -0.4644 -0.6212
  986MOL0     C33021   6.992   5.968   6.106  0.0289  0.5503  0.1365
  986MOL0     O33022   7.261   5.725   5.988  1.4826 -0.3346  0.9320
  986MOL0     C33023   7.500   5.714   6.145  0.4926  0.3618 -0.2383
  986MOL0     C33024   7.605   5.709   6.245  0.6527  0.2682  0.1924
  986MOL0     N33025   8.125   6.231   6.542 -0.0528  0.0054  0.4161
  986MOL0     N33026   8.248   6.255   6.548  0.1018  0.4079 -0.4469
  986MOL0     C33027   8.876   5.759   7.406 -0.5162  0.0221 -0.0190
  986MOL0     C33028   8.969   5.711   7.506 -0.2806 -0.1769  0.0250
  986MOL0     C33029   9.224   5.434   7.749 -0.7588 -0.4214  0.1146
  986MOL0     C33030   9.331   5.349   7.693  0.3773 -1.0583 -0.6317
  986MOL0     C33031   9.396   5.254   7.777  0.1274 -0.1605 -1.1910
  986MOL0     C33032   9.359   5.241   7.913 -0.1562 -0.1518 -0.2388
  986MOL0     O33033   9.409   5.144   7.996  0.3353 -0.2964 -0.0543
  986MOL0     C33034   9.468   5.030   7.932 -0.4999  0.5273 -0.4290
  986MOL0     C33035   9.376   4.950   7.830 -0.3789 -0.0982 -0.3385
  986MOL0     C33036   9.445   4.860   7.731  0.7480  0.4724 -0.9178
  986MOL0     C33037   9.474   4.721   7.794 -0.8715 -0.4756 -0.3685
  986MOL0     C33038   9.560   4.733   7.912  1.1036  0.0975  0.0537
  986MOL0     C33039   9.626   4.729   8.015  0.6526  0.2504  0.1803
  986MOL0     C33040   9.262   5.327   7.963 -0.4378 -0.4451 -0.4558
  986MOL0     C33041   9.201   5.426   7.880 -0.0236  0.3420 -0.2630
  986MOL0     C33042   9.103   5.521   7.962 -0.2417 -0.7018 -0.3795
  986MOL0     H33043   8.806   5.430   7.554 -4.1945  0.9903 -1.9065
  986MOL0     H33044   8.700   5.489   7.335  0.0288 -1.4031  1.7783
  986MOL0     H33045   8.786   5.898   7.189  1.3295  0.1005 -0.2613
  986MOL0     H33046   8.885   5.777   7.105  1.1836  3.0501  0.5727
  986MOL0     H33047   8.589   5.819   7.035 -0.0207  3.3073  1.0278
  986MOL0     H33048   8.716   5.728   6.947  2.2744 -0.0718 -0.6322
  986MOL0     H33049   8.826   5.953   6.912 -0.6225  3.1052 -1.3872
  986MOL0     H33050   8.687   6.024   6.992 -0.5417  1.4877 -2.5936
  986MOL0     H33051   8.702   5.877   6.715 -3.2728 -1.1440 -1.4737
  986MOL0     H33052   8.551   5.884   6.794  0.8826 -1.8356  1.2061
  986MOL0     H33053   8.579   6.147   6.798 -1.2881 -3.4808  3.8984
  986MOL0     H33054   8.735   6.128   6.720 -0.2755  1.8358  2.6543
  986MOL0     H33055   8.583   5.980   6.552 -1.8050 -1.1056  0.3293
  986MOL0     H33056   8.445   6.032   6.628  0.1122 -0.8374 -3.0860
  986MOL0     H33057   8.650   6.216   6.490  1.8082 -3.5206 -0.9961
  986MOL0     H33058   8.522   6.277   6.591 -1.2744 -1.9073  1.9173
  986MOL0     H33059   8.458   6.282   6.349  1.5643 -1.6201 -3.1149
  986MOL0     H33060   8.479   6.112   6.343 -4.6711 -0.9605 -0.1830
  986MOL0     H33061   8.218   6.042   6.297 -0.6620  2.9873 -0.6708
  986MOL0     H33062   7.891   6.147   6.451  1.0910  1.6969  0.1151
  986MOL0     H33063   7.960   6.107   6.302 -2.2360  0.9138 -0.2289
  986MOL0     H33064   8.046   5.892   6.364 -1.3412 -0.5070 -0.9012
  986MOL0     H33065   7.979   5.921   6.537  0.0088 -3.0040 -0.2989
  986MOL0     H33066   7.820   5.867   6.270  0.6793 -1.5909  0.6515
  986MOL0     H33067   7.752   5.931   6.415  0.6485  2.1379 -2.2901
  986MOL0     H33068   7.886   5.706   6.526  1.8587 -0.6684 -0.8603
  986MOL0     H33069   7.872   5.647   6.369  2.8808  1.1703  1.3554
  986MOL0     H33070   7.443   5.623   6.534  1.6488 -3.0058 -0.2934
  986MOL0     H33071   7.251   5.652   6.375  1.0723 -4.6648 -0.9749
  986MOL0     H33072   6.964   5.633   6.037 -5.0517 -0.8928 -3.2677
  986MOL0     H33073   6.775   5.710   5.922 -1.0447  1.8128 -0.5683
  986MOL0     H33074   6.685   5.823   5.748 -0.3755 -0.5125  1.3968
  986MOL0     H33075   6.564   5.945   5.759 -1.4025 -5.2319  2.6618
  986MOL0     H33076   6.855   5.976   5.684 -0.0328  2.3705  1.3967
  986MOL0     H33077   6.715   5.998   5.570 -2.3645  0.1181  0.4906
  986MOL0     H33078   6.797   6.189   5.805 -0.6664 -2.8029  0.8505
  986MOL0     H33079   6.819   6.231   5.632 -1.1769  1.0958 -0.4477
  986MOL0     H33080   6.629   6.334   5.748 -2.9211  1.6187 -0.1884
  986MOL0     H33081   6.557   6.171   5.758  2.6323 -0.7514  1.4583
  986MOL0     H33082   6.556   6.159   5.510 -3.1263  0.2345  0.8348
  986MOL0     H33083   6.646   6.321   5.507 -0.4609 -0.0924 -1.0731
  986MOL0     H33084   6.358   6.271   5.600 -0.2559 -0.3917 -0.6927
  986MOL0     H33085   6.456   6.418   5.615  0.2091 -0.9304  0.0255
  986MOL0     H33086   6.373   6.256   5.366 -1.8448 -1.7157  2.7033
  986MOL0     H33087   6.473   6.412   5.360  1.9432 -0.4128  1.3573
  986MOL0     H33088   6.265   6.502   5.487 -1.2625  2.0001 -2.2703
  986MOL0     H33089   6.268   6.485   5.309 -0.6820 -0.2925 -0.9871
  986MOL0     H33090   6.835   6.107   6.070 -0.1930 -0.7571  0.7296
  986MOL0     H33091   7.051   6.044   6.156  2.5053 -0.0197 -1.7184
  986MOL0     H33092   7.516   5.759   6.047 -4.3644  2.6301 -0.2710
  986MOL0     H33093   7.700   5.735   6.200  1.4524  0.9351  2.1389
  986MOL0     H33094   8.885   5.861   7.370  0.6076  0.3177  1.0114
  986MOL0     H33095   9.035   5.781   7.556 -1.5922  0.1713  1.3723
  986MOL0     H33096   9.347   5.353   7.586  1.6162  0.7458 -0.4203
  986MOL0     H33097   9.476   5.196   7.732 -1.3883 -3.1301 -0.2386
  986MOL0     H33098   9.504   4.964   8.012 -1.0526 -1.8615 -2.0369
  986MOL0     H33099   9.557   5.066   7.880  1.9818  0.9086  3.6755
  986MOL0     H33100   9.311   5.016   7.773  2.1329 -0.3559 -3.7881
  986MOL0     H33101   9.315   4.882   7.890  1.9792  0.0205  2.4210
  986MOL0     H33102   9.532   4.912   7.690  2.1991 -0.6581  0.5926
  986MOL0     H33103   9.377   4.850   7.646 -3.4481 -1.0756  2.2335
  986MOL0     H33104   9.373   4.689   7.822 -1.5980  0.7165 -1.5019
  986MOL0     H33105   9.516   4.649   7.723 -1.4682 -1.3907  0.1958
  986MOL0     H33106   9.703   4.724   8.090  0.5460 -0.6903  0.2330
  986MOL0     H33107   9.248   5.313   8.070 -1.4052 -1.1778 -0.6713
  986MOL0     H33108   9.051   5.466   8.041  2.4701  0.9203  2.7993
  986MOL0     H33109   9.167   5.600   8.001  0.0772 -0.0564 -2.1158
  986MOL0     H33110   9.025   5.576   7.909 -0.9223  2.6491  3.6329
  987MOL0     O33111   1.600   1.146  10.627  0.0421  0.3845  0.7182
  987MOL0     C33112   1.574   1.208  10.524  0.1721 -0.0738 -0.7112
  987MOL0     O33113   1.581   1.160  10.389 -0.2610 -0.4682 -1.6612
  987MOL0     C33114   1.695   1.101  10.355 -0.6524  0.0517  0.3943
  987MOL0     C33115   1.819   1.128  10.419  0.0467 -0.6832  0.1406
  987MOL0     C33116   1.943   1.065  10.382 -0.2151 -1.0474 -0.1894
  987MOL0     C33117   1.939   0.979  10.273  0.0892 -0.3417 -0.1872
  987MOL0     O33118   2.057   0.920  10.232 -0.2668  0.3969 -0.3222
  987MOL0     C33119   2.058   0.771  10.215  0.4728 -0.9229  0.5803
  987MOL0     C33120   2.191   0.734  10.168  0.1147 -0.4063  0.0259
  987MOL0     C33121   2.256   0.658  10.281  0.2721  0.3189 -1.6405
  987MOL0     C33122   2.405   0.659  10.278 -0.4796  0.3896  0.8777
  987MOL0     C33123   2.487   0.554  10.362  0.5913  0.2011 -0.2492
  987MOL0     C33124   2.434   0.408  10.339 -0.2379 -0.1745  0.8269
  987MOL0     C33125   2.496   0.314  10.450  0.4418 -0.1409  0.2698
  987MOL0     C33126   2.647   0.291  10.433  0.3916 -0.0901  0.4082
  987MOL0     N33127   2.690   0.175  10.506  0.7233 -0.3022  0.7410
  987MOL0     C33128   2.729   0.059  10.448  0.0723  1.1786 -0.1272
  987MOL0     C33129   2.786  -0.012  10.547  0.0334  0.5431  0.3435
  987MOL0     C33130   2.864  -0.134  10.531 -0.9616 -0.8011  0.7918
  987MOL0     C33131   2.767  -0.255  10.523 -0.5169 -0.4121 -0.7935
  987MOL0     C33132   2.851  -0.385  10.536 -0.1363  0.1856 -0.0558
  987MOL0     C33133   2.759  -0.507  10.573  0.5210 -0.6796  0.2820
  987MOL0     O33134   2.823  -0.626  10.588  0.6528 -0.9985 -0.8069
  987MOL0     C33135   2.746  -0.724  10.630  0.4641 -0.3610 -0.5404
  987MOL0     C33136   2.806  -0.847  10.641  0.4434 -0.3930 -0.3686
  987MOL0     C33137   2.728  -0.961  10.674 -0.1578  0.0093 -0.2466
  987MOL0     C33138   2.597  -0.947  10.708 -0.5898 -1.1044  0.4160
  987MOL0     C33139   2.514  -1.064  10.720 -0.5977  0.6398 -0.0826
  987MOL0     O33140   2.376  -1.053  10.730  0.0819  0.3039  0.3645
  987MOL0     C33141   2.318  -1.146  10.819  0.3960  0.2724  0.8541
  987MOL0     C33142   2.262  -1.120  10.950  0.0836  0.3345 -0.3101
  987MOL0     C33143   2.207  -1.232  11.021  0.3668 -0.2376  0.2709
  987MOL0     C33144   2.175  -1.351  10.959 -1.4629  0.0269 -0.5385
  987MOL0     O33145   2.103  -1.440  11.037  0.2498 -0.2537  0.1630
  987MOL0     C33146   2.045  -1.557  10.989  0.0113 -0.1122 -0.4042
  987MOL0     C33147   1.928  -1.548  10.900  1.2940 -0.3673 -0.1292
  987MOL0     C33148   1.891  -1.655  10.800  0.7899  0.5635  0.0964
  987MOL0     C33149   1.974  -1.665  10.671  0.6394  0.0647 -0.3408
  987MOL0     C33150   1.933  -1.764  10.569 -0.8392  0.7557 -0.8481
  987MOL0     C33151   2.001  -1.759  10.433 -0.1719 -0.2402  0.1540
  987MOL0     C33152   2.153  -1.776  10.441 -0.5627  0.6582 -0.3246
  987MOL0     C33153   2.207  -1.914  10.464 -0.2993  0.0247  0.1471
  987MOL0    Cl33154   2.382  -1.927  10.419  0.0977 -0.4526 -0.6184
  987MOL0     C33155   2.206  -1.367  10.827 -0.2821 -0.6637 -0.5807
  987MOL0     C33156   2.290  -1.274  10.759  0.0784  0.6815 -0.1220
  987MOL0     O33157   2.575  -1.174  10.725  0.0023 -1.0346  0.2503
  987MOL0     C33158   2.535  -0.818  10.711 -0.1284  0.6242 -0.3082
  987MOL0     C33159   2.609  -0.706  10.662 -0.2393 -1.1760  0.5598
  987MOL0     N33160   2.778   0.054  10.664 -0.1813 -0.5154  0.6472
  987MOL0     N33161   2.719   0.166  10.641  0.4381 -0.5760 -0.4945
  987MOL0     C33162   1.811   0.943  10.218 -0.1010  0.6500 -0.1356
  987MOL0     C33163   1.704   1.005  10.259 -0.1990 -0.5699 -1.0024
  987MOL0     C33164   1.502   1.345  10.541  0.1424  0.2503  0.9879
  987MOL0     C33165   1.462   1.412  10.420 -0.4865  0.5185 -1.1408
  987MOL0     C33166   1.393   1.536  10.413 -0.4714 -0.0281 -0.5797
  987MOL0     C33167   1.345   1.587  10.533  0.2201  0.2797 -0.8452
  987MOL0     O33168   1.270   1.704  10.529 -0.3738 -0.6431 -0.0338
  987MOL0     C33169   1.182   1.721  10.639 -0.7429  0.3442 -0.6196
  987MOL0     C33170   1.234   1.817  10.747  0.0162  0.5339  0.6809
  987MOL0     C33171   1.263   1.949  10.672  0.8333  0.0928  0.2693
  987MOL0     C33172   1.132   2.026  10.648  0.9923  0.3669  0.6437
  987MOL0     C33173   1.157   2.142  10.562 -0.1885  0.0394 -0.6654
  987MOL0     C33174   1.202   2.232  10.500  0.4563 -0.5065  1.1835
  987MOL0     C33175   1.384   1.527  10.653  0.5249  1.1626  0.2914
  987MOL0     C33176   1.462   1.407  10.662  0.1481  1.5449 -0.4650
  987MOL0     C33177   1.492   1.344  10.801  0.4033 -0.6031 -0.3820
  987MOL0     H33178   1.841   1.191  10.504  0.0521 -2.0769  1.2013
  987MOL0     H33179   2.037   1.101  10.423 -0.7422 -0.3770  0.4382
  987MOL0     H33180   2.031   0.724  10.310 -1.4308 -1.3893 -0.1420
  987MOL0     H33181   1.986   0.737  10.139  0.8541  0.0016 -0.2146
  987MOL0     H33182   2.255   0.815  10.130  1.9058 -2.0335 -0.6254
  987MOL0     H33183   2.181   0.669  10.081 -2.3430  2.0460 -1.6811
  987MOL0     H33184   2.210   0.559  10.275 -0.5351  0.6579 -1.2858
  987MOL0     H33185   2.231   0.709  10.374  1.5717 -4.0558  1.4072
  987MOL0     H33186   2.452   0.654  10.180  4.8186 -1.5003  3.1260
  987MOL0     H33187   2.438   0.762  10.294 -2.5746  1.9118 -3.2244
  987MOL0     H33188   2.595   0.567  10.349  0.8832 -0.9428  0.7705
  987MOL0     H33189   2.473   0.573  10.469  1.0742 -4.7986  0.9647
  987MOL0     H33190   2.326   0.396  10.326  0.0923 -0.1925 -2.9439
  987MOL0     H33191   2.473   0.367  10.246  2.0299  1.7645  0.8388
  987MOL0     H33192   2.443   0.219  10.436  1.4950 -0.7468  0.3015
  987MOL0     H33193   2.476   0.358  10.548  0.9416  4.2511 -1.3718
  987MOL0     H33194   2.649   0.289  10.324 -3.2725 -1.0317  0.2039
  987MOL0     H33195   2.709   0.364  10.486  0.0207 -0.4056  1.2989
  987MOL0     H33196   2.729   0.041  10.341 -2.4842 -0.7186  0.0890
  987MOL0     H33197   2.921  -0.124  10.438  1.6187 -3.0046  1.9740
  987MOL0     H33198   2.941  -0.149  10.608 -2.3883 -2.1945  2.0126
  987MOL0     H33199   2.702  -0.262  10.611 -2.2796  1.1150 -1.9124
  987MOL0     H33200   2.716  -0.249  10.426  0.5886  0.9151 -1.3259
  987MOL0     H33201   2.925  -0.366  10.615 -1.7531  2.5921  1.0025
  987MOL0     H33202   2.894  -0.396  10.436  0.9600 -0.2160  0.4427
  987MOL0     H33203   2.684  -0.497  10.494  1.4273 -0.0138 -0.5301
  987MOL0     H33204   2.715  -0.481  10.669  1.0682 -2.7315  1.1312
  987MOL0     H33205   2.907  -0.849  10.602  1.0795 -1.2083  1.2388
  987MOL0     H33206   2.773  -1.059  10.688 -1.0645 -0.0978  2.8272
  987MOL0     H33207   2.287  -1.020  10.985  1.2081 -0.2385  0.5758
  987MOL0     H33208   2.177  -1.219  11.124 -2.8167  2.3620 -0.8190
  987MOL0     H33209   2.124  -1.615  10.940 -1.1074 -2.7046  0.6894
  987MOL0     H33210   2.018  -1.603  11.084 -1.5125  3.8299  1.2727
  987MOL0     H33211   1.852  -1.551  10.979  0.1903 -1.2347 -1.1885
  987MOL0     H33212   1.931  -1.449  10.854 -0.9125 -0.5726 -0.8408
  987MOL0     H33213   1.890  -1.754  10.847 -6.4560 -0.7632 -1.5814
  987MOL0     H33214   1.788  -1.655  10.762  1.4163  0.5923 -1.6864
  987MOL0     H33215   2.075  -1.688  10.709 -0.4837  1.6678  4.3958
  987MOL0     H33216   1.986  -1.571  10.616 -1.9613 -0.5077 -2.0285
  987MOL0     H33217   1.827  -1.761  10.540 -1.6700 -1.6387  1.5231
  987MOL0     H33218   1.937  -1.865  10.610  1.7592  0.6941 -1.1222
  987MOL0     H33219   1.959  -1.832  10.363 -1.4279  1.1780 -0.6364
  987MOL0     H33220   1.974  -1.665  10.383  0.3811  0.2470  0.7634
  987MOL0     H33221   2.196  -1.707  10.514 -1.6654  1.1703 -0.1438
  987MOL0     H33222   2.201  -1.748  10.347  0.5643 -3.4765 -1.1571
  987MOL0     H33223   2.192  -1.948  10.567 -0.5218 -0.7789 -0.1400
  987MOL0     H33224   2.158  -1.994  10.408 -1.2146  1.4474 -1.1788
  987MOL0     H33225   2.187  -1.459  10.772  1.5522 -1.0176 -0.6841
  987MOL0     H33226   2.319  -1.305  10.659  0.2305 -2.7999  0.8722
  987MOL0     H33227   2.431  -0.814  10.744  0.7993  1.0666  2.8824
  987MOL0     H33228   2.546  -0.617  10.656  0.9400 -0.3319  0.4951
  987MOL0     H33229   1.806   0.871  10.137 -4.4715 -2.1918  2.2792
  987MOL0     H33230   1.613   0.985  10.204  0.3539  0.0408 -2.1719
  987MOL0     H33231   1.504   1.373  10.328 -2.8649  0.0073 -2.0791
  987MOL0     H33232   1.398   1.597  10.324  0.1653  1.0433  0.1669
  987MOL0     H33233   1.169   1.624  10.687 -4.2764  0.5545 -0.8740
  987MOL0     H33234   1.091   1.764  10.596 -0.2172  1.3278 -0.7822
  987MOL0     H33235   1.332   1.777  10.776  0.5412  1.8899  0.8596
  987MOL0     H33236   1.171   1.833  10.835  0.6148  2.1395  0.8560
  987MOL0     H33237   1.319   1.917  10.584  1.6671 -4.2367  2.0991
  987MOL0     H33238   1.329   2.018  10.726  0.5156 -0.0101  0.7943
  987MOL0     H33239   1.057   1.962  10.599  0.5861  0.7936  0.7065
  987MOL0     H33240   1.090   2.050  10.746  0.1591  1.1897  0.0991
  987MOL0     H33241   1.244   2.316  10.448  0.0032 -0.2759  1.1810
  987MOL0     H33242   1.363   1.566  10.752  2.3616 -2.3532  2.3046
  987MOL0     H33243   1.601   1.351  10.811  0.5585 -0.3449 -2.0413
  987MOL0     H33244   1.454   1.397  10.889 -0.0481  2.2771 -2.1944
  987MOL0     H33245   1.455   1.241  10.808  1.5097 -1.0187 -0.5137
  988MOL0     O33246   2.256   8.239   6.468  1.0715  0.1098  0.3458
  988MOL0     C33247   2.361   8.180   6.471 -0.0705  0.0137 -0.1206
  988MOL0     O33248   2.446   8.186   6.575  0.3689 -0.1295  0.4674
  988MOL0     C33249   2.448   8.281   6.669 -0.3427  0.5387 -0.8404
  988MOL0     C33250   2.485   8.404   6.624  0.2643 -0.2504 -0.0847
  988MOL0     C33251   2.493   8.510   6.709  0.6806 -0.6370 -0.6874
  988MOL0     C33252   2.443   8.502   6.837  0.4709 -0.3303 -0.6167
  988MOL0     O33253   2.435   8.609   6.923 -0.0561 -0.0701  0.2347
  988MOL0     C33254   2.531   8.708   6.922  0.5495 -0.2768 -0.2483
  988MOL0     C33255   2.641   8.673   7.023  0.1969 -0.9113  0.6603
  988MOL0     C33256   2.584   8.681   7.165 -0.3642  0.2571 -0.4331
  988MOL0     C33257   2.656   8.774   7.263  0.8057  0.7343  0.3885
  988MOL0     C33258   2.571   8.800   7.380  0.2835  0.5470 -0.4463
  988MOL0     C33259   2.636   8.870   7.493 -0.2661 -0.2707 -0.3825
  988MOL0     C33260   2.533   8.898   7.607  0.2259  0.5995 -0.1847
  988MOL0     C33261   2.455   9.030   7.594 -0.3361 -0.5455  0.8611
  988MOL0     N33262   2.355   9.068   7.692  0.2240 -0.3982  0.2205
  988MOL0     C33263   2.386   9.155   7.795  0.6668  0.7159  0.4514
  988MOL0     C33264   2.265   9.178   7.849 -0.2946 -0.0242 -0.0293
  988MOL0     C33265   2.247   9.250   7.976  0.5571 -0.5808  0.7264
  988MOL0     C33266   2.226   9.398   7.948  0.5361 -0.3446  0.2624
  988MOL0     C33267   2.269   9.510   8.050  0.4997  1.4645  0.0307
  988MOL0     C33268   2.200   9.500   8.184  0.7299  0.2790 -0.9463
  988MOL0     O33269   2.274   9.447   8.299  0.6596  0.1505  0.8848
  988MOL0     C33270   2.216   9.416   8.414 -0.7581 -0.0878 -0.2648
  988MOL0     C33271   2.087   9.453   8.442 -0.0118 -0.0649  0.9501
  988MOL0     C33272   2.033   9.426   8.568 -0.4805  0.1912 -0.8017
  988MOL0     C33273   2.113   9.364   8.668 -0.4922  0.4845  0.2814
  988MOL0     C33274   2.057   9.345   8.811  0.4403  0.2423 -0.3039
  988MOL0     O33275   1.931   9.372   8.840  0.3681  0.2777  0.0717
  988MOL0     C33276   1.882   9.373   8.969 -0.2556  0.3457 -1.0521
  988MOL0     C33277   1.952   9.398   9.087  0.2092 -0.0771  0.5333
  988MOL0     C33278   1.893   9.397   9.209 -1.4431  1.1876  0.7749
  988MOL0     C33279   1.765   9.367   9.227  0.1034 -0.3391  1.1020
  988MOL0     O33280   1.703   9.352   9.341  0.0387 -0.5776  0.0316
  988MOL0     C33281   1.713   9.456   9.438 -0.8309  0.8212 -0.7683
  988MOL0     C33282   1.737   9.405   9.585  0.2948 -0.6704 -0.1049
  988MOL0     C33283   1.865   9.321   9.606  0.0737 -0.9432 -0.0381
  988MOL0     C33284   1.994   9.403   9.609  0.4678  0.5376  0.1540
  988MOL0     C33285   1.989   9.516   9.709 -0.0690  0.2512  0.2082
  988MOL0     C33286   2.032   9.474   9.857 -0.1976 -0.1232 -0.0474
  988MOL0     C33287   2.046   9.595   9.960 -0.3936 -1.2137  0.7463
  988MOL0     C33288   2.072   9.548  10.100  0.5766 -0.6781 -0.1880
  988MOL0    Cl33289   2.219   9.457  10.107 -0.1435  0.1610  0.3052
  988MOL0     C33290   1.678   9.341   9.112 -0.3372 -0.0602 -0.5344
  988MOL0     C33291   1.738   9.343   8.985  0.0779 -0.2738 -0.3372
  988MOL0     O33292   2.144   9.316   8.894 -0.6973  0.1047  0.1280
  988MOL0     C33293   2.251   9.338   8.640 -0.1632  0.8630 -0.6603
  988MOL0     C33294   2.295   9.360   8.509 -0.7739 -0.2090  0.3234
  988MOL0     N33295   2.165   9.118   7.787 -0.2147  0.7920  0.7415
  988MOL0     N33296   2.216   9.055   7.683 -0.4824  1.0859  0.7500
  988MOL0     C33297   2.395   8.375   6.875  0.4040 -0.0106 -0.4979
  988MOL0     C33298   2.407   8.268   6.797 -0.1726 -0.0534  0.2664
  988MOL0     C33299   2.417   8.096   6.355 -0.6784  0.8684  0.0717
  988MOL0     C33300   2.499   7.984   6.373  0.3968 -0.0971 -0.3103
  988MOL0     C33301   2.553   7.918   6.269  0.1056  0.4506  0.0177
  988MOL0     C33302   2.532   7.957   6.143 -0.6154 -0.1376  0.9584
  988MOL0     O33303   2.580   7.884   6.034 -0.8894 -0.5978 -0.0809
  988MOL0     C33304   2.658   7.767   6.047 -0.3125  0.4867 -0.1521
  988MOL0     C33305   2.734   7.729   5.913  0.0720 -0.2052 -1.8458
  988MOL0     C33306   2.767   7.580   5.930  1.0309  0.1862  0.1023
  988MOL0     C33307   2.885   7.556   6.020  1.1697 -1.0813 -0.2036
  988MOL0     C33308   2.932   7.420   6.014  0.5876  1.1772 -0.8363
  988MOL0     C33309   2.985   7.313   6.039 -0.5059 -0.0963 -0.5553
  988MOL0     C33310   2.442   8.062   6.117  0.1418  0.1181 -0.0564
  988MOL0     C33311   2.389   8.145   6.223 -0.1114  0.5431  0.2198
  988MOL0     C33312   2.315   8.268   6.179 -0.6306 -0.3353  0.2366
  988MOL0     H33313   2.481   8.421   6.517 -1.6477 -0.2975 -0.0499
  988MOL0     H33314   2.524   8.604   6.664 -1.7242  0.2764 -0.6168
  988MOL0     H33315   2.570   8.727   6.822 -1.1303  1.9792 -0.5301
  988MOL0     H33316   2.480   8.798   6.956 -1.4178 -0.3731 -2.6846
  988MOL0     H33317   2.713   8.755   7.018 -1.6978  0.7576 -2.5809
  988MOL0     H33318   2.680   8.576   6.992 -0.2124 -0.5442 -1.0934
  988MOL0     H33319   2.578   8.581   7.209  0.5952  0.6103  0.5505
  988MOL0     H33320   2.480   8.713   7.156 -0.5823 -0.1371  0.5258
  988MOL0     H33321   2.749   8.727   7.296 -0.4492 -1.4728  1.0125
  988MOL0     H33322   2.672   8.862   7.201  1.7478 -0.1155 -0.6237
  988MOL0     H33323   2.484   8.853   7.341  0.2634 -0.9495 -2.6352
  988MOL0     H33324   2.535   8.702   7.411  1.4019  0.1953 -0.1857
  988MOL0     H33325   2.718   8.806   7.527 -1.0994 -1.1944 -0.0554
  988MOL0     H33326   2.679   8.963   7.457  1.7717  0.3561  3.1618
  988MOL0     H33327   2.595   8.895   7.697  0.6545 -1.8133 -0.4808
  988MOL0     H33328   2.473   8.807   7.614  3.3803 -1.4991  2.9353
  988MOL0     H33329   2.541   9.097   7.582  0.8931 -2.5764 -4.3835
  988MOL0     H33330   2.408   9.021   7.495  1.3922  2.6669 -0.3911
  988MOL0     H33331   2.483   9.195   7.822  1.2094 -0.3410  0.1292
  988MOL0     H33332   2.155   9.213   8.023  0.6105 -2.0490 -0.2521
  988MOL0     H33333   2.338   9.240   8.035 -1.6397  1.9678  5.0789
  988MOL0     H33334   2.291   9.424   7.864  0.4082 -0.2020  0.2090
  988MOL0     H33335   2.120   9.413   7.927  1.0196  1.0780 -1.4463
  988MOL0     H33336   2.246   9.606   8.003  0.8569  2.3734  1.6502
  988MOL0     H33337   2.378   9.515   8.054  0.6260  0.7844 -1.5675
  988MOL0     H33338   2.109   9.442   8.168  1.0295 -0.8841  1.2449
  988MOL0     H33339   2.178   9.599   8.223  0.3013  0.1723 -0.9141
  988MOL0     H33340   2.011   9.489   8.373 -0.5120  0.0467  1.5468
  988MOL0     H33341   1.933   9.462   8.585 -0.0987  0.6052  0.6719
  988MOL0     H33342   2.056   9.428   9.094  0.0996  1.7726 -3.2154
  988MOL0     H33343   1.944   9.422   9.302 -3.1307  1.7888  1.5723
  988MOL0     H33344   1.785   9.533   9.407  0.3764 -0.4963 -1.3641
  988MOL0     H33345   1.620   9.513   9.441 -1.2556  0.1232 -0.4537
  988MOL0     H33346   1.731   9.478   9.667  3.3617 -0.1636 -0.2239
  988MOL0     H33347   1.654   9.338   9.612 -1.5856  0.3675 -2.8368
  988MOL0     H33348   1.856   9.275   9.705 -0.3337  2.9200  1.8830
  988MOL0     H33349   1.880   9.237   9.537  2.8413 -1.4087  1.0107
  988MOL0     H33350   2.017   9.454   9.515 -1.7077  0.0478 -0.7034
  988MOL0     H33351   2.081   9.341   9.627 -0.7795 -2.9682 -4.0782
  988MOL0     H33352   1.900   9.580   9.717 -0.0619  0.1446  1.1950
  988MOL0     H33353   2.076   9.576   9.678  1.9325 -1.7942  1.5764
  988MOL0     H33354   1.972   9.395   9.902 -2.1029  0.3905 -1.5438
  988MOL0     H33355   2.127   9.421   9.846 -0.0050 -0.5322  2.8299
  988MOL0     H33356   1.971   9.675   9.960  1.1348  0.3177  2.2316
  988MOL0     H33357   2.137   9.654   9.940  0.9496 -2.3344  3.1624
  988MOL0     H33358   2.088   9.640  10.158  1.6419  2.6982 -5.1605
  988MOL0     H33359   1.987   9.500  10.149  1.3286 -0.0777  1.8071
  988MOL0     H33360   1.580   9.301   9.135 -0.0405 -2.5761 -2.9896
  988MOL0     H33361   1.677   9.301   8.906 -1.8474 -0.4909  1.1825
  988MOL0     H33362   2.317   9.292   8.713  0.2401  0.0524 -1.5113
  988MOL0     H33363   2.397   9.334   8.483 -0.8516 -2.3486  1.9219
  988MOL0     H33364   2.354   8.356   6.974 -0.5130  2.2423 -0.3806
  988MOL0     H33365   2.380   8.170   6.835  2.7110 -0.9643  0.1980
  988MOL0     H33366   2.532   7.968   6.475  0.5813 -1.8139 -0.6120
  988MOL0     H33367   2.617   7.833   6.289  0.4347 -0.5336 -4.2294
  988MOL0     H33368   2.577   7.702   6.083 -1.8360  2.6032  0.4957
  988MOL0     H33369   2.729   7.758   6.130  0.9627 -0.8820 -1.3317
  988MOL0     H33370   2.832   7.776   5.902  0.4076 -0.7979 -1.4899
  988MOL0     H33371   2.664   7.756   5.834 -2.6130 -0.8590  0.1624
  988MOL0     H33372   2.800   7.537   5.835 -1.5367  2.4870 -2.0000
  988MOL0     H33373   2.676   7.521   5.946  1.3315 -0.7798 -1.5114
  988MOL0     H33374   2.963   7.620   5.977 -1.7696  0.9542 -2.9293
  988MOL0     H33375   2.865   7.587   6.123 -2.0482 -0.1647 -0.9689
  988MOL0     H33376   3.036   7.226   6.073 -1.2587 -0.2675  0.1562
  988MOL0     H33377   2.429   8.087   6.013 -1.5518 -0.3283  0.0229
  988MOL0     H33378   2.212   8.259   6.215 -0.4499 -0.5282  0.7174
  988MOL0     H33379   2.366   8.350   6.231 -0.6988 -1.0176  1.4070
  988MOL0     H33380   2.317   8.278   6.071 -0.7277 -4.0835 -0.2387
  989MOL0     O33381   4.720   0.939   7.349  0.1234  0.7006 -1.0029
  989MOL0     C33382   4.683   1.015   7.439 -0.5370  0.6764 -0.3570
  989MOL0     O33383   4.548   1.061   7.448 -0.4331 -0.1539 -1.0502
  989MOL0     C33384   4.445   0.983   7.392 -0.2992  0.3190 -0.3275
  989MOL0     C33385   4.444   0.919   7.269 -0.5248  0.3719  0.3499
  989MOL0     C33386   4.340   0.836   7.234  0.3067  0.5547  0.8930
  989MOL0     C33387   4.219   0.832   7.308  0.3833  0.2654 -0.6447
  989MOL0     O33388   4.120   0.756   7.250 -0.4970  0.5185  0.1123
  989MOL0     C33389   3.991   0.749   7.311 -0.6355 -0.6091 -0.2555
  989MOL0     C33390   3.939   0.614   7.254  1.2568 -0.3423  0.9975
  989MOL0     C33391   3.821   0.558   7.327 -0.9251 -0.2548 -0.4907
  989MOL0     C33392   3.773   0.435   7.249  0.8104 -0.7781 -0.6578
  989MOL0     C33393   3.652   0.365   7.302 -0.2697  0.0549 -0.2925
  989MOL0     C33394   3.522   0.435   7.283 -0.6509 -0.2076 -0.0910
  989MOL0     C33395   3.409   0.346   7.316  0.1227  0.6093  0.5610
  989MOL0     C33396   3.385   0.216   7.231  0.5065 -0.0348  0.0445
  989MOL0     N33397   3.252   0.151   7.271 -0.1873  0.3628  0.1587
  989MOL0     C33398   3.127   0.177   7.227  0.9677  1.3779  1.1651
  989MOL0     C33399   3.063   0.063   7.265 -0.2898  0.9504  0.4217
  989MOL0     C33400   2.931   0.020   7.208  1.0942  0.2160  0.7462
  989MOL0     C33401   2.955  -0.070   7.083 -0.1706 -0.7471  0.6383
  989MOL0     C33402   2.842  -0.173   7.066 -0.2041  0.7117  0.1940
  989MOL0     C33403   2.861  -0.274   6.949  0.2069 -0.6221 -0.2894
  989MOL0     O33404   2.925  -0.392   6.988  0.0929  0.2883 -0.2148
  989MOL0     C33405   2.924  -0.510   6.908  0.2357 -0.2620 -0.3937
  989MOL0     C33406   3.005  -0.618   6.954 -0.2329 -0.0715  0.4379
  989MOL0     C33407   2.985  -0.752   6.891 -0.0222 -1.5275 -0.3223
  989MOL0     C33408   2.901  -0.761   6.776 -0.7135  0.3500  0.3667
  989MOL0     C33409   2.908  -0.880   6.696 -0.1204  0.8458  0.1050
  989MOL0     O33410   2.875  -0.877   6.562  0.8009 -0.1769  0.5015
  989MOL0     C33411   2.830  -0.993   6.503  0.4506 -0.0653  0.1819
  989MOL0     C33412   2.908  -1.045   6.410 -0.4729  0.3131 -0.3106
  989MOL0     C33413   2.847  -1.161   6.351 -1.3255 -0.0937  0.5137
  989MOL0     C33414   2.723  -1.214   6.394 -0.5162  0.5685 -0.0313
  989MOL0     O33415   2.682  -1.331   6.332  0.5733 -0.9832  0.3806
  989MOL0     C33416   2.752  -1.447   6.370 -0.0657  1.1010 -0.3471
  989MOL0     C33417   2.678  -1.581   6.376 -0.4942 -0.5115 -0.7998
  989MOL0     C33418   2.619  -1.603   6.506 -0.2185  0.1360 -0.0326
  989MOL0     C33419   2.513  -1.712   6.497  0.9639  0.0176  0.4746
  989MOL0     C33420   2.469  -1.750   6.637  0.0061 -0.6946  0.0924
  989MOL0     C33421   2.370  -1.864   6.643 -0.0910 -0.7213  0.5714
  989MOL0     C33422   2.318  -1.913   6.775  0.5535 -0.6691  0.5766
  989MOL0     C33423   2.186  -1.850   6.812  0.6452 -0.3034 -0.7243
  989MOL0    Cl33424   2.179  -1.681   6.780  0.1914  0.1815 -0.6560
  989MOL0     C33425   2.661  -1.157   6.497  0.3423 -0.4112 -0.7232
  989MOL0     C33426   2.717  -1.047   6.552 -0.1239  0.1081  1.0300
  989MOL0     O33427   2.948  -0.983   6.754  1.0929 -0.4477  0.0654
  989MOL0     C33428   2.833  -0.647   6.732  0.5109  0.4810 -0.0494
  989MOL0     C33429   2.837  -0.529   6.797 -0.2881 -0.2438 -0.0477
  989MOL0     N33430   3.140  -0.021   7.339  0.1705  0.2216 -0.4174
  989MOL0     N33431   3.250   0.041   7.352  0.2726  0.9262  0.8827
  989MOL0     C33432   4.214   0.917   7.429 -0.1165  1.2272  0.4032
  989MOL0     C33433   4.327   0.991   7.466  0.4223  0.2832 -0.1990
  989MOL0     C33434   4.786   1.057   7.533 -0.2472 -0.3675 -0.3910
  989MOL0     C33435   4.919   1.030   7.500 -0.2652  0.1792 -1.3152
  989MOL0     C33436   5.019   1.088   7.589 -0.7677  0.3396 -0.8570
  989MOL0     C33437   4.992   1.158   7.706 -0.0157  0.0434 -0.0419
  989MOL0     O33438   5.082   1.212   7.792 -0.1704 -0.5387  0.4779
  989MOL0     C33439   5.215   1.236   7.749  0.1811  0.3625  0.1101
  989MOL0     C33440   5.261   1.288   7.883 -0.7194 -0.2702  0.1182
  989MOL0     C33441   5.411   1.319   7.858  0.1811 -0.5128 -0.4272
  989MOL0     C33442   5.463   1.378   7.980 -0.1442  0.3573 -0.0399
  989MOL0     C33443   5.606   1.403   7.954 -0.7093 -0.0574  0.0899
  989MOL0     C33444   5.728   1.417   7.927 -0.6501  0.2320 -1.6134
  989MOL0     C33445   4.857   1.170   7.737  0.4216 -0.5623 -0.3172
  989MOL0     C33446   4.760   1.126   7.651 -0.6180  0.0557  0.1948
  989MOL0     C33447   4.620   1.153   7.703  0.0414  0.5736  0.5090
  989MOL0     H33448   4.529   0.913   7.201 -0.4834  0.1990  0.4153
  989MOL0     H33449   4.345   0.774   7.145 -3.0911  0.9031  0.3464
  989MOL0     H33450   4.010   0.753   7.419  1.4670  0.0119 -0.6166
  989MOL0     H33451   3.930   0.831   7.272  1.4816  1.1713  0.0101
  989MOL0     H33452   4.023   0.545   7.239  0.5980 -0.6972 -1.5608
  989MOL0     H33453   3.916   0.644   7.151  2.4016 -1.4086  0.4078
  989MOL0     H33454   3.734   0.623   7.329  0.5610  1.7978  0.2745
  989MOL0     H33455   3.856   0.542   7.430 -2.3752  0.7052  0.1752
  989MOL0     H33456   3.753   0.469   7.147  3.4389 -1.8253 -1.6289
  989MOL0     H33457   3.849   0.360   7.224  0.0574 -1.0498 -2.2061
  989MOL0     H33458   3.661   0.269   7.250  3.6332  1.0185 -1.7981
  989MOL0     H33459   3.658   0.341   7.409  1.0680 -5.5597 -1.2754
  989MOL0     H33460   3.511   0.521   7.351 -4.0367 -1.0349  0.6026
  989MOL0     H33461   3.521   0.465   7.178  2.3901  1.4876  0.2600
  989MOL0     H33462   3.319   0.408   7.314 -0.0745  0.3815  1.7373
  989MOL0     H33463   3.423   0.311   7.419  1.7804  0.3680  0.2775
  989MOL0     H33464   3.384   0.217   7.121  2.7749  2.0723 -0.0472
  989MOL0     H33465   3.456   0.141   7.268  0.0639 -1.2766 -1.4995
  989MOL0     H33466   3.114   0.258   7.156 -1.3188 -0.9837 -1.3437
  989MOL0     H33467   2.873  -0.020   7.292 -1.9937  1.9412 -0.3882
  989MOL0     H33468   2.881   0.108   7.166  1.5070 -0.7990 -2.1114
  989MOL0     H33469   2.966  -0.020   6.986 -0.7762 -4.0377 -1.2735
  989MOL0     H33470   3.054  -0.113   7.096  2.1849  3.8110 -0.2950
  989MOL0     H33471   2.748  -0.123   7.042  0.2869  3.0585  2.7223
  989MOL0     H33472   2.837  -0.223   7.163 -2.0829 -0.8817 -0.6388
  989MOL0     H33473   2.916  -0.230   6.865  0.3896  1.5637  0.9033
  989MOL0     H33474   2.759  -0.289   6.913  0.7588 -0.5816 -1.9871
  989MOL0     H33475   3.088  -0.615   7.024  1.0851  1.7897 -1.0829
  989MOL0     H33476   3.062  -0.822   6.922  3.4840  2.0613 -0.0435
  989MOL0     H33477   3.001  -0.998   6.380 -1.1517  0.9969 -1.3902
  989MOL0     H33478   2.902  -1.209   6.271 -3.4657 -0.0913 -1.0351
  989MOL0     H33479   2.834  -1.470   6.301  0.8799  1.8843  0.4782
  989MOL0     H33480   2.800  -1.431   6.467  2.5657  1.0677 -1.5449
  989MOL0     H33481   2.597  -1.581   6.303 -2.2973  1.2124  1.0655
  989MOL0     H33482   2.753  -1.658   6.354  0.4648 -0.2148  1.2643
  989MOL0     H33483   2.691  -1.631   6.583  1.8918  0.7464 -1.7103
  989MOL0     H33484   2.574  -1.506   6.530 -1.3233 -0.5774  0.8905
  989MOL0     H33485   2.553  -1.798   6.442  0.3613  0.2499 -0.3508
  989MOL0     H33486   2.427  -1.671   6.443  3.1121  2.7525 -1.1394
  989MOL0     H33487   2.411  -1.665   6.673  0.3066 -0.7755  0.7846
  989MOL0     H33488   2.552  -1.771   6.705  1.2614 -0.7360 -1.3915
  989MOL0     H33489   2.287  -1.837   6.578  2.1824  0.7328 -1.9260
  989MOL0     H33490   2.427  -1.952   6.608 -0.3558  0.3140 -2.7641
  989MOL0     H33491   2.392  -1.894   6.853 -0.2281 -0.4036  1.2782
  989MOL0     H33492   2.289  -2.018   6.760 -0.3043 -0.2602 -0.8906
  989MOL0     H33493   2.094  -1.893   6.769  1.0121 -3.1813  1.1149
  989MOL0     H33494   2.187  -1.862   6.921 -1.1466  1.6969 -0.4206
  989MOL0     H33495   2.580  -1.205   6.551  0.0044  1.2200  0.2993
  989MOL0     H33496   2.659  -1.006   6.634 -1.2204  0.7820 -0.0414
  989MOL0     H33497   2.784  -0.669   6.637  0.8784 -1.4188  0.1771
  989MOL0     H33498   2.802  -0.437   6.753  2.5741  1.2672  0.5764
  989MOL0     H33499   4.117   0.932   7.476 -1.1975 -0.2635 -1.2349
  989MOL0     H33500   4.320   1.055   7.553  1.1532  2.9284 -1.9755
  989MOL0     H33501   4.946   0.976   7.410 -0.1208  0.1062 -1.2297
  989MOL0     H33502   5.122   1.073   7.561  0.2799  3.1694  1.0737
  989MOL0     H33503   5.212   1.315   7.673  0.6297  0.4484  0.1762
  989MOL0     H33504   5.277   1.155   7.711  2.4444  1.4952  1.1753
  989MOL0     H33505   5.264   1.212   7.961  2.7913 -1.9600 -1.4042
  989MOL0     H33506   5.200   1.376   7.903 -1.7246 -1.1191  0.9226
  989MOL0     H33507   5.423   1.387   7.774  0.8998  1.8477  1.4659
  989MOL0     H33508   5.460   1.224   7.838 -0.1573 -0.6385 -0.6716
  989MOL0     H33509   5.412   1.468   8.016  3.1850  3.4248 -2.2435
  989MOL0     H33510   5.465   1.302   8.059  1.2154  2.8936  2.5798
  989MOL0     H33511   5.832   1.443   7.913 -0.1960  0.2125  1.1776
  989MOL0     H33512   4.824   1.221   7.827 -1.9084 -0.3597 -1.2076
  989MOL0     H33513   4.569   1.056   7.709  1.7193 -0.3204  1.0480
  989MOL0     H33514   4.627   1.197   7.803  0.0664 -2.6005  2.0505
  989MOL0     H33515   4.560   1.208   7.630 -0.3289 -2.8765 -2.0693
  990MOL0     O33516   2.357  10.029   9.413 -0.9539 -0.0458 -0.5714
  990MOL0     C33517   2.472  10.046   9.447 -0.1748  0.0260 -0.0105
  990MOL0     O33518   2.580  10.094   9.377  0.8314 -0.3224 -0.5256
  990MOL0     C33519   2.551  10.130   9.251  0.4296 -0.0790 -0.4246
  990MOL0     C33520   2.581  10.260   9.213 -0.5186  0.8828  0.5256
  990MOL0     C33521   2.537  10.321   9.091 -0.5340 -0.1059 -0.9540
  990MOL0     C33522   2.476  10.235   8.999  0.3066  0.4587 -0.0280
  990MOL0     O33523   2.437  10.300   8.880 -0.0975 -0.0572 -0.4393
  990MOL0     C33524   2.309  10.269   8.819  0.2465 -0.5214 -0.3466
  990MOL0     C33525   2.279  10.384   8.718 -0.3270 -0.7636  0.1671
  990MOL0     C33526   2.237  10.502   8.805  0.9834  0.0330  0.4476
  990MOL0     C33527   2.162  10.613   8.725  0.7912  0.6920 -0.9227
  990MOL0     C33528   2.147  10.742   8.816  0.0513 -1.0806 -0.1672
  990MOL0     C33529   2.183  10.861   8.725  0.0406 -0.0836  0.4493
  990MOL0     C33530   2.168  10.995   8.809 -0.5173 -0.1054  0.4302
  990MOL0     C33531   2.147  11.127   8.741  0.0314 -0.4130  0.5063
  990MOL0     N33532   2.255  11.175   8.657 -0.6663  0.3096  0.6772
  990MOL0     C33533   2.327  11.289   8.677 -0.6954  0.5984  0.2299
  990MOL0     C33534   2.410  11.295   8.565  0.8796  0.9727  0.3961
  990MOL0     C33535   2.509  11.404   8.535  0.0847  0.8276  0.9372
  990MOL0     C33536   2.653  11.351   8.558  0.4632 -0.5636 -0.3916
  990MOL0     C33537   2.698  11.398   8.690 -0.0948  0.9106  0.6543
  990MOL0     C33538   2.663  11.276   8.788 -0.8207 -0.4965 -1.0122
  990MOL0     O33539   2.675  11.330   8.917 -0.5686  0.6434 -0.1106
  990MOL0     C33540   2.783  11.306   8.995  0.4691  0.1616  0.0606
  990MOL0     C33541   2.776  11.328   9.135  0.3405 -1.0508  0.0734
  990MOL0     C33542   2.883  11.302   9.217  0.0187  0.5391  0.1424
  990MOL0     C33543   3.005  11.251   9.166 -0.7092  0.2960 -0.3288
  990MOL0     C33544   3.114  11.212   9.267 -0.6128 -0.1575  0.5967
  990MOL0     O33545   3.077  11.188   9.397 -0.2253 -0.2139  0.1409
  990MOL0     C33546   3.187  11.171   9.488 -0.2191  0.2437  0.8500
  990MOL0     C33547   3.294  11.078   9.476  0.7938  0.5600 -0.5923
  990MOL0     C33548   3.377  11.068   9.583 -0.6608  0.8485 -0.5337
  990MOL0     C33549   3.378  11.155   9.687  0.1459 -0.1866  0.6576
  990MOL0     O33550   3.465  11.128   9.794 -0.2934 -0.7718 -0.0075
  990MOL0     C33551   3.517  11.246   9.845 -0.6438 -0.2269  0.1641
  990MOL0     C33552   3.660  11.231   9.866  0.5326  0.1635 -0.3939
  990MOL0     C33553   3.702  11.132   9.976  0.2036  0.7117  0.7756
  990MOL0     C33554   3.812  11.192  10.069  0.5154  0.2460  1.0350
  990MOL0     C33555   3.872  11.066  10.139 -0.5435 -0.9305  0.3670
  990MOL0     C33556   3.982  11.115  10.242  0.6634  1.6998 -0.0212
  990MOL0     C33557   4.015  11.009  10.339 -0.4882  0.0802 -0.4079
  990MOL0     C33558   4.103  11.054  10.456  1.1391 -0.1979 -0.5064
  990MOL0    Cl33559   4.256  11.090  10.376  0.0841  0.2100  0.0014
  990MOL0     C33560   3.284  11.257   9.682 -0.7043  0.3351 -1.2986
  990MOL0     C33561   3.179  11.255   9.590  0.1504 -0.3259 -0.1386
  990MOL0     O33562   3.226  11.230   9.223  0.1341 -0.2435 -0.3071
  990MOL0     C33563   3.024  11.235   9.022  1.0177  0.2089 -0.0103
  990MOL0     C33564   2.910  11.261   8.942  0.0668 -0.6973 -1.0736
  990MOL0     N33565   2.386  11.183   8.480 -0.7804 -0.2692  0.2243
  990MOL0     N33566   2.290  11.121   8.535 -0.5604  0.3966 -0.6401
  990MOL0     C33567   2.455  10.099   9.026  0.1949 -0.1874  0.0159
  990MOL0     C33568   2.489  10.048   9.156 -0.5912 -0.2948  0.3535
  990MOL0     C33569   2.489  10.009   9.588 -0.0542 -0.0153 -0.4346
  990MOL0     C33570   2.548  10.107   9.677  0.0486  0.3401  0.8437
  990MOL0     C33571   2.561  10.083   9.815  0.3866 -0.1361  0.1999
  990MOL0     C33572   2.520   9.956   9.869 -0.8522 -1.0170 -0.1107
  990MOL0     O33573   2.526   9.942  10.008 -0.4651 -0.5111 -0.1481
  990MOL0     C33574   2.506   9.820  10.066  0.5363 -0.7207 -0.6586
  990MOL0     C33575   2.547   9.836  10.214  0.1539 -0.1222 -0.0025
  990MOL0     C33576   2.466   9.958  10.278 -0.0547 -0.3050 -1.5723
  990MOL0     C33577   2.484   9.961  10.422  0.4804  0.2506  0.9735
  990MOL0     C33578   2.617   9.962  10.475 -0.2752 -0.3694  0.5167
  990MOL0     C33579   2.722   9.967  10.533  0.2867 -0.1460  0.4008
  990MOL0     C33580   2.462   9.870   9.776 -0.0745  0.5872 -0.4162
  990MOL0     C33581   2.454   9.885   9.637 -0.1158 -0.2597 -0.6971
  990MOL0     C33582   2.401   9.770   9.551 -0.5080  0.1299  0.7339
  990MOL0     H33583   2.625  10.322   9.291 -0.4315  0.9764  0.4024
  990MOL0     H33584   2.544  10.428   9.078 -0.6365 -0.1182 -1.1176
  990MOL0     H33585   2.315  10.170   8.773 -0.6190 -0.7345 -0.0208
  990MOL0     H33586   2.232  10.264   8.897 -0.3901  0.5673 -0.8730
  990MOL0     H33587   2.204  10.363   8.641  0.5604  1.7604 -1.5130
  990MOL0     H33588   2.369  10.403   8.658 -1.3620 -0.1253 -1.2549
  990MOL0     H33589   2.326  10.536   8.860 -0.1171  0.2552  2.1544
  990MOL0     H33590   2.167  10.468   8.882 -1.8706  0.2889 -1.8704
  990MOL0     H33591   2.215  10.618   8.630  1.4942 -0.3113 -0.6025
  990MOL0     H33592   2.065  10.579   8.687  2.3125 -2.5084 -2.3212
  990MOL0     H33593   2.042  10.761   8.838 -0.8198 -1.2035 -3.6817
  990MOL0     H33594   2.203  10.738   8.910  0.1987 -0.1393 -0.2107
  990MOL0     H33595   2.284  10.849   8.684  0.1666 -1.0272  1.0246
  990MOL0     H33596   2.106  10.864   8.647 -1.7692 -2.3810  2.0223
  990MOL0     H33597   2.262  11.010   8.864 -0.9723  0.7019  1.0161
  990MOL0     H33598   2.092  10.975   8.886 -1.7726 -0.5778 -0.8865
  990MOL0     H33599   2.054  11.120   8.683 -0.6220 -3.1714  1.7609
  990MOL0     H33600   2.131  11.203   8.818 -1.8627 -1.4228  1.1847
  990MOL0     H33601   2.308  11.360   8.757 -0.0810  0.5209  0.4511
  990MOL0     H33602   2.510  11.426   8.428 -3.0051 -1.1784  0.3586
  990MOL0     H33603   2.488  11.498   8.587  2.0261  0.4039  2.5793
  990MOL0     H33604   2.677  11.246   8.540  3.1602 -0.4365  1.7942
  990MOL0     H33605   2.713  11.409   8.487  0.2413  0.9971  0.6525
  990MOL0     H33606   2.663  11.495   8.725 -3.2725  0.4391 -0.8802
  990MOL0     H33607   2.807  11.404   8.687  0.2533 -3.1483 -1.4879
  990MOL0     H33608   2.737  11.201   8.761  3.5293  2.4604  1.4356
  990MOL0     H33609   2.567  11.226   8.771 -2.3932  2.9301 -3.1416
  990MOL0     H33610   2.678  11.363   9.167  1.0496  1.4653 -0.2966
  990MOL0     H33611   2.864  11.321   9.322 -0.5146  1.8588 -0.1731
  990MOL0     H33612   3.305  11.004   9.397 -2.3944 -0.4316 -0.2811
  990MOL0     H33613   3.440  10.979   9.580  1.0131  1.8979  1.5479
  990MOL0     H33614   3.516  11.325   9.770  0.7775  2.4671  2.7621
  990MOL0     H33615   3.471  11.287   9.936  1.6467  2.6253  0.2104
  990MOL0     H33616   3.710  11.206   9.772  2.3356 -0.1437  0.6028
  990MOL0     H33617   3.700  11.330   9.890 -2.0012  2.6696 -5.0567
  990MOL0     H33618   3.620  11.102  10.043  0.7317 -2.2438  0.2374
  990MOL0     H33619   3.726  11.041   9.920 -0.9122  2.8500 -3.5613
  990MOL0     H33620   3.780  11.276  10.132 -0.8268  1.6641 -1.3904
  990MOL0     H33621   3.888  11.241  10.008  0.3091 -3.5737 -2.7529
  990MOL0     H33622   3.931  11.002  10.072  1.0018 -0.9224  1.6352
  990MOL0     H33623   3.795  11.019  10.201 -1.1028  0.4582  0.7541
  990MOL0     H33624   4.077  11.138  10.191 -0.5350  0.9635 -2.8024
  990MOL0     H33625   3.948  11.204  10.295 -0.4025  0.5908  1.2111
  990MOL0     H33626   4.062  10.925  10.287 -1.1974  0.2089 -1.2808
  990MOL0     H33627   3.922  10.973  10.383  1.2134 -1.4541  2.1956
  990MOL0     H33628   4.062  11.140  10.510  0.8297  1.0372 -2.5598
  990MOL0     H33629   4.114  10.976  10.531 -1.0909 -0.6267 -0.5430
  990MOL0     H33630   3.272  11.322   9.768 -1.5622 -1.0746 -0.3100
  990MOL0     H33631   3.100  11.329   9.602 -1.7644 -2.5655  1.8894
  990MOL0     H33632   3.120  11.204   8.983  1.3567 -1.8621  2.2513
  990MOL0     H33633   2.928  11.252   8.835  0.4940 -4.5036 -0.8203
  990MOL0     H33634   2.408  10.036   8.952 -1.1979  2.7206 -1.7181
  990MOL0     H33635   2.470   9.944   9.179 -1.7483  0.3316  2.4044
  990MOL0     H33636   2.565  10.210   9.646  2.7408 -0.4851 -0.7720
  990MOL0     H33637   2.607  10.160   9.877  0.3254 -2.1171  2.9297
  990MOL0     H33638   2.556   9.736  10.017 -1.3269 -1.9490 -0.5255
  990MOL0     H33639   2.401   9.793  10.075  0.1553  0.7301 -0.3914
  990MOL0     H33640   2.654   9.857  10.213 -0.0586  1.3771 -3.2041
  990MOL0     H33641   2.519   9.740  10.260  2.6775  0.2401  2.5466
  990MOL0     H33642   2.361   9.960  10.246 -0.0290 -1.1738 -1.7260
  990MOL0     H33643   2.508  10.055  10.250  0.0298 -0.4099 -1.8099
  990MOL0     H33644   2.425  10.048  10.450 -1.4507  0.1846 -2.3823
  990MOL0     H33645   2.438   9.870  10.462 -1.0935 -1.1674 -3.4918
  990MOL0     H33646   2.808   9.973  10.597  1.1665 -0.9092 -0.6608
  990MOL0     H33647   2.419   9.777   9.813  0.3911  0.5084 -0.0629
  990MOL0     H33648   2.443   9.766   9.450 -2.6211  0.7760 -0.2347
  990MOL0     H33649   2.420   9.675   9.603 -3.2184 -0.8663  0.0612
  990MOL0     H33650   2.294   9.792   9.542 -0.1992  2.0927  1.3587
  991MOL0     O33651   1.369   2.911   1.690  0.4140  0.3711  0.8645
  991MOL0     C33652   1.458   2.929   1.775  0.4614 -1.0037 -0.1148
  991MOL0     O33653   1.495   2.848   1.879  0.8511  0.1979 -0.1296
  991MOL0     C33654   1.441   2.723   1.917  1.0075  0.1591  0.1272
  991MOL0     C33655   1.513   2.606   1.931 -0.3862  0.2271  0.0492
  991MOL0     C33656   1.449   2.491   1.970  0.6746 -0.1231  0.7088
  991MOL0     C33657   1.307   2.483   1.986 -0.3527 -0.7420 -0.2947
  991MOL0     O33658   1.241   2.366   2.013  1.1495 -0.9753  0.6924
  991MOL0     C33659   1.326   2.251   2.044 -0.6396  0.4858 -1.6824
  991MOL0     C33660   1.244   2.134   2.081 -0.0234 -0.0986  0.5102
  991MOL0     C33661   1.163   2.073   1.971 -0.4656 -0.0596  0.2695
  991MOL0     C33662   1.071   2.181   1.899 -0.1706 -0.5664 -0.2544
  991MOL0     C33663   0.973   2.122   1.792 -0.0828 -0.4117 -0.2899
  991MOL0     C33664   0.898   1.991   1.846 -0.9611 -0.8654 -0.1692
  991MOL0     C33665   0.787   1.935   1.750 -0.0017  0.9276 -0.1179
  991MOL0     C33666   0.712   1.814   1.816  0.8329  0.4087  1.3620
  991MOL0     N33667   0.793   1.694   1.826 -0.0528  0.0346  0.2895
  991MOL0     C33668   0.862   1.656   1.935 -0.0324  0.1125  0.1447
  991MOL0     C33669   0.907   1.526   1.911 -0.0985 -0.4764  0.3176
  991MOL0     C33670   1.002   1.448   1.996 -0.0258  0.1524  0.3775
  991MOL0     C33671   1.134   1.516   1.995  0.1345 -0.6210  0.1235
  991MOL0     C33672   1.207   1.544   1.854  0.0526 -0.8765 -0.0357
  991MOL0     C33673   1.361   1.534   1.862  0.2683  0.2495 -0.5814
  991MOL0     O33674   1.415   1.653   1.916 -0.2775  0.2351 -0.2598
  991MOL0     C33675   1.430   1.759   1.837  0.6404  0.9197  0.8890
  991MOL0     C33676   1.372   1.758   1.705  0.2822 -1.4800 -0.0073
  991MOL0     C33677   1.384   1.875   1.634  0.3154  0.4678 -0.4281
  991MOL0     C33678   1.438   1.988   1.687  0.4770 -0.3334 -0.2264
  991MOL0     C33679   1.431   2.114   1.599 -0.2878 -0.4391 -0.1579
  991MOL0     O33680   1.539   2.199   1.620  0.1736  0.0464  1.2141
  991MOL0     C33681   1.559   2.301   1.526  0.5038  0.9147 -0.2836
  991MOL0     C33682   1.575   2.435   1.581  0.5167  0.6920 -0.4780
  991MOL0     C33683   1.599   2.540   1.494  0.8719 -0.2992 -0.5003
  991MOL0     C33684   1.621   2.526   1.354 -0.0776 -0.3125 -0.4666
  991MOL0     O33685   1.633   2.638   1.275  0.0170 -0.2276 -0.1513
  991MOL0     C33686   1.757   2.713   1.299  1.2120  0.2057 -0.8124
  991MOL0     C33687   1.768   2.814   1.186 -1.1715 -0.3916 -0.5309
  991MOL0     C33688   1.888   2.911   1.208  0.4437 -0.2865 -0.4120
  991MOL0     C33689   1.880   3.012   1.101 -0.7842  0.0241 -0.0356
  991MOL0     C33690   1.982   3.124   1.124  0.2916  0.6008 -0.5551
  991MOL0     C33691   1.998   3.202   0.992 -0.0887  0.3759  0.6505
  991MOL0     C33692   2.083   3.319   1.014  0.0769 -0.5497 -0.0296
  991MOL0     C33693   2.097   3.397   0.885 -0.8708  0.2595  0.1413
  991MOL0    Cl33694   2.201   3.543   0.907 -0.1341 -0.2156 -0.0107
  991MOL0     C33695   1.615   2.396   1.302 -0.1650  0.3590 -0.1640
  991MOL0     C33696   1.584   2.291   1.389 -0.2463 -0.0909 -1.2461
  991MOL0     O33697   1.338   2.133   1.527  0.6977 -0.1774  0.4367
  991MOL0     C33698   1.503   1.989   1.817 -0.2253  0.0886  0.6994
  991MOL0     C33699   1.488   1.868   1.893 -0.0516  0.0870 -0.1376
  991MOL0     N33700   0.858   1.494   1.786 -0.3887 -0.1846  0.4295
  991MOL0     N33701   0.785   1.587   1.739  0.0728 -0.5016 -0.4439
  991MOL0     C33702   1.235   2.598   1.969  0.6573  1.1533 -0.8353
  991MOL0     C33703   1.304   2.714   1.924 -0.4755  0.2348  0.8543
  991MOL0     C33704   1.543   3.056   1.755  0.2420  0.5818  1.1750
  991MOL0     C33705   1.668   3.064   1.829  0.7094 -0.7322  0.0821
  991MOL0     C33706   1.743   3.181   1.845  0.9509 -0.3224  1.1042
  991MOL0     C33707   1.701   3.296   1.774 -0.1680  0.0163  0.1791
  991MOL0     O33708   1.757   3.420   1.798  0.3369  0.2269  0.3167
  991MOL0     C33709   1.818   3.447   1.922 -1.4153  0.0108 -0.2384
  991MOL0     C33710   1.725   3.431   2.041 -0.7642 -0.8966 -0.2100
  991MOL0     C33711   1.785   3.475   2.170  0.4654 -0.0128 -0.4026
  991MOL0     C33712   1.680   3.480   2.287 -0.6466 -0.1480 -0.4276
  991MOL0     C33713   1.649   3.347   2.326 -0.4011 -0.6547 -0.3844
  991MOL0     C33714   1.625   3.236   2.359 -0.4678  0.3185 -0.0814
  991MOL0     C33715   1.591   3.287   1.690  1.0814  1.1506  0.5758
  991MOL0     C33716   1.504   3.175   1.682  0.0386 -0.5378  0.3731
  991MOL0     C33717   1.384   3.195   1.600 -0.1657 -0.7137  1.3679
  991MOL0     H33718   1.618   2.592   1.906 -0.9084 -0.1272 -2.1654
  991MOL0     H33719   1.517   2.407   1.976 -0.8774 -1.5925 -1.0075
  991MOL0     H33720   1.402   2.230   1.968 -1.4459 -2.5374 -1.7646
  991MOL0     H33721   1.375   2.272   2.139 -3.7483 -2.0411  0.6960
  991MOL0     H33722   1.175   2.184   2.149 -0.9350  0.7407 -0.9830
  991MOL0     H33723   1.297   2.052   2.131  1.2015 -2.4563 -4.0346
  991MOL0     H33724   1.103   1.993   2.014 -1.6874 -0.6718 -2.3682
  991MOL0     H33725   1.221   2.025   1.892 -2.3827 -1.2787 -0.4671
  991MOL0     H33726   1.010   2.226   1.977  1.8495  0.3279  0.8804
  991MOL0     H33727   1.131   2.260   1.852  1.9461 -0.7837  1.9152
  991MOL0     H33728   0.905   2.205   1.770  1.6960  1.5658  1.2574
  991MOL0     H33729   1.032   2.095   1.704  0.2659  2.6881 -1.1580
  991MOL0     H33730   0.974   1.912   1.858  0.3783  0.3414 -0.4215
  991MOL0     H33731   0.852   2.016   1.942  1.6036  0.8411  0.7162
  991MOL0     H33732   0.835   1.892   1.662 -1.7444 -0.8023 -0.2814
  991MOL0     H33733   0.718   2.013   1.718 -1.5420 -1.7795 -4.1641
  991MOL0     H33734   0.659   1.842   1.908 -3.8001 -0.8425 -0.6228
  991MOL0     H33735   0.632   1.789   1.746  2.6929  0.8843 -1.0570
  991MOL0     H33736   0.894   1.721   2.016 -1.0711 -0.1710  0.7985
  991MOL0     H33737   0.957   1.440   2.096 -2.6142  4.1608 -0.2160
  991MOL0     H33738   1.015   1.344   1.964 -2.3594  0.8206 -3.2816
  991MOL0     H33739   1.121   1.609   2.053 -2.8259  0.3658 -1.8742
  991MOL0     H33740   1.199   1.456   2.060  0.9961 -0.5488 -0.6486
  991MOL0     H33741   1.180   1.645   1.823 -1.9517 -1.3441  0.0329
  991MOL0     H33742   1.162   1.467   1.791  1.1561 -1.8408  0.3274
  991MOL0     H33743   1.398   1.516   1.761 -3.3033  3.3266 -2.6988
  991MOL0     H33744   1.384   1.449   1.927 -2.1857  1.2346  1.7820
  991MOL0     H33745   1.317   1.676   1.660 -1.5128 -1.3734  1.8801
  991MOL0     H33746   1.346   1.871   1.532 -1.1694  1.2018  0.0565
  991MOL0     H33747   1.562   2.453   1.687 -1.7576 -0.9305 -0.4182
  991MOL0     H33748   1.604   2.642   1.532 -2.9853  0.8424 -2.4880
  991MOL0     H33749   1.751   2.757   1.399 -0.7968  1.5497 -1.4745
  991MOL0     H33750   1.845   2.649   1.310  3.2215  3.1679  3.2681
  991MOL0     H33751   1.785   2.753   1.097 -1.3059 -3.0367  1.1364
  991MOL0     H33752   1.674   2.863   1.159 -1.5539 -2.2764 -2.9194
  991MOL0     H33753   1.882   2.956   1.307 -0.7875 -2.2597  0.4527
  991MOL0     H33754   1.988   2.867   1.200  1.6889  2.3812 -0.9692
  991MOL0     H33755   1.780   3.055   1.090 -0.2241  1.3120 -0.2812
  991MOL0     H33756   1.907   2.966   1.005 -0.4989 -0.2900  0.1946
  991MOL0     H33757   2.070   3.065   1.152 -1.8208 -1.7450  1.6775
  991MOL0     H33758   1.934   3.180   1.205  0.3731 -0.5522  0.3125
  991MOL0     H33759   2.037   3.148   0.905  0.2616  2.4661 -0.5437
  991MOL0     H33760   1.896   3.230   0.964 -1.2916 -2.5632  1.6318
  991MOL0     H33761   2.185   3.298   1.049  0.5868 -0.3883 -1.3328
  991MOL0     H33762   2.030   3.382   1.086 -3.3162  0.3312 -3.0129
  991MOL0     H33763   2.162   3.342   0.817  0.1656  2.6812 -0.9477
  991MOL0     H33764   2.004   3.436   0.843  0.1727  1.7376 -0.8673
  991MOL0     H33765   1.643   2.384   1.198  0.8696  0.6514  0.0744
  991MOL0     H33766   1.589   2.186   1.359  2.9348 -0.7307  0.9619
  991MOL0     H33767   1.541   2.085   1.851  0.4720 -0.7982  2.5298
  991MOL0     H33768   1.514   1.894   1.995 -1.6538  2.8599 -0.3340
  991MOL0     H33769   1.127   2.595   1.982  0.6029 -1.5414 -1.2446
  991MOL0     H33770   1.243   2.803   1.913 -0.4523  0.0803 -0.7921
  991MOL0     H33771   1.687   2.970   1.879  0.9484  0.0510  1.5304
  991MOL0     H33772   1.827   3.167   1.911  0.6538  0.2240  1.6131
  991MOL0     H33773   1.851   3.551   1.920 -0.4872 -0.2751 -0.8851
  991MOL0     H33774   1.904   3.379   1.925 -1.2935  0.0890 -1.5248
  991MOL0     H33775   1.688   3.328   2.050 -2.5271 -0.1590  2.0131
  991MOL0     H33776   1.641   3.498   2.019 -0.9720 -0.2769  2.1377
  991MOL0     H33777   1.849   3.563   2.157  0.8325 -0.0189  1.1536
  991MOL0     H33778   1.862   3.405   2.203 -1.1760 -0.2205  3.5018
  991MOL0     H33779   1.724   3.526   2.376 -0.0756 -0.2387 -0.6594
  991MOL0     H33780   1.594   3.544   2.267 -0.8436 -0.5593 -0.9021
  991MOL0     H33781   1.601   3.141   2.404 -1.1747 -0.6476 -2.3383
  991MOL0     H33782   1.562   3.380   1.643  0.0691  0.5170 -0.0824
  991MOL0     H33783   1.406   3.143   1.506 -2.0496  0.5529  0.1554
  991MOL0     H33784   1.290   3.150   1.631 -0.9823 -1.6640 -2.0577
  991MOL0     H33785   1.362   3.299   1.573 -1.7642 -1.1579  0.8728
  992MOL0     O33786   1.338   7.027   7.909 -0.0474 -0.1676 -0.3987
  992MOL0     C33787   1.331   7.085   8.018 -0.3216  0.3855  0.0294
  992MOL0     O33788   1.220   7.095   8.098 -0.6354 -0.1240 -0.4349
  992MOL0     C33789   1.117   7.010   8.082  0.3353 -0.3141 -0.5268
  992MOL0     C33790   1.120   6.880   8.038  0.3185 -0.4018 -0.0534
  992MOL0     C33791   1.003   6.809   8.010  0.0985 -0.9471  0.0167
  992MOL0     C33792   0.876   6.863   8.029 -0.2251  0.1506  0.1589
  992MOL0     O33793   0.762   6.803   8.004  0.5050  0.9849  0.1511
  992MOL0     C33794   0.735   6.659   8.002 -0.7390  0.1234  0.5826
  992MOL0     C33795   0.588   6.631   7.973 -0.2152 -0.0004 -0.1339
  992MOL0     C33796   0.552   6.494   7.914  0.4298 -0.0898  0.3855
  992MOL0     C33797   0.402   6.477   7.910 -0.0586 -0.1076  0.9806
  992MOL0     C33798   0.353   6.382   7.787 -1.4355  0.4159 -1.2863
  992MOL0     C33799   0.366   6.236   7.815  0.3037 -0.3185 -0.9107
  992MOL0     C33800   0.292   6.181   7.942  0.3203  1.4284 -0.9121
  992MOL0     C33801   0.296   6.028   7.955  0.5202  0.7002  0.5193
  992MOL0     N33802   0.166   5.970   7.886  0.7895 -0.1307 -0.1778
  992MOL0     C33803   0.085   5.873   7.956 -0.1018  0.1376  0.3869
  992MOL0     C33804   0.008   5.836   7.849 -0.6040  0.2795 -0.6746
  992MOL0     C33805  -0.094   5.723   7.869  0.1402  0.0274 -0.2547
  992MOL0     C33806  -0.215   5.764   7.950 -0.1966 -0.1914  0.2622
  992MOL0     C33807  -0.323   5.648   7.960 -0.4053 -1.5273  0.5915
  992MOL0     C33808  -0.447   5.726   8.005  0.6452  0.4005  0.3454
  992MOL0     O33809  -0.556   5.629   8.025 -0.1717 -0.8295 -0.0010
  992MOL0     C33810  -0.659   5.671   8.109 -0.1373  0.0931 -0.3411
  992MOL0     C33811  -0.760   5.584   8.129 -0.8953  0.1414 -0.7500
  992MOL0     C33812  -0.871   5.619   8.212  0.3800 -0.7639  0.0036
  992MOL0     C33813  -0.890   5.745   8.271 -0.3548 -0.6282  1.0521
  992MOL0     C33814  -1.003   5.776   8.352  0.1065 -0.5684  0.3345
  992MOL0     O33815  -1.105   5.682   8.372 -0.3708  0.4636 -1.0967
  992MOL0     C33816  -1.221   5.711   8.434 -0.4717  0.4254 -0.3373
  992MOL0     C33817  -1.289   5.604   8.476 -0.0508  0.3530  0.6284
  992MOL0     C33818  -1.416   5.630   8.529  0.1270 -0.9890  0.2589
  992MOL0     C33819  -1.472   5.759   8.531 -0.4409  0.4631  0.1743
  992MOL0     O33820  -1.593   5.801   8.569 -0.8327 -0.0528 -0.4209
  992MOL0     C33821  -1.697   5.709   8.569 -0.4643  0.5895  0.0758
  992MOL0     C33822  -1.801   5.769   8.666  0.2571 -0.7579 -0.0309
  992MOL0     C33823  -1.926   5.686   8.673  1.1701 -0.1314 -0.4908
  992MOL0     C33824  -2.039   5.739   8.755 -0.9014 -0.0619  0.8155
  992MOL0     C33825  -2.177   5.688   8.730 -0.2772  0.8640  0.1343
  992MOL0     C33826  -2.286   5.706   8.838  0.4856 -0.3479  0.1844
  992MOL0     C33827  -2.302   5.855   8.877 -0.5752  1.1156  0.3685
  992MOL0     C33828  -2.439   5.873   8.945 -1.0747 -0.7505  0.8267
  992MOL0    Cl33829  -2.553   5.848   8.819  0.0243  0.2650  0.2049
  992MOL0     C33830  -1.401   5.862   8.494  0.6795 -0.0657 -0.5927
  992MOL0     C33831  -1.278   5.840   8.441 -0.3226  0.5426  0.8451
  992MOL0     O33832  -1.007   5.888   8.398 -0.0269  0.0702  0.5741
  992MOL0     C33833  -0.774   5.828   8.258  0.1742 -0.0264 -0.8695
  992MOL0     C33834  -0.668   5.795   8.170  0.8389  0.2350 -1.0960
  992MOL0     N33835   0.026   5.915   7.735 -0.2726  0.5387 -0.5962
  992MOL0     N33836   0.118   6.000   7.762 -0.1022 -0.0940 -0.9534
  992MOL0     C33837   0.879   6.986   8.094  0.6998 -0.0007 -0.2791
  992MOL0     C33838   0.995   7.055   8.129  0.9863  0.2592 -0.3523
  992MOL0     C33839   1.459   7.144   8.071  0.2832 -1.1643  0.3528
  992MOL0     C33840   1.453   7.195   8.201  0.8136  0.0227 -0.7533
  992MOL0     C33841   1.553   7.247   8.280 -0.5712  0.1147 -0.4515
  992MOL0     C33842   1.684   7.227   8.229  0.4931 -0.2660  0.2389
  992MOL0     O33843   1.791   7.262   8.309 -0.9870  1.1797  0.5969
  992MOL0     C33844   1.922   7.293   8.245  0.8002  0.3715 -0.3179
  992MOL0     C33845   1.999   7.389   8.347  0.4531 -0.5114  0.1775
  992MOL0     C33846   1.948   7.525   8.326 -0.0092  0.1416  0.3937
  992MOL0     C33847   2.044   7.628   8.382  0.6835  0.0630  0.4871
  992MOL0     C33848   1.969   7.760   8.393  0.1020 -0.3134  1.0745
  992MOL0     C33849   1.919   7.870   8.416 -0.9732 -0.7494  0.2474
  992MOL0     C33850   1.693   7.186   8.093  0.1728 -0.4544  0.1671
  992MOL0     C33851   1.588   7.148   8.012 -0.2187  0.5016  0.2730
  992MOL0     C33852   1.623   7.118   7.863  0.7016  0.5655 -0.0142
  992MOL0     H33853   1.221   6.843   8.020 -0.4677 -2.5639 -0.2661
  992MOL0     H33854   1.014   6.717   7.954 -0.2503  0.7701 -3.1159
  992MOL0     H33855   0.794   6.606   7.927 -2.6858  1.2209 -1.9032
  992MOL0     H33856   0.757   6.635   8.106 -0.9450 -0.6032  0.4638
  992MOL0     H33857   0.549   6.704   7.902 -1.4123 -0.1151  0.3891
  992MOL0     H33858   0.547   6.634   8.074  1.3954  0.9834  0.5317
  992MOL0     H33859   0.601   6.410   7.964 -1.1714 -0.8880  0.6419
  992MOL0     H33860   0.588   6.504   7.811  0.8593 -0.5678  0.4864
  992MOL0     H33861   0.361   6.453   8.008 -0.4746  1.5869  1.2442
  992MOL0     H33862   0.353   6.573   7.892 -1.9597 -1.3089 -0.6384
  992MOL0     H33863   0.250   6.399   7.756 -2.9089  0.3997  2.8863
  992MOL0     H33864   0.418   6.419   7.708  0.0814  2.6264  0.8423
  992MOL0     H33865   0.349   6.165   7.734 -1.1218 -2.2525  0.9840
  992MOL0     H33866   0.467   6.209   7.845 -0.1027 -0.1417  0.7303
  992MOL0     H33867   0.193   6.227   7.948  0.0402  0.6655  1.7208
  992MOL0     H33868   0.343   6.208   8.035 -3.7555 -1.3288  2.4686
  992MOL0     H33869   0.389   5.988   7.913 -0.3642  0.2785 -1.1409
  992MOL0     H33870   0.305   5.998   8.059  2.1435  0.3925  0.3255
  992MOL0     H33871   0.102   5.818   8.048  3.1096 -2.8666 -1.6912
  992MOL0     H33872  -0.121   5.684   7.771  1.4425  0.6131 -0.8778
  992MOL0     H33873  -0.041   5.644   7.923  1.3448  0.4161 -0.8252
  992MOL0     H33874  -0.193   5.798   8.051  0.0147  1.4139 -0.2966
  992MOL0     H33875  -0.253   5.854   7.900  0.9918 -0.6794 -1.6566
  992MOL0     H33876  -0.270   5.578   8.026  1.4022 -1.3383 -0.5945
  992MOL0     H33877  -0.336   5.603   7.862 -0.6971  0.4577 -0.3311
  992MOL0     H33878  -0.453   5.804   7.929  2.2993 -0.9498 -1.2591
  992MOL0     H33879  -0.429   5.774   8.101 -0.4161  1.9364 -0.1898
  992MOL0     H33880  -0.748   5.481   8.096  1.8268 -0.0267  0.4779
  992MOL0     H33881  -0.948   5.543   8.218  1.8735 -2.5091 -1.7949
  992MOL0     H33882  -1.252   5.503   8.464  0.7472  0.4830  1.8230
  992MOL0     H33883  -1.475   5.544   8.557 -1.3821  0.1833  0.8315
  992MOL0     H33884  -1.728   5.694   8.465  1.2703 -1.6200 -0.1929
  992MOL0     H33885  -1.674   5.612   8.613 -2.5927  1.0347  2.4968
  992MOL0     H33886  -1.755   5.793   8.763 -1.1668  0.7957  0.3168
  992MOL0     H33887  -1.827   5.865   8.621  0.5307 -2.1372 -3.4026
  992MOL0     H33888  -1.971   5.673   8.574  1.7589  1.2907 -0.9725
  992MOL0     H33889  -1.903   5.580   8.687 -1.8191 -0.7630  0.2223
  992MOL0     H33890  -2.039   5.847   8.738  0.2389 -0.0457  0.8630
  992MOL0     H33891  -2.011   5.731   8.861  0.9828  2.2176  0.5802
  992MOL0     H33892  -2.161   5.581   8.718  0.2532  0.4483  3.4748
  992MOL0     H33893  -2.209   5.742   8.640  1.6379 -0.4198 -1.3987
  992MOL0     H33894  -2.381   5.655   8.817 -2.2666  3.7019  1.5589
  992MOL0     H33895  -2.258   5.664   8.935  2.9423  2.3807  0.7876
  992MOL0     H33896  -2.286   5.917   8.789  1.3544 -1.4747 -1.2648
  992MOL0     H33897  -2.221   5.875   8.948  0.0388 -0.9089  0.3043
  992MOL0     H33898  -2.458   5.797   9.022 -2.2342 -1.3788 -0.0446
  992MOL0     H33899  -2.447   5.969   8.996  1.0832 -0.2875  0.3491
  992MOL0     H33900  -1.447   5.960   8.489  0.4394  0.1067  2.5828
  992MOL0     H33901  -1.226   5.929   8.405 -0.6113  0.4340  0.1406
  992MOL0     H33902  -0.779   5.919   8.316  2.0003 -1.0341  0.9761
  992MOL0     H33903  -0.598   5.874   8.146  2.4353  0.4326  3.3406
  992MOL0     H33904   0.780   7.021   8.121 -0.9814 -2.7373 -2.2692
  992MOL0     H33905   0.976   7.147   8.181  1.8321  0.3447 -0.1757
  992MOL0     H33906   1.358   7.194   8.254 -0.3566 -2.3410 -2.6832
  992MOL0     H33907   1.526   7.291   8.376 -1.9353 -0.0965 -0.7319
  992MOL0     H33908   1.900   7.336   8.147 -1.1723  0.8937  0.2948
  992MOL0     H33909   1.976   7.199   8.231 -2.9491 -1.9995 -0.5385
  992MOL0     H33910   2.106   7.397   8.323 -0.3620  3.1535 -3.3369
  992MOL0     H33911   1.997   7.357   8.451  5.1248 -3.3276 -0.2883
  992MOL0     H33912   1.851   7.534   8.376  0.6602  2.1193  1.4682
  992MOL0     H33913   1.926   7.548   8.221  0.5377  1.4817  0.5492
  992MOL0     H33914   2.064   7.604   8.487  2.4573  0.1769  0.2052
  992MOL0     H33915   2.134   7.642   8.321  0.4549  0.4649  0.2359
  992MOL0     H33916   1.869   7.960   8.446  1.5377  0.3574  1.3162
  992MOL0     H33917   1.783   7.189   8.032 -0.8038  2.2987 -1.2933
  992MOL0     H33918   1.569   7.191   7.803 -0.8868 -0.1945  0.4171
  992MOL0     H33919   1.729   7.119   7.837 -0.1090  1.3988 -3.7517
  992MOL0     H33920   1.580   7.018   7.848  0.4642  0.7079 -0.2721
  993MOL0     O33921   3.681   0.707   9.912  0.3190 -0.5885 -0.3234
  993MOL0     C33922   3.781   0.652   9.964  0.3435 -0.4565 -0.6556
  993MOL0     O33923   3.808   0.650  10.097  0.0268 -0.5387  0.6687
  993MOL0     C33924   3.714   0.704  10.184 -1.1365 -0.0288 -0.2089
  993MOL0     C33925   3.756   0.812  10.261 -0.1184  0.1526  0.6144
  993MOL0     C33926   3.668   0.876  10.344  0.3549 -0.2839  0.6970
  993MOL0     C33927   3.534   0.818  10.360 -0.7642 -0.6155 -1.3589
  993MOL0     O33928   3.437   0.853  10.456  0.1036 -0.3944  0.2691
  993MOL0     C33929   3.447   0.995  10.484  0.4376  0.3228  0.2959
  993MOL0     C33930   3.322   1.050  10.549 -0.2246  0.9875 -0.2384
  993MOL0     C33931   3.321   1.210  10.556  0.2459 -0.0223  0.3802
  993MOL0     C33932   3.177   1.264  10.574  0.4606  0.7087 -0.2259
  993MOL0     C33933   3.097   1.175  10.678  0.1031  1.3661  0.3214
  993MOL0     C33934   2.982   1.247  10.744  0.3339 -0.7106  0.2559
  993MOL0     C33935   2.913   1.143  10.832  1.0457  0.0121  0.9812
  993MOL0     C33936   2.782   1.195  10.893  0.0067 -0.3640  0.8922
  993MOL0     N33937   2.733   1.084  10.975 -0.1690  0.2696 -0.1295
  993MOL0     C33938   2.600   1.049  10.984  0.3925  0.6680 -0.1030
  993MOL0     C33939   2.588   0.952  11.083 -0.5011  0.5471 -0.5717
  993MOL0     C33940   2.463   0.882  11.119 -0.1004  0.5145  0.0178
  993MOL0     C33941   2.460   0.879  11.278 -0.9171 -0.1998  1.1124
  993MOL0     C33942   2.354   0.798  11.335  0.7011  0.0885 -0.2126
  993MOL0     C33943   2.207   0.859  11.338 -0.0201  0.1269 -0.8568
  993MOL0     O33944   2.207   0.945  11.452 -0.3658 -0.4627 -0.3100
  993MOL0     C33945   2.079   0.993  11.487 -0.0367 -0.8081 -0.4072
  993MOL0     C33946   2.057   0.997  11.625  0.2387  0.2549 -0.2917
  993MOL0     C33947   1.936   1.044  11.675  0.2238  0.5293  0.2668
  993MOL0     C33948   1.841   1.111  11.594  0.0667 -0.3483  0.7081
  993MOL0     C33949   1.717   1.169  11.641 -0.2546 -0.0453  0.5742
  993MOL0     O33950   1.724   1.242  11.750  0.0680 -0.2505 -0.0060
  993MOL0     C33951   1.614   1.277  11.819 -0.4051  0.2186 -0.2267
  993MOL0     C33952   1.539   1.185  11.903 -1.7310  0.8956 -0.5373
  993MOL0     C33953   1.430   1.222  11.980 -0.2442  1.4854  0.2170
  993MOL0     C33954   1.383   1.348  11.978 -0.3931  0.2803 -1.1476
  993MOL0     O33955   1.278   1.386  12.048  0.9205 -0.5574 -0.6975
  993MOL0     C33956   1.175   1.288  12.080  0.3605 -0.1472  0.6745
  993MOL0     C33957   1.036   1.346  12.070  0.4771  0.4932 -0.2306
  993MOL0     C33958   1.014   1.456  12.166  0.4847 -0.4700  0.2315
  993MOL0     C33959   0.862   1.484  12.158  0.6045 -0.3846 -0.1673
  993MOL0     C33960   0.835   1.612  12.232  0.3093  0.4761  0.2951
  993MOL0     C33961   0.685   1.633  12.264  0.0681 -0.3844  0.1802
  993MOL0     C33962   0.659   1.783  12.306 -0.0589 -0.5086  0.6721
  993MOL0     C33963   0.510   1.807  12.348  0.1000 -0.1909  0.4804
  993MOL0    Cl33964   0.488   1.976  12.406  0.4310 -0.0056 -0.2425
  993MOL0     C33965   1.446   1.442  11.896  0.4587  0.0066 -0.5444
  993MOL0     C33966   1.567   1.411  11.825 -0.6872 -0.0142  0.6271
  993MOL0     O33967   1.613   1.154  11.567 -0.6100 -0.0352  0.3966
  993MOL0     C33968   1.870   1.108  11.452 -0.0640 -0.4124 -0.8668
  993MOL0     C33969   1.988   1.047  11.397 -1.3248  0.2069  0.4851
  993MOL0     N33970   2.721   0.937  11.127  0.4389  0.3978 -0.3312
  993MOL0     N33971   2.797   1.012  11.064 -0.6962 -0.9453  0.0954
  993MOL0     C33972   3.497   0.711  10.274 -0.1492  0.7978  0.1745
  993MOL0     C33973   3.591   0.650  10.197  0.5443  0.2053  0.4133
  993MOL0     C33974   3.881   0.592   9.865  0.9462  0.7591  0.4245
  993MOL0     C33975   3.870   0.624   9.726  0.0210  0.4288  0.7783
  993MOL0     C33976   3.959   0.567   9.634  0.4992 -0.7331  0.3901
  993MOL0     C33977   4.069   0.484   9.674  0.1292 -0.4118  1.3126
  993MOL0     O33978   4.158   0.426   9.585  0.2155  0.3323 -0.5525
  993MOL0     C33979   4.201   0.503   9.479  0.5436  0.5813  0.5749
  993MOL0     C33980   4.356   0.535   9.483  0.6273 -0.2244  0.0597
  993MOL0     C33981   4.444   0.421   9.535 -0.5465 -0.7142  0.6226
  993MOL0     C33982   4.411   0.278   9.492 -0.6929 -0.3372 -0.5370
  993MOL0     C33983   4.522   0.183   9.528  0.4713  0.3666 -0.8652
  993MOL0     C33984   4.613   0.107   9.534 -1.3858  0.3550  0.4016
  993MOL0     C33985   4.079   0.457   9.811 -0.4133  0.1176  0.3584
  993MOL0     C33986   3.983   0.505   9.909 -0.2580 -0.5116  0.8072
  993MOL0     C33987   3.985   0.446  10.056 -0.7350 -0.7496  1.1011
  993MOL0     H33988   3.857   0.850  10.244 -0.0667 -0.7468 -1.3444
  993MOL0     H33989   3.683   0.959  10.411  0.8522 -0.0611  0.3202
  993MOL0     H33990   3.529   1.009  10.555  0.1582  0.0044  0.6854
  993MOL0     H33991   3.465   1.055  10.395 -1.6536 -4.2175 -3.6322
  993MOL0     H33992   3.305   1.006  10.648 -3.3658  0.8509 -0.7419
  993MOL0     H33993   3.240   1.014  10.486 -0.2239  0.5625 -0.0037
  993MOL0     H33994   3.366   1.255  10.467 -0.6739 -1.2961 -0.7677
  993MOL0     H33995   3.388   1.240  10.637  0.3096 -1.6288  0.9749
  993MOL0     H33996   3.187   1.371  10.594  3.0750  0.3125  1.1103
  993MOL0     H33997   3.129   1.264  10.476  4.1271 -1.5782 -2.2697
  993MOL0     H33998   3.064   1.078  10.640  1.4793 -0.1374  2.7458
  993MOL0     H33999   3.171   1.146  10.752  0.4577  2.5293  0.4336
  993MOL0     H34000   3.009   1.331  10.808 -0.4660  0.3250 -0.7138
  993MOL0     H34001   2.910   1.283  10.669  0.5733 -1.4847 -0.3603
  993MOL0     H34002   2.984   1.101  10.904  0.4238 -1.9672  0.5034
  993MOL0     H34003   2.885   1.059  10.768 -2.3213 -0.6106  2.9990
  993MOL0     H34004   2.791   1.284  10.956  0.1513 -0.4929  1.0551
  993MOL0     H34005   2.708   1.217  10.816 -1.7657 -1.5265  2.1656
  993MOL0     H34006   2.521   1.099  10.930  0.8267  0.4993 -0.9033
  993MOL0     H34007   2.375   0.942  11.092  0.7119  1.3815 -0.7824
  993MOL0     H34008   2.447   0.780  11.081  1.2556 -0.1797  1.1976
  993MOL0     H34009   2.558   0.835  11.300 -0.7083  0.2298  1.0607
  993MOL0     H34010   2.463   0.982  11.314  3.0422 -0.9714  3.6852
  993MOL0     H34011   2.374   0.780  11.441 -1.1957  2.3005  0.6156
  993MOL0     H34012   2.360   0.707  11.276 -0.0876 -1.1187  1.4733
  993MOL0     H34013   2.135   0.777  11.350  2.2614 -1.5915  3.2294
  993MOL0     H34014   2.188   0.914  11.246 -2.3285 -2.4068 -2.0459
  993MOL0     H34015   2.135   0.957  11.688 -0.1706  0.0370  0.0808
  993MOL0     H34016   1.920   1.045  11.782  3.2387  2.5450  0.8261
  993MOL0     H34017   1.556   1.078  11.891  2.3427  1.6471 -3.6318
  993MOL0     H34018   1.382   1.137  12.028  4.1333 -1.5790 -0.1818
  993MOL0     H34019   1.186   1.209  12.005  3.5825  1.5813 -0.8532
  993MOL0     H34020   1.178   1.240  12.179  3.2964 -1.3353  0.1077
  993MOL0     H34021   1.009   1.371  11.966  1.0859 -0.6724 -0.6867
  993MOL0     H34022   0.974   1.259  12.093  1.8196 -0.2005  0.8777
  993MOL0     H34023   1.041   1.422  12.266 -1.6422 -0.2184  0.9398
  993MOL0     H34024   1.068   1.550  12.150 -0.8765  0.4836  0.9575
  993MOL0     H34025   0.816   1.397  12.206  2.2435  0.2039  2.7254
  993MOL0     H34026   0.835   1.486  12.052 -1.1455 -0.9005  0.2498
  993MOL0     H34027   0.878   1.690  12.168  2.0749 -0.4327  0.2998
  993MOL0     H34028   0.883   1.616  12.330 -0.5464  4.9396  0.7112
  993MOL0     H34029   0.622   1.613  12.177 -1.1074 -1.0260  1.1423
  993MOL0     H34030   0.649   1.555  12.332  0.1059 -2.4222 -2.0087
  993MOL0     H34031   0.667   1.852  12.222 -0.9731  0.3873  1.2932
  993MOL0     H34032   0.729   1.810  12.386  0.5061 -1.4233  0.5047
  993MOL0     H34033   0.444   1.801  12.261  1.7841  3.2535 -1.2198
  993MOL0     H34034   0.489   1.738  12.431 -1.6848  1.1725  1.2357
  993MOL0     H34035   1.412   1.544  11.889 -1.5922 -0.6790 -1.3766
  993MOL0     H34036   1.626   1.495  11.790 -1.1322  1.1699  2.5561
  993MOL0     H34037   1.790   1.144  11.387  1.2204  3.1080 -0.7514
  993MOL0     H34038   2.005   1.034  11.291  0.7663 -0.0533  0.8117
  993MOL0     H34039   3.396   0.672  10.275  1.3043 -3.6101  1.7298
  993MOL0     H34040   3.559   0.568  10.134 -1.0413  1.7845 -0.9582
  993MOL0     H34041   3.794   0.691   9.688 -0.5474 -0.2266  0.7591
  993MOL0     H34042   3.949   0.597   9.530 -3.3527  2.1152  1.3536
  993MOL0     H34043   4.168   0.607   9.485  0.6936  0.8603 -2.2295
  993MOL0     H34044   4.177   0.454   9.384 -2.3670  2.2908  0.3235
  993MOL0     H34045   4.363   0.627   9.541 -2.1292  0.3659 -0.3846
  993MOL0     H34046   4.391   0.575   9.388  1.1351 -1.5989 -0.3644
  993MOL0     H34047   4.441   0.418   9.644 -0.8911 -1.2821  0.5984
  993MOL0     H34048   4.549   0.425   9.503 -1.2079 -0.2999 -1.7275
  993MOL0     H34049   4.311   0.262   9.534 -0.3962  2.5929  1.5414
  993MOL0     H34050   4.393   0.273   9.384 -1.0337 -0.8078 -0.4643
  993MOL0     H34051   4.683   0.029   9.555 -0.8049  1.0304  0.9895
  993MOL0     H34052   4.157   0.391   9.848 -0.0110  1.1806  1.4841
  993MOL0     H34053   4.005   0.519  10.134  2.2000 -1.7902  1.4433
  993MOL0     H34054   3.890   0.393  10.070 -0.0810 -1.4906  3.1167
  993MOL0     H34055   4.061   0.367  10.063  1.3436  1.0104 -0.2888
  994MOL0     O34056   4.019   5.468  10.141  0.3605  0.6367  0.6547
  994MOL0     C34057   4.090   5.389  10.204 -0.4029  0.6316  0.3184
  994MOL0     O34058   4.086   5.255  10.194 -0.0680  1.2003  0.3587
  994MOL0     C34059   4.020   5.199  10.088 -0.3409  0.4366  0.4195
  994MOL0     C34060   3.872   5.188  10.089 -0.4113  1.3452  0.3939
  994MOL0     C34061   3.813   5.092  10.001 -0.3333  0.7552 -0.4702
  994MOL0     C34062   3.894   5.002   9.927  0.1904  0.1028 -0.8253
  994MOL0     O34063   3.844   4.906   9.838 -0.3735  0.9044  0.5108
  994MOL0     C34064   3.708   4.889   9.837 -0.3002 -0.1754 -0.7058
  994MOL0     C34065   3.656   4.803   9.954 -0.3816 -0.7679  0.3078
  994MOL0     C34066   3.703   4.661   9.932  0.3873  0.4351 -0.5917
  994MOL0     C34067   3.586   4.555   9.917 -0.2187 -0.6722  0.3533
  994MOL0     C34068   3.493   4.526  10.034 -0.4483  0.2514  0.3200
  994MOL0     C34069   3.555   4.487  10.171 -0.4009  0.0842  0.5498
  994MOL0     C34070   3.441   4.434  10.266  0.4791 -0.1018  0.8058
  994MOL0     C34071   3.490   4.409  10.409 -0.2141 -0.0768  1.2389
  994MOL0     N34072   3.376   4.390  10.501 -0.2823  0.2934  0.1168
  994MOL0     C34073   3.360   4.459  10.618 -0.1767  0.4613  0.6845
  994MOL0     C34074   3.238   4.434  10.664  0.1139 -0.0300 -0.3765
  994MOL0     C34075   3.163   4.496  10.785 -0.0842  1.1714 -0.8051
  994MOL0     C34076   3.119   4.385  10.888 -0.2112 -0.5570 -0.0894
  994MOL0     C34077   3.045   4.431  11.016 -0.0460 -1.4540  0.3668
  994MOL0     C34078   3.075   4.339  11.136  0.2199 -0.0000  0.1777
  994MOL0     O34079   3.216   4.331  11.139 -0.3762 -0.1350  0.0012
  994MOL0     C34080   3.300   4.437  11.177  0.0561 -0.7014  0.3293
  994MOL0     C34081   3.442   4.427  11.155 -0.0715  0.0247 -0.6213
  994MOL0     C34082   3.518   4.535  11.181 -0.5801 -0.8223 -0.1342
  994MOL0     C34083   3.469   4.663  11.234 -0.3682  0.5118  1.4211
  994MOL0     C34084   3.560   4.776  11.245  0.9689 -0.4426 -0.4218
  994MOL0     O34085   3.509   4.898  11.293  0.4414  0.5040 -0.0435
  994MOL0     C34086   3.586   4.991  11.358  0.1500 -0.2658 -0.1078
  994MOL0     C34087   3.516   5.082  11.438  0.5193  0.2716  0.8822
  994MOL0     C34088   3.575   5.197  11.500 -0.0730 -0.1852  0.3081
  994MOL0     C34089   3.713   5.220  11.495 -0.8858 -0.4192 -0.5000
  994MOL0     O34090   3.781   5.342  11.535  0.9142 -0.0530 -0.3003
  994MOL0     C34091   3.703   5.449  11.598 -0.2711  0.3704 -0.1834
  994MOL0     C34092   3.787   5.585  11.597  0.2742 -0.2462  0.4375
  994MOL0     C34093   3.933   5.567  11.634 -1.0428  0.1193  0.6569
  994MOL0     C34094   4.008   5.699  11.622  0.0255  0.5482  0.1116
  994MOL0     C34095   4.161   5.666  11.623  0.4219 -0.2829  0.2568
  994MOL0     C34096   4.245   5.790  11.616  0.5206 -0.4416  0.1819
  994MOL0     C34097   4.248   5.839  11.473  0.4231 -0.6572  0.5924
  994MOL0     C34098   4.306   5.973  11.461 -0.9181 -0.3829  0.9809
  994MOL0    Cl34099   4.336   5.997  11.286  0.3056  0.3152  0.3815
  994MOL0     C34100   3.779   5.123  11.417 -0.1829  0.9015  0.3153
  994MOL0     C34101   3.725   5.018  11.346  1.4429  0.4017 -0.1257
  994MOL0     O34102   3.678   4.747  11.232  0.6706  0.3835  0.4664
  994MOL0     C34103   3.333   4.660  11.274 -0.6283  0.0167 -0.1711
  994MOL0     C34104   3.248   4.551  11.246  0.1048  0.0482 -0.8877
  994MOL0     N34105   3.178   4.360  10.566  0.6535 -0.5832 -0.3654
  994MOL0     N34106   3.261   4.329  10.478 -0.4843  0.8826  0.7474
  994MOL0     C34107   4.034   5.014   9.938  0.0542 -0.8510  0.4083
  994MOL0     C34108   4.092   5.118  10.016 -0.3246  0.4206  0.9311
  994MOL0     C34109   4.170   5.444  10.310 -0.0684 -0.0967 -0.1437
  994MOL0     C34110   4.293   5.368  10.329 -0.4936 -0.6565  0.6400
  994MOL0     C34111   4.385   5.403  10.420 -0.3343 -0.3649 -0.2855
  994MOL0     C34112   4.373   5.518  10.497  0.1250 -0.3958  0.2918
  994MOL0     O34113   4.459   5.566  10.588  0.4983  0.4062 -0.2661
  994MOL0     C34114   4.552   5.468  10.642 -0.5934  0.4326  0.6666
  994MOL0     C34115   4.612   5.526  10.767  0.6974  0.4942  0.7624
  994MOL0     C34116   4.683   5.413  10.835 -0.4522 -0.0532  0.0501
  994MOL0     C34117   4.760   5.451  10.951  0.1492 -0.3188 -0.4172
  994MOL0     C34118   4.882   5.528  10.926 -1.0853 -0.7591  0.9230
  994MOL0     C34119   5.000   5.569  10.908  0.6706 -0.0051 -1.4992
  994MOL0     C34120   4.260   5.597  10.470  0.5224 -0.5351 -0.6840
  994MOL0     C34121   4.153   5.555  10.392 -0.4494 -0.3103 -0.1227
  994MOL0     C34122   4.040   5.649  10.374 -0.1297  0.4516 -0.1605
  994MOL0     H34123   3.822   5.250  10.162 -0.4071  2.2285 -0.3323
  994MOL0     H34124   3.705   5.093  10.000 -0.4722 -2.6489 -0.9438
  994MOL0     H34125   3.656   4.986   9.837  0.3394  0.2860  2.7888
  994MOL0     H34126   3.690   4.827   9.749 -0.5185 -1.2065  0.0542
  994MOL0     H34127   3.547   4.804   9.952 -0.4692 -2.6164  1.6574
  994MOL0     H34128   3.697   4.840  10.049  1.6082 -1.2421 -0.3086
  994MOL0     H34129   3.769   4.630  10.014  1.2923  2.0367 -0.6764
  994MOL0     H34130   3.764   4.637   9.845 -0.2666 -2.4782 -0.3689
  994MOL0     H34131   3.516   4.576   9.836 -0.9239 -0.7756  0.9319
  994MOL0     H34132   3.638   4.460   9.897 -2.2894 -1.1105 -4.0388
  994MOL0     H34133   3.431   4.616  10.044 -3.9439 -1.9349  0.0471
  994MOL0     H34134   3.445   4.433  10.002 -0.3584 -0.0389  1.0078
  994MOL0     H34135   3.632   4.411  10.159  0.1956  1.0551 -2.8200
  994MOL0     H34136   3.600   4.574  10.220 -0.1011  0.9418 -1.1738
  994MOL0     H34137   3.406   4.340  10.222  2.7374 -1.0206  0.8085
  994MOL0     H34138   3.354   4.499  10.269 -0.6575 -1.2560 -2.9201
  994MOL0     H34139   3.553   4.319  10.404 -0.5317 -0.4244 -4.7834
  994MOL0     H34140   3.557   4.485  10.449 -0.4095  0.9397 -0.2672
  994MOL0     H34141   3.438   4.525  10.656  1.0453 -1.0005  0.8207
  994MOL0     H34142   3.229   4.565  10.838  0.3578  0.7187 -0.7502
  994MOL0     H34143   3.078   4.552  10.746 -0.6031  0.4909 -0.6862
  994MOL0     H34144   3.045   4.311  10.855  0.5829 -2.2781  1.8305
  994MOL0     H34145   3.206   4.325  10.915  0.5682  1.1058  1.3102
  994MOL0     H34146   2.936   4.442  11.016  0.1493  1.4485  0.3721
  994MOL0     H34147   3.078   4.531  11.046 -2.8669 -0.7037  1.2244
  994MOL0     H34148   3.040   4.236  11.128  0.8874 -0.2655  0.4968
  994MOL0     H34149   3.023   4.378  11.224 -0.2950 -1.4659  0.5411
  994MOL0     H34150   3.486   4.335  11.118  0.8313 -0.3213  1.1785
  994MOL0     H34151   3.620   4.528  11.144 -0.6046  1.4576 -0.8011
  994MOL0     H34152   3.410   5.060  11.427  1.3066 -2.4703 -3.2045
  994MOL0     H34153   3.518   5.264  11.564  3.2190  3.0436  0.1798
  994MOL0     H34154   3.610   5.459  11.543 -0.8857  1.8645  1.0748
  994MOL0     H34155   3.677   5.424  11.701  0.5373 -2.0511 -0.4922
  994MOL0     H34156   3.771   5.638  11.502  0.2648 -0.1371  0.4997
  994MOL0     H34157   3.749   5.637  11.685  0.0964 -3.5965  2.4885
  994MOL0     H34158   3.950   5.536  11.737 -1.6839  2.3976  1.4922
  994MOL0     H34159   3.979   5.501  11.559  1.7002  3.4433 -0.8430
  994MOL0     H34160   3.976   5.757  11.708  0.5444 -0.6613  1.1511
  994MOL0     H34161   3.980   5.752  11.530  0.8352  0.3801 -0.2421
  994MOL0     H34162   4.190   5.598  11.543 -1.9950 -1.2319  0.1101
  994MOL0     H34163   4.193   5.630  11.722  2.3229  2.4262  0.7432
  994MOL0     H34164   4.212   5.860  11.693 -0.3392 -2.1584  1.4370
  994MOL0     H34165   4.347   5.760  11.642  2.0750  2.9879 -1.3439
  994MOL0     H34166   4.143   5.839  11.442 -0.0345 -1.3841  2.0130
  994MOL0     H34167   4.300   5.765  11.412 -1.2425 -0.7392 -0.7852
  994MOL0     H34168   4.236   6.051  11.495  0.4831  0.9775  0.8452
  994MOL0     H34169   4.397   5.978  11.521 -0.2005  2.6599 -0.1970
  994MOL0     H34170   3.886   5.140  11.411  0.7646 -3.4859  0.9118
  994MOL0     H34171   3.781   4.948  11.286 -0.4939 -0.6436 -0.8008
  994MOL0     H34172   3.298   4.748  11.328  0.3969 -0.7588  1.8762
  994MOL0     H34173   3.145   4.575  11.269  0.9156  1.6306  1.5375
  994MOL0     H34174   4.116   4.957   9.897  0.6543  0.4936 -0.3083
  994MOL0     H34175   4.199   5.130  10.028  0.1031  1.6684 -2.7699
  994MOL0     H34176   4.317   5.289  10.258  0.1848  1.0278 -1.0777
  994MOL0     H34177   4.473   5.348  10.449 -2.4016 -2.7531  2.0564
  994MOL0     H34178   4.646   5.456  10.587  1.6285  2.9850  3.5480
  994MOL0     H34179   4.510   5.368  10.655  3.2122 -1.8254 -2.0494
  994MOL0     H34180   4.533   5.564  10.833 -0.2461  0.3335 -0.2306
  994MOL0     H34181   4.682   5.605  10.740 -1.9237  1.6384 -3.6779
  994MOL0     H34182   4.752   5.366  10.764 -1.0345  0.4728 -0.8896
  994MOL0     H34183   4.604   5.344  10.865 -1.9310  2.5288  2.5844
  994MOL0     H34184   4.693   5.505  11.018  0.6987 -0.8458  0.5830
  994MOL0     H34185   4.801   5.366  11.007  0.3812  1.4647  2.2772
  994MOL0     H34186   5.093   5.620  10.917  0.0254  0.9874 -0.0507
  994MOL0     H34187   4.256   5.685  10.534  3.5894 -0.9504  0.2703
  994MOL0     H34188   4.021   5.671  10.269 -0.3028  0.7442 -0.0686
  994MOL0     H34189   3.948   5.601  10.408 -0.2876 -0.6152 -1.9315
  994MOL0     H34190   4.060   5.745  10.422  1.0082 -0.3700  1.1041
  995MOL0     O34191   0.551   5.930  10.209  0.3132 -0.3766 -0.0466
  995MOL0     C34192   0.534   6.054  10.210  0.4429 -0.4939  0.1169
  995MOL0     O34193   0.473   6.120  10.100  0.8865 -0.7590 -0.0765
  995MOL0     C34194   0.454   6.051   9.980  0.1927  0.8162 -0.2589
  995MOL0     C34195   0.331   5.984   9.954 -0.4542 -0.1609  0.1856
  995MOL0     C34196   0.310   5.909   9.830 -0.1359  0.0791 -0.4056
  995MOL0     C34197   0.412   5.920   9.734 -0.9059  0.2925  0.2062
  995MOL0     O34198   0.410   5.864   9.605 -0.1099  0.1139  0.8669
  995MOL0     C34199   0.283   5.816   9.559  0.1616 -0.4273 -0.2495
  995MOL0     C34200   0.284   5.771   9.410 -0.6144 -0.0474  0.4183
  995MOL0     C34201   0.136   5.767   9.365  0.0437  0.2494 -0.2970
  995MOL0     C34202   0.135   5.772   9.210  0.1472 -0.0783 -0.8176
  995MOL0     C34203  -0.009   5.814   9.168  0.1313 -0.6959  0.1787
  995MOL0     C34204  -0.100   5.689   9.174 -0.5566 -0.4530 -0.2089
  995MOL0     C34205  -0.251   5.720   9.145 -0.4434  0.4738  0.4984
  995MOL0     C34206  -0.323   5.822   9.235 -0.4298 -0.6096 -0.6563
  995MOL0     N34207  -0.306   5.786   9.376  0.6329 -0.1955 -0.0789
  995MOL0     C34208  -0.380   5.693   9.443  0.4852  0.3211 -0.0177
  995MOL0     C34209  -0.329   5.695   9.569 -0.5326  0.1266 -0.7062
  995MOL0     C34210  -0.378   5.597   9.677 -0.3702 -1.1352 -0.2923
  995MOL0     C34211  -0.498   5.509   9.632  0.4644  0.1591  0.8343
  995MOL0     C34212  -0.521   5.373   9.707  0.2246 -0.4819  0.0316
  995MOL0     C34213  -0.541   5.383   9.861  0.0774 -0.5837  0.0548
  995MOL0     O34214  -0.657   5.464   9.897 -0.4142 -0.0961  0.3088
  995MOL0     C34215  -0.737   5.406   9.989  0.5393 -1.0114 -0.5507
  995MOL0     C34216  -0.816   5.287   9.971  1.1493 -0.2496 -0.2002
  995MOL0     C34217  -0.905   5.244  10.067 -0.9354 -1.0723 -1.0365
  995MOL0     C34218  -0.920   5.308  10.191  0.1402  0.6412  0.4130
  995MOL0     C34219  -1.020   5.255  10.284  0.3806 -0.1210  0.3747
  995MOL0     O34220  -1.018   5.307  10.404 -0.5198 -0.6344 -0.4357
  995MOL0     C34221  -1.123   5.296  10.495  0.5913  0.0866 -0.6883
  995MOL0     C34222  -1.210   5.184  10.498  0.3449  0.4746  0.4447
  995MOL0     C34223  -1.319   5.181  10.596 -0.3820 -0.8816  0.4921
  995MOL0     C34224  -1.328   5.282  10.691  0.3219 -0.2640  0.7107
  995MOL0     O34225  -1.433   5.285  10.779 -0.0047  0.1835  0.2058
  995MOL0     C34226  -1.513   5.162  10.811  0.3942  0.0613 -0.5950
  995MOL0     C34227  -1.609   5.190  10.931 -0.3704  0.3543  1.0508
  995MOL0     C34228  -1.530   5.210  11.060 -0.0382 -0.7884 -0.0164
  995MOL0     C34229  -1.605   5.165  11.181 -0.1693  0.1293 -0.1360
  995MOL0     C34230  -1.548   5.179  11.319  0.4729  1.0578 -0.3698
  995MOL0     C34231  -1.469   5.309  11.354 -0.2027 -0.3927 -0.8844
  995MOL0     C34232  -1.559   5.426  11.344 -0.0220 -0.7390  0.3320
  995MOL0     C34233  -1.499   5.556  11.383  0.2414 -0.0352 -0.2976
  995MOL0    Cl34234  -1.336   5.589  11.300  0.1600 -0.0090 -0.0912
  995MOL0     C34235  -1.240   5.389  10.682  0.4525  0.1149  0.4686
  995MOL0     C34236  -1.138   5.399  10.589 -0.8406 -0.8006 -1.0376
  995MOL0     O34237  -1.103   5.194  10.232  0.3415 -0.3369 -0.1850
  995MOL0     C34238  -0.852   5.430  10.208 -0.3433  0.2515  0.3952
  995MOL0     C34239  -0.758   5.475  10.113  0.7177  0.7149  0.8722
  995MOL0     N34240  -0.225   5.783   9.566  0.0660 -0.6207  0.2498
  995MOL0     N34241  -0.220   5.846   9.453 -0.5286  1.7727 -0.1366
  995MOL0     C34242   0.524   5.993   9.756  0.4327  0.1239 -0.5925
  995MOL0     C34243   0.549   6.060   9.878  0.1285  0.2765 -0.7500
  995MOL0     C34244   0.565   6.131  10.337  0.2051  0.2541  0.0178
  995MOL0     C34245   0.543   6.265  10.336  0.8579 -0.4574  0.2856
  995MOL0     C34246   0.572   6.351  10.437  0.2929  0.5303  0.6615
  995MOL0     C34247   0.629   6.293  10.553  0.2475 -0.1123  0.1934
  995MOL0     O34248   0.653   6.382  10.656  0.1454  0.0555  0.1294
  995MOL0     C34249   0.724   6.346  10.773  0.3109  1.0547  0.2136
  995MOL0     C34250   0.697   6.456  10.867  0.9930  0.1744 -0.6742
  995MOL0     C34251   0.777   6.580  10.826 -0.6374 -0.1872  0.9475
  995MOL0     C34252   0.790   6.687  10.929  0.9105 -0.2961 -0.1903
  995MOL0     C34253   0.836   6.821  10.883 -0.2356  0.4841  0.2001
  995MOL0     C34254   0.877   6.930  10.842 -0.0134  0.4230  0.9304
  995MOL0     C34255   0.660   6.159  10.556 -0.4816  0.0095 -0.0481
  995MOL0     C34256   0.625   6.073  10.452  0.4428 -0.1152 -0.8326
  995MOL0     C34257   0.675   5.935  10.476  0.3098  0.2256  0.1125
  995MOL0     H34258   0.257   5.981  10.033  0.1428 -1.8112  0.7026
  995MOL0     H34259   0.211   5.864   9.828  0.6429 -1.9100  1.7451
  995MOL0     H34260   0.245   5.733   9.621  0.0166 -0.1725  0.0030
  995MOL0     H34261   0.208   5.894   9.574  0.9583  0.6296 -1.5646
  995MOL0     H34262   0.338   5.677   9.395 -0.2164  0.3072 -0.4284
  995MOL0     H34263   0.347   5.842   9.356  0.5816 -0.3363  1.3617
  995MOL0     H34264   0.071   5.840   9.412  0.2350  2.0414 -2.6303
  995MOL0     H34265   0.095   5.667   9.384  0.0522 -0.6876 -4.2696
  995MOL0     H34266   0.208   5.848   9.179 -1.2768  1.7444  0.0968
  995MOL0     H34267   0.161   5.679   9.158 -3.7559 -0.5883 -2.1620
  995MOL0     H34268  -0.046   5.898   9.227 -0.5352 -0.6509 -0.2930
  995MOL0     H34269  -0.011   5.849   9.064  0.9873  1.6030  0.8645
  995MOL0     H34270  -0.056   5.610   9.112 -0.6379  0.2076 -1.1274
  995MOL0     H34271  -0.108   5.647   9.275 -0.8007  0.8158  0.3084
  995MOL0     H34272  -0.304   5.624   9.142  0.7633 -0.2490  1.3170
  995MOL0     H34273  -0.258   5.759   9.043  0.3171 -1.8615 -0.5325
  995MOL0     H34274  -0.292   5.926   9.217 -2.0614  0.6840  3.0012
  995MOL0     H34275  -0.432   5.829   9.220 -0.5492  3.3239  0.7729
  995MOL0     H34276  -0.457   5.631   9.397  0.2874 -1.3004  2.3336
  995MOL0     H34277  -0.296   5.529   9.705 -1.3795 -0.9579  3.7879
  995MOL0     H34278  -0.391   5.654   9.769  1.9708  0.8298 -1.0752
  995MOL0     H34279  -0.582   5.574   9.607  0.3873 -0.8844 -1.8870
  995MOL0     H34280  -0.462   5.477   9.534  0.4281 -2.6796  1.6600
  995MOL0     H34281  -0.434   5.310   9.686  1.4388  1.3127 -0.6447
  995MOL0     H34282  -0.613   5.333   9.663 -0.5519  1.1223  0.1216
  995MOL0     H34283  -0.453   5.431   9.905  0.2106 -0.4272 -0.3687
  995MOL0     H34284  -0.548   5.282   9.902 -3.9749 -0.0844  0.9520
  995MOL0     H34285  -0.810   5.248   9.871 -0.6339 -2.9799  0.6751
  995MOL0     H34286  -0.969   5.160  10.043 -1.7696 -0.5196 -0.7864
  995MOL0     H34287  -1.195   5.092  10.443  0.7944 -0.1704  1.6091
  995MOL0     H34288  -1.373   5.087  10.602 -1.7670 -0.1520 -0.0507
  995MOL0     H34289  -1.577   5.135  10.726 -0.4559 -0.0914  0.0831
  995MOL0     H34290  -1.444   5.082  10.841 -1.7350 -2.1863 -1.3370
  995MOL0     H34291  -1.681   5.269  10.907 -0.3595  0.8733  2.6354
  995MOL0     H34292  -1.677   5.108  10.952 -0.2594  0.6971  2.8470
  995MOL0     H34293  -1.436   5.154  11.067  0.9073  0.7489  0.1687
  995MOL0     H34294  -1.506   5.315  11.081  1.2998 -1.3176  1.2998
  995MOL0     H34295  -1.616   5.057  11.163 -2.3718  0.5715 -1.9897
  995MOL0     H34296  -1.704   5.211  11.174 -1.9103 -3.0055  1.6197
  995MOL0     H34297  -1.480   5.099  11.348 -2.5373 -2.3163 -1.7253
  995MOL0     H34298  -1.624   5.176  11.398  0.4860 -0.3953 -0.3864
  995MOL0     H34299  -1.424   5.285  11.451  5.0530 -0.2992 -2.9611
  995MOL0     H34300  -1.377   5.323  11.298  0.5835  2.5846  0.9339
  995MOL0     H34301  -1.647   5.403  11.405 -0.2811 -1.8508 -0.4197
  995MOL0     H34302  -1.590   5.432  11.239 -2.4463  1.3902  1.0562
  995MOL0     H34303  -1.571   5.636  11.363 -1.4364 -1.3512  0.2601
  995MOL0     H34304  -1.483   5.552  11.491  0.7726 -1.2627 -0.4011
  995MOL0     H34305  -1.254   5.465  10.758 -2.2616 -1.0912  1.2985
  995MOL0     H34306  -1.070   5.483  10.581  1.3909 -2.6433 -3.1925
  995MOL0     H34307  -0.841   5.476  10.305  2.7072  0.7542 -0.0690
  995MOL0     H34308  -0.699   5.565  10.126  2.5719 -0.1311 -0.9204
  995MOL0     H34309   0.599   5.982   9.678 -0.3567  0.7365 -1.4520
  995MOL0     H34310   0.637   6.124   9.873 -0.9977  1.8643 -4.6729
  995MOL0     H34311   0.486   6.309  10.254 -1.5838  0.5185  2.3691
  995MOL0     H34312   0.545   6.456  10.441  0.8082  0.6315  2.3174
  995MOL0     H34313   0.831   6.336  10.753  0.2311  2.1973 -0.9150
  995MOL0     H34314   0.696   6.247  10.810 -0.3137  1.7373  1.6378
  995MOL0     H34315   0.731   6.433  10.969 -4.2125  1.1493  1.5786
  995MOL0     H34316   0.589   6.469  10.866  0.5490 -2.7333 -0.0293
  995MOL0     H34317   0.741   6.609  10.727  0.9694 -0.7974  0.1471
  995MOL0     H34318   0.882   6.551  10.825  0.1835  2.5423  1.3211
  995MOL0     H34319   0.685   6.702  10.959 -0.4466  1.1371 -4.7444
  995MOL0     H34320   0.857   6.663  11.012  1.5526  0.0827 -0.5896
  995MOL0     H34321   0.911   7.025  10.805 -2.5034  2.4215  3.3110
  995MOL0     H34322   0.714   6.110  10.637  3.7975  3.3841 -0.5345
  995MOL0     H34323   0.735   5.922  10.567  1.0249  0.2283 -0.3522
  995MOL0     H34324   0.586   5.873  10.487 -0.5276  0.8596 -2.4727
  995MOL0     H34325   0.745   5.907  10.397 -1.4372 -3.5353 -0.2998
  996MOL0     O34326   4.081   9.409   7.389  0.5012  0.1407 -0.4982
  996MOL0     C34327   4.060   9.526   7.351 -0.0079 -1.0392 -0.0512
  996MOL0     O34328   4.160   9.625   7.325 -0.0672 -0.3401 -0.8796
  996MOL0     C34329   4.292   9.588   7.316 -0.2692 -0.0547 -0.2755
  996MOL0     C34330   4.324   9.489   7.224 -0.0842  0.3046  0.1147
  996MOL0     C34331   4.453   9.437   7.214 -0.1653  0.1353 -0.1454
  996MOL0     C34332   4.562   9.498   7.288  0.8152 -1.0122  0.2744
  996MOL0     O34333   4.683   9.445   7.253  0.7170 -0.8636 -0.6155
  996MOL0     C34334   4.799   9.503   7.313  0.1701  0.0548 -0.0336
  996MOL0     C34335   4.910   9.425   7.242  0.3600  0.1333  0.5692
  996MOL0     C34336   5.052   9.482   7.259  0.1433 -0.3748  0.1484
  996MOL0     C34337   5.157   9.394   7.202 -0.0527 -0.2580 -0.0800
  996MOL0     C34338   5.302   9.434   7.248 -0.0889 -0.2064 -0.3611
  996MOL0     C34339   5.400   9.356   7.166 -0.4917 -0.5405 -0.2635
  996MOL0     C34340   5.532   9.430   7.174 -0.3327  0.1244 -0.2715
  996MOL0     C34341   5.562   9.497   7.044  0.6649 -1.3499  0.2095
  996MOL0     N34342   5.704   9.537   7.031  0.5101  0.3963 -0.6570
  996MOL0     C34343   5.810   9.448   7.026 -1.3171 -0.3897  0.2389
  996MOL0     C34344   5.915   9.536   7.017  0.0334  0.3910  1.5447
  996MOL0     C34345   6.055   9.478   7.000  0.5358 -1.0761  0.1910
  996MOL0     C34346   6.159   9.575   7.072 -1.2677 -0.4164 -0.1329
  996MOL0     C34347   6.303   9.505   7.070 -0.5453 -0.4771  0.1400
  996MOL0     C34348   6.428   9.599   7.108 -0.3455  0.0157 -0.1204
  996MOL0     O34349   6.414   9.735   7.060 -0.8724  0.2351  0.3333
  996MOL0     C34350   6.424   9.765   6.922 -0.5866  0.0234  0.4738
  996MOL0     C34351   6.392   9.899   6.889 -0.2480  0.4769 -0.2486
  996MOL0     C34352   6.405   9.950   6.757  0.1101  0.3112  1.1878
  996MOL0     C34353   6.451   9.861   6.655  0.9849 -0.0966  0.4856
  996MOL0     C34354   6.475   9.911   6.525  1.0208  0.4060 -0.3780
  996MOL0     O34355   6.582   9.855   6.468 -0.4370 -0.1604  0.1204
  996MOL0     C34356   6.600   9.913   6.343  0.9158  0.4413  0.1283
  996MOL0     C34357   6.640  10.042   6.335 -0.7023 -0.4741  0.5287
  996MOL0     C34358   6.660  10.114   6.213 -0.2492  0.5114  0.1592
  996MOL0     C34359   6.618  10.061   6.095 -0.1431  0.2659 -0.0330
  996MOL0     O34360   6.629  10.141   5.980  0.0123  0.4070  0.0313
  996MOL0     C34361   6.635  10.073   5.855  0.8328  0.4438  1.0109
  996MOL0     C34362   6.627  10.175   5.746  0.2091 -1.6316  0.0689
  996MOL0     C34363   6.725  10.292   5.742 -0.1038  0.3913 -0.1145
  996MOL0     C34364   6.864  10.231   5.734 -0.1968  0.0647 -0.6582
  996MOL0     C34365   6.974  10.338   5.728  0.3886  1.3362 -0.6740
  996MOL0     C34366   7.109  10.265   5.715  0.2531 -0.1530 -1.6728
  996MOL0     C34367   7.223  10.347   5.778  0.6128 -0.5155  0.1609
  996MOL0     C34368   7.223  10.487   5.720  0.4146  1.1160  0.0556
  996MOL0    Cl34369   7.305  10.571   5.839  0.5079  0.1523  0.0058
  996MOL0     C34370   6.571   9.927   6.095 -0.0192 -0.3998 -0.5124
  996MOL0     C34371   6.566   9.852   6.219  0.2429  0.0171  0.8502
  996MOL0     O34372   6.396  10.001   6.481 -0.0691 -0.4166  0.4118
  996MOL0     C34373   6.473   9.726   6.687 -0.7566 -0.5470  0.0026
  996MOL0     C34374   6.477   9.685   6.820 -0.5258 -0.7671  0.5731
  996MOL0     N34375   5.880   9.667   7.004  0.2710  0.2014 -0.0288
  996MOL0     N34376   5.754   9.664   7.015  0.2749 -0.2439  1.0416
  996MOL0     C34377   4.524   9.608   7.374  0.4397  0.2526 -0.2764
  996MOL0     C34378   4.390   9.639   7.393  0.4131 -0.5654  0.7252
  996MOL0     C34379   3.924   9.561   7.308  0.3243  0.1818  0.3211
  996MOL0     C34380   3.917   9.670   7.218 -0.1871  0.8474 -0.2349
  996MOL0     C34381   3.801   9.738   7.201  0.4894  0.2790 -0.3490
  996MOL0     C34382   3.684   9.681   7.237  0.3253  0.4993  0.0672
  996MOL0     O34383   3.562   9.735   7.220  0.5297  0.2221 -0.8188
  996MOL0     C34384   3.536   9.831   7.329  0.3297  1.4175  0.1436
  996MOL0     C34385   3.521   9.775   7.471 -2.1130  0.9949 -0.4686
  996MOL0     C34386   3.406   9.688   7.490 -0.2988  0.3085  0.4185
  996MOL0     C34387   3.367   9.666   7.631  0.1356 -0.4576 -0.7636
  996MOL0     C34388   3.318   9.781   7.709 -0.9045  0.7067  0.0959
  996MOL0     C34389   3.290   9.866   7.784  0.2471  0.4067 -0.7688
  996MOL0     C34390   3.671   9.553   7.296 -1.3887  0.0524 -0.8091
  996MOL0     C34391   3.795   9.509   7.349 -0.2950 -0.9349 -1.0168
  996MOL0     C34392   3.785   9.381   7.438 -0.2240 -0.4119  0.8350
  996MOL0     H34393   4.255   9.428   7.167 -0.7253 -0.7331  1.9169
  996MOL0     H34394   4.472   9.354   7.147  0.3264 -1.0887  1.4463
  996MOL0     H34395   4.803   9.610   7.290 -0.5763 -0.2648 -1.8408
  996MOL0     H34396   4.802   9.490   7.422  2.6465  3.4751  0.4687
  996MOL0     H34397   4.892   9.414   7.135  2.0052  1.1381  0.1636
  996MOL0     H34398   4.896   9.322   7.277 -0.9557 -0.0912 -0.5520
  996MOL0     H34399   5.074   9.481   7.366 -1.9220 -0.9256  0.6200
  996MOL0     H34400   5.068   9.584   7.223 -0.4127 -0.6987 -1.0721
  996MOL0     H34401   5.146   9.289   7.230  1.1659  0.1683  2.3460
  996MOL0     H34402   5.142   9.410   7.095 -2.9211  2.7884  0.6054
  996MOL0     H34403   5.326   9.541   7.240 -3.0440  1.1433  4.7842
  996MOL0     H34404   5.301   9.415   7.355 -2.9503 -2.4898 -0.6824
  996MOL0     H34405   5.401   9.256   7.211  1.3985 -0.2509  0.4482
  996MOL0     H34406   5.369   9.340   7.062 -1.7972 -1.0161  0.1775
  996MOL0     H34407   5.595   9.342   7.192 -0.7805 -0.2906 -0.7232
  996MOL0     H34408   5.530   9.497   7.261 -2.4934  0.3035 -0.3910
  996MOL0     H34409   5.543   9.429   6.961  1.6495 -1.8017  0.3387
  996MOL0     H34410   5.508   9.591   7.031  3.3585  0.2140 -0.6600
  996MOL0     H34411   5.808   9.341   7.038 -0.0211 -0.3420  1.0435
  996MOL0     H34412   6.063   9.377   7.042  1.8848 -1.6555 -1.3354
  996MOL0     H34413   6.092   9.493   6.898 -1.4740  3.9520 -0.0516
  996MOL0     H34414   6.163   9.673   7.024  0.9126  0.0319  0.8332
  996MOL0     H34415   6.128   9.585   7.176 -2.4663 -2.0935 -0.2889
  996MOL0     H34416   6.311   9.472   6.966 -3.0941  1.5189 -0.8043
  996MOL0     H34417   6.287   9.413   7.127 -3.9201 -0.8520 -1.1679
  996MOL0     H34418   6.526   9.563   7.073  1.7023  3.2653  1.7296
  996MOL0     H34419   6.435   9.613   7.217  0.2484 -6.0788  0.9612
  996MOL0     H34420   6.362   9.966   6.969  0.3643  2.3391 -1.5212
  996MOL0     H34421   6.383  10.055   6.738  1.1284  0.5523  1.2899
  996MOL0     H34422   6.653  10.085   6.434  1.2214  1.4550 -0.4829
  996MOL0     H34423   6.705  10.212   6.226 -2.6398  1.7971 -0.5482
  996MOL0     H34424   6.733  10.026   5.842  1.3473  1.5221  0.8553
  996MOL0     H34425   6.548  10.009   5.835  1.2757  0.1666 -0.1498
  996MOL0     H34426   6.640  10.121   5.651 -0.2244  0.0206 -0.9673
  996MOL0     H34427   6.530  10.225   5.758  2.1377  2.3307  0.5945
  996MOL0     H34428   6.705  10.348   5.650 -1.3080 -2.3196 -1.6298
  996MOL0     H34429   6.713  10.348   5.835 -0.8626 -0.6639  0.4446
  996MOL0     H34430   6.880  10.165   5.648  4.4215 -0.9113  0.6361
  996MOL0     H34431   6.887  10.153   5.808 -1.7952 -1.8005 -2.0249
  996MOL0     H34432   6.976  10.396   5.820  1.9423 -0.6133  0.6067
  996MOL0     H34433   6.969  10.397   5.636  1.4433 -1.6403 -2.8295
  996MOL0     H34434   7.108  10.171   5.770 -0.5821  2.1941  2.7885
  996MOL0     H34435   7.139  10.240   5.612 -0.1020 -1.2488 -1.5264
  996MOL0     H34436   7.323  10.304   5.765  0.1243 -1.0598 -2.4105
  996MOL0     H34437   7.200  10.351   5.884  1.3153  0.5983  0.2860
  996MOL0     H34438   7.275  10.500   5.625  2.2461 -1.4974  0.5858
  996MOL0     H34439   7.125  10.536   5.718  0.3238  0.9199 -0.2127
  996MOL0     H34440   6.552   9.871   6.004  0.9395  3.2805 -3.2270
  996MOL0     H34441   6.531   9.749   6.224  0.0830  0.0741  0.9178
  996MOL0     H34442   6.493   9.646   6.616 -1.4084  0.9980 -2.0172
  996MOL0     H34443   6.507   9.584   6.843 -1.6562 -1.4711 -0.8749
  996MOL0     H34444   4.595   9.675   7.422 -0.3127  1.9461 -1.4155
  996MOL0     H34445   4.353   9.712   7.465 -1.3627 -1.1928  0.4943
  996MOL0     H34446   4.004   9.726   7.185  1.4815 -0.8117  1.1055
  996MOL0     H34447   3.797   9.836   7.154  1.1761  0.4566 -0.0512
  996MOL0     H34448   3.433   9.859   7.304 -0.5769  0.0578  2.0719
  996MOL0     H34449   3.592   9.924   7.313 -2.8971  3.1721 -2.1197
  996MOL0     H34450   3.523   9.859   7.541  3.2263 -0.5684  1.7885
  996MOL0     H34451   3.603   9.704   7.489 -2.6648  0.6800  0.8919
  996MOL0     H34452   3.420   9.588   7.448 -0.1564  1.3067 -2.1022
  996MOL0     H34453   3.320   9.720   7.430  1.3256  1.1094 -1.6426
  996MOL0     H34454   3.281   9.599   7.617 -1.4766  1.3877 -0.2088
  996MOL0     H34455   3.456   9.625   7.679 -0.7056  0.4235  1.7492
  996MOL0     H34456   3.253   9.946   7.846 -0.5847  0.4095 -1.2507
  996MOL0     H34457   3.583   9.490   7.307 -0.7405 -0.7038  0.1496
  996MOL0     H34458   3.747   9.295   7.382 -1.3203 -1.0520  2.4900
  996MOL0     H34459   3.870   9.352   7.500  0.1249  2.5380  1.9279
  996MOL0     H34460   3.723   9.410   7.524 -0.5900 -1.4714  0.9340
  997MOL0     O34461   0.011   3.421  11.008  0.2272 -0.4865 -0.2141
  997MOL0     C34462   0.087   3.324  11.026 -0.2093 -1.3124  0.4904
  997MOL0     O34463   0.061   3.221  11.098 -0.2765 -0.2534 -0.4965
  997MOL0     C34464  -0.063   3.206  11.159  0.4015 -0.0257 -0.1092
  997MOL0     C34465  -0.079   3.211  11.298 -0.0909  0.2802 -0.4831
  997MOL0     C34466  -0.202   3.181  11.373 -0.3904  0.5516 -0.0994
  997MOL0     C34467  -0.313   3.128  11.300  0.4171  0.8798 -0.1652
  997MOL0     O34468  -0.420   3.063  11.361 -0.0089 -0.4490  0.4855
  997MOL0     C34469  -0.558   3.115  11.352 -0.6390  0.2384 -0.1134
  997MOL0     C34470  -0.647   2.996  11.378 -0.4467 -0.4375  0.5888
  997MOL0     C34471  -0.792   3.012  11.396  0.7182 -0.0062  0.0613
  997MOL0     C34472  -0.864   3.067  11.267  0.3363 -0.5742 -0.9868
  997MOL0     C34473  -1.015   3.098  11.304 -0.7545  0.6118  0.3838
  997MOL0     C34474  -1.070   3.159  11.184  0.6544 -0.3298  0.1068
  997MOL0     C34475  -1.226   3.170  11.197 -0.3029 -0.9182  0.6627
  997MOL0     C34476  -1.279   3.288  11.115 -0.3474  0.3883  0.6599
  997MOL0     N34477  -1.425   3.284  11.082  0.4212  0.2000 -0.0263
  997MOL0     C34478  -1.479   3.277  10.953  0.8022  0.2167 -0.2085
  997MOL0     C34479  -1.611   3.294  10.965 -0.7442 -0.4374 -1.2286
  997MOL0     C34480  -1.695   3.284  10.847  0.7371 -0.4471  1.3210
  997MOL0     C34481  -1.781   3.151  10.835  0.0118  0.1509  0.0243
  997MOL0     C34482  -1.861   3.104  10.956 -0.1294 -0.7704  0.2461
  997MOL0     C34483  -1.984   3.185  10.966 -0.2028 -0.2681 -0.1935
  997MOL0     O34484  -2.093   3.149  10.879 -1.0748 -0.6340 -0.1140
  997MOL0     C34485  -2.163   3.031  10.906  0.4574  0.2812  0.3640
  997MOL0     C34486  -2.286   3.030  10.834  0.5329 -1.1712 -0.1140
  997MOL0     C34487  -2.373   2.920  10.845 -0.1229  0.0089 -0.2311
  997MOL0     C34488  -2.332   2.807  10.922  0.5060 -0.3197  0.4273
  997MOL0     C34489  -2.414   2.694  10.933  0.7052 -0.0227 -0.6272
  997MOL0     O34490  -2.521   2.688  10.845 -0.1927 -0.5548 -0.0860
  997MOL0     C34491  -2.609   2.584  10.841  0.1364 -0.0362 -0.0247
  997MOL0     C34492  -2.561   2.450  10.839  0.4186  1.0474  0.5241
  997MOL0     C34493  -2.656   2.342  10.866  0.0652 -0.6133 -0.1936
  997MOL0     C34494  -2.793   2.361  10.897 -0.6523 -0.6638  0.3142
  997MOL0     O34495  -2.877   2.272  10.940 -0.1935  0.2584 -0.1768
  997MOL0     C34496  -2.828   2.162  11.013 -0.0356 -0.6215  1.0380
  997MOL0     C34497  -2.870   2.181  11.161 -0.5965 -0.0452  0.3901
  997MOL0     C34498  -3.025   2.180  11.180  0.0798  0.8305  0.5733
  997MOL0     C34499  -3.075   2.173  11.321 -0.2416 -0.3307  0.6541
  997MOL0     C34500  -3.226   2.178  11.333 -0.2218 -0.3871  0.5250
  997MOL0     C34501  -3.253   2.131  11.482 -0.5131  0.4785  1.4031
  997MOL0     C34502  -3.230   1.981  11.499  0.2786 -0.6248  0.3228
  997MOL0     C34503  -3.322   1.927  11.605 -0.6519 -0.6674 -1.2478
  997MOL0    Cl34504  -3.489   1.932  11.561 -0.1346 -0.1968 -0.1705
  997MOL0     C34505  -2.831   2.500  10.897 -0.2054  0.4706 -0.0630
  997MOL0     C34506  -2.744   2.606  10.876 -0.2798 -0.9023  0.2833
  997MOL0     O34507  -2.389   2.604  11.008  0.0133 -0.0824 -0.2916
  997MOL0     C34508  -2.218   2.817  10.996 -0.8178 -0.4443 -0.3485
  997MOL0     C34509  -2.131   2.924  10.988 -0.2010 -0.5959  0.4031
  997MOL0     N34510  -1.639   3.334  11.102  0.1143 -0.5295  0.8803
  997MOL0     N34511  -1.532   3.317  11.166  0.0821 -0.1274  0.2982
  997MOL0     C34512  -0.301   3.126  11.159  0.3729 -0.5333 -1.5382
  997MOL0     C34513  -0.182   3.166  11.095  0.6142 -0.5856  0.6113
  997MOL0     C34514   0.215   3.324  10.958 -0.8702 -0.3867 -0.1555
  997MOL0     C34515   0.217   3.309  10.820 -0.1333  0.2706  0.7189
  997MOL0     C34516   0.330   3.311  10.743 -0.2255  0.0558  0.6973
  997MOL0     C34517   0.450   3.310  10.813 -0.5694 -0.9422  0.5019
  997MOL0     O34518   0.568   3.297  10.752  0.2296 -0.4167  0.3836
  997MOL0     C34519   0.602   3.162  10.715  0.1209 -0.1719 -0.2650
  997MOL0     C34520   0.582   3.146  10.559 -0.7658 -0.1565 -0.1403
  997MOL0     C34521   0.667   3.045  10.499  0.0872  0.5101 -0.3422
  997MOL0     C34522   0.593   2.915  10.491  0.4292  0.1970  0.2060
  997MOL0     C34523   0.495   2.908  10.379  0.5155  0.4255 -0.6380
  997MOL0     C34524   0.400   2.911  10.301  0.4500 -0.5427  0.3531
  997MOL0     C34525   0.455   3.324  10.950 -0.3273 -0.1747 -0.3634
  997MOL0     C34526   0.341   3.322  11.024  0.2792 -0.5595 -0.1824
  997MOL0     C34527   0.342   3.338  11.173 -0.2943 -0.4918  0.0044
  997MOL0     H34528   0.009   3.238  11.356  0.7902  1.5773 -2.3414
  997MOL0     H34529  -0.200   3.186  11.481 -1.6543 -0.1159 -0.0246
  997MOL0     H34530  -0.571   3.183  11.438 -0.2266 -1.8864  1.7126
  997MOL0     H34531  -0.585   3.152  11.253  0.1128  3.8155  0.8549
  997MOL0     H34532  -0.605   2.949  11.467  0.6694  0.9402  0.8291
  997MOL0     H34533  -0.649   2.921  11.298 -1.2535  0.6142 -0.4191
  997MOL0     H34534  -0.804   3.083  11.479 -0.0173 -1.6355  1.4024
  997MOL0     H34535  -0.827   2.912  11.420 -0.4630  0.0959 -1.0866
  997MOL0     H34536  -0.814   3.158  11.232 -0.2532 -0.0195 -0.4248
  997MOL0     H34537  -0.857   3.002  11.179  0.6186 -1.2427 -0.4822
  997MOL0     H34538  -1.078   3.017  11.342  0.7804 -0.7968  0.0146
  997MOL0     H34539  -1.002   3.177  11.379  3.8072 -0.2993  0.8153
  997MOL0     H34540  -1.031   3.258  11.160 -4.5913  2.6452  2.2403
  997MOL0     H34541  -1.048   3.085  11.106 -0.7610 -0.0025 -0.6313
  997MOL0     H34542  -1.263   3.207  11.293 -4.1041 -0.6780 -0.7236
  997MOL0     H34543  -1.269   3.074  11.167 -0.8200 -0.2398 -0.8341
  997MOL0     H34544  -1.269   3.379  11.175  0.1812 -1.3167  3.3271
  997MOL0     H34545  -1.214   3.287  11.027  0.0848 -0.5790  0.9757
  997MOL0     H34546  -1.431   3.256  10.858  0.6557 -1.4097  0.0542
  997MOL0     H34547  -1.759   3.371  10.830  0.5543 -1.0128 -1.1790
  997MOL0     H34548  -1.624   3.294  10.765 -0.1544 -0.7202  0.5007
  997MOL0     H34549  -1.854   3.144  10.754 -1.4587 -3.9112  1.4199
  997MOL0     H34550  -1.712   3.069  10.811 -0.7405  0.0244 -1.8764
  997MOL0     H34551  -1.805   3.112  11.050 -0.4461  0.3659  0.3546
  997MOL0     H34552  -1.885   2.998  10.944 -2.0283 -0.2461 -1.1559
  997MOL0     H34553  -1.962   3.289  10.941  0.1969 -0.5270 -0.9661
  997MOL0     H34554  -2.010   3.190  11.072  0.4262  3.3941 -0.0813
  997MOL0     H34555  -2.323   3.109  10.771 -0.8439 -1.7872 -0.1047
  997MOL0     H34556  -2.462   2.927  10.782  0.3476  1.8127 -0.7599
  997MOL0     H34557  -2.456   2.423  10.831  0.6334  1.5965  1.3194
  997MOL0     H34558  -2.628   2.238  10.876 -1.3623 -0.9448  0.6546
  997MOL0     H34559  -2.894   2.077  10.991 -1.6086  0.4461  1.4945
  997MOL0     H34560  -2.724   2.130  11.007  0.6332  1.7029 -0.9147
  997MOL0     H34561  -2.817   2.111  11.226 -0.8536  1.5227  2.3990
  997MOL0     H34562  -2.829   2.275  11.200 -2.0663  0.8067  0.0060
  997MOL0     H34563  -3.056   2.277  11.140  0.7458  1.1148  0.7333
  997MOL0     H34564  -3.064   2.098  11.119  1.0202 -1.4144  2.7883
  997MOL0     H34565  -3.036   2.257  11.381  0.3808  0.6105 -0.9881
  997MOL0     H34566  -3.028   2.081  11.355  1.5832 -0.4532 -1.9000
  997MOL0     H34567  -3.283   2.125  11.255  0.4829 -2.0370  1.0933
  997MOL0     H34568  -3.255   2.283  11.322 -2.0360 -0.9536 -0.7945
  997MOL0     H34569  -3.183   2.184  11.546 -0.7927  0.6116  1.5985
  997MOL0     H34570  -3.359   2.155  11.497 -1.7737 -0.3358 -4.0454
  997MOL0     H34571  -3.129   1.954  11.530  1.2070  0.0072 -1.9234
  997MOL0     H34572  -3.249   1.931  11.403 -0.9539  0.5668 -0.1003
  997MOL0     H34573  -3.305   1.820  11.625 -0.5162 -0.5680 -0.8172
  997MOL0     H34574  -3.314   1.992  11.692 -2.7495 -1.8827 -0.0678
  997MOL0     H34575  -2.931   2.526  10.932 -0.9391 -3.3442  1.2208
  997MOL0     H34576  -2.784   2.705  10.894  0.0171 -0.9466  1.2542
  997MOL0     H34577  -2.192   2.748  11.076  3.8790  0.7484 -0.5453
  997MOL0     H34578  -2.052   2.938  11.062 -1.2391  0.9185  1.2750
  997MOL0     H34579  -0.387   3.081  11.110 -0.7888 -2.3137  1.8480
  997MOL0     H34580  -0.177   3.156  10.987 -0.8677 -2.0013  0.6311
  997MOL0     H34581   0.123   3.296  10.767  1.7423  2.1126 -3.5105
  997MOL0     H34582   0.328   3.290  10.637 -0.9230 -2.2494  1.1063
  997MOL0     H34583   0.542   3.085  10.763 -2.7459  2.3726  0.5390
  997MOL0     H34584   0.703   3.138  10.751  0.1371 -0.9302 -0.7890
  997MOL0     H34585   0.609   3.241  10.512  2.0545 -0.6576  0.3466
  997MOL0     H34586   0.477   3.121  10.540 -0.4068 -2.2172  0.3830
  997MOL0     H34587   0.763   3.031  10.551  1.1952  0.6195 -2.2617
  997MOL0     H34588   0.701   3.071  10.398  5.3202 -0.2708  0.9273
  997MOL0     H34589   0.667   2.836  10.482  0.9025  0.5407  1.0207
  997MOL0     H34590   0.536   2.893  10.582 -0.4345 -0.7599 -0.5347
  997MOL0     H34591   0.308   2.917  10.245  1.1054 -1.6080 -0.8941
  997MOL0     H34592   0.557   3.318  10.986 -0.5625 -0.2758  0.2996
  997MOL0     H34593   0.444   3.336  11.213 -0.5804 -1.3725  0.7175
  997MOL0     H34594   0.296   3.432  11.208  0.1450 -0.6788  1.1374
  997MOL0     H34595   0.279   3.254  11.203 -2.4268 -0.1330 -2.9763
  998MOL0     O34596   2.726   8.978   4.739 -0.0960 -0.9996 -0.3466
  998MOL0     C34597   2.718   8.906   4.839 -0.1233 -0.0533 -0.9093
  998MOL0     O34598   2.681   8.954   4.964  0.3010 -0.2553  0.3019
  998MOL0     C34599   2.624   9.082   4.967  1.2566  0.3526  0.3438
  998MOL0     C34600   2.491   9.110   4.935  0.3454  0.5536 -0.2058
  998MOL0     C34601   2.449   9.246   4.936 -0.5116  0.9019 -0.6462
  998MOL0     C34602   2.535   9.352   4.964 -0.0026 -1.1276  0.7751
  998MOL0     O34603   2.510   9.486   4.950 -0.3615 -0.0744 -0.8751
  998MOL0     C34604   2.481   9.539   4.825 -0.2552  0.5785 -0.4030
  998MOL0     C34605   2.616   9.602   4.786 -0.2693 -0.5097  0.8777
  998MOL0     C34606   2.628   9.748   4.855  0.1068  0.5392  0.7360
  998MOL0     C34607   2.718   9.844   4.778 -0.2770 -1.0564 -0.2555
  998MOL0     C34608   2.775   9.957   4.862 -0.5213 -0.2871  0.1753
  998MOL0     C34609   2.815  10.088   4.782 -0.6402  0.1258 -0.0844
  998MOL0     C34610   2.813  10.212   4.873 -0.4623  0.3869  0.2125
  998MOL0     C34611   2.900  10.321   4.800  1.0137 -0.4190  0.1656
  998MOL0     N34612   2.952  10.423   4.895 -0.8729  0.2547  0.1171
  998MOL0     C34613   3.063  10.414   4.983 -0.2107 -0.4370  0.3337
  998MOL0     C34614   3.083  10.546   5.029  0.3914  0.1307 -0.3303
  998MOL0     C34615   3.217  10.586   5.086 -0.3118  0.1960 -0.3010
  998MOL0     C34616   3.332  10.500   5.043 -0.1793 -0.2731  0.2262
  998MOL0     C34617   3.374  10.524   4.894  0.9269  0.2659  0.2474
  998MOL0     C34618   3.487  10.427   4.862 -0.5740 -0.3739  1.1333
  998MOL0     O34619   3.607  10.466   4.922  0.3792  0.4561  0.4554
  998MOL0     C34620   3.721  10.398   4.899  0.1041 -0.1250 -0.5862
  998MOL0     C34621   3.829  10.474   4.934  0.5094 -0.1289  0.8466
  998MOL0     C34622   3.954  10.423   4.899  0.5081 -0.3398  0.1386
  998MOL0     C34623   3.968  10.310   4.819 -0.5319  0.6989 -0.1471
  998MOL0     C34624   4.109  10.265   4.776  0.4369 -0.7842 -0.2303
  998MOL0     O34625   4.112  10.138   4.723 -0.2421  0.0792  0.1644
  998MOL0     C34626   4.230  10.096   4.672 -0.5595 -0.0807  0.1570
  998MOL0     C34627   4.222  10.043   4.547 -0.3433 -0.2103  0.5464
  998MOL0     C34628   4.326   9.986   4.476 -0.2993 -0.8989  0.4318
  998MOL0     C34629   4.445   9.968   4.545 -0.4800 -0.1322  0.1646
  998MOL0     O34630   4.554   9.908   4.480  0.1878 -0.1033  0.1214
  998MOL0     C34631   4.581   9.769   4.511  0.1155  0.1141 -0.8389
  998MOL0     C34632   4.681   9.703   4.414  0.8094 -0.2747 -0.1251
  998MOL0     C34633   4.798   9.802   4.411 -0.4397  0.3143  0.0875
  998MOL0     C34634   4.898   9.729   4.307  0.8695 -0.3864 -0.3563
  998MOL0     C34635   4.973   9.611   4.363  0.0894  0.3328  0.5064
  998MOL0     C34636   4.985   9.495   4.252 -0.2251 -0.4931  0.5477
  998MOL0     C34637   5.014   9.354   4.319  0.0982  0.2041 -0.6754
  998MOL0     C34638   5.000   9.246   4.213  0.0027 -0.5865 -0.1371
  998MOL0    Cl34639   5.135   9.268   4.101 -0.0991  0.5254 -0.0330
  998MOL0     C34640   4.461  10.028   4.674  0.6988  0.0624 -0.3830
  998MOL0     C34641   4.356  10.095   4.735 -0.1352  0.6706 -0.5551
  998MOL0     O34642   4.207  10.346   4.792  0.5243  0.5539 -0.0320
  998MOL0     C34643   3.855  10.231   4.801  0.4873  0.5018 -0.1009
  998MOL0     C34644   3.728  10.271   4.838 -0.1361 -0.4687 -0.0841
  998MOL0     N34645   2.978  10.622   4.987  0.8135  0.5953  0.7630
  998MOL0     N34646   2.902  10.546   4.908  0.9830  0.8256 -0.3609
  998MOL0     C34647   2.671   9.322   4.971 -0.0764  0.3005  0.3242
  998MOL0     C34648   2.712   9.185   4.975 -0.4490 -0.5926  0.3582
  998MOL0     C34649   2.757   8.754   4.823  0.3552  0.2243 -1.1464
  998MOL0     C34650   2.766   8.699   4.693  0.5506 -0.0334  1.0239
  998MOL0     C34651   2.799   8.566   4.678  0.8705 -0.2481  0.6408
  998MOL0     C34652   2.826   8.481   4.788  0.4320 -0.6838  0.3211
  998MOL0     O34653   2.873   8.348   4.776  0.2024 -0.2476 -0.0015
  998MOL0     C34654   2.887   8.278   4.655 -0.2964  0.2088  1.3310
  998MOL0     C34655   2.919   8.124   4.673  0.5621 -1.4240  0.3636
  998MOL0     C34656   2.841   8.055   4.797 -0.7011 -0.0297  0.2103
  998MOL0     C34657   2.884   7.906   4.812 -0.4207  0.0287  0.1941
  998MOL0     C34658   2.855   7.836   4.942 -0.7405 -0.2279 -0.1890
  998MOL0     C34659   2.831   7.812   5.054 -0.3487  0.8194 -0.1044
  998MOL0     C34660   2.829   8.533   4.916 -0.1484 -0.7876  0.0956
  998MOL0     C34661   2.789   8.674   4.936  0.0144 -0.1520 -0.2847
  998MOL0     C34662   2.807   8.734   5.070 -0.6953  0.5364  0.1157
  998MOL0     H34663   2.420   9.032   4.910  0.7194 -0.4766  1.7024
  998MOL0     H34664   2.348   9.267   4.903 -2.0768 -3.8385  0.2350
  998MOL0     H34665   2.469   9.459   4.752 -0.0934 -1.4917  1.6945
  998MOL0     H34666   2.404   9.616   4.823  0.1991  1.1840  2.0138
  998MOL0     H34667   2.604   9.630   4.681  0.6838  1.2053  1.1859
  998MOL0     H34668   2.706   9.541   4.786  0.5674  0.6706 -0.1788
  998MOL0     H34669   2.654   9.736   4.961 -2.7507 -1.0620  1.3566
  998MOL0     H34670   2.528   9.792   4.845  0.8113  1.6592 -2.2617
  998MOL0     H34671   2.799   9.787   4.733  1.6415 -0.9445  2.7007
  998MOL0     H34672   2.657   9.876   4.694 -0.4691  2.7486  1.1327
  998MOL0     H34673   2.695   9.983   4.932 -1.8696 -3.1479 -0.1308
  998MOL0     H34674   2.869   9.922   4.905 -0.2905 -1.8723 -1.5134
  998MOL0     H34675   2.907  10.071   4.726 -1.9610 -1.4239 -1.9016
  998MOL0     H34676   2.746  10.088   4.697 -2.6942 -1.8867  1.4646
  998MOL0     H34677   2.849  10.179   4.971  1.5109 -1.3028 -0.9834
  998MOL0     H34678   2.713  10.254   4.891  0.9324  3.1911  2.0925
  998MOL0     H34679   2.992  10.281   4.757  0.4099 -0.1627 -1.4305
  998MOL0     H34680   2.836  10.373   4.728  0.7357  1.5338  1.7139
  998MOL0     H34681   3.140  10.339   4.977  1.2765  1.1135 -0.9529
  998MOL0     H34682   3.243  10.684   5.044  0.3681  1.3324  2.4967
  998MOL0     H34683   3.208  10.602   5.194  0.2862  0.8374 -0.3400
  998MOL0     H34684   3.416  10.514   5.112  2.4479 -1.8986 -2.3907
  998MOL0     H34685   3.309  10.393   5.046 -0.6864 -0.4600 -4.1890
  998MOL0     H34686   3.401  10.625   4.859 -1.8246  1.2967  0.8556
  998MOL0     H34687   3.280  10.501   4.843 -1.7486  3.4790  3.1806
  998MOL0     H34688   3.506  10.433   4.754 -0.9694 -1.6620  0.9748
  998MOL0     H34689   3.465  10.320   4.865  0.2501 -0.6327 -0.4786
  998MOL0     H34690   3.819  10.565   4.993 -0.8003  0.6541 -0.5285
  998MOL0     H34691   4.041  10.484   4.923  0.3035  0.1124 -0.2417
  998MOL0     H34692   4.123  10.053   4.504 -1.7436 -2.0876  3.0389
  998MOL0     H34693   4.321   9.951   4.374  1.1985  1.9397 -0.7265
  998MOL0     H34694   4.621   9.757   4.612 -2.0207  0.8646  0.1571
  998MOL0     H34695   4.485   9.717   4.513 -0.0178  0.2998  1.8663
  998MOL0     H34696   4.713   9.603   4.444  1.7872 -0.0506 -0.3940
  998MOL0     H34697   4.637   9.692   4.315 -1.6521  0.8570  0.7474
  998MOL0     H34698   4.773   9.903   4.377  2.8209  1.0059 -0.5750
  998MOL0     H34699   4.845   9.824   4.507 -0.3091  1.2815 -0.1844
  998MOL0     H34700   4.966   9.808   4.273 -0.9541  1.9366  1.0577
  998MOL0     H34701   4.840   9.704   4.218  1.6007  1.3364 -1.3648
  998MOL0     H34702   4.915   9.574   4.448 -0.8353  1.7750  0.5241
  998MOL0     H34703   5.075   9.637   4.394 -0.3358  0.3657  1.9227
  998MOL0     H34704   4.902   9.488   4.181  1.9684 -2.0602 -2.0772
  998MOL0     H34705   5.072   9.522   4.193 -0.4908  1.7405  1.0946
  998MOL0     H34706   4.932   9.339   4.390 -0.3903  0.1735 -1.2407
  998MOL0     H34707   5.101   9.346   4.386 -1.6802 -0.0493  1.7656
  998MOL0     H34708   5.006   9.150   4.266  1.3201  0.5051  1.8079
  998MOL0     H34709   4.908   9.247   4.154  0.6261 -0.1999 -1.1280
  998MOL0     H34710   4.555  10.013   4.725  0.0271 -1.9655  0.3623
  998MOL0     H34711   4.378  10.143   4.830  1.2841 -0.2373 -0.3874
  998MOL0     H34712   3.854  10.140   4.742 -1.0220  0.1365  0.4507
  998MOL0     H34713   3.640  10.208   4.825  0.4376 -1.7854  2.0219
  998MOL0     H34714   2.736   9.404   4.999  0.0316  1.0149 -1.8559
  998MOL0     H34715   2.817   9.164   4.994 -0.9496 -2.5747  1.1778
  998MOL0     H34716   2.749   8.767   4.610  1.3244  0.4899  1.2835
  998MOL0     H34717   2.828   8.529   4.581  0.6212 -2.5150  1.3848
  998MOL0     H34718   2.955   8.335   4.592 -2.7440  0.3458 -1.3934
  998MOL0     H34719   2.796   8.275   4.594  1.5664 -0.7376 -1.5655
  998MOL0     H34720   3.025   8.096   4.666  0.5067 -1.4030 -0.8323
  998MOL0     H34721   2.880   8.082   4.579 -1.8690  0.6314  0.3892
  998MOL0     H34722   2.734   8.064   4.778 -1.2829  0.2461  3.1636
  998MOL0     H34723   2.861   8.095   4.896 -2.4651 -2.0492  1.4743
  998MOL0     H34724   2.824   7.847   4.742 -1.2818  0.1158  0.8315
  998MOL0     H34725   2.992   7.899   4.800 -0.4673 -1.0297  0.3151
  998MOL0     H34726   2.800   7.780   5.152  0.3421  3.7269  1.1766
  998MOL0     H34727   2.867   8.465   4.991 -0.0212 -0.0577  0.7036
  998MOL0     H34728   2.866   8.827   5.076  0.3612  0.0514 -1.9382
  998MOL0     H34729   2.716   8.747   5.130  0.1162 -0.8174  1.7427
  998MOL0     H34730   2.862   8.664   5.134 -0.0341 -1.1793 -2.2093
  999MOL0     O34731   4.918   3.131   7.681 -0.2932  0.5098  0.3307
  999MOL0     C34732   4.966   3.246   7.688 -0.4104 -0.2376  0.1140
  999MOL0     O34733   4.927   3.355   7.604 -0.0075  0.6189  0.3919
  999MOL0     C34734   4.852   3.337   7.488 -0.2585  0.5492 -0.1532
  999MOL0     C34735   4.869   3.232   7.395 -0.5181  0.0794  0.1759
  999MOL0     C34736   4.786   3.221   7.287 -0.5563 -0.1481  0.5903
  999MOL0     C34737   4.677   3.304   7.276 -0.6138 -0.8906  0.9696
  999MOL0     O34738   4.596   3.302   7.159 -0.9822 -0.7026 -0.4151
  999MOL0     C34739   4.461   3.333   7.169  0.1253 -0.5131 -0.1531
  999MOL0     C34740   4.380   3.232   7.090  0.7247 -0.9694 -0.3503
  999MOL0     C34741   4.389   3.094   7.148  0.7526 -0.5125 -0.0495
  999MOL0     C34742   4.245   3.031   7.172  0.4396 -0.0487  0.1082
  999MOL0     C34743   4.259   2.893   7.251 -0.0701 -0.5190  0.3501
  999MOL0     C34744   4.117   2.833   7.251  0.8023  0.7416  0.7554
  999MOL0     C34745   4.079   2.735   7.132 -0.0346  0.9564 -0.6671
  999MOL0     C34746   3.944   2.670   7.163 -0.0617 -0.8527  0.1371
  999MOL0     N34747   3.912   2.547   7.072  0.1287 -0.9723  0.3688
  999MOL0     C34748   3.980   2.502   6.964  0.0517 -0.4593 -0.4814
  999MOL0     C34749   3.949   2.371   6.953  0.4307 -0.0811 -0.8719
  999MOL0     C34750   3.998   2.290   6.834  0.1809  0.5083 -0.1906
  999MOL0     C34751   3.958   2.141   6.851  0.3443  0.3548  1.8489
  999MOL0     C34752   3.817   2.135   6.804 -0.3411 -0.0255  0.1490
  999MOL0     C34753   3.756   1.994   6.815 -0.9457  0.9650 -0.2166
  999MOL0     O34754   3.619   2.015   6.785 -0.8996 -0.1730  0.7155
  999MOL0     C34755   3.529   1.910   6.783  0.4437  0.0101  0.0231
  999MOL0     C34756   3.566   1.780   6.779 -0.4535 -0.6821 -0.0065
  999MOL0     C34757   3.473   1.677   6.800  0.1408  0.3678  0.7067
  999MOL0     C34758   3.337   1.698   6.841 -0.0926 -0.3326  0.3462
  999MOL0     C34759   3.248   1.577   6.863 -0.7757  0.7099 -0.0713
  999MOL0     O34760   3.303   1.460   6.893 -0.7094  0.8003  0.1123
  999MOL0     C34761   3.235   1.341   6.926 -0.1707 -0.5178 -0.9419
  999MOL0     C34762   3.095   1.315   6.919 -0.1368  0.2592 -0.5517
  999MOL0     C34763   3.039   1.194   6.971  0.6286  0.4758  0.2245
  999MOL0     C34764   3.126   1.098   7.014 -0.0909  0.4506  0.2695
  999MOL0     O34765   3.075   0.986   7.075 -0.3005 -0.6758  0.2088
  999MOL0     C34766   3.139   0.862   7.063 -0.0983  0.6165 -0.8313
  999MOL0     C34767   3.038   0.755   7.053  1.5974  0.4597  0.3751
  999MOL0     C34768   3.081   0.615   7.083  0.3958  0.0487 -0.1514
  999MOL0     C34769   2.970   0.514   7.091 -0.0825 -0.7553  0.7783
  999MOL0     C34770   2.881   0.540   7.215 -0.2209  0.0236  0.3578
  999MOL0     C34771   2.802   0.406   7.235 -0.6340 -0.9274 -0.4702
  999MOL0     C34772   2.741   0.409   7.375  0.8324  0.5519 -0.2386
  999MOL0     C34773   2.701   0.269   7.419  0.2818 -0.5241 -0.0673
  999MOL0    Cl34774   2.560   0.237   7.318 -0.1256  0.9115  0.0981
  999MOL0     C34775   3.263   1.121   7.012 -0.0407 -2.1281  0.5444
  999MOL0     C34776   3.321   1.233   6.965 -0.0619  0.0674  0.5565
  999MOL0     O34777   3.130   1.608   6.856 -0.4900 -0.3733 -0.0668
  999MOL0     C34778   3.298   1.838   6.843 -0.0358  0.1932  0.7876
  999MOL0     C34779   3.393   1.940   6.810 -0.1554 -0.6154 -0.9087
  999MOL0     N34780   3.875   2.335   7.069 -0.4652  0.4330  0.5883
  999MOL0     N34781   3.843   2.441   7.124  0.1442  1.0557  0.1568
  999MOL0     C34782   4.664   3.411   7.359  0.0931  0.0687  0.2903
  999MOL0     C34783   4.755   3.434   7.462 -0.5083  0.7221 -0.6217
  999MOL0     C34784   5.066   3.271   7.795  0.5829  0.3284 -0.0481
  999MOL0     C34785   5.150   3.367   7.769 -1.0987 -0.7563  0.5762
  999MOL0     C34786   5.251   3.404   7.861  0.4370 -0.9432  0.8339
  999MOL0     C34787   5.269   3.330   7.977 -0.4959 -0.2587  0.1557
  999MOL0     O34788   5.361   3.343   8.074 -0.0176 -0.1082 -0.3725
  999MOL0     C34789   5.459   3.450   8.068  0.7536  0.3375  0.3489
  999MOL0     C34790   5.586   3.406   8.020  0.3640  0.2074  0.0909
  999MOL0     C34791   5.695   3.518   7.996  0.7230 -0.4172 -0.4430
  999MOL0     C34792   5.660   3.592   7.864 -0.0785 -0.4999  0.0473
  999MOL0     C34793   5.734   3.711   7.826  0.4016 -0.0389  0.0834
  999MOL0     C34794   5.789   3.811   7.772  0.6130 -0.8419  0.5591
  999MOL0     C34795   5.183   3.228   8.007  0.9433 -0.0583  0.1654
  999MOL0     C34796   5.078   3.201   7.917 -0.4033  0.0837 -0.2936
  999MOL0     C34797   4.992   3.076   7.952 -0.2094 -0.0527  0.5541
  999MOL0     H34798   4.942   3.153   7.407  0.8653  1.0244 -1.5304
  999MOL0     H34799   4.816   3.143   7.218  4.1497  1.4392  0.5280
  999MOL0     H34800   4.431   3.322   7.274 -0.1464  0.1139 -0.1648
  999MOL0     H34801   4.448   3.436   7.135  1.9576  0.1701  1.0588
  999MOL0     H34802   4.412   3.231   6.985 -1.5038  2.7775 -1.2780
  999MOL0     H34803   4.276   3.264   7.086  1.1749  1.0053  1.6642
  999MOL0     H34804   4.424   3.094   7.252 -0.4146 -1.3263  0.3533
  999MOL0     H34805   4.455   3.031   7.088  0.5270 -1.1954  0.4058
  999MOL0     H34806   4.182   3.096   7.233  0.3424 -0.0300 -0.0132
  999MOL0     H34807   4.200   3.017   7.074 -0.0273 -1.7863  0.5477
  999MOL0     H34808   4.328   2.825   7.200 -1.3465  0.1935 -2.5030
  999MOL0     H34809   4.299   2.907   7.352 -0.0264 -2.3517  0.6374
  999MOL0     H34810   4.127   2.771   7.341  3.0495 -0.2332 -0.0854
  999MOL0     H34811   4.036   2.901   7.279 -1.2843 -0.5463 -1.6931
  999MOL0     H34812   4.155   2.659   7.114  2.9659  3.3494  0.9117
  999MOL0     H34813   4.081   2.794   7.040  2.6265  4.3669  1.2941
  999MOL0     H34814   3.948   2.622   7.262  2.2798 -0.8092  0.1060
  999MOL0     H34815   3.862   2.742   7.167 -1.0138 -1.9509  1.4991
  999MOL0     H34816   4.024   2.564   6.887  0.0415  0.0938 -0.0523
  999MOL0     H34817   3.970   2.332   6.737  1.7212  0.3966 -0.7046
  999MOL0     H34818   4.106   2.295   6.822  0.0981  0.1871 -1.0898
  999MOL0     H34819   4.011   2.070   6.787 -4.0100 -3.3756  1.8822
  999MOL0     H34820   3.959   2.098   6.952  3.8360  0.7435  2.0987
  999MOL0     H34821   3.792   2.167   6.703  1.8598  1.0328 -0.1071
  999MOL0     H34822   3.759   2.193   6.876  0.1680 -1.2546  1.6014
  999MOL0     H34823   3.762   1.947   6.914 -1.2592  1.1662 -0.1023
  999MOL0     H34824   3.802   1.936   6.735 -2.0994  2.2336 -1.8480
  999MOL0     H34825   3.670   1.751   6.767  0.0331  0.4076  1.2627
  999MOL0     H34826   3.501   1.572   6.794 -4.4640 -1.1029  0.6406
  999MOL0     H34827   3.026   1.385   6.872 -1.3090  0.6035  1.5356
  999MOL0     H34828   2.933   1.178   6.959  0.6707 -0.8591  1.3207
  999MOL0     H34829   3.207   0.849   6.978 -0.7230 -0.4529 -1.1882
  999MOL0     H34830   3.193   0.854   7.158 -2.9799  3.4496  1.2608
  999MOL0     H34831   2.948   0.767   7.114  2.9193  1.3758  2.2233
  999MOL0     H34832   2.990   0.745   6.954 -5.1696  2.1453  2.9161
  999MOL0     H34833   3.167   0.572   7.031  1.5542 -2.3079  3.3295
  999MOL0     H34834   3.118   0.625   7.185 -0.0315  4.3401 -0.2198
  999MOL0     H34835   3.015   0.414   7.087  1.8818  0.1295 -1.2937
  999MOL0     H34836   2.907   0.531   7.004  4.8691  2.4421 -2.7459
  999MOL0     H34837   2.823   0.632   7.207  2.4374  1.8275  0.6550
  999MOL0     H34838   2.941   0.551   7.306 -3.6852 -1.2962  3.0376
  999MOL0     H34839   2.727   0.389   7.157 -0.8628 -1.7414 -0.0817
  999MOL0     H34840   2.872   0.323   7.227  3.2378  2.1258 -1.3510
  999MOL0     H34841   2.648   0.465   7.381  2.3318  3.2522 -0.5063
  999MOL0     H34842   2.811   0.460   7.442  0.1349  1.8573 -0.4848
  999MOL0     H34843   2.784   0.201   7.397  1.3335  1.2143 -1.7556
  999MOL0     H34844   2.666   0.268   7.522  0.8313 -0.8451  0.1196
  999MOL0     H34845   3.331   1.045   7.051  0.6056 -0.7194  2.2827
  999MOL0     H34846   3.429   1.248   6.961 -0.0068  3.4116  5.4706
  999MOL0     H34847   3.200   1.875   6.869 -0.3362 -0.6742  0.8881
  999MOL0     H34848   3.373   2.045   6.827 -0.7242 -1.2240  3.1318
  999MOL0     H34849   4.592   3.489   7.336 -0.9588 -0.9124  0.1379
  999MOL0     H34850   4.749   3.516   7.533  0.1893  1.6456 -1.5995
  999MOL0     H34851   5.134   3.436   7.686 -2.5162  1.2520  2.4065
  999MOL0     H34852   5.322   3.475   7.819  1.6913 -2.7655 -0.2154
  999MOL0     H34853   5.469   3.485   8.171  0.2294  0.2604  0.4279
  999MOL0     H34854   5.423   3.538   8.013  0.8522  0.5135  0.5650
  999MOL0     H34855   5.583   3.341   7.932  2.6979 -1.8359  1.3947
  999MOL0     H34856   5.632   3.347   8.100  2.3138  1.9372  0.3369
  999MOL0     H34857   5.790   3.465   7.980  0.7602  0.6758 -5.7847
  999MOL0     H34858   5.688   3.585   8.081 -1.0366 -1.3749  0.2248
  999MOL0     H34859   5.672   3.519   7.784 -3.4105 -1.1676  0.0025
  999MOL0     H34860   5.554   3.620   7.866  0.0776  0.1544  2.2406
  999MOL0     H34861   5.839   3.901   7.741 -2.6357  0.8304 -0.2526
  999MOL0     H34862   5.187   3.166   8.096  3.4951 -0.8329 -0.4112
  999MOL0     H34863   4.885   3.093   7.938  0.1588  1.4892 -0.6314
  999MOL0     H34864   5.036   3.006   7.880 -1.8158  0.5213 -1.0816
  999MOL0     H34865   4.995   3.054   8.059 -0.1841 -0.0921  0.5451
 1000MOL0     O34866   2.756   0.157   8.506 -0.6138 -0.1593 -0.6923
 1000MOL0     C34867   2.833   0.209   8.588 -1.2705 -0.1915  1.0724
 1000MOL0     O34868   2.804   0.235   8.715 -0.1488  0.5638  0.1056
 1000MOL0     C34869   2.842   0.355   8.754 -0.6281 -0.8401  0.0067
 1000MOL0     C34870   2.773   0.467   8.699 -0.5961  0.5854  1.4526
 1000MOL0     C34871   2.827   0.596   8.714 -0.4565 -0.4119 -0.5034
 1000MOL0     C34872   2.945   0.612   8.790 -0.0427 -0.0073 -0.0754
 1000MOL0     O34873   2.988   0.745   8.820 -0.2908  0.1960  1.0220
 1000MOL0     C34874   3.025   0.821   8.696 -0.1782  1.3522  0.6678
 1000MOL0     C34875   3.100   0.951   8.724 -0.5337  0.9605 -1.1955
 1000MOL0     C34876   3.119   1.039   8.606 -0.4059 -1.0978  0.3947
 1000MOL0     C34877   3.214   0.993   8.498  0.9160  0.4742  0.1352
 1000MOL0     C34878   3.209   1.088   8.373 -0.3778 -0.0403  0.8145
 1000MOL0     C34879   3.242   1.237   8.398  1.1612  0.4276  1.1989
 1000MOL0     C34880   3.298   1.308   8.269 -0.4652  1.6843  0.5572
 1000MOL0     C34881   3.200   1.295   8.164  0.1462 -0.2091 -0.1835
 1000MOL0     N34882   3.238   1.389   8.052 -0.3389  0.4222  0.7509
 1000MOL0     C34883   3.224   1.526   8.050 -0.3655  0.0802 -0.0930
 1000MOL0     C34884   3.270   1.552   7.925 -0.1682 -0.7768  0.3184
 1000MOL0     C34885   3.276   1.689   7.868  0.8156  0.3757  0.4628
 1000MOL0     C34886   3.171   1.698   7.761  0.1206 -0.0252  0.3494
 1000MOL0     C34887   3.122   1.829   7.729 -0.2346  0.2639 -0.3213
 1000MOL0     C34888   3.211   1.900   7.634 -0.7977 -1.8105  0.4183
 1000MOL0     O34889   3.170   2.037   7.592 -0.4654  0.5569 -0.1008
 1000MOL0     C34890   3.220   2.141   7.657 -0.1374  0.4300  0.4097
 1000MOL0     C34891   3.200   2.268   7.591 -0.2654  0.7460  0.0572
 1000MOL0     C34892   3.234   2.386   7.657 -0.4319  0.3063  0.9980
 1000MOL0     C34893   3.291   2.387   7.780  0.3768 -0.5012 -0.0394
 1000MOL0     C34894   3.315   2.516   7.840 -0.0864  0.2925 -0.8814
 1000MOL0     O34895   3.276   2.624   7.772 -0.2781  0.0640 -1.0422
 1000MOL0     C34896   3.330   2.746   7.806 -0.2983 -0.3463 -0.0157
 1000MOL0     C34897   3.240   2.846   7.804  0.6497  0.1765  0.6918
 1000MOL0     C34898   3.275   2.976   7.844 -0.2558  0.5162 -0.0931
 1000MOL0     C34899   3.410   3.000   7.887  0.0941 -0.3864 -0.6199
 1000MOL0     O34900   3.456   3.118   7.951 -0.8195  0.5572 -0.2493
 1000MOL0     C34901   3.370   3.230   7.961 -0.3848 -0.8592 -0.3515
 1000MOL0     C34902   3.431   3.338   8.051  0.5851 -0.5608 -0.1312
 1000MOL0     C34903   3.458   3.290   8.192  0.1157 -0.5132 -0.3765
 1000MOL0     C34904   3.326   3.261   8.254 -0.0116 -0.1953  0.4507
 1000MOL0     C34905   3.335   3.263   8.407  0.4852 -0.2007  0.3012
 1000MOL0     C34906   3.200   3.210   8.465 -0.0033 -0.6577 -0.1902
 1000MOL0     C34907   3.187   3.239   8.613  0.8056 -0.2956  0.7781
 1000MOL0     C34908   3.034   3.244   8.646 -0.7107  0.3535 -0.0087
 1000MOL0    Cl34909   2.960   3.072   8.651 -0.0138 -0.3219  0.6123
 1000MOL0     C34910   3.497   2.894   7.883 -0.4381 -0.0624 -0.3439
 1000MOL0     C34911   3.460   2.772   7.835 -0.9187  0.4751 -0.8204
 1000MOL0     O34912   3.389   2.521   7.937 -0.1079  0.2461  0.2912
 1000MOL0     C34913   3.329   2.262   7.834 -0.1364  0.3193 -0.4865
 1000MOL0     C34914   3.293   2.148   7.773 -0.4090 -0.1413  0.1346
 1000MOL0     N34915   3.285   1.438   7.847  0.2598  0.7022 -0.1654
 1000MOL0     N34916   3.266   1.345   7.927 -0.6776 -1.1472  0.0067
 1000MOL0     C34917   3.000   0.496   8.863  0.5338  0.1995  0.0563
 1000MOL0     C34918   2.949   0.370   8.847  0.7866  0.7798  0.8006
 1000MOL0     C34919   2.977   0.222   8.539  0.7298 -0.8673 -0.7250
 1000MOL0     C34920   3.070   0.162   8.622  0.3570 -0.5838  0.1173
 1000MOL0     C34921   3.208   0.168   8.596 -0.0679 -0.4422 -1.4549
 1000MOL0     C34922   3.243   0.211   8.465  0.1338 -0.0034 -0.2092
 1000MOL0     O34923   3.376   0.209   8.433  0.0550  0.3614  0.4953
 1000MOL0     C34924   3.421   0.089   8.372 -0.0175  0.6451  0.1354
 1000MOL0     C34925   3.554   0.063   8.423 -0.7216  0.8581 -0.0729
 1000MOL0     C34926   3.675   0.143   8.359 -0.5771  0.4131  0.9383
 1000MOL0     C34927   3.690   0.124   8.198 -0.2568 -0.0133  0.1515
 1000MOL0     C34928   3.751  -0.000   8.159 -0.3027  0.6093  0.4326
 1000MOL0     C34929   3.815  -0.103   8.136 -0.3081  0.8094 -0.2723
 1000MOL0     C34930   3.147   0.265   8.368 -0.0409 -0.1154  1.1899
 1000MOL0     C34931   3.012   0.271   8.411 -0.3001 -0.7716  0.0550
 1000MOL0     C34932   2.910   0.325   8.317  0.0455 -0.9135 -0.4901
 1000MOL0     H34933   2.688   0.457   8.631  0.0545  2.0137  0.3791
 1000MOL0     H34934   2.780   0.688   8.680  1.0421  1.0843  1.2998
 1000MOL0     H34935   3.087   0.759   8.630 -2.1884  0.2743 -0.3195
 1000MOL0     H34936   2.932   0.845   8.643 -1.9979 -1.7509  2.1950
 1000MOL0     H34937   3.200   0.931   8.765 -1.4185 -0.7706  0.2492
 1000MOL0     H34938   3.051   1.002   8.807  1.0354 -0.4165  0.6703
 1000MOL0     H34939   3.171   1.127   8.644 -1.5532  1.1272 -2.7653
 1000MOL0     H34940   3.019   1.057   8.564  0.0306  2.2302  0.4984
 1000MOL0     H34941   3.317   0.997   8.533  1.7569  2.1454 -2.2453
 1000MOL0     H34942   3.195   0.888   8.471  1.7895 -0.2023  1.9603
 1000MOL0     H34943   3.298   1.057   8.317 -0.9132  1.7630 -1.1597
 1000MOL0     H34944   3.119   1.080   8.313 -0.8750  0.5685  1.4562
 1000MOL0     H34945   3.150   1.290   8.422  1.4182  1.5315 -0.0933
 1000MOL0     H34946   3.300   1.235   8.490 -1.2959 -0.3772  2.8223
 1000MOL0     H34947   3.400   1.272   8.251 -0.8054 -0.0660  1.8621
 1000MOL0     H34948   3.317   1.412   8.295  3.4219  1.7114 -1.6049
 1000MOL0     H34949   3.178   1.192   8.135  1.6882 -0.7513  0.4884
 1000MOL0     H34950   3.107   1.340   8.202  1.9268  3.0447  0.7178
 1000MOL0     H34951   3.191   1.602   8.119  0.3525  0.9468 -0.6722
 1000MOL0     H34952   3.264   1.764   7.947 -2.6303  1.3855 -0.8115
 1000MOL0     H34953   3.376   1.688   7.824  0.3420 -0.8151 -0.6416
 1000MOL0     H34954   3.197   1.642   7.670 -0.4572  1.2671 -0.6491
 1000MOL0     H34955   3.088   1.630   7.783  0.3979 -1.9569 -3.6705
 1000MOL0     H34956   3.086   1.884   7.817  0.7712 -1.9195  1.5709
 1000MOL0     H34957   3.032   1.816   7.669 -1.6123  1.1581  1.4417
 1000MOL0     H34958   3.219   1.841   7.542 -0.4589  0.9988 -1.4671
 1000MOL0     H34959   3.309   1.915   7.681 -0.2189 -0.4846 -1.1245
 1000MOL0     H34960   3.147   2.276   7.496  0.8187 -1.3614 -0.8066
 1000MOL0     H34961   3.219   2.480   7.604  0.8497  0.8125  1.5080
 1000MOL0     H34962   3.147   2.826   7.752  1.5380 -1.0378 -0.4929
 1000MOL0     H34963   3.203   3.056   7.854  1.6455  2.8178 -3.0017
 1000MOL0     H34964   3.350   3.267   7.860 -0.9626 -0.8966 -0.2528
 1000MOL0     H34965   3.271   3.192   7.989 -0.6147 -2.6768 -3.2329
 1000MOL0     H34966   3.524   3.372   8.005  0.2734  0.2690 -0.1594
 1000MOL0     H34967   3.359   3.419   8.045 -0.2497 -1.2761  0.0193
 1000MOL0     H34968   3.526   3.205   8.186 -2.3941 -2.5377 -2.5940
 1000MOL0     H34969   3.507   3.370   8.249  2.4722 -2.3455  0.3123
 1000MOL0     H34970   3.287   3.162   8.228 -0.6868  0.0192  0.6314
 1000MOL0     H34971   3.244   3.330   8.236  0.6449  0.8780  1.4202
 1000MOL0     H34972   3.364   3.360   8.447 -1.2336 -0.7990  3.2960
 1000MOL0     H34973   3.406   3.191   8.447 -0.5742 -1.3254  0.2138
 1000MOL0     H34974   3.113   3.243   8.408 -0.3717 -0.0337  0.7064
 1000MOL0     H34975   3.196   3.101   8.460 -0.6812 -0.7488  1.4603
 1000MOL0     H34976   3.236   3.334   8.639 -1.9611  1.0514  1.5494
 1000MOL0     H34977   3.219   3.150   8.667  3.1118  1.1031  1.8900
 1000MOL0     H34978   3.015   3.292   8.743 -1.2737  0.2992 -0.0854
 1000MOL0     H34979   2.990   3.314   8.574 -0.0527 -2.0235 -2.9490
 1000MOL0     H34980   3.599   2.907   7.916 -1.0947  0.1741  1.7635
 1000MOL0     H34981   3.544   2.703   7.836  3.1979  4.5974  4.0324
 1000MOL0     H34982   3.379   2.265   7.931 -1.4698  0.1637  0.2268
 1000MOL0     H34983   3.314   2.052   7.820  1.4780  0.3995  0.4825
 1000MOL0     H34984   3.079   0.506   8.938  0.4598  0.6600  0.0757
 1000MOL0     H34985   2.999   0.285   8.892  2.0460  2.3327  2.5094
 1000MOL0     H34986   3.030   0.134   8.719 -0.9289  2.7694  0.6652
 1000MOL0     H34987   3.280   0.141   8.673  0.6465 -4.1897 -3.1881
 1000MOL0     H34988   3.405   0.101   8.265 -1.0020  1.9877  0.3961
 1000MOL0     H34989   3.361  -0.001   8.386  0.1000 -0.2790 -3.9792
 1000MOL0     H34990   3.580  -0.037   8.389  0.7773  1.0787  0.3215
 1000MOL0     H34991   3.567   0.057   8.532  0.2547 -1.2192 -0.2553
 1000MOL0     H34992   3.769   0.120   8.410  0.3665  0.5998 -0.6628
 1000MOL0     H34993   3.665   0.250   8.381  1.6768  0.6793  0.8602
 1000MOL0     H34994   3.594   0.117   8.146  1.9587  2.3595 -5.0274
 1000MOL0     H34995   3.745   0.208   8.155  1.9747 -1.5425 -0.1537
 1000MOL0     H34996   3.876  -0.192   8.130  0.5087  1.3483 -0.0879
 1000MOL0     H34997   3.166   0.316   8.274 -2.2847 -1.6426 -0.2122
 1000MOL0     H34998   2.829   0.374   8.373  2.0212 -0.1450  1.8607
 1000MOL0     H34999   2.945   0.396   8.241 -0.7021 -1.2234 -1.1407
 1000MOL0     H35000   2.854   0.244   8.270 -2.3637  0.1516  0.3785
 1001MOL0     O35001  10.468   5.336   7.539 -0.0826  0.7942 -0.1787
 1001MOL0     C35002  10.524   5.230   7.505  0.1961 -0.1076 -0.6147
 1001MOL0     O35003  10.549   5.128   7.585 -0.0586 -0.2391  0.1372
 1001MOL0     C35004  10.524   5.151   7.724  0.6391 -0.0230 -0.1280
 1001MOL0     C35005  10.629   5.152   7.816 -0.2120  0.8573  0.1203
 1001MOL0     C35006  10.619   5.172   7.954 -0.4096 -0.4290  1.1741
 1001MOL0     C35007  10.494   5.203   8.002  0.3407  0.1484  0.5606
 1001MOL0     O35008  10.503   5.257   8.134 -0.2576 -0.7063  0.3127
 1001MOL0     C35009  10.392   5.255   8.219  0.4665  0.0664  0.4123
 1001MOL0     C35010  10.376   5.120   8.302  0.0217 -0.4823 -0.1259
 1001MOL0     C35011  10.379   4.999   8.207  0.5476  0.2138  0.1322
 1001MOL0     C35012  10.364   4.874   8.296 -0.0653  0.2532  0.6082
 1001MOL0     C35013  10.229   4.859   8.367 -1.1014  0.1637 -0.8969
 1001MOL0     C35014  10.209   4.724   8.437  0.3408 -0.8638  0.3325
 1001MOL0     C35015  10.325   4.672   8.517 -0.0897  0.4797  0.2533
 1001MOL0     C35016  10.368   4.764   8.622  0.8426  0.3471 -0.0185
 1001MOL0     N35017  10.464   4.689   8.709 -0.7291 -0.1198 -1.6155
 1001MOL0     C35018  10.519   4.735   8.825 -0.4692 -0.1172  0.0965
 1001MOL0     C35019  10.585   4.628   8.884  0.4394  0.9627  0.2243
 1001MOL0     C35020  10.672   4.634   9.009 -0.5628 -0.4257 -0.6669
 1001MOL0     C35021  10.821   4.608   8.981  0.3663 -0.5014 -0.2296
 1001MOL0     C35022  10.891   4.742   8.939  0.0913  0.0845  0.8751
 1001MOL0     C35023  11.038   4.733   8.973  0.4260 -0.2993 -0.5623
 1001MOL0     O35024  11.106   4.850   8.929  0.5738  0.1578 -0.1413
 1001MOL0     C35025  11.148   4.866   8.799 -0.3087  0.8034 -0.0427
 1001MOL0     C35026  11.116   4.779   8.693  0.5488  0.8135  0.0744
 1001MOL0     C35027  11.160   4.799   8.565 -0.2747  0.1883  0.2631
 1001MOL0     C35028  11.235   4.911   8.540 -0.1318  0.5564 -0.2385
 1001MOL0     C35029  11.267   4.948   8.400 -0.7656 -0.1760 -0.1378
 1001MOL0     O35030  11.295   5.085   8.385  0.0767  0.1698  0.5754
 1001MOL0     C35031  11.317   5.133   8.255  0.4448  0.2396 -0.1821
 1001MOL0     C35032  11.218   5.159   8.157  0.8064  0.2086 -0.5384
 1001MOL0     C35033  11.252   5.203   8.033 -0.9499  0.0075  0.3947
 1001MOL0     C35034  11.390   5.224   7.993  0.2295 -0.0880  0.5857
 1001MOL0     O35035  11.414   5.293   7.872  1.0430 -0.6423 -0.2320
 1001MOL0     C35036  11.547   5.316   7.815 -0.0241 -0.2001 -0.8395
 1001MOL0     C35037  11.544   5.377   7.681 -0.3888 -0.7020  0.4787
 1001MOL0     C35038  11.683   5.440   7.638 -0.1990  0.0087  0.7628
 1001MOL0     C35039  11.668   5.538   7.505 -0.5002  0.7668 -0.5592
 1001MOL0     C35040  11.798   5.523   7.431 -0.0940 -0.4570 -0.2533
 1001MOL0     C35041  11.926   5.567   7.513 -0.0462  1.0662  0.9672
 1001MOL0     C35042  11.938   5.722   7.544  0.0579  0.4842  0.0489
 1001MOL0     C35043  12.022   5.755   7.667 -0.2050  0.6650 -0.4842
 1001MOL0    Cl35044  12.067   5.939   7.676  0.1189 -0.1874 -0.4155
 1001MOL0     C35045  11.490   5.174   8.079 -0.4606  0.6682  0.6031
 1001MOL0     C35046  11.451   5.129   8.207 -0.5873 -0.8859 -0.2012
 1001MOL0     O35047  11.261   4.866   8.309 -0.2667  0.2998  0.0882
 1001MOL0     C35048  11.280   4.991   8.645 -0.2135  0.6107 -0.0691
 1001MOL0     C35049  11.241   4.971   8.773  0.0567 -0.5493 -0.4110
 1001MOL0     N35050  10.552   4.516   8.805 -0.2296 -0.1657  0.2467
 1001MOL0     N35051  10.487   4.559   8.707 -0.4557  0.0589  0.7090
 1001MOL0     C35052  10.387   5.203   7.920 -0.4088 -0.4579  0.0061
 1001MOL0     C35053  10.394   5.167   7.780  0.1872 -0.3159  0.5376
 1001MOL0     C35054  10.555   5.216   7.357  0.9490  0.5121 -0.7182
 1001MOL0     C35055  10.506   5.298   7.255  0.2364  0.2120  0.1711
 1001MOL0     C35056  10.544   5.288   7.119 -0.2763  0.4108  0.2142
 1001MOL0     C35057  10.619   5.185   7.078 -0.2698  0.2544 -0.6999
 1001MOL0     O35058  10.651   5.189   6.948 -0.6105 -0.0076  0.1716
 1001MOL0     C35059  10.735   5.096   6.880 -0.0891  0.4311  0.3483
 1001MOL0     C35060  10.731   5.113   6.731 -0.4830 -0.4197  0.0845
 1001MOL0     C35061  10.828   5.227   6.685  0.1452  0.8004  0.1443
 1001MOL0     C35062  10.825   5.230   6.531  0.6836 -0.0243  0.9705
 1001MOL0     C35063  10.716   5.323   6.492  0.4621 -0.6318  0.1808
 1001MOL0     C35064  10.613   5.391   6.469  0.2615 -0.4281  0.0522
 1001MOL0     C35065  10.666   5.093   7.172 -0.7941 -0.0910  0.3357
 1001MOL0     C35066  10.647   5.115   7.312 -0.4949  0.5993 -0.6370
 1001MOL0     C35067  10.722   5.015   7.401  0.4475  0.0259  0.3232
 1001MOL0     H35068  10.719   5.128   7.760 -1.0305 -2.8049  0.1575
 1001MOL0     H35069  10.705   5.168   8.020  3.1927  2.4991 -2.7961
 1001MOL0     H35070  10.407   5.334   8.294 -1.4775  1.2053 -0.3309
 1001MOL0     H35071  10.295   5.257   8.170  0.2748 -3.2559  0.4603
 1001MOL0     H35072  10.274   5.126   8.342 -1.1628  0.5739 -3.0072
 1001MOL0     H35073  10.450   5.112   8.382 -1.0638  0.4867  1.0101
 1001MOL0     H35074  10.469   4.996   8.145  0.5057  3.8618 -0.3182
 1001MOL0     H35075  10.287   5.016   8.151  0.7483  2.3850  0.3559
 1001MOL0     H35076  10.403   4.784   8.248  0.2919  1.6897 -1.9836
 1001MOL0     H35077  10.432   4.888   8.381 -2.1423 -2.2207  2.8428
 1001MOL0     H35078  10.215   4.942   8.436  1.3900  1.9647 -2.3678
 1001MOL0     H35079  10.149   4.850   8.292 -1.7406 -2.8661  0.0146
 1001MOL0     H35080  10.125   4.729   8.508  2.2185  0.1411  2.6030
 1001MOL0     H35081  10.196   4.647   8.360 -0.1065 -1.1100  0.6467
 1001MOL0     H35082  10.405   4.656   8.444 -2.5970 -0.5661 -2.4572
 1001MOL0     H35083  10.298   4.577   8.563 -1.9388  2.5831  3.9660
 1001MOL0     H35084  10.422   4.839   8.563  1.2586 -1.2948 -1.8399
 1001MOL0     H35085  10.283   4.798   8.683  1.1023  0.6160  0.1976
 1001MOL0     H35086  10.505   4.835   8.864  1.4693 -0.5260  1.9992
 1001MOL0     H35087  10.666   4.734   9.054 -1.7871  0.0729 -1.8486
 1001MOL0     H35088  10.631   4.566   9.085  0.3045  1.6219  1.7862
 1001MOL0     H35089  10.871   4.588   9.076 -0.6762  0.1275  0.4636
 1001MOL0     H35090  10.835   4.529   8.906 -0.1830  0.6779 -1.6372
 1001MOL0     H35091  10.860   4.818   9.011 -1.9856 -0.5719  0.7395
 1001MOL0     H35092  10.876   4.769   8.834  3.6260 -2.7146 -0.5578
 1001MOL0     H35093  11.063   4.639   8.923 -0.8385  0.4098 -2.6672
 1001MOL0     H35094  11.039   4.730   9.082  1.5150 -2.1354 -0.5894
 1001MOL0     H35095  11.043   4.698   8.697 -0.6480  1.8144 -0.7263
 1001MOL0     H35096  11.121   4.745   8.479 -0.2466 -0.9603  0.9514
 1001MOL0     H35097  11.114   5.145   8.185  0.7278  3.2089  1.0695
 1001MOL0     H35098  11.174   5.242   7.968 -0.5475  1.5773  0.8002
 1001MOL0     H35099  11.603   5.381   7.882  1.7563  1.5366 -3.8094
 1001MOL0     H35100  11.597   5.219   7.817 -0.1650 -0.3008  2.3009
 1001MOL0     H35101  11.509   5.305   7.607  0.4666  0.9823 -1.7013
 1001MOL0     H35102  11.460   5.447   7.684 -0.1389 -0.4274  2.6573
 1001MOL0     H35103  11.733   5.495   7.718  1.6749 -0.9361  0.2946
 1001MOL0     H35104  11.748   5.356   7.610  0.9666  1.1997 -0.2399
 1001MOL0     H35105  11.645   5.638   7.542 -0.3003  0.8214 -0.5836
 1001MOL0     H35106  11.589   5.500   7.440 -0.5123 -2.3192  1.0469
 1001MOL0     H35107  11.787   5.597   7.351  0.6464 -2.8246 -2.7117
 1001MOL0     H35108  11.811   5.421   7.395  3.1011  0.6288 -2.6823
 1001MOL0     H35109  11.915   5.512   7.607  2.5889 -1.1042  0.1218
 1001MOL0     H35110  12.023   5.542   7.469  1.1745  4.9336  1.1300
 1001MOL0     H35111  11.832   5.751   7.555  0.7949  3.0390  1.2696
 1001MOL0     H35112  11.979   5.786   7.466 -0.8435  0.5580 -0.3852
 1001MOL0     H35113  11.961   5.723   7.752  3.0054  0.8601  2.0594
 1001MOL0     H35114  12.112   5.694   7.670 -2.0342 -2.1970  1.1601
 1001MOL0     H35115  11.596   5.182   8.057 -0.7536  0.7467 -0.8925
 1001MOL0     H35116  11.523   5.091   8.278 -1.8997 -2.7312  0.2068
 1001MOL0     H35117  11.352   5.071   8.634  1.0443 -0.0330  2.5995
 1001MOL0     H35118  11.281   5.016   8.863 -0.4244 -2.1653  0.6663
 1001MOL0     H35119  10.283   5.224   7.943 -1.1739 -0.5718 -2.9284
 1001MOL0     H35120  10.305   5.174   7.718  0.4152  4.1774  0.3908
 1001MOL0     H35121  10.437   5.380   7.272 -1.2959 -1.4282  2.3884
 1001MOL0     H35122  10.511   5.361   7.046 -0.8268 -1.1542 -1.1616
 1001MOL0     H35123  10.698   4.997   6.909 -0.4826 -0.5809 -3.2143
 1001MOL0     H35124  10.834   5.124   6.917  0.5787  1.3517 -1.9563
 1001MOL0     H35125  10.631   5.119   6.686 -0.2211 -1.1092 -0.6151
 1001MOL0     H35126  10.780   5.019   6.707  1.3901  0.2850  0.9881
 1001MOL0     H35127  10.922   5.190   6.726 -2.5044 -1.4779  5.0050
 1001MOL0     H35128  10.801   5.327   6.721 -1.0890  1.9221 -3.4597
 1001MOL0     H35129  10.926   5.262   6.505  0.9379  0.6971  2.7041
 1001MOL0     H35130  10.810   5.131   6.486 -2.4927  1.0637 -0.7415
 1001MOL0     H35131  10.530   5.456   6.451  2.4062  3.4812  2.6054
 1001MOL0     H35132  10.720   5.011   7.128 -0.9935  0.2295 -0.5204
 1001MOL0     H35133  10.805   5.065   7.452 -0.1960 -0.1907  1.6171
 1001MOL0     H35134  10.658   4.962   7.472  0.8008  1.1758  1.5323
 1001MOL0     H35135  10.776   4.946   7.335  0.2790  0.2170 -0.0228
 1002MOL0     O35136  11.202   3.769   5.299  0.3811  0.7553 -0.6022
 1002MOL0     C35137  11.080   3.753   5.319 -0.4924  0.1194 -1.3843
 1002MOL0     O35138  11.030   3.699   5.431  0.9275  0.4582  0.3006
 1002MOL0     C35139  11.116   3.640   5.519  0.0408  0.5813  0.2921
 1002MOL0     C35140  11.104   3.506   5.543 -0.0718 -0.6676 -0.2708
 1002MOL0     C35141  11.179   3.455   5.643 -0.6278 -0.4069 -0.3507
 1002MOL0     C35142  11.274   3.515   5.723 -0.3425  0.8271 -0.9199
 1002MOL0     O35143  11.350   3.439   5.817  0.6503 -0.1526 -0.0426
 1002MOL0     C35144  11.471   3.498   5.878 -1.2914 -0.4095  0.1909
 1002MOL0     C35145  11.589   3.538   5.780  0.2382  0.5913 -0.0624
 1002MOL0     C35146  11.670   3.409   5.746  0.4598 -0.0914 -0.1122
 1002MOL0     C35147  11.765   3.423   5.624 -0.8909 -0.4126 -0.1253
 1002MOL0     C35148  11.833   3.299   5.592 -0.1390 -0.1672 -0.7497
 1002MOL0     C35149  11.937   3.309   5.478  0.3034 -0.4121 -1.2584
 1002MOL0     C35150  11.969   3.156   5.459 -0.4983  0.5493  0.3947
 1002MOL0     C35151  12.096   3.127   5.364 -0.0067  0.0162 -0.4642
 1002MOL0     N35152  12.216   3.194   5.413 -0.2522  0.5699  0.2927
 1002MOL0     C35153  12.266   3.170   5.530  0.9152 -0.4207 -0.2641
 1002MOL0     C35154  12.368   3.253   5.550 -0.4410  0.5364 -1.2910
 1002MOL0     C35155  12.444   3.251   5.682 -0.7218  0.1988  0.2174
 1002MOL0     C35156  12.362   3.329   5.774 -0.1112  0.2521 -0.2102
 1002MOL0     C35157  12.413   3.322   5.925 -0.6097  0.6409 -0.6750
 1002MOL0     C35158  12.325   3.398   6.022  0.0940 -0.2184  0.0023
 1002MOL0     O35159  12.194   3.341   6.021 -0.2052 -0.6241 -0.2401
 1002MOL0     C35160  12.089   3.418   6.065  0.0071 -0.5768  0.3160
 1002MOL0     C35161  12.046   3.405   6.205  0.0544 -0.3099 -0.6787
 1002MOL0     C35162  11.932   3.473   6.261  0.9147 -0.5658  0.7859
 1002MOL0     C35163  11.861   3.561   6.168  0.0917  0.2478  0.3796
 1002MOL0     C35164  11.733   3.630   6.197 -0.4774  0.4152  0.2858
 1002MOL0     O35165  11.694   3.727   6.105 -0.1928 -0.6789 -0.6756
 1002MOL0     C35166  11.574   3.794   6.097  0.5110 -0.2025  0.3650
 1002MOL0     C35167  11.567   3.882   5.987 -0.4203  0.4010 -0.2375
 1002MOL0     C35168  11.446   3.952   5.973 -1.0409 -0.8273  0.4893
 1002MOL0     C35169  11.339   3.951   6.063 -0.2848  0.8884  0.1481
 1002MOL0     O35170  11.224   4.028   6.059 -0.2885  0.3186  0.9711
 1002MOL0     C35171  11.102   3.975   5.998  0.1943  1.0361  0.0363
 1002MOL0     C35172  11.091   4.007   5.853  1.2316  0.3100  0.2506
 1002MOL0     C35173  10.967   3.940   5.795 -0.2374  0.1761  0.0543
 1002MOL0     C35174  10.918   3.995   5.664  1.0599  0.1773  0.7597
 1002MOL0     C35175  11.020   4.064   5.566  0.3126 -0.0194 -0.3052
 1002MOL0     C35176  10.935   4.097   5.442  0.6013 -0.4271  0.8103
 1002MOL0     C35177  10.997   4.202   5.342  0.4386 -0.8588  0.8519
 1002MOL0     C35178  10.975   4.341   5.394 -0.3702  0.7285  0.0310
 1002MOL0    Cl35179  10.815   4.409   5.395  0.2248 -0.1222 -0.1988
 1002MOL0     C35180  11.362   3.878   6.178  0.1348  0.2751 -0.6834
 1002MOL0     C35181  11.480   3.805   6.200 -0.0159  0.1483  0.9720
 1002MOL0     O35182  11.663   3.581   6.284  0.3919  0.1417 -0.9713
 1002MOL0     C35183  11.911   3.567   6.031 -0.4471  0.4979 -0.1356
 1002MOL0     C35184  12.016   3.499   5.982  0.0385 -0.0987  0.4542
 1002MOL0     N35185  12.364   3.342   5.444 -0.8460  0.2111 -0.1439
 1002MOL0     N35186  12.272   3.306   5.367  0.4492 -0.2671  0.2067
 1002MOL0     C35187  11.289   3.648   5.692 -0.0510 -0.6287  0.5037
 1002MOL0     C35188  11.212   3.704   5.591 -0.4619 -0.0194  0.2066
 1002MOL0     C35189  10.995   3.805   5.217  0.4051 -1.2613  0.1923
 1002MOL0     C35190  10.853   3.771   5.213  0.0298  0.7181 -0.0064
 1002MOL0     C35191  10.777   3.791   5.095 -0.2948 -0.2551 -0.0000
 1002MOL0     C35192  10.829   3.857   4.983  0.0824  0.8843  0.2850
 1002MOL0     O35193  10.751   3.890   4.878 -0.5186 -0.9661 -0.0001
 1002MOL0     C35194  10.685   4.018   4.885 -0.0639 -0.6774 -0.7113
 1002MOL0     C35195  10.681   4.096   4.757 -0.1814  0.9380 -0.1157
 1002MOL0     C35196  10.639   4.012   4.634  1.1187 -0.0672 -0.2604
 1002MOL0     C35197  10.630   4.090   4.501 -0.2930  0.1471 -0.5103
 1002MOL0     C35198  10.535   4.029   4.410 -0.5832 -1.3780 -1.2309
 1002MOL0     C35199  10.441   3.970   4.356 -0.5551 -0.0312  0.1306
 1002MOL0     C35200  10.957   3.910   4.985  0.2873 -0.3649  0.3061
 1002MOL0     C35201  11.043   3.878   5.092 -0.4763 -0.5019  0.1330
 1002MOL0     C35202  11.184   3.933   5.077 -0.9231  0.5171 -0.0685
 1002MOL0     H35203  11.035   3.447   5.483 -0.1454 -1.2084  0.3324
 1002MOL0     H35204  11.160   3.349   5.658 -0.5574 -0.2625  0.8388
 1002MOL0     H35205  11.442   3.587   5.936  2.3386 -0.7454  2.8610
 1002MOL0     H35206  11.516   3.422   5.941 -0.7403 -1.8292 -1.8327
 1002MOL0     H35207  11.662   3.602   5.831  2.8289  0.2082 -2.9547
 1002MOL0     H35208  11.547   3.578   5.687  0.5243 -0.5901 -0.7211
 1002MOL0     H35209  11.602   3.335   5.702  0.9695  1.4426 -3.8944
 1002MOL0     H35210  11.710   3.374   5.842 -2.4013  0.7213  1.4916
 1002MOL0     H35211  11.719   3.481   5.544 -1.0528  0.9278  0.8884
 1002MOL0     H35212  11.850   3.487   5.653 -0.5171 -1.1256  0.3975
 1002MOL0     H35213  11.879   3.255   5.681 -1.0766  0.0350 -0.1530
 1002MOL0     H35214  11.758   3.224   5.567  1.7460 -2.5604  0.3716
 1002MOL0     H35215  11.907   3.360   5.386 -0.4932  0.5752 -0.4801
 1002MOL0     H35216  12.025   3.363   5.513 -1.0372 -0.3993  2.4999
 1002MOL0     H35217  11.884   3.116   5.402  1.0180 -1.8902 -0.3333
 1002MOL0     H35218  11.982   3.106   5.555 -1.6447  2.1317  1.4213
 1002MOL0     H35219  12.111   3.020   5.348  0.8634 -0.0731  0.7999
 1002MOL0     H35220  12.075   3.175   5.268 -0.1229  0.7120 -0.1048
 1002MOL0     H35221  12.245   3.078   5.585  5.0198 -1.5778 -0.2350
 1002MOL0     H35222  12.449   3.155   5.735  0.2975  0.0504 -0.1282
 1002MOL0     H35223  12.548   3.283   5.678 -0.3612 -0.8776  0.4387
 1002MOL0     H35224  12.369   3.436   5.752 -1.9347 -0.3008 -4.2916
 1002MOL0     H35225  12.256   3.308   5.759 -0.3465  0.9078  0.4441
 1002MOL0     H35226  12.517   3.355   5.925 -0.1330 -0.7110  0.5139
 1002MOL0     H35227  12.413   3.218   5.959  5.1302  0.2724 -0.8489
 1002MOL0     H35228  12.335   3.505   6.000 -0.8572 -0.3141 -0.9946
 1002MOL0     H35229  12.364   3.388   6.123 -1.4926 -0.6485  0.6088
 1002MOL0     H35230  12.115   3.346   6.264 -1.7223 -1.8915 -0.0892
 1002MOL0     H35231  11.898   3.456   6.363  1.6288 -0.8854  0.9798
 1002MOL0     H35232  11.644   3.896   5.912 -0.5811  0.8516 -0.3222
 1002MOL0     H35233  11.438   4.018   5.887  2.5399  2.0271  2.0477
 1002MOL0     H35234  11.099   3.867   6.017 -2.7177  0.6920 -1.7613
 1002MOL0     H35235  11.012   4.013   6.049 -0.2301 -1.7088  1.5851
 1002MOL0     H35236  11.079   4.115   5.837 -0.6824 -0.1483 -1.9262
 1002MOL0     H35237  11.182   3.973   5.801 -0.7593 -0.9439 -2.6932
 1002MOL0     H35238  10.995   3.836   5.778  0.1421 -0.2299  2.6875
 1002MOL0     H35239  10.882   3.925   5.863  0.8263 -1.1607  1.1478
 1002MOL0     H35240  10.834   4.059   5.689 -0.5752 -2.6453  3.1120
 1002MOL0     H35241  10.884   3.907   5.608 -2.0706  1.4354  0.5157
 1002MOL0     H35242  11.091   3.987   5.535 -1.2692 -1.3490 -0.7552
 1002MOL0     H35243  11.063   4.150   5.618  1.6149 -0.9469  0.1942
 1002MOL0     H35244  10.907   4.010   5.382 -0.1983  1.9631 -2.5707
 1002MOL0     H35245  10.838   4.137   5.470  0.7977 -0.4068  1.4745
 1002MOL0     H35246  10.951   4.205   5.243  2.8214  0.7553 -0.2719
 1002MOL0     H35247  11.103   4.189   5.320  0.3023 -1.3702  0.4684
 1002MOL0     H35248  11.007   4.346   5.498 -2.1340  3.5235  0.5374
 1002MOL0     H35249  11.033   4.408   5.330 -2.2198  1.7152 -0.6822
 1002MOL0     H35250  11.286   3.900   6.252 -1.6603 -1.1047 -2.0356
 1002MOL0     H35251  11.470   3.733   6.281 -2.1295  0.3938  0.9954
 1002MOL0     H35252  11.860   3.638   5.967  2.7650  1.1207 -2.2434
 1002MOL0     H35253  12.048   3.511   5.879  3.0692  0.3696  1.3570
 1002MOL0     H35254  11.357   3.713   5.746 -0.7976 -1.3223  2.3839
 1002MOL0     H35255  11.227   3.809   5.567  1.3070 -0.3453 -0.2538
 1002MOL0     H35256  10.804   3.711   5.289  0.9387  1.2976  1.0691
 1002MOL0     H35257  10.677   3.750   5.087 -1.8384  3.1796  0.1716
 1002MOL0     H35258  10.730   4.072   4.969 -1.6016  0.0290 -0.2917
 1002MOL0     H35259  10.579   3.996   4.905  0.0706  0.1517  1.1522
 1002MOL0     H35260  10.776   4.144   4.731 -1.0848  1.3418 -3.1405
 1002MOL0     H35261  10.616   4.183   4.770 -2.1964 -0.6451  1.0473
 1002MOL0     H35262  10.540   3.969   4.648  1.1054  0.4819  1.5937
 1002MOL0     H35263  10.722   3.940   4.631  2.7961  1.3140  4.2957
 1002MOL0     H35264  10.601   4.194   4.519 -1.6027 -0.0588 -1.3121
 1002MOL0     H35265  10.726   4.098   4.449  1.8174 -3.0945  2.5148
 1002MOL0     H35266  10.359   3.929   4.301  0.7762 -1.0124 -1.1896
 1002MOL0     H35267  11.000   3.946   4.892 -0.1808 -3.0124 -1.0234
 1002MOL0     H35268  11.253   3.849   5.087  0.4817  1.7666  1.1046
 1002MOL0     H35269  11.197   3.987   4.983 -2.9222  4.1407  1.5229
 1002MOL0     H35270  11.206   4.012   5.149  1.6987 -3.3001  3.8054
 1003MOL0     O35271   1.303   2.579   8.231 -0.3759 -0.4035  0.3087
 1003MOL0     C35272   1.187   2.571   8.272 -0.4017 -0.3224  0.6273
 1003MOL0     O35273   1.099   2.675   8.293 -0.0613  0.1224 -0.3095
 1003MOL0     C35274   1.147   2.810   8.270  0.1971 -0.2721  0.2567
 1003MOL0     C35275   1.283   2.862   8.277  0.3534  0.4949 -0.4659
 1003MOL0     C35276   1.314   2.997   8.260 -0.3075  0.3554 -0.4919
 1003MOL0     C35277   1.209   3.071   8.205 -0.3670 -1.2624  0.2796
 1003MOL0     O35278   1.220   3.203   8.166 -0.7512 -0.2170  0.6085
 1003MOL0     C35279   1.190   3.302   8.266 -0.0979  0.0506  0.3072
 1003MOL0     C35280   1.200   3.436   8.193 -0.7538  0.9691 -0.3235
 1003MOL0     C35281   1.168   3.541   8.286  0.0985  0.7420  0.9487
 1003MOL0     C35282   1.171   3.670   8.217  0.4337 -0.5627  0.4409
 1003MOL0     C35283   1.127   3.766   8.326 -0.5921  0.7844  0.3236
 1003MOL0     C35284   1.072   3.907   8.272  0.2586 -0.8771  0.3409
 1003MOL0     C35285   1.197   3.999   8.229 -0.2103  1.4805 -0.2459
 1003MOL0     C35286   1.259   4.090   8.320 -0.4824 -0.2444  0.0423
 1003MOL0     N35287   1.369   4.172   8.264  0.5371 -0.3745  0.6224
 1003MOL0     C35288   1.494   4.134   8.239 -0.1796  0.6892  0.0554
 1003MOL0     C35289   1.565   4.249   8.204  0.3556  0.7256 -0.9259
 1003MOL0     C35290   1.705   4.251   8.151 -0.0670  0.0690  0.4058
 1003MOL0     C35291   1.796   4.204   8.268 -0.4575 -0.2656  0.7509
 1003MOL0     C35292   1.938   4.185   8.203  0.4795  0.4942  0.6730
 1003MOL0     C35293   2.029   4.297   8.256 -1.2879  0.1128  0.3025
 1003MOL0     O35294   2.165   4.296   8.212 -0.1770 -0.3920 -0.1904
 1003MOL0     C35295   2.244   4.385   8.274 -0.7206  0.2983  0.3681
 1003MOL0     C35296   2.380   4.370   8.257 -0.1045  0.4365  0.1808
 1003MOL0     C35297   2.483   4.453   8.317 -0.8052 -0.6298 -0.5173
 1003MOL0     C35298   2.448   4.557   8.397  0.3377 -1.1660 -1.2308
 1003MOL0     C35299   2.548   4.632   8.469  0.3789  1.0473 -0.2325
 1003MOL0     O35300   2.516   4.692   8.593 -0.6956 -0.0306  0.6190
 1003MOL0     C35301   2.623   4.764   8.639  0.0397  0.7330 -0.9486
 1003MOL0     C35302   2.674   4.877   8.566  0.1587 -0.5615  0.2359
 1003MOL0     C35303   2.782   4.955   8.617  0.3097 -0.5654  1.3333
 1003MOL0     C35304   2.843   4.924   8.733 -0.0760  0.0093  0.6332
 1003MOL0     O35305   2.966   4.982   8.772 -0.4976  0.6465  0.2152
 1003MOL0     C35306   3.034   5.076   8.692 -0.3491 -0.1310  0.5760
 1003MOL0     C35307   3.152   5.130   8.775  0.0994  1.0773  0.3928
 1003MOL0     C35308   3.127   5.214   8.902 -0.7067  0.4686  0.0629
 1003MOL0     C35309   3.253   5.208   8.996  0.2478  0.0125  1.6133
 1003MOL0     C35310   3.213   5.243   9.137  0.6945 -0.5617  0.1502
 1003MOL0     C35311   3.332   5.216   9.230 -0.0273 -0.2239 -0.6020
 1003MOL0     C35312   3.304   5.260   9.378 -0.2629  0.1114 -1.0613
 1003MOL0     C35313   3.297   5.411   9.411  0.2946  0.2091  0.1373
 1003MOL0    Cl35314   3.314   5.439   9.586  0.1093 -0.1538 -0.1205
 1003MOL0     C35315   2.787   4.816   8.810  0.1804  0.3318 -0.5743
 1003MOL0     C35316   2.680   4.742   8.769 -0.5627  0.3111 -0.0837
 1003MOL0     O35317   2.653   4.640   8.405 -0.2685 -0.6103  0.5103
 1003MOL0     C35318   2.305   4.573   8.415 -0.6245 -0.2756 -0.2035
 1003MOL0     C35319   2.208   4.497   8.347 -0.5519  0.3382 -0.7704
 1003MOL0     N35320   1.485   4.360   8.230  0.3784  0.0963 -0.5529
 1003MOL0     N35321   1.375   4.306   8.259  0.7003 -0.9695  0.0398
 1003MOL0     C35322   1.077   3.025   8.188 -0.4015  0.0689 -0.2074
 1003MOL0     C35323   1.043   2.896   8.227  0.2559  0.2593  0.7848
 1003MOL0     C35324   1.124   2.435   8.303  1.0927 -0.5950  0.1460
 1003MOL0     C35325   1.178   2.364   8.409  0.2235  0.0198  0.4727
 1003MOL0     C35326   1.138   2.224   8.442 -0.3358  0.8979  0.2492
 1003MOL0     C35327   1.038   2.161   8.363 -0.8743 -0.9065 -0.0384
 1003MOL0     O35328   0.992   2.034   8.389  1.1542  0.7883  0.1424
 1003MOL0     C35329   1.046   1.946   8.488 -0.4745 -0.6294 -0.5019
 1003MOL0     C35330   1.038   1.806   8.441 -0.0775 -0.6409 -0.8688
 1003MOL0     C35331   1.081   1.709   8.552  0.3572  0.8636 -0.4881
 1003MOL0     C35332   1.102   1.565   8.501 -0.7498  0.0613 -0.3809
 1003MOL0     C35333   1.227   1.555   8.424  0.3231 -0.5771 -0.2482
 1003MOL0     C35334   1.335   1.529   8.370 -1.1190 -0.7179  0.7645
 1003MOL0     C35335   0.976   2.243   8.264 -0.0075  0.2431  0.7431
 1003MOL0     C35336   1.017   2.367   8.232  0.0630 -0.6946  0.3690
 1003MOL0     C35337   0.935   2.443   8.134  0.4878 -0.0377 -0.4777
 1003MOL0     H35338   1.358   2.802   8.327 -2.3270 -3.6643 -0.9008
 1003MOL0     H35339   1.412   3.043   8.257  1.2014 -2.6065 -1.3777
 1003MOL0     H35340   1.089   3.284   8.305 -0.5592 -1.1755 -1.3368
 1003MOL0     H35341   1.264   3.302   8.346  2.0448  2.0861 -1.5374
 1003MOL0     H35342   1.139   3.420   8.104 -0.8530 -2.5709  0.2465
 1003MOL0     H35343   1.297   3.463   8.152 -0.9977  1.7293 -0.4248
 1003MOL0     H35344   1.231   3.540   8.375 -1.9895  1.9859  2.5576
 1003MOL0     H35345   1.067   3.518   8.321 -1.3646  1.5856 -2.3275
 1003MOL0     H35346   1.267   3.680   8.166 -0.0149 -0.0028 -0.3235
 1003MOL0     H35347   1.106   3.670   8.128  0.8591 -2.6128  0.0844
 1003MOL0     H35348   1.050   3.718   8.388 -1.4284 -2.7777 -3.0353
 1003MOL0     H35349   1.221   3.780   8.379  1.4925  1.9868 -3.3001
 1003MOL0     H35350   1.008   3.897   8.184  1.9724  0.0465 -1.0714
 1003MOL0     H35351   1.020   3.972   8.343  3.7286  1.2762  1.1560
 1003MOL0     H35352   1.172   4.050   8.136  2.8694  2.4851 -0.6524
 1003MOL0     H35353   1.278   3.928   8.210  0.5370  2.4484 -0.7692
 1003MOL0     H35354   1.182   4.164   8.342  1.4261  1.7210  0.5054
 1003MOL0     H35355   1.300   4.039   8.408  0.2392  2.2894  1.2621
 1003MOL0     H35356   1.527   4.031   8.229 -1.5739  0.1398  0.8740
 1003MOL0     H35357   1.728   4.180   8.071  3.0420 -0.1062  1.3017
 1003MOL0     H35358   1.725   4.353   8.117  0.3651 -0.1523 -0.0155
 1003MOL0     H35359   1.793   4.274   8.353 -1.9573 -0.0538  0.5427
 1003MOL0     H35360   1.758   4.114   8.316 -1.5622  1.3287  3.0974
 1003MOL0     H35361   1.952   4.185   8.094  0.5299  0.5451  0.6787
 1003MOL0     H35362   1.968   4.088   8.244  1.6799  0.8868  0.7833
 1003MOL0     H35363   2.025   4.289   8.365 -0.6912  0.3489  0.3466
 1003MOL0     H35364   1.984   4.393   8.229 -2.4828  0.3336  2.7390
 1003MOL0     H35365   2.418   4.288   8.196 -0.3502  0.4938 -0.0504
 1003MOL0     H35366   2.585   4.419   8.311 -0.0692  1.6558 -2.2782
 1003MOL0     H35367   2.656   4.898   8.461 -0.3243 -0.5811  0.3156
 1003MOL0     H35368   2.820   5.035   8.553 -1.4080 -0.7676 -0.0033
 1003MOL0     H35369   3.077   5.026   8.605  1.5272  1.8810  0.2508
 1003MOL0     H35370   2.973   5.161   8.660 -1.2807 -0.9894  0.0277
 1003MOL0     H35371   3.234   5.060   8.789  0.0839  1.2107  1.1938
 1003MOL0     H35372   3.196   5.201   8.704 -0.4716  0.9089 -0.1387
 1003MOL0     H35373   3.118   5.322   8.888  0.2564  0.4381 -0.9229
 1003MOL0     H35374   3.033   5.190   8.953 -0.2000 -1.2069  0.2509
 1003MOL0     H35375   3.327   5.279   8.960 -2.1378  0.8532 -2.2470
 1003MOL0     H35376   3.301   5.109   8.993 -0.1996 -0.2611  2.9639
 1003MOL0     H35377   3.125   5.182   9.160  1.4509 -1.7404 -0.0131
 1003MOL0     H35378   3.182   5.347   9.147 -0.0184 -0.4377 -2.6032
 1003MOL0     H35379   3.344   5.110   9.253  1.5447  0.8438  5.0412
 1003MOL0     H35380   3.426   5.261   9.198  2.5181 -3.6531  1.4039
 1003MOL0     H35381   3.382   5.212   9.439 -2.4233 -0.2106  1.6816
 1003MOL0     H35382   3.208   5.216   9.409 -2.1896  0.4836 -5.7714
 1003MOL0     H35383   3.378   5.466   9.362 -1.3683  1.2764 -1.5689
 1003MOL0     H35384   3.203   5.446   9.368  1.3269  2.4051 -0.5123
 1003MOL0     H35385   2.831   4.783   8.903 -2.9779 -2.1734  0.2144
 1003MOL0     H35386   2.638   4.672   8.840 -1.1321 -0.7891 -1.4570
 1003MOL0     H35387   2.290   4.663   8.473 -2.1213 -1.5886  1.5638
 1003MOL0     H35388   2.106   4.526   8.367 -1.0644  0.7300 -3.5859
 1003MOL0     H35389   1.004   3.102   8.164 -1.1466 -0.8410 -0.9337
 1003MOL0     H35390   0.940   2.863   8.227  1.1111 -2.7591  0.0150
 1003MOL0     H35391   1.256   2.413   8.468  0.9105  1.1910 -1.2983
 1003MOL0     H35392   1.200   2.182   8.521  3.1027  0.9023 -2.2185
 1003MOL0     H35393   0.997   1.967   8.584 -0.5740  0.5860 -0.7965
 1003MOL0     H35394   1.154   1.962   8.498 -0.7164  0.8210  0.0117
 1003MOL0     H35395   1.097   1.794   8.349 -3.9253 -4.1985 -3.2047
 1003MOL0     H35396   0.938   1.784   8.404  1.1827 -1.7715 -3.9177
 1003MOL0     H35397   1.002   1.717   8.626  1.2449  2.3352  0.3451
 1003MOL0     H35398   1.179   1.729   8.596  1.5857  0.3746 -2.8361
 1003MOL0     H35399   1.097   1.488   8.579 -1.9136  0.6575  0.1654
 1003MOL0     H35400   1.015   1.530   8.444  0.4924 -2.2038 -0.9985
 1003MOL0     H35401   1.435   1.507   8.337 -0.7262  1.5649  0.3032
 1003MOL0     H35402   0.882   2.206   8.225 -0.9412  2.9444  0.2672
 1003MOL0     H35403   0.973   2.542   8.110  2.0854  0.5309  3.5262
 1003MOL0     H35404   0.922   2.378   8.048  3.6767 -1.0961 -0.2990
 1003MOL0     H35405   0.837   2.457   8.182  0.6575 -2.4731  0.7252
 1004MOL0     O35406   4.682   3.261   4.771 -0.7123 -0.3920  0.5371
 1004MOL0     C35407   4.639   3.258   4.880  0.0074 -0.4799  0.3277
 1004MOL0     O35408   4.654   3.359   4.963  0.4524  0.1232 -1.4927
 1004MOL0     C35409   4.724   3.470   4.920 -0.3269 -0.0171 -0.2872
 1004MOL0     C35410   4.648   3.585   4.902  0.4719  0.2986  0.5637
 1004MOL0     C35411   4.718   3.707   4.863  0.3444  0.0591 -0.2354
 1004MOL0     C35412   4.855   3.714   4.859  0.3583  0.3344 -0.0761
 1004MOL0     O35413   4.927   3.822   4.800 -0.2763 -0.4205  0.1609
 1004MOL0     C35414   4.976   3.912   4.905  0.6635  0.0815 -0.6340
 1004MOL0     C35415   5.095   3.984   4.868 -0.9632 -0.3880  0.3297
 1004MOL0     C35416   5.192   4.024   4.991 -0.5322  0.5377 -0.0991
 1004MOL0     C35417   5.288   4.137   4.952 -0.0725 -0.6666 -0.1340
 1004MOL0     C35418   5.365   4.191   5.073  0.5341  0.6824  0.0881
 1004MOL0     C35419   5.464   4.095   5.137 -0.0887  0.0257 -0.5320
 1004MOL0     C35420   5.541   4.150   5.273  0.6323 -0.1037 -0.5684
 1004MOL0     C35421   5.608   4.039   5.345 -0.9512 -0.1046  0.6906
 1004MOL0     N35422   5.715   3.994   5.256  0.5719 -0.1918 -1.0153
 1004MOL0     C35423   5.823   4.076   5.220  1.0476  0.5291 -1.0933
 1004MOL0     C35424   5.882   3.997   5.124  0.3722 -0.7362  0.0112
 1004MOL0     C35425   6.001   4.038   5.039 -0.7744 -0.5795 -0.5256
 1004MOL0     C35426   5.995   3.994   4.892 -0.3879  0.9206 -0.2223
 1004MOL0     C35427   5.899   4.083   4.808  0.5980 -0.6968 -0.5757
 1004MOL0     C35428   5.977   4.173   4.708  0.0448 -0.1940  0.3816
 1004MOL0     O35429   5.904   4.221   4.595  0.3465  0.4915 -0.6345
 1004MOL0     C35430   5.921   4.347   4.561  0.9036  0.0236 -0.0658
 1004MOL0     C35431   5.804   4.399   4.519  0.6254  0.1293  1.1891
 1004MOL0     C35432   5.798   4.528   4.474  0.2213  0.8870 -0.7447
 1004MOL0     C35433   5.909   4.607   4.459 -0.6664  0.0680  0.5023
 1004MOL0     C35434   5.898   4.743   4.407  0.7340  0.6113 -0.5113
 1004MOL0     O35435   6.010   4.806   4.430  0.0860  0.0790  0.4840
 1004MOL0     C35436   6.015   4.920   4.351 -0.3804  0.1677  0.8372
 1004MOL0     C35437   5.943   5.035   4.369  0.4979  0.4075 -0.2223
 1004MOL0     C35438   5.952   5.150   4.287  0.7215 -0.3844  1.0651
 1004MOL0     C35439   6.035   5.151   4.171  0.0187  0.4598  0.3409
 1004MOL0     O35440   6.053   5.244   4.074  0.2148  0.1562 -0.2298
 1004MOL0     C35441   5.999   5.376   4.093  0.7491  0.3379 -0.3423
 1004MOL0     C35442   5.858   5.365   4.053  0.5355  0.2910  0.3487
 1004MOL0     C35443   5.769   5.491   4.065  0.1500  0.4194 -0.1335
 1004MOL0     C35444   5.678   5.493   4.185  0.2749 -0.1692  0.2090
 1004MOL0     C35445   5.564   5.603   4.184 -0.8019  0.0544 -0.0312
 1004MOL0     C35446   5.468   5.606   4.061 -0.2063 -0.5854 -0.0823
 1004MOL0     C35447   5.369   5.488   4.038  0.4056  0.6461  0.1267
 1004MOL0     C35448   5.295   5.509   3.905 -0.6005 -0.8693  0.3717
 1004MOL0    Cl35449   5.177   5.643   3.887 -0.2982  0.2104 -0.5713
 1004MOL0     C35450   6.094   5.029   4.137  0.8396 -0.3760  0.2841
 1004MOL0     C35451   6.089   4.922   4.225  0.2802  0.1565  0.0596
 1004MOL0     O35452   5.796   4.787   4.354  0.0244 -0.0452 -0.0638
 1004MOL0     C35453   6.030   4.547   4.499 -1.2805  0.2455 -0.0887
 1004MOL0     C35454   6.040   4.412   4.545 -0.0204  0.5486 -0.4674
 1004MOL0     N35455   5.820   3.873   5.119 -0.3816  0.0093 -0.4578
 1004MOL0     N35456   5.718   3.885   5.189  0.2022  0.1991 -0.6394
 1004MOL0     C35457   4.929   3.592   4.871  0.5198 -0.4179 -0.0184
 1004MOL0     C35458   4.868   3.473   4.909 -1.2759 -0.3796 -0.5121
 1004MOL0     C35459   4.570   3.133   4.930 -0.1672 -0.3795  0.8049
 1004MOL0     C35460   4.615   3.012   4.878 -0.2035  0.4496  0.4859
 1004MOL0     C35461   4.571   2.889   4.940 -0.7318  0.0327 -1.0718
 1004MOL0     C35462   4.476   2.884   5.039 -0.0900  0.2086 -1.0127
 1004MOL0     O35463   4.414   2.775   5.099  0.2473  0.4076  0.1981
 1004MOL0     C35464   4.429   2.649   5.037 -0.0989 -0.4188 -0.4334
 1004MOL0     C35465   4.343   2.659   4.902  0.1982  0.2061 -0.0309
 1004MOL0     C35466   4.368   2.534   4.821  0.5498 -0.7498 -0.0039
 1004MOL0     C35467   4.329   2.553   4.671  0.0204  0.0275  0.1409
 1004MOL0     C35468   4.428   2.632   4.609 -0.0196 -0.7528  0.0626
 1004MOL0     C35469   4.525   2.687   4.576  0.2851 -0.2843  0.3422
 1004MOL0     C35470   4.428   3.005   5.090  0.0100 -0.7600  1.0451
 1004MOL0     C35471   4.468   3.133   5.028 -0.3672 -0.1114 -1.0167
 1004MOL0     C35472   4.394   3.260   5.074 -0.8907  0.4301  0.0413
 1004MOL0     H35473   4.542   3.572   4.924  0.7437  1.2217  2.6648
 1004MOL0     H35474   4.657   3.793   4.836  2.6071  1.9997  0.5627
 1004MOL0     H35475   4.890   3.976   4.926  1.1466  0.1848  1.2643
 1004MOL0     H35476   5.003   3.848   4.990 -0.9196  0.2498  0.0401
 1004MOL0     H35477   5.060   4.078   4.824  1.3165 -0.0301 -0.8943
 1004MOL0     H35478   5.143   3.920   4.793 -2.2487 -1.6707  0.5454
 1004MOL0     H35479   5.237   3.935   5.035 -2.1399 -0.7583 -0.9973
 1004MOL0     H35480   5.123   4.061   5.069 -3.3026 -4.0243 -0.0203
 1004MOL0     H35481   5.354   4.099   4.874 -1.3370 -1.1532 -0.9920
 1004MOL0     H35482   5.234   4.218   4.900 -0.3179 -0.6731  0.1082
 1004MOL0     H35483   5.403   4.288   5.041  0.7370 -0.0535 -2.0441
 1004MOL0     H35484   5.299   4.200   5.160 -0.6609 -3.4739 -0.1479
 1004MOL0     H35485   5.423   3.996   5.157  0.6833 -0.9973 -3.4714
 1004MOL0     H35486   5.536   4.068   5.060  1.0157 -0.8377  0.7590
 1004MOL0     H35487   5.469   4.200   5.339  0.7937 -0.4388 -0.1349
 1004MOL0     H35488   5.608   4.233   5.249  0.2157 -0.3229 -2.7491
 1004MOL0     H35489   5.656   4.085   5.431  0.4084  1.7052 -0.9430
 1004MOL0     H35490   5.543   3.959   5.382 -0.7179 -0.4240  0.4164
 1004MOL0     H35491   5.845   4.177   5.253  0.6067  1.1766 -2.6748
 1004MOL0     H35492   6.029   4.144   5.041 -2.2435 -0.1619  1.8940
 1004MOL0     H35493   6.077   3.970   5.078 -2.2006 -0.4579  2.7551
 1004MOL0     H35494   6.093   4.002   4.845  0.3042  0.2930  1.0594
 1004MOL0     H35495   5.964   3.890   4.900  2.5847  0.0740  1.9718
 1004MOL0     H35496   5.832   4.135   4.876 -0.3209 -0.9809 -1.2421
 1004MOL0     H35497   5.834   4.019   4.747  0.0841  0.3047 -1.1119
 1004MOL0     H35498   6.055   4.111   4.662  0.4600  0.4560  0.1837
 1004MOL0     H35499   6.026   4.253   4.766  0.3974  0.1176 -0.3284
 1004MOL0     H35500   5.706   4.352   4.514 -0.0300  1.5802 -0.3971
 1004MOL0     H35501   5.702   4.573   4.448 -0.7005 -0.8059 -0.3932
 1004MOL0     H35502   5.878   5.042   4.455 -0.7998 -5.0943 -0.3863
 1004MOL0     H35503   5.902   5.243   4.313  0.2670  0.3164 -1.9662
 1004MOL0     H35504   5.994   5.402   4.199  2.1405 -1.6752  0.2686
 1004MOL0     H35505   6.055   5.456   4.042  0.2150  1.0468  0.1616
 1004MOL0     H35506   5.861   5.345   3.945  0.8040 -1.0554  0.5920
 1004MOL0     H35507   5.800   5.283   4.096 -0.9476  1.3202  0.3795
 1004MOL0     H35508   5.825   5.585   4.074 -1.0511  1.0945  0.4505
 1004MOL0     H35509   5.713   5.494   3.972  4.7373 -2.0848 -3.4195
 1004MOL0     H35510   5.744   5.520   4.268 -1.0736  0.8221  1.0001
 1004MOL0     H35511   5.623   5.399   4.197 -0.6893  0.0316 -2.0727
 1004MOL0     H35512   5.609   5.703   4.187 -1.6511  0.4389  0.0991
 1004MOL0     H35513   5.497   5.593   4.270 -1.3639  2.2537 -0.1593
 1004MOL0     H35514   5.412   5.700   4.062  1.7722  0.6795 -0.7772
 1004MOL0     H35515   5.525   5.611   3.968  0.1632 -3.7151 -0.1002
 1004MOL0     H35516   5.298   5.484   4.121 -0.8953  1.0935 -0.9228
 1004MOL0     H35517   5.430   5.397   4.032  0.3100  0.6290 -0.7744
 1004MOL0     H35518   5.368   5.527   3.826  0.3511  0.0843  1.4359
 1004MOL0     H35519   5.238   5.416   3.896 -3.1923  0.6668 -0.4350
 1004MOL0     H35520   6.149   5.005   4.046 -1.6597 -0.9888 -1.1594
 1004MOL0     H35521   6.153   4.836   4.208  0.3680  0.2691 -0.1699
 1004MOL0     H35522   6.116   4.614   4.497 -1.2521  0.2024 -0.3440
 1004MOL0     H35523   6.132   4.357   4.559 -0.3170  0.6658  2.5903
 1004MOL0     H35524   5.034   3.604   4.846  1.8930 -1.8427  4.2740
 1004MOL0     H35525   4.926   3.382   4.915 -1.9110 -0.7874 -0.5227
 1004MOL0     H35526   4.691   3.009   4.800  2.3868 -0.7031  2.8699
 1004MOL0     H35527   4.618   2.797   4.908  0.7453  0.1083  0.6909
 1004MOL0     H35528   4.401   2.567   5.103  1.0873  0.4771  1.2656
 1004MOL0     H35529   4.536   2.639   5.017 -0.0226 -0.7406  0.1176
 1004MOL0     H35530   4.370   2.745   4.841 -0.7232  1.2748  1.0087
 1004MOL0     H35531   4.238   2.680   4.925  0.5626  0.3621  1.6360
 1004MOL0     H35532   4.315   2.447   4.860  0.0665 -0.7608 -0.6830
 1004MOL0     H35533   4.476   2.522   4.814  1.1339  3.8305 -3.1768
 1004MOL0     H35534   4.318   2.456   4.623  2.4214 -0.3744  0.2875
 1004MOL0     H35535   4.229   2.587   4.642  0.2368 -1.2186 -2.3527
 1004MOL0     H35536   4.617   2.724   4.536 -0.2015 -1.2085 -1.7728
 1004MOL0     H35537   4.352   3.008   5.166 -2.8341 -1.8508 -1.5500
 1004MOL0     H35538   4.306   3.234   5.135 -0.6712 -2.5434 -0.7496
 1004MOL0     H35539   4.461   3.327   5.128 -2.0919  3.0794 -1.5405
 1004MOL0     H35540   4.357   3.317   4.988  0.4136 -0.9906 -1.5367
 1005MOL0     O35541  11.071  11.020   5.443  0.2831 -0.3662  0.5030
 1005MOL0     C35542  10.997  10.992   5.538  0.0987  0.0745  0.2086
 1005MOL0     O35543  10.873  10.943   5.534  0.1483  0.4288  0.7365
 1005MOL0     C35544  10.820  10.868   5.433  0.9832  0.1760  0.3695
 1005MOL0     C35545  10.884  10.825   5.319  0.6609  0.3414  0.1570
 1005MOL0     C35546  10.815  10.731   5.240  0.3512 -0.1883  0.9094
 1005MOL0     C35547  10.687  10.679   5.264  0.4515 -0.1167 -1.3141
 1005MOL0     O35548  10.634  10.584   5.186 -0.5552  0.6542  0.0617
 1005MOL0     C35549  10.725  10.475   5.139  0.2706 -0.5437 -0.4220
 1005MOL0     C35550  10.647  10.400   5.026 -0.1798 -0.0333 -0.1429
 1005MOL0     C35551  10.718  10.269   4.980  0.2404 -0.3239 -0.5501
 1005MOL0     C35552  10.650  10.204   4.866  0.5566  0.3587  0.4267
 1005MOL0     C35553  10.524  10.117   4.896 -0.1192 -1.0339 -0.5242
 1005MOL0     C35554  10.561   9.971   4.946 -0.2697 -0.0918 -0.4837
 1005MOL0     C35555  10.451   9.897   5.020  0.2369 -0.2674 -0.2709
 1005MOL0     C35556  10.312   9.896   4.965 -0.4027  0.2858  1.0100
 1005MOL0     N35557  10.290   9.772   4.882 -0.8180  0.3219  0.3149
 1005MOL0     C35558  10.254   9.654   4.938 -0.3118  0.0935  0.1984
 1005MOL0     C35559  10.286   9.561   4.851 -0.5055  0.3232 -0.0368
 1005MOL0     C35560  10.273   9.412   4.864 -0.0118 -0.8330  0.7596
 1005MOL0     C35561  10.164   9.371   4.970  0.2933  0.0498  0.1164
 1005MOL0     C35562  10.169   9.224   5.015 -0.4722  0.4936 -0.0950
 1005MOL0     C35563  10.107   9.133   4.907  0.6859 -0.3033  0.5430
 1005MOL0     O35564  10.206   9.110   4.802 -0.5146  0.0852  0.1289
 1005MOL0     C35565  10.171   9.033   4.698  0.0467  0.3867  0.2242
 1005MOL0     C35566  10.045   8.972   4.672 -0.1129 -0.4022  0.6412
 1005MOL0     C35567  10.017   8.884   4.566 -0.1857 -0.2794  0.8921
 1005MOL0     C35568  10.118   8.858   4.478 -0.5703 -0.3502  0.9167
 1005MOL0     C35569  10.100   8.766   4.370  0.9496  0.0359 -0.1312
 1005MOL0     O35570   9.995   8.681   4.377 -0.2796  0.1317  0.0994
 1005MOL0     C35571   9.988   8.612   4.256  0.7564  0.5601  0.2498
 1005MOL0     C35572   9.935   8.678   4.148  0.3400  0.5740 -0.4974
 1005MOL0     C35573   9.919   8.606   4.022 -0.2242 -0.5900  0.2094
 1005MOL0     C35574   9.963   8.472   4.008  1.0655 -0.1243  0.4267
 1005MOL0     O35575   9.950   8.391   3.894 -0.9006  0.3427  0.4147
 1005MOL0     C35576   9.864   8.435   3.788  0.1780  0.2247  0.2120
 1005MOL0     C35577   9.868   8.342   3.666  0.3782 -0.2853  0.2678
 1005MOL0     C35578  10.006   8.290   3.661 -0.3907 -0.2081 -0.5485
 1005MOL0     C35579  10.049   8.219   3.537  0.2587  0.0441  0.0441
 1005MOL0     C35580  10.001   8.082   3.548  0.4210 -0.0635 -0.5369
 1005MOL0     C35581  10.063   8.005   3.436 -0.3664 -0.6213 -0.1486
 1005MOL0     C35582  10.020   7.866   3.437  0.7174  0.0503 -0.2913
 1005MOL0     C35583  10.087   7.781   3.337 -0.8636  0.6202 -0.1210
 1005MOL0    Cl35584  10.275   7.814   3.333 -0.1464  0.3888  0.0723
 1005MOL0     C35585  10.022   8.418   4.116 -0.2375 -0.1400  0.5654
 1005MOL0     C35586  10.031   8.483   4.240 -0.6562 -0.8560 -0.5437
 1005MOL0     O35587  10.191   8.771   4.289  1.0334 -0.7574 -0.2098
 1005MOL0     C35588  10.240   8.936   4.490  0.1410  0.0224  0.2003
 1005MOL0     C35589  10.264   9.018   4.597 -0.5329  0.5184  0.1972
 1005MOL0     N35590  10.344   9.623   4.737  0.2688 -0.3335  0.1334
 1005MOL0     N35591  10.344   9.746   4.754 -0.5449  1.0406 -0.4005
 1005MOL0     C35592  10.618  10.731   5.374 -0.0496 -0.9645  0.0456
 1005MOL0     C35593  10.689  10.820   5.466 -0.4987  0.1500 -0.4721
 1005MOL0     C35594  11.040  11.024   5.676  0.0660 -0.1906 -0.7678
 1005MOL0     C35595  10.986  10.948   5.775  0.0262 -0.2305 -0.6841
 1005MOL0     C35596  11.031  10.960   5.908  0.5673 -0.0530 -0.2057
 1005MOL0     C35597  11.140  11.052   5.936 -0.2876 -0.3584  0.3655
 1005MOL0     O35598  11.190  11.056   6.060 -0.2471 -0.7192 -0.3710
 1005MOL0     C35599  11.257  11.173   6.120  0.0777  0.6781 -0.6903
 1005MOL0     C35600  11.246  11.168   6.268 -0.1237  0.9181  0.4966
 1005MOL0     C35601  11.231  11.307   6.326  0.7915  0.5200  0.0775
 1005MOL0     C35602  11.179  11.277   6.474  0.1746  0.5647  0.4396
 1005MOL0     C35603  11.181  11.395   6.557  0.6650  0.3659 -0.1990
 1005MOL0     C35604  11.173  11.494   6.630  0.8247  0.2587  1.0786
 1005MOL0     C35605  11.198  11.126   5.833 -0.3603 -0.2390  0.6801
 1005MOL0     C35606  11.141  11.115   5.702  0.1548 -0.1541 -0.4246
 1005MOL0     C35607  11.212  11.198   5.598  0.5758  0.3568  0.0457
 1005MOL0     H35608  10.986  10.857   5.301  0.4751  1.3325  0.7746
 1005MOL0     H35609  10.869  10.707   5.149 -0.9458  1.6351 -0.4054
 1005MOL0     H35610  10.822  10.516   5.110 -0.7495  3.7131  1.3911
 1005MOL0     H35611  10.733  10.398   5.217 -1.4217  2.0117  2.4935
 1005MOL0     H35612  10.649  10.468   4.940 -0.8720  0.5416  0.2873
 1005MOL0     H35613  10.548  10.379   5.066  0.0793 -0.4403  0.2971
 1005MOL0     H35614  10.727  10.210   5.072  2.1830  2.9608  1.6122
 1005MOL0     H35615  10.813  10.305   4.940 -0.0559  1.3501  0.1583
 1005MOL0     H35616  10.605  10.284   4.805 -0.0475  0.9312  1.5872
 1005MOL0     H35617  10.719  10.146   4.804  0.6937  1.3242 -0.3536
 1005MOL0     H35618  10.455  10.168   4.964 -1.5477 -2.0072 -1.2167
 1005MOL0     H35619  10.463  10.101   4.807 -0.0400 -0.1656 -0.7426
 1005MOL0     H35620  10.588   9.908   4.860  2.3088  0.2929 -0.0210
 1005MOL0     H35621  10.655   9.977   5.001  0.0868  2.9789 -1.2027
 1005MOL0     H35622  10.446   9.948   5.116 -1.3180  0.8314 -0.8842
 1005MOL0     H35623  10.470   9.795   5.053 -0.3618 -0.2513  0.1350
 1005MOL0     H35624  10.244   9.891   5.050 -0.2047 -2.2134  1.0881
 1005MOL0     H35625  10.304   9.985   4.901  2.6889 -1.1492 -1.6713
 1005MOL0     H35626  10.213   9.636   5.037 -1.0021 -0.8811 -0.2588
 1005MOL0     H35627  10.249   9.366   4.768 -0.0335  3.6678 -1.6827
 1005MOL0     H35628  10.374   9.376   4.886 -0.9134 -3.5529  0.8196
 1005MOL0     H35629  10.186   9.428   5.060 -1.1897  0.7746  0.0494
 1005MOL0     H35630  10.067   9.411   4.940 -0.5910 -2.0451 -0.0395
 1005MOL0     H35631  10.117   9.214   5.111 -0.7150 -1.2122 -0.3629
 1005MOL0     H35632  10.269   9.187   5.038 -0.7844 -0.3848 -0.0801
 1005MOL0     H35633  10.018   9.174   4.858 -0.3662 -2.2010  0.8023
 1005MOL0     H35634  10.086   9.036   4.951  0.1091 -0.2677  0.3555
 1005MOL0     H35635   9.962   8.995   4.739 -1.8459  2.6255 -2.2771
 1005MOL0     H35636   9.914   8.854   4.549  0.0182  0.5080 -2.5396
 1005MOL0     H35637   9.908   8.783   4.147 -3.0783 -0.1985 -0.1492
 1005MOL0     H35638   9.877   8.660   3.938 -0.3637  2.3213  2.0228
 1005MOL0     H35639   9.763   8.448   3.827  0.1675  0.9383 -0.0361
 1005MOL0     H35640   9.900   8.528   3.741 -1.1148 -0.3284 -2.0112
 1005MOL0     H35641   9.804   8.255   3.679  1.2914 -0.8786  0.9756
 1005MOL0     H35642   9.836   8.397   3.576  0.6061  0.0253  0.3719
 1005MOL0     H35643  10.074   8.376   3.671  2.3223 -1.7645 -3.6502
 1005MOL0     H35644  10.031   8.233   3.751  0.0614 -0.5007 -0.8567
 1005MOL0     H35645  10.158   8.224   3.537  0.2767 -0.2446 -0.8862
 1005MOL0     H35646  10.008   8.284   3.459  0.3575  2.5835  1.9789
 1005MOL0     H35647   9.892   8.080   3.540  0.5175  0.9093 -2.9537
 1005MOL0     H35648  10.026   8.044   3.647  1.0767  0.4768 -0.4860
 1005MOL0     H35649  10.035   8.052   3.342  3.1246  1.9085 -0.1512
 1005MOL0     H35650  10.169   8.031   3.441 -1.1081  2.7849  0.5572
 1005MOL0     H35651   9.912   7.867   3.420  0.6961  1.9957 -0.3042
 1005MOL0     H35652  10.035   7.825   3.537  1.8336  1.2841  0.0817
 1005MOL0     H35653  10.063   7.675   3.350  1.4472  0.0038 -0.3581
 1005MOL0     H35654  10.036   7.797   3.242 -3.6492 -0.7708  1.0429
 1005MOL0     H35655  10.069   8.321   4.104  1.7555  0.6525  1.5206
 1005MOL0     H35656  10.085   8.437   4.322  0.8227 -1.0086 -1.5580
 1005MOL0     H35657  10.321   8.930   4.418 -1.4887 -3.1142 -1.6045
 1005MOL0     H35658  10.338   9.093   4.620 -2.9776  2.1386  3.7098
 1005MOL0     H35659  10.525  10.684   5.402  1.8923 -4.7031  0.8680
 1005MOL0     H35660  10.643  10.841   5.562  1.6197  2.4464  0.1472
 1005MOL0     H35661  10.906  10.877   5.762 -0.8165  0.6862 -0.6080
 1005MOL0     H35662  10.994  10.895   5.987  1.3565 -1.4746 -0.9796
 1005MOL0     H35663  11.214  11.266   6.082  0.6653  1.8735  1.3911
 1005MOL0     H35664  11.362  11.170   6.088 -0.5985 -1.3728 -2.9564
 1005MOL0     H35665  11.339  11.122   6.303 -1.1476  0.8054  3.3839
 1005MOL0     H35666  11.157  11.107   6.288 -1.9864  1.6183 -4.3619
 1005MOL0     H35667  11.163  11.375   6.273  0.4553  0.2723  0.1882
 1005MOL0     H35668  11.331  11.353   6.332  1.1294  0.0207 -1.3987
 1005MOL0     H35669  11.078  11.236   6.469  1.0514 -1.7573  0.5650
 1005MOL0     H35670  11.242  11.206   6.527 -2.0167  0.7075  3.4542
 1005MOL0     H35671  11.153  11.583   6.685  0.1508  1.1179 -0.5030
 1005MOL0     H35672  11.278  11.189   5.870  0.6108 -2.1925  2.1321
 1005MOL0     H35673  11.286  11.136   5.548  0.5035  1.6977 -1.8403
 1005MOL0     H35674  11.158  11.255   5.521  1.3784 -0.9510 -1.5447
 1005MOL0     H35675  11.273  11.270   5.654  2.7881 -0.9809 -0.5140
 1006MOL0     O35676   8.894   2.518   1.961  0.6813 -0.1154 -0.1243
 1006MOL0     C35677   8.984   2.529   1.882  0.3663  0.7638  0.6808
 1006MOL0     O35678   9.108   2.572   1.912  0.2947  0.5642 -1.1709
 1006MOL0     C35679   9.129   2.588   2.043  0.4109 -0.1680  1.2917
 1006MOL0     C35680   9.176   2.493   2.124 -0.2265  0.6198 -0.1344
 1006MOL0     C35681   9.188   2.512   2.263  0.3424  2.1835  0.6387
 1006MOL0     C35682   9.152   2.635   2.318  0.4269 -0.1884  0.0059
 1006MOL0     O35683   9.189   2.654   2.453 -0.5376 -0.0968  0.1883
 1006MOL0     C35684   9.077   2.702   2.528  1.2378  0.6514 -0.1364
 1006MOL0     C35685   8.980   2.581   2.560 -0.2937 -0.3949 -0.3663
 1006MOL0     C35686   8.854   2.622   2.624 -0.6305 -1.3743  0.3477
 1006MOL0     C35687   8.872   2.678   2.768 -1.0917 -0.2528 -0.3343
 1006MOL0     C35688   8.744   2.670   2.851 -0.2266  0.7747 -0.4631
 1006MOL0     C35689   8.633   2.753   2.796  0.5567  0.2292  0.0044
 1006MOL0     C35690   8.656   2.902   2.767  0.2702 -0.4661 -0.2251
 1006MOL0     C35691   8.519   2.986   2.755  0.3986  0.6014  0.3401
 1006MOL0     N35692   8.546   3.121   2.714  0.4997 -0.0659  1.5161
 1006MOL0     C35693   8.600   3.216   2.791 -0.1751  0.4424  0.3544
 1006MOL0     C35694   8.577   3.335   2.732  0.2055 -0.1566  0.6290
 1006MOL0     C35695   8.630   3.480   2.757 -0.2611 -0.3867 -0.9546
 1006MOL0     C35696   8.569   3.596   2.683 -0.2709  0.1242  1.1189
 1006MOL0     C35697   8.419   3.617   2.700 -0.1571 -1.1246 -0.4860
 1006MOL0     C35698   8.385   3.663   2.842 -0.2108  0.2152  0.2037
 1006MOL0     O35699   8.477   3.761   2.899  0.4292 -0.1892  0.0631
 1006MOL0     C35700   8.430   3.810   3.022  0.2543 -0.5635 -0.6825
 1006MOL0     C35701   8.508   3.905   3.080  0.3078 -0.4315  0.7497
 1006MOL0     C35702   8.473   3.963   3.199  0.4996 -0.0646 -0.3882
 1006MOL0     C35703   8.360   3.917   3.278 -0.6082 -0.7306  0.5218
 1006MOL0     C35704   8.320   3.987   3.406  0.2237 -0.3579  0.3585
 1006MOL0     O35705   8.241   3.923   3.485 -0.0453 -0.2747  0.3630
 1006MOL0     C35706   8.219   3.976   3.608 -0.1135 -0.1393  0.4808
 1006MOL0     C35707   8.131   4.083   3.623  0.0791 -0.6151 -0.6838
 1006MOL0     C35708   8.098   4.125   3.752  0.2111 -0.3393  0.1877
 1006MOL0     C35709   8.145   4.059   3.863 -0.5937  0.5123 -0.1623
 1006MOL0     O35710   8.109   4.119   3.986 -0.0044 -0.4540 -1.5502
 1006MOL0     C35711   8.098   4.038   4.104  0.5716 -0.4473 -0.7306
 1006MOL0     C35712   8.226   4.052   4.189 -0.0310  0.9853 -0.1824
 1006MOL0     C35713   8.263   4.201   4.231 -0.7847 -0.2651  0.5375
 1006MOL0     C35714   8.138   4.279   4.274 -0.6107 -0.0856  0.3109
 1006MOL0     C35715   8.090   4.225   4.412 -0.5547 -0.2598  0.0183
 1006MOL0     C35716   7.954   4.289   4.445  0.7534  0.1517 -0.4681
 1006MOL0     C35717   7.907   4.264   4.591 -0.5900 -0.5095  0.0278
 1006MOL0     C35718   7.801   4.365   4.626  0.5483  0.7429  0.2609
 1006MOL0    Cl35719   7.729   4.342   4.786 -0.5194 -0.0788 -0.4341
 1006MOL0     C35720   8.221   3.949   3.846  1.2807  0.3910 -0.2862
 1006MOL0     C35721   8.256   3.908   3.721  0.7776  0.0489  0.2024
 1006MOL0     O35722   8.380   4.092   3.437 -0.5324  0.4740  0.6650
 1006MOL0     C35723   8.288   3.808   3.228  0.3487  0.3509  0.1013
 1006MOL0     C35724   8.321   3.764   3.098  0.1331  0.7746 -0.8919
 1006MOL0     N35725   8.521   3.308   2.606 -0.3677  0.0127  0.3581
 1006MOL0     N35726   8.505   3.180   2.600 -1.0012 -0.2364  0.5883
 1006MOL0     C35727   9.109   2.738   2.238 -0.6958 -1.2987  0.2838
 1006MOL0     C35728   9.096   2.714   2.094 -0.0301  0.1946  0.5462
 1006MOL0     C35729   8.963   2.471   1.750  0.6733  0.0480  1.3336
 1006MOL0     C35730   9.052   2.512   1.651  0.3537 -0.5062 -0.1322
 1006MOL0     C35731   9.034   2.468   1.518  0.1552  0.2413 -0.3614
 1006MOL0     C35732   8.941   2.372   1.483 -0.6283 -1.0097 -0.5201
 1006MOL0     O35733   8.931   2.309   1.359  0.1267 -0.0574 -0.2885
 1006MOL0     C35734   9.007   2.352   1.247 -0.7335  0.2672  1.3764
 1006MOL0     C35735   9.128   2.266   1.215 -0.2670  0.1327  0.6821
 1006MOL0     C35736   9.246   2.352   1.146 -0.5529  0.4334 -0.3052
 1006MOL0     C35737   9.380   2.302   1.208  0.2244 -0.2141 -0.1909
 1006MOL0     C35738   9.391   2.353   1.344 -1.1732  0.2463  0.1755
 1006MOL0     C35739   9.381   2.374   1.463  0.4600 -0.0089  0.4388
 1006MOL0     C35740   8.851   2.336   1.578  0.3260 -0.8175  0.3607
 1006MOL0     C35741   8.856   2.388   1.707  0.4915 -0.6777  0.6486
 1006MOL0     C35742   8.752   2.334   1.801 -0.2042  0.2797 -0.3631
 1006MOL0     H35743   9.196   2.397   2.077  0.4367  0.0421  1.2700
 1006MOL0     H35744   9.227   2.435   2.329 -2.3865 -0.4934 -0.6091
 1006MOL0     H35745   9.122   2.751   2.614 -1.8742  1.2012  1.3144
 1006MOL0     H35746   9.023   2.782   2.476 -0.7261 -0.0545  0.7406
 1006MOL0     H35747   9.030   2.499   2.614 -2.5479 -2.8804 -1.8101
 1006MOL0     H35748   8.954   2.528   2.468 -3.3942 -4.3558  2.4516
 1006MOL0     H35749   8.795   2.531   2.631 -2.1824 -0.3101  2.0913
 1006MOL0     H35750   8.796   2.686   2.557 -0.7427 -3.5518 -1.7424
 1006MOL0     H35751   8.943   2.608   2.813 -2.6791 -1.8993 -0.2631
 1006MOL0     H35752   8.913   2.778   2.786 -1.3603 -0.3188  0.6706
 1006MOL0     H35753   8.714   2.566   2.866 -0.1656  0.7238 -0.6740
 1006MOL0     H35754   8.761   2.713   2.950  1.0992  0.6137 -0.5966
 1006MOL0     H35755   8.588   2.704   2.709 -0.1732 -0.0851  0.5526
 1006MOL0     H35756   8.550   2.751   2.867  1.3130  0.3338  0.9013
 1006MOL0     H35757   8.702   2.917   2.669  1.6075  2.5660  0.7516
 1006MOL0     H35758   8.724   2.951   2.837 -1.8468 -0.1688  1.7344
 1006MOL0     H35759   8.445   2.944   2.687 -0.3085  3.2333 -0.6517
 1006MOL0     H35760   8.472   2.981   2.854  0.8957  0.4388  0.5741
 1006MOL0     H35761   8.646   3.197   2.887 -4.0999 -0.3473  2.3007
 1006MOL0     H35762   8.608   3.486   2.864  0.3778 -3.8554 -0.4822
 1006MOL0     H35763   8.739   3.480   2.743 -0.0236 -2.2113  0.4833
 1006MOL0     H35764   8.617   3.691   2.708 -0.7858 -0.1901  3.6163
 1006MOL0     H35765   8.585   3.569   2.579 -1.1128  0.2414  0.9501
 1006MOL0     H35766   8.365   3.527   2.670  0.6961 -1.9328  0.3544
 1006MOL0     H35767   8.396   3.708   2.644 -0.5426  0.6401  2.3469
 1006MOL0     H35768   8.390   3.575   2.906 -1.3905 -0.3953 -0.5062
 1006MOL0     H35769   8.286   3.708   2.837 -0.6887 -0.9104 -2.9882
 1006MOL0     H35770   8.594   3.941   3.026 -1.4067 -0.4678 -2.2604
 1006MOL0     H35771   8.538   4.038   3.244 -0.7127  0.2253  0.9411
 1006MOL0     H35772   8.086   4.124   3.533  0.6922 -0.1275 -0.7683
 1006MOL0     H35773   8.022   4.203   3.763 -1.2597 -2.0036  3.1577
 1006MOL0     H35774   8.013   4.048   4.171  1.7073 -3.1634  1.2925
 1006MOL0     H35775   8.084   3.936   4.067 -0.5797 -1.0770  1.2986
 1006MOL0     H35776   8.203   3.984   4.272  1.4060  0.4964 -0.1496
 1006MOL0     H35777   8.310   4.016   4.130 -0.2207  1.9138 -1.0329
 1006MOL0     H35778   8.330   4.191   4.317  0.8914 -4.0929 -1.0194
 1006MOL0     H35779   8.317   4.247   4.149 -0.2167 -0.9825  0.5042
 1006MOL0     H35780   8.065   4.274   4.193  0.2541  1.4179 -0.6030
 1006MOL0     H35781   8.161   4.386   4.279 -0.9588 -0.0570  1.7374
 1006MOL0     H35782   8.158   4.249   4.495 -0.0803 -1.1178 -0.1127
 1006MOL0     H35783   8.078   4.117   4.417  3.3827 -0.8358  0.5744
 1006MOL0     H35784   7.956   4.397   4.425  1.0279  0.3655  0.6691
 1006MOL0     H35785   7.874   4.249   4.382  2.9228 -0.2105 -3.1959
 1006MOL0     H35786   7.999   4.268   4.651  0.0526 -2.4448 -0.7645
 1006MOL0     H35787   7.865   4.164   4.603  1.6194 -1.3898  1.0121
 1006MOL0     H35788   7.858   4.458   4.618  1.5990  0.0063 -1.7182
 1006MOL0     H35789   7.723   4.364   4.549  2.0854  0.3057 -1.3608
 1006MOL0     H35790   8.267   3.890   3.924  0.9383 -2.4246 -2.0837
 1006MOL0     H35791   8.326   3.826   3.712  1.6349  0.7185  0.6540
 1006MOL0     H35792   8.203   3.761   3.278  0.7482 -1.9039 -1.2006
 1006MOL0     H35793   8.251   3.690   3.059  2.2898 -2.0038  0.2072
 1006MOL0     H35794   9.080   2.835   2.275  0.0360 -2.3116  3.8522
 1006MOL0     H35795   9.077   2.791   2.020  3.1279  2.2924  1.7279
 1006MOL0     H35796   9.125   2.588   1.679  0.1398 -1.0388  2.0419
 1006MOL0     H35797   9.125   2.478   1.460  1.6552 -1.2856  1.5735
 1006MOL0     H35798   9.049   2.454   1.249  1.1824 -0.4614  3.3501
 1006MOL0     H35799   8.938   2.349   1.163  0.2706 -2.1106  0.5489
 1006MOL0     H35800   9.099   2.191   1.141  2.0158 -1.7037  1.5258
 1006MOL0     H35801   9.159   2.206   1.300 -2.1596  0.0378  1.3555
 1006MOL0     H35802   9.223   2.459   1.151 -0.7444  0.3427  1.0893
 1006MOL0     H35803   9.249   2.324   1.040 -1.0513  1.6315 -0.6503
 1006MOL0     H35804   9.376   2.193   1.215 -2.5276 -0.1158  1.2084
 1006MOL0     H35805   9.470   2.329   1.152  0.3144 -3.4382 -1.8433
 1006MOL0     H35806   9.380   2.400   1.567  3.6300  6.8131 -0.6505
 1006MOL0     H35807   8.766   2.279   1.541 -0.1740  0.7622 -1.0920
 1006MOL0     H35808   8.783   2.317   1.905  0.8651 -0.9326 -0.8579
 1006MOL0     H35809   8.658   2.391   1.801  0.3170  1.2088 -1.9455
 1006MOL0     H35810   8.739   2.231   1.769 -0.1771  0.7041 -1.8125
 1007MOL0     O35811   3.393   4.432   9.681 -0.2043  0.0289  0.7192
 1007MOL0     C35812   3.299   4.494   9.730  0.4609  0.1706 -0.8164
 1007MOL0     O35813   3.198   4.432   9.797  0.6675  0.0014 -0.3735
 1007MOL0     C35814   3.217   4.305   9.842 -0.0794 -0.2623 -0.1218
 1007MOL0     C35815   3.223   4.192   9.763  1.1986 -0.1296 -0.3736
 1007MOL0     C35816   3.212   4.062   9.818  0.0427  0.0317  0.1137
 1007MOL0     C35817   3.196   4.045   9.956 -1.0683  0.0118 -0.9012
 1007MOL0     O35818   3.205   3.919  10.004  0.2441  0.0539  0.2809
 1007MOL0     C35819   3.089   3.868  10.066  0.6573  0.1378  0.1016
 1007MOL0     C35820   3.118   3.736  10.140 -0.1282  0.8610 -0.3076
 1007MOL0     C35821   3.173   3.744  10.283  0.6628  0.4802  0.7068
 1007MOL0     C35822   3.213   3.870  10.336  0.1688 -0.9222 -0.0135
 1007MOL0     C35823   3.230   3.873  10.488 -0.4423 -1.0885  0.2368
 1007MOL0     C35824   3.269   4.004  10.552  1.1392 -0.9395  0.0125
 1007MOL0     C35825   3.314   3.988  10.707 -0.5552  0.0343 -0.0782
 1007MOL0     C35826   3.201   3.992  10.800  0.6144 -0.3876  0.5863
 1007MOL0     N35827   3.247   3.985  10.941  0.3210 -0.1453  0.3668
 1007MOL0     C35828   3.150   3.976  11.038 -0.2498  0.5559  0.1008
 1007MOL0     C35829   3.236   3.980  11.152  0.6712  0.9575  0.9750
 1007MOL0     C35830   3.201   3.982  11.299 -0.0573  0.5078 -0.2108
 1007MOL0     C35831   3.058   3.994  11.339  0.3644 -0.1247  0.7139
 1007MOL0     C35832   3.024   4.043  11.486  0.0090 -0.5058  0.3666
 1007MOL0     C35833   2.871   4.059  11.518 -0.4243 -0.2391 -0.2965
 1007MOL0     O35834   2.840   4.155  11.611 -0.3112  0.4050  0.6574
 1007MOL0     C35835   2.736   4.129  11.690  0.2142  1.0207  0.0009
 1007MOL0     C35836   2.738   4.204  11.811  0.4064  0.3164  0.8931
 1007MOL0     C35837   2.638   4.194  11.904 -0.6809 -0.0121 -1.1873
 1007MOL0     C35838   2.528   4.097  11.887  0.2601  0.2839 -0.8100
 1007MOL0     C35839   2.422   4.087  11.990  0.8072 -0.2088 -0.8337
 1007MOL0     O35840   2.310   4.004  11.961  0.0520  0.4277 -0.4968
 1007MOL0     C35841   2.220   3.999  12.063  0.5964 -0.2902 -0.1220
 1007MOL0     C35842   2.214   3.879  12.138 -0.6701  0.2952 -0.8130
 1007MOL0     C35843   2.120   3.870  12.249 -0.1475  0.1762  1.4041
 1007MOL0     C35844   2.044   3.979  12.277 -0.0496 -0.6052 -0.7529
 1007MOL0     O35845   1.955   3.972  12.382 -0.6602 -0.6866 -0.0155
 1007MOL0     C35846   1.860   4.077  12.408  1.0282  0.5800 -0.0981
 1007MOL0     C35847   1.731   4.069  12.317  0.3127  0.3096  0.4425
 1007MOL0     C35848   1.631   4.182  12.345  0.2638  0.0429 -0.7398
 1007MOL0     C35849   1.551   4.222  12.216 -0.9260 -0.7498 -0.9821
 1007MOL0     C35850   1.459   4.111  12.164  0.4530 -0.7478 -1.1487
 1007MOL0     C35851   1.308   4.155  12.168 -0.3364 -0.1009 -0.7238
 1007MOL0     C35852   1.219   4.040  12.124  1.0963 -0.8651 -0.0576
 1007MOL0     C35853   1.233   3.990  11.977  0.3777  0.2231 -0.4342
 1007MOL0    Cl35854   1.230   4.135  11.874  0.1324 -0.1011  0.2367
 1007MOL0     C35855   2.044   4.096  12.202  0.2903  0.2743  0.3494
 1007MOL0     C35856   2.128   4.105  12.091  0.3256 -0.5456  0.5208
 1007MOL0     O35857   2.448   4.147  12.091  0.2639 -0.1294 -0.0760
 1007MOL0     C35858   2.530   4.034  11.761 -0.3173 -0.2210 -0.3919
 1007MOL0     C35859   2.628   4.045  11.663 -0.0690 -0.8454  0.6551
 1007MOL0     N35860   3.372   3.985  11.116  0.5147  0.2314  0.9790
 1007MOL0     N35861   3.369   4.007  10.994  0.6957 -0.5534  0.5158
 1007MOL0     C35862   3.189   4.156  10.040  0.4027  0.6185 -0.1515
 1007MOL0     C35863   3.193   4.283   9.981 -0.7221 -0.1826  0.2546
 1007MOL0     C35864   3.294   4.644   9.733 -0.1116 -0.8014 -0.2795
 1007MOL0     C35865   3.200   4.703   9.823  0.3418 -0.8055  0.0442
 1007MOL0     C35866   3.202   4.849   9.844  0.8197  0.6005 -0.2093
 1007MOL0     C35867   3.286   4.927   9.773  0.1714  0.8840  0.7104
 1007MOL0     O35868   3.287   5.069   9.764 -0.0950 -0.0302  0.3422
 1007MOL0     C35869   3.394   5.144   9.828 -0.4684 -0.6258  0.3179
 1007MOL0     C35870   3.500   5.191   9.726 -0.1517  0.3101 -0.0700
 1007MOL0     C35871   3.586   5.286   9.795 -0.0711 -1.1222  0.1993
 1007MOL0     C35872   3.713   5.324   9.719  0.9238 -0.6447 -0.3265
 1007MOL0     C35873   3.678   5.409   9.600 -0.3203 -0.0990 -0.9048
 1007MOL0     C35874   3.643   5.488   9.512 -0.5103 -0.3762  0.1362
 1007MOL0     C35875   3.374   4.866   9.684 -0.7074  0.2079 -0.1030
 1007MOL0     C35876   3.380   4.728   9.663  0.0842  0.7997  0.7893
 1007MOL0     C35877   3.487   4.671   9.571 -0.9371 -0.1485  0.2444
 1007MOL0     H35878   3.246   4.196   9.657 -0.8810 -1.9679 -0.9662
 1007MOL0     H35879   3.237   3.981   9.749 -0.0823  0.0737  0.0188
 1007MOL0     H35880   3.035   3.941  10.126  0.9215 -0.6097  1.2717
 1007MOL0     H35881   3.028   3.841   9.979  0.7196  2.7822 -0.8546
 1007MOL0     H35882   3.187   3.691  10.068 -0.0963  3.1595 -1.8278
 1007MOL0     H35883   3.017   3.695  10.132 -0.7097  2.5018 -1.8750
 1007MOL0     H35884   3.265   3.684  10.272 -0.7957 -1.3512 -4.8540
 1007MOL0     H35885   3.100   3.694  10.347  2.8613 -1.0402  2.1818
 1007MOL0     H35886   3.309   3.894  10.289 -0.7190 -1.1146 -2.0153
 1007MOL0     H35887   3.148   3.950  10.301 -1.0215 -2.5081 -1.6058
 1007MOL0     H35888   3.135   3.840  10.531  0.2874 -1.2191  1.8500
 1007MOL0     H35889   3.299   3.792  10.514 -0.4325 -2.7749 -4.1952
 1007MOL0     H35890   3.347   4.049  10.491 -0.6064 -1.3740 -2.6970
 1007MOL0     H35891   3.179   4.065  10.550 -0.0629 -2.3814  3.1710
 1007MOL0     H35892   3.379   4.074  10.726  0.5848 -0.7188 -0.4886
 1007MOL0     H35893   3.370   3.895  10.714  0.0006  0.3272 -0.4772
 1007MOL0     H35894   3.149   4.089  10.798  2.1240  0.5293  2.7493
 1007MOL0     H35895   3.134   3.909  10.774 -0.4019  0.5698  0.0560
 1007MOL0     H35896   3.042   3.979  11.034 -0.2712 -0.5568 -0.3365
 1007MOL0     H35897   3.251   3.905  11.359  0.1476  1.3774  0.7677
 1007MOL0     H35898   3.244   4.071  11.346 -2.0511  0.4424  1.9269
 1007MOL0     H35899   3.005   4.061  11.270  0.4801 -0.5754  0.1753
 1007MOL0     H35900   3.020   3.894  11.317 -1.7589  1.0084 -1.2025
 1007MOL0     H35901   3.068   4.142  11.501 -1.4674  0.3039 -0.3926
 1007MOL0     H35902   3.062   3.971  11.559  4.9561  1.7296  0.4282
 1007MOL0     H35903   2.837   3.958  11.542 -0.0248 -0.1035  0.9451
 1007MOL0     H35904   2.817   4.095  11.430 -2.6269 -1.3237  0.5405
 1007MOL0     H35905   2.828   4.264  11.811  0.5505  0.4693 -3.5037
 1007MOL0     H35906   2.659   4.257  11.990 -0.8953 -0.5523 -0.7293
 1007MOL0     H35907   2.275   3.793  12.112  1.3511  1.9060 -1.6457
 1007MOL0     H35908   2.118   3.778  12.306  0.3038  0.5866  2.0986
 1007MOL0     H35909   1.828   4.049  12.509 -0.3462 -1.5269 -1.0362
 1007MOL0     H35910   1.902   4.178  12.417  1.2229  0.4853  0.0881
 1007MOL0     H35911   1.764   4.077  12.213 -2.9141 -1.7693 -0.9034
 1007MOL0     H35912   1.687   3.971  12.336 -0.1918  0.6463  1.0383
 1007MOL0     H35913   1.559   4.153  12.423 -1.4042  2.9324 -1.0499
 1007MOL0     H35914   1.689   4.264  12.390  0.1742 -0.6548  0.7135
 1007MOL0     H35915   1.626   4.264  12.148 -0.5402  0.6221  0.2403
 1007MOL0     H35916   1.492   4.311  12.241  0.8243  0.2293 -0.1786
 1007MOL0     H35917   1.465   4.026  12.233 -0.6809 -0.6306 -0.8870
 1007MOL0     H35918   1.486   4.064  12.069  2.2167 -1.3792 -0.3658
 1007MOL0     H35919   1.279   4.176  12.272  1.0726  0.7349 -0.4742
 1007MOL0     H35920   1.281   4.241  12.106 -1.4028  0.3634  0.3382
 1007MOL0     H35921   1.118   4.081  12.135  1.3282  0.6568 -2.7059
 1007MOL0     H35922   1.225   3.949  12.184  1.5536 -0.2797  0.7956
 1007MOL0     H35923   1.317   3.920  11.978  0.7620  0.5165  3.6734
 1007MOL0     H35924   1.151   3.927  11.943  1.5505 -1.8063  0.3132
 1007MOL0     H35925   1.977   4.181  12.216 -0.2983 -0.3048  1.1271
 1007MOL0     H35926   2.138   4.199  12.038 -1.0821 -0.0964  1.0067
 1007MOL0     H35927   2.450   3.966  11.733  0.8158 -1.4102 -0.7939
 1007MOL0     H35928   2.629   3.987  11.571  2.1564 -1.7395  1.1813
 1007MOL0     H35929   3.174   4.137  10.146 -0.0599 -0.8232 -0.4509
 1007MOL0     H35930   3.167   4.372  10.038 -0.7077 -0.0188  0.0079
 1007MOL0     H35931   3.115   4.647   9.859 -1.4471  0.8084 -1.4939
 1007MOL0     H35932   3.129   4.895   9.910 -3.7315 -0.5304 -3.9141
 1007MOL0     H35933   3.452   5.093   9.906  3.0363  1.6352 -0.5589
 1007MOL0     H35934   3.342   5.231   9.867  0.7628 -1.0786  3.2313
 1007MOL0     H35935   3.459   5.243   9.638 -1.6337  1.3881  1.2025
 1007MOL0     H35936   3.553   5.099   9.700 -5.2865 -2.8033 -0.9493
 1007MOL0     H35937   3.611   5.229   9.885  0.6429  2.3254  2.3470
 1007MOL0     H35938   3.528   5.376   9.819  3.7996  1.6779 -0.1142
 1007MOL0     H35939   3.783   5.377   9.785  0.5564 -2.8833  2.0650
 1007MOL0     H35940   3.760   5.234   9.678  1.4077  0.3968 -2.1496
 1007MOL0     H35941   3.621   5.560   9.437  2.0567  0.8298  0.4347
 1007MOL0     H35942   3.447   4.922   9.625  1.0258 -0.5169  1.2570
 1007MOL0     H35943   3.448   4.597   9.500 -0.7988 -1.2257  1.2628
 1007MOL0     H35944   3.534   4.749   9.510  0.2940 -1.6806 -0.8478
 1007MOL0     H35945   3.575   4.635   9.625  0.8696 -0.1780 -2.4881
 1008MOL0     O35946   0.560   1.760   2.246  0.4613  0.1912 -0.0835
 1008MOL0     C35947   0.652   1.677   2.238 -0.0728 -0.3763 -0.0684
 1008MOL0     O35948   0.633   1.551   2.184  0.4994  0.1117  0.5959
 1008MOL0     C35949   0.504   1.518   2.166 -0.3324  0.2844 -0.6638
 1008MOL0     C35950   0.432   1.434   2.258  0.3888  0.4147  0.5491
 1008MOL0     C35951   0.302   1.382   2.240  0.9583  0.4868 -0.5745
 1008MOL0     C35952   0.245   1.414   2.115 -1.0059 -0.1436  0.3857
 1008MOL0     O35953   0.120   1.372   2.089  0.1798  0.4291  0.4346
 1008MOL0     C35954   0.069   1.374   1.957 -0.3636 -0.2127  0.5704
 1008MOL0     C35955  -0.060   1.292   1.952  1.0914 -0.0820 -0.5139
 1008MOL0     C35956  -0.121   1.249   1.819  0.0815  0.0836  0.4612
 1008MOL0     C35957  -0.239   1.152   1.841 -0.8189 -0.1413  0.1222
 1008MOL0     C35958  -0.299   1.101   1.707  0.4195  0.7335  0.1310
 1008MOL0     C35959  -0.405   0.994   1.724 -0.2013  0.4620  0.5374
 1008MOL0     C35960  -0.425   0.933   1.580  1.3901  0.4825  0.3607
 1008MOL0     C35961  -0.359   0.801   1.572 -0.5338 -0.2468 -0.0785
 1008MOL0     N35962  -0.379   0.735   1.437 -0.1435  0.1524 -0.8003
 1008MOL0     C35963  -0.500   0.699   1.388 -0.2595  0.7790 -0.2458
 1008MOL0     C35964  -0.476   0.692   1.256  0.6921  0.9022  0.7588
 1008MOL0     C35965  -0.581   0.645   1.160 -0.5351 -1.4884  0.7930
 1008MOL0     C35966  -0.539   0.530   1.071 -0.0142 -0.0070 -0.4360
 1008MOL0     C35967  -0.493   0.414   1.166  0.0930  0.4806  0.0150
 1008MOL0     C35968  -0.509   0.277   1.096  0.2415  0.4003 -0.1705
 1008MOL0     O35969  -0.634   0.226   1.138  0.6647 -0.3578  0.0598
 1008MOL0     C35970  -0.728   0.182   1.054  0.6216  0.3860  0.6485
 1008MOL0     C35971  -0.712   0.153   0.912 -0.0557 -0.2084 -0.1041
 1008MOL0     C35972  -0.823   0.111   0.836 -0.0104  0.3369  0.4335
 1008MOL0     C35973  -0.946   0.095   0.902  0.2273  0.3373 -0.5566
 1008MOL0     C35974  -1.050   0.034   0.824  0.3317  0.5002  0.2240
 1008MOL0     O35975  -1.011  -0.045   0.725  0.0036  0.1537 -0.4518
 1008MOL0     C35976  -1.084  -0.137   0.664  0.0393 -0.6584 -0.4828
 1008MOL0     C35977  -1.163  -0.239   0.731  0.1919 -1.0688  0.8072
 1008MOL0     C35978  -1.230  -0.335   0.657 -0.1062 -0.1959  0.2951
 1008MOL0     C35979  -1.228  -0.337   0.513 -0.1740 -1.4405  0.1483
 1008MOL0     O35980  -1.284  -0.439   0.446 -0.4073 -0.4139  0.0761
 1008MOL0     C35981  -1.313  -0.433   0.309 -0.4399 -0.2657 -0.2136
 1008MOL0     C35982  -1.176  -0.466   0.225  0.0615  0.3623  0.2225
 1008MOL0     C35983  -1.209  -0.451   0.078 -1.1946 -0.0289  0.6233
 1008MOL0     C35984  -1.094  -0.503  -0.008  1.1838 -1.0591  0.0449
 1008MOL0     C35985  -1.030  -0.395  -0.100  0.4240 -0.1359  0.4281
 1008MOL0     C35986  -1.116  -0.356  -0.216 -0.2383  0.7004 -0.3483
 1008MOL0     C35987  -1.162  -0.209  -0.206  0.5248  0.7126 -0.1487
 1008MOL0     C35988  -1.241  -0.150  -0.322  0.4319 -1.6066 -0.5673
 1008MOL0    Cl35989  -1.395  -0.242  -0.346 -0.1030 -0.3092  0.1599
 1008MOL0     C35990  -1.164  -0.227   0.452  0.4502  0.3588  0.0394
 1008MOL0     C35991  -1.084  -0.137   0.524  0.3864  0.8764 -1.3464
 1008MOL0     O35992  -1.172   0.057   0.845 -0.0263 -0.0790  0.0895
 1008MOL0     C35993  -0.969   0.129   1.036 -0.9292 -0.6557 -0.0082
 1008MOL0     C35994  -0.853   0.174   1.103  0.3222  0.4258  0.8131
 1008MOL0     N35995  -0.348   0.719   1.223  0.0082 -0.5078  0.3012
 1008MOL0     N35996  -0.291   0.744   1.336  0.5743  0.0186 -0.1853
 1008MOL0     C35997   0.319   1.494   2.020 -0.1812  0.0676 -0.0057
 1008MOL0     C35998   0.449   1.542   2.042 -0.1219  0.5431 -0.3374
 1008MOL0     C35999   0.793   1.721   2.270 -0.0422  0.3032  0.7934
 1008MOL0     C36000   0.893   1.617   2.272 -0.0151  0.1038 -1.1831
 1008MOL0     C36001   1.024   1.653   2.304 -0.3124  0.9365 -0.0627
 1008MOL0     C36002   1.070   1.779   2.302 -1.3900  0.3619  0.1028
 1008MOL0     O36003   1.201   1.811   2.325 -0.5136  0.9275  0.2136
 1008MOL0     C36004   1.223   1.911   2.422  0.4405 -0.0175 -0.0620
 1008MOL0     C36005   1.368   1.915   2.437 -0.8043 -0.3204 -0.3035
 1008MOL0     C36006   1.410   2.014   2.551  0.9029  1.1239  0.6521
 1008MOL0     C36007   1.567   2.037   2.547  0.5397 -1.2283  0.0728
 1008MOL0     C36008   1.643   1.925   2.593 -0.5987  0.0049 -1.3714
 1008MOL0     C36009   1.732   1.852   2.630  0.3051  0.2543  0.0891
 1008MOL0     C36010   0.973   1.876   2.265 -0.3995  0.4802 -0.6325
 1008MOL0     C36011   0.840   1.854   2.273  0.1807 -0.1680 -0.1040
 1008MOL0     C36012   0.761   1.975   2.256  1.0842  0.7060  0.4211
 1008MOL0     H36013   0.486   1.385   2.339 -0.4351 -1.4185  0.0466
 1008MOL0     H36014   0.249   1.309   2.300  1.6965  0.0343 -0.4486
 1008MOL0     H36015   0.037   1.473   1.924  0.8575 -0.4815 -1.6192
 1008MOL0     H36016   0.138   1.327   1.886  0.2848 -1.0229  1.6965
 1008MOL0     H36017  -0.140   1.355   1.991  2.6421 -0.1135  3.1153
 1008MOL0     H36018  -0.032   1.208   2.017  2.2468  0.0180 -0.8485
 1008MOL0     H36019  -0.043   1.211   1.752 -1.8187 -1.5923 -0.9656
 1008MOL0     H36020  -0.165   1.342   1.783 -0.0477  1.0376  2.9454
 1008MOL0     H36021  -0.217   1.064   1.902 -0.5684 -0.5230 -0.5127
 1008MOL0     H36022  -0.328   1.200   1.884 -1.4286 -2.2741  1.4311
 1008MOL0     H36023  -0.344   1.176   1.642 -3.5917  1.5400  3.4567
 1008MOL0     H36024  -0.211   1.059   1.657 -0.3462 -1.0686  0.2443
 1008MOL0     H36025  -0.382   0.918   1.800 -0.5581  1.3267  1.5337
 1008MOL0     H36026  -0.496   1.043   1.759 -0.0352  0.3815  1.0868
 1008MOL0     H36027  -0.389   0.996   1.498  0.9861 -0.4394 -0.5425
 1008MOL0     H36028  -0.529   0.909   1.556  1.6721 -1.8376  1.1815
 1008MOL0     H36029  -0.254   0.807   1.601 -0.8647 -2.8899  2.0830
 1008MOL0     H36030  -0.410   0.751   1.655 -2.2474  0.5156 -0.6367
 1008MOL0     H36031  -0.591   0.666   1.438 -0.4427  0.5545 -0.7201
 1008MOL0     H36032  -0.675   0.614   1.206 -5.1886  1.3941 -5.2697
 1008MOL0     H36033  -0.618   0.726   1.096 -0.7726 -2.3183 -0.1613
 1008MOL0     H36034  -0.620   0.496   1.007 -0.3308 -2.3673  1.1061
 1008MOL0     H36035  -0.453   0.563   1.011  0.5936 -2.6347 -1.1361
 1008MOL0     H36036  -0.558   0.414   1.254 -3.1516  0.4614 -2.1991
 1008MOL0     H36037  -0.389   0.434   1.196  0.7292 -0.6125 -1.3312
 1008MOL0     H36038  -0.423   0.210   1.104  0.6280  1.0273  1.1623
 1008MOL0     H36039  -0.516   0.301   0.989  3.8579 -0.4642 -0.7266
 1008MOL0     H36040  -0.615   0.160   0.865 -0.9764  1.1989 -1.9317
 1008MOL0     H36041  -0.816   0.085   0.731  1.7586  4.5462 -0.6732
 1008MOL0     H36042  -1.165  -0.263   0.837  1.7556  0.2235  1.1583
 1008MOL0     H36043  -1.265  -0.423   0.709 -0.7537 -1.2862 -1.8775
 1008MOL0     H36044  -1.398  -0.500   0.294 -0.4890 -0.3172  0.3011
 1008MOL0     H36045  -1.343  -0.334   0.273  0.9247  0.4774  0.6143
 1008MOL0     H36046  -1.092  -0.405   0.257 -0.8841  0.6744  2.2762
 1008MOL0     H36047  -1.158  -0.568   0.259 -1.3921  0.2167  0.6269
 1008MOL0     H36048  -1.301  -0.510   0.069 -1.5943  0.3522  2.0134
 1008MOL0     H36049  -1.231  -0.345   0.065 -2.1120 -0.2163  0.6280
 1008MOL0     H36050  -1.129  -0.588  -0.067 -0.9251  1.6174 -2.9383
 1008MOL0     H36051  -1.006  -0.532   0.051  0.3154  2.0399  3.2057
 1008MOL0     H36052  -0.945  -0.450  -0.143  0.6294  1.0875 -0.7742
 1008MOL0     H36053  -0.992  -0.311  -0.041 -0.8512 -0.6364  2.0541
 1008MOL0     H36054  -1.074  -0.394  -0.310 -0.6551 -2.6545  0.6803
 1008MOL0     H36055  -1.204  -0.422  -0.221  0.0900  0.3150 -3.4314
 1008MOL0     H36056  -1.073  -0.148  -0.188  1.0817  0.3415 -1.4683
 1008MOL0     H36057  -1.230  -0.217  -0.121  1.3505 -2.0483  0.3608
 1008MOL0     H36058  -1.273  -0.048  -0.299  0.9547 -1.9984  2.2268
 1008MOL0     H36059  -1.172  -0.154  -0.407  0.9171 -1.6397 -0.1784
 1008MOL0     H36060  -1.168  -0.226   0.344 -0.3809  2.4601  0.0357
 1008MOL0     H36061  -1.017  -0.060   0.487 -0.2192  2.3025  0.4094
 1008MOL0     H36062  -1.060   0.127   1.093  0.8813 -0.8527  3.0865
 1008MOL0     H36063  -0.866   0.211   1.204  0.6662  0.1308  0.9667
 1008MOL0     H36064   0.271   1.517   1.926 -0.1540 -1.9677 -0.5561
 1008MOL0     H36065   0.503   1.593   1.963  0.4538 -2.5835 -2.1417
 1008MOL0     H36066   0.866   1.512   2.281  0.0212  0.2714  2.4187
 1008MOL0     H36067   1.094   1.571   2.317  0.8724  2.2706  2.8360
 1008MOL0     H36068   1.179   1.881   2.518 -1.2873  0.2986 -0.7135
 1008MOL0     H36069   1.184   2.007   2.389  1.4063  0.0771 -0.9789
 1008MOL0     H36070   1.407   1.971   2.352  1.7512  0.2228  1.1026
 1008MOL0     H36071   1.415   1.816   2.445 -0.9247 -0.2488  2.8249
 1008MOL0     H36072   1.393   1.965   2.648  1.9646 -2.1909 -0.6774
 1008MOL0     H36073   1.343   2.100   2.544 -1.1518 -0.5217 -2.5929
 1008MOL0     H36074   1.588   2.053   2.440 -0.0267 -1.5542 -0.0945
 1008MOL0     H36075   1.590   2.131   2.597 -1.5591 -1.5607  1.8081
 1008MOL0     H36076   1.802   1.786   2.676  0.2924  0.9616  1.1528
 1008MOL0     H36077   1.017   1.975   2.262 -0.6860  0.5912 -1.2566
 1008MOL0     H36078   0.688   1.965   2.337  0.5531  3.0945  0.3385
 1008MOL0     H36079   0.806   2.073   2.271 -1.3190  1.6094  2.5597
 1008MOL0     H36080   0.721   1.983   2.154  2.1099 -1.3071 -0.1877
 1009MOL0     O36081   6.301   3.335   8.777 -0.3985 -0.7149 -0.7173
 1009MOL0     C36082   6.275   3.239   8.846 -1.3337  0.2704 -0.1183
 1009MOL0     O36083   6.162   3.220   8.922  0.6885 -0.1033 -0.0332
 1009MOL0     C36084   6.064   3.314   8.889  1.1357  0.6391 -0.2269
 1009MOL0     C36085   6.044   3.429   8.975 -0.2286  0.1611  0.3005
 1009MOL0     C36086   5.928   3.505   8.962 -0.5633  0.4641  0.3420
 1009MOL0     C36087   5.838   3.492   8.853 -0.6502  0.3074  0.7697
 1009MOL0     O36088   5.746   3.577   8.813  0.3898 -0.5979  0.2439
 1009MOL0     C36089   5.712   3.692   8.901  1.2083 -0.6413  0.3556
 1009MOL0     C36090   5.629   3.812   8.841  0.0349  0.8463 -0.2214
 1009MOL0     C36091   5.623   3.940   8.929  0.5396  0.7048 -0.3217
 1009MOL0     C36092   5.486   4.003   8.910 -0.6766  0.2237  0.0868
 1009MOL0     C36093   5.454   4.051   8.763  0.7063  0.1973 -0.1150
 1009MOL0     C36094   5.557   4.134   8.691  0.1742 -0.0652  0.4054
 1009MOL0     C36095   5.499   4.184   8.552 -0.6045 -0.1465 -0.3982
 1009MOL0     C36096   5.476   4.063   8.458 -1.1043 -0.4710 -0.5218
 1009MOL0     N36097   5.458   4.119   8.319 -0.4941 -0.6179 -0.7481
 1009MOL0     C36098   5.353   4.201   8.281 -0.2511  0.5520 -0.0235
 1009MOL0     C36099   5.378   4.245   8.158 -0.0222 -0.0581  0.4417
 1009MOL0     C36100   5.278   4.342   8.079 -0.5337  0.8795  0.9196
 1009MOL0     C36101   5.345   4.377   7.954  0.2323 -0.8530 -0.4021
 1009MOL0     C36102   5.278   4.490   7.866 -0.3085  0.0655 -0.4377
 1009MOL0     C36103   5.159   4.433   7.784 -0.3890 -0.0175  0.5827
 1009MOL0     O36104   5.050   4.405   7.871 -0.2464  0.6843  0.0008
 1009MOL0     C36105   4.969   4.499   7.931 -0.4107  0.7951 -0.2112
 1009MOL0     C36106   4.975   4.630   7.885 -0.2808 -0.6559  0.5815
 1009MOL0     C36107   4.912   4.727   7.948 -0.0830 -0.1854 -0.5955
 1009MOL0     C36108   4.832   4.698   8.067 -0.2659  0.2620  0.5632
 1009MOL0     C36109   4.780   4.809   8.145  0.2724 -0.0882  0.3463
 1009MOL0     O36110   4.719   4.755   8.254 -0.0656 -1.1536  0.1633
 1009MOL0     C36111   4.732   4.815   8.377 -0.0868 -0.5673  0.0563
 1009MOL0     C36112   4.853   4.875   8.418  0.4736  0.0442 -1.0152
 1009MOL0     C36113   4.862   4.935   8.542  0.0773  0.1108 -0.3216
 1009MOL0     C36114   4.743   4.935   8.621 -0.0952  0.1893  0.2774
 1009MOL0     O36115   4.760   4.991   8.750  0.9420 -0.1673 -0.7049
 1009MOL0     C36116   4.729   4.898   8.860 -0.4475 -0.2623  0.2208
 1009MOL0     C36117   4.798   4.931   8.987 -0.5618  0.0607 -0.1902
 1009MOL0     C36118   4.947   4.903   8.996  0.4693 -0.3296  1.0634
 1009MOL0     C36119   5.011   4.890   9.134  0.2391 -0.3538 -0.0486
 1009MOL0     C36120   5.159   4.840   9.124  0.2317 -0.0042 -0.3048
 1009MOL0     C36121   5.240   4.869   9.255 -0.5968  0.1215 -0.1862
 1009MOL0     C36122   5.392   4.894   9.234  0.5377 -0.8250 -0.5161
 1009MOL0     C36123   5.495   4.786   9.200  0.8180  0.6719  0.4775
 1009MOL0    Cl36124   5.491   4.670   9.339  0.0658 -0.1348 -0.0755
 1009MOL0     C36125   4.634   4.850   8.591  0.7434  0.2864  0.7636
 1009MOL0     C36126   4.631   4.790   8.469 -0.5183 -0.7386  0.2324
 1009MOL0     O36127   4.776   4.924   8.099 -0.0132  1.0478 -1.1068
 1009MOL0     C36128   4.813   4.563   8.103 -0.4706 -0.6041 -0.8309
 1009MOL0     C36129   4.889   4.464   8.038 -0.4052 -0.7144  0.3812
 1009MOL0     N36130   5.505   4.199   8.119  0.2165  0.3899  0.0141
 1009MOL0     N36131   5.553   4.124   8.219 -0.1099  0.0015 -0.3938
 1009MOL0     C36132   5.864   3.386   8.763  0.1036 -0.3141  0.4498
 1009MOL0     C36133   5.963   3.296   8.784 -0.3460 -0.4938 -0.4552
 1009MOL0     C36134   6.359   3.119   8.830  0.1779  0.1341  0.6313
 1009MOL0     C36135   6.295   2.997   8.828 -0.0016  0.1459 -1.0156
 1009MOL0     C36136   6.367   2.876   8.811  0.4788 -0.2495 -0.6094
 1009MOL0     C36137   6.501   2.873   8.793  0.1281 -0.0852  0.1345
 1009MOL0     O36138   6.578   2.775   8.751 -0.0371  0.5527 -0.0035
 1009MOL0     C36139   6.523   2.639   8.769  0.3245 -0.9902  0.3294
 1009MOL0     C36140   6.532   2.596   8.914 -0.4208 -0.0601 -0.2614
 1009MOL0     C36141   6.667   2.616   8.997 -0.4418  0.1887  1.2755
 1009MOL0     C36142   6.673   2.517   9.109 -0.2662 -0.4530  0.1401
 1009MOL0     C36143   6.553   2.538   9.200  0.5973  0.1642  0.9623
 1009MOL0     C36144   6.446   2.553   9.254  1.3523 -0.0174 -0.6282
 1009MOL0     C36145   6.567   2.994   8.784 -0.1992 -0.0535  0.6235
 1009MOL0     C36146   6.505   3.117   8.797 -0.4785 -0.4109 -0.1441
 1009MOL0     C36147   6.598   3.242   8.806  0.1320  0.1715  0.5828
 1009MOL0     H36148   6.111   3.448   9.058  0.6101  1.3927 -0.6327
 1009MOL0     H36149   5.902   3.576   9.040 -0.0792  0.6861  0.3056
 1009MOL0     H36150   5.643   3.654   8.976 -3.7360  3.1728 -1.7123
 1009MOL0     H36151   5.801   3.740   8.943 -0.8390  2.1847  1.8116
 1009MOL0     H36152   5.538   3.766   8.800  1.5574 -0.7349 -2.0505
 1009MOL0     H36153   5.676   3.840   8.746  3.0068 -2.8556 -0.1025
 1009MOL0     H36154   5.696   4.016   8.898 -2.2512  2.3320 -3.6102
 1009MOL0     H36155   5.622   3.922   9.037 -0.5714 -0.1380 -0.4592
 1009MOL0     H36156   5.411   3.933   8.949 -0.5521  1.6962  3.2691
 1009MOL0     H36157   5.483   4.089   8.976  1.4564  1.0344 -0.7899
 1009MOL0     H36158   5.422   3.968   8.700 -1.0720  1.4864 -0.9950
 1009MOL0     H36159   5.381   4.129   8.786  2.1047  1.4918  0.0888
 1009MOL0     H36160   5.586   4.218   8.754 -0.9737 -0.3689  1.3797
 1009MOL0     H36161   5.639   4.066   8.666 -0.7051 -1.8787  2.1966
 1009MOL0     H36162   5.571   4.251   8.504  1.0840 -1.4520  0.2241
 1009MOL0     H36163   5.408   4.245   8.558 -1.8130 -1.9613  0.5626
 1009MOL0     H36164   5.561   3.994   8.449 -2.3905 -2.0482 -1.1830
 1009MOL0     H36165   5.381   4.010   8.473 -1.9511  1.1462  0.1099
 1009MOL0     H36166   5.259   4.228   8.329 -1.7622 -1.0795 -1.8601
 1009MOL0     H36167   5.179   4.300   8.057 -0.7824  1.4081  1.0273
 1009MOL0     H36168   5.256   4.430   8.140  0.9459  1.2994  0.8818
 1009MOL0     H36169   5.440   4.429   7.975  1.3354 -2.2417 -1.7101
 1009MOL0     H36170   5.365   4.291   7.890 -0.0293 -2.1142  1.1683
 1009MOL0     H36171   5.346   4.515   7.784  0.9653 -1.5154  0.0766
 1009MOL0     H36172   5.238   4.579   7.915  3.3028  1.1329  0.9556
 1009MOL0     H36173   5.187   4.345   7.725  1.2853 -0.0129  1.3172
 1009MOL0     H36174   5.124   4.511   7.715 -2.1044  1.4271  2.9548
 1009MOL0     H36175   5.021   4.657   7.791  0.0079 -0.2259  0.8415
 1009MOL0     H36176   4.907   4.829   7.911 -3.3844  1.5046  3.7003
 1009MOL0     H36177   4.942   4.879   8.356  0.2956 -0.4668 -1.3113
 1009MOL0     H36178   4.946   5.000   8.567 -1.0383  1.8659 -0.9060
 1009MOL0     H36179   4.623   4.899   8.889 -0.5456  2.3843 -0.0071
 1009MOL0     H36180   4.747   4.792   8.840 -3.2465 -0.9295  0.7711
 1009MOL0     H36181   4.773   5.036   9.004 -1.0509 -0.1827  0.6854
 1009MOL0     H36182   4.758   4.876   9.073  0.1300  1.1665  0.8716
 1009MOL0     H36183   4.973   4.807   8.950 -0.2511 -0.1855  0.3291
 1009MOL0     H36184   5.000   4.978   8.937  1.9702 -3.0470 -1.3651
 1009MOL0     H36185   4.951   4.831   9.203 -1.1711  1.7095  0.5869
 1009MOL0     H36186   5.013   4.989   9.181 -0.4588 -0.3910  0.0700
 1009MOL0     H36187   5.206   4.907   9.051  3.9045  1.8829  3.3524
 1009MOL0     H36188   5.157   4.737   9.088  5.8094 -0.8899  0.9613
 1009MOL0     H36189   5.203   4.956   9.310  0.9285 -1.1465  3.1041
 1009MOL0     H36190   5.238   4.784   9.324  2.3266 -0.9081 -1.2305
 1009MOL0     H36191   5.425   4.938   9.329 -2.0475  0.3257 -0.0688
 1009MOL0     H36192   5.402   4.975   9.161 -0.7338 -2.4157 -2.5818
 1009MOL0     H36193   5.465   4.733   9.109 -1.5586  3.6172 -0.6116
 1009MOL0     H36194   5.590   4.832   9.170  2.1192 -3.2683 -2.3179
 1009MOL0     H36195   4.550   4.839   8.660 -0.3027 -2.4660 -0.7787
 1009MOL0     H36196   4.550   4.725   8.435 -4.1703  4.0385 -1.4244
 1009MOL0     H36197   4.758   4.531   8.191  1.1045 -0.3208  0.2786
 1009MOL0     H36198   4.891   4.361   8.071  2.9363 -1.2336 -1.0513
 1009MOL0     H36199   5.807   3.384   8.671  3.0449  2.9071 -1.6545
 1009MOL0     H36200   5.975   3.218   8.710 -0.3822 -2.6807  1.7169
 1009MOL0     H36201   6.187   2.997   8.832  0.0301 -0.8335  0.2565
 1009MOL0     H36202   6.303   2.788   8.805 -0.4190  0.4345 -1.2651
 1009MOL0     H36203   6.574   2.568   8.703  3.4091  1.6380 -0.4197
 1009MOL0     H36204   6.419   2.640   8.735  0.3899 -3.2848 -0.1092
 1009MOL0     H36205   6.525   2.487   8.910 -1.0269 -0.0071 -0.9578
 1009MOL0     H36206   6.457   2.640   8.981  0.4378 -1.0217  1.4073
 1009MOL0     H36207   6.679   2.718   9.036  1.0003  1.0464 -1.1626
 1009MOL0     H36208   6.754   2.600   8.932 -1.0984  0.8978  0.1903
 1009MOL0     H36209   6.661   2.418   9.063 -0.2410  0.6968 -2.5380
 1009MOL0     H36210   6.766   2.529   9.166  0.2595  1.4334 -1.0244
 1009MOL0     H36211   6.348   2.545   9.295  0.7703  0.2992 -1.9220
 1009MOL0     H36212   6.672   2.992   8.756 -0.5060 -0.9567 -0.5238
 1009MOL0     H36213   6.552   3.327   8.753 -2.4606 -1.4439  0.0498
 1009MOL0     H36214   6.618   3.283   8.905  0.5490  3.1097 -0.5955
 1009MOL0     H36215   6.690   3.216   8.753 -0.7967  2.4802 -2.4430
 1010MOL0     O36216   6.823  10.721   8.707 -0.6672 -0.1181 -0.5287
 1010MOL0     C36217   6.831  10.697   8.586 -0.3665  0.1900 -0.6017
 1010MOL0     O36218   6.907  10.601   8.536 -0.1901  0.6457  1.1172
 1010MOL0     C36219   7.003  10.539   8.618  0.2662  0.5493  0.3697
 1010MOL0     C36220   6.965  10.452   8.714 -0.0023 -1.2271 -0.1285
 1010MOL0     C36221   7.045  10.393   8.812  0.5577 -0.3575  0.0366
 1010MOL0     C36222   7.184  10.420   8.803  1.2431  0.2056 -0.7562
 1010MOL0     O36223   7.264  10.351   8.891  0.4504  0.6153  0.3626
 1010MOL0     C36224   7.224  10.372   9.027  0.0907 -0.5179 -0.8287
 1010MOL0     C36225   7.335  10.415   9.132 -0.2019 -0.0585  0.6513
 1010MOL0     C36226   7.468  10.348   9.105  0.1509  1.6882  0.1555
 1010MOL0     C36227   7.566  10.366   9.219  0.2387 -0.2632 -1.0692
 1010MOL0     C36228   7.708  10.293   9.206  0.6004 -0.0913 -0.0493
 1010MOL0     C36229   7.779  10.278   9.064 -0.5905  0.1832  0.0088
 1010MOL0     C36230   7.934  10.318   9.073 -0.3573  1.6093 -0.1194
 1010MOL0     C36231   8.020  10.253   9.191  1.3137  0.9586  0.2006
 1010MOL0     N36232   8.158  10.266   9.164 -0.4105 -0.4696 -0.6398
 1010MOL0     C36233   8.248  10.324   9.250 -0.1899  0.2769 -0.7433
 1010MOL0     C36234   8.372  10.278   9.211  0.5017 -0.6210 -1.0273
 1010MOL0     C36235   8.498  10.296   9.296  0.9113  1.0193  0.2056
 1010MOL0     C36236   8.553  10.428   9.315 -0.2992 -0.1635 -0.0082
 1010MOL0     C36237   8.492  10.507   9.437  0.4121 -0.0705 -0.2642
 1010MOL0     C36238   8.476  10.656   9.400 -0.8593 -0.6800 -0.8905
 1010MOL0     O36239   8.368  10.688   9.322  0.4254 -0.1830 -0.5513
 1010MOL0     C36240   8.245  10.660   9.382 -0.3098  0.0694 -0.3018
 1010MOL0     C36241   8.139  10.627   9.298  0.0580 -0.0028 -1.6468
 1010MOL0     C36242   8.006  10.605   9.349 -0.3432 -0.0885 -0.3608
 1010MOL0     C36243   7.989  10.619   9.488  0.7432 -0.3962 -0.5897
 1010MOL0     C36244   7.856  10.609   9.551 -0.7064  0.1415  0.9572
 1010MOL0     O36245   7.804  10.704   9.633  0.1150  0.3089  0.2785
 1010MOL0     C36246   7.680  10.693   9.696  0.6990  0.0672  1.3884
 1010MOL0     C36247   7.681  10.708   9.839 -0.2437  0.4084  0.4042
 1010MOL0     C36248   7.566  10.711   9.910  0.9635  0.1406 -0.1632
 1010MOL0     C36249   7.440  10.701   9.842 -0.0294  1.0983 -0.3047
 1010MOL0     O36250   7.330  10.728   9.920  0.2650 -0.3738 -1.0235
 1010MOL0     C36251   7.199  10.671   9.885 -0.2317  0.1369 -0.5320
 1010MOL0     C36252   7.089  10.705   9.988 -0.4898 -0.6358  0.4010
 1010MOL0     C36253   6.955  10.638   9.937  0.1915  0.2564  0.6063
 1010MOL0     C36254   6.855  10.600  10.040  0.8625 -0.8238 -0.0104
 1010MOL0     C36255   6.768  10.712  10.108  0.1548 -0.2657  0.0011
 1010MOL0     C36256   6.662  10.771  10.019 -0.2297  0.3099  0.2080
 1010MOL0     C36257   6.581  10.866  10.107  0.3653 -0.0070 -0.6797
 1010MOL0     C36258   6.447  10.911  10.037 -0.7393  0.5450 -0.5290
 1010MOL0    Cl36259   6.517  10.992   9.889 -0.1209  0.2747 -0.0452
 1010MOL0     C36260   7.434  10.697   9.698 -0.1621  0.7177 -0.0809
 1010MOL0     C36261   7.554  10.700   9.631  0.0578 -0.1535 -0.9623
 1010MOL0     O36262   7.792  10.514   9.512 -0.6309 -0.4596  0.7020
 1010MOL0     C36263   8.093  10.651   9.572  1.0885 -0.7648  1.0297
 1010MOL0     C36264   8.218  10.678   9.521  0.3967 -0.0214 -1.4865
 1010MOL0     N36265   8.349  10.216   9.087 -0.6176  1.3519  0.6871
 1010MOL0     N36266   8.224  10.205   9.059  1.2573 -0.5322 -0.4536
 1010MOL0     C36267   7.230  10.509   8.700  0.2171 -0.0046  0.1083
 1010MOL0     C36268   7.140  10.564   8.608  0.1946  0.0926 -0.1841
 1010MOL0     C36269   6.775  10.796   8.485 -0.4714  0.5063 -0.4936
 1010MOL0     C36270   6.641  10.834   8.523  0.2966  0.1146  0.5205
 1010MOL0     C36271   6.570  10.924   8.443  0.1373 -0.1424 -0.7956
 1010MOL0     C36272   6.626  10.985   8.327 -0.5121 -0.3608 -0.5351
 1010MOL0     O36273   6.561  11.075   8.250 -0.5774 -0.2568 -0.5899
 1010MOL0     C36274   6.434  11.128   8.279  0.5738  0.7173 -0.0519
 1010MOL0     C36275   6.430  11.277   8.235  1.0603  0.9852 -0.4002
 1010MOL0     C36276   6.444  11.312   8.086 -0.0690 -0.2645  0.2174
 1010MOL0     C36277   6.356  11.436   8.050 -0.0075  0.5528  0.4280
 1010MOL0     C36278   6.378  11.473   7.910 -0.2365  0.5561 -0.2231
 1010MOL0     C36279   6.411  11.517   7.805 -0.7245 -0.8194  0.5048
 1010MOL0     C36280   6.763  10.959   8.303 -0.1552  0.5935  0.2199
 1010MOL0     C36281   6.832  10.854   8.371 -0.3601  0.7296 -1.3302
 1010MOL0     C36282   6.973  10.819   8.337  0.1066  0.8722 -0.7166
 1010MOL0     H36283   6.857  10.449   8.726 -0.2555  1.9613 -0.7030
 1010MOL0     H36284   6.989  10.340   8.887  2.4821 -0.2454  1.6268
 1010MOL0     H36285   7.148  10.449   9.039  1.2600  0.8867 -2.0314
 1010MOL0     H36286   7.173  10.282   9.061  2.5173 -0.7588  2.7931
 1010MOL0     H36287   7.300  10.399   9.234 -1.5107 -3.5202 -0.1895
 1010MOL0     H36288   7.353  10.521   9.107  5.0868 -1.1103 -1.4283
 1010MOL0     H36289   7.525  10.380   9.017  3.8953  1.4296  2.2356
 1010MOL0     H36290   7.445  10.242   9.088 -2.2316  1.8734  1.8322
 1010MOL0     H36291   7.579  10.474   9.231 -0.4756 -0.3434  0.7280
 1010MOL0     H36292   7.531  10.336   9.318 -0.8175  0.9759 -1.0468
 1010MOL0     H36293   7.781  10.335   9.276  2.3857 -0.3221 -1.6903
 1010MOL0     H36294   7.696  10.189   9.235  1.1574 -0.0772  0.2381
 1010MOL0     H36295   7.765  10.176   9.027  2.9664 -0.6538  0.6510
 1010MOL0     H36296   7.734  10.343   8.988  1.5800 -0.1857 -1.6756
 1010MOL0     H36297   7.960  10.422   9.094  4.6395  0.5753  0.0838
 1010MOL0     H36298   7.973  10.289   8.975 -0.9389 -1.8235  0.5377
 1010MOL0     H36299   7.990  10.290   9.289 -1.3715 -3.9563  1.5845
 1010MOL0     H36300   8.002  10.146   9.210  1.9692  0.8133  0.0520
 1010MOL0     H36301   8.221  10.377   9.341 -2.5547 -0.0585 -1.1886
 1010MOL0     H36302   8.465  10.253   9.391 -1.8305 -1.5462 -1.7202
 1010MOL0     H36303   8.575  10.237   9.246 -0.7864 -2.3413  1.2711
 1010MOL0     H36304   8.662  10.425   9.327  0.2155  5.6694 -0.3381
 1010MOL0     H36305   8.545  10.482   9.220 -0.6851 -2.8085 -1.5693
 1010MOL0     H36306   8.561  10.497   9.522 -3.0927  0.6056  2.9305
 1010MOL0     H36307   8.393  10.469   9.463  1.1405 -0.7837  1.7205
 1010MOL0     H36308   8.566  10.704   9.361 -1.1902 -0.3171 -1.2117
 1010MOL0     H36309   8.466  10.719   9.489  1.2475  0.7366 -1.5715
 1010MOL0     H36310   8.156  10.619   9.191 -1.2415  2.4867 -2.1110
 1010MOL0     H36311   7.918  10.591   9.287 -0.8360  0.1668  0.2694
 1010MOL0     H36312   7.778  10.707   9.888 -0.4725 -1.3755  0.8822
 1010MOL0     H36313   7.566  10.724  10.018 -0.9943  0.9195 -0.2076
 1010MOL0     H36314   7.171  10.706   9.785 -1.9112  5.6759  1.4982
 1010MOL0     H36315   7.210  10.562   9.883 -0.5890  0.0886 -0.0203
 1010MOL0     H36316   7.126  10.681  10.089  3.0182 -2.2538 -1.1006
 1010MOL0     H36317   7.088  10.814   9.978  0.2631 -0.6778 -0.2845
 1010MOL0     H36318   6.916  10.713   9.868  1.4857  0.4724  0.0777
 1010MOL0     H36319   6.991  10.544   9.894  1.0006  0.5444  0.6358
 1010MOL0     H36320   6.897  10.543  10.123 -1.3153 -2.8344 -0.1673
 1010MOL0     H36321   6.780  10.534   9.994  0.6126 -0.2396 -0.4523
 1010MOL0     H36322   6.833  10.788  10.151  0.8163 -0.5617 -0.4563
 1010MOL0     H36323   6.711  10.667  10.190  0.4032  0.4805  0.5908
 1010MOL0     H36324   6.687  10.826   9.929 -1.3970 -1.4017 -1.2293
 1010MOL0     H36325   6.597  10.695   9.975  0.9981 -0.6946  0.0684
 1010MOL0     H36326   6.641  10.958  10.109  0.2467  0.0828  2.1360
 1010MOL0     H36327   6.578  10.829  10.209  1.3538  1.2697 -0.1592
 1010MOL0     H36328   6.386  10.822  10.022 -2.1914  0.9675  2.2066
 1010MOL0     H36329   6.387  10.991  10.083 -3.5636 -1.2065 -0.9159
 1010MOL0     H36330   7.343  10.699   9.638  0.4849 -0.2953 -1.1616
 1010MOL0     H36331   7.566  10.711   9.523  1.5233  0.5112 -0.7617
 1010MOL0     H36332   8.075  10.663   9.678  2.0332 -0.7455  1.1974
 1010MOL0     H36333   8.294  10.709   9.592 -1.3829 -0.6976  0.8351
 1010MOL0     H36334   7.331  10.547   8.700 -0.6119  2.4301 -1.4720
 1010MOL0     H36335   7.167  10.628   8.525  0.0138  0.0258 -0.2958
 1010MOL0     H36336   6.589  10.791   8.608 -2.8601 -0.1408 -1.3797
 1010MOL0     H36337   6.464  10.938   8.462  0.2602  1.5407 -1.1847
 1010MOL0     H36338   6.418  11.139   8.387  0.9118  2.0415 -0.1199
 1010MOL0     H36339   6.353  11.075   8.229 -1.1954  1.1949  2.1182
 1010MOL0     H36340   6.511  11.331   8.284 -0.1856  2.8094 -0.2606
 1010MOL0     H36341   6.331  11.305   8.272  1.6525  3.9801 -0.8299
 1010MOL0     H36342   6.410  11.230   8.022 -1.1304  1.1791 -1.1280
 1010MOL0     H36343   6.545  11.345   8.061 -1.2404  0.5160 -4.2849
 1010MOL0     H36344   6.257  11.395   8.074  0.4579 -0.9390 -0.1171
 1010MOL0     H36345   6.380  11.518   8.119  0.0065  0.1189  0.9412
 1010MOL0     H36346   6.433  11.555   7.708 -2.8982  1.4901  0.8059
 1010MOL0     H36347   6.817  11.009   8.224 -0.3042  0.0472 -0.2344
 1010MOL0     H36348   6.980  10.734   8.268  3.9250 -1.5723  2.2269
 1010MOL0     H36349   7.019  10.906   8.289  0.8377  1.1431  0.4562
 1010MOL0     H36350   7.038  10.789   8.420  1.4242  1.2306 -1.5825
 1011MOL0     O36351   8.751   3.543   5.057 -0.8432 -0.1916 -0.5600
 1011MOL0     C36352   8.752   3.493   5.170  0.0172  0.5568 -0.0757
 1011MOL0     O36353   8.760   3.360   5.197 -0.1934  0.5035  0.8778
 1011MOL0     C36354   8.711   3.278   5.098 -0.4240 -0.3675 -0.4187
 1011MOL0     C36355   8.576   3.283   5.050  0.1083 -0.0270 -0.3575
 1011MOL0     C36356   8.531   3.209   4.937 -0.1632  0.4655  0.4738
 1011MOL0     C36357   8.618   3.124   4.872  0.0208 -0.0931 -0.6025
 1011MOL0     O36358   8.576   3.057   4.768 -0.2688 -0.1223  0.3862
 1011MOL0     C36359   8.441   3.050   4.726  0.0503 -0.3976 -0.3700
 1011MOL0     C36360   8.436   2.982   4.575  0.2020 -0.2322  0.3540
 1011MOL0     C36361   8.290   2.993   4.522 -0.5949  0.8489 -0.2426
 1011MOL0     C36362   8.217   2.854   4.552  0.0455  0.0567 -0.6216
 1011MOL0     C36363   8.071   2.858   4.508  0.5312 -0.2265  0.1358
 1011MOL0     C36364   8.059   2.876   4.351  0.2871  0.4996 -0.6771
 1011MOL0     C36365   7.919   2.916   4.306 -0.2300 -0.1387  0.1206
 1011MOL0     C36366   7.816   2.807   4.332  0.4878 -0.0084 -0.4880
 1011MOL0     N36367   7.679   2.867   4.339  0.7318 -0.3424 -0.5379
 1011MOL0     C36368   7.638   2.950   4.435 -1.1964 -0.0566 -0.2079
 1011MOL0     C36369   7.505   2.957   4.430 -0.3465 -0.9485  0.7503
 1011MOL0     C36370   7.404   3.038   4.491 -0.2383  0.0553 -0.1131
 1011MOL0     C36371   7.460   3.082   4.625  0.1690  0.3699  0.7130
 1011MOL0     C36372   7.484   2.968   4.730  0.3425  1.3621  1.3571
 1011MOL0     C36373   7.520   3.035   4.859 -0.3297  0.4442 -1.4830
 1011MOL0     O36374   7.633   3.119   4.844 -0.6511 -0.0669 -0.8185
 1011MOL0     C36375   7.689   3.183   4.954  0.5257  0.8734 -1.3805
 1011MOL0     C36376   7.803   3.256   4.926 -0.7910  0.0489  0.0283
 1011MOL0     C36377   7.869   3.324   5.026 -0.2694 -0.2832 -0.5117
 1011MOL0     C36378   7.822   3.332   5.157  0.8894 -1.0418 -0.9101
 1011MOL0     C36379   7.870   3.442   5.242  0.2397 -0.1913  0.2479
 1011MOL0     O36380   7.816   3.454   5.368  0.2959  0.8024 -0.2406
 1011MOL0     C36381   7.851   3.551   5.456 -0.5437 -0.1228 -0.0249
 1011MOL0     C36382   7.977   3.610   5.473 -0.2757 -0.2651 -0.6565
 1011MOL0     C36383   8.005   3.691   5.581 -0.6947 -0.6820  0.3930
 1011MOL0     C36384   7.903   3.734   5.669 -0.3479 -0.0784  0.3460
 1011MOL0     O36385   7.930   3.815   5.769 -0.4042  0.4357 -0.1978
 1011MOL0     C36386   7.986   3.737   5.879  1.1792  0.1224  0.3664
 1011MOL0     C36387   8.109   3.788   5.948 -0.9072 -0.0908  0.3558
 1011MOL0     C36388   8.220   3.810   5.852  0.0281 -0.8779  0.3657
 1011MOL0     C36389   8.362   3.840   5.904 -0.6065  0.0644 -0.4288
 1011MOL0     C36390   8.350   3.943   6.015 -1.6518 -0.4080 -1.0721
 1011MOL0     C36391   8.485   4.004   6.050  0.5555 -1.2213 -1.1014
 1011MOL0     C36392   8.465   4.146   6.129  0.1979  0.4113 -0.0458
 1011MOL0     C36393   8.485   4.109   6.279  0.2230  0.4473 -0.1418
 1011MOL0    Cl36394   8.488   4.264   6.369 -0.7704  0.4789 -0.2409
 1011MOL0     C36395   7.775   3.668   5.650 -0.3423 -0.4331  0.3987
 1011MOL0     C36396   7.752   3.586   5.546  0.2069  0.1933 -0.1154
 1011MOL0     O36397   7.955   3.518   5.190  0.0941  0.6515  0.1996
 1011MOL0     C36398   7.706   3.256   5.190 -1.1141  1.0363  0.2164
 1011MOL0     C36399   7.645   3.179   5.091 -0.4462 -0.0309  0.1262
 1011MOL0     N36400   7.463   2.891   4.317 -0.5354 -0.1029 -0.3372
 1011MOL0     N36401   7.570   2.828   4.267 -0.0987 -0.6994  0.4990
 1011MOL0     C36402   8.745   3.107   4.927  0.0268 -0.8831 -0.2982
 1011MOL0     C36403   8.794   3.183   5.026  0.1150 -0.1344 -0.5410
 1011MOL0     C36404   8.768   3.586   5.282 -0.6545 -0.1671 -0.3736
 1011MOL0     C36405   8.779   3.525   5.409  0.7409  0.6587 -0.8769
 1011MOL0     C36406   8.785   3.600   5.525 -0.0981 -0.0827  0.1566
 1011MOL0     C36407   8.784   3.739   5.525  0.7632 -0.0607  0.8320
 1011MOL0     O36408   8.769   3.824   5.627 -0.4629 -0.6960  0.0852
 1011MOL0     C36409   8.776   3.769   5.759  0.4656  0.4569  0.1882
 1011MOL0     C36410   8.835   3.854   5.870  0.2802 -0.6131  0.1351
 1011MOL0     C36411   8.989   3.887   5.865  0.1789 -0.0622 -0.1306
 1011MOL0     C36412   9.086   3.765   5.896  0.0676  0.6592 -0.1874
 1011MOL0     C36413   9.077   3.742   6.041  0.9082  0.5875  0.3052
 1011MOL0     C36414   9.097   3.716   6.154  1.0007 -0.2073  1.0319
 1011MOL0     C36415   8.776   3.800   5.400 -0.0702 -0.2264  0.2441
 1011MOL0     C36416   8.755   3.728   5.282  0.2306  0.5786  0.0112
 1011MOL0     C36417   8.735   3.816   5.160 -0.3100 -0.2495  0.6629
 1011MOL0     H36418   8.506   3.356   5.090 -0.6784 -0.6282 -0.6096
 1011MOL0     H36419   8.425   3.216   4.913  0.1531 -0.3124 -1.3508
 1011MOL0     H36420   8.377   2.989   4.791 -0.2605 -1.4025 -1.5841
 1011MOL0     H36421   8.391   3.148   4.729  1.6592  0.4876 -1.4135
 1011MOL0     H36422   8.480   2.883   4.560  0.1985 -0.2314  0.3389
 1011MOL0     H36423   8.491   3.053   4.512  2.3355 -2.3382 -0.2985
 1011MOL0     H36424   8.302   3.017   4.416  2.1360  1.4161  0.1110
 1011MOL0     H36425   8.229   3.072   4.568 -0.6297  0.3545  0.5878
 1011MOL0     H36426   8.255   2.772   4.490 -1.8673 -0.9316 -0.5766
 1011MOL0     H36427   8.223   2.837   4.660 -0.9136  2.1203 -0.1901
 1011MOL0     H36428   8.020   2.768   4.542 -2.3996  1.8331  1.6278
 1011MOL0     H36429   8.016   2.931   4.568 -0.0414 -0.3829 -0.1915
 1011MOL0     H36430   8.121   2.958   4.316 -0.7040  1.0141 -1.2569
 1011MOL0     H36431   8.085   2.780   4.304  1.2940  0.4523 -0.0611
 1011MOL0     H36432   7.922   2.930   4.198 -1.6963 -4.4204 -0.6377
 1011MOL0     H36433   7.889   3.011   4.351 -1.0000 -0.7666  0.9730
 1011MOL0     H36434   7.814   2.737   4.248 -1.7137 -1.6678  0.8407
 1011MOL0     H36435   7.832   2.743   4.419 -2.3008 -2.6890 -1.7353
 1011MOL0     H36436   7.703   2.994   4.510  0.5421 -0.7186 -1.2725
 1011MOL0     H36437   7.378   3.120   4.422 -0.3139  1.2268  1.2568
 1011MOL0     H36438   7.315   2.974   4.489  0.6868 -1.2399 -0.9933
 1011MOL0     H36439   7.549   3.145   4.612 -0.1460  0.6090 -0.4129
 1011MOL0     H36440   7.381   3.144   4.669  0.2865  2.3983 -1.6692
 1011MOL0     H36441   7.575   2.920   4.693  0.3139  1.9830  0.4433
 1011MOL0     H36442   7.406   2.891   4.735  2.4671 -0.9397  0.6458
 1011MOL0     H36443   7.553   2.961   4.932 -1.6940  1.4508  0.2486
 1011MOL0     H36444   7.430   3.087   4.895  0.1512  2.1944 -2.6513
 1011MOL0     H36445   7.859   3.252   4.833  0.8163 -0.1208  0.9598
 1011MOL0     H36446   7.961   3.378   5.005  1.1546 -2.3361  0.1646
 1011MOL0     H36447   8.059   3.589   5.405 -0.8743  0.0576 -1.4982
 1011MOL0     H36448   8.104   3.729   5.603 -0.8744  1.4674 -2.0545
 1011MOL0     H36449   7.918   3.721   5.963 -2.4805  2.1068 -1.9657
 1011MOL0     H36450   8.009   3.634   5.850  1.7320  0.4806 -0.5190
 1011MOL0     H36451   8.087   3.883   5.998 -1.8678 -0.0395 -0.1422
 1011MOL0     H36452   8.142   3.718   6.026 -0.3052  0.3418  0.5007
 1011MOL0     H36453   8.233   3.730   5.779  0.1099 -1.7758  1.3386
 1011MOL0     H36454   8.193   3.899   5.794  2.9163 -0.4510 -0.5313
 1011MOL0     H36455   8.431   3.874   5.826  1.7362  0.1436  1.5560
 1011MOL0     H36456   8.414   3.756   5.951  0.8034 -0.5541 -2.9011
 1011MOL0     H36457   8.296   3.908   6.103 -1.4559 -4.0272 -2.2485
 1011MOL0     H36458   8.293   4.019   5.960 -1.0708  2.0093  1.4230
 1011MOL0     H36459   8.545   3.939   6.115 -0.8198  0.1310  1.7492
 1011MOL0     H36460   8.542   4.020   5.958 -0.4960 -1.6163 -1.8409
 1011MOL0     H36461   8.366   4.191   6.112 -0.2917 -0.8088 -0.4952
 1011MOL0     H36462   8.549   4.205   6.093  0.9419 -1.3725 -1.3828
 1011MOL0     H36463   8.406   4.045   6.319  1.0809 -0.8387 -0.4471
 1011MOL0     H36464   8.584   4.067   6.300  1.1828  3.4535  2.0440
 1011MOL0     H36465   7.701   3.689   5.726  1.2822 -0.8576  2.1550
 1011MOL0     H36466   7.663   3.523   5.546 -0.6996  1.4304 -0.1423
 1011MOL0     H36467   7.666   3.270   5.290 -0.6944 -2.6313  1.0356
 1011MOL0     H36468   7.559   3.123   5.126  0.3838 -0.1357  2.0984
 1011MOL0     H36469   8.815   3.031   4.894 -1.7676 -2.7695  0.0247
 1011MOL0     H36470   8.901   3.176   5.041  0.2652 -1.0228 -1.7904
 1011MOL0     H36471   8.778   3.417   5.417  2.3505  0.7206  0.9883
 1011MOL0     H36472   8.777   3.546   5.619  1.2264  0.9477  0.9098
 1011MOL0     H36473   8.839   3.679   5.765  0.4233  0.5068  3.3830
 1011MOL0     H36474   8.677   3.729   5.783  0.4471 -1.1333 -2.1957
 1011MOL0     H36475   8.826   3.809   5.970  1.9897 -1.8441 -0.2251
 1011MOL0     H36476   8.770   3.941   5.871  1.6630  0.4728 -1.1212
 1011MOL0     H36477   9.002   3.971   5.933 -1.8708  0.0944  0.1522
 1011MOL0     H36478   9.014   3.923   5.765 -0.8817  1.9935  0.3012
 1011MOL0     H36479   9.043   3.678   5.847 -1.2791  0.7569  0.7698
 1011MOL0     H36480   9.187   3.788   5.860  0.2487  1.8910  1.0191
 1011MOL0     H36481   9.095   3.676   6.253  1.0306 -1.7187  0.4383
 1011MOL0     H36482   8.780   3.908   5.396 -0.2532 -0.2220  0.1585
 1011MOL0     H36483   8.833   3.840   5.118 -0.4324 -3.1678 -1.6069
 1011MOL0     H36484   8.665   3.779   5.084 -0.2575  2.5115 -0.8560
 1011MOL0     H36485   8.681   3.904   5.197  0.8227  0.9414 -0.4005
 1012MOL0     O36486   4.648   6.301   9.794 -0.0646 -0.3331  0.4574
 1012MOL0     C36487   4.640   6.187   9.840 -0.0631  0.5565  0.1155
 1012MOL0     O36488   4.755   6.123   9.868  0.1476  0.2172  0.4981
 1012MOL0     C36489   4.883   6.177   9.875  0.2877  0.7963 -0.2179
 1012MOL0     C36490   4.900   6.304   9.925 -0.6509  0.6390 -0.8109
 1012MOL0     C36491   5.024   6.367   9.905 -0.0995  0.3883  0.5717
 1012MOL0     C36492   5.136   6.299   9.848  0.2639 -0.0497  0.1750
 1012MOL0     O36493   5.257   6.367   9.844  0.1715  0.2053 -0.0239
 1012MOL0     C36494   5.372   6.283   9.842 -0.7355  0.3571  0.0035
 1012MOL0     C36495   5.494   6.347   9.906  0.3485 -0.0929  0.1412
 1012MOL0     C36496   5.641   6.298   9.868  0.1030  0.3568  0.1993
 1012MOL0     C36497   5.722   6.395   9.782 -0.5103  0.1252  0.3189
 1012MOL0     C36498   5.870   6.355   9.773  0.0726  0.8027 -0.2040
 1012MOL0     C36499   5.943   6.463   9.694 -0.4408 -0.3551  0.4586
 1012MOL0     C36500   6.092   6.481   9.727  0.5059 -0.0539  0.1697
 1012MOL0     C36501   6.170   6.559   9.609 -0.0599  0.5409 -0.3246
 1012MOL0     N36502   6.103   6.681   9.554 -0.1509  0.4822 -0.7222
 1012MOL0     C36503   6.111   6.811   9.602  0.3403 -0.2647 -0.7237
 1012MOL0     C36504   6.043   6.884   9.521 -0.1307  0.0462 -0.6897
 1012MOL0     C36505   6.020   7.033   9.519  0.6923  0.4750  0.2754
 1012MOL0     C36506   5.990   7.085   9.661  0.5493 -0.3386 -0.1177
 1012MOL0     C36507   5.883   6.994   9.718  0.4640 -0.7719 -0.2077
 1012MOL0     C36508   5.816   7.057   9.849  0.0237  0.3685  0.0001
 1012MOL0     O36509   5.771   7.184   9.832  0.8828  0.3176 -0.1379
 1012MOL0     C36510   5.671   7.220   9.737  0.5838 -0.2868 -0.3087
 1012MOL0     C36511   5.640   7.357   9.737  0.2284  1.1730  0.0237
 1012MOL0     C36512   5.534   7.407   9.676  1.0050 -1.2718 -0.4415
 1012MOL0     C36513   5.453   7.329   9.580 -0.0674  0.5006 -0.0206
 1012MOL0     C36514   5.343   7.396   9.504 -0.5741  0.0698  0.0685
 1012MOL0     O36515   5.324   7.532   9.525  0.5999 -0.2029  0.4625
 1012MOL0     C36516   5.269   7.624   9.439  0.4396  0.0703  1.1482
 1012MOL0     C36517   5.255   7.602   9.299  0.7825  0.9789 -0.3827
 1012MOL0     C36518   5.206   7.696   9.213 -0.3505 -1.0593  0.1346
 1012MOL0     C36519   5.147   7.814   9.274  0.2451  1.1091  0.2817
 1012MOL0     O36520   5.080   7.917   9.214 -0.2532 -0.0233 -1.1191
 1012MOL0     C36521   5.061   7.921   9.072 -0.0726 -0.3873  1.1100
 1012MOL0     C36522   5.040   8.063   9.019  0.3372 -0.0226  0.9599
 1012MOL0     C36523   4.922   8.136   9.086 -0.0432 -0.3540 -0.7567
 1012MOL0     C36524   4.903   8.278   9.031  0.4495 -0.8735 -0.0226
 1012MOL0     C36525   4.801   8.352   9.113 -0.3510  0.4337 -0.1672
 1012MOL0     C36526   4.757   8.475   9.027 -0.1391  1.1483 -0.1030
 1012MOL0     C36527   4.613   8.521   9.055  0.2637  0.6308  0.4041
 1012MOL0     C36528   4.595   8.648   8.973 -0.0116 -1.0717 -0.8510
 1012MOL0    Cl36529   4.537   8.598   8.811  0.4573 -0.0850 -0.1072
 1012MOL0     C36530   5.156   7.834   9.410 -0.2637 -0.3255 -0.8892
 1012MOL0     C36531   5.213   7.736   9.491  0.3660  0.0214  0.1126
 1012MOL0     O36532   5.283   7.331   9.408 -0.3348 -0.1578  0.7074
 1012MOL0     C36533   5.485   7.189   9.573  0.4692 -0.1405 -0.7119
 1012MOL0     C36534   5.585   7.135   9.659 -0.1275 -0.2645 -0.1183
 1012MOL0     N36535   5.990   6.808   9.422 -0.1524 -0.2464 -0.4995
 1012MOL0     N36536   6.025   6.689   9.442  0.0061  0.3131  0.1948
 1012MOL0     C36537   5.118   6.164   9.820 -0.1243 -0.4412  0.7062
 1012MOL0     C36538   4.993   6.111   9.825  1.2522  0.4616  0.4731
 1012MOL0     C36539   4.524   6.110   9.814 -0.4097 -0.8422 -0.2723
 1012MOL0     C36540   4.536   5.975   9.841 -0.4525  0.5671 -0.3818
 1012MOL0     C36541   4.434   5.890   9.801  0.2088  0.4772 -0.4362
 1012MOL0     C36542   4.320   5.935   9.742 -1.0997 -1.0251 -0.1890
 1012MOL0     O36543   4.227   5.844   9.711 -0.7455 -0.1661  0.3936
 1012MOL0     C36544   4.089   5.888   9.735  0.3210 -0.4213  0.1683
 1012MOL0     C36545   4.000   5.768   9.742 -0.6136  0.4526 -0.7907
 1012MOL0     C36546   3.971   5.702   9.611 -0.4108 -0.0263  0.7052
 1012MOL0     C36547   4.085   5.654   9.526  0.3672 -0.2555  0.5016
 1012MOL0     C36548   4.050   5.548   9.429  0.8381  0.4250 -1.2212
 1012MOL0     C36549   4.045   5.463   9.340  0.1034  0.9962  0.1344
 1012MOL0     C36550   4.301   6.073   9.715 -1.4981 -0.1408  1.1462
 1012MOL0     C36551   4.399   6.162   9.757  0.5718 -0.3504 -0.8675
 1012MOL0     C36552   4.376   6.304   9.709 -0.0757  0.3185  1.0148
 1012MOL0     H36553   4.817   6.354   9.974 -0.8192 -1.0519  0.7448
 1012MOL0     H36554   5.028   6.469   9.943 -1.7684  0.3479  0.9658
 1012MOL0     H36555   5.352   6.187   9.891 -4.7326  0.5009 -1.0562
 1012MOL0     H36556   5.415   6.252   9.746  2.6869  0.5262  1.3414
 1012MOL0     H36557   5.486   6.348  10.015  0.7352 -1.9859  0.2224
 1012MOL0     H36558   5.483   6.454   9.885  0.8816 -0.5713 -2.9637
 1012MOL0     H36559   5.632   6.211   9.803  0.2672  0.6113 -0.1728
 1012MOL0     H36560   5.703   6.283   9.957 -1.1767  0.9823  1.2242
 1012MOL0     H36561   5.687   6.395   9.678  3.0534 -2.6823 -1.1062
 1012MOL0     H36562   5.720   6.498   9.817  0.3780  2.5192 -5.5146
 1012MOL0     H36563   5.908   6.341   9.875  1.4636  0.4245 -0.7374
 1012MOL0     H36564   5.869   6.255   9.728  2.3007  0.6380  0.0019
 1012MOL0     H36565   5.931   6.432   9.590  3.0603  0.1170 -0.1970
 1012MOL0     H36566   5.898   6.558   9.723  2.4593  0.7016  1.8998
 1012MOL0     H36567   6.142   6.384   9.721 -1.6133 -1.1674 -0.6199
 1012MOL0     H36568   6.129   6.544   9.809  0.7317  0.6558 -0.4658
 1012MOL0     H36569   6.268   6.593   9.644 -2.3249  5.4491  2.4527
 1012MOL0     H36570   6.200   6.487   9.533 -2.6595 -1.2133  0.1901
 1012MOL0     H36571   6.167   6.844   9.689  1.7060 -0.3930 -1.5321
 1012MOL0     H36572   6.110   7.070   9.470  2.7186 -3.7467  0.3005
 1012MOL0     H36573   5.929   7.055   9.463  1.5633  0.1212 -1.3586
 1012MOL0     H36574   6.068   7.096   9.737 -0.7197 -1.9549  1.5159
 1012MOL0     H36575   5.955   7.186   9.639 -1.8261 -1.2942 -1.0069
 1012MOL0     H36576   5.923   6.897   9.748  2.6317 -0.5774 -2.2065
 1012MOL0     H36577   5.810   6.991   9.636  1.5803  2.0447 -1.4351
 1012MOL0     H36578   5.888   7.062   9.931  0.4023  2.6707 -0.4169
 1012MOL0     H36579   5.731   6.989   9.865  0.0161  0.5844  0.9240
 1012MOL0     H36580   5.700   7.419   9.802 -0.5793 -0.0273  2.0246
 1012MOL0     H36581   5.506   7.512   9.671  1.0429 -1.2062  0.5454
 1012MOL0     H36582   5.305   7.520   9.246  0.3183  1.1747 -1.1408
 1012MOL0     H36583   5.189   7.674   9.108 -0.5882 -0.6539  0.0847
 1012MOL0     H36584   5.150   7.883   9.022  0.3491 -1.9040  2.8841
 1012MOL0     H36585   4.984   7.851   9.040  0.2336 -0.2506  0.0532
 1012MOL0     H36586   5.131   8.122   9.035 -0.9156  2.1654  0.3860
 1012MOL0     H36587   5.031   8.069   8.910  1.8128 -1.1193  0.7463
 1012MOL0     H36588   4.831   8.078   9.076  0.3766 -1.0000 -0.8654
 1012MOL0     H36589   4.938   8.148   9.194 -0.5647  2.2534 -0.9008
 1012MOL0     H36590   4.867   8.271   8.928 -1.0750  0.2494  0.4143
 1012MOL0     H36591   4.997   8.334   9.041 -0.1599  0.5983 -1.9942
 1012MOL0     H36592   4.843   8.376   9.211  0.1086 -2.8364  0.5369
 1012MOL0     H36593   4.710   8.294   9.130  1.0569 -2.4981 -1.9437
 1012MOL0     H36594   4.838   8.549   9.033  0.5230  0.3959  0.4083
 1012MOL0     H36595   4.748   8.445   8.922  2.2915  1.2246 -0.4000
 1012MOL0     H36596   4.592   8.526   9.163  2.0234 -1.4022  0.9088
 1012MOL0     H36597   4.540   8.454   9.011  1.7475 -0.6949 -0.1146
 1012MOL0     H36598   4.520   8.715   9.016 -0.8625 -2.7351  0.3731
 1012MOL0     H36599   4.688   8.706   8.981  0.7027 -2.4045  1.5330
 1012MOL0     H36600   5.132   7.928   9.458  0.3124  0.3371 -1.8613
 1012MOL0     H36601   5.210   7.750   9.599 -2.2380  0.7319  0.0101
 1012MOL0     H36602   5.423   7.131   9.506 -3.5543 -0.3900  2.7852
 1012MOL0     H36603   5.598   7.027   9.659 -1.2958 -0.4207 -0.5046
 1012MOL0     H36604   5.181   6.102   9.757 -1.1165 -0.5117 -0.2366
 1012MOL0     H36605   4.971   6.011   9.789 -1.8341  0.3494  2.2289
 1012MOL0     H36606   4.615   5.937   9.906  0.1794  0.8521 -0.9720
 1012MOL0     H36607   4.433   5.786   9.832  3.1584  0.6931  0.6980
 1012MOL0     H36608   4.055   5.953   9.654 -0.0187 -1.3659 -0.4748
 1012MOL0     H36609   4.082   5.952   9.823 -1.9284 -0.5313  0.1173
 1012MOL0     H36610   3.906   5.795   9.790 -1.3481 -3.6558  0.4823
 1012MOL0     H36611   4.045   5.691   9.805 -0.6221  0.2364 -1.0424
 1012MOL0     H36612   3.906   5.760   9.544  0.8934  1.3309  0.5808
 1012MOL0     H36613   3.912   5.615   9.643 -0.3825  1.5347  5.9787
 1012MOL0     H36614   4.134   5.735   9.471 -0.3216  0.7123  1.3025
 1012MOL0     H36615   4.160   5.603   9.588 -0.2128 -0.6714  0.8696
 1012MOL0     H36616   4.041   5.381   9.272 -1.1241  0.2292  1.0829
 1012MOL0     H36617   4.210   6.105   9.666 -1.0485  0.9897  1.0207
 1012MOL0     H36618   4.270   6.327   9.697  0.4195  1.9434 -0.6944
 1012MOL0     H36619   4.418   6.371   9.785  1.2937 -0.6061  1.1214
 1012MOL0     H36620   4.429   6.307   9.614  1.1369  2.1220  1.6980
 1013MOL0     O36621  10.977   6.280   1.498  0.2533  0.4846  0.3830
 1013MOL0     C36622  11.079   6.228   1.449  0.0585 -0.0512 -0.4658
 1013MOL0     O36623  11.144   6.274   1.340  0.0612  0.9535 -0.2969
 1013MOL0     C36624  11.088   6.333   1.231 -1.1357  0.7081  0.5457
 1013MOL0     C36625  10.959   6.299   1.189  0.7890 -0.1799 -1.0847
 1013MOL0     C36626  10.894   6.365   1.084  0.0145  0.2820  0.1205
 1013MOL0     C36627  10.955   6.473   1.018 -0.3639 -0.0428  0.1925
 1013MOL0     O36628  10.895   6.558   0.915 -0.7509 -0.2828 -0.5164
 1013MOL0     C36629  10.959   6.653   0.836  0.2856 -0.7236  0.3528
 1013MOL0     C36630  10.863   6.706   0.727 -0.5472  1.6372 -0.3109
 1013MOL0     C36631  10.857   6.609   0.605 -0.4224  0.3028  0.0051
 1013MOL0     C36632  10.859   6.454   0.628 -0.1755  0.6613 -0.5325
 1013MOL0     C36633  10.707   6.393   0.640  0.1493 -0.5735  0.6395
 1013MOL0     C36634  10.701   6.240   0.632 -0.6172  0.1048 -0.0375
 1013MOL0     C36635  10.557   6.179   0.628 -0.1351 -1.0521  0.1796
 1013MOL0     C36636  10.459   6.268   0.710 -0.2112 -0.4803 -0.7275
 1013MOL0     N36637  10.500   6.281   0.856  1.0221  0.6538  0.0393
 1013MOL0     C36638  10.455   6.382   0.941 -0.0782 -0.3365 -0.2723
 1013MOL0     C36639  10.517   6.343   1.051  0.0940  0.3357 -1.1376
 1013MOL0     C36640  10.524   6.420   1.189 -0.2153 -0.7508  1.2433
 1013MOL0     C36641  10.608   6.550   1.183 -0.5548  0.2301 -0.4588
 1013MOL0     C36642  10.659   6.600   1.319  0.6394  0.8090  0.2256
 1013MOL0     C36643  10.782   6.686   1.304  0.0543 -0.3547  0.4591
 1013MOL0     O36644  10.755   6.796   1.207 -0.7242  0.1775 -0.4657
 1013MOL0     C36645  10.714   6.913   1.255 -0.2084 -0.0057 -0.5665
 1013MOL0     C36646  10.723   7.017   1.159  1.1089  0.7656  0.3438
 1013MOL0     C36647  10.652   7.135   1.186 -0.6655  0.5552 -0.3441
 1013MOL0     C36648  10.576   7.148   1.310 -0.0798  0.4292  0.7874
 1013MOL0     C36649  10.498   7.279   1.338 -0.7301 -0.2299 -0.1483
 1013MOL0     O36650  10.476   7.355   1.223  0.2977 -0.0067 -0.4988
 1013MOL0     C36651  10.430   7.488   1.246  0.4714  0.2648 -0.0701
 1013MOL0     C36652  10.503   7.597   1.222 -0.3700 -0.3530 -0.2083
 1013MOL0     C36653  10.449   7.727   1.194 -0.4441  0.8344  0.2263
 1013MOL0     C36654  10.313   7.746   1.202 -0.5088  0.4904 -0.1080
 1013MOL0     O36655  10.257   7.863   1.177  0.5240 -0.2222  0.1025
 1013MOL0     C36656  10.270   7.922   1.047  0.4383 -0.3821 -0.0429
 1013MOL0     C36657  10.193   8.051   1.031 -0.3985  0.5313  0.8770
 1013MOL0     C36658  10.045   8.035   1.078 -0.7695  0.0487  0.7070
 1013MOL0     C36659   9.962   8.140   1.001 -0.5831 -0.2095 -0.5332
 1013MOL0     C36660   9.812   8.175   1.040  1.1148 -0.8649 -0.1588
 1013MOL0     C36661   9.789   8.208   1.187  1.0870  0.4421  0.8013
 1013MOL0     C36662   9.643   8.250   1.207 -0.1749 -0.3856 -0.1903
 1013MOL0     C36663   9.600   8.218   1.347 -0.5999 -1.3572 -0.1935
 1013MOL0    Cl36664   9.448   8.308   1.384 -0.2690 -0.2546  0.1469
 1013MOL0     C36665  10.239   7.628   1.239  0.3202  0.2576  0.1489
 1013MOL0     C36666  10.297   7.501   1.257  0.0703  0.5966  0.9230
 1013MOL0     O36667  10.464   7.310   1.451  0.4700 -0.4493  0.7195
 1013MOL0     C36668  10.576   7.041   1.402 -0.0928  0.2130  1.1454
 1013MOL0     C36669  10.657   6.928   1.374  0.3663  0.0225 -0.8198
 1013MOL0     N36670  10.575   6.223   1.038 -0.4994  0.7786  0.4946
 1013MOL0     N36671  10.555   6.177   0.924  0.8151  0.0841 -0.2255
 1013MOL0     C36672  11.086   6.494   1.053 -0.3205  0.0069  0.5760
 1013MOL0     C36673  11.150   6.435   1.156 -0.6600  0.4695 -0.0213
 1013MOL0     C36674  11.148   6.116   1.518  0.1116  0.1377 -0.2629
 1013MOL0     C36675  11.180   5.999   1.451 -0.0503  0.6286  0.9145
 1013MOL0     C36676  11.273   5.907   1.503  0.0246 -0.2614  0.1935
 1013MOL0     C36677  11.332   5.917   1.623 -0.4005  0.0146 -0.3466
 1013MOL0     O36678  11.432   5.853   1.683  0.4218 -0.1537  0.5823
 1013MOL0     C36679  11.491   5.725   1.633 -0.3083 -0.6381  0.9000
 1013MOL0     C36680  11.559   5.651   1.743  0.6860 -0.4726  1.0701
 1013MOL0     C36681  11.460   5.609   1.848 -0.3248 -0.4011  0.2136
 1013MOL0     C36682  11.521   5.577   1.992 -0.2396 -0.3114  0.2749
 1013MOL0     C36683  11.629   5.470   1.997  0.7472 -0.6601  0.4847
 1013MOL0     C36684  11.687   5.363   1.997  0.0872 -0.5807  0.2880
 1013MOL0     C36685  11.287   6.024   1.696  0.1818 -0.4395 -0.1596
 1013MOL0     C36686  11.186   6.119   1.657  0.2016  0.9236  0.4616
 1013MOL0     C36687  11.144   6.222   1.755 -0.0790  0.1911 -0.3790
 1013MOL0     H36688  10.903   6.223   1.244 -1.9691  1.4378 -1.4553
 1013MOL0     H36689  10.790   6.342   1.061 -0.0124 -0.2105  0.7130
 1013MOL0     H36690  10.997   6.736   0.897  0.3026  0.8455 -1.6657
 1013MOL0     H36691  11.048   6.616   0.785  0.2316 -1.5231  0.8260
 1013MOL0     H36692  10.885   6.809   0.697 -0.8770  2.0137  0.6874
 1013MOL0     H36693  10.768   6.709   0.780 -0.1551  0.6461  0.4856
 1013MOL0     H36694  10.947   6.635   0.549 -1.4834  3.9953 -0.2303
 1013MOL0     H36695  10.777   6.627   0.532 -0.3719 -0.2794 -0.1994
 1013MOL0     H36696  10.897   6.405   0.538 -1.6878 -1.6840  0.0263
 1013MOL0     H36697  10.926   6.428   0.710  0.0641  1.0711 -0.5966
 1013MOL0     H36698  10.663   6.431   0.733  0.0673  0.6032  0.1355
 1013MOL0     H36699  10.648   6.442   0.562  1.8631  0.3310 -0.1584
 1013MOL0     H36700  10.766   6.202   0.553 -2.2438 -1.5859 -0.6316
 1013MOL0     H36701  10.746   6.203   0.725 -0.0327  5.0276  1.9677
 1013MOL0     H36702  10.572   6.078   0.665  1.0181 -0.7439  0.6064
 1013MOL0     H36703  10.521   6.176   0.525  2.4649  0.6242 -0.8644
 1013MOL0     H36704  10.452   6.370   0.672  0.8318 -1.4159 -3.7031
 1013MOL0     H36705  10.362   6.218   0.709 -0.4104 -0.1450 -2.7857
 1013MOL0     H36706  10.416   6.480   0.914  0.4673  0.7259  2.4291
 1013MOL0     H36707  10.419   6.443   1.205 -0.2180  0.8339 -0.7007
 1013MOL0     H36708  10.575   6.349   1.256  1.5376 -2.9878 -2.1099
 1013MOL0     H36709  10.695   6.535   1.118 -0.6211 -1.3278 -0.2287
 1013MOL0     H36710  10.548   6.631   1.140  1.7925  0.6442 -3.2562
 1013MOL0     H36711  10.687   6.505   1.366  1.5968 -0.0220 -1.8520
 1013MOL0     H36712  10.582   6.654   1.374  0.7829  0.3537  0.8824
 1013MOL0     H36713  10.862   6.628   1.256  2.1085  2.5391  0.0916
 1013MOL0     H36714  10.823   6.711   1.403  2.3090 -2.6217  0.1952
 1013MOL0     H36715  10.777   6.993   1.068  1.0328 -0.6760  0.6539
 1013MOL0     H36716  10.656   7.215   1.112  1.8626 -1.3918 -2.4886
 1013MOL0     H36717  10.610   7.578   1.211 -0.3415 -0.6790  0.5526
 1013MOL0     H36718  10.507   7.814   1.168 -0.7509  1.4165  1.4221
 1013MOL0     H36719  10.376   7.930   1.021  0.8421  1.6557  1.9144
 1013MOL0     H36720  10.217   7.857   0.978 -0.7748 -1.4633  1.8136
 1013MOL0     H36721  10.235   8.131   1.092  0.9629  0.3664  0.1841
 1013MOL0     H36722  10.208   8.094   0.932 -2.5902  2.0171  1.1241
 1013MOL0     H36723  10.011   7.933   1.057  3.9881 -2.1813  2.4261
 1013MOL0     H36724  10.032   8.049   1.186 -5.9534  0.2395  0.3354
 1013MOL0     H36725   9.963   8.107   0.897  3.1571  1.1951 -1.0834
 1013MOL0     H36726  10.021   8.231   1.017 -2.7528  1.0272  1.0865
 1013MOL0     H36727   9.749   8.089   1.015  2.9426 -3.8769  4.3043
 1013MOL0     H36728   9.780   8.268   0.991 -1.1451 -1.6766 -0.3526
 1013MOL0     H36729   9.808   8.117   1.244  0.2739  0.6650  1.4403
 1013MOL0     H36730   9.859   8.287   1.218  0.4680  1.8589 -1.2040
 1013MOL0     H36731   9.574   8.203   1.135  0.2515 -2.7794  0.8646
 1013MOL0     H36732   9.635   8.359   1.204 -1.3587 -0.4153 -4.0838
 1013MOL0     H36733   9.603   8.111   1.372 -1.2810 -1.0531  1.2671
 1013MOL0     H36734   9.670   8.265   1.416  0.2720 -2.4418 -0.3094
 1013MOL0     H36735  10.132   7.637   1.250 -0.3683  1.3820 -5.1143
 1013MOL0     H36736  10.230   7.419   1.279  0.1265  0.1280 -0.5442
 1013MOL0     H36737  10.532   7.050   1.501 -0.9263 -0.6380  0.8607
 1013MOL0     H36738  10.685   6.854   1.449  0.7623  0.0649 -0.9245
 1013MOL0     H36739  11.148   6.575   1.016  2.9346 -2.4538  0.2104
 1013MOL0     H36740  11.247   6.468   1.191 -0.3884 -0.6480  0.3203
 1013MOL0     H36741  11.136   5.990   1.352 -1.9745  3.7719  1.3474
 1013MOL0     H36742  11.305   5.832   1.432  0.3480 -0.7253  0.8136
 1013MOL0     H36743  11.555   5.733   1.545 -2.1174  1.9228 -0.3051
 1013MOL0     H36744  11.405   5.665   1.599  0.0382 -2.2633  2.7261
 1013MOL0     H36745  11.639   5.715   1.783 -0.0463  0.4201  1.1489
 1013MOL0     H36746  11.597   5.559   1.699  2.0185 -0.8180  2.7955
 1013MOL0     H36747  11.409   5.523   1.804  0.0589  0.0056 -1.0515
 1013MOL0     H36748  11.384   5.687   1.860  0.7587  1.1066 -2.0129
 1013MOL0     H36749  11.555   5.672   2.035 -0.6439  1.2631 -2.5732
 1013MOL0     H36750  11.440   5.549   2.059 -0.6483  2.7317  1.2298
 1013MOL0     H36751  11.753   5.278   1.997  1.5838  0.5033  1.4654
 1013MOL0     H36752  11.321   6.037   1.798 -0.1861 -1.5530  0.1182
 1013MOL0     H36753  11.050   6.199   1.806  0.4334  1.5445  1.2739
 1013MOL0     H36754  11.217   6.226   1.836  0.2713  3.3406 -0.7371
 1013MOL0     H36755  11.138   6.322   1.712  0.2532 -0.5187 -2.1718
 1014MOL0     O36756   0.909   8.264   9.630  0.3262 -0.4312 -0.5051
 1014MOL0     C36757   1.004   8.339   9.649  0.2498 -0.0131 -0.8836
 1014MOL0     O36758   1.134   8.300   9.618  0.6909 -0.7395 -0.9088
 1014MOL0     C36759   1.164   8.211   9.519 -0.0082 -0.3039  0.8935
 1014MOL0     C36760   1.090   8.181   9.397  0.9320 -0.6727  0.1339
 1014MOL0     C36761   1.138   8.095   9.298  0.5537  0.1770 -0.3293
 1014MOL0     C36762   1.254   8.019   9.311  0.4652  0.7154 -0.4266
 1014MOL0     O36763   1.283   7.919   9.223 -0.1925  0.3966  0.0360
 1014MOL0     C36764   1.404   7.929   9.154 -0.4303 -0.2589 -0.4933
 1014MOL0     C36765   1.407   7.815   9.050 -1.5874 -0.6415  0.3868
 1014MOL0     C36766   1.550   7.769   9.016 -0.8784  0.0167  0.2607
 1014MOL0     C36767   1.651   7.890   8.967  0.7146 -0.7743  0.6238
 1014MOL0     C36768   1.786   7.840   8.920  0.1896 -0.6617  0.3738
 1014MOL0     C36769   1.890   7.948   8.890 -0.4950 -0.1995  0.1422
 1014MOL0     C36770   2.008   7.887   8.813 -0.2130 -0.4023 -0.0412
 1014MOL0     C36771   2.077   7.986   8.723  0.0259  0.5710 -0.5644
 1014MOL0     N36772   2.188   7.936   8.641 -0.2314 -0.5687 -0.5733
 1014MOL0     C36773   2.300   8.021   8.624  0.4328  0.3362  0.4010
 1014MOL0     C36774   2.392   7.950   8.564  0.0453  0.6960  0.5589
 1014MOL0     C36775   2.537   7.990   8.544 -0.0238  0.0078  0.7839
 1014MOL0     C36776   2.556   8.077   8.418 -0.9285  0.0528 -0.3687
 1014MOL0     C36777   2.706   8.079   8.387  0.3729 -0.2168  0.1620
 1014MOL0     C36778   2.741   8.223   8.341  0.3775  0.4692  0.1114
 1014MOL0     O36779   2.877   8.214   8.300  0.8405  0.0048 -0.0826
 1014MOL0     C36780   2.962   8.323   8.302 -0.0854 -0.2370  0.0395
 1014MOL0     C36781   3.101   8.301   8.292  0.0273 -0.6654  0.9681
 1014MOL0     C36782   3.183   8.416   8.269  0.4081 -0.3210 -1.0169
 1014MOL0     C36783   3.132   8.547   8.277  0.1754 -0.3835 -0.8569
 1014MOL0     C36784   3.226   8.672   8.302 -0.3467 -0.7394  0.5467
 1014MOL0     O36785   3.358   8.647   8.266  0.4200 -0.0388  0.4209
 1014MOL0     C36786   3.446   8.751   8.275  0.0436 -0.3652 -0.0156
 1014MOL0     C36787   3.541   8.762   8.384 -0.7165 -0.3413 -0.5336
 1014MOL0     C36788   3.636   8.863   8.386 -0.1510  1.0630  0.9603
 1014MOL0     C36789   3.631   8.957   8.286 -0.1111  0.5995  0.2960
 1014MOL0     O36790   3.731   9.046   8.270 -1.0518  0.0410  1.1075
 1014MOL0     C36791   3.708   9.181   8.303  0.4849 -0.1644 -0.3449
 1014MOL0     C36792   3.846   9.243   8.313  0.1940 -0.2544  0.0257
 1014MOL0     C36793   3.843   9.359   8.397  0.9772 -0.4362 -0.2450
 1014MOL0     C36794   3.969   9.449   8.366 -0.3549  0.1208 -0.9803
 1014MOL0     C36795   4.099   9.370   8.387  0.8104 -0.3124  0.2447
 1014MOL0     C36796   4.221   9.463   8.367  0.5040 -1.0812  0.4169
 1014MOL0     C36797   4.344   9.368   8.389 -0.0607  0.1995 -0.3946
 1014MOL0     C36798   4.486   9.438   8.391  0.8917  0.4471 -0.3825
 1014MOL0    Cl36799   4.528   9.491   8.220 -0.0849 -0.4094 -0.2113
 1014MOL0     C36800   3.529   8.953   8.188 -0.5071 -0.4033  0.1966
 1014MOL0     C36801   3.439   8.848   8.179 -0.5772  0.0708 -0.0926
 1014MOL0     O36802   3.190   8.772   8.362  0.3809  0.4086 -0.2977
 1014MOL0     C36803   2.993   8.556   8.288  0.2531  0.0898 -0.0051
 1014MOL0     C36804   2.913   8.452   8.304  0.8753 -0.0898 -0.1020
 1014MOL0     N36805   2.353   7.827   8.550 -0.4756  0.0328 -0.0548
 1014MOL0     N36806   2.226   7.814   8.587 -0.2686  0.1094  0.0715
 1014MOL0     C36807   1.329   8.047   9.424 -0.2518  0.5637 -0.0324
 1014MOL0     C36808   1.287   8.145   9.526  0.0825  0.5587  0.2629
 1014MOL0     C36809   0.992   8.466   9.723  0.2631 -0.0301  0.3911
 1014MOL0     C36810   1.095   8.501   9.811 -0.3000 -0.2931  0.3141
 1014MOL0     C36811   1.083   8.622   9.875  1.0559  0.2447 -0.9559
 1014MOL0     C36812   0.967   8.709   9.872  0.0558  0.6611 -0.9922
 1014MOL0     O36813   0.949   8.806   9.962 -0.1005  0.6999  0.6184
 1014MOL0     C36814   1.045   8.841  10.059 -0.0627  1.0589 -0.3727
 1014MOL0     C36815   0.983   8.952  10.148  0.4246 -0.5513 -0.2730
 1014MOL0     C36816   0.940   9.088  10.079  0.0931 -0.1096 -0.2356
 1014MOL0     C36817   0.918   9.191  10.187 -0.6699  1.0346 -0.5432
 1014MOL0     C36818   0.860   9.308  10.132 -0.0805 -0.7537  0.6442
 1014MOL0     C36819   0.799   9.403  10.076  0.3678  0.4988  0.2509
 1014MOL0     C36820   0.863   8.662   9.788  0.7150  0.0167 -0.1829
 1014MOL0     C36821   0.882   8.551   9.705  0.1435 -0.6724 -0.6531
 1014MOL0     C36822   0.776   8.520   9.602  0.1429 -0.3297  0.6510
 1014MOL0     H36823   0.997   8.236   9.384 -1.9295 -3.3746  5.4859
 1014MOL0     H36824   1.078   8.099   9.208 -0.7141 -0.0215  0.4764
 1014MOL0     H36825   1.414   8.026   9.104  0.5187 -0.7730 -1.3304
 1014MOL0     H36826   1.485   7.911   9.226 -0.4382 -2.0576 -0.8930
 1014MOL0     H36827   1.368   7.850   8.954  2.7861 -0.4905 -1.5440
 1014MOL0     H36828   1.344   7.733   9.085 -3.3816 -0.1848 -1.5853
 1014MOL0     H36829   1.547   7.701   8.930  2.8978  3.4911 -3.0408
 1014MOL0     H36830   1.601   7.720   9.099 -1.3636 -1.5797 -0.3551
 1014MOL0     H36831   1.601   7.948   8.888  1.3751  0.5578  1.1417
 1014MOL0     H36832   1.666   7.963   9.048 -0.5126  0.2467 -0.0297
 1014MOL0     H36833   1.832   7.779   8.998  0.1586 -2.7792 -1.1938
 1014MOL0     H36834   1.763   7.772   8.838 -0.6661 -0.4627  0.4355
 1014MOL0     H36835   1.851   8.028   8.827  0.9731 -0.0501 -0.6195
 1014MOL0     H36836   1.926   8.004   8.977  1.4266 -0.8686 -0.1876
 1014MOL0     H36837   1.972   7.798   8.760 -1.1384 -0.5255  0.7472
 1014MOL0     H36838   2.090   7.854   8.877  1.9218 -1.1933 -2.9738
 1014MOL0     H36839   2.007   8.038   8.657 -0.1632 -0.7160 -1.4205
 1014MOL0     H36840   2.110   8.063   8.792 -2.0898  1.8024 -0.8506
 1014MOL0     H36841   2.317   8.115   8.677 -0.1128  0.4100  0.4471
 1014MOL0     H36842   2.571   8.036   8.638 -0.3661 -0.7777  1.3109
 1014MOL0     H36843   2.598   7.899   8.547 -2.5582 -1.7772  2.3106
 1014MOL0     H36844   2.500   8.048   8.329 -0.8123  2.0711 -1.1477
 1014MOL0     H36845   2.520   8.179   8.438 -3.0766 -0.6847 -0.1884
 1014MOL0     H36846   2.728   8.004   8.310 -2.3257 -1.2394  0.2822
 1014MOL0     H36847   2.768   8.050   8.472  0.9263 -1.0555 -0.4991
 1014MOL0     H36848   2.713   8.293   8.420 -1.4367 -0.3402  0.2300
 1014MOL0     H36849   2.680   8.257   8.257 -0.9060 -0.7736  0.5004
 1014MOL0     H36850   3.156   8.208   8.281  0.1341 -0.4193 -0.9102
 1014MOL0     H36851   3.284   8.413   8.230  0.5331  3.4854 -1.2931
 1014MOL0     H36852   3.553   8.687   8.462  0.4856  2.5520  2.3178
 1014MOL0     H36853   3.708   8.875   8.467  1.8230  3.1370 -0.9628
 1014MOL0     H36854   3.635   9.229   8.238  0.3306  0.8779  0.5775
 1014MOL0     H36855   3.664   9.182   8.403  1.3368  1.3002  0.0328
 1014MOL0     H36856   3.919   9.165   8.334 -0.3578 -1.0904 -1.0948
 1014MOL0     H36857   3.868   9.267   8.209 -4.8832  1.4849 -0.9222
 1014MOL0     H36858   3.749   9.413   8.382  2.1633  2.7807  2.5967
 1014MOL0     H36859   3.845   9.325   8.501 -1.5414  1.6413  0.5796
 1014MOL0     H36860   3.976   9.541   8.425  1.4565 -0.9636  0.6467
 1014MOL0     H36861   3.969   9.476   8.261 -2.1696 -0.2766 -1.1147
 1014MOL0     H36862   4.102   9.287   8.315  0.0505  1.3453 -1.8067
 1014MOL0     H36863   4.104   9.346   8.493  2.3367  0.6303  0.4160
 1014MOL0     H36864   4.227   9.502   8.264  0.6344 -1.0416  0.4394
 1014MOL0     H36865   4.219   9.553   8.429  1.0549  0.2803 -1.4279
 1014MOL0     H36866   4.346   9.286   8.316 -0.3425 -0.5484  0.4149
 1014MOL0     H36867   4.326   9.321   8.486  1.8131 -3.1618 -1.4963
 1014MOL0     H36868   4.484   9.527   8.455 -2.4496  1.1536 -1.2411
 1014MOL0     H36869   4.557   9.366   8.432 -0.8906  0.5152  3.2082
 1014MOL0     H36870   3.513   9.034   8.117 -1.5839 -2.5185 -2.1480
 1014MOL0     H36871   3.360   8.838   8.105 -0.3261  0.5910 -0.4385
 1014MOL0     H36872   2.956   8.656   8.267  2.1659  0.5667 -1.3152
 1014MOL0     H36873   2.810   8.471   8.332  1.1672  0.9335  0.3059
 1014MOL0     H36874   1.417   7.987   9.446 -0.1821  1.5776  2.7748
 1014MOL0     H36875   1.357   8.156   9.608  2.3230 -0.1151 -1.4517
 1014MOL0     H36876   1.170   8.433   9.849  0.4123 -0.1528 -0.7755
 1014MOL0     H36877   1.167   8.643   9.941 -0.3120 -3.6100  2.4546
 1014MOL0     H36878   1.141   8.862  10.010 -0.3654  0.1465 -1.3962
 1014MOL0     H36879   1.074   8.759  10.125 -3.0044  1.0696  1.1060
 1014MOL0     H36880   1.042   8.979  10.236  0.9935 -0.3254 -0.7125
 1014MOL0     H36881   0.895   8.911  10.197 -1.0073 -0.3015 -2.4894
 1014MOL0     H36882   0.846   9.074  10.024 -0.5937  0.8137  0.6670
 1014MOL0     H36883   1.007   9.128  10.001 -1.6519  4.2172  0.1858
 1014MOL0     H36884   0.855   9.165  10.272 -3.6251  3.2738 -1.8884
 1014MOL0     H36885   1.021   9.214  10.217 -0.4259 -0.8086  0.1884
 1014MOL0     H36886   0.739   9.473  10.022 -0.8791  0.4403  1.5011
 1014MOL0     H36887   0.773   8.722   9.778  1.1143  0.5429 -0.6621
 1014MOL0     H36888   0.832   8.490   9.512  0.0509  1.3025  0.0256
 1014MOL0     H36889   0.714   8.433   9.629 -2.0672  0.7693 -0.6052
 1014MOL0     H36890   0.701   8.594   9.575 -0.4836 -1.2864 -0.3605
 1015MOL0     O36891  10.905   9.107   9.898 -0.2853  0.0464 -0.8974
 1015MOL0     C36892  10.945   9.203   9.964  0.5609  0.5954 -0.4445
 1015MOL0     O36893  10.864   9.288  10.033 -0.4723 -0.1721  0.6465
 1015MOL0     C36894  10.750   9.236  10.089 -0.2226  0.6450  0.3650
 1015MOL0     C36895  10.749   9.109  10.141  0.0846  0.5218 -1.2617
 1015MOL0     C36896  10.635   9.052  10.202 -0.1713  0.0229  0.6161
 1015MOL0     C36897  10.523   9.135  10.207 -0.3528  0.7098  0.1787
 1015MOL0     O36898  10.401   9.089  10.256  0.5864 -0.4401 -0.4818
 1015MOL0     C36899  10.380   8.950  10.292  1.0091 -0.0825  0.0760
 1015MOL0     C36900  10.233   8.944  10.342 -0.5705  0.6446 -0.1706
 1015MOL0     C36901  10.186   8.802  10.367 -0.5285  0.9119  0.0395
 1015MOL0     C36902  10.038   8.780  10.369  0.9223  0.3159  0.2873
 1015MOL0     C36903   9.997   8.647  10.439 -0.5561 -0.0939  0.2824
 1015MOL0     C36904  10.066   8.523  10.378  0.8102  0.2587  0.0398
 1015MOL0     C36905   9.971   8.408  10.409  0.5499  0.5495  0.8151
 1015MOL0     C36906   9.857   8.395  10.304  0.1099 -0.4373 -0.2635
 1015MOL0     N36907   9.905   8.371  10.170 -0.2348  0.0125 -0.2543
 1015MOL0     C36908   9.983   8.274  10.127  0.3131  0.7846  0.5403
 1015MOL0     C36909   9.995   8.289   9.996  0.5256  0.5529 -0.3912
 1015MOL0     C36910  10.055   8.186   9.909 -0.4386  0.8610  0.1517
 1015MOL0     C36911  10.128   8.253   9.798  0.1411  0.3285  1.0298
 1015MOL0     C36912  10.239   8.173   9.724 -0.3845 -0.6167  0.3394
 1015MOL0     C36913  10.356   8.108   9.803 -0.3339  0.4806  0.5983
 1015MOL0     O36914  10.460   8.199   9.797 -0.2094 -0.2706 -0.0606
 1015MOL0     C36915  10.578   8.158   9.849 -0.0962 -0.5255  0.5933
 1015MOL0     C36916  10.678   8.248   9.827 -1.1429 -0.1372 -0.0928
 1015MOL0     C36917  10.814   8.216   9.854 -0.1379  0.9164  0.1298
 1015MOL0     C36918  10.844   8.101   9.923  0.9691 -0.3483  0.7832
 1015MOL0     C36919  10.968   8.074   9.986  1.1414  0.5091 -0.1666
 1015MOL0     O36920  11.068   8.119   9.917 -0.2335 -0.2322  0.2962
 1015MOL0     C36921  11.206   8.095   9.940 -0.4940  0.6352 -1.1173
 1015MOL0     C36922  11.292   8.178   9.868 -0.3825 -0.4371 -0.2832
 1015MOL0     C36923  11.438   8.162   9.884  0.5255  0.2537  0.1534
 1015MOL0     C36924  11.490   8.064   9.975 -0.0274  0.1625  0.7672
 1015MOL0     O36925  11.629   8.051   9.985  0.2226 -0.1068  0.4307
 1015MOL0     C36926  11.675   7.918  10.002  0.0700  0.2753  0.5563
 1015MOL0     C36927  11.826   7.906   9.967  0.2188  0.1578  0.7069
 1015MOL0     C36928  11.899   7.772  10.015  0.0624  0.6337  0.2610
 1015MOL0     C36929  12.056   7.782   9.996 -0.5958 -0.1267 -0.9331
 1015MOL0     C36930  12.138   7.675  10.060 -0.4001 -0.1452 -0.3117
 1015MOL0     C36931  12.123   7.648  10.211  0.6915  0.2002  0.0918
 1015MOL0     C36932  12.170   7.777  10.286  0.2468  0.2664 -0.5849
 1015MOL0     C36933  12.176   7.734  10.432  0.1724 -0.4129  0.3794
 1015MOL0    Cl36934  12.243   7.873  10.525  0.2599 -0.0567 -0.1588
 1015MOL0     C36935  11.397   7.975  10.049  0.7043 -0.1986  0.3793
 1015MOL0     C36936  11.263   7.991  10.021  0.0925 -0.2363  0.7428
 1015MOL0     O36937  10.972   8.007  10.090 -0.1357 -0.9539 -0.3718
 1015MOL0     C36938  10.734   8.013   9.950  0.2904 -0.4019 -0.0914
 1015MOL0     C36939  10.603   8.037   9.915 -0.2257  0.1539  0.2225
 1015MOL0     N36940   9.927   8.408   9.957 -0.2824  0.5613  0.1161
 1015MOL0     N36941   9.875   8.453  10.071  0.3616 -0.2754  0.8891
 1015MOL0     C36942  10.519   9.259  10.136 -0.2164  0.0456 -0.8819
 1015MOL0     C36943  10.630   9.315  10.085 -0.1532  0.2723  0.8205
 1015MOL0     C36944  11.094   9.224   9.970  0.1225 -1.0263 -0.3496
 1015MOL0     C36945  11.176   9.161   9.875 -0.1877 -0.3987  0.0046
 1015MOL0     C36946  11.316   9.151   9.881  1.1269 -0.6462  0.1309
 1015MOL0     C36947  11.372   9.252   9.968  0.7497 -0.1073  0.5102
 1015MOL0     O36948  11.509   9.272   9.953  0.4139 -0.6313  1.0248
 1015MOL0     C36949  11.566   9.407   9.972 -0.5562  0.2054  0.4183
 1015MOL0     C36950  11.707   9.407   9.920 -0.6753 -0.2246  0.1430
 1015MOL0     C36951  11.790   9.294   9.974 -0.3430  0.3566  0.2184
 1015MOL0     C36952  11.936   9.322   9.959 -0.4734  0.8385  0.6355
 1015MOL0     C36953  12.005   9.217  10.033 -0.7547  0.9514 -0.1916
 1015MOL0     C36954  12.072   9.137  10.103  0.1460 -0.7476  0.5915
 1015MOL0     C36955  11.299   9.320  10.069  0.6694 -0.1221 -0.9124
 1015MOL0     C36956  11.153   9.301  10.071  0.7817  0.1556 -0.3079
 1015MOL0     C36957  11.091   9.357  10.194 -0.5140 -0.3182 -0.3969
 1015MOL0     H36958  10.830   9.038  10.135 -0.4168 -0.1499 -0.3038
 1015MOL0     H36959  10.629   8.951  10.242  2.1051  0.0341  1.1222
 1015MOL0     H36960  10.393   8.885  10.204 -1.8527 -1.7389  0.7543
 1015MOL0     H36961  10.443   8.913  10.373 -2.9926 -3.4792  2.0022
 1015MOL0     H36962  10.164   8.995  10.274 -1.5068  0.9668  0.9786
 1015MOL0     H36963  10.226   8.994  10.439 -0.6524 -2.7566  1.7287
 1015MOL0     H36964  10.224   8.772  10.465 -1.7184  3.7078  1.4615
 1015MOL0     H36965  10.237   8.744  10.289 -2.0682  0.3047 -0.5458
 1015MOL0     H36966   9.980   8.862  10.412 -2.6733 -0.4523 -2.5298
 1015MOL0     H36967  10.000   8.763  10.268 -1.6126  0.6653  1.1149
 1015MOL0     H36968  10.031   8.637  10.542  3.4111  0.2093 -0.8300
 1015MOL0     H36969   9.889   8.638  10.421 -0.5924  2.1072 -0.9800
 1015MOL0     H36970  10.081   8.535  10.270  1.5742 -0.1951  0.0816
 1015MOL0     H36971  10.169   8.519  10.415  1.2835  1.0445 -1.1361
 1015MOL0     H36972   9.921   8.411  10.506 -1.7090  3.6935 -0.2830
 1015MOL0     H36973  10.041   8.324  10.399  1.8941  1.5231  1.8045
 1015MOL0     H36974   9.789   8.316  10.336 -0.2614 -0.6732 -1.6080
 1015MOL0     H36975   9.802   8.490  10.297 -1.7983 -1.6054 -2.1242
 1015MOL0     H36976  10.044   8.208  10.190 -0.8725 -2.0051 -1.0381
 1015MOL0     H36977  10.125   8.121   9.964  0.0714  1.2757  0.0072
 1015MOL0     H36978   9.989   8.107   9.872  0.2415  0.5296 -0.3867
 1015MOL0     H36979  10.054   8.285   9.725  2.2338  2.2871 -0.3784
 1015MOL0     H36980  10.188   8.340   9.827 -0.0257  1.4357 -1.7111
 1015MOL0     H36981  10.298   8.238   9.658  1.9849  1.6605  4.2875
 1015MOL0     H36982  10.180   8.096   9.675  1.2025  0.5055 -3.8114
 1015MOL0     H36983  10.381   8.015   9.751  2.5204  0.1322  2.3467
 1015MOL0     H36984  10.326   8.083   9.905  1.1501  0.4358  1.0482
 1015MOL0     H36985  10.656   8.337   9.771 -1.9529  0.0342  0.4811
 1015MOL0     H36986  10.888   8.291   9.830 -0.5783  0.4023 -3.2256
 1015MOL0     H36987  11.240   8.236   9.792 -0.5608 -0.4066 -0.1378
 1015MOL0     H36988  11.504   8.238   9.845  0.9362  1.3256  2.7514
 1015MOL0     H36989  11.653   7.875  10.100 -2.3996 -2.7901 -1.1438
 1015MOL0     H36990  11.624   7.846   9.937 -2.1776  0.6300  1.8148
 1015MOL0     H36991  11.828   7.917   9.859 -4.4724  0.9912  0.5319
 1015MOL0     H36992  11.875   7.996  10.005  2.4887  0.5217 -2.6626
 1015MOL0     H36993  11.872   7.761  10.120  1.5485  0.3514  0.6371
 1015MOL0     H36994  11.852   7.682   9.976  2.5516 -2.6989  4.1413
 1015MOL0     H36995  12.093   7.881  10.026 -2.5631  0.7634 -1.3023
 1015MOL0     H36996  12.088   7.774   9.891  0.6943  1.8973 -0.7556
 1015MOL0     H36997  12.245   7.691  10.048 -0.2106 -1.0959 -0.0143
 1015MOL0     H36998  12.114   7.581  10.009  3.9863  0.0662 -3.3048
 1015MOL0     H36999  12.019   7.621  10.231  1.1685 -1.3924  0.5334
 1015MOL0     H37000  12.187   7.562  10.231  3.9388  1.9561 -1.8455
 1015MOL0     H37001  12.099   7.857  10.263 -0.0709  0.2133  0.1792
 1015MOL0     H37002  12.273   7.807  10.261  0.5308  0.4060  0.6817
 1015MOL0     H37003  12.076   7.702  10.463 -0.2145 -0.7531 -1.0942
 1015MOL0     H37004  12.252   7.658  10.453  0.8439 -0.2157 -1.1469
 1015MOL0     H37005  11.431   7.903  10.122 -1.4773 -1.4046  0.2987
 1015MOL0     H37006  11.203   7.917  10.073  0.0481 -0.3345  0.5537
 1015MOL0     H37007  10.754   7.924  10.009  2.8188  1.4812  2.1569
 1015MOL0     H37008  10.521   7.966   9.922 -0.6615  0.4023 -1.7791
 1015MOL0     H37009  10.431   9.322  10.125 -0.2638  0.1205 -0.1169
 1015MOL0     H37010  10.635   9.414  10.041  1.0516 -1.1409 -2.6155
 1015MOL0     H37011  11.129   9.103   9.795 -0.5703  1.4692 -1.1982
 1015MOL0     H37012  11.372   9.077   9.825 -0.4133 -0.8791 -1.1819
 1015MOL0     H37013  11.565   9.422  10.081  1.1338  0.6713  0.3924
 1015MOL0     H37014  11.500   9.482   9.926  2.1748  3.5936  1.5880
 1015MOL0     H37015  11.753   9.504   9.943  0.0508 -0.6891  0.6724
 1015MOL0     H37016  11.707   9.416   9.811 -1.4488 -0.7349  0.0931
 1015MOL0     H37017  11.750   9.202   9.929 -1.7033  1.8492 -1.8367
 1015MOL0     H37018  11.765   9.283  10.080  0.2341 -2.2283  0.1508
 1015MOL0     H37019  11.966   9.314   9.853 -3.6272 -0.2506 -0.2710
 1015MOL0     H37020  11.952   9.423   9.998  0.2286  1.7883 -1.8834
 1015MOL0     H37021  12.141   9.087  10.168  0.3981  0.2518  1.1164
 1015MOL0     H37022  11.350   9.391  10.133 -1.0670  0.7374 -0.4195
 1015MOL0     H37023  11.017   9.431  10.164  0.6007 -0.2228 -3.2315
 1015MOL0     H37024  11.038   9.285  10.257 -0.2159 -1.8192 -1.7874
 1015MOL0     H37025  11.167   9.415  10.248 -3.7831  4.8576 -0.6433
 1016MOL0     O37026   1.007   3.334   0.762  0.1939 -0.0464  0.1058
 1016MOL0     C37027   0.959   3.274   0.670 -0.2730  0.0332  1.0792
 1016MOL0     O37028   0.921   3.340   0.556 -0.1987 -1.1356  0.8441
 1016MOL0     C37029   0.907   3.473   0.547 -0.0727  0.3757 -0.2636
 1016MOL0     C37030   1.001   3.569   0.577 -0.7828 -0.4202  0.2084
 1016MOL0     C37031   0.992   3.708   0.545  0.4092  0.6804  1.2975
 1016MOL0     C37032   0.876   3.747   0.477 -0.3347  0.5287  0.2329
 1016MOL0     O37033   0.856   3.876   0.429 -0.2242  0.9593  0.6704
 1016MOL0     C37034   0.841   3.971   0.536 -0.2728  0.3616 -0.0540
 1016MOL0     C37035   0.801   4.108   0.481  0.1131  0.3270 -0.4464
 1016MOL0     C37036   0.908   4.156   0.384  0.6808 -0.8993 -0.4976
 1016MOL0     C37037   0.863   4.283   0.312 -0.6540 -0.9464  0.7793
 1016MOL0     C37038   0.976   4.368   0.263  0.0227  0.1932 -0.0198
 1016MOL0     C37039   1.037   4.341   0.130 -0.3273  0.7119  0.0711
 1016MOL0     C37040   1.162   4.432   0.089 -0.5851  0.1348 -0.4376
 1016MOL0     C37041   1.129   4.575   0.036  1.1806 -0.1531 -0.2342
 1016MOL0     N37042   1.249   4.628  -0.020 -0.1598  0.0379  0.0166
 1016MOL0     C37043   1.286   4.602  -0.146 -0.2431 -0.4575 -0.2340
 1016MOL0     C37044   1.360   4.711  -0.189  0.4487  0.0549  0.8889
 1016MOL0     C37045   1.438   4.704  -0.316  1.2264 -0.0566 -0.4977
 1016MOL0     C37046   1.403   4.815  -0.402 -0.3650  0.1726  0.0465
 1016MOL0     C37047   1.503   4.809  -0.514  0.4745 -1.1313  0.8368
 1016MOL0     C37048   1.526   4.687  -0.594 -0.4018 -0.2096  0.3411
 1016MOL0     O37049   1.413   4.643  -0.662 -0.0619  0.2359  0.6503
 1016MOL0     C37050   1.433   4.570  -0.780  0.0270 -0.2145  0.4980
 1016MOL0     C37051   1.316   4.550  -0.867  0.5059  0.3301 -0.2534
 1016MOL0     C37052   1.319   4.476  -0.992  0.2618  0.6513 -0.3652
 1016MOL0     C37053   1.444   4.436  -1.039  0.3162 -0.3458  0.6043
 1016MOL0     C37054   1.465   4.347  -1.154 -0.8345  1.0397  0.3376
 1016MOL0     O37055   1.587   4.278  -1.151  0.2567  0.0170  0.4505
 1016MOL0     C37056   1.617   4.188  -1.252 -0.8099  0.6389  0.7577
 1016MOL0     C37057   1.544   4.088  -1.296 -0.9896 -0.8612 -0.0739
 1016MOL0     C37058   1.592   3.997  -1.392 -1.0383  0.5336  0.6709
 1016MOL0     C37059   1.718   4.012  -1.439  0.0123  0.5669 -0.6838
 1016MOL0     O37060   1.772   3.931  -1.544  0.9154 -0.3841 -0.8267
 1016MOL0     C37061   1.743   3.792  -1.544 -0.0443 -0.1990  0.0165
 1016MOL0     C37062   1.861   3.741  -1.620 -0.7466 -0.3640  0.6379
 1016MOL0     C37063   1.876   3.589  -1.593  0.1768  0.4209  0.2705
 1016MOL0     C37064   1.936   3.517  -1.717 -0.2945 -0.3835 -0.7219
 1016MOL0     C37065   1.930   3.366  -1.688 -0.6814  0.2090 -0.5552
 1016MOL0     C37066   1.963   3.274  -1.796 -0.3965 -0.0938 -0.2291
 1016MOL0     C37067   1.942   3.126  -1.755  0.7101 -0.6779  0.1387
 1016MOL0     C37068   1.936   3.046  -1.884  0.2888  0.0164  0.3312
 1016MOL0    Cl37069   2.087   3.060  -1.983 -0.3733  0.4828 -0.4078
 1016MOL0     C37070   1.796   4.124  -1.390 -0.0514 -0.9567 -0.7679
 1016MOL0     C37071   1.741   4.214  -1.295  0.4221 -0.1802  0.3099
 1016MOL0     O37072   1.376   4.328  -1.236 -0.8565  0.7320  0.3118
 1016MOL0     C37073   1.564   4.478  -0.972 -0.2075 -0.1057  0.5057
 1016MOL0     C37074   1.559   4.535  -0.843  0.4151 -0.4329 -0.4011
 1016MOL0     N37075   1.356   4.800  -0.088 -0.2294 -0.5055  0.2088
 1016MOL0     N37076   1.295   4.754   0.005 -0.1980 -0.5178  0.6264
 1016MOL0     C37077   0.785   3.652   0.441  0.3559 -0.1775 -0.1723
 1016MOL0     C37078   0.793   3.514   0.484 -0.2237 -0.5626  0.2423
 1016MOL0     C37079   0.927   3.120   0.687  0.5161  0.0157 -0.1217
 1016MOL0     C37080   0.841   3.075   0.796 -0.0791  0.5563 -0.2313
 1016MOL0     C37081   0.820   2.935   0.802 -0.3564  0.2331  0.6472
 1016MOL0     C37082   0.862   2.847   0.699 -0.0245  0.9639 -0.0386
 1016MOL0     O37083   0.838   2.704   0.704  0.6474 -0.8370 -0.0010
 1016MOL0     C37084   0.942   2.627   0.772  0.6035 -0.0287  0.0682
 1016MOL0     C37085   0.865   2.528   0.860 -0.1683  0.4567 -0.7308
 1016MOL0     C37086   0.834   2.586   1.003 -0.8709 -0.2400 -0.1704
 1016MOL0     C37087   0.860   2.496   1.119  0.7521  0.0107  0.4711
 1016MOL0     C37088   0.791   2.366   1.112 -0.3744 -0.0962 -0.1627
 1016MOL0     C37089   0.750   2.254   1.093 -0.5226 -0.4784 -0.6827
 1016MOL0     C37090   0.940   2.894   0.602  0.4427 -0.9519  1.2896
 1016MOL0     C37091   0.982   3.028   0.593 -0.4229  1.2702 -0.2636
 1016MOL0     C37092   1.086   3.074   0.490  0.1539 -0.4326  0.5973
 1016MOL0     H37093   1.099   3.537   0.612 -0.9113 -2.8055 -1.3627
 1016MOL0     H37094   1.074   3.776   0.568  0.2083  1.5841 -0.4454
 1016MOL0     H37095   0.762   3.947   0.608 -0.3301  0.8425  0.0452
 1016MOL0     H37096   0.938   3.991   0.582 -0.9605 -1.5637  2.4842
 1016MOL0     H37097   0.781   4.180   0.561 -0.3005  2.7833 -2.6303
 1016MOL0     H37098   0.711   4.093   0.420 -2.1606 -0.8868  2.9165
 1016MOL0     H37099   0.942   4.085   0.308  1.9886  0.6980 -1.4648
 1016MOL0     H37100   0.997   4.178   0.443  0.3818 -1.2938  0.1057
 1016MOL0     H37101   0.796   4.260   0.229 -1.1196  0.7102  0.6647
 1016MOL0     H37102   0.810   4.346   0.384  0.4813  0.9998  0.0033
 1016MOL0     H37103   0.935   4.469   0.255  0.6737  0.3801 -1.5210
 1016MOL0     H37104   1.053   4.365   0.340 -0.2739 -0.7468  0.2447
 1016MOL0     H37105   1.075   4.239   0.140  2.6775  1.8136  1.0270
 1016MOL0     H37106   0.964   4.349   0.048  2.6274 -0.9920 -2.9834
 1016MOL0     H37107   1.227   4.373   0.024  0.3508 -0.5955  1.0974
 1016MOL0     H37108   1.225   4.448   0.177 -0.0617 -0.7085 -0.6498
 1016MOL0     H37109   1.058   4.559  -0.045  0.2127  0.3024  0.5039
 1016MOL0     H37110   1.097   4.651   0.108  0.4130  1.5883 -2.3128
 1016MOL0     H37111   1.265   4.512  -0.204  1.5281  1.0772 -3.5190
 1016MOL0     H37112   1.545   4.708  -0.292  1.3762  1.6630 -1.3322
 1016MOL0     H37113   1.405   4.612  -0.366 -0.9564 -0.6520  1.8118
 1016MOL0     H37114   1.309   4.790  -0.453  1.3883 -2.5303 -2.0920
 1016MOL0     H37115   1.408   4.914  -0.355  2.5620  1.2180 -2.1648
 1016MOL0     H37116   1.603   4.838  -0.479  0.3770 -0.6521  0.7257
 1016MOL0     H37117   1.471   4.883  -0.587  0.0169  1.1316  3.1699
 1016MOL0     H37118   1.565   4.610  -0.527 -0.6474  0.3105  1.0963
 1016MOL0     H37119   1.606   4.720  -0.661 -1.6147  0.4930 -0.7969
 1016MOL0     H37120   1.222   4.596  -0.840 -1.7597 -3.5096 -0.8632
 1016MOL0     H37121   1.228   4.447  -1.043 -0.1175 -0.6616  0.9797
 1016MOL0     H37122   1.440   4.082  -1.266 -0.6608 -0.4998  1.1728
 1016MOL0     H37123   1.538   3.909  -1.422 -0.5319  1.1951 -2.4873
 1016MOL0     H37124   1.735   3.752  -1.443 -1.1053  1.0888  0.4735
 1016MOL0     H37125   1.653   3.777  -1.605 -0.9746  2.0308  0.7449
 1016MOL0     H37126   1.846   3.766  -1.725 -2.2322  0.2863  0.9754
 1016MOL0     H37127   1.957   3.788  -1.597  0.4985 -0.3866 -3.6619
 1016MOL0     H37128   1.934   3.568  -1.503 -0.2702  1.2524  0.7588
 1016MOL0     H37129   1.778   3.547  -1.572  0.1767  0.8675  1.2099
 1016MOL0     H37130   2.043   3.535  -1.722 -0.3325  2.3647  3.6078
 1016MOL0     H37131   1.883   3.549  -1.807 -1.2803 -0.5017 -0.1969
 1016MOL0     H37132   1.823   3.354  -1.667 -0.5432 -0.2331 -0.0646
 1016MOL0     H37133   1.976   3.335  -1.593 -1.0468 -0.0893 -0.4682
 1016MOL0     H37134   1.896   3.312  -1.874  0.7486 -0.5159 -1.4552
 1016MOL0     H37135   2.068   3.288  -1.824  0.2022 -0.4924  1.6734
 1016MOL0     H37136   1.842   3.113  -1.714  0.1060  0.5119 -0.8510
 1016MOL0     H37137   2.018   3.094  -1.684 -0.3979  0.3584  1.8683
 1016MOL0     H37138   1.939   2.940  -1.858  0.3571  0.2051  1.1271
 1016MOL0     H37139   1.847   3.083  -1.935 -0.0396 -0.7767  0.3189
 1016MOL0     H37140   1.898   4.122  -1.426 -0.6524  0.0008 -2.6618
 1016MOL0     H37141   1.804   4.298  -1.268  0.0471 -0.2548  1.4893
 1016MOL0     H37142   1.662   4.438  -0.995 -1.4402 -5.9920  3.4073
 1016MOL0     H37143   1.656   4.558  -0.800  0.4786  0.8201 -1.1563
 1016MOL0     H37144   0.694   3.676   0.387  2.2625  1.6372 -2.7802
 1016MOL0     H37145   0.718   3.446   0.444  0.2031 -0.1794 -1.3074
 1016MOL0     H37146   0.792   3.137   0.870 -2.5720  1.5027 -2.4841
 1016MOL0     H37147   0.762   2.913   0.891 -0.0682  0.5584  0.9185
 1016MOL0     H37148   1.008   2.683   0.838 -1.6018 -0.6836  3.0531
 1016MOL0     H37149   1.001   2.570   0.700  0.2406  0.7398 -0.8632
 1016MOL0     H37150   0.926   2.439   0.881 -0.6125  0.8532  2.8481
 1016MOL0     H37151   0.772   2.493   0.815 -0.1120 -0.6562 -0.0184
 1016MOL0     H37152   0.724   2.590   1.003 -0.8592  0.1920 -0.6530
 1016MOL0     H37153   0.875   2.686   1.015  1.4670 -1.3290  1.7677
 1016MOL0     H37154   0.966   2.471   1.129  1.2477 -1.6769 -5.3916
 1016MOL0     H37155   0.820   2.562   1.196  1.8120  0.1050  0.9699
 1016MOL0     H37156   0.724   2.150   1.085  1.4333 -1.4626  3.3081
 1016MOL0     H37157   0.984   2.829   0.528  0.3698  0.1994  0.2069
 1016MOL0     H37158   1.187   3.041   0.517  0.8911 -3.1949 -4.3335
 1016MOL0     H37159   1.055   3.012   0.406  1.1785 -1.5632  1.0213
 1016MOL0     H37160   1.070   3.180   0.466 -2.7663 -1.1855 -1.2643
 1017MOL0     O37161   8.364   9.838   5.451  0.1262  0.2669  0.5940
 1017MOL0     C37162   8.487   9.803   5.466  0.2029 -1.2118  0.8224
 1017MOL0     O37163   8.554   9.792   5.586  0.1973  0.4938  0.5104
 1017MOL0     C37164   8.481   9.804   5.701  0.6849  0.9234 -0.2523
 1017MOL0     C37165   8.377   9.893   5.730 -0.8087 -0.8182  0.3116
 1017MOL0     C37166   8.309   9.899   5.852  0.0372 -0.8529  0.1532
 1017MOL0     C37167   8.327   9.791   5.942 -0.5110  0.5467  0.0750
 1017MOL0     O37168   8.268   9.772   6.067  0.2895  0.5870 -0.4286
 1017MOL0     C37169   8.126   9.747   6.047 -0.7604 -0.4586 -0.0715
 1017MOL0     C37170   8.042   9.747   6.181 -0.4845  0.4166  0.4692
 1017MOL0     C37171   8.112   9.666   6.305  0.7801 -0.0693 -0.4267
 1017MOL0     C37172   8.010   9.628   6.411  0.5305  1.0678  0.2547
 1017MOL0     C37173   8.082   9.606   6.543 -0.7480 -0.2899  0.0358
 1017MOL0     C37174   8.025   9.483   6.618  0.5415  0.7240  0.6247
 1017MOL0     C37175   8.095   9.459   6.751 -0.1719 -0.5301  0.0042
 1017MOL0     C37176   8.059   9.335   6.825 -0.4434  0.6704  1.1245
 1017MOL0     N37177   8.116   9.227   6.761  0.2727  0.7371 -1.0170
 1017MOL0     C37178   8.046   9.123   6.705 -0.3785 -0.1937 -0.7696
 1017MOL0     C37179   8.139   9.038   6.654  0.7360 -0.1712 -0.0050
 1017MOL0     C37180   8.121   8.909   6.564  0.2540 -0.6223 -0.4663
 1017MOL0     C37181   8.061   8.798   6.659 -0.0459 -0.0605 -0.3855
 1017MOL0     C37182   8.177   8.751   6.749 -0.6235  0.4861  0.6118
 1017MOL0     C37183   8.125   8.672   6.884 -0.4358  0.6865  0.2457
 1017MOL0     O37184   8.070   8.547   6.831 -0.0433  0.4644 -0.5268
 1017MOL0     C37185   8.002   8.460   6.910 -0.9873  0.0612 -0.2498
 1017MOL0     C37186   7.938   8.362   6.833  0.9120  0.0206  0.5432
 1017MOL0     C37187   7.858   8.262   6.891  0.9823 -0.9346  0.1592
 1017MOL0     C37188   7.859   8.265   7.034  0.4908 -0.0892  0.4819
 1017MOL0     C37189   7.776   8.170   7.106 -0.6913 -1.0427 -0.3500
 1017MOL0     O37190   7.758   8.194   7.248 -0.0201  0.4814 -0.3742
 1017MOL0     C37191   7.679   8.095   7.303 -0.0823  0.8416  1.0076
 1017MOL0     C37192   7.560   8.125   7.370 -0.3752 -0.1364  0.8341
 1017MOL0     C37193   7.481   8.028   7.425  0.7862 -1.1911 -0.4295
 1017MOL0     C37194   7.516   7.901   7.419  0.1925 -0.0853  0.6991
 1017MOL0     O37195   7.435   7.799   7.463  0.2710 -0.4515  0.3753
 1017MOL0     C37196   7.436   7.773   7.601 -0.6482 -0.2287  0.0615
 1017MOL0     C37197   7.343   7.662   7.628 -0.4029 -0.3474 -0.5334
 1017MOL0     C37198   7.194   7.670   7.588 -0.1204 -0.7378 -0.0681
 1017MOL0     C37199   7.127   7.812   7.603  0.2411  0.9233  0.0715
 1017MOL0     C37200   6.978   7.804   7.573 -0.7372 -1.3511 -0.0186
 1017MOL0     C37201   6.880   7.725   7.653 -0.0276  0.2177 -0.0876
 1017MOL0     C37202   6.730   7.774   7.646  0.3017  0.1239  0.0835
 1017MOL0     C37203   6.637   7.663   7.696 -0.0660 -0.1338  0.2219
 1017MOL0    Cl37204   6.686   7.636   7.856 -0.3623 -0.3338  0.3146
 1017MOL0     C37205   7.639   7.865   7.369 -1.1599  0.5396 -0.0486
 1017MOL0     C37206   7.716   7.958   7.309  0.6235 -1.4242 -0.8398
 1017MOL0     O37207   7.723   8.091   7.036  0.0119 -0.1657  0.0834
 1017MOL0     C37208   7.928   8.364   7.111  0.1864  0.6625 -0.6739
 1017MOL0     C37209   8.003   8.464   7.047  0.7526  0.4667 -0.0892
 1017MOL0     N37210   8.261   9.080   6.708  0.3766  1.2527 -1.1739
 1017MOL0     N37211   8.245   9.184   6.784  0.0778  0.0303 -0.0612
 1017MOL0     C37212   8.428   9.698   5.914 -0.7465  0.6156  0.0631
 1017MOL0     C37213   8.498   9.701   5.795  0.2141  0.7370  0.0569
 1017MOL0     C37214   8.567   9.771   5.343  0.3657  0.2165 -0.1039
 1017MOL0     C37215   8.500   9.762   5.220  0.6709 -0.0029 -0.4934
 1017MOL0     C37216   8.572   9.748   5.111 -0.0273 -1.1853 -0.6473
 1017MOL0     C37217   8.700   9.745   5.100 -0.7358  0.0129  0.2696
 1017MOL0     O37218   8.772   9.741   4.982 -0.5359 -0.2969  0.4198
 1017MOL0     C37219   8.786   9.609   4.934 -0.2299 -0.0266 -0.5609
 1017MOL0     C37220   8.766   9.610   4.782 -0.0881 -0.3318 -0.3573
 1017MOL0     C37221   8.838   9.697   4.693 -0.3559 -0.9923  0.6575
 1017MOL0     C37222   8.973   9.644   4.655 -1.0461 -0.4219 -0.2774
 1017MOL0     C37223   8.956   9.558   4.528  0.0300  0.6491 -0.9435
 1017MOL0     C37224   8.917   9.498   4.432  0.6239  0.4242 -0.5101
 1017MOL0     C37225   8.773   9.754   5.218 -0.2939 -0.3045  0.1723
 1017MOL0     C37226   8.710   9.759   5.345  0.4544 -0.2411 -0.0122
 1017MOL0     C37227   8.805   9.751   5.471  0.0518  0.2270 -0.1577
 1017MOL0     H37228   8.356   9.975   5.661  1.1379  0.4372  1.1181
 1017MOL0     H37229   8.237   9.977   5.875  0.8735 -0.1493  0.4426
 1017MOL0     H37230   8.081   9.826   5.987  3.2340  2.0890 -0.1047
 1017MOL0     H37231   8.113   9.654   5.990  3.0398 -0.2806 -1.5678
 1017MOL0     H37232   7.948   9.702   6.149 -1.1607  0.7256  1.9426
 1017MOL0     H37233   8.031   9.850   6.217 -1.9646 -0.0651  1.4998
 1017MOL0     H37234   8.182   9.738   6.348 -1.5432  1.0042  1.8043
 1017MOL0     H37235   8.158   9.574   6.266 -0.0940  0.1033 -1.9765
 1017MOL0     H37236   7.935   9.707   6.403 -0.6657 -0.1854 -2.4459
 1017MOL0     H37237   7.969   9.531   6.381  4.9252 -2.4195  4.0112
 1017MOL0     H37238   8.184   9.580   6.513 -1.6867 -3.0410 -1.0760
 1017MOL0     H37239   8.083   9.694   6.608 -0.3971 -0.0075 -0.3467
 1017MOL0     H37240   7.919   9.488   6.646  0.0553 -2.1557 -0.3526
 1017MOL0     H37241   8.033   9.400   6.547 -1.5006  1.1994 -0.2426
 1017MOL0     H37242   8.061   9.539   6.817  0.2038 -0.3600 -0.0039
 1017MOL0     H37243   8.204   9.453   6.758 -0.3048 -0.9419  3.0486
 1017MOL0     H37244   8.109   9.348   6.922  0.5586  0.8964  0.5932
 1017MOL0     H37245   7.951   9.323   6.832 -0.4995  0.9675  0.7816
 1017MOL0     H37246   7.943   9.114   6.672 -0.2192 -0.8131 -1.1143
 1017MOL0     H37247   8.044   8.935   6.491 -0.3722  2.4791  1.1291
 1017MOL0     H37248   8.208   8.876   6.508 -0.1224  2.3085 -3.0650
 1017MOL0     H37249   7.972   8.830   6.713 -0.1725 -0.2569 -0.4766
 1017MOL0     H37250   8.037   8.711   6.596  0.4246  0.2381 -0.9844
 1017MOL0     H37251   8.245   8.831   6.779  3.4803 -1.8418 -1.6121
 1017MOL0     H37252   8.247   8.688   6.694 -1.4054  1.0485 -1.1112
 1017MOL0     H37253   8.048   8.722   6.944 -2.4894 -2.0072  0.0503
 1017MOL0     H37254   8.213   8.642   6.942 -1.1005  0.3219  1.0825
 1017MOL0     H37255   7.940   8.362   6.724 -1.8941 -1.5930  0.3985
 1017MOL0     H37256   7.805   8.184   6.837 -0.2388 -1.5399  2.1461
 1017MOL0     H37257   7.528   8.228   7.379 -2.0733 -0.5619  0.0550
 1017MOL0     H37258   7.388   8.041   7.479  0.3382 -1.9350 -0.9988
 1017MOL0     H37259   7.539   7.745   7.624 -0.8591 -1.2662 -0.2266
 1017MOL0     H37260   7.414   7.862   7.662  1.5617 -0.2104  0.9148
 1017MOL0     H37261   7.393   7.568   7.603 -0.7954 -0.3649 -1.2765
 1017MOL0     H37262   7.347   7.676   7.736  0.3303  3.0374 -0.8872
 1017MOL0     H37263   7.191   7.631   7.486  4.0629 -0.0769 -0.6459
 1017MOL0     H37264   7.133   7.600   7.645 -1.6023 -0.8947 -1.7609
 1017MOL0     H37265   7.179   7.881   7.536 -1.2631  0.5970 -1.5397
 1017MOL0     H37266   7.138   7.843   7.707  0.6225  1.8033 -0.2264
 1017MOL0     H37267   6.974   7.787   7.465  2.5183 -0.5806 -0.3813
 1017MOL0     H37268   6.946   7.909   7.578  2.4481 -0.2696  0.0231
 1017MOL0     H37269   6.887   7.621   7.618  3.5854  0.8217 -1.6428
 1017MOL0     H37270   6.926   7.740   7.751  2.3083 -0.1197 -1.0674
 1017MOL0     H37271   6.697   7.771   7.541 -0.7744 -3.9124  0.3608
 1017MOL0     H37272   6.717   7.864   7.705  1.2326  0.8137 -0.7314
 1017MOL0     H37273   6.533   7.696   7.692  0.3124  1.4566  1.8932
 1017MOL0     H37274   6.649   7.568   7.643  1.3126  1.0954 -1.8528
 1017MOL0     H37275   7.671   7.762   7.358 -0.0090  0.9553 -0.8026
 1017MOL0     H37276   7.805   7.919   7.260  1.0300 -1.2015 -0.2899
 1017MOL0     H37277   7.912   8.376   7.218 -2.2080  0.3712 -0.9311
 1017MOL0     H37278   8.033   8.546   7.112 -2.4927 -0.6168  3.0953
 1017MOL0     H37279   8.452   9.621   5.987 -2.0288  0.0648 -0.0699
 1017MOL0     H37280   8.580   9.634   5.772  0.8983  1.3693  0.5940
 1017MOL0     H37281   8.393   9.758   5.237  1.1997 -0.6397  3.6859
 1017MOL0     H37282   8.504   9.744   5.026 -0.7621  0.7512 -0.1975
 1017MOL0     H37283   8.706   9.545   4.973 -1.7674  1.7793 -0.5781
 1017MOL0     H37284   8.879   9.556   4.954 -1.2403 -0.7348  3.1849
 1017MOL0     H37285   8.663   9.646   4.770  1.1411  4.1527  0.6591
 1017MOL0     H37286   8.774   9.510   4.738  1.7100 -0.4027  0.0791
 1017MOL0     H37287   8.851   9.794   4.742  0.9338  0.7025 -2.7620
 1017MOL0     H37288   8.784   9.727   4.603 -0.3403 -0.2765  0.8761
 1017MOL0     H37289   9.043   9.724   4.631  0.3650 -1.2840  0.8383
 1017MOL0     H37290   9.013   9.581   4.735  0.0562  2.0141  1.1974
 1017MOL0     H37291   8.872   9.440   4.355  0.2885 -0.1687  0.1228
 1017MOL0     H37292   8.880   9.741   5.208  0.5809  1.9402  4.1280
 1017MOL0     H37293   8.904   9.768   5.428 -0.7217 -0.5624 -2.4484
 1017MOL0     H37294   8.774   9.823   5.546 -2.1602 -0.0231 -0.7624
 1017MOL0     H37295   8.795   9.649   5.510  0.5206  0.5261  0.7563
 1018MOL0     O37296   9.292   8.648   9.500  0.1429 -0.0009  0.7861
 1018MOL0     C37297   9.197   8.619   9.428  0.3159  0.1743 -1.1467
 1018MOL0     O37298   9.121   8.513   9.448  0.3530  0.5039  0.8155
 1018MOL0     C37299   9.154   8.410   9.535 -0.2895 -0.2955 -0.1174
 1018MOL0     C37300   9.201   8.422   9.671  0.5790 -0.3772 -0.8611
 1018MOL0     C37301   9.222   8.308   9.757 -0.2304 -0.0595 -0.0151
 1018MOL0     C37302   9.219   8.177   9.710  0.1306 -0.2252  0.2283
 1018MOL0     O37303   9.252   8.061   9.779 -0.1903 -0.0500  0.2159
 1018MOL0     C37304   9.344   8.083   9.882  0.9983 -0.6844  0.2823
 1018MOL0     C37305   9.492   8.077   9.827  0.4200 -0.0435 -0.6579
 1018MOL0     C37306   9.589   8.121   9.933 -0.0987  0.5072 -0.1717
 1018MOL0     C37307   9.577   8.035  10.056  0.4842 -0.8803 -0.2168
 1018MOL0     C37308   9.704   8.065  10.141 -0.2429 -0.4862  0.7594
 1018MOL0     C37309   9.691   7.997  10.273  0.0415  1.5869  0.3281
 1018MOL0     C37310   9.833   7.961  10.313  1.0742 -0.1022 -0.9512
 1018MOL0     C37311   9.852   7.892  10.442 -1.1095  0.5854 -0.0803
 1018MOL0     N37312   9.827   7.984  10.553 -0.1237 -1.0858 -0.1413
 1018MOL0     C37313   9.896   8.097  10.580  0.0974  0.2216  0.2539
 1018MOL0     C37314   9.847   8.137  10.701  0.2761  0.1397 -0.7764
 1018MOL0     C37315   9.880   8.263  10.780  0.3022 -0.3181  0.0317
 1018MOL0     C37316  10.001   8.248  10.872 -0.7090  0.1965 -0.0300
 1018MOL0     C37317   9.972   8.299  11.023 -0.2947 -0.1358  1.5266
 1018MOL0     C37318  10.104   8.278  11.104 -0.1119  0.1171  0.5120
 1018MOL0     O37319  10.177   8.401  11.107 -0.3787 -0.8062  0.9002
 1018MOL0     C37320  10.266   8.427  11.205  0.2040 -0.0770 -0.3328
 1018MOL0     C37321  10.276   8.561  11.249 -0.9110  1.2203  1.2133
 1018MOL0     C37322  10.325   8.598  11.368  0.3130  0.6110 -1.2125
 1018MOL0     C37323  10.401   8.503  11.434  0.8276  0.4082 -0.6085
 1018MOL0     C37324  10.468   8.547  11.553  0.8764 -0.3694  0.5457
 1018MOL0     O37325  10.542   8.455  11.625  0.6494  0.5284 -0.1769
 1018MOL0     C37326  10.595   8.503  11.742 -0.1680  0.3774 -0.0402
 1018MOL0     C37327  10.701   8.592  11.739  0.4095  0.4996 -0.2466
 1018MOL0     C37328  10.770   8.630  11.850 -0.2967 -0.3850  0.5091
 1018MOL0     C37329  10.713   8.594  11.972 -0.5559  0.3580  0.2229
 1018MOL0     O37330  10.763   8.644  12.089 -0.0730 -0.3762 -0.1511
 1018MOL0     C37331  10.716   8.600  12.226  0.2598  0.0490  0.0523
 1018MOL0     C37332  10.747   8.716  12.317 -0.2126 -0.3025  0.2957
 1018MOL0     C37333  10.711   8.684  12.465 -0.4249  0.1566  0.4978
 1018MOL0     C37334  10.764   8.796  12.548 -0.4297  0.0774  0.3515
 1018MOL0     C37335  10.761   8.782  12.701  0.1906 -0.5769  0.1770
 1018MOL0     C37336  10.837   8.884  12.773 -1.1113  0.3727 -0.5306
 1018MOL0     C37337  10.962   8.833  12.853  0.5425 -0.3790 -0.4795
 1018MOL0     C37338  11.053   8.943  12.894 -0.5900 -0.2472 -0.7923
 1018MOL0    Cl37339  10.990   8.999  13.055  0.4704  0.4993  0.3111
 1018MOL0     C37340  10.602   8.504  11.977 -0.3515  0.9198  0.7303
 1018MOL0     C37341  10.554   8.455  11.861  0.1646  0.6581 -0.9054
 1018MOL0     O37342  10.451   8.668  11.588  0.1027  0.3262  0.5873
 1018MOL0     C37343  10.400   8.369  11.396 -0.1824  0.1366 -0.1373
 1018MOL0     C37344  10.333   8.335  11.284 -0.3376 -0.7703 -0.8920
 1018MOL0     N37345   9.769   8.037  10.750 -0.2063  0.0340 -0.8403
 1018MOL0     N37346   9.742   7.953  10.659 -0.7780 -0.7818  0.6028
 1018MOL0     C37347   9.178   8.168   9.576  0.9585 -1.0144 -0.5382
 1018MOL0     C37348   9.128   8.275   9.492 -0.4969 -0.4818 -0.0300
 1018MOL0     C37349   9.172   8.715   9.325 -0.6957 -0.0988 -0.0321
 1018MOL0     C37350   9.085   8.676   9.227 -0.2481  0.3770  1.0676
 1018MOL0     C37351   9.047   8.761   9.119 -0.8625 -0.1872 -0.2176
 1018MOL0     C37352   9.102   8.884   9.108  0.4655 -0.5876 -0.8680
 1018MOL0     O37353   9.047   8.967   9.010  0.1992  0.4955 -0.0943
 1018MOL0     C37354   9.104   9.099   8.981  0.1335  0.9332 -0.5593
 1018MOL0     C37355   9.225   9.084   8.887 -0.3649  0.3857  0.3074
 1018MOL0     C37356   9.190   9.028   8.739  0.2642  0.3001 -0.0303
 1018MOL0     C37357   9.316   9.019   8.654  0.0990  0.9297  1.0174
 1018MOL0     C37358   9.373   8.896   8.701  0.2702 -0.0545 -0.4784
 1018MOL0     C37359   9.416   8.801   8.756  0.2376  0.0098 -0.0294
 1018MOL0     C37360   9.179   8.933   9.210 -0.0569  0.2358  0.3592
 1018MOL0     C37361   9.214   8.856   9.323  0.0195  0.4349  0.9310
 1018MOL0     C37362   9.292   8.930   9.429  0.1910 -0.5261  1.5824
 1018MOL0     H37363   9.226   8.517   9.717  0.8531 -1.7134  2.0008
 1018MOL0     H37364   9.257   8.337   9.856  1.6727  1.4574 -1.0580
 1018MOL0     H37365   9.323   8.170   9.945  3.0074 -0.4360  0.6700
 1018MOL0     H37366   9.325   8.007   9.958 -2.6019 -1.9138 -1.5717
 1018MOL0     H37367   9.494   8.154   9.749 -2.8850  1.4203  0.4978
 1018MOL0     H37368   9.513   7.977   9.787 -0.1191 -1.9755  3.4016
 1018MOL0     H37369   9.569   8.226   9.956  2.3774  1.3208 -1.3382
 1018MOL0     H37370   9.687   8.126   9.884 -0.2965  3.3865 -0.4919
 1018MOL0     H37371   9.487   8.050  10.117  0.4329 -2.4680  0.1584
 1018MOL0     H37372   9.566   7.932  10.020 -1.3444 -1.8093  2.6262
 1018MOL0     H37373   9.793   8.037  10.084  0.7603  3.0027  0.3299
 1018MOL0     H37374   9.721   8.172  10.159  3.9302 -1.2373  2.4225
 1018MOL0     H37375   9.626   8.056  10.339 -0.7889  1.4138 -0.3195
 1018MOL0     H37376   9.642   7.902  10.252  0.9588  1.4833 -1.5436
 1018MOL0     H37377   9.889   8.055  10.322 -0.8337  1.0524 -0.6687
 1018MOL0     H37378   9.867   7.886  10.241  1.5084 -0.5193 -0.3225
 1018MOL0     H37379   9.780   7.810  10.447 -4.2048  3.0371 -1.2708
 1018MOL0     H37380   9.957   7.860  10.442 -0.7871  1.4731  2.0163
 1018MOL0     H37381   9.969   8.151  10.521 -0.2819 -0.2637 -0.6835
 1018MOL0     H37382   9.887   8.350  10.715 -1.2732 -0.6728 -0.6727
 1018MOL0     H37383   9.792   8.295  10.837  0.9497  1.3966  0.1165
 1018MOL0     H37384  10.025   8.142  10.884 -2.4880 -0.4247 -1.4708
 1018MOL0     H37385  10.076   8.312  10.825 -1.1294  0.7762  0.0759
 1018MOL0     H37386   9.885   8.253  11.070 -0.9273 -0.4587  0.0826
 1018MOL0     H37387   9.933   8.401  11.011 -2.0168 -0.8653  0.6332
 1018MOL0     H37388  10.162   8.198  11.057 -2.0253 -2.6617  2.5761
 1018MOL0     H37389  10.081   8.254  11.208 -3.0334 -0.0124 -0.0955
 1018MOL0     H37390  10.214   8.639  11.206 -1.1690  0.9373  1.0670
 1018MOL0     H37391  10.314   8.699  11.407 -0.7489 -0.8966  2.9273
 1018MOL0     H37392  10.724   8.634  11.642 -0.2724  1.1222 -0.1492
 1018MOL0     H37393  10.868   8.676  11.861  0.8102 -2.7282  0.9851
 1018MOL0     H37394  10.608   8.587  12.231  0.4664 -1.4793  1.3517
 1018MOL0     H37395  10.772   8.509  12.253 -1.1042 -1.9064 -3.0814
 1018MOL0     H37396  10.853   8.741  12.305 -0.4327  1.1322  1.1992
 1018MOL0     H37397  10.693   8.805  12.284 -3.4788 -2.3471 -0.3762
 1018MOL0     H37398  10.602   8.683  12.477 -0.8387 -0.4609 -2.4499
 1018MOL0     H37399  10.748   8.589  12.503  0.5487  0.6229  0.7429
 1018MOL0     H37400  10.717   8.887  12.512  2.5958  0.6532 -2.6135
 1018MOL0     H37401  10.869   8.806  12.518 -0.6462  1.6513  0.0566
 1018MOL0     H37402  10.780   8.676  12.717  2.8406 -0.4291 -1.5625
 1018MOL0     H37403  10.655   8.800  12.724 -0.4303 -1.5788 -1.7187
 1018MOL0     H37404  10.855   8.968  12.705 -2.3646  2.5531  1.6809
 1018MOL0     H37405  10.774   8.914  12.857  1.6203 -0.2072  1.8859
 1018MOL0     H37406  11.018   8.763  12.790 -1.1903 -2.2707 -0.0201
 1018MOL0     H37407  10.921   8.775  12.936 -1.5313  1.6177 -0.0232
 1018MOL0     H37408  11.150   8.894  12.887 -0.4078  0.3079 -2.5177
 1018MOL0     H37409  11.050   9.024  12.820  2.1267  1.4728  0.8242
 1018MOL0     H37410  10.547   8.482  12.068  0.3992  0.2263  1.0238
 1018MOL0     H37411  10.462   8.398  11.872 -1.4177  3.4354  1.7539
 1018MOL0     H37412  10.464   8.295  11.442  1.1734  0.2346 -1.7580
 1018MOL0     H37413  10.346   8.233  11.248 -1.5310 -1.1956 -0.1478
 1018MOL0     H37414   9.153   8.073   9.529 -2.8021 -0.6882  0.4731
 1018MOL0     H37415   9.082   8.250   9.397  0.0067  0.4311 -0.5339
 1018MOL0     H37416   9.050   8.575   9.213 -1.9143  1.1589 -1.0035
 1018MOL0     H37417   8.983   8.724   9.039 -1.2080 -3.5128  1.4228
 1018MOL0     H37418   9.116   9.150   9.077  2.7268 -0.1703 -0.2113
 1018MOL0     H37419   9.034   9.161   8.923  1.2892 -0.6461 -3.8602
 1018MOL0     H37420   9.303   9.028   8.940 -0.6916  1.1118  1.5993
 1018MOL0     H37421   9.276   9.180   8.876 -2.9271  1.6443 -1.5658
 1018MOL0     H37422   9.125   9.107   8.701 -0.0900  0.8334  1.6038
 1018MOL0     H37423   9.127   8.944   8.769 -0.6719  2.2420  4.2619
 1018MOL0     H37424   9.278   9.007   8.552 -1.2045  0.4897  1.5369
 1018MOL0     H37425   9.377   9.110   8.654 -0.9758  1.7604 -1.6960
 1018MOL0     H37426   9.454   8.711   8.799 -0.1817  0.5226  1.4567
 1018MOL0     H37427   9.200   9.039   9.209 -1.6012  0.5692  0.4311
 1018MOL0     H37428   9.386   8.878   9.450  1.0644  0.9059  1.3450
 1018MOL0     H37429   9.332   9.024   9.392 -1.1989 -0.4627  0.1369
 1018MOL0     H37430   9.226   8.967   9.509 -1.3379  3.0182 -1.0792
 1019MOL0     O37431   0.808   5.551   5.468 -0.3047 -0.9424  0.1303
 1019MOL0     C37432   0.855   5.440   5.490 -1.0650  0.2843 -0.1290
 1019MOL0     O37433   0.818   5.324   5.429  0.3158 -0.4525 -0.7959
 1019MOL0     C37434   0.749   5.343   5.308 -0.2776  0.7538  0.8726
 1019MOL0     C37435   0.810   5.339   5.179 -0.4895 -0.8260 -0.0667
 1019MOL0     C37436   0.735   5.344   5.061  0.8250 -0.7689  0.1270
 1019MOL0     C37437   0.592   5.332   5.067 -0.5891  0.2557  0.0966
 1019MOL0     O37438   0.511   5.300   4.958 -0.7547  0.2141  0.0548
 1019MOL0     C37439   0.558   5.343   4.827 -0.1320 -0.3842 -0.2584
 1019MOL0     C37440   0.551   5.491   4.801  0.2548  0.1218  0.4275
 1019MOL0     C37441   0.628   5.516   4.668  0.2011 -0.2149  0.3522
 1019MOL0     C37442   0.782   5.520   4.692  0.2523 -0.9626  0.9091
 1019MOL0     C37443   0.867   5.592   4.569 -0.2111  0.8962  0.1225
 1019MOL0     C37444   1.020   5.551   4.591  0.1663 -1.5792  0.1728
 1019MOL0     C37445   1.098   5.608   4.462  0.3898  0.3246 -0.7291
 1019MOL0     C37446   1.180   5.491   4.417  0.5399 -0.0934  0.2170
 1019MOL0     N37447   1.266   5.527   4.297 -0.3937  0.1759  0.4912
 1019MOL0     C37448   1.395   5.579   4.306 -0.5023  1.1571  0.2796
 1019MOL0     C37449   1.421   5.629   4.183  0.0237  0.0470 -0.3887
 1019MOL0     C37450   1.542   5.706   4.138 -0.9085  1.0551 -0.2659
 1019MOL0     C37451   1.657   5.615   4.078  0.6800 -0.7140  0.6076
 1019MOL0     C37452   1.761   5.561   4.168  0.5024 -0.2954 -0.4910
 1019MOL0     C37453   1.847   5.467   4.101 -0.2307 -0.4740 -0.5533
 1019MOL0     O37454   1.784   5.337   4.095 -0.0237 -0.6212  0.0016
 1019MOL0     C37455   1.814   5.266   3.979  0.1475 -0.8418  1.1420
 1019MOL0     C37456   1.722   5.172   3.931 -1.0313  0.1201 -0.0738
 1019MOL0     C37457   1.753   5.106   3.819  0.1689  0.0966  0.7290
 1019MOL0     C37458   1.873   5.120   3.742  0.5934 -0.4243 -0.3208
 1019MOL0     C37459   1.906   5.060   3.619 -0.8983  0.5588  0.6058
 1019MOL0     O37460   2.000   5.120   3.533 -0.3486 -0.0816 -0.3116
 1019MOL0     C37461   2.030   5.052   3.425 -0.2006 -0.2159 -0.9721
 1019MOL0     C37462   1.934   5.019   3.330  0.2115 -0.6698  0.1016
 1019MOL0     C37463   1.985   4.949   3.217  1.3937 -0.5750 -0.5535
 1019MOL0     C37464   2.115   4.905   3.198 -0.6189 -0.0998  0.1379
 1019MOL0     O37465   2.151   4.845   3.085  0.1255  0.5693  0.5799
 1019MOL0     C37466   2.094   4.713   3.072  0.0937 -1.0266 -0.5279
 1019MOL0     C37467   1.964   4.717   2.977 -0.0626  0.4635 -0.6444
 1019MOL0     C37468   1.989   4.801   2.846  0.2011  0.7977  1.1345
 1019MOL0     C37469   1.895   4.771   2.734 -0.1858 -0.1678 -0.3627
 1019MOL0     C37470   1.913   4.848   2.606 -0.1649  0.2412 -0.7400
 1019MOL0     C37471   1.796   4.817   2.510  1.0233  0.7140  0.3333
 1019MOL0     C37472   1.756   4.672   2.463 -0.4483  0.0152  0.3083
 1019MOL0     C37473   1.871   4.569   2.453 -0.3539  0.9201  0.5931
 1019MOL0    Cl37474   1.959   4.591   2.296  0.0887  0.1093  0.5289
 1019MOL0     C37475   2.206   4.928   3.305  0.0651  0.3742  0.6893
 1019MOL0     C37476   2.157   4.995   3.419  0.2216 -0.2430  0.2902
 1019MOL0     O37477   1.861   4.948   3.612  0.0868  0.8632  1.1127
 1019MOL0     C37478   1.962   5.219   3.794 -0.4710  0.2983 -0.2437
 1019MOL0     C37479   1.929   5.291   3.912 -0.5775  0.0280 -0.0099
 1019MOL0     N37480   1.303   5.618   4.106  1.2164 -0.0899  0.4620
 1019MOL0     N37481   1.208   5.557   4.172 -0.1170  0.3552 -0.1433
 1019MOL0     C37482   0.536   5.344   5.194  0.0262 -0.4612  0.0439
 1019MOL0     C37483   0.608   5.344   5.308 -0.3127 -0.9140  0.5069
 1019MOL0     C37484   0.970   5.429   5.592  0.0171  0.4348 -0.0780
 1019MOL0     C37485   1.043   5.312   5.592 -0.5448 -0.1675 -0.0475
 1019MOL0     C37486   1.152   5.291   5.678  0.3097  0.5954  0.3157
 1019MOL0     C37487   1.200   5.393   5.750 -0.0948 -0.4753  1.1321
 1019MOL0     O37488   1.317   5.385   5.819 -0.1033  0.2084 -0.3751
 1019MOL0     C37489   1.302   5.373   5.965 -0.0105 -0.9551  0.1907
 1019MOL0     C37490   1.425   5.313   6.024 -0.4383  0.8102  1.0805
 1019MOL0     C37491   1.459   5.165   5.978  0.2453 -0.2956 -0.2912
 1019MOL0     C37492   1.593   5.118   6.039  0.0608  0.2816 -0.2570
 1019MOL0     C37493   1.584   5.106   6.189  0.4298 -0.0896  1.1847
 1019MOL0     C37494   1.560   5.097   6.309  0.4782  0.1453  0.0655
 1019MOL0     C37495   1.132   5.506   5.750 -0.2063 -0.6863 -0.6785
 1019MOL0     C37496   1.013   5.529   5.685  0.0470  0.2039 -0.8568
 1019MOL0     C37497   0.937   5.659   5.695 -0.0295 -0.2183  0.0324
 1019MOL0     H37498   0.918   5.338   5.163 -0.4848  1.4291 -0.5060
 1019MOL0     H37499   0.793   5.331   4.971  3.3781 -1.7635  1.7988
 1019MOL0     H37500   0.661   5.311   4.812 -0.2114 -1.5093  1.3365
 1019MOL0     H37501   0.494   5.286   4.759 -0.1103  0.2633 -0.8273
 1019MOL0     H37502   0.598   5.555   4.876  0.1124 -0.9986  1.4923
 1019MOL0     H37503   0.447   5.514   4.775  0.8426  0.3134 -2.0438
 1019MOL0     H37504   0.602   5.619   4.643 -0.4951 -0.7453 -1.2102
 1019MOL0     H37505   0.607   5.441   4.591  5.5557  1.2705 -3.1288
 1019MOL0     H37506   0.804   5.578   4.782  1.2621 -0.6647  0.4912
 1019MOL0     H37507   0.813   5.415   4.696  4.1136 -0.0601 -0.8540
 1019MOL0     H37508   0.837   5.542   4.477 -2.4343 -0.4688  1.5019
 1019MOL0     H37509   0.848   5.696   4.544  0.3705  0.8060 -0.7500
 1019MOL0     H37510   1.049   5.601   4.684 -0.1305 -1.3323  0.1327
 1019MOL0     H37511   1.035   5.443   4.604 -3.1691 -2.1521  0.4114
 1019MOL0     H37512   1.160   5.697   4.471  1.0108 -0.3096  2.4618
 1019MOL0     H37513   1.026   5.625   4.381 -2.3191 -0.3158  1.3763
 1019MOL0     H37514   1.251   5.457   4.493  0.7813  1.1181  0.5601
 1019MOL0     H37515   1.111   5.411   4.390  2.0717 -0.6297 -2.4860
 1019MOL0     H37516   1.469   5.574   4.385 -0.8870 -1.2637  0.5708
 1019MOL0     H37517   1.517   5.780   4.061  0.6418 -0.2712 -2.1306
 1019MOL0     H37518   1.593   5.763   4.216 -2.3749  0.1257  1.4615
 1019MOL0     H37519   1.617   5.534   4.016  0.0474  1.9984 -2.8094
 1019MOL0     H37520   1.709   5.687   4.015 -0.8605 -0.1428 -0.0502
 1019MOL0     H37521   1.715   5.516   4.257 -0.9159  1.9842 -0.0017
 1019MOL0     H37522   1.817   5.639   4.222 -2.4729  0.0204  2.4810
 1019MOL0     H37523   1.934   5.467   4.168  0.5256  0.4931 -1.4904
 1019MOL0     H37524   1.868   5.507   4.001 -0.0622 -0.0085 -0.3360
 1019MOL0     H37525   1.634   5.148   3.989  0.1328 -0.0463  1.6913
 1019MOL0     H37526   1.677   5.044   3.774  1.1918  1.1708 -2.8332
 1019MOL0     H37527   1.829   5.045   3.334  0.4009  0.2760 -0.6613
 1019MOL0     H37528   1.917   4.931   3.134  1.7828  1.1687 -1.2967
 1019MOL0     H37529   2.167   4.650   3.020  1.9408  0.8649 -0.3525
 1019MOL0     H37530   2.055   4.679   3.168  0.0355  2.6825  0.9096
 1019MOL0     H37531   1.953   4.615   2.940  3.2824 -0.9388  1.7345
 1019MOL0     H37532   1.870   4.742   3.028  0.3367  0.6760  0.0008
 1019MOL0     H37533   1.984   4.909   2.862  1.6781  1.2045 -0.7589
 1019MOL0     H37534   2.089   4.784   2.806  0.9371 -0.4529  3.3364
 1019MOL0     H37535   1.793   4.779   2.770  0.8356  0.7670  2.6093
 1019MOL0     H37536   1.922   4.665   2.729 -0.3846 -0.5246  3.5631
 1019MOL0     H37537   2.011   4.834   2.560 -1.1679  0.9825 -3.2835
 1019MOL0     H37538   1.905   4.954   2.633  3.3126  0.1962  1.0368
 1019MOL0     H37539   1.708   4.851   2.565  1.3971 -1.0566  2.1607
 1019MOL0     H37540   1.814   4.880   2.422  0.3710  0.3679 -0.0608
 1019MOL0     H37541   1.702   4.683   2.368 -0.6689 -3.2134 -0.0618
 1019MOL0     H37542   1.692   4.632   2.542 -2.4960 -1.3931 -1.9105
 1019MOL0     H37543   1.932   4.565   2.544 -1.1573  3.3504  1.2984
 1019MOL0     H37544   1.820   4.472   2.444  0.3222  0.1557  3.7625
 1019MOL0     H37545   2.309   4.898   3.288  0.1736  0.6083  0.9262
 1019MOL0     H37546   2.233   5.024   3.491 -0.7700 -0.8862  1.6268
 1019MOL0     H37547   2.058   5.240   3.748  1.8371 -2.3845  2.8808
 1019MOL0     H37548   2.004   5.359   3.949  2.2582 -2.4151 -0.9128
 1019MOL0     H37549   0.428   5.355   5.196 -0.6432 -4.5252 -2.1469
 1019MOL0     H37550   0.561   5.361   5.404  0.1100  2.3559  0.2502
 1019MOL0     H37551   1.012   5.218   5.547  0.7754 -0.8455  0.3780
 1019MOL0     H37552   1.198   5.192   5.683  0.6269  0.6354 -1.2685
 1019MOL0     H37553   1.215   5.312   5.990  0.6555 -1.8040  0.4693
 1019MOL0     H37554   1.277   5.468   6.014  2.2491  0.5985 -1.4082
 1019MOL0     H37555   1.421   5.322   6.133 -2.5359  0.3495  1.0765
 1019MOL0     H37556   1.511   5.378   6.004  0.2735 -0.4298 -0.0634
 1019MOL0     H37557   1.477   5.160   5.870  0.6349 -3.2178 -0.1560
 1019MOL0     H37558   1.373   5.103   6.004 -0.2368 -0.5086 -2.1954
 1019MOL0     H37559   1.610   5.015   6.004  0.9562 -1.0452  3.5422
 1019MOL0     H37560   1.679   5.180   6.012 -0.3417  0.2105 -1.7764
 1019MOL0     H37561   1.538   5.094   6.414  0.3917 -2.2469  0.0394
 1019MOL0     H37562   1.171   5.580   5.819 -2.8922 -1.2868  1.7025
 1019MOL0     H37563   0.830   5.642   5.686 -0.0803  0.3866 -0.6518
 1019MOL0     H37564   0.967   5.716   5.783 -1.9823 -2.3748  2.2233
 1019MOL0     H37565   0.957   5.722   5.607  2.7610 -2.8214 -1.4066
 1020MOL0     O37566   7.712   1.570   2.755  0.2806 -0.0313 -0.7344
 1020MOL0     C37567   7.646   1.471   2.776 -0.0651  0.2474 -0.0278
 1020MOL0     O37568   7.693   1.343   2.777 -0.5579 -1.2540 -0.1379
 1020MOL0     C37569   7.805   1.314   2.705 -0.3222 -0.4405 -0.3128
 1020MOL0     C37570   7.839   1.349   2.570  0.8474 -0.3748 -0.2033
 1020MOL0     C37571   7.969   1.330   2.522  1.2904  0.1757 -0.7207
 1020MOL0     C37572   8.054   1.274   2.613 -0.2240  0.2269  0.1669
 1020MOL0     O37573   8.175   1.246   2.559  0.8354 -0.1943 -0.6179
 1020MOL0     C37574   8.170   1.120   2.498  0.5507  0.1101 -0.9342
 1020MOL0     C37575   8.306   1.069   2.440  0.3139 -0.7189  0.1638
 1020MOL0     C37576   8.434   1.070   2.532  0.9313 -0.6108  0.3487
 1020MOL0     C37577   8.557   1.032   2.443 -0.5672 -1.0738 -0.6193
 1020MOL0     C37578   8.681   0.992   2.527  0.3029  0.6424  0.6028
 1020MOL0     C37579   8.799   1.001   2.443  0.2518 -0.4125  0.2574
 1020MOL0     C37580   8.840   1.146   2.401 -0.0458 -0.2948 -1.3080
 1020MOL0     C37581   8.984   1.143   2.338  0.5021 -0.5802 -0.4412
 1020MOL0     N37582   9.012   1.267   2.268 -0.8215  0.5994  0.0758
 1020MOL0     C37583   8.949   1.330   2.161  0.1697  0.2646 -0.6433
 1020MOL0     C37584   8.988   1.460   2.170  0.3280  1.0630 -0.6112
 1020MOL0     C37585   8.940   1.561   2.081  0.4417 -1.1908 -0.0265
 1020MOL0     C37586   8.797   1.600   2.133 -1.0537  0.7701 -0.1768
 1020MOL0     C37587   8.724   1.705   2.046  0.4851  0.7545  0.4383
 1020MOL0     C37588   8.591   1.743   2.113  0.2700  0.0707 -0.4612
 1020MOL0     O37589   8.523   1.868   2.074 -0.1173  0.2216 -1.3399
 1020MOL0     C37590   8.515   1.902   1.942  0.1385  0.0525  0.9093
 1020MOL0     C37591   8.385   1.906   1.880 -0.4038 -0.3931 -0.6968
 1020MOL0     C37592   8.365   1.941   1.751 -0.1602  0.2488  0.8473
 1020MOL0     C37593   8.475   1.975   1.667 -0.8222  0.3716  0.9954
 1020MOL0     C37594   8.463   1.998   1.511  0.4994  0.1560 -0.9080
 1020MOL0     O37595   8.334   2.000   1.448  0.2261 -0.0082 -0.1917
 1020MOL0     C37596   8.325   2.025   1.311  0.5148 -0.2718 -0.3368
 1020MOL0     C37597   8.383   2.138   1.252 -0.1149 -0.4121 -0.0837
 1020MOL0     C37598   8.367   2.162   1.114  0.5000 -0.1833 -0.5777
 1020MOL0     C37599   8.301   2.080   1.031  0.7331 -0.8691  0.2818
 1020MOL0     O37600   8.281   2.144   0.912 -0.0676  0.2662 -0.2066
 1020MOL0     C37601   8.160   2.110   0.839  0.5639  0.0674  0.1564
 1020MOL0     C37602   8.141   2.215   0.728  0.4325  0.5961  0.4234
 1020MOL0     C37603   8.056   2.168   0.617 -0.2424  1.2046  0.1338
 1020MOL0     C37604   8.102   2.182   0.470  0.0341 -1.0448  0.8564
 1020MOL0     C37605   8.138   2.329   0.428  0.3589  0.8657 -0.0055
 1020MOL0     C37606   8.168   2.337   0.281  0.8688  0.6758 -0.3231
 1020MOL0     C37607   8.149   2.486   0.243  0.9116 -0.7924  0.1588
 1020MOL0     C37608   8.209   2.525   0.111 -0.8924  0.7680  0.1560
 1020MOL0    Cl37609   8.394   2.489   0.086 -0.5431 -0.2693 -0.2381
 1020MOL0     C37610   8.241   1.965   1.084  0.0054  0.0216  0.5928
 1020MOL0     C37611   8.255   1.938   1.223  0.1748 -1.1301  0.7488
 1020MOL0     O37612   8.562   2.006   1.445  0.4765  0.2868  0.1232
 1020MOL0     C37613   8.601   1.974   1.724 -0.1643 -0.5894  0.4870
 1020MOL0     C37614   8.621   1.946   1.859 -1.2689  0.3682  0.8561
 1020MOL0     N37615   9.104   1.454   2.255  0.2828 -0.9558  0.6947
 1020MOL0     N37616   9.113   1.346   2.310  0.1792 -0.4311  0.2624
 1020MOL0     C37617   8.025   1.223   2.738  0.6190 -0.4230 -1.3810
 1020MOL0     C37618   7.890   1.246   2.785 -0.3178 -1.0892  0.7783
 1020MOL0     C37619   7.500   1.493   2.793  1.0243  0.0457 -1.0696
 1020MOL0     C37620   7.417   1.380   2.806 -0.4983  0.9397 -0.3400
 1020MOL0     C37621   7.282   1.381   2.794  0.4821 -0.4287 -0.7810
 1020MOL0     C37622   7.221   1.508   2.776  0.4008 -0.4292 -0.6201
 1020MOL0     O37623   7.086   1.491   2.759  0.0666 -0.0188  0.0527
 1020MOL0     C37624   7.031   1.562   2.656  1.2757 -0.5761  0.1690
 1020MOL0     C37625   6.904   1.490   2.624 -0.1471 -0.5656  0.5568
 1020MOL0     C37626   6.802   1.473   2.743 -0.9424 -0.9088 -0.0985
 1020MOL0     C37627   6.767   1.601   2.815 -0.1601  0.0139  0.2811
 1020MOL0     C37628   6.704   1.692   2.721  0.1875  0.6403 -1.2198
 1020MOL0     C37629   6.635   1.762   2.648  0.9778  0.9104 -0.3536
 1020MOL0     C37630   7.295   1.625   2.763  0.0092  0.4223 -0.8831
 1020MOL0     C37631   7.431   1.615   2.782 -0.4547  0.3273  0.1686
 1020MOL0     C37632   7.508   1.750   2.776 -0.1901 -0.3215  0.3368
 1020MOL0     H37633   7.781   1.420   2.512  2.3816 -0.6648 -2.2014
 1020MOL0     H37634   7.999   1.377   2.429 -3.3851  2.1322 -1.5208
 1020MOL0     H37635   8.149   1.044   2.573  1.8563  1.4850  0.8852
 1020MOL0     H37636   8.096   1.121   2.416  1.3582  0.1856 -1.6779
 1020MOL0     H37637   8.326   1.131   2.353 -1.0699  2.6518  2.0492
 1020MOL0     H37638   8.291   0.965   2.411  2.3876 -1.9572  2.9611
 1020MOL0     H37639   8.425   0.993   2.609  1.8273  0.7295  1.8699
 1020MOL0     H37640   8.451   1.162   2.590 -0.7545 -0.6851  1.0101
 1020MOL0     H37641   8.531   0.948   2.378  0.0713 -1.6576 -0.1297
 1020MOL0     H37642   8.575   1.120   2.379 -1.2456 -1.6949 -1.7031
 1020MOL0     H37643   8.696   1.051   2.618  3.2152 -1.1533  1.4042
 1020MOL0     H37644   8.673   0.890   2.565 -1.2172  1.1390  1.7138
 1020MOL0     H37645   8.884   0.949   2.487  0.7889  2.4035  2.8224
 1020MOL0     H37646   8.772   0.957   2.346  3.2603  1.4854 -1.5877
 1020MOL0     H37647   8.840   1.200   2.495 -2.2039 -1.8550 -0.3188
 1020MOL0     H37648   8.768   1.182   2.326  0.2453 -0.2052 -1.5480
 1020MOL0     H37649   9.053   1.139   2.423 -2.0274  1.8994  1.9726
 1020MOL0     H37650   8.977   1.071   2.256 -2.7597  0.8846 -1.6249
 1020MOL0     H37651   8.876   1.289   2.092  2.5773 -0.8975 -2.6753
 1020MOL0     H37652   9.010   1.644   2.073 -1.1103  0.1770 -0.0997
 1020MOL0     H37653   8.938   1.516   1.981 -0.4530  2.6261 -1.9151
 1020MOL0     H37654   8.743   1.505   2.134 -0.2042  0.2623 -1.4377
 1020MOL0     H37655   8.821   1.645   2.230  0.0341  0.6751 -0.3956
 1020MOL0     H37656   8.698   1.652   1.953  2.0482  1.6006 -0.5175
 1020MOL0     H37657   8.792   1.789   2.032  1.3366 -0.1841 -1.4355
 1020MOL0     H37658   8.617   1.744   2.219  0.2639 -1.6845 -0.4076
 1020MOL0     H37659   8.509   1.670   2.109 -1.2785  1.2825  3.8303
 1020MOL0     H37660   8.295   1.887   1.938 -2.3107 -0.4163 -3.4506
 1020MOL0     H37661   8.262   1.944   1.716 -0.2015 -0.4468  0.8896
 1020MOL0     H37662   8.427   2.212   1.318 -2.8868  0.5958  0.7867
 1020MOL0     H37663   8.395   2.260   1.077  0.2499 -0.0251 -0.3512
 1020MOL0     H37664   8.173   2.009   0.799 -0.1602 -0.5533  1.4526
 1020MOL0     H37665   8.078   2.112   0.911  0.2469  0.0313 -0.1932
 1020MOL0     H37666   8.110   2.311   0.770  1.9589  0.3064  2.3630
 1020MOL0     H37667   8.234   2.245   0.679 -1.8367  0.9631 -4.2121
 1020MOL0     H37668   8.034   2.065   0.644 -0.1133  0.8676 -1.0123
 1020MOL0     H37669   7.969   2.235   0.620 -2.7828 -1.6376 -2.8816
 1020MOL0     H37670   8.017   2.147   0.410 -0.1959 -1.9172  1.6674
 1020MOL0     H37671   8.191   2.124   0.446 -1.3566 -1.7523 -3.4024
 1020MOL0     H37672   8.216   2.379   0.486 -2.0310  5.1225 -0.0497
 1020MOL0     H37673   8.047   2.387   0.445  0.1185 -0.2373  3.0916
 1020MOL0     H37674   8.268   2.298   0.259  0.6960 -0.4538  0.7430
 1020MOL0     H37675   8.096   2.275   0.226 -0.0548  1.9924 -0.6357
 1020MOL0     H37676   8.195   2.554   0.315  1.6781  0.0145 -1.0575
 1020MOL0     H37677   8.048   2.525   0.227  1.7153 -0.1517 -5.4679
 1020MOL0     H37678   8.163   2.476   0.025 -0.8031  0.8611  0.0554
 1020MOL0     H37679   8.201   2.634   0.107 -0.9255  0.7328 -0.8324
 1020MOL0     H37680   8.188   1.903   1.013 -0.5066  1.8268 -0.6600
 1020MOL0     H37681   8.201   1.849   1.254 -2.3981 -0.5078 -1.5380
 1020MOL0     H37682   8.690   1.984   1.663  1.3404 -2.7768  2.1459
 1020MOL0     H37683   8.716   1.968   1.907  0.3702 -1.0262 -1.5131
 1020MOL0     H37684   8.104   1.174   2.795  0.4343 -1.6974 -2.1730
 1020MOL0     H37685   7.856   1.219   2.884 -3.3102 -1.9804 -0.3684
 1020MOL0     H37686   7.474   1.288   2.809 -1.1678  0.5145  2.8807
 1020MOL0     H37687   7.217   1.295   2.806  1.4219 -1.8973 -4.5685
 1020MOL0     H37688   7.101   1.585   2.575  1.7375 -1.5010  0.2822
 1020MOL0     H37689   7.001   1.661   2.692 -0.2308  0.2674 -3.0897
 1020MOL0     H37690   6.929   1.392   2.583  0.0876  0.2903 -1.4544
 1020MOL0     H37691   6.847   1.534   2.542 -3.2981 -4.9592  0.0379
 1020MOL0     H37692   6.844   1.408   2.821 -2.4778  1.1251  2.6222
 1020MOL0     H37693   6.720   1.412   2.702 -2.3066  0.2173  0.8567
 1020MOL0     H37694   6.693   1.575   2.891 -1.1481  0.1268 -0.6267
 1020MOL0     H37695   6.848   1.652   2.868 -0.4289 -1.3992  2.1702
 1020MOL0     H37696   6.576   1.828   2.588 -0.9245  0.0106  0.4627
 1020MOL0     H37697   7.253   1.721   2.736  0.3302  0.5291 -1.0066
 1020MOL0     H37698   7.591   1.758   2.846  0.5138  2.0498 -0.6660
 1020MOL0     H37699   7.553   1.766   2.677  0.6831  3.2103  1.1642
 1020MOL0     H37700   7.443   1.837   2.787  1.3754  1.8706 -4.6480
 1021MOL0     O37701   8.399   0.209   0.987  0.2506 -0.1266 -0.0254
 1021MOL0     C37702   8.391   0.145   1.095  0.0568 -0.0057 -0.0230
 1021MOL0     O37703   8.440   0.189   1.219  0.2653 -0.7837 -0.3875
 1021MOL0     C37704   8.414   0.314   1.267 -0.2660 -0.3009 -0.8827
 1021MOL0     C37705   8.285   0.349   1.308  1.1527  0.0342  1.0671
 1021MOL0     C37706   8.255   0.480   1.344 -0.3528 -0.2445  0.0072
 1021MOL0     C37707   8.357   0.568   1.372 -0.4121  0.7622 -0.1522
 1021MOL0     O37708   8.311   0.687   1.421 -0.3294 -0.8188 -0.6568
 1021MOL0     C37709   8.388   0.779   1.507 -0.2165 -0.3362 -0.4022
 1021MOL0     C37710   8.489   0.857   1.424  0.0901  0.3834 -0.8252
 1021MOL0     C37711   8.551   0.974   1.494 -0.0362 -0.1504 -0.0162
 1021MOL0     C37712   8.637   1.038   1.382 -0.1441  0.1358  0.5448
 1021MOL0     C37713   8.722   1.147   1.453  0.2381  0.6715 -0.0613
 1021MOL0     C37714   8.811   1.208   1.349 -0.2987  0.6135  1.0573
 1021MOL0     C37715   8.915   1.288   1.411 -0.9800 -1.0549  0.9211
 1021MOL0     C37716   9.012   1.346   1.312 -0.3422  0.2811 -0.1024
 1021MOL0     N37717   9.094   1.246   1.244 -0.3364 -0.5978 -0.0950
 1021MOL0     C37718   9.170   1.157   1.314 -0.3223 -0.7703 -0.6514
 1021MOL0     C37719   9.216   1.060   1.227  0.6636 -1.5981  0.3660
 1021MOL0     C37720   9.294   0.945   1.267  0.1242  0.4369 -0.3881
 1021MOL0     C37721   9.222   0.821   1.205 -0.6761 -0.0789  0.5910
 1021MOL0     C37722   9.071   0.803   1.225 -0.3097 -0.6172 -0.6010
 1021MOL0     C37723   9.033   0.794   1.377 -0.1146 -0.0556 -0.1709
 1021MOL0     O37724   9.077   0.662   1.426 -0.1796 -0.6072  0.9308
 1021MOL0     C37725   9.070   0.672   1.559 -0.6100  0.1028 -0.0886
 1021MOL0     C37726   9.154   0.751   1.634  0.8274 -0.2882 -0.9106
 1021MOL0     C37727   9.142   0.766   1.774  0.6964 -0.0693  0.4088
 1021MOL0     C37728   9.051   0.682   1.845  0.5194 -0.6597 -0.8033
 1021MOL0     C37729   9.034   0.698   1.992  0.0267 -1.4906 -0.0689
 1021MOL0     O37730   8.960   0.603   2.054 -0.5724  0.1358 -0.3351
 1021MOL0     C37731   8.933   0.598   2.192 -0.4466  0.7379  0.2663
 1021MOL0     C37732   9.018   0.643   2.286  0.4997 -0.3844  0.3832
 1021MOL0     C37733   8.975   0.670   2.415  1.1446  0.0596  0.0430
 1021MOL0     C37734   8.847   0.641   2.455  0.2786  0.0230  0.7588
 1021MOL0     O37735   8.796   0.668   2.581  0.4242 -0.7155 -0.0961
 1021MOL0     C37736   8.879   0.721   2.691  0.3241  0.7171  0.6300
 1021MOL0     C37737   8.952   0.598   2.743 -1.2016  0.0459 -0.4357
 1021MOL0     C37738   8.861   0.483   2.791  0.3247  1.0380  0.6735
 1021MOL0     C37739   8.928   0.374   2.862 -0.5194 -0.4364 -0.5383
 1021MOL0     C37740   8.901   0.377   3.022 -0.2365  0.2281  0.7011
 1021MOL0     C37741   8.754   0.349   3.071 -0.5306 -0.0848  0.8272
 1021MOL0     C37742   8.730   0.401   3.217 -0.6648  0.6111  0.9561
 1021MOL0     C37743   8.769   0.310   3.329  0.6525 -0.2243  0.6396
 1021MOL0    Cl37744   8.663   0.166   3.319  0.0011 -0.5449  0.4960
 1021MOL0     C37745   8.753   0.596   2.356  0.5888  0.0889  0.2441
 1021MOL0     C37746   8.795   0.575   2.223  0.2181 -0.4636 -0.0226
 1021MOL0     O37747   9.092   0.792   2.041 -0.1039  0.2020  0.0133
 1021MOL0     C37748   8.970   0.591   1.772  0.0914  0.8835 -0.2690
 1021MOL0     C37749   8.972   0.594   1.624 -0.5764  0.1007 -0.2284
 1021MOL0     N37750   9.166   1.092   1.104 -0.2931  0.3930  0.0922
 1021MOL0     N37751   9.085   1.198   1.115 -0.3127 -0.2574  0.8971
 1021MOL0     C37752   8.493   0.523   1.356  0.0331 -0.0265  0.4704
 1021MOL0     C37753   8.517   0.399   1.293  0.3753 -0.4470  0.3101
 1021MOL0     C37754   8.332   0.002   1.086 -0.7178 -0.8308  0.3362
 1021MOL0     C37755   8.324  -0.064   1.208 -0.7873  0.6979 -0.6033
 1021MOL0     C37756   8.263  -0.193   1.221 -0.4628  1.1962 -0.7866
 1021MOL0     C37757   8.210  -0.259   1.119  0.3579  0.3655  0.3301
 1021MOL0     O37758   8.142  -0.373   1.142  0.3274  0.7205 -0.4509
 1021MOL0     C37759   8.091  -0.450   1.031  0.3302  0.4523 -0.3848
 1021MOL0     C37760   8.200  -0.551   0.972 -0.1663 -0.9642  0.2155
 1021MOL0     C37761   8.233  -0.661   1.076  0.7813  0.2184  0.1796
 1021MOL0     C37762   8.366  -0.727   1.044  0.3711 -0.0720  0.0142
 1021MOL0     C37763   8.370  -0.848   0.961 -0.1174 -0.1981  0.2587
 1021MOL0     C37764   8.370  -0.939   0.877 -0.4706  0.6767  0.1534
 1021MOL0     C37765   8.218  -0.183   0.995  0.7559 -0.0188  0.5156
 1021MOL0     C37766   8.277  -0.056   0.974  0.1598  0.4510  0.1830
 1021MOL0     C37767   8.294  -0.013   0.831  0.3326 -0.3407 -0.2566
 1021MOL0     H37768   8.208   0.273   1.303 -0.6280  1.6985  1.8411
 1021MOL0     H37769   8.152   0.505   1.369  0.3299  1.1709  1.6197
 1021MOL0     H37770   8.308   0.840   1.549 -3.5395 -4.4212 -0.1826
 1021MOL0     H37771   8.433   0.720   1.587 -1.6527 -0.0862  0.6283
 1021MOL0     H37772   8.436   0.892   1.335  1.6617  0.6678 -1.6832
 1021MOL0     H37773   8.563   0.782   1.394 -0.1745 -0.2243  0.0059
 1021MOL0     H37774   8.617   0.942   1.575 -1.0938  1.1398  1.4078
 1021MOL0     H37775   8.487   1.050   1.540  0.9495  1.7516 -1.6349
 1021MOL0     H37776   8.704   0.965   1.336  0.3050  0.4276  0.7305
 1021MOL0     H37777   8.587   1.086   1.297  0.0815  0.8302  0.8017
 1021MOL0     H37778   8.648   1.215   1.496  0.2242 -0.0006  1.0128
 1021MOL0     H37779   8.776   1.098   1.535  1.7342 -1.2756 -2.0793
 1021MOL0     H37780   8.859   1.129   1.290  0.8254  1.9369  0.1264
 1021MOL0     H37781   8.751   1.264   1.276 -1.6118 -2.5905 -0.5128
 1021MOL0     H37782   8.982   1.230   1.474  0.7006 -2.7398 -2.1827
 1021MOL0     H37783   8.873   1.375   1.463  0.8044  1.9697 -2.2505
 1021MOL0     H37784   8.965   1.394   1.226  0.5129 -0.9399 -1.3033
 1021MOL0     H37785   9.072   1.426   1.356  2.8180 -2.8093  1.7895
 1021MOL0     H37786   9.180   1.155   1.422 -2.0498  1.1546 -0.3891
 1021MOL0     H37787   9.401   0.955   1.246  0.3573  0.1267  0.5678
 1021MOL0     H37788   9.283   0.936   1.376 -2.0234 -1.7699 -0.6952
 1021MOL0     H37789   9.235   0.826   1.096 -2.7114 -1.8088  0.1974
 1021MOL0     H37790   9.278   0.729   1.224 -0.5911 -0.9005 -2.9132
 1021MOL0     H37791   9.025   0.715   1.178 -4.7156  0.4778  1.2021
 1021MOL0     H37792   9.024   0.891   1.181 -0.4098 -0.8827 -1.0246
 1021MOL0     H37793   8.924   0.786   1.376 -0.2001 -0.7199 -4.3818
 1021MOL0     H37794   9.079   0.872   1.439  1.7246 -1.4512  0.3162
 1021MOL0     H37795   9.234   0.812   1.593  2.2944 -1.5703 -0.0666
 1021MOL0     H37796   9.222   0.817   1.826  4.1345 -3.3086 -1.2118
 1021MOL0     H37797   9.119   0.677   2.265 -0.2260  1.3755 -0.4940
 1021MOL0     H37798   9.034   0.717   2.493 -0.8098  1.0204  1.0152
 1021MOL0     H37799   8.943   0.806   2.667 -3.2183  3.9687  1.6701
 1021MOL0     H37800   8.813   0.758   2.770  0.9830  1.0449  1.0287
 1021MOL0     H37801   9.020   0.560   2.667 -2.4268 -1.3108 -0.9073
 1021MOL0     H37802   8.997   0.637   2.835  0.8811  0.2847 -1.4983
 1021MOL0     H37803   8.772   0.516   2.845 -2.9677  0.8686 -4.0809
 1021MOL0     H37804   8.823   0.443   2.697  2.6360 -0.4210  0.2805
 1021MOL0     H37805   9.035   0.397   2.850 -0.2975  1.0323  2.8905
 1021MOL0     H37806   8.898   0.277   2.823 -1.5772  0.0108 -0.8691
 1021MOL0     H37807   8.922   0.475   3.066  0.0218  0.3080  0.4074
 1021MOL0     H37808   8.972   0.306   3.067  0.9229  1.5001  0.9625
 1021MOL0     H37809   8.686   0.391   2.997  0.8599  2.6010  0.9604
 1021MOL0     H37810   8.738   0.241   3.074 -0.1575 -0.1327  1.1910
 1021MOL0     H37811   8.621   0.410   3.220 -0.7290 -0.2388  1.9593
 1021MOL0     H37812   8.776   0.500   3.226  2.0998 -0.2642 -1.8950
 1021MOL0     H37813   8.872   0.278   3.309 -0.2665 -2.3506 -1.1132
 1021MOL0     H37814   8.761   0.364   3.424 -0.4133  4.2013 -1.6947
 1021MOL0     H37815   8.648   0.591   2.383  0.5126  0.5144  0.0389
 1021MOL0     H37816   8.726   0.543   2.145  0.2837 -0.0602 -0.2505
 1021MOL0     H37817   8.912   0.521   1.832  0.3872  0.9017  0.0405
 1021MOL0     H37818   8.913   0.543   1.549  2.2167 -2.8045 -0.6774
 1021MOL0     H37819   8.573   0.594   1.375 -1.5514  1.8618  0.3450
 1021MOL0     H37820   8.613   0.365   1.257  0.9560  1.6421 -0.2232
 1021MOL0     H37821   8.366  -0.026   1.301 -0.8073 -0.2788 -0.1788
 1021MOL0     H37822   8.260  -0.245   1.316  0.6281  0.3286 -1.2109
 1021MOL0     H37823   8.046  -0.389   0.953  0.6967  2.4130  0.8670
 1021MOL0     H37824   8.014  -0.512   1.078  1.3833 -0.3309  0.3746
 1021MOL0     H37825   8.284  -0.494   0.933 -2.3008  3.6441  1.5966
 1021MOL0     H37826   8.169  -0.597   0.878  0.1948 -2.0083  0.5864
 1021MOL0     H37827   8.160  -0.743   1.076  1.3623 -0.3538 -1.8096
 1021MOL0     H37828   8.243  -0.626   1.179  0.4608 -1.3711  0.7750
 1021MOL0     H37829   8.435  -0.655   0.999  0.8560 -0.6014 -0.1035
 1021MOL0     H37830   8.418  -0.765   1.132  2.3303 -2.4038 -2.0180
 1021MOL0     H37831   8.368  -1.024   0.812  2.7115 -1.1032  2.0993
 1021MOL0     H37832   8.192  -0.234   0.903  2.4876 -4.9653  2.4275
 1021MOL0     H37833   8.259   0.090   0.818  1.1157 -0.1269 -0.7455
 1021MOL0     H37834   8.401  -0.016   0.810  0.0826 -1.9878 -1.5908
 1021MOL0     H37835   8.248  -0.074   0.752 -1.2961  0.1236  0.2913
 1022MOL0     O37836   6.603   5.568  11.430  0.2119  0.4068 -0.4151
 1022MOL0     C37837   6.482   5.591  11.413  0.5115 -0.1132  0.2829
 1022MOL0     O37838   6.404   5.542  11.307 -0.1558  0.5973  0.1122
 1022MOL0     C37839   6.478   5.495  11.204  0.3177  0.1225 -0.1187
 1022MOL0     C37840   6.528   5.584  11.106  0.5975 -0.5708  1.4274
 1022MOL0     C37841   6.587   5.532  10.991 -1.0769 -0.1221 -0.3245
 1022MOL0     C37842   6.608   5.398  10.974  0.0227  0.6072 -0.2496
 1022MOL0     O37843   6.687   5.359  10.861 -0.2214  0.4971 -0.6708
 1022MOL0     C37844   6.750   5.235  10.850 -0.3741 -0.3002 -1.1234
 1022MOL0     C37845   6.750   5.194  10.700 -0.5425 -1.2440 -1.1264
 1022MOL0     C37846   6.605   5.188  10.639 -0.6533  0.0171  0.2243
 1022MOL0     C37847   6.599   5.158  10.497 -1.0142  1.5306 -0.2827
 1022MOL0     C37848   6.658   5.262  10.407 -0.0400 -0.4311 -0.1406
 1022MOL0     C37849   6.667   5.200  10.262  0.4987  0.0745 -0.3037
 1022MOL0     C37850   6.528   5.185  10.196  0.2362  0.6972  0.3344
 1022MOL0     C37851   6.459   5.044  10.213  0.1099 -0.8184 -0.0118
 1022MOL0     N37852   6.545   4.942  10.153  0.1770 -0.2334  0.5136
 1022MOL0     C37853   6.627   4.868  10.225 -0.1882  0.8225 -0.2748
 1022MOL0     C37854   6.720   4.817  10.136 -1.1592 -1.0367  0.1267
 1022MOL0     C37855   6.850   4.742  10.154 -0.7884 -0.3018  0.3727
 1022MOL0     C37856   6.967   4.804  10.080  0.2741  0.2257  0.3421
 1022MOL0     C37857   6.988   4.952  10.125  0.1222  0.1811  0.3328
 1022MOL0     C37858   7.136   4.992  10.076 -0.7162  0.4712 -0.3619
 1022MOL0     O37859   7.236   4.906  10.136  0.1761 -0.0594  0.4674
 1022MOL0     C37860   7.369   4.941  10.121 -0.0869  0.1823 -0.2244
 1022MOL0     C37861   7.424   5.053  10.064 -0.4905 -0.9765 -0.8151
 1022MOL0     C37862   7.563   5.072  10.054  1.1814 -0.6362 -0.1610
 1022MOL0     C37863   7.652   4.978  10.116 -0.9749  0.3942  0.3421
 1022MOL0     C37864   7.797   4.992  10.119 -0.8613 -0.0090 -0.4570
 1022MOL0     O37865   7.875   4.918  10.213  0.1451  0.0666  1.0752
 1022MOL0     C37866   8.013   4.933  10.218  0.0802 -0.6290 -0.4393
 1022MOL0     C37867   8.078   5.047  10.237  0.4967 -0.4414 -0.3438
 1022MOL0     C37868   8.219   5.047  10.251  0.2728 -0.6547 -0.8417
 1022MOL0     C37869   8.291   4.935  10.251  0.4505 -0.5869 -0.1730
 1022MOL0     O37870   8.429   4.959  10.284 -0.9402 -0.3873  0.5058
 1022MOL0     C37871   8.512   4.858  10.341 -0.7403  0.4925  0.1908
 1022MOL0     C37872   8.591   4.764  10.245  0.6093 -0.7487 -0.2562
 1022MOL0     C37873   8.710   4.849  10.197 -0.4511  0.2246 -1.5766
 1022MOL0     C37874   8.821   4.878  10.302 -0.0684 -0.4701  0.3709
 1022MOL0     C37875   8.941   4.939  10.232  0.0580  0.4674 -0.8476
 1022MOL0     C37876   9.034   4.999  10.340  0.9622  0.5098 -0.2371
 1022MOL0     C37877   9.151   5.074  10.272  0.2108 -0.2584 -1.2625
 1022MOL0     C37878   9.250   5.142  10.381 -1.1635 -0.2079  0.0019
 1022MOL0    Cl37879   9.335   5.012  10.467  0.0764 -0.0918 -0.1105
 1022MOL0     C37880   8.231   4.815  10.227 -0.8442  1.0835 -0.6275
 1022MOL0     C37881   8.089   4.811  10.228  0.3776 -0.3963  0.7354
 1022MOL0     O37882   7.842   5.084  10.050 -0.1344  0.5029  0.2909
 1022MOL0     C37883   7.595   4.872  10.179  0.6159 -0.6685 -0.0265
 1022MOL0     C37884   7.450   4.854  10.196 -1.0189 -0.4901  0.3550
 1022MOL0     N37885   6.681   4.872  10.015 -0.3923  0.4843  0.4231
 1022MOL0     N37886   6.575   4.944  10.019 -0.6488  1.1885 -1.0446
 1022MOL0     C37887   6.552   5.312  11.070 -0.2337  1.8202 -0.4471
 1022MOL0     C37888   6.492   5.362  11.182  0.7272  0.2990  0.0822
 1022MOL0     C37889   6.406   5.656  11.524 -0.4047 -0.0471 -0.7929
 1022MOL0     C37890   6.269   5.627  11.536  0.5691  0.9330 -0.0327
 1022MOL0     C37891   6.195   5.655  11.643 -0.1485  0.3669 -0.4761
 1022MOL0     C37892   6.255   5.731  11.745 -0.0294  0.2382 -0.2185
 1022MOL0     O37893   6.164   5.733  11.854 -0.5734  0.1048 -0.2630
 1022MOL0     C37894   6.219   5.759  11.985 -0.4476 -0.0509  0.2175
 1022MOL0     C37895   6.116   5.736  12.094  1.3310  0.2600  0.0021
 1022MOL0     C37896   5.990   5.826  12.072 -0.1017  0.8964 -0.7752
 1022MOL0     C37897   5.873   5.792  12.163  0.3424 -0.3537  0.7632
 1022MOL0     C37898   5.814   5.652  12.167 -0.0552 -0.6763 -0.5749
 1022MOL0     C37899   5.793   5.533  12.181  0.6130  1.3206 -0.2964
 1022MOL0     C37900   6.385   5.774  11.738  0.4822 -0.0621  0.6390
 1022MOL0     C37901   6.462   5.745  11.626 -0.2511 -1.0646 -0.3670
 1022MOL0     C37902   6.603   5.791  11.614 -0.7935 -0.1653 -0.1210
 1022MOL0     H37903   6.498   5.688  11.120  0.9281 -0.5450  1.9922
 1022MOL0     H37904   6.629   5.600  10.918 -1.3456  1.5532  1.0265
 1022MOL0     H37905   6.851   5.247  10.888 -0.0547  1.9648 -2.4859
 1022MOL0     H37906   6.694   5.158  10.903 -2.1315  3.5619  3.2405
 1022MOL0     H37907   6.797   5.096  10.691  2.9605  0.2936 -1.5197
 1022MOL0     H37908   6.811   5.259  10.636 -1.4836  1.2706  0.3804
 1022MOL0     H37909   6.563   5.288  10.654  1.3812  0.9245  0.2920
 1022MOL0     H37910   6.542   5.119  10.695 -2.2762  2.7899  2.0575
 1022MOL0     H37911   6.640   5.056  10.490  0.4306  1.9001  1.8485
 1022MOL0     H37912   6.491   5.153  10.485 -0.9741  2.9863 -1.5907
 1022MOL0     H37913   6.598   5.353  10.415  0.7100 -0.0923  5.0930
 1022MOL0     H37914   6.761   5.287  10.430  0.1077 -1.4753  0.3993
 1022MOL0     H37915   6.724   5.281  10.215 -0.1604  2.5484  2.8093
 1022MOL0     H37916   6.728   5.110  10.255  1.2975  0.7344 -3.6673
 1022MOL0     H37917   6.528   5.198  10.087 -0.5422  1.0527  0.3715
 1022MOL0     H37918   6.465   5.263  10.241  1.4258  1.5154  0.6285
 1022MOL0     H37919   6.437   5.016  10.317 -0.9957 -0.0082 -0.0099
 1022MOL0     H37920   6.362   5.057  10.165 -1.3211 -0.6411  2.6921
 1022MOL0     H37921   6.623   4.837  10.329  3.0477  1.3370  0.0951
 1022MOL0     H37922   6.884   4.768  10.254  1.0492  1.7073 -0.6773
 1022MOL0     H37923   6.842   4.636  10.125  2.2645 -0.9164  1.4305
 1022MOL0     H37924   7.051   4.734  10.090 -1.2574 -1.8322 -0.5134
 1022MOL0     H37925   6.949   4.811   9.973  0.7441  0.1755  0.2547
 1022MOL0     H37926   6.978   4.955  10.234 -0.9102  0.1707  0.2419
 1022MOL0     H37927   6.917   5.027  10.089 -1.9437 -2.7127 -2.0050
 1022MOL0     H37928   7.146   5.101  10.088 -3.9736  0.7985  0.2636
 1022MOL0     H37929   7.136   4.988   9.966 -3.0508 -0.5430 -0.3918
 1022MOL0     H37930   7.349   5.125  10.032 -0.6001  0.0811  1.5858
 1022MOL0     H37931   7.596   5.156   9.993  0.3406  0.3429  0.6953
 1022MOL0     H37932   8.019   5.138  10.227  0.0298 -0.8476 -1.5467
 1022MOL0     H37933   8.265   5.144  10.269  1.9766 -1.3584 -1.2163
 1022MOL0     H37934   8.582   4.900  10.413 -0.9996 -2.2930  2.2518
 1022MOL0     H37935   8.451   4.788  10.400  3.1930 -3.3274  0.2143
 1022MOL0     H37936   8.626   4.668  10.282 -3.6462 -2.4318 -0.0498
 1022MOL0     H37937   8.530   4.744  10.156  3.0406  0.3241 -2.3160
 1022MOL0     H37938   8.758   4.799  10.113  0.6270 -2.6193  0.5760
 1022MOL0     H37939   8.676   4.950  10.172 -1.8435  0.4187  0.7776
 1022MOL0     H37940   8.840   4.786  10.359 -2.2141 -0.3061  1.4649
 1022MOL0     H37941   8.783   4.950  10.375 -1.4612 -1.0432  0.2428
 1022MOL0     H37942   8.910   5.033  10.185 -1.2700  2.4288  3.4373
 1022MOL0     H37943   8.996   4.871  10.167  1.5615  2.5145 -1.8323
 1022MOL0     H37944   8.969   5.073  10.388 -2.0809 -0.1633 -2.9529
 1022MOL0     H37945   9.085   4.930  10.407  1.0505 -0.1688 -0.9914
 1022MOL0     H37946   9.129   5.154  10.200  1.2885  1.9617  0.7515
 1022MOL0     H37947   9.204   5.004  10.206  0.7012  1.9454 -3.3510
 1022MOL0     H37948   9.332   5.193  10.328 -0.9556 -0.0092  0.4991
 1022MOL0     H37949   9.176   5.203  10.433 -3.7924 -1.4698 -2.0374
 1022MOL0     H37950   8.280   4.721  10.253 -3.1984 -0.4657 -1.4420
 1022MOL0     H37951   8.049   4.712  10.244  1.1568 -0.9858 -0.7408
 1022MOL0     H37952   7.663   4.799  10.223  2.3581  1.5152  1.0965
 1022MOL0     H37953   7.418   4.771  10.258  3.2279 -1.2527  1.8283
 1022MOL0     H37954   6.555   5.205  11.057 -1.4914  1.9068 -1.7585
 1022MOL0     H37955   6.451   5.280  11.241 -1.2555 -1.4947 -3.4640
 1022MOL0     H37956   6.215   5.565  11.465  0.6684 -0.5212  1.1152
 1022MOL0     H37957   6.088   5.636  11.639 -0.7057  1.8319  3.0445
 1022MOL0     H37958   6.251   5.863  11.993  1.4956 -0.5400 -0.6050
 1022MOL0     H37959   6.311   5.707  12.012  2.3681  4.4386  0.3063
 1022MOL0     H37960   6.142   5.775  12.193 -2.7554  0.5061  1.1500
 1022MOL0     H37961   6.089   5.631  12.104  1.9961 -0.0140 -0.8878
 1022MOL0     H37962   5.952   5.815  11.970 -2.1644  2.5088 -0.2491
 1022MOL0     H37963   6.023   5.930  12.072 -1.3703  1.3264 -1.5902
 1022MOL0     H37964   5.905   5.818  12.264  1.0640 -1.3897  0.8244
 1022MOL0     H37965   5.793   5.864  12.146  0.7392  0.0539  0.6089
 1022MOL0     H37966   5.756   5.433  12.185 -1.6901  2.1514  1.0115
 1022MOL0     H37967   6.429   5.822  11.824 -1.6825 -0.7733  2.2371
 1022MOL0     H37968   6.622   5.854  11.527  0.9271 -0.7795 -0.2418
 1022MOL0     H37969   6.642   5.834  11.707 -0.1330  1.7996 -1.2531
 1022MOL0     H37970   6.678   5.712  11.602 -0.6865 -0.0481 -0.2265
 1023MOL0     O37971   7.795   4.455   8.799  0.4303 -0.2171  0.0639
 1023MOL0     C37972   7.706   4.474   8.884 -0.1019  0.6142 -0.4197
 1023MOL0     O37973   7.709   4.580   8.980  0.4550 -0.3265 -0.2375
 1023MOL0     C37974   7.792   4.684   8.956 -0.0676  1.4451 -0.0401
 1023MOL0     C37975   7.750   4.787   8.877  0.4039 -0.2834  0.5908
 1023MOL0     C37976   7.831   4.888   8.853 -0.0358  0.6336 -1.1672
 1023MOL0     C37977   7.966   4.906   8.905 -0.1825  0.7049  0.1686
 1023MOL0     O37978   8.050   5.008   8.883  0.5787 -0.1511  0.4228
 1023MOL0     C37979   8.042   5.066   8.753  0.8278 -1.3249  0.1429
 1023MOL0     C37980   8.006   5.219   8.783 -0.6439 -0.0809  0.3490
 1023MOL0     C37981   8.104   5.307   8.867  0.5421 -0.7613  0.0852
 1023MOL0     C37982   8.058   5.448   8.868  0.4596  0.0586 -0.4841
 1023MOL0     C37983   8.155   5.536   8.946  0.3360 -0.4504 -0.6249
 1023MOL0     C37984   8.120   5.680   8.961  0.4771 -0.4411 -0.0183
 1023MOL0     C37985   8.215   5.739   9.070  0.6234  0.1097  0.8205
 1023MOL0     C37986   8.151   5.730   9.219 -0.4128  0.5525 -0.2446
 1023MOL0     N37987   8.245   5.764   9.321  0.2829 -0.1385  0.1283
 1023MOL0     C37988   8.292   5.892   9.349 -0.6367 -0.4261  1.1124
 1023MOL0     C37989   8.388   5.876   9.448  0.1878  0.2448  0.3293
 1023MOL0     C37990   8.458   5.994   9.509  0.2958  0.4776  0.0639
 1023MOL0     C37991   8.384   6.051   9.630 -0.1130  0.1036  0.0958
 1023MOL0     C37992   8.384   5.957   9.748 -0.1728  0.8544 -0.4005
 1023MOL0     C37993   8.506   5.914   9.826  0.1604  0.4743 -0.0514
 1023MOL0     O37994   8.470   5.833   9.945 -0.4132  0.1541  0.5451
 1023MOL0     C37995   8.431   5.912  10.052 -0.1915 -0.0713 -0.2811
 1023MOL0     C37996   8.296   5.925  10.086 -0.1012 -0.3946 -0.6045
 1023MOL0     C37997   8.261   5.981  10.211 -0.8508  0.4240  0.7964
 1023MOL0     C37998   8.362   6.032  10.294  0.0906  0.7589 -0.2547
 1023MOL0     C37999   8.324   6.103  10.417  0.2906 -0.3754  1.3331
 1023MOL0     O38000   8.399   6.116  10.524 -0.3791 -0.4372 -0.3696
 1023MOL0     C38001   8.397   6.243  10.580 -0.5767  0.0162  0.7159
 1023MOL0     C38002   8.292   6.312  10.626  0.5617 -0.7937  0.8858
 1023MOL0     C38003   8.300   6.434  10.698 -0.0899  0.3262 -0.8146
 1023MOL0     C38004   8.437   6.488  10.709 -0.1378 -1.0861  0.4903
 1023MOL0     O38005   8.443   6.608  10.785  0.1396  1.0854  0.2624
 1023MOL0     C38006   8.467   6.739  10.716  1.0352 -0.8519 -0.3973
 1023MOL0     C38007   8.351   6.831  10.763 -0.4517  0.8309 -0.7549
 1023MOL0     C38008   8.368   6.986  10.734  0.0292  0.5358 -0.8629
 1023MOL0     C38009   8.256   7.073  10.784  0.4897 -0.5163 -0.0936
 1023MOL0     C38010   8.296   7.222  10.794 -0.0689  0.0578  1.1755
 1023MOL0     C38011   8.333   7.289  10.663  1.5408  0.0218 -0.7121
 1023MOL0     C38012   8.342   7.442  10.668 -0.3468  0.0289 -0.1735
 1023MOL0     C38013   8.477   7.501  10.689  0.0043 -0.4937 -0.0685
 1023MOL0    Cl38014   8.569   7.499  10.539 -0.4644 -0.5116  0.2206
 1023MOL0     C38015   8.547   6.418  10.661  0.1254 -0.0171 -0.1299
 1023MOL0     C38016   8.526   6.295  10.590 -0.1036  0.0149  0.0169
 1023MOL0     O38017   8.214   6.151  10.405 -0.3251  0.0005  0.1067
 1023MOL0     C38018   8.500   6.022  10.259 -1.0511 -0.6973  0.4251
 1023MOL0     C38019   8.526   5.963  10.136 -1.2071 -0.9418 -0.4216
 1023MOL0     N38020   8.396   5.744   9.486 -0.9132  0.4423  0.3986
 1023MOL0     N38021   8.312   5.678   9.403  0.7045 -0.1244 -0.1092
 1023MOL0     C38022   8.002   4.798   8.987 -0.1691  0.0670 -0.0642
 1023MOL0     C38023   7.917   4.696   9.023 -0.5954  0.6298 -0.8270
 1023MOL0     C38024   7.592   4.376   8.889  0.1214  0.0620 -0.3706
 1023MOL0     C38025   7.517   4.386   9.009 -0.1961  0.0800 -1.1716
 1023MOL0     C38026   7.405   4.305   9.033  0.0475 -0.0489  0.7661
 1023MOL0     C38027   7.367   4.219   8.932  0.1603 -0.5830  0.4895
 1023MOL0     O38028   7.256   4.146   8.940 -0.2442  1.0940  0.5352
 1023MOL0     C38029   7.162   4.165   9.048 -0.3556 -0.8585 -1.2298
 1023MOL0     C38030   7.040   4.106   8.979  0.1556 -0.0146  0.0853
 1023MOL0     C38031   6.914   4.130   9.072  0.4633  0.0560 -0.0388
 1023MOL0     C38032   6.794   4.091   9.000 -0.0191 -0.2476 -0.0545
 1023MOL0     C38033   6.671   4.086   9.079 -0.5269  1.6498 -0.5630
 1023MOL0     C38034   6.590   4.083   9.177  0.7234  0.6406 -0.1135
 1023MOL0     C38035   7.451   4.196   8.816  0.4768 -0.2672  0.1285
 1023MOL0     C38036   7.564   4.274   8.789 -0.2092  0.8673 -0.3662
 1023MOL0     C38037   7.657   4.244   8.663  1.0138 -0.3003  0.3238
 1023MOL0     H38038   7.653   4.794   8.828 -0.0193  0.6962  1.5300
 1023MOL0     H38039   7.784   4.971   8.800 -0.0063  1.6358  0.2943
 1023MOL0     H38040   8.134   5.064   8.694 -0.9494  3.3754 -3.4690
 1023MOL0     H38041   7.960   5.031   8.689  0.4233 -1.4096  0.7024
 1023MOL0     H38042   7.910   5.225   8.834  0.2069 -0.2561  2.0445
 1023MOL0     H38043   7.994   5.274   8.688 -2.8196 -0.7719  0.1758
 1023MOL0     H38044   8.194   5.298   8.805  0.0379 -0.2274 -0.7401
 1023MOL0     H38045   8.107   5.250   8.960 -0.6067 -3.9358 -1.6803
 1023MOL0     H38046   8.051   5.473   8.762 -0.8532 -0.1403 -0.4551
 1023MOL0     H38047   7.956   5.445   8.907 -0.0980  2.8859 -1.5114
 1023MOL0     H38048   8.161   5.498   9.048  1.5406  3.1721  0.8378
 1023MOL0     H38049   8.252   5.541   8.896  1.3044 -0.7777  1.1451
 1023MOL0     H38050   8.128   5.719   8.860 -1.9663  0.3702  0.0404
 1023MOL0     H38051   8.017   5.691   8.996  0.3079 -1.2832 -0.2260
 1023MOL0     H38052   8.227   5.841   9.031  0.2364  0.8493  2.5258
 1023MOL0     H38053   8.311   5.688   9.064 -0.2937 -1.5168 -1.0264
 1023MOL0     H38054   8.061   5.792   9.221  0.2080  1.5687 -1.9121
 1023MOL0     H38055   8.140   5.622   9.231  2.9212 -0.0250 -1.3300
 1023MOL0     H38056   8.264   5.985   9.300  1.0029 -0.1310  0.6772
 1023MOL0     H38057   8.563   5.973   9.531 -0.1159  0.5695  2.3145
 1023MOL0     H38058   8.460   6.076   9.437 -0.2011  0.2808 -0.1832
 1023MOL0     H38059   8.441   6.137   9.665 -0.5802 -0.8219  3.4262
 1023MOL0     H38060   8.286   6.082   9.595 -0.3093  0.4121  0.9069
 1023MOL0     H38061   8.316   5.873   9.731  1.3591 -0.9720  1.8742
 1023MOL0     H38062   8.323   6.006   9.825 -0.8545 -1.3080  0.5164
 1023MOL0     H38063   8.556   6.005   9.857 -0.9050  1.5751 -1.4278
 1023MOL0     H38064   8.566   5.861   9.752 -3.1803 -3.1003 -0.5264
 1023MOL0     H38065   8.219   5.871  10.033  0.8902 -2.1267 -0.3633
 1023MOL0     H38066   8.155   5.987  10.233 -0.9011  2.5227  0.1612
 1023MOL0     H38067   8.189   6.279  10.624 -0.0178  0.9040 -1.7186
 1023MOL0     H38068   8.217   6.474  10.755  0.6159  2.1655 -1.0192
 1023MOL0     H38069   8.563   6.782  10.748  2.6370 -3.3165 -1.5194
 1023MOL0     H38070   8.460   6.725  10.607  0.1567  0.5476 -0.5382
 1023MOL0     H38071   8.266   6.793  10.705 -0.2538  1.0435 -1.1858
 1023MOL0     H38072   8.317   6.820  10.867 -3.1872 -1.3384 -1.7451
 1023MOL0     H38073   8.460   6.997  10.792  0.4248 -1.5141 -1.0202
 1023MOL0     H38074   8.390   7.003  10.628  0.2446  1.5880 -0.6585
 1023MOL0     H38075   8.219   7.031  10.878 -0.6087  1.5039  0.4353
 1023MOL0     H38076   8.175   7.044  10.716  1.1918 -1.4121 -0.5689
 1023MOL0     H38077   8.366   7.242  10.875 -0.1116  0.4819  1.1086
 1023MOL0     H38078   8.205   7.270  10.832 -3.1583 -2.7682 -1.8974
 1023MOL0     H38079   8.420   7.247  10.611  1.1681 -3.2192  1.0034
 1023MOL0     H38080   8.257   7.268  10.587 -0.3788 -1.6725  1.5401
 1023MOL0     H38081   8.277   7.494  10.740  0.5479  1.9122 -0.6558
 1023MOL0     H38082   8.301   7.475  10.572  3.5195  0.1509 -1.9638
 1023MOL0     H38083   8.471   7.599  10.736  0.2928 -0.3798 -0.2674
 1023MOL0     H38084   8.520   7.430  10.759 -2.2245  1.4290  3.5390
 1023MOL0     H38085   8.648   6.452  10.682 -0.5634  0.5286  2.7311
 1023MOL0     H38086   8.611   6.233  10.564  1.1436  2.2544 -1.5452
 1023MOL0     H38087   8.574   6.070  10.324 -1.2961  1.8528 -1.0637
 1023MOL0     H38088   8.633   5.972  10.118 -0.9222  1.5766  1.8987
 1023MOL0     H38089   8.104   4.808   9.023 -0.4267  1.9947  0.2371
 1023MOL0     H38090   7.947   4.625   9.100 -0.0647  3.0447  1.3167
 1023MOL0     H38091   7.539   4.456   9.089  2.4549 -2.1687  0.2231
 1023MOL0     H38092   7.351   4.319   9.125 -2.2235 -0.9962 -0.3316
 1023MOL0     H38093   7.146   4.271   9.071 -1.5648 -1.6342  1.9410
 1023MOL0     H38094   7.190   4.116   9.141  1.0923  0.6129 -0.8427
 1023MOL0     H38095   7.052   3.998   8.964  0.3467 -0.1662  1.2644
 1023MOL0     H38096   7.021   4.165   8.889  4.1645  0.3336 -0.7340
 1023MOL0     H38097   6.912   4.237   9.093 -1.0130 -0.6709  5.0056
 1023MOL0     H38098   6.924   4.089   9.173 -2.5385  2.6428  1.4989
 1023MOL0     H38099   6.795   4.158   8.913  1.9882 -1.4269 -1.0222
 1023MOL0     H38100   6.800   3.986   8.970  1.3748 -1.3053  3.4130
 1023MOL0     H38101   6.514   4.091   9.252  1.3845 -5.7268  1.8605
 1023MOL0     H38102   7.400   4.129   8.746 -3.3665  0.9794  1.4679
 1023MOL0     H38103   7.661   4.329   8.594 -1.9085 -0.9280 -0.7708
 1023MOL0     H38104   7.754   4.205   8.695  0.3563 -0.5176  2.1570
 1023MOL0     H38105   7.615   4.167   8.598  0.1470  1.1545 -0.8990
 1024MOL0     O38106   0.854   7.685   0.371  0.6396  1.3329 -0.6000
 1024MOL0     C38107   0.752   7.751   0.382 -0.3696  0.4637  0.7088
 1024MOL0     O38108   0.731   7.857   0.472  0.3344  0.2783  0.4946
 1024MOL0     C38109   0.818   7.856   0.583 -0.4790 -0.4145  0.4289
 1024MOL0     C38110   0.796   7.759   0.676  0.4875  0.0123 -0.1840
 1024MOL0     C38111   0.866   7.758   0.793  0.0210 -0.5093 -0.1506
 1024MOL0     C38112   0.967   7.856   0.816 -0.4899 -0.9413  0.3350
 1024MOL0     O38113   1.035   7.847   0.937  0.8256  0.1339 -0.1483
 1024MOL0     C38114   1.049   7.966   1.011  0.8663  0.1366  0.0311
 1024MOL0     C38115   1.096   7.924   1.149  0.3978 -0.5826 -0.1713
 1024MOL0     C38116   1.116   8.048   1.247 -0.1680  0.1847  0.0589
 1024MOL0     C38117   1.265   8.098   1.234  0.4125  0.8969 -0.3330
 1024MOL0     C38118   1.275   8.220   1.323  0.0540  0.4032  0.1459
 1024MOL0     C38119   1.424   8.232   1.371 -0.0994 -0.6824  0.0473
 1024MOL0     C38120   1.456   8.378   1.411  0.2454 -0.1627 -0.4795
 1024MOL0     C38121   1.602   8.369   1.461  0.5026  0.7334  0.1205
 1024MOL0     N38122   1.644   8.501   1.524  0.5895 -0.3513  0.1163
 1024MOL0     C38123   1.763   8.565   1.502 -0.1113 -0.2168 -0.3267
 1024MOL0     C38124   1.750   8.679   1.580  0.4088  0.7762 -0.6316
 1024MOL0     C38125   1.839   8.796   1.582 -0.6329  0.6630 -0.0956
 1024MOL0     C38126   1.785   8.919   1.507  0.0850  0.8550  0.9226
 1024MOL0     C38127   1.790   8.922   1.355  1.4944  0.7104 -0.8320
 1024MOL0     C38128   1.714   8.819   1.280  0.6752 -0.0497 -0.4997
 1024MOL0     O38129   1.585   8.801   1.354 -0.0772 -0.5214 -0.5562
 1024MOL0     C38130   1.470   8.788   1.274  0.1922  0.1981 -0.5877
 1024MOL0     C38131   1.350   8.773   1.346 -0.0469  0.3576 -0.0481
 1024MOL0     C38132   1.226   8.736   1.288 -0.2856 -0.2321  0.1832
 1024MOL0     C38133   1.219   8.713   1.149  0.2655  0.3580  0.1417
 1024MOL0     C38134   1.111   8.644   1.086 -0.7828 -0.2660  0.0737
 1024MOL0     O38135   1.128   8.578   0.967  0.0992  0.4248 -1.4329
 1024MOL0     C38136   1.025   8.519   0.909  0.1536  0.5310  0.9524
 1024MOL0     C38137   0.974   8.397   0.958  0.0124  0.7036  0.4068
 1024MOL0     C38138   0.859   8.337   0.889 -0.9015 -0.0369 -0.4486
 1024MOL0     C38139   0.807   8.395   0.777 -1.1046  0.0859  0.1316
 1024MOL0     O38140   0.694   8.348   0.719 -0.0817 -0.3608 -0.0140
 1024MOL0     C38141   0.677   8.217   0.691 -0.5148 -0.6070  0.5992
 1024MOL0     C38142   0.622   8.197   0.559 -0.6053 -0.0606  0.9490
 1024MOL0     C38143   0.481   8.247   0.549 -0.7176 -0.6497  0.5267
 1024MOL0     C38144   0.424   8.198   0.419  0.5198 -0.0158  1.0726
 1024MOL0     C38145   0.280   8.260   0.401  1.0656  1.6924  0.0178
 1024MOL0     C38146   0.242   8.254   0.245 -0.7197  0.4671 -0.6852
 1024MOL0     C38147   0.313   8.334   0.139 -0.3098 -0.8078 -0.0669
 1024MOL0     C38148   0.333   8.481   0.170  0.8675 -0.2980  0.2278
 1024MOL0    Cl38149   0.440   8.531   0.302 -0.0484  0.3205 -0.1856
 1024MOL0     C38150   0.856   8.519   0.735  0.2832  0.2776  0.1913
 1024MOL0     C38151   0.970   8.576   0.789 -0.9240 -0.5237 -0.2208
 1024MOL0     O38152   1.013   8.635   1.155  0.1733  1.3242  0.7684
 1024MOL0     C38153   1.344   8.743   1.076 -0.7856  0.2472 -0.4508
 1024MOL0     C38154   1.458   8.780   1.137 -0.4788  0.0590 -0.1069
 1024MOL0     N38155   1.625   8.675   1.649  0.6059  0.1778  0.8441
 1024MOL0     N38156   1.557   8.573   1.613 -0.3045  0.0437 -0.3160
 1024MOL0     C38157   0.998   7.950   0.718  1.2426 -0.5895  0.5802
 1024MOL0     C38158   0.922   7.950   0.599 -0.6876 -0.3385 -0.3762
 1024MOL0     C38159   0.640   7.721   0.292  0.3911  0.5246  0.4302
 1024MOL0     C38160   0.548   7.817   0.262  0.3980 -1.2498  0.0851
 1024MOL0     C38161   0.455   7.799   0.158  0.4397 -0.0562 -0.2077
 1024MOL0     C38162   0.443   7.673   0.096 -0.7488  0.1767 -0.6599
 1024MOL0     O38163   0.343   7.654  -0.004  0.1540  0.0960 -0.2963
 1024MOL0     C38164   0.288   7.525  -0.040 -0.4636 -0.5039 -0.2271
 1024MOL0     C38165   0.183   7.559  -0.142  0.0954  0.1822  0.3748
 1024MOL0     C38166   0.053   7.610  -0.083  1.2699 -0.2386  0.5864
 1024MOL0     C38167  -0.060   7.621  -0.181  0.1135  0.0434 -0.5339
 1024MOL0     C38168  -0.028   7.727  -0.282 -0.0727  0.7239 -0.2441
 1024MOL0     C38169   0.003   7.819  -0.362 -0.9532 -0.5623 -0.6395
 1024MOL0     C38170   0.521   7.567   0.140 -0.0616  0.2427 -0.9013
 1024MOL0     C38171   0.631   7.593   0.225  0.2058 -0.4148 -1.4188
 1024MOL0     C38172   0.731   7.478   0.255  0.5897 -0.4914 -0.2042
 1024MOL0     H38173   0.706   7.702   0.657  1.8675 -1.9637 -1.0730
 1024MOL0     H38174   0.837   7.693   0.875 -0.1725  2.7280  2.5483
 1024MOL0     H38175   1.134   8.016   0.964  2.3338  0.7528  3.1068
 1024MOL0     H38176   0.958   8.026   1.014  0.7208 -0.1016  0.7011
 1024MOL0     H38177   1.187   7.865   1.136 -1.0997 -2.2522 -4.9554
 1024MOL0     H38178   1.019   7.857   1.189 -0.4053  0.9931  1.0632
 1024MOL0     H38179   1.087   8.017   1.348 -2.5149 -1.2529 -0.9577
 1024MOL0     H38180   1.052   8.132   1.217 -0.8865  0.1558  1.4507
 1024MOL0     H38181   1.341   8.029   1.270  0.4868  0.8015 -0.6710
 1024MOL0     H38182   1.293   8.135   1.135  0.0480  0.0606 -0.7647
 1024MOL0     H38183   1.262   8.314   1.269  2.4402  2.8227  3.3895
 1024MOL0     H38184   1.209   8.210   1.409 -3.3653 -0.3809 -2.3680
 1024MOL0     H38185   1.446   8.154   1.445 -2.3541 -1.4756 -0.0458
 1024MOL0     H38186   1.490   8.214   1.285  2.8230 -1.8593  2.3709
 1024MOL0     H38187   1.389   8.401   1.494  2.8156 -1.5904  2.1817
 1024MOL0     H38188   1.451   8.459   1.338 -1.3079  1.2466  1.1070
 1024MOL0     H38189   1.610   8.284   1.530 -1.4235  1.8408  1.8345
 1024MOL0     H38190   1.664   8.344   1.375 -2.3718 -2.4178 -1.3062
 1024MOL0     H38191   1.847   8.531   1.442 -0.9872 -0.9201 -1.1860
 1024MOL0     H38192   1.843   8.822   1.688  3.4378  4.0214 -0.8246
 1024MOL0     H38193   1.941   8.770   1.552 -0.6870 -4.8556  3.1611
 1024MOL0     H38194   1.682   8.930   1.541  1.0682  4.3744  3.3844
 1024MOL0     H38195   1.849   9.006   1.524  0.0326  1.4374 -1.5357
 1024MOL0     H38196   1.892   8.910   1.319  2.2461  0.1423  1.3071
 1024MOL0     H38197   1.754   9.019   1.320  0.8732  1.6707  2.1313
 1024MOL0     H38198   1.768   8.725   1.266 -0.3881 -0.5455 -1.4633
 1024MOL0     H38199   1.703   8.865   1.181 -0.0959  0.7276 -0.0569
 1024MOL0     H38200   1.353   8.776   1.454 -3.9059  2.5171  0.1715
 1024MOL0     H38201   1.144   8.705   1.351  0.2394  0.9547  1.5201
 1024MOL0     H38202   1.016   8.343   1.042 -2.5134 -0.6554  0.8897
 1024MOL0     H38203   0.810   8.251   0.935 -0.1567  0.7795  2.0329
 1024MOL0     H38204   0.772   8.163   0.698 -0.3499 -0.9723 -2.7588
 1024MOL0     H38205   0.603   8.182   0.763 -0.6015  1.1542  1.4219
 1024MOL0     H38206   0.676   8.252   0.481 -1.3310  0.8702  1.0777
 1024MOL0     H38207   0.638   8.092   0.534  1.5302  0.4064  0.1310
 1024MOL0     H38208   0.421   8.209   0.632 -2.6605 -0.9008 -0.9264
 1024MOL0     H38209   0.478   8.356   0.557  0.0997 -0.4660 -1.1101
 1024MOL0     H38210   0.411   8.090   0.417  0.4201 -0.0433  2.6348
 1024MOL0     H38211   0.483   8.238   0.335 -0.9563 -0.6233 -0.3050
 1024MOL0     H38212   0.268   8.361   0.442 -0.1339  1.2488  0.8086
 1024MOL0     H38213   0.207   8.199   0.455  1.5947 -0.0915 -1.1763
 1024MOL0     H38214   0.248   8.146   0.232 -0.7166 -0.0614  2.9437
 1024MOL0     H38215   0.135   8.278   0.241 -0.2068  3.3080  0.3177
 1024MOL0     H38216   0.249   8.334   0.050  0.7517  1.9077 -0.9077
 1024MOL0     H38217   0.412   8.289   0.125 -0.3668 -0.4237 -1.9937
 1024MOL0     H38218   0.375   8.521   0.078  2.0566 -1.0201  0.4341
 1024MOL0     H38219   0.230   8.516   0.181 -0.4672 -3.5171 -0.7457
 1024MOL0     H38220   0.791   8.575   0.668  0.2443  1.6212  1.3134
 1024MOL0     H38221   1.005   8.671   0.749 -0.0396 -0.1505  1.3309
 1024MOL0     H38222   1.349   8.715   0.971 -1.5761 -2.2181  0.1152
 1024MOL0     H38223   1.547   8.805   1.080 -0.8472  2.2627  0.1938
 1024MOL0     H38224   1.073   8.028   0.732  0.1746  1.2016 -2.6063
 1024MOL0     H38225   0.943   8.029   0.527 -1.9314  0.1901 -0.1806
 1024MOL0     H38226   0.550   7.914   0.311 -1.4833 -2.4430  2.7863
 1024MOL0     H38227   0.393   7.885   0.136  0.9191 -0.1544 -2.0614
 1024MOL0     H38228   0.250   7.476   0.051  1.1289  0.5851  1.0917
 1024MOL0     H38229   0.364   7.455  -0.074  1.2261 -0.3302  2.8592
 1024MOL0     H38230   0.164   7.461  -0.187 -0.7960  0.4477  0.1631
 1024MOL0     H38231   0.221   7.633  -0.212  0.3289  1.6496  1.9914
 1024MOL0     H38232   0.063   7.710  -0.038 -5.4184  1.3324 -0.3560
 1024MOL0     H38233   0.017   7.546  -0.002 -3.2249  1.5307  0.2684
 1024MOL0     H38234  -0.082   7.529  -0.237  3.3164 -0.7542 -0.7222
 1024MOL0     H38235  -0.149   7.657  -0.129  0.6144 -1.5900  1.5664
 1024MOL0     H38236   0.036   7.890  -0.435  2.1065  0.0408  1.1353
 1024MOL0     H38237   0.500   7.468   0.100 -2.9021 -0.2064  1.3583
 1024MOL0     H38238   0.723   7.445   0.359  1.5665 -1.4177 -0.3992
 1024MOL0     H38239   0.704   7.390   0.195  0.9202 -0.7839  0.0727
 1024MOL0     H38240   0.828   7.518   0.223 -0.6715  1.9427 -1.2317
  11.53150  11.53150  11.53150
